Protein in INSANE! Membrane UpperLeaflet>POPC=1.0 LowerLeaflet>POPC=1.0
241418
   81AUC    AUC    1  10.026  33.236   7.502
   82AUC    AUC    2  10.272  33.236   7.350
   83AUC    AUC    3  10.272  33.236   7.653
   84AUC    AUC    4   9.781  33.236   7.350
   85AUC    AUC    5   9.781  33.236   7.653
   86AUC    AUC    6   9.874  33.481   7.502
   87AUC    AUC    7  10.178  33.481   7.502
   88AUC    AUC    8   9.874  32.990   7.502
   89AUC    AUC    9  10.178  32.990   7.502
   90AUC    AUC   10  10.026  33.084   7.747
   91AUC    AUC   11  10.026  33.387   7.747
   92AUC    AUC   12  10.026  33.084   7.256
   93AUC    AUC   13  10.026  33.387   7.256
   94AUC    AUC   14  10.517  33.236   7.198
   95AUC    AUC   15  10.517  33.236   7.502
   96AUC    AUC   16  10.517  33.236   7.805
   97AUC    AUC   17   9.535  33.236   7.198
   98AUC    AUC   18   9.535  33.236   7.502
   99AUC    AUC   19   9.535  33.236   7.805
  100AUC    AUC   20   9.723  33.726   7.502
  101AUC    AUC   21  10.026  33.726   7.502
  102AUC    AUC   22  10.329  33.726   7.502
  103AUC    AUC   23   9.723  32.745   7.502
  104AUC    AUC   24  10.026  32.745   7.502
  105AUC    AUC   25  10.329  32.745   7.502
  106AUC    AUC   26  10.026  32.932   7.992
  107AUC    AUC   27  10.026  33.236   7.992
  108AUC    AUC   28  10.026  33.539   7.992
  109AUC    AUC   29  10.026  32.932   7.011
  110AUC    AUC   30  10.026  33.236   7.011
  111AUC    AUC   31  10.026  33.539   7.011
  112AUC    AUC   32  10.272  33.084   7.899
  113AUC    AUC   33  10.272  33.387   7.899
  114AUC    AUC   34  10.272  33.084   7.105
  115AUC    AUC   35  10.272  33.387   7.105
  116AUC    AUC   36   9.781  33.084   7.899
  117AUC    AUC   37   9.781  33.387   7.899
  118AUC    AUC   38   9.781  33.084   7.105
  119AUC    AUC   39   9.781  33.387   7.105
  120AUC    AUC   40  10.423  33.481   7.350
  121AUC    AUC   41  10.423  33.481   7.653
  122AUC    AUC   42   9.629  33.481   7.350
  123AUC    AUC   43   9.629  33.481   7.653
  124AUC    AUC   44  10.423  32.990   7.350
  125AUC    AUC   45  10.423  32.990   7.653
  126AUC    AUC   46   9.629  32.990   7.350
  127AUC    AUC   47   9.629  32.990   7.653
  128AUC    AUC   48   9.874  33.633   7.747
  129AUC    AUC   49  10.178  33.633   7.747
  130AUC    AUC   50   9.874  32.838   7.747
  131AUC    AUC   51  10.178  32.838   7.747
  132AUC    AUC   52   9.874  33.633   7.256
  133AUC    AUC   53  10.178  33.633   7.256
  134AUC    AUC   54   9.874  32.838   7.256
  135AUC    AUC   55  10.178  32.838   7.256
  136AUSL   AUS   56  10.435  33.236   8.082
  137AUSL   AUS   57  10.291  32.819   8.012
  138AUL    AUL   58  10.517  32.932   8.296
  139THSLK    S   59  10.405  32.631   8.156
  140ETHY    C1   60  10.471  32.246   8.391
  141ETHY    C1   61  10.614  31.838   8.710
  142ETHY    C1   62  10.823  31.502   9.066
  143ETHY    C1   63  11.089  31.244   9.450
  144ETHY    C1   64  11.405  31.068   9.855
  145THSLK    S   65  10.531  33.186   8.326
  146ETHY    C1   66  10.747  33.000   8.681
  147ETHY    C1   67  11.022  32.865   9.124
  148ETHY    C1   68  11.303  32.835   9.575
  149ETHY    C1   69  11.581  32.904  10.025
  150ETHY    C1   70  11.850  33.072  10.466
  151AUSL   AUS   71  10.190  33.084   8.175
  152AUSL   AUS   72   9.863  33.387   8.175
  153AUL    AUL   73  10.026  33.236   8.483
  154THSLK    S   74  10.268  33.031   8.417
  155ETHY    C1   75  10.345  32.781   8.790
  156ETHY    C1   76  10.461  32.564   9.269
  157ETHY    C1   77  10.598  32.448   9.769
  158ETHY    C1   78  10.748  32.430  10.281
  159ETHY    C1   79  10.907  32.511  10.794
  160THSLK    S   80   9.776  33.344   8.431
  161ETHY    C1   81   9.694  33.232   8.864
  162ETHY    C1   82   9.580  33.186   9.388
  163ETHY    C1   83   9.448  33.244   9.901
  164ETHY    C1   84   9.297  33.397  10.389
  165ETHY    C1   85   9.131  33.641  10.844
  166AUSL   AUS   86  10.190  33.387   8.175
  167AUSL   AUS   87  10.536  33.500   7.918
  168AUL    AUL   88  10.517  33.539   8.296
  169THSLK    S   89  10.277  33.441   8.414
  170ETHY    C1   90  10.358  33.692   8.786
  171ETHY    C1   91  10.472  33.908   9.265
  172ETHY    C1   92  10.605  34.024   9.767
  173ETHY    C1   93  10.755  34.042  10.279
  174ETHY    C1   94  10.921  33.962  10.789
  175THSLK    S   95  10.710  33.602   8.080
  176ETHY    C1   96  11.074  33.612   8.354
  177ETHY    C1   97  11.490  33.714   8.680
  178ETHY    C1   98  11.870  33.913   8.995
  179ETHY    C1   99  12.205  34.200   9.296
  180ETHY    C1  100  12.486  34.568   9.577
  181AUSL   AUS  101  10.435  33.236   6.922
  182AUSL   AUS  102  10.291  33.652   6.992
  183AUL    AUL  103  10.517  33.539   6.707
  184THSLK    S  104  10.538  33.186   6.681
  185ETHY    C1  105  10.759  33.000   6.329
  186ETHY    C1  106  11.032  32.865   5.885
  187ETHY    C1  107  11.310  32.835   5.432
  188ETHY    C1  108  11.588  32.904   4.982
  189ETHY    C1  109  11.862  33.072   4.545
  190THSLK    S  110  10.469  33.767   6.825
  191ETHY    C1  111  10.757  33.872   6.488
  192ETHY    C1  112  11.057  34.076   6.090
  193ETHY    C1  113  11.300  34.364   5.714
  194ETHY    C1  114  11.484  34.728   5.371
  195ETHY    C1  115  11.608  35.159   5.065
  196AUSL   AUS  116  10.190  33.084   6.828
  197AUSL   AUS  117  10.536  32.971   7.085
  198AUL    AUL  118  10.517  32.932   6.707
  199THSLK    S  119  10.673  32.779   6.944
  200ETHY    C1  120  10.881  32.436   6.729
  201ETHY    C1  121  11.182  32.094   6.442
  202ETHY    C1  122  11.533  31.841   6.133
  203ETHY    C1  123  11.927  31.679   5.812
  204ETHY    C1  124  12.356  31.608   5.486
  205THSLK    S  125  10.277  33.030   6.590
  206ETHY    C1  126  10.358  32.779   6.217
  207ETHY    C1  127  10.472  32.563   5.738
  208ETHY    C1  128  10.605  32.447   5.236
  209ETHY    C1  129  10.755  32.429   4.725
  210ETHY    C1  130  10.921  32.509   4.214
  211AUSL   AUS  131  10.190  33.387   6.828
  212AUSL   AUS  132   9.863  33.084   6.828
  213AUL    AUL  133  10.026  33.236   6.520
  214THSLK    S  134   9.768  33.030   6.592
  215ETHY    C1  135   9.631  32.782   6.235
  216ETHY    C1  136   9.471  32.568   5.767
  217ETHY    C1  137   9.324  32.453   5.269
  218ETHY    C1  138   9.197  32.434   4.751
  219ETHY    C1  139   9.092  32.510   4.224
  220THSLK    S  140  10.293  33.345   6.578
  221ETHY    C1  141  10.434  33.230   6.160
  222ETHY    C1  142  10.592  33.183   5.647
  223ETHY    C1  143  10.735  33.239   5.138
  224ETHY    C1  144  10.863  33.393   4.643
  225ETHY    C1  145  10.974  33.641   4.174
  226AUSL   AUS  146   9.617  33.236   8.082
  227AUSL   AUS  147   9.761  33.652   8.012
  228AUL    AUL  148   9.535  33.539   8.296
  229THSLK    S  149   9.514  33.186   8.322
  230ETHY    C1  150   9.293  33.000   8.674
  231ETHY    C1  151   9.020  32.865   9.118
  232ETHY    C1  152   8.743  32.835   9.571
  233ETHY    C1  153   8.465  32.904  10.021
  234ETHY    C1  154   8.190  33.072  10.458
  235THSLK    S  155   9.641  33.781   8.202
  236ETHY    C1  156   9.572  33.950   8.620
  237ETHY    C1  157   9.430  34.203   9.073
  238ETHY    C1  158   9.224  34.504   9.460
  239ETHY    C1  159   8.957  34.843   9.775
  240ETHY    C1  160   8.637  35.210  10.013
  241AUSL   AUS  161   9.863  33.084   8.175
  242AUSL   AUS  162   9.516  32.971   7.918
  243AUL    AUL  163   9.535  32.932   8.296
  244THSLK    S  164   9.338  32.807   8.029
  245ETHY    C1  165   8.970  32.554   8.125
  246ETHY    C1  166   8.555  32.275   8.323
  247ETHY    C1  167   8.177  32.035   8.611
  248ETHY    C1  168   7.843  31.839   8.978
  249ETHY    C1  169   7.557  31.693   9.415
  250THSLK    S  170   9.760  33.032   8.410
  251ETHY    C1  171   9.618  32.785   8.766
  252ETHY    C1  172   9.460  32.570   9.233
  253ETHY    C1  173   9.317  32.454   9.733
  254ETHY    C1  174   9.190  32.436  10.250
  255ETHY    C1  175   9.078  32.514  10.775
  256AUSL   AUS  176   9.617  33.236   6.922
  257AUSL   AUS  177   9.761  32.819   6.992
  258AUL    AUL  178   9.535  32.932   6.707
  259THSLK    S  179   9.522  33.186   6.677
  260ETHY    C1  180   9.305  33.000   6.322
  261ETHY    C1  181   9.030  32.865   5.879
  262ETHY    C1  182   8.749  32.835   5.429
  263ETHY    C1  183   8.471  32.904   4.978
  264ETHY    C1  184   8.203  33.072   4.537
  265THSLK    S  185   9.589  32.645   6.872
  266ETHY    C1  186   9.304  32.324   6.717
  267ETHY    C1  187   9.003  31.965   6.453
  268ETHY    C1  188   8.758  31.642   6.109
  269ETHY    C1  189   8.574  31.359   5.696
  270ETHY    C1  190   8.455  31.119   5.223
  271AUSL   AUS  191   9.863  33.387   6.828
  272AUSL   AUS  192   9.516  33.500   7.085
  273AUL    AUL  193   9.535  33.539   6.707
  274THSLK    S  194   9.385  33.630   6.893
  275ETHY    C1  195   9.179  33.730   6.499
  276ETHY    C1  196   8.877  33.894   6.085
  277ETHY    C1  197   8.523  34.106   5.748
  278ETHY    C1  198   8.130  34.360   5.494
  279ETHY    C1  199   7.705  34.653   5.324
  280THSLK    S  200   9.784  33.346   6.571
  281ETHY    C1  201   9.707  33.234   6.136
  282ETHY    C1  202   9.591  33.189   5.612
  283ETHY    C1  203   9.455  33.245   5.101
  284ETHY    C1  204   9.305  33.399   4.613
  285ETHY    C1  205   9.145  33.644   4.156
  286AUSL   AUS  206  10.606  33.645   7.502
  287AUSL   AUS  207  10.536  33.500   7.085
  288AUL    AUL  208  10.820  33.726   7.198
  289THSLK    S  209  10.715  33.603   6.930
  290ETHY    C1  210  11.082  33.614   6.659
  291ETHY    C1  211  11.497  33.716   6.332
  292ETHY    C1  212  11.875  33.914   6.014
  293ETHY    C1  213  12.209  34.201   5.713
  294ETHY    C1  214  12.495  34.571   5.438
  295THSLK    S  215  10.874  33.701   7.506
  296ETHY    C1  216  11.326  33.762   7.508
  297ETHY    C1  217  11.840  33.921   7.507
  298ETHY    C1  218  12.308  34.175   7.505
  299ETHY    C1  219  12.721  34.512   7.506
  300ETHY    C1  220  13.073  34.926   7.509
  301AUSL   AUS  221  10.700  33.399   7.350
  302AUSL   AUS  222  10.700  33.072   7.653
  303AUL    AUL  223  11.008  33.236   7.502
  304THSLK    S  224  10.959  33.442   7.348
  305ETHY    C1  225  11.404  33.372   7.278
  306ETHY    C1  226  11.935  33.379   7.190
  307ETHY    C1  227  12.448  33.489   7.101
  308ETHY    C1  228  12.933  33.695   7.017
  309ETHY    C1  229  13.380  33.992   6.940
  310THSLK    S  230  10.932  32.934   7.662
  311ETHY    C1  231  11.278  32.645   7.728
  312ETHY    C1  232  11.739  32.378   7.809
  313ETHY    C1  233  12.236  32.209   7.892
  314ETHY    C1  234  12.757  32.137   7.980
  315ETHY    C1  235  13.292  32.163   8.071
  316AUSL   AUS  236  10.700  33.399   7.653
  317AUSL   AUS  237  10.443  33.746   7.766
  318AUL    AUL  238  10.820  33.726   7.805
  319THSLK    S  239  10.626  33.865   7.926
  320ETHY    C1  240  10.998  34.020   8.139
  321ETHY    C1  241  11.398  34.285   8.385
  322ETHY    C1  242  11.732  34.629   8.615
  323ETHY    C1  243  11.994  35.042   8.827
  324ETHY    C1  244  12.181  35.514   9.019
  325THSLK    S  245  10.958  33.442   7.664
  326ETHY    C1  246  11.402  33.372   7.738
  327ETHY    C1  247  11.933  33.379   7.825
  328ETHY    C1  248  12.447  33.489   7.910
  329ETHY    C1  249  12.931  33.695   7.994
  330ETHY    C1  250  13.378  33.992   8.078
  331AUSL   AUS  251   9.446  33.645   7.502
  332AUSL   AUS  252   9.516  33.500   7.918
  333AUL    AUL  253   9.232  33.726   7.805
  334THSLK    S  254   9.380  33.623   8.109
  335ETHY    C1  255   9.171  33.719   8.503
  336ETHY    C1  256   8.870  33.885   8.917
  337ETHY    C1  257   8.519  34.100   9.254
  338ETHY    C1  258   8.125  34.354   9.509
  339ETHY    C1  259   7.696  34.641   9.678
  340THSLK    S  260   9.230  33.785   7.506
  341ETHY    C1  261   8.974  34.163   7.508
  342ETHY    C1  262   8.601  34.551   7.507
  343ETHY    C1  263   8.165  34.857   7.505
  344ETHY    C1  264   7.679  35.075   7.506
  345ETHY    C1  265   7.152  35.205   7.509
  346AUSL   AUS  266   9.352  33.399   7.350
  347AUSL   AUS  267   9.610  33.746   7.237
  348AUL    AUL  268   9.232  33.726   7.198
  349THSLK    S  269   9.121  33.514   7.303
  350ETHY    C1  270   8.774  33.702   7.075
  351ETHY    C1  271   8.314  33.894   6.872
  352ETHY    C1  272   7.816  34.044   6.758
  353ETHY    C1  273   7.295  34.154   6.733
  354ETHY    C1  274   6.761  34.224   6.796
  355THSLK    S  275   9.494  33.911   7.058
  356ETHY    C1  276   9.378  34.227   6.750
  357ETHY    C1  277   9.164  34.605   6.432
  358ETHY    C1  278   8.872  34.974   6.183
  359ETHY    C1  279   8.514  35.327   6.008
  360ETHY    C1  280   8.096  35.660   5.909
  361AUSL   AUS  281   9.352  33.399   7.653
  362AUSL   AUS  282   9.352  33.072   7.350
  363AUL    AUL  283   9.044  33.236   7.502
  364THSLK    S  284   9.094  32.998   7.390
  365ETHY    C1  285   8.650  32.963   7.486
  366ETHY    C1  286   8.119  32.882   7.518
  367ETHY    C1  287   7.605  32.757   7.458
  368ETHY    C1  288   7.121  32.589   7.311
  369ETHY    C1  289   6.674  32.382   7.083
  370THSLK    S  290   9.119  33.506   7.704
  371ETHY    C1  291   8.772  33.690   7.935
  372ETHY    C1  292   8.312  33.883   8.137
  373ETHY    C1  293   7.815  34.038   8.249
  374ETHY    C1  294   7.294  34.148   8.274
  375ETHY    C1  295   6.758  34.211   8.213
  376AUSL   AUS  296  10.606  32.826   7.502
  377AUSL   AUS  297  10.536  32.971   7.918
  378AUL    AUL  298  10.820  32.745   7.805
  379THSLK    S  299  10.822  32.686   7.506
  380ETHY    C1  300  11.078  32.308   7.508
  381ETHY    C1  301  11.451  31.920   7.507
  382ETHY    C1  302  11.887  31.614   7.505
  383ETHY    C1  303  12.373  31.396   7.506
  384ETHY    C1  304  12.900  31.266   7.509
  385THSLK    S  305  10.668  32.781   8.066
  386ETHY    C1  306  10.873  32.438   8.285
  387ETHY    C1  307  11.175  32.096   8.570
  388ETHY    C1  308  11.529  31.843   8.877
  389ETHY    C1  309  11.923  31.680   9.198
  390ETHY    C1  310  12.347  31.610   9.529
  391AUSL   AUS  311  10.700  33.072   7.350
  392AUSL   AUS  312  10.443  32.725   7.237
  393AUL    AUL  313  10.820  32.745   7.198
  394THSLK    S  314  10.933  32.934   7.350
  395ETHY    C1  315  11.281  32.645   7.289
  396ETHY    C1  316  11.740  32.378   7.206
  397ETHY    C1  317  12.237  32.209   7.118
  398ETHY    C1  318  12.759  32.137   7.031
  399ETHY    C1  319  13.294  32.163   6.947
  400THSLK    S  320  10.562  32.535   7.104
  401ETHY    C1  321  10.679  32.118   6.963
  402ETHY    C1  322  10.893  31.664   6.765
  403ETHY    C1  323  11.183  31.278   6.543
  404ETHY    C1  324  11.542  30.963   6.306
  405ETHY    C1  325  11.962  30.724   6.058
  406AUSL   AUS  326   9.446  32.826   7.502
  407AUSL   AUS  327   9.516  32.971   7.085
  408AUL    AUL  328   9.232  32.745   7.198
  409THSLK    S  329   9.343  32.800   6.973
  410ETHY    C1  330   8.978  32.543   6.877
  411ETHY    C1  331   8.562  32.266   6.679
  412ETHY    C1  332   8.182  32.029   6.392
  413ETHY    C1  333   7.848  31.833   6.025
  414ETHY    C1  334   7.566  31.681   5.587
  415THSLK    S  335   9.178  32.770   7.506
  416ETHY    C1  336   8.726  32.709   7.508
  417ETHY    C1  337   8.212  32.550   7.507
  418ETHY    C1  338   7.744  32.296   7.505
  419ETHY    C1  339   7.331  31.959   7.506
  420ETHY    C1  340   6.979  31.545   7.509
  421AUSL   AUS  341   9.352  33.072   7.653
  422AUSL   AUS  342   9.610  32.725   7.766
  423AUL    AUL  343   9.232  32.745   7.805
  424THSLK    S  344   9.422  32.581   7.880
  425ETHY    C1  345   9.048  32.324   7.926
  426ETHY    C1  346   8.650  31.984   8.052
  427ETHY    C1  347   8.317  31.622   8.255
  428ETHY    C1  348   8.055  31.248   8.529
  429ETHY    C1  349   7.864  30.870   8.870
  430THSLK    S  350   9.093  33.005   7.617
  431ETHY    C1  351   8.648  32.975   7.524
  432ETHY    C1  352   8.117  32.893   7.490
  433ETHY    C1  353   7.604  32.764   7.549
  434ETHY    C1  354   7.120  32.596   7.696
  435ETHY    C1  355   6.672  32.394   7.928
  436AUSL   AUS  356  10.026  33.816   7.911
  437AUSL   AUS  357   9.610  33.746   7.766
  438AUL    AUL  358   9.723  34.030   7.992
  439THSLK    S  359   9.490  33.905   7.950
  440ETHY    C1  360   9.373  34.217   8.261
  441ETHY    C1  361   9.159  34.597   8.578
  442ETHY    C1  362   8.869  34.968   8.824
  443ETHY    C1  363   8.511  35.322   9.000
  444ETHY    C1  364   8.090  35.650   9.102
  445THSLK    S  365  10.066  34.042   8.035
  446ETHY    C1  366  10.223  34.344   8.339
  447ETHY    C1  367  10.338  34.750   8.672
  448ETHY    C1  368  10.365  35.194   8.964
  449ETHY    C1  369  10.305  35.663   9.211
  450ETHY    C1  370  10.161  36.147   9.410
  451AUSL   AUS  371   9.874  33.909   7.665
  452AUSL   AUS  372  10.178  33.909   7.338
  453AUL    AUL  373  10.026  34.217   7.502
  454THSLK    S  374   9.915  34.157   7.774
  455ETHY    C1  375  10.024  34.567   7.942
  456ETHY    C1  376  10.068  35.074   8.118
  457ETHY    C1  377  10.011  35.582   8.265
  458ETHY    C1  378   9.858  36.079   8.383
  459ETHY    C1  379   9.615  36.556   8.472
  460THSLK    S  380  10.231  34.144   7.241
  461ETHY    C1  381  10.476  34.500   7.094
  462ETHY    C1  382  10.689  34.965   6.927
  463ETHY    C1  383  10.804  35.463   6.779
  464ETHY    C1  384  10.824  35.982   6.655
  465ETHY    C1  385  10.749  36.511   6.558
  466AUSL   AUS  386  10.178  33.909   7.665
  467AUSL   AUS  387  10.291  33.652   8.012
  468AUL    AUL  388  10.329  34.030   7.992
  469THSLK    S  389  10.463  33.765   8.184
  470ETHY    C1  390  10.748  33.868   8.524
  471ETHY    C1  391  11.050  34.072   8.921
  472ETHY    C1  392  11.295  34.362   9.294
  473ETHY    C1  393  11.479  34.725   9.638
  474ETHY    C1  394  11.598  35.155   9.948
  475THSLK    S  395  10.229  34.143   7.771
  476ETHY    C1  396  10.473  34.497   7.922
  477ETHY    C1  397  10.686  34.963   8.087
  478ETHY    C1  398  10.802  35.462   8.231
  479ETHY    C1  399  10.821  35.980   8.356
  480ETHY    C1  400  10.746  36.508   8.458
  481AUSL   AUS  401  10.026  32.656   7.911
  482AUSL   AUS  402  10.443  32.725   7.766
  483AUL    AUL  403  10.329  32.441   7.992
  484THSLK    S  404   9.982  32.401   7.990
  485ETHY    C1  405   9.822  31.997   8.128
  486ETHY    C1  406   9.708  31.516   8.341
  487ETHY    C1  407   9.683  31.055   8.605
  488ETHY    C1  408   9.742  30.625   8.915
  489ETHY    C1  409   9.883  30.233   9.263
  490THSLK    S  410  10.558  32.536   7.908
  491ETHY    C1  411  10.674  32.120   8.052
  492ETHY    C1  412  10.888  31.667   8.248
  493ETHY    C1  413  11.180  31.279   8.467
  494ETHY    C1  414  11.539  30.964   8.705
  495ETHY    C1  415  11.956  30.727   8.958
  496AUSL   AUS  416   9.874  32.562   7.665
  497AUSL   AUS  417   9.761  32.819   8.012
  498AUL    AUL  418   9.723  32.441   7.992
  499THSLK    S  419   9.821  32.322   7.745
  500ETHY    C1  420   9.576  31.941   7.801
  501ETHY    C1  421   9.363  31.456   7.897
  502ETHY    C1  422   9.248  30.953   8.025
  503ETHY    C1  423   9.229  30.444   8.186
  504ETHY    C1  424   9.303  29.941   8.374
  505THSLK    S  425   9.583  32.651   8.133
  506ETHY    C1  426   9.295  32.333   8.289
  507ETHY    C1  427   8.995  31.973   8.552
  508ETHY    C1  428   8.752  31.647   8.896
  509ETHY    C1  429   8.568  31.364   9.309
  510ETHY    C1  430   8.444  31.130   9.783
  511AUSL   AUS  431  10.178  32.562   7.665
  512AUSL   AUS  432   9.874  32.562   7.338
  513AUL    AUL  433  10.026  32.254   7.502
  514THSLK    S  434   9.823  32.319   7.266
  515ETHY    C1  435   9.579  31.937   7.215
  516ETHY    C1  436   9.366  31.453   7.117
  517ETHY    C1  437   9.250  30.951   6.984
  518ETHY    C1  438   9.231  30.442   6.825
  519ETHY    C1  439   9.307  29.937   6.642
  520THSLK    S  440  10.135  32.306   7.749
  521ETHY    C1  441  10.025  31.870   7.821
  522ETHY    C1  442   9.982  31.344   7.928
  523ETHY    C1  443  10.039  30.832   8.059
  524ETHY    C1  444  10.192  30.344   8.213
  525ETHY    C1  445  10.434  29.891   8.388
  526AUSL   AUS  446  10.026  33.816   7.093
  527AUSL   AUS  447  10.443  33.746   7.237
  528AUL    AUL  448  10.329  34.030   7.011
  529THSLK    S  449  10.070  34.046   6.975
  530ETHY    C1  450  10.230  34.350   6.674
  531ETHY    C1  451  10.344  34.755   6.339
  532ETHY    C1  452  10.369  35.198   6.045
  533ETHY    C1  453  10.310  35.667   5.798
  534ETHY    C1  454  10.169  36.154   5.604
  535THSLK    S  455  10.630  33.867   7.085
  536ETHY    C1  456  11.004  34.023   6.876
  537ETHY    C1  457  11.402  34.287   6.629
  538ETHY    C1  458  11.735  34.631   6.395
  539ETHY    C1  459  11.997  35.043   6.184
  540ETHY    C1  460  12.188  35.517   5.998
  541AUSL   AUS  461   9.874  33.909   7.338
  542AUSL   AUS  462   9.761  33.652   6.992
  543AUL    AUL  463   9.723  34.030   7.011
  544THSLK    S  464   9.917  34.160   7.237
  545ETHY    C1  465  10.027  34.571   7.074
  546ETHY    C1  466  10.070  35.077   6.896
  547ETHY    C1  467  10.013  35.585   6.745
  548ETHY    C1  468   9.860  36.082   6.627
  549ETHY    C1  469   9.618  36.561   6.545
  550THSLK    S  470   9.647  33.787   6.802
  551ETHY    C1  471   9.581  33.959   6.385
  552ETHY    C1  472   9.438  34.211   5.932
  553ETHY    C1  473   9.229  34.510   5.544
  554ETHY    C1  474   8.963  34.848   5.230
  555ETHY    C1  475   8.647  35.221   4.993
  556AUSL   AUS  476  10.026  32.656   7.093
  557AUSL   AUS  477   9.610  32.725   7.237
  558AUL    AUL  478   9.723  32.441   7.011
  559THSLK    S  479   9.426  32.575   7.128
  560ETHY    C1  480   9.054  32.314   7.085
  561ETHY    C1  481   8.655  31.976   6.958
  562ETHY    C1  482   8.320  31.617   6.753
  563ETHY    C1  483   8.058  31.243   6.478
  564ETHY    C1  484   7.871  30.860   6.142
  565THSLK    S  485   9.986  32.397   7.019
  566ETHY    C1  486   9.829  31.991   6.885
  567ETHY    C1  487   9.714  31.511   6.671
  568ETHY    C1  488   9.687  31.052   6.404
  569ETHY    C1  489   9.747  30.621   6.094
  570ETHY    C1  490   9.891  30.226   5.751
  571AUSL   AUS  491  10.178  32.562   7.338
  572AUSL   AUS  492  10.291  32.819   6.992
  573AUL    AUL  493  10.329  32.441   7.011
  574THSLK    S  494  10.137  32.305   7.262
  575ETHY    C1  495  10.028  31.867   7.195
  576ETHY    C1  496   9.985  31.341   7.086
  577ETHY    C1  497  10.041  30.830   6.951
  578ETHY    C1  498  10.194  30.342   6.798
  579ETHY    C1  499  10.438  29.888   6.629
  580THSLK    S  500  10.411  32.629   6.853
  581ETHY    C1  501  10.480  32.243   6.621
  582ETHY    C1  502  10.622  31.835   6.300
  583ETHY    C1  503  10.829  31.499   5.942
  584ETHY    C1  504  11.095  31.242   5.559
  585ETHY    C1  505  11.415  31.064   5.158
  586AUC    AUC  506   6.521  24.735   7.502
  587AUC    AUC  507   6.767  24.735   7.350
  588AUC    AUC  508   6.767  24.735   7.653
  589AUC    AUC  509   6.276  24.735   7.350
  590AUC    AUC  510   6.276  24.735   7.653
  591AUC    AUC  511   6.369  24.980   7.502
  592AUC    AUC  512   6.673  24.980   7.502
  593AUC    AUC  513   6.369  24.489   7.502
  594AUC    AUC  514   6.673  24.489   7.502
  595AUC    AUC  515   6.521  24.583   7.747
  596AUC    AUC  516   6.521  24.886   7.747
  597AUC    AUC  517   6.521  24.583   7.256
  598AUC    AUC  518   6.521  24.886   7.256
  599AUC    AUC  519   7.012  24.735   7.198
  600AUC    AUC  520   7.012  24.735   7.502
  601AUC    AUC  521   7.012  24.735   7.805
  602AUC    AUC  522   6.030  24.735   7.198
  603AUC    AUC  523   6.030  24.735   7.502
  604AUC    AUC  524   6.030  24.735   7.805
  605AUC    AUC  525   6.218  25.225   7.502
  606AUC    AUC  526   6.521  25.225   7.502
  607AUC    AUC  527   6.824  25.225   7.502
  608AUC    AUC  528   6.218  24.244   7.502
  609AUC    AUC  529   6.521  24.244   7.502
  610AUC    AUC  530   6.824  24.244   7.502
  611AUC    AUC  531   6.521  24.431   7.992
  612AUC    AUC  532   6.521  24.735   7.992
  613AUC    AUC  533   6.521  25.038   7.992
  614AUC    AUC  534   6.521  24.431   7.011
  615AUC    AUC  535   6.521  24.735   7.011
  616AUC    AUC  536   6.521  25.038   7.011
  617AUC    AUC  537   6.767  24.583   7.899
  618AUC    AUC  538   6.767  24.886   7.899
  619AUC    AUC  539   6.767  24.583   7.105
  620AUC    AUC  540   6.767  24.886   7.105
  621AUC    AUC  541   6.276  24.583   7.899
  622AUC    AUC  542   6.276  24.886   7.899
  623AUC    AUC  543   6.276  24.583   7.105
  624AUC    AUC  544   6.276  24.886   7.105
  625AUC    AUC  545   6.918  24.980   7.350
  626AUC    AUC  546   6.918  24.980   7.653
  627AUC    AUC  547   6.124  24.980   7.350
  628AUC    AUC  548   6.124  24.980   7.653
  629AUC    AUC  549   6.918  24.489   7.350
  630AUC    AUC  550   6.918  24.489   7.653
  631AUC    AUC  551   6.124  24.489   7.350
  632AUC    AUC  552   6.124  24.489   7.653
  633AUC    AUC  553   6.369  25.132   7.747
  634AUC    AUC  554   6.673  25.132   7.747
  635AUC    AUC  555   6.369  24.337   7.747
  636AUC    AUC  556   6.673  24.337   7.747
  637AUC    AUC  557   6.369  25.132   7.256
  638AUC    AUC  558   6.673  25.132   7.256
  639AUC    AUC  559   6.369  24.337   7.256
  640AUC    AUC  560   6.673  24.337   7.256
  641AUSL   AUS  561   6.930  24.735   8.082
  642AUSL   AUS  562   6.786  24.318   8.012
  643AUL    AUL  563   7.012  24.431   8.296
  644THSLK    S  564   6.900  24.130   8.156
  645ETHY    C1  565   6.966  23.745   8.391
  646ETHY    C1  566   7.109  23.337   8.710
  647ETHY    C1  567   7.318  23.001   9.066
  648ETHY    C1  568   7.584  22.743   9.450
  649ETHY    C1  569   7.900  22.567   9.855
  650THSLK    S  570   7.026  24.685   8.326
  651ETHY    C1  571   7.242  24.499   8.681
  652ETHY    C1  572   7.517  24.364   9.124
  653ETHY    C1  573   7.798  24.334   9.575
  654ETHY    C1  574   8.076  24.403  10.025
  655ETHY    C1  575   8.345  24.571  10.466
  656AUSL   AUS  576   6.685  24.583   8.175
  657AUSL   AUS  577   6.358  24.886   8.175
  658AUL    AUL  578   6.521  24.735   8.483
  659THSLK    S  579   6.763  24.530   8.417
  660ETHY    C1  580   6.840  24.280   8.790
  661ETHY    C1  581   6.956  24.063   9.269
  662ETHY    C1  582   7.093  23.947   9.769
  663ETHY    C1  583   7.243  23.929  10.281
  664ETHY    C1  584   7.402  24.010  10.794
  665THSLK    S  585   6.271  24.843   8.431
  666ETHY    C1  586   6.189  24.731   8.864
  667ETHY    C1  587   6.075  24.685   9.388
  668ETHY    C1  588   5.943  24.743   9.901
  669ETHY    C1  589   5.792  24.896  10.389
  670ETHY    C1  590   5.626  25.140  10.844
  671AUSL   AUS  591   6.685  24.886   8.175
  672AUSL   AUS  592   7.031  24.999   7.918
  673AUL    AUL  593   7.012  25.038   8.296
  674THSLK    S  594   6.772  24.940   8.414
  675ETHY    C1  595   6.853  25.191   8.786
  676ETHY    C1  596   6.967  25.407   9.265
  677ETHY    C1  597   7.100  25.523   9.767
  678ETHY    C1  598   7.250  25.541  10.279
  679ETHY    C1  599   7.416  25.461  10.789
  680THSLK    S  600   7.205  25.101   8.080
  681ETHY    C1  601   7.569  25.111   8.354
  682ETHY    C1  602   7.985  25.213   8.680
  683ETHY    C1  603   8.365  25.412   8.995
  684ETHY    C1  604   8.700  25.699   9.296
  685ETHY    C1  605   8.981  26.067   9.577
  686AUSL   AUS  606   6.930  24.735   6.922
  687AUSL   AUS  607   6.786  25.151   6.992
  688AUL    AUL  608   7.012  25.038   6.707
  689THSLK    S  609   7.033  24.685   6.681
  690ETHY    C1  610   7.254  24.499   6.329
  691ETHY    C1  611   7.527  24.364   5.885
  692ETHY    C1  612   7.805  24.334   5.432
  693ETHY    C1  613   8.083  24.403   4.982
  694ETHY    C1  614   8.357  24.571   4.545
  695THSLK    S  615   6.964  25.266   6.825
  696ETHY    C1  616   7.252  25.371   6.488
  697ETHY    C1  617   7.552  25.575   6.090
  698ETHY    C1  618   7.795  25.863   5.714
  699ETHY    C1  619   7.979  26.227   5.371
  700ETHY    C1  620   8.103  26.658   5.065
  701AUSL   AUS  621   6.685  24.583   6.828
  702AUSL   AUS  622   7.031  24.470   7.085
  703AUL    AUL  623   7.012  24.431   6.707
  704THSLK    S  624   7.168  24.278   6.944
  705ETHY    C1  625   7.376  23.935   6.729
  706ETHY    C1  626   7.677  23.593   6.442
  707ETHY    C1  627   8.028  23.340   6.133
  708ETHY    C1  628   8.422  23.178   5.812
  709ETHY    C1  629   8.851  23.107   5.486
  710THSLK    S  630   6.772  24.529   6.590
  711ETHY    C1  631   6.853  24.278   6.217
  712ETHY    C1  632   6.967  24.062   5.738
  713ETHY    C1  633   7.100  23.946   5.236
  714ETHY    C1  634   7.250  23.928   4.725
  715ETHY    C1  635   7.416  24.008   4.214
  716AUSL   AUS  636   6.685  24.886   6.828
  717AUSL   AUS  637   6.358  24.583   6.828
  718AUL    AUL  638   6.521  24.735   6.520
  719THSLK    S  639   6.263  24.529   6.592
  720ETHY    C1  640   6.126  24.281   6.235
  721ETHY    C1  641   5.966  24.067   5.767
  722ETHY    C1  642   5.819  23.952   5.269
  723ETHY    C1  643   5.692  23.933   4.751
  724ETHY    C1  644   5.587  24.009   4.224
  725THSLK    S  645   6.788  24.844   6.578
  726ETHY    C1  646   6.929  24.729   6.160
  727ETHY    C1  647   7.087  24.682   5.647
  728ETHY    C1  648   7.230  24.738   5.138
  729ETHY    C1  649   7.358  24.892   4.643
  730ETHY    C1  650   7.469  25.140   4.174
  731AUSL   AUS  651   6.112  24.735   8.082
  732AUSL   AUS  652   6.256  25.151   8.012
  733AUL    AUL  653   6.030  25.038   8.296
  734THSLK    S  654   6.009  24.685   8.322
  735ETHY    C1  655   5.788  24.499   8.674
  736ETHY    C1  656   5.515  24.364   9.118
  737ETHY    C1  657   5.238  24.334   9.571
  738ETHY    C1  658   4.960  24.403  10.021
  739ETHY    C1  659   4.685  24.571  10.458
  740THSLK    S  660   6.136  25.280   8.202
  741ETHY    C1  661   6.067  25.449   8.620
  742ETHY    C1  662   5.925  25.702   9.073
  743ETHY    C1  663   5.719  26.003   9.460
  744ETHY    C1  664   5.452  26.342   9.775
  745ETHY    C1  665   5.132  26.709  10.013
  746AUSL   AUS  666   6.358  24.583   8.175
  747AUSL   AUS  667   6.011  24.470   7.918
  748AUL    AUL  668   6.030  24.431   8.296
  749THSLK    S  669   5.833  24.306   8.029
  750ETHY    C1  670   5.465  24.053   8.125
  751ETHY    C1  671   5.050  23.774   8.323
  752ETHY    C1  672   4.672  23.534   8.611
  753ETHY    C1  673   4.338  23.338   8.978
  754ETHY    C1  674   4.052  23.192   9.415
  755THSLK    S  675   6.255  24.531   8.410
  756ETHY    C1  676   6.113  24.284   8.766
  757ETHY    C1  677   5.955  24.069   9.233
  758ETHY    C1  678   5.812  23.953   9.733
  759ETHY    C1  679   5.685  23.935  10.250
  760ETHY    C1  680   5.573  24.013  10.775
  761AUSL   AUS  681   6.112  24.735   6.922
  762AUSL   AUS  682   6.256  24.318   6.992
  763AUL    AUL  683   6.030  24.431   6.707
  764THSLK    S  684   6.017  24.685   6.677
  765ETHY    C1  685   5.800  24.499   6.322
  766ETHY    C1  686   5.525  24.364   5.879
  767ETHY    C1  687   5.244  24.334   5.429
  768ETHY    C1  688   4.966  24.403   4.978
  769ETHY    C1  689   4.698  24.571   4.537
  770THSLK    S  690   6.084  24.144   6.872
  771ETHY    C1  691   5.799  23.823   6.717
  772ETHY    C1  692   5.498  23.464   6.453
  773ETHY    C1  693   5.253  23.141   6.109
  774ETHY    C1  694   5.069  22.858   5.696
  775ETHY    C1  695   4.950  22.618   5.223
  776AUSL   AUS  696   6.358  24.886   6.828
  777AUSL   AUS  697   6.011  24.999   7.085
  778AUL    AUL  698   6.030  25.038   6.707
  779THSLK    S  699   5.880  25.129   6.893
  780ETHY    C1  700   5.674  25.229   6.499
  781ETHY    C1  701   5.372  25.393   6.085
  782ETHY    C1  702   5.018  25.605   5.748
  783ETHY    C1  703   4.625  25.859   5.494
  784ETHY    C1  704   4.200  26.152   5.324
  785THSLK    S  705   6.279  24.845   6.571
  786ETHY    C1  706   6.202  24.733   6.136
  787ETHY    C1  707   6.086  24.688   5.612
  788ETHY    C1  708   5.950  24.744   5.101
  789ETHY    C1  709   5.800  24.898   4.613
  790ETHY    C1  710   5.640  25.143   4.156
  791AUSL   AUS  711   7.101  25.144   7.502
  792AUSL   AUS  712   7.031  24.999   7.085
  793AUL    AUL  713   7.315  25.225   7.198
  794THSLK    S  714   7.210  25.102   6.930
  795ETHY    C1  715   7.577  25.113   6.659
  796ETHY    C1  716   7.992  25.215   6.332
  797ETHY    C1  717   8.370  25.413   6.014
  798ETHY    C1  718   8.704  25.700   5.713
  799ETHY    C1  719   8.990  26.070   5.438
  800THSLK    S  720   7.369  25.200   7.506
  801ETHY    C1  721   7.821  25.261   7.508
  802ETHY    C1  722   8.335  25.420   7.507
  803ETHY    C1  723   8.803  25.674   7.505
  804ETHY    C1  724   9.216  26.011   7.506
  805ETHY    C1  725   9.568  26.425   7.509
  806AUSL   AUS  726   7.195  24.898   7.350
  807AUSL   AUS  727   7.195  24.571   7.653
  808AUL    AUL  728   7.503  24.735   7.502
  809THSLK    S  729   7.454  24.941   7.348
  810ETHY    C1  730   7.899  24.871   7.278
  811ETHY    C1  731   8.430  24.878   7.190
  812ETHY    C1  732   8.943  24.988   7.101
  813ETHY    C1  733   9.428  25.194   7.017
  814ETHY    C1  734   9.875  25.491   6.940
  815THSLK    S  735   7.427  24.433   7.662
  816ETHY    C1  736   7.773  24.144   7.728
  817ETHY    C1  737   8.234  23.877   7.809
  818ETHY    C1  738   8.731  23.708   7.892
  819ETHY    C1  739   9.252  23.636   7.980
  820ETHY    C1  740   9.787  23.662   8.071
  821AUSL   AUS  741   7.195  24.898   7.653
  822AUSL   AUS  742   6.938  25.245   7.766
  823AUL    AUL  743   7.315  25.225   7.805
  824THSLK    S  744   7.121  25.364   7.926
  825ETHY    C1  745   7.493  25.519   8.139
  826ETHY    C1  746   7.893  25.784   8.385
  827ETHY    C1  747   8.227  26.128   8.615
  828ETHY    C1  748   8.489  26.541   8.827
  829ETHY    C1  749   8.676  27.013   9.019
  830THSLK    S  750   7.453  24.941   7.664
  831ETHY    C1  751   7.897  24.871   7.738
  832ETHY    C1  752   8.428  24.878   7.825
  833ETHY    C1  753   8.942  24.988   7.910
  834ETHY    C1  754   9.426  25.194   7.994
  835ETHY    C1  755   9.873  25.491   8.078
  836AUSL   AUS  756   5.941  25.144   7.502
  837AUSL   AUS  757   6.011  24.999   7.918
  838AUL    AUL  758   5.727  25.225   7.805
  839THSLK    S  759   5.875  25.122   8.109
  840ETHY    C1  760   5.666  25.218   8.503
  841ETHY    C1  761   5.365  25.384   8.917
  842ETHY    C1  762   5.014  25.599   9.254
  843ETHY    C1  763   4.620  25.853   9.509
  844ETHY    C1  764   4.191  26.140   9.678
  845THSLK    S  765   5.725  25.284   7.506
  846ETHY    C1  766   5.469  25.662   7.508
  847ETHY    C1  767   5.096  26.050   7.507
  848ETHY    C1  768   4.660  26.356   7.505
  849ETHY    C1  769   4.174  26.574   7.506
  850ETHY    C1  770   3.647  26.704   7.509
  851AUSL   AUS  771   5.847  24.898   7.350
  852AUSL   AUS  772   6.105  25.245   7.237
  853AUL    AUL  773   5.727  25.225   7.198
  854THSLK    S  774   5.616  25.013   7.303
  855ETHY    C1  775   5.269  25.201   7.075
  856ETHY    C1  776   4.809  25.393   6.872
  857ETHY    C1  777   4.311  25.543   6.758
  858ETHY    C1  778   3.790  25.653   6.733
  859ETHY    C1  779   3.256  25.723   6.796
  860THSLK    S  780   5.989  25.410   7.058
  861ETHY    C1  781   5.873  25.726   6.750
  862ETHY    C1  782   5.659  26.104   6.432
  863ETHY    C1  783   5.367  26.473   6.183
  864ETHY    C1  784   5.009  26.826   6.008
  865ETHY    C1  785   4.591  27.159   5.909
  866AUSL   AUS  786   5.847  24.898   7.653
  867AUSL   AUS  787   5.847  24.571   7.350
  868AUL    AUL  788   5.539  24.735   7.502
  869THSLK    S  789   5.589  24.497   7.390
  870ETHY    C1  790   5.145  24.462   7.486
  871ETHY    C1  791   4.614  24.381   7.518
  872ETHY    C1  792   4.100  24.256   7.458
  873ETHY    C1  793   3.616  24.088   7.311
  874ETHY    C1  794   3.169  23.881   7.083
  875THSLK    S  795   5.614  25.005   7.704
  876ETHY    C1  796   5.267  25.189   7.935
  877ETHY    C1  797   4.807  25.382   8.137
  878ETHY    C1  798   4.310  25.537   8.249
  879ETHY    C1  799   3.789  25.647   8.274
  880ETHY    C1  800   3.253  25.710   8.213
  881AUSL   AUS  801   7.101  24.325   7.502
  882AUSL   AUS  802   7.031  24.470   7.918
  883AUL    AUL  803   7.315  24.244   7.805
  884THSLK    S  804   7.317  24.185   7.506
  885ETHY    C1  805   7.573  23.807   7.508
  886ETHY    C1  806   7.946  23.419   7.507
  887ETHY    C1  807   8.382  23.113   7.505
  888ETHY    C1  808   8.868  22.895   7.506
  889ETHY    C1  809   9.395  22.765   7.509
  890THSLK    S  810   7.163  24.280   8.066
  891ETHY    C1  811   7.368  23.937   8.285
  892ETHY    C1  812   7.670  23.595   8.570
  893ETHY    C1  813   8.024  23.342   8.877
  894ETHY    C1  814   8.418  23.179   9.198
  895ETHY    C1  815   8.842  23.109   9.529
  896AUSL   AUS  816   7.195  24.571   7.350
  897AUSL   AUS  817   6.938  24.224   7.237
  898AUL    AUL  818   7.315  24.244   7.198
  899THSLK    S  819   7.428  24.433   7.350
  900ETHY    C1  820   7.776  24.144   7.289
  901ETHY    C1  821   8.235  23.877   7.206
  902ETHY    C1  822   8.732  23.708   7.118
  903ETHY    C1  823   9.254  23.636   7.031
  904ETHY    C1  824   9.789  23.662   6.947
  905THSLK    S  825   7.057  24.034   7.104
  906ETHY    C1  826   7.174  23.617   6.963
  907ETHY    C1  827   7.388  23.163   6.765
  908ETHY    C1  828   7.678  22.777   6.543
  909ETHY    C1  829   8.037  22.462   6.306
  910ETHY    C1  830   8.457  22.223   6.058
  911AUSL   AUS  831   5.941  24.325   7.502
  912AUSL   AUS  832   6.011  24.470   7.085
  913AUL    AUL  833   5.727  24.244   7.198
  914THSLK    S  834   5.838  24.299   6.973
  915ETHY    C1  835   5.473  24.042   6.877
  916ETHY    C1  836   5.057  23.765   6.679
  917ETHY    C1  837   4.677  23.528   6.392
  918ETHY    C1  838   4.343  23.332   6.025
  919ETHY    C1  839   4.061  23.180   5.587
  920THSLK    S  840   5.673  24.269   7.506
  921ETHY    C1  841   5.221  24.208   7.508
  922ETHY    C1  842   4.707  24.049   7.507
  923ETHY    C1  843   4.239  23.795   7.505
  924ETHY    C1  844   3.826  23.458   7.506
  925ETHY    C1  845   3.474  23.044   7.509
  926AUSL   AUS  846   5.847  24.571   7.653
  927AUSL   AUS  847   6.105  24.224   7.766
  928AUL    AUL  848   5.727  24.244   7.805
  929THSLK    S  849   5.917  24.080   7.880
  930ETHY    C1  850   5.543  23.823   7.926
  931ETHY    C1  851   5.145  23.483   8.052
  932ETHY    C1  852   4.812  23.121   8.255
  933ETHY    C1  853   4.550  22.747   8.529
  934ETHY    C1  854   4.359  22.369   8.870
  935THSLK    S  855   5.588  24.504   7.617
  936ETHY    C1  856   5.143  24.474   7.524
  937ETHY    C1  857   4.612  24.392   7.490
  938ETHY    C1  858   4.099  24.263   7.549
  939ETHY    C1  859   3.615  24.095   7.696
  940ETHY    C1  860   3.167  23.893   7.928
  941AUSL   AUS  861   6.521  25.315   7.911
  942AUSL   AUS  862   6.105  25.245   7.766
  943AUL    AUL  863   6.218  25.529   7.992
  944THSLK    S  864   5.985  25.404   7.950
  945ETHY    C1  865   5.868  25.716   8.261
  946ETHY    C1  866   5.654  26.096   8.578
  947ETHY    C1  867   5.364  26.467   8.824
  948ETHY    C1  868   5.006  26.821   9.000
  949ETHY    C1  869   4.585  27.149   9.102
  950THSLK    S  870   6.561  25.541   8.035
  951ETHY    C1  871   6.718  25.843   8.339
  952ETHY    C1  872   6.833  26.249   8.672
  953ETHY    C1  873   6.860  26.693   8.964
  954ETHY    C1  874   6.800  27.162   9.211
  955ETHY    C1  875   6.656  27.646   9.410
  956AUSL   AUS  876   6.369  25.408   7.665
  957AUSL   AUS  877   6.673  25.408   7.338
  958AUL    AUL  878   6.521  25.716   7.502
  959THSLK    S  879   6.410  25.656   7.774
  960ETHY    C1  880   6.519  26.066   7.942
  961ETHY    C1  881   6.563  26.573   8.118
  962ETHY    C1  882   6.506  27.081   8.265
  963ETHY    C1  883   6.353  27.578   8.383
  964ETHY    C1  884   6.110  28.055   8.472
  965THSLK    S  885   6.726  25.643   7.241
  966ETHY    C1  886   6.971  25.999   7.094
  967ETHY    C1  887   7.184  26.464   6.927
  968ETHY    C1  888   7.299  26.962   6.779
  969ETHY    C1  889   7.319  27.481   6.655
  970ETHY    C1  890   7.244  28.010   6.558
  971AUSL   AUS  891   6.673  25.408   7.665
  972AUSL   AUS  892   6.786  25.151   8.012
  973AUL    AUL  893   6.824  25.529   7.992
  974THSLK    S  894   6.958  25.264   8.184
  975ETHY    C1  895   7.243  25.367   8.524
  976ETHY    C1  896   7.545  25.571   8.921
  977ETHY    C1  897   7.790  25.861   9.294
  978ETHY    C1  898   7.974  26.224   9.638
  979ETHY    C1  899   8.093  26.654   9.948
  980THSLK    S  900   6.724  25.642   7.771
  981ETHY    C1  901   6.968  25.996   7.922
  982ETHY    C1  902   7.181  26.462   8.087
  983ETHY    C1  903   7.297  26.961   8.231
  984ETHY    C1  904   7.316  27.479   8.356
  985ETHY    C1  905   7.241  28.007   8.458
  986AUSL   AUS  906   6.521  24.155   7.911
  987AUSL   AUS  907   6.938  24.224   7.766
  988AUL    AUL  908   6.824  23.940   7.992
  989THSLK    S  909   6.477  23.900   7.990
  990ETHY    C1  910   6.317  23.496   8.128
  991ETHY    C1  911   6.203  23.015   8.341
  992ETHY    C1  912   6.178  22.554   8.605
  993ETHY    C1  913   6.237  22.124   8.915
  994ETHY    C1  914   6.378  21.732   9.263
  995THSLK    S  915   7.053  24.035   7.908
  996ETHY    C1  916   7.169  23.619   8.052
  997ETHY    C1  917   7.383  23.166   8.248
  998ETHY    C1  918   7.675  22.778   8.467
  999ETHY    C1  919   8.034  22.463   8.705
 1000ETHY    C1  920   8.451  22.226   8.958
 1001AUSL   AUS  921   6.369  24.061   7.665
 1002AUSL   AUS  922   6.256  24.318   8.012
 1003AUL    AUL  923   6.218  23.940   7.992
 1004THSLK    S  924   6.316  23.821   7.745
 1005ETHY    C1  925   6.071  23.440   7.801
 1006ETHY    C1  926   5.858  22.955   7.897
 1007ETHY    C1  927   5.743  22.452   8.025
 1008ETHY    C1  928   5.724  21.943   8.186
 1009ETHY    C1  929   5.798  21.440   8.374
 1010THSLK    S  930   6.078  24.150   8.133
 1011ETHY    C1  931   5.790  23.832   8.289
 1012ETHY    C1  932   5.490  23.472   8.552
 1013ETHY    C1  933   5.247  23.146   8.896
 1014ETHY    C1  934   5.063  22.863   9.309
 1015ETHY    C1  935   4.939  22.629   9.783
 1016AUSL   AUS  936   6.673  24.061   7.665
 1017AUSL   AUS  937   6.369  24.061   7.338
 1018AUL    AUL  938   6.521  23.753   7.502
 1019THSLK    S  939   6.318  23.818   7.266
 1020ETHY    C1  940   6.074  23.436   7.215
 1021ETHY    C1  941   5.861  22.952   7.117
 1022ETHY    C1  942   5.745  22.450   6.984
 1023ETHY    C1  943   5.726  21.941   6.825
 1024ETHY    C1  944   5.802  21.436   6.642
 1025THSLK    S  945   6.630  23.805   7.749
 1026ETHY    C1  946   6.520  23.369   7.821
 1027ETHY    C1  947   6.477  22.843   7.928
 1028ETHY    C1  948   6.534  22.331   8.059
 1029ETHY    C1  949   6.687  21.843   8.213
 1030ETHY    C1  950   6.929  21.390   8.388
 1031AUSL   AUS  951   6.521  25.315   7.093
 1032AUSL   AUS  952   6.938  25.245   7.237
 1033AUL    AUL  953   6.824  25.529   7.011
 1034THSLK    S  954   6.565  25.545   6.975
 1035ETHY    C1  955   6.725  25.849   6.674
 1036ETHY    C1  956   6.839  26.254   6.339
 1037ETHY    C1  957   6.864  26.697   6.045
 1038ETHY    C1  958   6.805  27.166   5.798
 1039ETHY    C1  959   6.664  27.653   5.604
 1040THSLK    S  960   7.125  25.366   7.085
 1041ETHY    C1  961   7.499  25.522   6.876
 1042ETHY    C1  962   7.897  25.786   6.629
 1043ETHY    C1  963   8.230  26.130   6.395
 1044ETHY    C1  964   8.492  26.542   6.184
 1045ETHY    C1  965   8.683  27.016   5.998
 1046AUSL   AUS  966   6.369  25.408   7.338
 1047AUSL   AUS  967   6.256  25.151   6.992
 1048AUL    AUL  968   6.218  25.529   7.011
 1049THSLK    S  969   6.412  25.659   7.237
 1050ETHY    C1  970   6.522  26.070   7.074
 1051ETHY    C1  971   6.565  26.576   6.896
 1052ETHY    C1  972   6.508  27.084   6.745
 1053ETHY    C1  973   6.355  27.581   6.627
 1054ETHY    C1  974   6.113  28.060   6.545
 1055THSLK    S  975   6.142  25.286   6.802
 1056ETHY    C1  976   6.076  25.458   6.385
 1057ETHY    C1  977   5.933  25.710   5.932
 1058ETHY    C1  978   5.724  26.009   5.544
 1059ETHY    C1  979   5.458  26.347   5.230
 1060ETHY    C1  980   5.142  26.720   4.993
 1061AUSL   AUS  981   6.521  24.155   7.093
 1062AUSL   AUS  982   6.105  24.224   7.237
 1063AUL    AUL  983   6.218  23.940   7.011
 1064THSLK    S  984   5.921  24.074   7.128
 1065ETHY    C1  985   5.549  23.813   7.085
 1066ETHY    C1  986   5.150  23.475   6.958
 1067ETHY    C1  987   4.815  23.116   6.753
 1068ETHY    C1  988   4.553  22.742   6.478
 1069ETHY    C1  989   4.366  22.359   6.142
 1070THSLK    S  990   6.481  23.896   7.019
 1071ETHY    C1  991   6.324  23.490   6.885
 1072ETHY    C1  992   6.209  23.010   6.671
 1073ETHY    C1  993   6.182  22.551   6.404
 1074ETHY    C1  994   6.242  22.120   6.094
 1075ETHY    C1  995   6.386  21.725   5.751
 1076AUSL   AUS  996   6.673  24.061   7.338
 1077AUSL   AUS  997   6.786  24.318   6.992
 1078AUL    AUL  998   6.824  23.940   7.011
 1079THSLK    S  999   6.632  23.804   7.262
 1080ETHY    C1 1000   6.523  23.366   7.195
 1081ETHY    C1 1001   6.480  22.840   7.086
 1082ETHY    C1 1002   6.536  22.329   6.951
 1083ETHY    C1 1003   6.689  21.841   6.798
 1084ETHY    C1 1004   6.933  21.387   6.629
 1085THSLK    S 1005   6.906  24.128   6.853
 1086ETHY    C1 1006   6.975  23.742   6.621
 1087ETHY    C1 1007   7.117  23.334   6.300
 1088ETHY    C1 1008   7.324  22.998   5.942
 1089ETHY    C1 1009   7.590  22.741   5.559
 1090ETHY    C1 1010   7.910  22.563   5.158
 1091AUC    AUC 1011  38.811  17.850   7.502
 1092AUC    AUC 1012  39.057  17.850   7.350
 1093AUC    AUC 1013  39.057  17.850   7.653
 1094AUC    AUC 1014  38.566  17.850   7.350
 1095AUC    AUC 1015  38.566  17.850   7.653
 1096AUC    AUC 1016  38.659  18.095   7.502
 1097AUC    AUC 1017  38.963  18.095   7.502
 1098AUC    AUC 1018  38.659  17.604   7.502
 1099AUC    AUC 1019  38.963  17.604   7.502
 1100AUC    AUC 1020  38.811  17.698   7.747
 1101AUC    AUC 1021  38.811  18.001   7.747
 1102AUC    AUC 1022  38.811  17.698   7.256
 1103AUC    AUC 1023  38.811  18.001   7.256
 1104AUC    AUC 1024  39.302  17.850   7.198
 1105AUC    AUC 1025  39.302  17.850   7.502
 1106AUC    AUC 1026  39.302  17.850   7.805
 1107AUC    AUC 1027  38.320  17.850   7.198
 1108AUC    AUC 1028  38.320  17.850   7.502
 1109AUC    AUC 1029  38.320  17.850   7.805
 1110AUC    AUC 1030  38.508  18.340   7.502
 1111AUC    AUC 1031  38.811  18.340   7.502
 1112AUC    AUC 1032  39.114  18.340   7.502
 1113AUC    AUC 1033  38.508  17.359   7.502
 1114AUC    AUC 1034  38.811  17.359   7.502
 1115AUC    AUC 1035  39.114  17.359   7.502
 1116AUC    AUC 1036  38.811  17.546   7.992
 1117AUC    AUC 1037  38.811  17.850   7.992
 1118AUC    AUC 1038  38.811  18.153   7.992
 1119AUC    AUC 1039  38.811  17.546   7.011
 1120AUC    AUC 1040  38.811  17.850   7.011
 1121AUC    AUC 1041  38.811  18.153   7.011
 1122AUC    AUC 1042  39.057  17.698   7.899
 1123AUC    AUC 1043  39.057  18.001   7.899
 1124AUC    AUC 1044  39.057  17.698   7.105
 1125AUC    AUC 1045  39.057  18.001   7.105
 1126AUC    AUC 1046  38.566  17.698   7.899
 1127AUC    AUC 1047  38.566  18.001   7.899
 1128AUC    AUC 1048  38.566  17.698   7.105
 1129AUC    AUC 1049  38.566  18.001   7.105
 1130AUC    AUC 1050  39.208  18.095   7.350
 1131AUC    AUC 1051  39.208  18.095   7.653
 1132AUC    AUC 1052  38.414  18.095   7.350
 1133AUC    AUC 1053  38.414  18.095   7.653
 1134AUC    AUC 1054  39.208  17.604   7.350
 1135AUC    AUC 1055  39.208  17.604   7.653
 1136AUC    AUC 1056  38.414  17.604   7.350
 1137AUC    AUC 1057  38.414  17.604   7.653
 1138AUC    AUC 1058  38.659  18.247   7.747
 1139AUC    AUC 1059  38.963  18.247   7.747
 1140AUC    AUC 1060  38.659  17.452   7.747
 1141AUC    AUC 1061  38.963  17.452   7.747
 1142AUC    AUC 1062  38.659  18.247   7.256
 1143AUC    AUC 1063  38.963  18.247   7.256
 1144AUC    AUC 1064  38.659  17.452   7.256
 1145AUC    AUC 1065  38.963  17.452   7.256
 1146AUSL   AUS 1066  39.220  17.850   8.082
 1147AUSL   AUS 1067  39.076  17.433   8.012
 1148AUL    AUL 1068  39.302  17.546   8.296
 1149THSLK    S 1069  39.190  17.245   8.156
 1150ETHY    C1 1070  39.256  16.860   8.391
 1151ETHY    C1 1071  39.399  16.452   8.710
 1152ETHY    C1 1072  39.608  16.116   9.066
 1153ETHY    C1 1073  39.874  15.858   9.450
 1154ETHY    C1 1074  40.190  15.682   9.855
 1155THSLK    S 1075  39.316  17.800   8.326
 1156ETHY    C1 1076  39.532  17.614   8.681
 1157ETHY    C1 1077  39.807  17.479   9.124
 1158ETHY    C1 1078  40.088  17.449   9.575
 1159ETHY    C1 1079  40.366  17.518  10.025
 1160ETHY    C1 1080  40.635  17.686  10.466
 1161AUSL   AUS 1081  38.975  17.698   8.175
 1162AUSL   AUS 1082  38.648  18.001   8.175
 1163AUL    AUL 1083  38.811  17.850   8.483
 1164THSLK    S 1084  39.053  17.645   8.417
 1165ETHY    C1 1085  39.130  17.395   8.790
 1166ETHY    C1 1086  39.246  17.178   9.269
 1167ETHY    C1 1087  39.383  17.062   9.769
 1168ETHY    C1 1088  39.533  17.044  10.281
 1169ETHY    C1 1089  39.692  17.125  10.794
 1170THSLK    S 1090  38.561  17.958   8.431
 1171ETHY    C1 1091  38.479  17.846   8.864
 1172ETHY    C1 1092  38.365  17.800   9.388
 1173ETHY    C1 1093  38.233  17.858   9.901
 1174ETHY    C1 1094  38.082  18.011  10.389
 1175ETHY    C1 1095  37.916  18.255  10.844
 1176AUSL   AUS 1096  38.975  18.001   8.175
 1177AUSL   AUS 1097  39.321  18.114   7.918
 1178AUL    AUL 1098  39.302  18.153   8.296
 1179THSLK    S 1099  39.062  18.055   8.414
 1180ETHY    C1 1100  39.143  18.306   8.786
 1181ETHY    C1 1101  39.257  18.522   9.265
 1182ETHY    C1 1102  39.390  18.638   9.767
 1183ETHY    C1 1103  39.540  18.656  10.279
 1184ETHY    C1 1104  39.706  18.576  10.789
 1185THSLK    S 1105  39.495  18.216   8.080
 1186ETHY    C1 1106  39.859  18.226   8.354
 1187ETHY    C1 1107  40.275  18.328   8.680
 1188ETHY    C1 1108  40.655  18.527   8.995
 1189ETHY    C1 1109  40.990  18.814   9.296
 1190ETHY    C1 1110  41.271  19.182   9.577
 1191AUSL   AUS 1111  39.220  17.850   6.922
 1192AUSL   AUS 1112  39.076  18.266   6.992
 1193AUL    AUL 1113  39.302  18.153   6.707
 1194THSLK    S 1114  39.323  17.800   6.681
 1195ETHY    C1 1115  39.544  17.614   6.329
 1196ETHY    C1 1116  39.817  17.479   5.885
 1197ETHY    C1 1117  40.095  17.449   5.432
 1198ETHY    C1 1118  40.373  17.518   4.982
 1199ETHY    C1 1119  40.647  17.686   4.545
 1200THSLK    S 1120  39.254  18.381   6.825
 1201ETHY    C1 1121  39.542  18.486   6.488
 1202ETHY    C1 1122  39.842  18.690   6.090
 1203ETHY    C1 1123  40.085  18.978   5.714
 1204ETHY    C1 1124  40.269  19.342   5.371
 1205ETHY    C1 1125  40.393  19.773   5.065
 1206AUSL   AUS 1126  38.975  17.698   6.828
 1207AUSL   AUS 1127  39.321  17.585   7.085
 1208AUL    AUL 1128  39.302  17.546   6.707
 1209THSLK    S 1129  39.458  17.393   6.944
 1210ETHY    C1 1130  39.666  17.050   6.729
 1211ETHY    C1 1131  39.967  16.708   6.442
 1212ETHY    C1 1132  40.318  16.455   6.133
 1213ETHY    C1 1133  40.712  16.293   5.812
 1214ETHY    C1 1134  41.141  16.222   5.486
 1215THSLK    S 1135  39.062  17.644   6.590
 1216ETHY    C1 1136  39.143  17.393   6.217
 1217ETHY    C1 1137  39.257  17.177   5.738
 1218ETHY    C1 1138  39.390  17.061   5.236
 1219ETHY    C1 1139  39.540  17.043   4.725
 1220ETHY    C1 1140  39.706  17.123   4.214
 1221AUSL   AUS 1141  38.975  18.001   6.828
 1222AUSL   AUS 1142  38.648  17.698   6.828
 1223AUL    AUL 1143  38.811  17.850   6.520
 1224THSLK    S 1144  38.553  17.644   6.592
 1225ETHY    C1 1145  38.416  17.396   6.235
 1226ETHY    C1 1146  38.256  17.182   5.767
 1227ETHY    C1 1147  38.109  17.067   5.269
 1228ETHY    C1 1148  37.982  17.048   4.751
 1229ETHY    C1 1149  37.877  17.124   4.224
 1230THSLK    S 1150  39.078  17.959   6.578
 1231ETHY    C1 1151  39.219  17.844   6.160
 1232ETHY    C1 1152  39.377  17.797   5.647
 1233ETHY    C1 1153  39.520  17.853   5.138
 1234ETHY    C1 1154  39.648  18.007   4.643
 1235ETHY    C1 1155  39.759  18.255   4.174
 1236AUSL   AUS 1156  38.402  17.850   8.082
 1237AUSL   AUS 1157  38.546  18.266   8.012
 1238AUL    AUL 1158  38.320  18.153   8.296
 1239THSLK    S 1159  38.299  17.800   8.322
 1240ETHY    C1 1160  38.078  17.614   8.674
 1241ETHY    C1 1161  37.805  17.479   9.118
 1242ETHY    C1 1162  37.528  17.449   9.571
 1243ETHY    C1 1163  37.250  17.518  10.021
 1244ETHY    C1 1164  36.975  17.686  10.458
 1245THSLK    S 1165  38.426  18.395   8.202
 1246ETHY    C1 1166  38.357  18.564   8.620
 1247ETHY    C1 1167  38.215  18.817   9.073
 1248ETHY    C1 1168  38.009  19.118   9.460
 1249ETHY    C1 1169  37.742  19.457   9.775
 1250ETHY    C1 1170  37.422  19.824  10.013
 1251AUSL   AUS 1171  38.648  17.698   8.175
 1252AUSL   AUS 1172  38.301  17.585   7.918
 1253AUL    AUL 1173  38.320  17.546   8.296
 1254THSLK    S 1174  38.123  17.421   8.029
 1255ETHY    C1 1175  37.755  17.168   8.125
 1256ETHY    C1 1176  37.340  16.889   8.323
 1257ETHY    C1 1177  36.962  16.649   8.611
 1258ETHY    C1 1178  36.628  16.453   8.978
 1259ETHY    C1 1179  36.342  16.307   9.415
 1260THSLK    S 1180  38.545  17.646   8.410
 1261ETHY    C1 1181  38.403  17.399   8.766
 1262ETHY    C1 1182  38.245  17.184   9.233
 1263ETHY    C1 1183  38.102  17.068   9.733
 1264ETHY    C1 1184  37.975  17.050  10.250
 1265ETHY    C1 1185  37.863  17.128  10.775
 1266AUSL   AUS 1186  38.402  17.850   6.922
 1267AUSL   AUS 1187  38.546  17.433   6.992
 1268AUL    AUL 1188  38.320  17.546   6.707
 1269THSLK    S 1189  38.307  17.800   6.677
 1270ETHY    C1 1190  38.090  17.614   6.322
 1271ETHY    C1 1191  37.815  17.479   5.879
 1272ETHY    C1 1192  37.534  17.449   5.429
 1273ETHY    C1 1193  37.256  17.518   4.978
 1274ETHY    C1 1194  36.988  17.686   4.537
 1275THSLK    S 1195  38.374  17.259   6.872
 1276ETHY    C1 1196  38.089  16.938   6.717
 1277ETHY    C1 1197  37.788  16.579   6.453
 1278ETHY    C1 1198  37.543  16.256   6.109
 1279ETHY    C1 1199  37.359  15.973   5.696
 1280ETHY    C1 1200  37.240  15.733   5.223
 1281AUSL   AUS 1201  38.648  18.001   6.828
 1282AUSL   AUS 1202  38.301  18.114   7.085
 1283AUL    AUL 1203  38.320  18.153   6.707
 1284THSLK    S 1204  38.170  18.244   6.893
 1285ETHY    C1 1205  37.964  18.344   6.499
 1286ETHY    C1 1206  37.662  18.508   6.085
 1287ETHY    C1 1207  37.308  18.720   5.748
 1288ETHY    C1 1208  36.915  18.974   5.494
 1289ETHY    C1 1209  36.490  19.267   5.324
 1290THSLK    S 1210  38.569  17.960   6.571
 1291ETHY    C1 1211  38.492  17.848   6.136
 1292ETHY    C1 1212  38.376  17.803   5.612
 1293ETHY    C1 1213  38.240  17.859   5.101
 1294ETHY    C1 1214  38.090  18.013   4.613
 1295ETHY    C1 1215  37.930  18.258   4.156
 1296AUSL   AUS 1216  39.391  18.259   7.502
 1297AUSL   AUS 1217  39.321  18.114   7.085
 1298AUL    AUL 1218  39.605  18.340   7.198
 1299THSLK    S 1219  39.500  18.217   6.930
 1300ETHY    C1 1220  39.867  18.228   6.659
 1301ETHY    C1 1221  40.282  18.330   6.332
 1302ETHY    C1 1222  40.660  18.528   6.014
 1303ETHY    C1 1223  40.994  18.815   5.713
 1304ETHY    C1 1224  41.280  19.185   5.438
 1305THSLK    S 1225  39.659  18.315   7.506
 1306ETHY    C1 1226  40.111  18.376   7.508
 1307ETHY    C1 1227  40.625  18.535   7.507
 1308ETHY    C1 1228  41.093  18.789   7.505
 1309ETHY    C1 1229  41.506  19.126   7.506
 1310ETHY    C1 1230  41.858  19.540   7.509
 1311AUSL   AUS 1231  39.485  18.013   7.350
 1312AUSL   AUS 1232  39.485  17.686   7.653
 1313AUL    AUL 1233  39.793  17.850   7.502
 1314THSLK    S 1234  39.744  18.056   7.348
 1315ETHY    C1 1235  40.189  17.986   7.278
 1316ETHY    C1 1236  40.720  17.993   7.190
 1317ETHY    C1 1237  41.233  18.103   7.101
 1318ETHY    C1 1238  41.718  18.309   7.017
 1319ETHY    C1 1239  42.165  18.606   6.940
 1320THSLK    S 1240  39.717  17.548   7.662
 1321ETHY    C1 1241  40.063  17.259   7.728
 1322ETHY    C1 1242  40.524  16.992   7.809
 1323ETHY    C1 1243  41.021  16.823   7.892
 1324ETHY    C1 1244  41.542  16.751   7.980
 1325ETHY    C1 1245  42.077  16.777   8.071
 1326AUSL   AUS 1246  39.485  18.013   7.653
 1327AUSL   AUS 1247  39.228  18.360   7.766
 1328AUL    AUL 1248  39.605  18.340   7.805
 1329THSLK    S 1249  39.411  18.479   7.926
 1330ETHY    C1 1250  39.783  18.634   8.139
 1331ETHY    C1 1251  40.183  18.899   8.385
 1332ETHY    C1 1252  40.517  19.243   8.615
 1333ETHY    C1 1253  40.779  19.656   8.827
 1334ETHY    C1 1254  40.966  20.128   9.019
 1335THSLK    S 1255  39.743  18.056   7.664
 1336ETHY    C1 1256  40.187  17.986   7.738
 1337ETHY    C1 1257  40.718  17.993   7.825
 1338ETHY    C1 1258  41.232  18.103   7.910
 1339ETHY    C1 1259  41.716  18.309   7.994
 1340ETHY    C1 1260  42.163  18.606   8.078
 1341AUSL   AUS 1261  38.231  18.259   7.502
 1342AUSL   AUS 1262  38.301  18.114   7.918
 1343AUL    AUL 1263  38.017  18.340   7.805
 1344THSLK    S 1264  38.165  18.237   8.109
 1345ETHY    C1 1265  37.956  18.333   8.503
 1346ETHY    C1 1266  37.655  18.499   8.917
 1347ETHY    C1 1267  37.304  18.714   9.254
 1348ETHY    C1 1268  36.910  18.968   9.509
 1349ETHY    C1 1269  36.481  19.255   9.678
 1350THSLK    S 1270  38.015  18.399   7.506
 1351ETHY    C1 1271  37.759  18.777   7.508
 1352ETHY    C1 1272  37.386  19.165   7.507
 1353ETHY    C1 1273  36.950  19.471   7.505
 1354ETHY    C1 1274  36.464  19.689   7.506
 1355ETHY    C1 1275  35.937  19.819   7.509
 1356AUSL   AUS 1276  38.137  18.013   7.350
 1357AUSL   AUS 1277  38.395  18.360   7.237
 1358AUL    AUL 1278  38.017  18.340   7.198
 1359THSLK    S 1279  37.906  18.128   7.303
 1360ETHY    C1 1280  37.559  18.316   7.075
 1361ETHY    C1 1281  37.099  18.508   6.872
 1362ETHY    C1 1282  36.601  18.658   6.758
 1363ETHY    C1 1283  36.080  18.768   6.733
 1364ETHY    C1 1284  35.546  18.838   6.796
 1365THSLK    S 1285  38.279  18.525   7.058
 1366ETHY    C1 1286  38.163  18.841   6.750
 1367ETHY    C1 1287  37.949  19.219   6.432
 1368ETHY    C1 1288  37.657  19.588   6.183
 1369ETHY    C1 1289  37.299  19.941   6.008
 1370ETHY    C1 1290  36.881  20.274   5.909
 1371AUSL   AUS 1291  38.137  18.013   7.653
 1372AUSL   AUS 1292  38.137  17.686   7.350
 1373AUL    AUL 1293  37.829  17.850   7.502
 1374THSLK    S 1294  37.879  17.612   7.390
 1375ETHY    C1 1295  37.435  17.577   7.486
 1376ETHY    C1 1296  36.904  17.496   7.518
 1377ETHY    C1 1297  36.390  17.371   7.458
 1378ETHY    C1 1298  35.906  17.203   7.311
 1379ETHY    C1 1299  35.459  16.996   7.083
 1380THSLK    S 1300  37.904  18.120   7.704
 1381ETHY    C1 1301  37.557  18.304   7.935
 1382ETHY    C1 1302  37.097  18.497   8.137
 1383ETHY    C1 1303  36.600  18.652   8.249
 1384ETHY    C1 1304  36.079  18.762   8.274
 1385ETHY    C1 1305  35.543  18.825   8.213
 1386AUSL   AUS 1306  39.391  17.440   7.502
 1387AUSL   AUS 1307  39.321  17.585   7.918
 1388AUL    AUL 1308  39.605  17.359   7.805
 1389THSLK    S 1309  39.607  17.300   7.506
 1390ETHY    C1 1310  39.863  16.922   7.508
 1391ETHY    C1 1311  40.236  16.534   7.507
 1392ETHY    C1 1312  40.672  16.228   7.505
 1393ETHY    C1 1313  41.158  16.010   7.506
 1394ETHY    C1 1314  41.685  15.880   7.509
 1395THSLK    S 1315  39.453  17.395   8.066
 1396ETHY    C1 1316  39.658  17.052   8.285
 1397ETHY    C1 1317  39.960  16.710   8.570
 1398ETHY    C1 1318  40.314  16.457   8.877
 1399ETHY    C1 1319  40.708  16.294   9.198
 1400ETHY    C1 1320  41.132  16.224   9.529
 1401AUSL   AUS 1321  39.485  17.686   7.350
 1402AUSL   AUS 1322  39.228  17.339   7.237
 1403AUL    AUL 1323  39.605  17.359   7.198
 1404THSLK    S 1324  39.718  17.548   7.350
 1405ETHY    C1 1325  40.066  17.259   7.289
 1406ETHY    C1 1326  40.525  16.992   7.206
 1407ETHY    C1 1327  41.022  16.823   7.118
 1408ETHY    C1 1328  41.544  16.751   7.031
 1409ETHY    C1 1329  42.079  16.777   6.947
 1410THSLK    S 1330  39.347  17.149   7.104
 1411ETHY    C1 1331  39.464  16.732   6.963
 1412ETHY    C1 1332  39.678  16.278   6.765
 1413ETHY    C1 1333  39.968  15.892   6.543
 1414ETHY    C1 1334  40.327  15.577   6.306
 1415ETHY    C1 1335  40.747  15.338   6.058
 1416AUSL   AUS 1336  38.231  17.440   7.502
 1417AUSL   AUS 1337  38.301  17.585   7.085
 1418AUL    AUL 1338  38.017  17.359   7.198
 1419THSLK    S 1339  38.128  17.414   6.973
 1420ETHY    C1 1340  37.763  17.157   6.877
 1421ETHY    C1 1341  37.347  16.880   6.679
 1422ETHY    C1 1342  36.967  16.643   6.392
 1423ETHY    C1 1343  36.633  16.447   6.025
 1424ETHY    C1 1344  36.351  16.295   5.587
 1425THSLK    S 1345  37.963  17.384   7.506
 1426ETHY    C1 1346  37.511  17.323   7.508
 1427ETHY    C1 1347  36.997  17.164   7.507
 1428ETHY    C1 1348  36.529  16.910   7.505
 1429ETHY    C1 1349  36.116  16.573   7.506
 1430ETHY    C1 1350  35.764  16.159   7.509
 1431AUSL   AUS 1351  38.137  17.686   7.653
 1432AUSL   AUS 1352  38.395  17.339   7.766
 1433AUL    AUL 1353  38.017  17.359   7.805
 1434THSLK    S 1354  38.207  17.195   7.880
 1435ETHY    C1 1355  37.833  16.938   7.926
 1436ETHY    C1 1356  37.435  16.598   8.052
 1437ETHY    C1 1357  37.102  16.236   8.255
 1438ETHY    C1 1358  36.840  15.862   8.529
 1439ETHY    C1 1359  36.649  15.484   8.870
 1440THSLK    S 1360  37.878  17.619   7.617
 1441ETHY    C1 1361  37.433  17.589   7.524
 1442ETHY    C1 1362  36.902  17.507   7.490
 1443ETHY    C1 1363  36.389  17.378   7.549
 1444ETHY    C1 1364  35.905  17.210   7.696
 1445ETHY    C1 1365  35.457  17.008   7.928
 1446AUSL   AUS 1366  38.811  18.430   7.911
 1447AUSL   AUS 1367  38.395  18.360   7.766
 1448AUL    AUL 1368  38.508  18.644   7.992
 1449THSLK    S 1369  38.275  18.519   7.950
 1450ETHY    C1 1370  38.158  18.831   8.261
 1451ETHY    C1 1371  37.944  19.211   8.578
 1452ETHY    C1 1372  37.654  19.582   8.824
 1453ETHY    C1 1373  37.296  19.936   9.000
 1454ETHY    C1 1374  36.875  20.264   9.102
 1455THSLK    S 1375  38.851  18.656   8.035
 1456ETHY    C1 1376  39.008  18.958   8.339
 1457ETHY    C1 1377  39.123  19.364   8.672
 1458ETHY    C1 1378  39.150  19.808   8.964
 1459ETHY    C1 1379  39.090  20.277   9.211
 1460ETHY    C1 1380  38.946  20.761   9.410
 1461AUSL   AUS 1381  38.659  18.523   7.665
 1462AUSL   AUS 1382  38.963  18.523   7.338
 1463AUL    AUL 1383  38.811  18.831   7.502
 1464THSLK    S 1384  38.700  18.771   7.774
 1465ETHY    C1 1385  38.809  19.181   7.942
 1466ETHY    C1 1386  38.853  19.688   8.118
 1467ETHY    C1 1387  38.796  20.196   8.265
 1468ETHY    C1 1388  38.643  20.693   8.383
 1469ETHY    C1 1389  38.400  21.170   8.472
 1470THSLK    S 1390  39.016  18.758   7.241
 1471ETHY    C1 1391  39.261  19.114   7.094
 1472ETHY    C1 1392  39.474  19.579   6.927
 1473ETHY    C1 1393  39.589  20.077   6.779
 1474ETHY    C1 1394  39.609  20.596   6.655
 1475ETHY    C1 1395  39.534  21.125   6.558
 1476AUSL   AUS 1396  38.963  18.523   7.665
 1477AUSL   AUS 1397  39.076  18.266   8.012
 1478AUL    AUL 1398  39.114  18.644   7.992
 1479THSLK    S 1399  39.248  18.379   8.184
 1480ETHY    C1 1400  39.533  18.482   8.524
 1481ETHY    C1 1401  39.835  18.686   8.921
 1482ETHY    C1 1402  40.080  18.976   9.294
 1483ETHY    C1 1403  40.264  19.339   9.638
 1484ETHY    C1 1404  40.383  19.769   9.948
 1485THSLK    S 1405  39.014  18.757   7.771
 1486ETHY    C1 1406  39.258  19.111   7.922
 1487ETHY    C1 1407  39.471  19.577   8.087
 1488ETHY    C1 1408  39.587  20.076   8.231
 1489ETHY    C1 1409  39.606  20.594   8.356
 1490ETHY    C1 1410  39.531  21.122   8.458
 1491AUSL   AUS 1411  38.811  17.270   7.911
 1492AUSL   AUS 1412  39.228  17.339   7.766
 1493AUL    AUL 1413  39.114  17.055   7.992
 1494THSLK    S 1414  38.767  17.015   7.990
 1495ETHY    C1 1415  38.607  16.611   8.128
 1496ETHY    C1 1416  38.493  16.130   8.341
 1497ETHY    C1 1417  38.468  15.669   8.605
 1498ETHY    C1 1418  38.527  15.239   8.915
 1499ETHY    C1 1419  38.668  14.847   9.263
 1500THSLK    S 1420  39.343  17.150   7.908
 1501ETHY    C1 1421  39.459  16.734   8.052
 1502ETHY    C1 1422  39.673  16.281   8.248
 1503ETHY    C1 1423  39.965  15.893   8.467
 1504ETHY    C1 1424  40.324  15.578   8.705
 1505ETHY    C1 1425  40.741  15.341   8.958
 1506AUSL   AUS 1426  38.659  17.176   7.665
 1507AUSL   AUS 1427  38.546  17.433   8.012
 1508AUL    AUL 1428  38.508  17.055   7.992
 1509THSLK    S 1429  38.606  16.936   7.745
 1510ETHY    C1 1430  38.361  16.555   7.801
 1511ETHY    C1 1431  38.148  16.070   7.897
 1512ETHY    C1 1432  38.033  15.567   8.025
 1513ETHY    C1 1433  38.014  15.058   8.186
 1514ETHY    C1 1434  38.088  14.555   8.374
 1515THSLK    S 1435  38.368  17.265   8.133
 1516ETHY    C1 1436  38.080  16.947   8.289
 1517ETHY    C1 1437  37.780  16.587   8.552
 1518ETHY    C1 1438  37.537  16.261   8.896
 1519ETHY    C1 1439  37.353  15.978   9.309
 1520ETHY    C1 1440  37.229  15.744   9.783
 1521AUSL   AUS 1441  38.963  17.176   7.665
 1522AUSL   AUS 1442  38.659  17.176   7.338
 1523AUL    AUL 1443  38.811  16.868   7.502
 1524THSLK    S 1444  38.608  16.933   7.266
 1525ETHY    C1 1445  38.364  16.551   7.215
 1526ETHY    C1 1446  38.151  16.067   7.117
 1527ETHY    C1 1447  38.035  15.565   6.984
 1528ETHY    C1 1448  38.016  15.056   6.825
 1529ETHY    C1 1449  38.092  14.551   6.642
 1530THSLK    S 1450  38.920  16.920   7.749
 1531ETHY    C1 1451  38.810  16.484   7.821
 1532ETHY    C1 1452  38.767  15.958   7.928
 1533ETHY    C1 1453  38.824  15.446   8.059
 1534ETHY    C1 1454  38.977  14.958   8.213
 1535ETHY    C1 1455  39.219  14.505   8.388
 1536AUSL   AUS 1456  38.811  18.430   7.093
 1537AUSL   AUS 1457  39.228  18.360   7.237
 1538AUL    AUL 1458  39.114  18.644   7.011
 1539THSLK    S 1459  38.855  18.660   6.975
 1540ETHY    C1 1460  39.015  18.964   6.674
 1541ETHY    C1 1461  39.129  19.369   6.339
 1542ETHY    C1 1462  39.154  19.812   6.045
 1543ETHY    C1 1463  39.095  20.281   5.798
 1544ETHY    C1 1464  38.954  20.768   5.604
 1545THSLK    S 1465  39.415  18.481   7.085
 1546ETHY    C1 1466  39.789  18.637   6.876
 1547ETHY    C1 1467  40.187  18.901   6.629
 1548ETHY    C1 1468  40.520  19.245   6.395
 1549ETHY    C1 1469  40.782  19.657   6.184
 1550ETHY    C1 1470  40.973  20.131   5.998
 1551AUSL   AUS 1471  38.659  18.523   7.338
 1552AUSL   AUS 1472  38.546  18.266   6.992
 1553AUL    AUL 1473  38.508  18.644   7.011
 1554THSLK    S 1474  38.702  18.774   7.237
 1555ETHY    C1 1475  38.812  19.185   7.074
 1556ETHY    C1 1476  38.855  19.691   6.896
 1557ETHY    C1 1477  38.798  20.199   6.745
 1558ETHY    C1 1478  38.645  20.696   6.627
 1559ETHY    C1 1479  38.403  21.175   6.545
 1560THSLK    S 1480  38.432  18.401   6.802
 1561ETHY    C1 1481  38.366  18.573   6.385
 1562ETHY    C1 1482  38.223  18.825   5.932
 1563ETHY    C1 1483  38.014  19.124   5.544
 1564ETHY    C1 1484  37.748  19.462   5.230
 1565ETHY    C1 1485  37.432  19.835   4.993
 1566AUSL   AUS 1486  38.811  17.270   7.093
 1567AUSL   AUS 1487  38.395  17.339   7.237
 1568AUL    AUL 1488  38.508  17.055   7.011
 1569THSLK    S 1489  38.211  17.189   7.128
 1570ETHY    C1 1490  37.839  16.928   7.085
 1571ETHY    C1 1491  37.440  16.590   6.958
 1572ETHY    C1 1492  37.105  16.231   6.753
 1573ETHY    C1 1493  36.843  15.857   6.478
 1574ETHY    C1 1494  36.656  15.474   6.142
 1575THSLK    S 1495  38.771  17.011   7.019
 1576ETHY    C1 1496  38.614  16.605   6.885
 1577ETHY    C1 1497  38.499  16.125   6.671
 1578ETHY    C1 1498  38.472  15.666   6.404
 1579ETHY    C1 1499  38.532  15.235   6.094
 1580ETHY    C1 1500  38.676  14.840   5.751
 1581AUSL   AUS 1501  38.963  17.176   7.338
 1582AUSL   AUS 1502  39.076  17.433   6.992
 1583AUL    AUL 1503  39.114  17.055   7.011
 1584THSLK    S 1504  38.922  16.919   7.262
 1585ETHY    C1 1505  38.813  16.481   7.195
 1586ETHY    C1 1506  38.770  15.955   7.086
 1587ETHY    C1 1507  38.826  15.444   6.951
 1588ETHY    C1 1508  38.979  14.956   6.798
 1589ETHY    C1 1509  39.223  14.502   6.629
 1590THSLK    S 1510  39.196  17.243   6.853
 1591ETHY    C1 1511  39.265  16.857   6.621
 1592ETHY    C1 1512  39.407  16.449   6.300
 1593ETHY    C1 1513  39.614  16.113   5.942
 1594ETHY    C1 1514  39.880  15.856   5.559
 1595ETHY    C1 1515  40.200  15.678   5.158
 1596AUC    AUC 1516  11.833  46.104   7.502
 1597AUC    AUC 1517  12.079  46.104   7.350
 1598AUC    AUC 1518  12.079  46.104   7.653
 1599AUC    AUC 1519  11.588  46.104   7.350
 1600AUC    AUC 1520  11.588  46.104   7.653
 1601AUC    AUC 1521  11.681  46.349   7.502
 1602AUC    AUC 1522  11.985  46.349   7.502
 1603AUC    AUC 1523  11.681  45.858   7.502
 1604AUC    AUC 1524  11.985  45.858   7.502
 1605AUC    AUC 1525  11.833  45.952   7.747
 1606AUC    AUC 1526  11.833  46.255   7.747
 1607AUC    AUC 1527  11.833  45.952   7.256
 1608AUC    AUC 1528  11.833  46.255   7.256
 1609AUC    AUC 1529  12.324  46.104   7.198
 1610AUC    AUC 1530  12.324  46.104   7.502
 1611AUC    AUC 1531  12.324  46.104   7.805
 1612AUC    AUC 1532  11.342  46.104   7.198
 1613AUC    AUC 1533  11.342  46.104   7.502
 1614AUC    AUC 1534  11.342  46.104   7.805
 1615AUC    AUC 1535  11.530  46.594   7.502
 1616AUC    AUC 1536  11.833  46.594   7.502
 1617AUC    AUC 1537  12.136  46.594   7.502
 1618AUC    AUC 1538  11.530  45.613   7.502
 1619AUC    AUC 1539  11.833  45.613   7.502
 1620AUC    AUC 1540  12.136  45.613   7.502
 1621AUC    AUC 1541  11.833  45.800   7.992
 1622AUC    AUC 1542  11.833  46.104   7.992
 1623AUC    AUC 1543  11.833  46.407   7.992
 1624AUC    AUC 1544  11.833  45.800   7.011
 1625AUC    AUC 1545  11.833  46.104   7.011
 1626AUC    AUC 1546  11.833  46.407   7.011
 1627AUC    AUC 1547  12.079  45.952   7.899
 1628AUC    AUC 1548  12.079  46.255   7.899
 1629AUC    AUC 1549  12.079  45.952   7.105
 1630AUC    AUC 1550  12.079  46.255   7.105
 1631AUC    AUC 1551  11.588  45.952   7.899
 1632AUC    AUC 1552  11.588  46.255   7.899
 1633AUC    AUC 1553  11.588  45.952   7.105
 1634AUC    AUC 1554  11.588  46.255   7.105
 1635AUC    AUC 1555  12.230  46.349   7.350
 1636AUC    AUC 1556  12.230  46.349   7.653
 1637AUC    AUC 1557  11.436  46.349   7.350
 1638AUC    AUC 1558  11.436  46.349   7.653
 1639AUC    AUC 1559  12.230  45.858   7.350
 1640AUC    AUC 1560  12.230  45.858   7.653
 1641AUC    AUC 1561  11.436  45.858   7.350
 1642AUC    AUC 1562  11.436  45.858   7.653
 1643AUC    AUC 1563  11.681  46.501   7.747
 1644AUC    AUC 1564  11.985  46.501   7.747
 1645AUC    AUC 1565  11.681  45.706   7.747
 1646AUC    AUC 1566  11.985  45.706   7.747
 1647AUC    AUC 1567  11.681  46.501   7.256
 1648AUC    AUC 1568  11.985  46.501   7.256
 1649AUC    AUC 1569  11.681  45.706   7.256
 1650AUC    AUC 1570  11.985  45.706   7.256
 1651AUSL   AUS 1571  12.242  46.104   8.082
 1652AUSL   AUS 1572  12.098  45.687   8.012
 1653AUL    AUL 1573  12.324  45.800   8.296
 1654THSLK    S 1574  12.212  45.499   8.156
 1655ETHY    C1 1575  12.278  45.114   8.391
 1656ETHY    C1 1576  12.421  44.706   8.710
 1657ETHY    C1 1577  12.630  44.370   9.066
 1658ETHY    C1 1578  12.896  44.112   9.450
 1659ETHY    C1 1579  13.212  43.936   9.855
 1660THSLK    S 1580  12.338  46.054   8.326
 1661ETHY    C1 1581  12.554  45.868   8.681
 1662ETHY    C1 1582  12.829  45.733   9.124
 1663ETHY    C1 1583  13.110  45.703   9.575
 1664ETHY    C1 1584  13.388  45.772  10.025
 1665ETHY    C1 1585  13.657  45.940  10.466
 1666AUSL   AUS 1586  11.997  45.952   8.175
 1667AUSL   AUS 1587  11.670  46.255   8.175
 1668AUL    AUL 1588  11.833  46.104   8.483
 1669THSLK    S 1589  12.075  45.899   8.417
 1670ETHY    C1 1590  12.152  45.649   8.790
 1671ETHY    C1 1591  12.268  45.432   9.269
 1672ETHY    C1 1592  12.405  45.316   9.769
 1673ETHY    C1 1593  12.555  45.298  10.281
 1674ETHY    C1 1594  12.714  45.379  10.794
 1675THSLK    S 1595  11.583  46.212   8.431
 1676ETHY    C1 1596  11.501  46.100   8.864
 1677ETHY    C1 1597  11.387  46.054   9.388
 1678ETHY    C1 1598  11.255  46.112   9.901
 1679ETHY    C1 1599  11.104  46.265  10.389
 1680ETHY    C1 1600  10.938  46.509  10.844
 1681AUSL   AUS 1601  11.997  46.255   8.175
 1682AUSL   AUS 1602  12.343  46.368   7.918
 1683AUL    AUL 1603  12.324  46.407   8.296
 1684THSLK    S 1604  12.084  46.309   8.414
 1685ETHY    C1 1605  12.165  46.560   8.786
 1686ETHY    C1 1606  12.279  46.776   9.265
 1687ETHY    C1 1607  12.412  46.892   9.767
 1688ETHY    C1 1608  12.562  46.910  10.279
 1689ETHY    C1 1609  12.728  46.830  10.789
 1690THSLK    S 1610  12.517  46.470   8.080
 1691ETHY    C1 1611  12.881  46.480   8.354
 1692ETHY    C1 1612  13.297  46.582   8.680
 1693ETHY    C1 1613  13.677  46.781   8.995
 1694ETHY    C1 1614  14.012  47.068   9.296
 1695ETHY    C1 1615  14.293  47.436   9.577
 1696AUSL   AUS 1616  12.242  46.104   6.922
 1697AUSL   AUS 1617  12.098  46.520   6.992
 1698AUL    AUL 1618  12.324  46.407   6.707
 1699THSLK    S 1619  12.345  46.054   6.681
 1700ETHY    C1 1620  12.566  45.868   6.329
 1701ETHY    C1 1621  12.839  45.733   5.885
 1702ETHY    C1 1622  13.117  45.703   5.432
 1703ETHY    C1 1623  13.395  45.772   4.982
 1704ETHY    C1 1624  13.669  45.940   4.545
 1705THSLK    S 1625  12.276  46.635   6.825
 1706ETHY    C1 1626  12.564  46.740   6.488
 1707ETHY    C1 1627  12.864  46.944   6.090
 1708ETHY    C1 1628  13.107  47.232   5.714
 1709ETHY    C1 1629  13.291  47.596   5.371
 1710ETHY    C1 1630  13.415  48.027   5.065
 1711AUSL   AUS 1631  11.997  45.952   6.828
 1712AUSL   AUS 1632  12.343  45.839   7.085
 1713AUL    AUL 1633  12.324  45.800   6.707
 1714THSLK    S 1634  12.480  45.647   6.944
 1715ETHY    C1 1635  12.688  45.304   6.729
 1716ETHY    C1 1636  12.989  44.962   6.442
 1717ETHY    C1 1637  13.340  44.709   6.133
 1718ETHY    C1 1638  13.734  44.547   5.812
 1719ETHY    C1 1639  14.163  44.476   5.486
 1720THSLK    S 1640  12.084  45.898   6.590
 1721ETHY    C1 1641  12.165  45.647   6.217
 1722ETHY    C1 1642  12.279  45.431   5.738
 1723ETHY    C1 1643  12.412  45.315   5.236
 1724ETHY    C1 1644  12.562  45.297   4.725
 1725ETHY    C1 1645  12.728  45.377   4.214
 1726AUSL   AUS 1646  11.997  46.255   6.828
 1727AUSL   AUS 1647  11.670  45.952   6.828
 1728AUL    AUL 1648  11.833  46.104   6.520
 1729THSLK    S 1649  11.575  45.898   6.592
 1730ETHY    C1 1650  11.438  45.650   6.235
 1731ETHY    C1 1651  11.278  45.436   5.767
 1732ETHY    C1 1652  11.131  45.321   5.269
 1733ETHY    C1 1653  11.004  45.302   4.751
 1734ETHY    C1 1654  10.899  45.378   4.224
 1735THSLK    S 1655  12.100  46.213   6.578
 1736ETHY    C1 1656  12.241  46.098   6.160
 1737ETHY    C1 1657  12.399  46.051   5.647
 1738ETHY    C1 1658  12.542  46.107   5.138
 1739ETHY    C1 1659  12.670  46.261   4.643
 1740ETHY    C1 1660  12.781  46.509   4.174
 1741AUSL   AUS 1661  11.424  46.104   8.082
 1742AUSL   AUS 1662  11.568  46.520   8.012
 1743AUL    AUL 1663  11.342  46.407   8.296
 1744THSLK    S 1664  11.321  46.054   8.322
 1745ETHY    C1 1665  11.100  45.868   8.674
 1746ETHY    C1 1666  10.827  45.733   9.118
 1747ETHY    C1 1667  10.550  45.703   9.571
 1748ETHY    C1 1668  10.272  45.772  10.021
 1749ETHY    C1 1669   9.997  45.940  10.458
 1750THSLK    S 1670  11.448  46.649   8.202
 1751ETHY    C1 1671  11.379  46.818   8.620
 1752ETHY    C1 1672  11.237  47.071   9.073
 1753ETHY    C1 1673  11.031  47.372   9.460
 1754ETHY    C1 1674  10.764  47.711   9.775
 1755ETHY    C1 1675  10.444  48.078  10.013
 1756AUSL   AUS 1676  11.670  45.952   8.175
 1757AUSL   AUS 1677  11.323  45.839   7.918
 1758AUL    AUL 1678  11.342  45.800   8.296
 1759THSLK    S 1679  11.145  45.675   8.029
 1760ETHY    C1 1680  10.777  45.422   8.125
 1761ETHY    C1 1681  10.362  45.143   8.323
 1762ETHY    C1 1682   9.984  44.903   8.611
 1763ETHY    C1 1683   9.650  44.707   8.978
 1764ETHY    C1 1684   9.364  44.561   9.415
 1765THSLK    S 1685  11.567  45.900   8.410
 1766ETHY    C1 1686  11.425  45.653   8.766
 1767ETHY    C1 1687  11.267  45.438   9.233
 1768ETHY    C1 1688  11.124  45.322   9.733
 1769ETHY    C1 1689  10.997  45.304  10.250
 1770ETHY    C1 1690  10.885  45.382  10.775
 1771AUSL   AUS 1691  11.424  46.104   6.922
 1772AUSL   AUS 1692  11.568  45.687   6.992
 1773AUL    AUL 1693  11.342  45.800   6.707
 1774THSLK    S 1694  11.329  46.054   6.677
 1775ETHY    C1 1695  11.112  45.868   6.322
 1776ETHY    C1 1696  10.837  45.733   5.879
 1777ETHY    C1 1697  10.556  45.703   5.429
 1778ETHY    C1 1698  10.278  45.772   4.978
 1779ETHY    C1 1699  10.010  45.940   4.537
 1780THSLK    S 1700  11.396  45.513   6.872
 1781ETHY    C1 1701  11.111  45.192   6.717
 1782ETHY    C1 1702  10.810  44.833   6.453
 1783ETHY    C1 1703  10.565  44.510   6.109
 1784ETHY    C1 1704  10.381  44.227   5.696
 1785ETHY    C1 1705  10.262  43.987   5.223
 1786AUSL   AUS 1706  11.670  46.255   6.828
 1787AUSL   AUS 1707  11.323  46.368   7.085
 1788AUL    AUL 1708  11.342  46.407   6.707
 1789THSLK    S 1709  11.192  46.498   6.893
 1790ETHY    C1 1710  10.986  46.598   6.499
 1791ETHY    C1 1711  10.684  46.762   6.085
 1792ETHY    C1 1712  10.330  46.974   5.748
 1793ETHY    C1 1713   9.937  47.228   5.494
 1794ETHY    C1 1714   9.512  47.521   5.324
 1795THSLK    S 1715  11.591  46.214   6.571
 1796ETHY    C1 1716  11.514  46.102   6.136
 1797ETHY    C1 1717  11.398  46.057   5.612
 1798ETHY    C1 1718  11.262  46.113   5.101
 1799ETHY    C1 1719  11.112  46.267   4.613
 1800ETHY    C1 1720  10.952  46.512   4.156
 1801AUSL   AUS 1721  12.413  46.513   7.502
 1802AUSL   AUS 1722  12.343  46.368   7.085
 1803AUL    AUL 1723  12.627  46.594   7.198
 1804THSLK    S 1724  12.522  46.471   6.930
 1805ETHY    C1 1725  12.889  46.482   6.659
 1806ETHY    C1 1726  13.304  46.584   6.332
 1807ETHY    C1 1727  13.682  46.782   6.014
 1808ETHY    C1 1728  14.016  47.069   5.713
 1809ETHY    C1 1729  14.302  47.439   5.438
 1810THSLK    S 1730  12.681  46.569   7.506
 1811ETHY    C1 1731  13.133  46.630   7.508
 1812ETHY    C1 1732  13.647  46.789   7.507
 1813ETHY    C1 1733  14.115  47.043   7.505
 1814ETHY    C1 1734  14.528  47.380   7.506
 1815ETHY    C1 1735  14.880  47.794   7.509
 1816AUSL   AUS 1736  12.507  46.267   7.350
 1817AUSL   AUS 1737  12.507  45.940   7.653
 1818AUL    AUL 1738  12.815  46.104   7.502
 1819THSLK    S 1739  12.766  46.310   7.348
 1820ETHY    C1 1740  13.211  46.240   7.278
 1821ETHY    C1 1741  13.742  46.247   7.190
 1822ETHY    C1 1742  14.255  46.357   7.101
 1823ETHY    C1 1743  14.740  46.563   7.017
 1824ETHY    C1 1744  15.187  46.860   6.940
 1825THSLK    S 1745  12.739  45.802   7.662
 1826ETHY    C1 1746  13.085  45.513   7.728
 1827ETHY    C1 1747  13.546  45.246   7.809
 1828ETHY    C1 1748  14.043  45.077   7.892
 1829ETHY    C1 1749  14.564  45.005   7.980
 1830ETHY    C1 1750  15.099  45.031   8.071
 1831AUSL   AUS 1751  12.507  46.267   7.653
 1832AUSL   AUS 1752  12.250  46.614   7.766
 1833AUL    AUL 1753  12.627  46.594   7.805
 1834THSLK    S 1754  12.433  46.733   7.926
 1835ETHY    C1 1755  12.805  46.888   8.139
 1836ETHY    C1 1756  13.205  47.153   8.385
 1837ETHY    C1 1757  13.539  47.497   8.615
 1838ETHY    C1 1758  13.801  47.910   8.827
 1839ETHY    C1 1759  13.988  48.382   9.019
 1840THSLK    S 1760  12.765  46.310   7.664
 1841ETHY    C1 1761  13.209  46.240   7.738
 1842ETHY    C1 1762  13.740  46.247   7.825
 1843ETHY    C1 1763  14.254  46.357   7.910
 1844ETHY    C1 1764  14.738  46.563   7.994
 1845ETHY    C1 1765  15.185  46.860   8.078
 1846AUSL   AUS 1766  11.253  46.513   7.502
 1847AUSL   AUS 1767  11.323  46.368   7.918
 1848AUL    AUL 1768  11.039  46.594   7.805
 1849THSLK    S 1769  11.187  46.491   8.109
 1850ETHY    C1 1770  10.978  46.587   8.503
 1851ETHY    C1 1771  10.677  46.753   8.917
 1852ETHY    C1 1772  10.326  46.968   9.254
 1853ETHY    C1 1773   9.932  47.222   9.509
 1854ETHY    C1 1774   9.503  47.509   9.678
 1855THSLK    S 1775  11.037  46.653   7.506
 1856ETHY    C1 1776  10.781  47.031   7.508
 1857ETHY    C1 1777  10.408  47.419   7.507
 1858ETHY    C1 1778   9.972  47.725   7.505
 1859ETHY    C1 1779   9.486  47.943   7.506
 1860ETHY    C1 1780   8.959  48.073   7.509
 1861AUSL   AUS 1781  11.159  46.267   7.350
 1862AUSL   AUS 1782  11.417  46.614   7.237
 1863AUL    AUL 1783  11.039  46.594   7.198
 1864THSLK    S 1784  10.928  46.382   7.303
 1865ETHY    C1 1785  10.581  46.570   7.075
 1866ETHY    C1 1786  10.121  46.762   6.872
 1867ETHY    C1 1787   9.623  46.912   6.758
 1868ETHY    C1 1788   9.102  47.022   6.733
 1869ETHY    C1 1789   8.568  47.092   6.796
 1870THSLK    S 1790  11.301  46.779   7.058
 1871ETHY    C1 1791  11.185  47.095   6.750
 1872ETHY    C1 1792  10.971  47.473   6.432
 1873ETHY    C1 1793  10.679  47.842   6.183
 1874ETHY    C1 1794  10.321  48.195   6.008
 1875ETHY    C1 1795   9.903  48.528   5.909
 1876AUSL   AUS 1796  11.159  46.267   7.653
 1877AUSL   AUS 1797  11.159  45.940   7.350
 1878AUL    AUL 1798  10.851  46.104   7.502
 1879THSLK    S 1799  10.901  45.866   7.390
 1880ETHY    C1 1800  10.457  45.831   7.486
 1881ETHY    C1 1801   9.926  45.750   7.518
 1882ETHY    C1 1802   9.412  45.625   7.458
 1883ETHY    C1 1803   8.928  45.457   7.311
 1884ETHY    C1 1804   8.481  45.250   7.083
 1885THSLK    S 1805  10.926  46.374   7.704
 1886ETHY    C1 1806  10.579  46.558   7.935
 1887ETHY    C1 1807  10.119  46.751   8.137
 1888ETHY    C1 1808   9.622  46.906   8.249
 1889ETHY    C1 1809   9.101  47.016   8.274
 1890ETHY    C1 1810   8.565  47.079   8.213
 1891AUSL   AUS 1811  12.413  45.694   7.502
 1892AUSL   AUS 1812  12.343  45.839   7.918
 1893AUL    AUL 1813  12.627  45.613   7.805
 1894THSLK    S 1814  12.629  45.554   7.506
 1895ETHY    C1 1815  12.885  45.176   7.508
 1896ETHY    C1 1816  13.258  44.788   7.507
 1897ETHY    C1 1817  13.694  44.482   7.505
 1898ETHY    C1 1818  14.180  44.264   7.506
 1899ETHY    C1 1819  14.707  44.134   7.509
 1900THSLK    S 1820  12.475  45.649   8.066
 1901ETHY    C1 1821  12.680  45.306   8.285
 1902ETHY    C1 1822  12.982  44.964   8.570
 1903ETHY    C1 1823  13.336  44.711   8.877
 1904ETHY    C1 1824  13.730  44.548   9.198
 1905ETHY    C1 1825  14.154  44.478   9.529
 1906AUSL   AUS 1826  12.507  45.940   7.350
 1907AUSL   AUS 1827  12.250  45.593   7.237
 1908AUL    AUL 1828  12.627  45.613   7.198
 1909THSLK    S 1829  12.740  45.802   7.350
 1910ETHY    C1 1830  13.088  45.513   7.289
 1911ETHY    C1 1831  13.547  45.246   7.206
 1912ETHY    C1 1832  14.044  45.077   7.118
 1913ETHY    C1 1833  14.566  45.005   7.031
 1914ETHY    C1 1834  15.101  45.031   6.947
 1915THSLK    S 1835  12.369  45.403   7.104
 1916ETHY    C1 1836  12.486  44.986   6.963
 1917ETHY    C1 1837  12.700  44.532   6.765
 1918ETHY    C1 1838  12.990  44.146   6.543
 1919ETHY    C1 1839  13.349  43.831   6.306
 1920ETHY    C1 1840  13.769  43.592   6.058
 1921AUSL   AUS 1841  11.253  45.694   7.502
 1922AUSL   AUS 1842  11.323  45.839   7.085
 1923AUL    AUL 1843  11.039  45.613   7.198
 1924THSLK    S 1844  11.150  45.668   6.973
 1925ETHY    C1 1845  10.785  45.411   6.877
 1926ETHY    C1 1846  10.369  45.134   6.679
 1927ETHY    C1 1847   9.989  44.897   6.392
 1928ETHY    C1 1848   9.655  44.701   6.025
 1929ETHY    C1 1849   9.373  44.549   5.587
 1930THSLK    S 1850  10.985  45.638   7.506
 1931ETHY    C1 1851  10.533  45.577   7.508
 1932ETHY    C1 1852  10.019  45.418   7.507
 1933ETHY    C1 1853   9.551  45.164   7.505
 1934ETHY    C1 1854   9.138  44.827   7.506
 1935ETHY    C1 1855   8.786  44.413   7.509
 1936AUSL   AUS 1856  11.159  45.940   7.653
 1937AUSL   AUS 1857  11.417  45.593   7.766
 1938AUL    AUL 1858  11.039  45.613   7.805
 1939THSLK    S 1859  11.229  45.449   7.880
 1940ETHY    C1 1860  10.855  45.192   7.926
 1941ETHY    C1 1861  10.457  44.852   8.052
 1942ETHY    C1 1862  10.124  44.490   8.255
 1943ETHY    C1 1863   9.862  44.116   8.529
 1944ETHY    C1 1864   9.671  43.738   8.870
 1945THSLK    S 1865  10.900  45.873   7.617
 1946ETHY    C1 1866  10.455  45.843   7.524
 1947ETHY    C1 1867   9.924  45.761   7.490
 1948ETHY    C1 1868   9.411  45.632   7.549
 1949ETHY    C1 1869   8.927  45.464   7.696
 1950ETHY    C1 1870   8.479  45.262   7.928
 1951AUSL   AUS 1871  11.833  46.684   7.911
 1952AUSL   AUS 1872  11.417  46.614   7.766
 1953AUL    AUL 1873  11.530  46.898   7.992
 1954THSLK    S 1874  11.297  46.773   7.950
 1955ETHY    C1 1875  11.180  47.085   8.261
 1956ETHY    C1 1876  10.966  47.465   8.578
 1957ETHY    C1 1877  10.676  47.836   8.824
 1958ETHY    C1 1878  10.318  48.190   9.000
 1959ETHY    C1 1879   9.897  48.518   9.102
 1960THSLK    S 1880  11.873  46.910   8.035
 1961ETHY    C1 1881  12.030  47.212   8.339
 1962ETHY    C1 1882  12.145  47.618   8.672
 1963ETHY    C1 1883  12.172  48.062   8.964
 1964ETHY    C1 1884  12.112  48.531   9.211
 1965ETHY    C1 1885  11.968  49.015   9.410
 1966AUSL   AUS 1886  11.681  46.777   7.665
 1967AUSL   AUS 1887  11.985  46.777   7.338
 1968AUL    AUL 1888  11.833  47.085   7.502
 1969THSLK    S 1889  11.722  47.025   7.774
 1970ETHY    C1 1890  11.831  47.435   7.942
 1971ETHY    C1 1891  11.875  47.942   8.118
 1972ETHY    C1 1892  11.818  48.450   8.265
 1973ETHY    C1 1893  11.665  48.947   8.383
 1974ETHY    C1 1894  11.422  49.424   8.472
 1975THSLK    S 1895  12.038  47.012   7.241
 1976ETHY    C1 1896  12.283  47.368   7.094
 1977ETHY    C1 1897  12.496  47.833   6.927
 1978ETHY    C1 1898  12.611  48.331   6.779
 1979ETHY    C1 1899  12.631  48.850   6.655
 1980ETHY    C1 1900  12.556  49.379   6.558
 1981AUSL   AUS 1901  11.985  46.777   7.665
 1982AUSL   AUS 1902  12.098  46.520   8.012
 1983AUL    AUL 1903  12.136  46.898   7.992
 1984THSLK    S 1904  12.270  46.633   8.184
 1985ETHY    C1 1905  12.555  46.736   8.524
 1986ETHY    C1 1906  12.857  46.940   8.921
 1987ETHY    C1 1907  13.102  47.230   9.294
 1988ETHY    C1 1908  13.286  47.593   9.638
 1989ETHY    C1 1909  13.405  48.023   9.948
 1990THSLK    S 1910  12.036  47.011   7.771
 1991ETHY    C1 1911  12.280  47.365   7.922
 1992ETHY    C1 1912  12.493  47.831   8.087
 1993ETHY    C1 1913  12.609  48.330   8.231
 1994ETHY    C1 1914  12.628  48.848   8.356
 1995ETHY    C1 1915  12.553  49.376   8.458
 1996AUSL   AUS 1916  11.833  45.524   7.911
 1997AUSL   AUS 1917  12.250  45.593   7.766
 1998AUL    AUL 1918  12.136  45.309   7.992
 1999THSLK    S 1919  11.789  45.269   7.990
 2000ETHY    C1 1920  11.629  44.865   8.128
 2001ETHY    C1 1921  11.515  44.384   8.341
 2002ETHY    C1 1922  11.490  43.923   8.605
 2003ETHY    C1 1923  11.549  43.493   8.915
 2004ETHY    C1 1924  11.690  43.101   9.263
 2005THSLK    S 1925  12.365  45.404   7.908
 2006ETHY    C1 1926  12.481  44.988   8.052
 2007ETHY    C1 1927  12.695  44.535   8.248
 2008ETHY    C1 1928  12.987  44.147   8.467
 2009ETHY    C1 1929  13.346  43.832   8.705
 2010ETHY    C1 1930  13.763  43.595   8.958
 2011AUSL   AUS 1931  11.681  45.430   7.665
 2012AUSL   AUS 1932  11.568  45.687   8.012
 2013AUL    AUL 1933  11.530  45.309   7.992
 2014THSLK    S 1934  11.628  45.190   7.745
 2015ETHY    C1 1935  11.383  44.809   7.801
 2016ETHY    C1 1936  11.170  44.324   7.897
 2017ETHY    C1 1937  11.055  43.821   8.025
 2018ETHY    C1 1938  11.036  43.312   8.186
 2019ETHY    C1 1939  11.110  42.809   8.374
 2020THSLK    S 1940  11.390  45.519   8.133
 2021ETHY    C1 1941  11.102  45.201   8.289
 2022ETHY    C1 1942  10.802  44.841   8.552
 2023ETHY    C1 1943  10.559  44.515   8.896
 2024ETHY    C1 1944  10.375  44.232   9.309
 2025ETHY    C1 1945  10.251  43.998   9.783
 2026AUSL   AUS 1946  11.985  45.430   7.665
 2027AUSL   AUS 1947  11.681  45.430   7.338
 2028AUL    AUL 1948  11.833  45.122   7.502
 2029THSLK    S 1949  11.630  45.187   7.266
 2030ETHY    C1 1950  11.386  44.805   7.215
 2031ETHY    C1 1951  11.173  44.321   7.117
 2032ETHY    C1 1952  11.057  43.819   6.984
 2033ETHY    C1 1953  11.038  43.310   6.825
 2034ETHY    C1 1954  11.114  42.805   6.642
 2035THSLK    S 1955  11.942  45.174   7.749
 2036ETHY    C1 1956  11.832  44.738   7.821
 2037ETHY    C1 1957  11.789  44.212   7.928
 2038ETHY    C1 1958  11.846  43.700   8.059
 2039ETHY    C1 1959  11.999  43.212   8.213
 2040ETHY    C1 1960  12.241  42.759   8.388
 2041AUSL   AUS 1961  11.833  46.684   7.093
 2042AUSL   AUS 1962  12.250  46.614   7.237
 2043AUL    AUL 1963  12.136  46.898   7.011
 2044THSLK    S 1964  11.877  46.914   6.975
 2045ETHY    C1 1965  12.037  47.218   6.674
 2046ETHY    C1 1966  12.151  47.623   6.339
 2047ETHY    C1 1967  12.176  48.066   6.045
 2048ETHY    C1 1968  12.117  48.535   5.798
 2049ETHY    C1 1969  11.976  49.022   5.604
 2050THSLK    S 1970  12.437  46.735   7.085
 2051ETHY    C1 1971  12.811  46.891   6.876
 2052ETHY    C1 1972  13.209  47.155   6.629
 2053ETHY    C1 1973  13.542  47.499   6.395
 2054ETHY    C1 1974  13.804  47.911   6.184
 2055ETHY    C1 1975  13.995  48.385   5.998
 2056AUSL   AUS 1976  11.681  46.777   7.338
 2057AUSL   AUS 1977  11.568  46.520   6.992
 2058AUL    AUL 1978  11.530  46.898   7.011
 2059THSLK    S 1979  11.724  47.028   7.237
 2060ETHY    C1 1980  11.834  47.439   7.074
 2061ETHY    C1 1981  11.877  47.945   6.896
 2062ETHY    C1 1982  11.820  48.453   6.745
 2063ETHY    C1 1983  11.667  48.950   6.627
 2064ETHY    C1 1984  11.425  49.429   6.545
 2065THSLK    S 1985  11.454  46.655   6.802
 2066ETHY    C1 1986  11.388  46.827   6.385
 2067ETHY    C1 1987  11.245  47.079   5.932
 2068ETHY    C1 1988  11.036  47.378   5.544
 2069ETHY    C1 1989  10.770  47.716   5.230
 2070ETHY    C1 1990  10.454  48.089   4.993
 2071AUSL   AUS 1991  11.833  45.524   7.093
 2072AUSL   AUS 1992  11.417  45.593   7.237
 2073AUL    AUL 1993  11.530  45.309   7.011
 2074THSLK    S 1994  11.233  45.443   7.128
 2075ETHY    C1 1995  10.861  45.182   7.085
 2076ETHY    C1 1996  10.462  44.844   6.958
 2077ETHY    C1 1997  10.127  44.485   6.753
 2078ETHY    C1 1998   9.865  44.111   6.478
 2079ETHY    C1 1999   9.678  43.728   6.142
 2080THSLK    S 2000  11.793  45.265   7.019
 2081ETHY    C1 2001  11.636  44.859   6.885
 2082ETHY    C1 2002  11.521  44.379   6.671
 2083ETHY    C1 2003  11.494  43.920   6.404
 2084ETHY    C1 2004  11.554  43.489   6.094
 2085ETHY    C1 2005  11.698  43.094   5.751
 2086AUSL   AUS 2006  11.985  45.430   7.338
 2087AUSL   AUS 2007  12.098  45.687   6.992
 2088AUL    AUL 2008  12.136  45.309   7.011
 2089THSLK    S 2009  11.944  45.173   7.262
 2090ETHY    C1 2010  11.835  44.735   7.195
 2091ETHY    C1 2011  11.792  44.209   7.086
 2092ETHY    C1 2012  11.848  43.698   6.951
 2093ETHY    C1 2013  12.001  43.210   6.798
 2094ETHY    C1 2014  12.245  42.756   6.629
 2095THSLK    S 2015  12.218  45.497   6.853
 2096ETHY    C1 2016  12.287  45.111   6.621
 2097ETHY    C1 2017  12.429  44.703   6.300
 2098ETHY    C1 2018  12.636  44.367   5.942
 2099ETHY    C1 2019  12.902  44.110   5.559
 2100ETHY    C1 2020  13.222  43.932   5.158
 2101AUC    AUC 2021  32.312   3.242   7.502
 2102AUC    AUC 2022  32.558   3.242   7.350
 2103AUC    AUC 2023  32.558   3.242   7.653
 2104AUC    AUC 2024  32.067   3.242   7.350
 2105AUC    AUC 2025  32.067   3.242   7.653
 2106AUC    AUC 2026  32.160   3.487   7.502
 2107AUC    AUC 2027  32.464   3.487   7.502
 2108AUC    AUC 2028  32.160   2.996   7.502
 2109AUC    AUC 2029  32.464   2.996   7.502
 2110AUC    AUC 2030  32.312   3.090   7.747
 2111AUC    AUC 2031  32.312   3.393   7.747
 2112AUC    AUC 2032  32.312   3.090   7.256
 2113AUC    AUC 2033  32.312   3.393   7.256
 2114AUC    AUC 2034  32.803   3.242   7.198
 2115AUC    AUC 2035  32.803   3.242   7.502
 2116AUC    AUC 2036  32.803   3.242   7.805
 2117AUC    AUC 2037  31.821   3.242   7.198
 2118AUC    AUC 2038  31.821   3.242   7.502
 2119AUC    AUC 2039  31.821   3.242   7.805
 2120AUC    AUC 2040  32.009   3.732   7.502
 2121AUC    AUC 2041  32.312   3.732   7.502
 2122AUC    AUC 2042  32.615   3.732   7.502
 2123AUC    AUC 2043  32.009   2.751   7.502
 2124AUC    AUC 2044  32.312   2.751   7.502
 2125AUC    AUC 2045  32.615   2.751   7.502
 2126AUC    AUC 2046  32.312   2.938   7.992
 2127AUC    AUC 2047  32.312   3.242   7.992
 2128AUC    AUC 2048  32.312   3.545   7.992
 2129AUC    AUC 2049  32.312   2.938   7.011
 2130AUC    AUC 2050  32.312   3.242   7.011
 2131AUC    AUC 2051  32.312   3.545   7.011
 2132AUC    AUC 2052  32.558   3.090   7.899
 2133AUC    AUC 2053  32.558   3.393   7.899
 2134AUC    AUC 2054  32.558   3.090   7.105
 2135AUC    AUC 2055  32.558   3.393   7.105
 2136AUC    AUC 2056  32.067   3.090   7.899
 2137AUC    AUC 2057  32.067   3.393   7.899
 2138AUC    AUC 2058  32.067   3.090   7.105
 2139AUC    AUC 2059  32.067   3.393   7.105
 2140AUC    AUC 2060  32.709   3.487   7.350
 2141AUC    AUC 2061  32.709   3.487   7.653
 2142AUC    AUC 2062  31.915   3.487   7.350
 2143AUC    AUC 2063  31.915   3.487   7.653
 2144AUC    AUC 2064  32.709   2.996   7.350
 2145AUC    AUC 2065  32.709   2.996   7.653
 2146AUC    AUC 2066  31.915   2.996   7.350
 2147AUC    AUC 2067  31.915   2.996   7.653
 2148AUC    AUC 2068  32.160   3.639   7.747
 2149AUC    AUC 2069  32.464   3.639   7.747
 2150AUC    AUC 2070  32.160   2.844   7.747
 2151AUC    AUC 2071  32.464   2.844   7.747
 2152AUC    AUC 2072  32.160   3.639   7.256
 2153AUC    AUC 2073  32.464   3.639   7.256
 2154AUC    AUC 2074  32.160   2.844   7.256
 2155AUC    AUC 2075  32.464   2.844   7.256
 2156AUSL   AUS 2076  32.721   3.242   8.082
 2157AUSL   AUS 2077  32.577   2.825   8.012
 2158AUL    AUL 2078  32.803   2.938   8.296
 2159THSLK    S 2079  32.691   2.637   8.156
 2160ETHY    C1 2080  32.757   2.252   8.391
 2161ETHY    C1 2081  32.900   1.844   8.710
 2162ETHY    C1 2082  33.109   1.508   9.066
 2163ETHY    C1 2083  33.375   1.250   9.450
 2164ETHY    C1 2084  33.691   1.074   9.855
 2165THSLK    S 2085  32.817   3.192   8.326
 2166ETHY    C1 2086  33.033   3.006   8.681
 2167ETHY    C1 2087  33.308   2.871   9.124
 2168ETHY    C1 2088  33.589   2.841   9.575
 2169ETHY    C1 2089  33.867   2.910  10.025
 2170ETHY    C1 2090  34.136   3.078  10.466
 2171AUSL   AUS 2091  32.476   3.090   8.175
 2172AUSL   AUS 2092  32.149   3.393   8.175
 2173AUL    AUL 2093  32.312   3.242   8.483
 2174THSLK    S 2094  32.554   3.037   8.417
 2175ETHY    C1 2095  32.631   2.787   8.790
 2176ETHY    C1 2096  32.747   2.570   9.269
 2177ETHY    C1 2097  32.884   2.454   9.769
 2178ETHY    C1 2098  33.034   2.436  10.281
 2179ETHY    C1 2099  33.193   2.517  10.794
 2180THSLK    S 2100  32.062   3.350   8.431
 2181ETHY    C1 2101  31.980   3.238   8.864
 2182ETHY    C1 2102  31.866   3.192   9.388
 2183ETHY    C1 2103  31.734   3.250   9.901
 2184ETHY    C1 2104  31.583   3.403  10.389
 2185ETHY    C1 2105  31.417   3.647  10.844
 2186AUSL   AUS 2106  32.476   3.393   8.175
 2187AUSL   AUS 2107  32.822   3.506   7.918
 2188AUL    AUL 2108  32.803   3.545   8.296
 2189THSLK    S 2109  32.563   3.447   8.414
 2190ETHY    C1 2110  32.644   3.698   8.786
 2191ETHY    C1 2111  32.758   3.914   9.265
 2192ETHY    C1 2112  32.891   4.030   9.767
 2193ETHY    C1 2113  33.041   4.048  10.279
 2194ETHY    C1 2114  33.207   3.968  10.789
 2195THSLK    S 2115  32.996   3.608   8.080
 2196ETHY    C1 2116  33.360   3.618   8.354
 2197ETHY    C1 2117  33.776   3.720   8.680
 2198ETHY    C1 2118  34.156   3.919   8.995
 2199ETHY    C1 2119  34.491   4.206   9.296
 2200ETHY    C1 2120  34.772   4.574   9.577
 2201AUSL   AUS 2121  32.721   3.242   6.922
 2202AUSL   AUS 2122  32.577   3.658   6.992
 2203AUL    AUL 2123  32.803   3.545   6.707
 2204THSLK    S 2124  32.824   3.192   6.681
 2205ETHY    C1 2125  33.045   3.006   6.329
 2206ETHY    C1 2126  33.318   2.871   5.885
 2207ETHY    C1 2127  33.596   2.841   5.432
 2208ETHY    C1 2128  33.874   2.910   4.982
 2209ETHY    C1 2129  34.148   3.078   4.545
 2210THSLK    S 2130  32.755   3.773   6.825
 2211ETHY    C1 2131  33.043   3.878   6.488
 2212ETHY    C1 2132  33.343   4.082   6.090
 2213ETHY    C1 2133  33.586   4.370   5.714
 2214ETHY    C1 2134  33.770   4.734   5.371
 2215ETHY    C1 2135  33.894   5.165   5.065
 2216AUSL   AUS 2136  32.476   3.090   6.828
 2217AUSL   AUS 2137  32.822   2.977   7.085
 2218AUL    AUL 2138  32.803   2.938   6.707
 2219THSLK    S 2139  32.959   2.785   6.944
 2220ETHY    C1 2140  33.167   2.442   6.729
 2221ETHY    C1 2141  33.468   2.100   6.442
 2222ETHY    C1 2142  33.819   1.847   6.133
 2223ETHY    C1 2143  34.213   1.685   5.812
 2224ETHY    C1 2144  34.642   1.614   5.486
 2225THSLK    S 2145  32.563   3.036   6.590
 2226ETHY    C1 2146  32.644   2.785   6.217
 2227ETHY    C1 2147  32.758   2.569   5.738
 2228ETHY    C1 2148  32.891   2.453   5.236
 2229ETHY    C1 2149  33.041   2.435   4.725
 2230ETHY    C1 2150  33.207   2.515   4.214
 2231AUSL   AUS 2151  32.476   3.393   6.828
 2232AUSL   AUS 2152  32.149   3.090   6.828
 2233AUL    AUL 2153  32.312   3.242   6.520
 2234THSLK    S 2154  32.054   3.036   6.592
 2235ETHY    C1 2155  31.917   2.788   6.235
 2236ETHY    C1 2156  31.757   2.574   5.767
 2237ETHY    C1 2157  31.610   2.459   5.269
 2238ETHY    C1 2158  31.483   2.440   4.751
 2239ETHY    C1 2159  31.378   2.516   4.224
 2240THSLK    S 2160  32.579   3.351   6.578
 2241ETHY    C1 2161  32.720   3.236   6.160
 2242ETHY    C1 2162  32.878   3.189   5.647
 2243ETHY    C1 2163  33.021   3.245   5.138
 2244ETHY    C1 2164  33.149   3.399   4.643
 2245ETHY    C1 2165  33.260   3.647   4.174
 2246AUSL   AUS 2166  31.903   3.242   8.082
 2247AUSL   AUS 2167  32.047   3.658   8.012
 2248AUL    AUL 2168  31.821   3.545   8.296
 2249THSLK    S 2169  31.800   3.192   8.322
 2250ETHY    C1 2170  31.579   3.006   8.674
 2251ETHY    C1 2171  31.306   2.871   9.118
 2252ETHY    C1 2172  31.029   2.841   9.571
 2253ETHY    C1 2173  30.751   2.910  10.021
 2254ETHY    C1 2174  30.476   3.078  10.458
 2255THSLK    S 2175  31.927   3.787   8.202
 2256ETHY    C1 2176  31.858   3.956   8.620
 2257ETHY    C1 2177  31.716   4.209   9.073
 2258ETHY    C1 2178  31.510   4.510   9.460
 2259ETHY    C1 2179  31.243   4.849   9.775
 2260ETHY    C1 2180  30.923   5.216  10.013
 2261AUSL   AUS 2181  32.149   3.090   8.175
 2262AUSL   AUS 2182  31.802   2.977   7.918
 2263AUL    AUL 2183  31.821   2.938   8.296
 2264THSLK    S 2184  31.624   2.813   8.029
 2265ETHY    C1 2185  31.256   2.560   8.125
 2266ETHY    C1 2186  30.841   2.281   8.323
 2267ETHY    C1 2187  30.463   2.041   8.611
 2268ETHY    C1 2188  30.129   1.845   8.978
 2269ETHY    C1 2189  29.843   1.699   9.415
 2270THSLK    S 2190  32.046   3.038   8.410
 2271ETHY    C1 2191  31.904   2.791   8.766
 2272ETHY    C1 2192  31.746   2.576   9.233
 2273ETHY    C1 2193  31.603   2.460   9.733
 2274ETHY    C1 2194  31.476   2.442  10.250
 2275ETHY    C1 2195  31.364   2.520  10.775
 2276AUSL   AUS 2196  31.903   3.242   6.922
 2277AUSL   AUS 2197  32.047   2.825   6.992
 2278AUL    AUL 2198  31.821   2.938   6.707
 2279THSLK    S 2199  31.808   3.192   6.677
 2280ETHY    C1 2200  31.591   3.006   6.322
 2281ETHY    C1 2201  31.316   2.871   5.879
 2282ETHY    C1 2202  31.035   2.841   5.429
 2283ETHY    C1 2203  30.757   2.910   4.978
 2284ETHY    C1 2204  30.489   3.078   4.537
 2285THSLK    S 2205  31.875   2.651   6.872
 2286ETHY    C1 2206  31.590   2.330   6.717
 2287ETHY    C1 2207  31.289   1.971   6.453
 2288ETHY    C1 2208  31.044   1.648   6.109
 2289ETHY    C1 2209  30.860   1.365   5.696
 2290ETHY    C1 2210  30.741   1.125   5.223
 2291AUSL   AUS 2211  32.149   3.393   6.828
 2292AUSL   AUS 2212  31.802   3.506   7.085
 2293AUL    AUL 2213  31.821   3.545   6.707
 2294THSLK    S 2214  31.671   3.636   6.893
 2295ETHY    C1 2215  31.465   3.736   6.499
 2296ETHY    C1 2216  31.163   3.900   6.085
 2297ETHY    C1 2217  30.809   4.112   5.748
 2298ETHY    C1 2218  30.416   4.366   5.494
 2299ETHY    C1 2219  29.991   4.659   5.324
 2300THSLK    S 2220  32.070   3.352   6.571
 2301ETHY    C1 2221  31.993   3.240   6.136
 2302ETHY    C1 2222  31.877   3.195   5.612
 2303ETHY    C1 2223  31.741   3.251   5.101
 2304ETHY    C1 2224  31.591   3.405   4.613
 2305ETHY    C1 2225  31.431   3.650   4.156
 2306AUSL   AUS 2226  32.892   3.651   7.502
 2307AUSL   AUS 2227  32.822   3.506   7.085
 2308AUL    AUL 2228  33.106   3.732   7.198
 2309THSLK    S 2229  33.001   3.609   6.930
 2310ETHY    C1 2230  33.368   3.620   6.659
 2311ETHY    C1 2231  33.783   3.722   6.332
 2312ETHY    C1 2232  34.161   3.920   6.014
 2313ETHY    C1 2233  34.495   4.207   5.713
 2314ETHY    C1 2234  34.781   4.577   5.438
 2315THSLK    S 2235  33.160   3.707   7.506
 2316ETHY    C1 2236  33.612   3.768   7.508
 2317ETHY    C1 2237  34.126   3.927   7.507
 2318ETHY    C1 2238  34.594   4.181   7.505
 2319ETHY    C1 2239  35.007   4.518   7.506
 2320ETHY    C1 2240  35.359   4.932   7.509
 2321AUSL   AUS 2241  32.986   3.405   7.350
 2322AUSL   AUS 2242  32.986   3.078   7.653
 2323AUL    AUL 2243  33.294   3.242   7.502
 2324THSLK    S 2244  33.245   3.448   7.348
 2325ETHY    C1 2245  33.690   3.378   7.278
 2326ETHY    C1 2246  34.221   3.385   7.190
 2327ETHY    C1 2247  34.734   3.495   7.101
 2328ETHY    C1 2248  35.219   3.701   7.017
 2329ETHY    C1 2249  35.666   3.998   6.940
 2330THSLK    S 2250  33.218   2.940   7.662
 2331ETHY    C1 2251  33.564   2.651   7.728
 2332ETHY    C1 2252  34.025   2.384   7.809
 2333ETHY    C1 2253  34.522   2.215   7.892
 2334ETHY    C1 2254  35.043   2.143   7.980
 2335ETHY    C1 2255  35.578   2.169   8.071
 2336AUSL   AUS 2256  32.986   3.405   7.653
 2337AUSL   AUS 2257  32.729   3.752   7.766
 2338AUL    AUL 2258  33.106   3.732   7.805
 2339THSLK    S 2259  32.912   3.871   7.926
 2340ETHY    C1 2260  33.284   4.026   8.139
 2341ETHY    C1 2261  33.684   4.291   8.385
 2342ETHY    C1 2262  34.018   4.635   8.615
 2343ETHY    C1 2263  34.280   5.048   8.827
 2344ETHY    C1 2264  34.467   5.520   9.019
 2345THSLK    S 2265  33.244   3.448   7.664
 2346ETHY    C1 2266  33.688   3.378   7.738
 2347ETHY    C1 2267  34.219   3.385   7.825
 2348ETHY    C1 2268  34.733   3.495   7.910
 2349ETHY    C1 2269  35.217   3.701   7.994
 2350ETHY    C1 2270  35.664   3.998   8.078
 2351AUSL   AUS 2271  31.732   3.651   7.502
 2352AUSL   AUS 2272  31.802   3.506   7.918
 2353AUL    AUL 2273  31.518   3.732   7.805
 2354THSLK    S 2274  31.666   3.629   8.109
 2355ETHY    C1 2275  31.457   3.725   8.503
 2356ETHY    C1 2276  31.156   3.891   8.917
 2357ETHY    C1 2277  30.805   4.106   9.254
 2358ETHY    C1 2278  30.411   4.360   9.509
 2359ETHY    C1 2279  29.982   4.647   9.678
 2360THSLK    S 2280  31.516   3.791   7.506
 2361ETHY    C1 2281  31.260   4.169   7.508
 2362ETHY    C1 2282  30.887   4.557   7.507
 2363ETHY    C1 2283  30.451   4.863   7.505
 2364ETHY    C1 2284  29.965   5.081   7.506
 2365ETHY    C1 2285  29.438   5.211   7.509
 2366AUSL   AUS 2286  31.638   3.405   7.350
 2367AUSL   AUS 2287  31.896   3.752   7.237
 2368AUL    AUL 2288  31.518   3.732   7.198
 2369THSLK    S 2289  31.407   3.520   7.303
 2370ETHY    C1 2290  31.060   3.708   7.075
 2371ETHY    C1 2291  30.600   3.900   6.872
 2372ETHY    C1 2292  30.102   4.050   6.758
 2373ETHY    C1 2293  29.581   4.160   6.733
 2374ETHY    C1 2294  29.047   4.230   6.796
 2375THSLK    S 2295  31.780   3.917   7.058
 2376ETHY    C1 2296  31.664   4.233   6.750
 2377ETHY    C1 2297  31.450   4.611   6.432
 2378ETHY    C1 2298  31.158   4.980   6.183
 2379ETHY    C1 2299  30.800   5.333   6.008
 2380ETHY    C1 2300  30.382   5.666   5.909
 2381AUSL   AUS 2301  31.638   3.405   7.653
 2382AUSL   AUS 2302  31.638   3.078   7.350
 2383AUL    AUL 2303  31.330   3.242   7.502
 2384THSLK    S 2304  31.380   3.004   7.390
 2385ETHY    C1 2305  30.936   2.969   7.486
 2386ETHY    C1 2306  30.405   2.888   7.518
 2387ETHY    C1 2307  29.891   2.763   7.458
 2388ETHY    C1 2308  29.407   2.595   7.311
 2389ETHY    C1 2309  28.960   2.388   7.083
 2390THSLK    S 2310  31.405   3.512   7.704
 2391ETHY    C1 2311  31.058   3.696   7.935
 2392ETHY    C1 2312  30.598   3.889   8.137
 2393ETHY    C1 2313  30.101   4.044   8.249
 2394ETHY    C1 2314  29.580   4.154   8.274
 2395ETHY    C1 2315  29.044   4.217   8.213
 2396AUSL   AUS 2316  32.892   2.832   7.502
 2397AUSL   AUS 2317  32.822   2.977   7.918
 2398AUL    AUL 2318  33.106   2.751   7.805
 2399THSLK    S 2319  33.108   2.692   7.506
 2400ETHY    C1 2320  33.364   2.314   7.508
 2401ETHY    C1 2321  33.737   1.926   7.507
 2402ETHY    C1 2322  34.173   1.620   7.505
 2403ETHY    C1 2323  34.659   1.402   7.506
 2404ETHY    C1 2324  35.186   1.272   7.509
 2405THSLK    S 2325  32.954   2.787   8.066
 2406ETHY    C1 2326  33.159   2.444   8.285
 2407ETHY    C1 2327  33.461   2.102   8.570
 2408ETHY    C1 2328  33.815   1.849   8.877
 2409ETHY    C1 2329  34.209   1.686   9.198
 2410ETHY    C1 2330  34.633   1.616   9.529
 2411AUSL   AUS 2331  32.986   3.078   7.350
 2412AUSL   AUS 2332  32.729   2.731   7.237
 2413AUL    AUL 2333  33.106   2.751   7.198
 2414THSLK    S 2334  33.219   2.940   7.350
 2415ETHY    C1 2335  33.567   2.651   7.289
 2416ETHY    C1 2336  34.026   2.384   7.206
 2417ETHY    C1 2337  34.523   2.215   7.118
 2418ETHY    C1 2338  35.045   2.143   7.031
 2419ETHY    C1 2339  35.580   2.169   6.947
 2420THSLK    S 2340  32.848   2.541   7.104
 2421ETHY    C1 2341  32.965   2.124   6.963
 2422ETHY    C1 2342  33.179   1.670   6.765
 2423ETHY    C1 2343  33.469   1.284   6.543
 2424ETHY    C1 2344  33.828   0.969   6.306
 2425ETHY    C1 2345  34.248   0.730   6.058
 2426AUSL   AUS 2346  31.732   2.832   7.502
 2427AUSL   AUS 2347  31.802   2.977   7.085
 2428AUL    AUL 2348  31.518   2.751   7.198
 2429THSLK    S 2349  31.629   2.806   6.973
 2430ETHY    C1 2350  31.264   2.549   6.877
 2431ETHY    C1 2351  30.848   2.272   6.679
 2432ETHY    C1 2352  30.468   2.035   6.392
 2433ETHY    C1 2353  30.134   1.839   6.025
 2434ETHY    C1 2354  29.852   1.687   5.587
 2435THSLK    S 2355  31.464   2.776   7.506
 2436ETHY    C1 2356  31.012   2.715   7.508
 2437ETHY    C1 2357  30.498   2.556   7.507
 2438ETHY    C1 2358  30.030   2.302   7.505
 2439ETHY    C1 2359  29.617   1.965   7.506
 2440ETHY    C1 2360  29.265   1.551   7.509
 2441AUSL   AUS 2361  31.638   3.078   7.653
 2442AUSL   AUS 2362  31.896   2.731   7.766
 2443AUL    AUL 2363  31.518   2.751   7.805
 2444THSLK    S 2364  31.708   2.587   7.880
 2445ETHY    C1 2365  31.334   2.330   7.926
 2446ETHY    C1 2366  30.936   1.990   8.052
 2447ETHY    C1 2367  30.603   1.628   8.255
 2448ETHY    C1 2368  30.341   1.254   8.529
 2449ETHY    C1 2369  30.150   0.876   8.870
 2450THSLK    S 2370  31.379   3.011   7.617
 2451ETHY    C1 2371  30.934   2.981   7.524
 2452ETHY    C1 2372  30.403   2.899   7.490
 2453ETHY    C1 2373  29.890   2.770   7.549
 2454ETHY    C1 2374  29.406   2.602   7.696
 2455ETHY    C1 2375  28.958   2.400   7.928
 2456AUSL   AUS 2376  32.312   3.822   7.911
 2457AUSL   AUS 2377  31.896   3.752   7.766
 2458AUL    AUL 2378  32.009   4.036   7.992
 2459THSLK    S 2379  31.776   3.911   7.950
 2460ETHY    C1 2380  31.659   4.223   8.261
 2461ETHY    C1 2381  31.445   4.603   8.578
 2462ETHY    C1 2382  31.155   4.974   8.824
 2463ETHY    C1 2383  30.797   5.328   9.000
 2464ETHY    C1 2384  30.376   5.656   9.102
 2465THSLK    S 2385  32.352   4.048   8.035
 2466ETHY    C1 2386  32.509   4.350   8.339
 2467ETHY    C1 2387  32.624   4.756   8.672
 2468ETHY    C1 2388  32.651   5.200   8.964
 2469ETHY    C1 2389  32.591   5.669   9.211
 2470ETHY    C1 2390  32.447   6.153   9.410
 2471AUSL   AUS 2391  32.160   3.915   7.665
 2472AUSL   AUS 2392  32.464   3.915   7.338
 2473AUL    AUL 2393  32.312   4.223   7.502
 2474THSLK    S 2394  32.201   4.163   7.774
 2475ETHY    C1 2395  32.310   4.573   7.942
 2476ETHY    C1 2396  32.354   5.080   8.118
 2477ETHY    C1 2397  32.297   5.588   8.265
 2478ETHY    C1 2398  32.144   6.085   8.383
 2479ETHY    C1 2399  31.901   6.562   8.472
 2480THSLK    S 2400  32.517   4.150   7.241
 2481ETHY    C1 2401  32.762   4.506   7.094
 2482ETHY    C1 2402  32.975   4.971   6.927
 2483ETHY    C1 2403  33.090   5.469   6.779
 2484ETHY    C1 2404  33.110   5.988   6.655
 2485ETHY    C1 2405  33.035   6.517   6.558
 2486AUSL   AUS 2406  32.464   3.915   7.665
 2487AUSL   AUS 2407  32.577   3.658   8.012
 2488AUL    AUL 2408  32.615   4.036   7.992
 2489THSLK    S 2409  32.749   3.771   8.184
 2490ETHY    C1 2410  33.034   3.874   8.524
 2491ETHY    C1 2411  33.336   4.078   8.921
 2492ETHY    C1 2412  33.581   4.368   9.294
 2493ETHY    C1 2413  33.765   4.731   9.638
 2494ETHY    C1 2414  33.884   5.161   9.948
 2495THSLK    S 2415  32.515   4.149   7.771
 2496ETHY    C1 2416  32.759   4.503   7.922
 2497ETHY    C1 2417  32.972   4.969   8.087
 2498ETHY    C1 2418  33.088   5.468   8.231
 2499ETHY    C1 2419  33.107   5.986   8.356
 2500ETHY    C1 2420  33.032   6.514   8.458
 2501AUSL   AUS 2421  32.312   2.662   7.911
 2502AUSL   AUS 2422  32.729   2.731   7.766
 2503AUL    AUL 2423  32.615   2.447   7.992
 2504THSLK    S 2424  32.268   2.407   7.990
 2505ETHY    C1 2425  32.108   2.003   8.128
 2506ETHY    C1 2426  31.994   1.522   8.341
 2507ETHY    C1 2427  31.969   1.061   8.605
 2508ETHY    C1 2428  32.028   0.631   8.915
 2509ETHY    C1 2429  32.169   0.239   9.263
 2510THSLK    S 2430  32.844   2.542   7.908
 2511ETHY    C1 2431  32.960   2.126   8.052
 2512ETHY    C1 2432  33.174   1.673   8.248
 2513ETHY    C1 2433  33.466   1.285   8.467
 2514ETHY    C1 2434  33.825   0.970   8.705
 2515ETHY    C1 2435  34.242   0.733   8.958
 2516AUSL   AUS 2436  32.160   2.568   7.665
 2517AUSL   AUS 2437  32.047   2.825   8.012
 2518AUL    AUL 2438  32.009   2.447   7.992
 2519THSLK    S 2439  32.107   2.328   7.745
 2520ETHY    C1 2440  31.862   1.947   7.801
 2521ETHY    C1 2441  31.649   1.462   7.897
 2522ETHY    C1 2442  31.534   0.959   8.025
 2523ETHY    C1 2443  31.515   0.450   8.186
 2524ETHY    C1 2444  31.589  -0.053   8.374
 2525THSLK    S 2445  31.869   2.657   8.133
 2526ETHY    C1 2446  31.581   2.339   8.289
 2527ETHY    C1 2447  31.281   1.979   8.552
 2528ETHY    C1 2448  31.038   1.653   8.896
 2529ETHY    C1 2449  30.854   1.370   9.309
 2530ETHY    C1 2450  30.730   1.136   9.783
 2531AUSL   AUS 2451  32.464   2.568   7.665
 2532AUSL   AUS 2452  32.160   2.568   7.338
 2533AUL    AUL 2453  32.312   2.260   7.502
 2534THSLK    S 2454  32.109   2.325   7.266
 2535ETHY    C1 2455  31.865   1.943   7.215
 2536ETHY    C1 2456  31.652   1.459   7.117
 2537ETHY    C1 2457  31.536   0.957   6.984
 2538ETHY    C1 2458  31.517   0.448   6.825
 2539ETHY    C1 2459  31.593  -0.057   6.642
 2540THSLK    S 2460  32.421   2.312   7.749
 2541ETHY    C1 2461  32.311   1.876   7.821
 2542ETHY    C1 2462  32.268   1.350   7.928
 2543ETHY    C1 2463  32.325   0.838   8.059
 2544ETHY    C1 2464  32.478   0.350   8.213
 2545ETHY    C1 2465  32.720  -0.103   8.388
 2546AUSL   AUS 2466  32.312   3.822   7.093
 2547AUSL   AUS 2467  32.729   3.752   7.237
 2548AUL    AUL 2468  32.615   4.036   7.011
 2549THSLK    S 2469  32.356   4.052   6.975
 2550ETHY    C1 2470  32.516   4.356   6.674
 2551ETHY    C1 2471  32.630   4.761   6.339
 2552ETHY    C1 2472  32.655   5.204   6.045
 2553ETHY    C1 2473  32.596   5.673   5.798
 2554ETHY    C1 2474  32.455   6.160   5.604
 2555THSLK    S 2475  32.916   3.873   7.085
 2556ETHY    C1 2476  33.290   4.029   6.876
 2557ETHY    C1 2477  33.688   4.293   6.629
 2558ETHY    C1 2478  34.021   4.637   6.395
 2559ETHY    C1 2479  34.283   5.049   6.184
 2560ETHY    C1 2480  34.474   5.523   5.998
 2561AUSL   AUS 2481  32.160   3.915   7.338
 2562AUSL   AUS 2482  32.047   3.658   6.992
 2563AUL    AUL 2483  32.009   4.036   7.011
 2564THSLK    S 2484  32.203   4.166   7.237
 2565ETHY    C1 2485  32.313   4.577   7.074
 2566ETHY    C1 2486  32.356   5.083   6.896
 2567ETHY    C1 2487  32.299   5.591   6.745
 2568ETHY    C1 2488  32.146   6.088   6.627
 2569ETHY    C1 2489  31.904   6.567   6.545
 2570THSLK    S 2490  31.933   3.793   6.802
 2571ETHY    C1 2491  31.867   3.965   6.385
 2572ETHY    C1 2492  31.724   4.217   5.932
 2573ETHY    C1 2493  31.515   4.516   5.544
 2574ETHY    C1 2494  31.249   4.854   5.230
 2575ETHY    C1 2495  30.933   5.227   4.993
 2576AUSL   AUS 2496  32.312   2.662   7.093
 2577AUSL   AUS 2497  31.896   2.731   7.237
 2578AUL    AUL 2498  32.009   2.447   7.011
 2579THSLK    S 2499  31.712   2.581   7.128
 2580ETHY    C1 2500  31.340   2.320   7.085
 2581ETHY    C1 2501  30.941   1.982   6.958
 2582ETHY    C1 2502  30.606   1.623   6.753
 2583ETHY    C1 2503  30.344   1.249   6.478
 2584ETHY    C1 2504  30.157   0.866   6.142
 2585THSLK    S 2505  32.272   2.403   7.019
 2586ETHY    C1 2506  32.115   1.997   6.885
 2587ETHY    C1 2507  32.000   1.517   6.671
 2588ETHY    C1 2508  31.973   1.058   6.404
 2589ETHY    C1 2509  32.033   0.627   6.094
 2590ETHY    C1 2510  32.177   0.232   5.751
 2591AUSL   AUS 2511  32.464   2.568   7.338
 2592AUSL   AUS 2512  32.577   2.825   6.992
 2593AUL    AUL 2513  32.615   2.447   7.011
 2594THSLK    S 2514  32.423   2.311   7.262
 2595ETHY    C1 2515  32.314   1.873   7.195
 2596ETHY    C1 2516  32.271   1.347   7.086
 2597ETHY    C1 2517  32.327   0.836   6.951
 2598ETHY    C1 2518  32.480   0.348   6.798
 2599ETHY    C1 2519  32.724  -0.106   6.629
 2600THSLK    S 2520  32.697   2.635   6.853
 2601ETHY    C1 2521  32.766   2.249   6.621
 2602ETHY    C1 2522  32.908   1.841   6.300
 2603ETHY    C1 2523  33.115   1.505   5.942
 2604ETHY    C1 2524  33.381   1.248   5.559
 2605ETHY    C1 2525  33.701   1.070   5.158
 2606AUC    AUC 2526  27.210   9.040   7.502
 2607AUC    AUC 2527  27.456   9.040   7.350
 2608AUC    AUC 2528  27.456   9.040   7.653
 2609AUC    AUC 2529  26.965   9.040   7.350
 2610AUC    AUC 2530  26.965   9.040   7.653
 2611AUC    AUC 2531  27.058   9.285   7.502
 2612AUC    AUC 2532  27.362   9.285   7.502
 2613AUC    AUC 2533  27.058   8.794   7.502
 2614AUC    AUC 2534  27.362   8.794   7.502
 2615AUC    AUC 2535  27.210   8.888   7.747
 2616AUC    AUC 2536  27.210   9.191   7.747
 2617AUC    AUC 2537  27.210   8.888   7.256
 2618AUC    AUC 2538  27.210   9.191   7.256
 2619AUC    AUC 2539  27.701   9.040   7.198
 2620AUC    AUC 2540  27.701   9.040   7.502
 2621AUC    AUC 2541  27.701   9.040   7.805
 2622AUC    AUC 2542  26.719   9.040   7.198
 2623AUC    AUC 2543  26.719   9.040   7.502
 2624AUC    AUC 2544  26.719   9.040   7.805
 2625AUC    AUC 2545  26.907   9.530   7.502
 2626AUC    AUC 2546  27.210   9.530   7.502
 2627AUC    AUC 2547  27.513   9.530   7.502
 2628AUC    AUC 2548  26.907   8.549   7.502
 2629AUC    AUC 2549  27.210   8.549   7.502
 2630AUC    AUC 2550  27.513   8.549   7.502
 2631AUC    AUC 2551  27.210   8.736   7.992
 2632AUC    AUC 2552  27.210   9.040   7.992
 2633AUC    AUC 2553  27.210   9.343   7.992
 2634AUC    AUC 2554  27.210   8.736   7.011
 2635AUC    AUC 2555  27.210   9.040   7.011
 2636AUC    AUC 2556  27.210   9.343   7.011
 2637AUC    AUC 2557  27.456   8.888   7.899
 2638AUC    AUC 2558  27.456   9.191   7.899
 2639AUC    AUC 2559  27.456   8.888   7.105
 2640AUC    AUC 2560  27.456   9.191   7.105
 2641AUC    AUC 2561  26.965   8.888   7.899
 2642AUC    AUC 2562  26.965   9.191   7.899
 2643AUC    AUC 2563  26.965   8.888   7.105
 2644AUC    AUC 2564  26.965   9.191   7.105
 2645AUC    AUC 2565  27.607   9.285   7.350
 2646AUC    AUC 2566  27.607   9.285   7.653
 2647AUC    AUC 2567  26.813   9.285   7.350
 2648AUC    AUC 2568  26.813   9.285   7.653
 2649AUC    AUC 2569  27.607   8.794   7.350
 2650AUC    AUC 2570  27.607   8.794   7.653
 2651AUC    AUC 2571  26.813   8.794   7.350
 2652AUC    AUC 2572  26.813   8.794   7.653
 2653AUC    AUC 2573  27.058   9.437   7.747
 2654AUC    AUC 2574  27.362   9.437   7.747
 2655AUC    AUC 2575  27.058   8.642   7.747
 2656AUC    AUC 2576  27.362   8.642   7.747
 2657AUC    AUC 2577  27.058   9.437   7.256
 2658AUC    AUC 2578  27.362   9.437   7.256
 2659AUC    AUC 2579  27.058   8.642   7.256
 2660AUC    AUC 2580  27.362   8.642   7.256
 2661AUSL   AUS 2581  27.619   9.040   8.082
 2662AUSL   AUS 2582  27.475   8.623   8.012
 2663AUL    AUL 2583  27.701   8.736   8.296
 2664THSLK    S 2584  27.589   8.435   8.156
 2665ETHY    C1 2585  27.655   8.050   8.391
 2666ETHY    C1 2586  27.798   7.642   8.710
 2667ETHY    C1 2587  28.007   7.306   9.066
 2668ETHY    C1 2588  28.273   7.048   9.450
 2669ETHY    C1 2589  28.589   6.872   9.855
 2670THSLK    S 2590  27.715   8.990   8.326
 2671ETHY    C1 2591  27.931   8.804   8.681
 2672ETHY    C1 2592  28.206   8.669   9.124
 2673ETHY    C1 2593  28.487   8.639   9.575
 2674ETHY    C1 2594  28.765   8.708  10.025
 2675ETHY    C1 2595  29.034   8.876  10.466
 2676AUSL   AUS 2596  27.374   8.888   8.175
 2677AUSL   AUS 2597  27.047   9.191   8.175
 2678AUL    AUL 2598  27.210   9.040   8.483
 2679THSLK    S 2599  27.452   8.835   8.417
 2680ETHY    C1 2600  27.529   8.585   8.790
 2681ETHY    C1 2601  27.645   8.368   9.269
 2682ETHY    C1 2602  27.782   8.252   9.769
 2683ETHY    C1 2603  27.932   8.234  10.281
 2684ETHY    C1 2604  28.091   8.315  10.794
 2685THSLK    S 2605  26.960   9.148   8.431
 2686ETHY    C1 2606  26.878   9.036   8.864
 2687ETHY    C1 2607  26.764   8.990   9.388
 2688ETHY    C1 2608  26.632   9.048   9.901
 2689ETHY    C1 2609  26.481   9.201  10.389
 2690ETHY    C1 2610  26.315   9.445  10.844
 2691AUSL   AUS 2611  27.374   9.191   8.175
 2692AUSL   AUS 2612  27.720   9.304   7.918
 2693AUL    AUL 2613  27.701   9.343   8.296
 2694THSLK    S 2614  27.461   9.245   8.414
 2695ETHY    C1 2615  27.542   9.496   8.786
 2696ETHY    C1 2616  27.656   9.712   9.265
 2697ETHY    C1 2617  27.789   9.828   9.767
 2698ETHY    C1 2618  27.939   9.846  10.279
 2699ETHY    C1 2619  28.105   9.766  10.789
 2700THSLK    S 2620  27.894   9.406   8.080
 2701ETHY    C1 2621  28.258   9.416   8.354
 2702ETHY    C1 2622  28.674   9.518   8.680
 2703ETHY    C1 2623  29.054   9.717   8.995
 2704ETHY    C1 2624  29.389  10.004   9.296
 2705ETHY    C1 2625  29.670  10.372   9.577
 2706AUSL   AUS 2626  27.619   9.040   6.922
 2707AUSL   AUS 2627  27.475   9.456   6.992
 2708AUL    AUL 2628  27.701   9.343   6.707
 2709THSLK    S 2629  27.722   8.990   6.681
 2710ETHY    C1 2630  27.943   8.804   6.329
 2711ETHY    C1 2631  28.216   8.669   5.885
 2712ETHY    C1 2632  28.494   8.639   5.432
 2713ETHY    C1 2633  28.772   8.708   4.982
 2714ETHY    C1 2634  29.046   8.876   4.545
 2715THSLK    S 2635  27.653   9.571   6.825
 2716ETHY    C1 2636  27.941   9.676   6.488
 2717ETHY    C1 2637  28.241   9.880   6.090
 2718ETHY    C1 2638  28.484  10.168   5.714
 2719ETHY    C1 2639  28.668  10.532   5.371
 2720ETHY    C1 2640  28.792  10.963   5.065
 2721AUSL   AUS 2641  27.374   8.888   6.828
 2722AUSL   AUS 2642  27.720   8.775   7.085
 2723AUL    AUL 2643  27.701   8.736   6.707
 2724THSLK    S 2644  27.857   8.583   6.944
 2725ETHY    C1 2645  28.065   8.240   6.729
 2726ETHY    C1 2646  28.366   7.898   6.442
 2727ETHY    C1 2647  28.717   7.645   6.133
 2728ETHY    C1 2648  29.111   7.483   5.812
 2729ETHY    C1 2649  29.540   7.412   5.486
 2730THSLK    S 2650  27.461   8.834   6.590
 2731ETHY    C1 2651  27.542   8.583   6.217
 2732ETHY    C1 2652  27.656   8.367   5.738
 2733ETHY    C1 2653  27.789   8.251   5.236
 2734ETHY    C1 2654  27.939   8.233   4.725
 2735ETHY    C1 2655  28.105   8.313   4.214
 2736AUSL   AUS 2656  27.374   9.191   6.828
 2737AUSL   AUS 2657  27.047   8.888   6.828
 2738AUL    AUL 2658  27.210   9.040   6.520
 2739THSLK    S 2659  26.952   8.834   6.592
 2740ETHY    C1 2660  26.815   8.586   6.235
 2741ETHY    C1 2661  26.655   8.372   5.767
 2742ETHY    C1 2662  26.508   8.257   5.269
 2743ETHY    C1 2663  26.381   8.238   4.751
 2744ETHY    C1 2664  26.276   8.314   4.224
 2745THSLK    S 2665  27.477   9.149   6.578
 2746ETHY    C1 2666  27.618   9.034   6.160
 2747ETHY    C1 2667  27.776   8.987   5.647
 2748ETHY    C1 2668  27.919   9.043   5.138
 2749ETHY    C1 2669  28.047   9.197   4.643
 2750ETHY    C1 2670  28.158   9.445   4.174
 2751AUSL   AUS 2671  26.801   9.040   8.082
 2752AUSL   AUS 2672  26.945   9.456   8.012
 2753AUL    AUL 2673  26.719   9.343   8.296
 2754THSLK    S 2674  26.698   8.990   8.322
 2755ETHY    C1 2675  26.477   8.804   8.674
 2756ETHY    C1 2676  26.204   8.669   9.118
 2757ETHY    C1 2677  25.927   8.639   9.571
 2758ETHY    C1 2678  25.649   8.708  10.021
 2759ETHY    C1 2679  25.374   8.876  10.458
 2760THSLK    S 2680  26.825   9.585   8.202
 2761ETHY    C1 2681  26.756   9.754   8.620
 2762ETHY    C1 2682  26.614  10.007   9.073
 2763ETHY    C1 2683  26.408  10.308   9.460
 2764ETHY    C1 2684  26.141  10.647   9.775
 2765ETHY    C1 2685  25.821  11.014  10.013
 2766AUSL   AUS 2686  27.047   8.888   8.175
 2767AUSL   AUS 2687  26.700   8.775   7.918
 2768AUL    AUL 2688  26.719   8.736   8.296
 2769THSLK    S 2689  26.522   8.611   8.029
 2770ETHY    C1 2690  26.154   8.358   8.125
 2771ETHY    C1 2691  25.739   8.079   8.323
 2772ETHY    C1 2692  25.361   7.839   8.611
 2773ETHY    C1 2693  25.027   7.643   8.978
 2774ETHY    C1 2694  24.741   7.497   9.415
 2775THSLK    S 2695  26.944   8.836   8.410
 2776ETHY    C1 2696  26.802   8.589   8.766
 2777ETHY    C1 2697  26.644   8.374   9.233
 2778ETHY    C1 2698  26.501   8.258   9.733
 2779ETHY    C1 2699  26.374   8.240  10.250
 2780ETHY    C1 2700  26.262   8.318  10.775
 2781AUSL   AUS 2701  26.801   9.040   6.922
 2782AUSL   AUS 2702  26.945   8.623   6.992
 2783AUL    AUL 2703  26.719   8.736   6.707
 2784THSLK    S 2704  26.706   8.990   6.677
 2785ETHY    C1 2705  26.489   8.804   6.322
 2786ETHY    C1 2706  26.214   8.669   5.879
 2787ETHY    C1 2707  25.933   8.639   5.429
 2788ETHY    C1 2708  25.655   8.708   4.978
 2789ETHY    C1 2709  25.387   8.876   4.537
 2790THSLK    S 2710  26.773   8.449   6.872
 2791ETHY    C1 2711  26.488   8.128   6.717
 2792ETHY    C1 2712  26.187   7.769   6.453
 2793ETHY    C1 2713  25.942   7.446   6.109
 2794ETHY    C1 2714  25.758   7.163   5.696
 2795ETHY    C1 2715  25.639   6.923   5.223
 2796AUSL   AUS 2716  27.047   9.191   6.828
 2797AUSL   AUS 2717  26.700   9.304   7.085
 2798AUL    AUL 2718  26.719   9.343   6.707
 2799THSLK    S 2719  26.569   9.434   6.893
 2800ETHY    C1 2720  26.363   9.534   6.499
 2801ETHY    C1 2721  26.061   9.698   6.085
 2802ETHY    C1 2722  25.707   9.910   5.748
 2803ETHY    C1 2723  25.314  10.164   5.494
 2804ETHY    C1 2724  24.889  10.457   5.324
 2805THSLK    S 2725  26.968   9.150   6.571
 2806ETHY    C1 2726  26.891   9.038   6.136
 2807ETHY    C1 2727  26.775   8.993   5.612
 2808ETHY    C1 2728  26.639   9.049   5.101
 2809ETHY    C1 2729  26.489   9.203   4.613
 2810ETHY    C1 2730  26.329   9.448   4.156
 2811AUSL   AUS 2731  27.790   9.449   7.502
 2812AUSL   AUS 2732  27.720   9.304   7.085
 2813AUL    AUL 2733  28.004   9.530   7.198
 2814THSLK    S 2734  27.899   9.407   6.930
 2815ETHY    C1 2735  28.266   9.418   6.659
 2816ETHY    C1 2736  28.681   9.520   6.332
 2817ETHY    C1 2737  29.059   9.718   6.014
 2818ETHY    C1 2738  29.393  10.005   5.713
 2819ETHY    C1 2739  29.679  10.375   5.438
 2820THSLK    S 2740  28.058   9.505   7.506
 2821ETHY    C1 2741  28.510   9.566   7.508
 2822ETHY    C1 2742  29.024   9.725   7.507
 2823ETHY    C1 2743  29.492   9.979   7.505
 2824ETHY    C1 2744  29.905  10.316   7.506
 2825ETHY    C1 2745  30.257  10.730   7.509
 2826AUSL   AUS 2746  27.884   9.203   7.350
 2827AUSL   AUS 2747  27.884   8.876   7.653
 2828AUL    AUL 2748  28.192   9.040   7.502
 2829THSLK    S 2749  28.143   9.246   7.348
 2830ETHY    C1 2750  28.588   9.176   7.278
 2831ETHY    C1 2751  29.119   9.183   7.190
 2832ETHY    C1 2752  29.632   9.293   7.101
 2833ETHY    C1 2753  30.117   9.499   7.017
 2834ETHY    C1 2754  30.564   9.796   6.940
 2835THSLK    S 2755  28.116   8.738   7.662
 2836ETHY    C1 2756  28.462   8.449   7.728
 2837ETHY    C1 2757  28.923   8.182   7.809
 2838ETHY    C1 2758  29.420   8.013   7.892
 2839ETHY    C1 2759  29.941   7.941   7.980
 2840ETHY    C1 2760  30.476   7.967   8.071
 2841AUSL   AUS 2761  27.884   9.203   7.653
 2842AUSL   AUS 2762  27.627   9.550   7.766
 2843AUL    AUL 2763  28.004   9.530   7.805
 2844THSLK    S 2764  27.810   9.669   7.926
 2845ETHY    C1 2765  28.182   9.824   8.139
 2846ETHY    C1 2766  28.582  10.089   8.385
 2847ETHY    C1 2767  28.916  10.433   8.615
 2848ETHY    C1 2768  29.178  10.846   8.827
 2849ETHY    C1 2769  29.365  11.318   9.019
 2850THSLK    S 2770  28.142   9.246   7.664
 2851ETHY    C1 2771  28.586   9.176   7.738
 2852ETHY    C1 2772  29.117   9.183   7.825
 2853ETHY    C1 2773  29.631   9.293   7.910
 2854ETHY    C1 2774  30.115   9.499   7.994
 2855ETHY    C1 2775  30.562   9.796   8.078
 2856AUSL   AUS 2776  26.630   9.449   7.502
 2857AUSL   AUS 2777  26.700   9.304   7.918
 2858AUL    AUL 2778  26.416   9.530   7.805
 2859THSLK    S 2779  26.564   9.427   8.109
 2860ETHY    C1 2780  26.355   9.523   8.503
 2861ETHY    C1 2781  26.054   9.689   8.917
 2862ETHY    C1 2782  25.703   9.904   9.254
 2863ETHY    C1 2783  25.309  10.158   9.509
 2864ETHY    C1 2784  24.880  10.445   9.678
 2865THSLK    S 2785  26.414   9.589   7.506
 2866ETHY    C1 2786  26.158   9.967   7.508
 2867ETHY    C1 2787  25.785  10.355   7.507
 2868ETHY    C1 2788  25.349  10.661   7.505
 2869ETHY    C1 2789  24.863  10.879   7.506
 2870ETHY    C1 2790  24.336  11.009   7.509
 2871AUSL   AUS 2791  26.536   9.203   7.350
 2872AUSL   AUS 2792  26.794   9.550   7.237
 2873AUL    AUL 2793  26.416   9.530   7.198
 2874THSLK    S 2794  26.305   9.318   7.303
 2875ETHY    C1 2795  25.958   9.506   7.075
 2876ETHY    C1 2796  25.498   9.698   6.872
 2877ETHY    C1 2797  25.000   9.848   6.758
 2878ETHY    C1 2798  24.479   9.958   6.733
 2879ETHY    C1 2799  23.945  10.028   6.796
 2880THSLK    S 2800  26.678   9.715   7.058
 2881ETHY    C1 2801  26.562  10.031   6.750
 2882ETHY    C1 2802  26.348  10.409   6.432
 2883ETHY    C1 2803  26.056  10.778   6.183
 2884ETHY    C1 2804  25.698  11.131   6.008
 2885ETHY    C1 2805  25.280  11.464   5.909
 2886AUSL   AUS 2806  26.536   9.203   7.653
 2887AUSL   AUS 2807  26.536   8.876   7.350
 2888AUL    AUL 2808  26.228   9.040   7.502
 2889THSLK    S 2809  26.278   8.802   7.390
 2890ETHY    C1 2810  25.834   8.767   7.486
 2891ETHY    C1 2811  25.303   8.686   7.518
 2892ETHY    C1 2812  24.789   8.561   7.458
 2893ETHY    C1 2813  24.305   8.393   7.311
 2894ETHY    C1 2814  23.858   8.186   7.083
 2895THSLK    S 2815  26.303   9.310   7.704
 2896ETHY    C1 2816  25.956   9.494   7.935
 2897ETHY    C1 2817  25.496   9.687   8.137
 2898ETHY    C1 2818  24.999   9.842   8.249
 2899ETHY    C1 2819  24.478   9.952   8.274
 2900ETHY    C1 2820  23.942  10.015   8.213
 2901AUSL   AUS 2821  27.790   8.630   7.502
 2902AUSL   AUS 2822  27.720   8.775   7.918
 2903AUL    AUL 2823  28.004   8.549   7.805
 2904THSLK    S 2824  28.006   8.490   7.506
 2905ETHY    C1 2825  28.262   8.112   7.508
 2906ETHY    C1 2826  28.635   7.724   7.507
 2907ETHY    C1 2827  29.071   7.418   7.505
 2908ETHY    C1 2828  29.557   7.200   7.506
 2909ETHY    C1 2829  30.084   7.070   7.509
 2910THSLK    S 2830  27.852   8.585   8.066
 2911ETHY    C1 2831  28.057   8.242   8.285
 2912ETHY    C1 2832  28.359   7.900   8.570
 2913ETHY    C1 2833  28.713   7.647   8.877
 2914ETHY    C1 2834  29.107   7.484   9.198
 2915ETHY    C1 2835  29.531   7.414   9.529
 2916AUSL   AUS 2836  27.884   8.876   7.350
 2917AUSL   AUS 2837  27.627   8.529   7.237
 2918AUL    AUL 2838  28.004   8.549   7.198
 2919THSLK    S 2839  28.117   8.738   7.350
 2920ETHY    C1 2840  28.465   8.449   7.289
 2921ETHY    C1 2841  28.924   8.182   7.206
 2922ETHY    C1 2842  29.421   8.013   7.118
 2923ETHY    C1 2843  29.943   7.941   7.031
 2924ETHY    C1 2844  30.478   7.967   6.947
 2925THSLK    S 2845  27.746   8.339   7.104
 2926ETHY    C1 2846  27.863   7.922   6.963
 2927ETHY    C1 2847  28.077   7.468   6.765
 2928ETHY    C1 2848  28.367   7.082   6.543
 2929ETHY    C1 2849  28.726   6.767   6.306
 2930ETHY    C1 2850  29.146   6.528   6.058
 2931AUSL   AUS 2851  26.630   8.630   7.502
 2932AUSL   AUS 2852  26.700   8.775   7.085
 2933AUL    AUL 2853  26.416   8.549   7.198
 2934THSLK    S 2854  26.527   8.604   6.973
 2935ETHY    C1 2855  26.162   8.347   6.877
 2936ETHY    C1 2856  25.746   8.070   6.679
 2937ETHY    C1 2857  25.366   7.833   6.392
 2938ETHY    C1 2858  25.032   7.637   6.025
 2939ETHY    C1 2859  24.750   7.485   5.587
 2940THSLK    S 2860  26.362   8.574   7.506
 2941ETHY    C1 2861  25.910   8.513   7.508
 2942ETHY    C1 2862  25.396   8.354   7.507
 2943ETHY    C1 2863  24.928   8.100   7.505
 2944ETHY    C1 2864  24.515   7.763   7.506
 2945ETHY    C1 2865  24.163   7.349   7.509
 2946AUSL   AUS 2866  26.536   8.876   7.653
 2947AUSL   AUS 2867  26.794   8.529   7.766
 2948AUL    AUL 2868  26.416   8.549   7.805
 2949THSLK    S 2869  26.606   8.385   7.880
 2950ETHY    C1 2870  26.232   8.128   7.926
 2951ETHY    C1 2871  25.834   7.788   8.052
 2952ETHY    C1 2872  25.501   7.426   8.255
 2953ETHY    C1 2873  25.239   7.052   8.529
 2954ETHY    C1 2874  25.048   6.674   8.870
 2955THSLK    S 2875  26.277   8.809   7.617
 2956ETHY    C1 2876  25.832   8.779   7.524
 2957ETHY    C1 2877  25.301   8.697   7.490
 2958ETHY    C1 2878  24.788   8.568   7.549
 2959ETHY    C1 2879  24.304   8.400   7.696
 2960ETHY    C1 2880  23.856   8.198   7.928
 2961AUSL   AUS 2881  27.210   9.620   7.911
 2962AUSL   AUS 2882  26.794   9.550   7.766
 2963AUL    AUL 2883  26.907   9.834   7.992
 2964THSLK    S 2884  26.674   9.709   7.950
 2965ETHY    C1 2885  26.557  10.021   8.261
 2966ETHY    C1 2886  26.343  10.401   8.578
 2967ETHY    C1 2887  26.053  10.772   8.824
 2968ETHY    C1 2888  25.695  11.126   9.000
 2969ETHY    C1 2889  25.274  11.454   9.102
 2970THSLK    S 2890  27.250   9.846   8.035
 2971ETHY    C1 2891  27.407  10.148   8.339
 2972ETHY    C1 2892  27.522  10.554   8.672
 2973ETHY    C1 2893  27.549  10.998   8.964
 2974ETHY    C1 2894  27.489  11.467   9.211
 2975ETHY    C1 2895  27.345  11.951   9.410
 2976AUSL   AUS 2896  27.058   9.713   7.665
 2977AUSL   AUS 2897  27.362   9.713   7.338
 2978AUL    AUL 2898  27.210  10.021   7.502
 2979THSLK    S 2899  27.099   9.961   7.774
 2980ETHY    C1 2900  27.208  10.371   7.942
 2981ETHY    C1 2901  27.252  10.878   8.118
 2982ETHY    C1 2902  27.195  11.386   8.265
 2983ETHY    C1 2903  27.042  11.883   8.383
 2984ETHY    C1 2904  26.799  12.360   8.472
 2985THSLK    S 2905  27.415   9.948   7.241
 2986ETHY    C1 2906  27.660  10.304   7.094
 2987ETHY    C1 2907  27.873  10.769   6.927
 2988ETHY    C1 2908  27.988  11.267   6.779
 2989ETHY    C1 2909  28.008  11.786   6.655
 2990ETHY    C1 2910  27.933  12.315   6.558
 2991AUSL   AUS 2911  27.362   9.713   7.665
 2992AUSL   AUS 2912  27.475   9.456   8.012
 2993AUL    AUL 2913  27.513   9.834   7.992
 2994THSLK    S 2914  27.647   9.569   8.184
 2995ETHY    C1 2915  27.932   9.672   8.524
 2996ETHY    C1 2916  28.234   9.876   8.921
 2997ETHY    C1 2917  28.479  10.166   9.294
 2998ETHY    C1 2918  28.663  10.529   9.638
 2999ETHY    C1 2919  28.782  10.959   9.948
 3000THSLK    S 2920  27.413   9.947   7.771
 3001ETHY    C1 2921  27.657  10.301   7.922
 3002ETHY    C1 2922  27.870  10.767   8.087
 3003ETHY    C1 2923  27.986  11.266   8.231
 3004ETHY    C1 2924  28.005  11.784   8.356
 3005ETHY    C1 2925  27.930  12.312   8.458
 3006AUSL   AUS 2926  27.210   8.460   7.911
 3007AUSL   AUS 2927  27.627   8.529   7.766
 3008AUL    AUL 2928  27.513   8.245   7.992
 3009THSLK    S 2929  27.166   8.205   7.990
 3010ETHY    C1 2930  27.006   7.801   8.128
 3011ETHY    C1 2931  26.892   7.320   8.341
 3012ETHY    C1 2932  26.867   6.859   8.605
 3013ETHY    C1 2933  26.926   6.429   8.915
 3014ETHY    C1 2934  27.067   6.037   9.263
 3015THSLK    S 2935  27.742   8.340   7.908
 3016ETHY    C1 2936  27.858   7.924   8.052
 3017ETHY    C1 2937  28.072   7.471   8.248
 3018ETHY    C1 2938  28.364   7.083   8.467
 3019ETHY    C1 2939  28.723   6.768   8.705
 3020ETHY    C1 2940  29.140   6.531   8.958
 3021AUSL   AUS 2941  27.058   8.366   7.665
 3022AUSL   AUS 2942  26.945   8.623   8.012
 3023AUL    AUL 2943  26.907   8.245   7.992
 3024THSLK    S 2944  27.005   8.126   7.745
 3025ETHY    C1 2945  26.760   7.745   7.801
 3026ETHY    C1 2946  26.547   7.260   7.897
 3027ETHY    C1 2947  26.432   6.757   8.025
 3028ETHY    C1 2948  26.413   6.248   8.186
 3029ETHY    C1 2949  26.487   5.745   8.374
 3030THSLK    S 2950  26.767   8.455   8.133
 3031ETHY    C1 2951  26.479   8.137   8.289
 3032ETHY    C1 2952  26.179   7.777   8.552
 3033ETHY    C1 2953  25.936   7.451   8.896
 3034ETHY    C1 2954  25.752   7.168   9.309
 3035ETHY    C1 2955  25.628   6.934   9.783
 3036AUSL   AUS 2956  27.362   8.366   7.665
 3037AUSL   AUS 2957  27.058   8.366   7.338
 3038AUL    AUL 2958  27.210   8.058   7.502
 3039THSLK    S 2959  27.007   8.123   7.266
 3040ETHY    C1 2960  26.763   7.741   7.215
 3041ETHY    C1 2961  26.550   7.257   7.117
 3042ETHY    C1 2962  26.434   6.755   6.984
 3043ETHY    C1 2963  26.415   6.246   6.825
 3044ETHY    C1 2964  26.491   5.741   6.642
 3045THSLK    S 2965  27.319   8.110   7.749
 3046ETHY    C1 2966  27.209   7.674   7.821
 3047ETHY    C1 2967  27.166   7.148   7.928
 3048ETHY    C1 2968  27.223   6.636   8.059
 3049ETHY    C1 2969  27.376   6.148   8.213
 3050ETHY    C1 2970  27.618   5.695   8.388
 3051AUSL   AUS 2971  27.210   9.620   7.093
 3052AUSL   AUS 2972  27.627   9.550   7.237
 3053AUL    AUL 2973  27.513   9.834   7.011
 3054THSLK    S 2974  27.254   9.850   6.975
 3055ETHY    C1 2975  27.414  10.154   6.674
 3056ETHY    C1 2976  27.528  10.559   6.339
 3057ETHY    C1 2977  27.553  11.002   6.045
 3058ETHY    C1 2978  27.494  11.471   5.798
 3059ETHY    C1 2979  27.353  11.958   5.604
 3060THSLK    S 2980  27.814   9.671   7.085
 3061ETHY    C1 2981  28.188   9.827   6.876
 3062ETHY    C1 2982  28.586  10.091   6.629
 3063ETHY    C1 2983  28.919  10.435   6.395
 3064ETHY    C1 2984  29.181  10.847   6.184
 3065ETHY    C1 2985  29.372  11.321   5.998
 3066AUSL   AUS 2986  27.058   9.713   7.338
 3067AUSL   AUS 2987  26.945   9.456   6.992
 3068AUL    AUL 2988  26.907   9.834   7.011
 3069THSLK    S 2989  27.101   9.964   7.237
 3070ETHY    C1 2990  27.211  10.375   7.074
 3071ETHY    C1 2991  27.254  10.881   6.896
 3072ETHY    C1 2992  27.197  11.389   6.745
 3073ETHY    C1 2993  27.044  11.886   6.627
 3074ETHY    C1 2994  26.802  12.365   6.545
 3075THSLK    S 2995  26.831   9.591   6.802
 3076ETHY    C1 2996  26.765   9.763   6.385
 3077ETHY    C1 2997  26.622  10.015   5.932
 3078ETHY    C1 2998  26.413  10.314   5.544
 3079ETHY    C1 2999  26.147  10.652   5.230
 3080ETHY    C1 3000  25.831  11.025   4.993
 3081AUSL   AUS 3001  27.210   8.460   7.093
 3082AUSL   AUS 3002  26.794   8.529   7.237
 3083AUL    AUL 3003  26.907   8.245   7.011
 3084THSLK    S 3004  26.610   8.379   7.128
 3085ETHY    C1 3005  26.238   8.118   7.085
 3086ETHY    C1 3006  25.839   7.780   6.958
 3087ETHY    C1 3007  25.504   7.421   6.753
 3088ETHY    C1 3008  25.242   7.047   6.478
 3089ETHY    C1 3009  25.055   6.664   6.142
 3090THSLK    S 3010  27.170   8.201   7.019
 3091ETHY    C1 3011  27.013   7.795   6.885
 3092ETHY    C1 3012  26.898   7.315   6.671
 3093ETHY    C1 3013  26.871   6.856   6.404
 3094ETHY    C1 3014  26.931   6.425   6.094
 3095ETHY    C1 3015  27.075   6.030   5.751
 3096AUSL   AUS 3016  27.362   8.366   7.338
 3097AUSL   AUS 3017  27.475   8.623   6.992
 3098AUL    AUL 3018  27.513   8.245   7.011
 3099THSLK    S 3019  27.321   8.109   7.262
 3100ETHY    C1 3020  27.212   7.671   7.195
 3101ETHY    C1 3021  27.169   7.145   7.086
 3102ETHY    C1 3022  27.225   6.634   6.951
 3103ETHY    C1 3023  27.378   6.146   6.798
 3104ETHY    C1 3024  27.622   5.692   6.629
 3105THSLK    S 3025  27.595   8.433   6.853
 3106ETHY    C1 3026  27.664   8.047   6.621
 3107ETHY    C1 3027  27.806   7.639   6.300
 3108ETHY    C1 3028  28.013   7.303   5.942
 3109ETHY    C1 3029  28.279   7.046   5.559
 3110ETHY    C1 3030  28.599   6.868   5.158
 3111AUC    AUC 3031  24.984  22.447   7.502
 3112AUC    AUC 3032  25.230  22.447   7.350
 3113AUC    AUC 3033  25.230  22.447   7.653
 3114AUC    AUC 3034  24.739  22.447   7.350
 3115AUC    AUC 3035  24.739  22.447   7.653
 3116AUC    AUC 3036  24.832  22.692   7.502
 3117AUC    AUC 3037  25.136  22.692   7.502
 3118AUC    AUC 3038  24.832  22.201   7.502
 3119AUC    AUC 3039  25.136  22.201   7.502
 3120AUC    AUC 3040  24.984  22.295   7.747
 3121AUC    AUC 3041  24.984  22.598   7.747
 3122AUC    AUC 3042  24.984  22.295   7.256
 3123AUC    AUC 3043  24.984  22.598   7.256
 3124AUC    AUC 3044  25.475  22.447   7.198
 3125AUC    AUC 3045  25.475  22.447   7.502
 3126AUC    AUC 3046  25.475  22.447   7.805
 3127AUC    AUC 3047  24.493  22.447   7.198
 3128AUC    AUC 3048  24.493  22.447   7.502
 3129AUC    AUC 3049  24.493  22.447   7.805
 3130AUC    AUC 3050  24.681  22.937   7.502
 3131AUC    AUC 3051  24.984  22.937   7.502
 3132AUC    AUC 3052  25.287  22.937   7.502
 3133AUC    AUC 3053  24.681  21.956   7.502
 3134AUC    AUC 3054  24.984  21.956   7.502
 3135AUC    AUC 3055  25.287  21.956   7.502
 3136AUC    AUC 3056  24.984  22.143   7.992
 3137AUC    AUC 3057  24.984  22.447   7.992
 3138AUC    AUC 3058  24.984  22.750   7.992
 3139AUC    AUC 3059  24.984  22.143   7.011
 3140AUC    AUC 3060  24.984  22.447   7.011
 3141AUC    AUC 3061  24.984  22.750   7.011
 3142AUC    AUC 3062  25.230  22.295   7.899
 3143AUC    AUC 3063  25.230  22.598   7.899
 3144AUC    AUC 3064  25.230  22.295   7.105
 3145AUC    AUC 3065  25.230  22.598   7.105
 3146AUC    AUC 3066  24.739  22.295   7.899
 3147AUC    AUC 3067  24.739  22.598   7.899
 3148AUC    AUC 3068  24.739  22.295   7.105
 3149AUC    AUC 3069  24.739  22.598   7.105
 3150AUC    AUC 3070  25.381  22.692   7.350
 3151AUC    AUC 3071  25.381  22.692   7.653
 3152AUC    AUC 3072  24.587  22.692   7.350
 3153AUC    AUC 3073  24.587  22.692   7.653
 3154AUC    AUC 3074  25.381  22.201   7.350
 3155AUC    AUC 3075  25.381  22.201   7.653
 3156AUC    AUC 3076  24.587  22.201   7.350
 3157AUC    AUC 3077  24.587  22.201   7.653
 3158AUC    AUC 3078  24.832  22.844   7.747
 3159AUC    AUC 3079  25.136  22.844   7.747
 3160AUC    AUC 3080  24.832  22.049   7.747
 3161AUC    AUC 3081  25.136  22.049   7.747
 3162AUC    AUC 3082  24.832  22.844   7.256
 3163AUC    AUC 3083  25.136  22.844   7.256
 3164AUC    AUC 3084  24.832  22.049   7.256
 3165AUC    AUC 3085  25.136  22.049   7.256
 3166AUSL   AUS 3086  25.393  22.447   8.082
 3167AUSL   AUS 3087  25.249  22.030   8.012
 3168AUL    AUL 3088  25.475  22.143   8.296
 3169THSLK    S 3089  25.363  21.842   8.156
 3170ETHY    C1 3090  25.429  21.457   8.391
 3171ETHY    C1 3091  25.572  21.049   8.710
 3172ETHY    C1 3092  25.781  20.713   9.066
 3173ETHY    C1 3093  26.047  20.455   9.450
 3174ETHY    C1 3094  26.363  20.279   9.855
 3175THSLK    S 3095  25.489  22.397   8.326
 3176ETHY    C1 3096  25.705  22.211   8.681
 3177ETHY    C1 3097  25.980  22.076   9.124
 3178ETHY    C1 3098  26.261  22.046   9.575
 3179ETHY    C1 3099  26.539  22.115  10.025
 3180ETHY    C1 3100  26.808  22.283  10.466
 3181AUSL   AUS 3101  25.148  22.295   8.175
 3182AUSL   AUS 3102  24.821  22.598   8.175
 3183AUL    AUL 3103  24.984  22.447   8.483
 3184THSLK    S 3104  25.226  22.242   8.417
 3185ETHY    C1 3105  25.303  21.992   8.790
 3186ETHY    C1 3106  25.419  21.775   9.269
 3187ETHY    C1 3107  25.556  21.659   9.769
 3188ETHY    C1 3108  25.706  21.641  10.281
 3189ETHY    C1 3109  25.865  21.722  10.794
 3190THSLK    S 3110  24.734  22.555   8.431
 3191ETHY    C1 3111  24.652  22.443   8.864
 3192ETHY    C1 3112  24.538  22.397   9.388
 3193ETHY    C1 3113  24.406  22.455   9.901
 3194ETHY    C1 3114  24.255  22.608  10.389
 3195ETHY    C1 3115  24.089  22.852  10.844
 3196AUSL   AUS 3116  25.148  22.598   8.175
 3197AUSL   AUS 3117  25.494  22.711   7.918
 3198AUL    AUL 3118  25.475  22.750   8.296
 3199THSLK    S 3119  25.235  22.652   8.414
 3200ETHY    C1 3120  25.316  22.903   8.786
 3201ETHY    C1 3121  25.430  23.119   9.265
 3202ETHY    C1 3122  25.563  23.235   9.767
 3203ETHY    C1 3123  25.713  23.253  10.279
 3204ETHY    C1 3124  25.879  23.173  10.789
 3205THSLK    S 3125  25.668  22.813   8.080
 3206ETHY    C1 3126  26.032  22.823   8.354
 3207ETHY    C1 3127  26.448  22.925   8.680
 3208ETHY    C1 3128  26.828  23.124   8.995
 3209ETHY    C1 3129  27.163  23.411   9.296
 3210ETHY    C1 3130  27.444  23.779   9.577
 3211AUSL   AUS 3131  25.393  22.447   6.922
 3212AUSL   AUS 3132  25.249  22.863   6.992
 3213AUL    AUL 3133  25.475  22.750   6.707
 3214THSLK    S 3134  25.496  22.397   6.681
 3215ETHY    C1 3135  25.717  22.211   6.329
 3216ETHY    C1 3136  25.990  22.076   5.885
 3217ETHY    C1 3137  26.268  22.046   5.432
 3218ETHY    C1 3138  26.546  22.115   4.982
 3219ETHY    C1 3139  26.820  22.283   4.545
 3220THSLK    S 3140  25.427  22.978   6.825
 3221ETHY    C1 3141  25.715  23.083   6.488
 3222ETHY    C1 3142  26.015  23.287   6.090
 3223ETHY    C1 3143  26.258  23.575   5.714
 3224ETHY    C1 3144  26.442  23.939   5.371
 3225ETHY    C1 3145  26.566  24.370   5.065
 3226AUSL   AUS 3146  25.148  22.295   6.828
 3227AUSL   AUS 3147  25.494  22.182   7.085
 3228AUL    AUL 3148  25.475  22.143   6.707
 3229THSLK    S 3149  25.631  21.990   6.944
 3230ETHY    C1 3150  25.839  21.647   6.729
 3231ETHY    C1 3151  26.140  21.305   6.442
 3232ETHY    C1 3152  26.491  21.052   6.133
 3233ETHY    C1 3153  26.885  20.890   5.812
 3234ETHY    C1 3154  27.314  20.819   5.486
 3235THSLK    S 3155  25.235  22.241   6.590
 3236ETHY    C1 3156  25.316  21.990   6.217
 3237ETHY    C1 3157  25.430  21.774   5.738
 3238ETHY    C1 3158  25.563  21.658   5.236
 3239ETHY    C1 3159  25.713  21.640   4.725
 3240ETHY    C1 3160  25.879  21.720   4.214
 3241AUSL   AUS 3161  25.148  22.598   6.828
 3242AUSL   AUS 3162  24.821  22.295   6.828
 3243AUL    AUL 3163  24.984  22.447   6.520
 3244THSLK    S 3164  24.726  22.241   6.592
 3245ETHY    C1 3165  24.589  21.993   6.235
 3246ETHY    C1 3166  24.429  21.779   5.767
 3247ETHY    C1 3167  24.282  21.664   5.269
 3248ETHY    C1 3168  24.155  21.645   4.751
 3249ETHY    C1 3169  24.050  21.721   4.224
 3250THSLK    S 3170  25.251  22.556   6.578
 3251ETHY    C1 3171  25.392  22.441   6.160
 3252ETHY    C1 3172  25.550  22.394   5.647
 3253ETHY    C1 3173  25.693  22.450   5.138
 3254ETHY    C1 3174  25.821  22.604   4.643
 3255ETHY    C1 3175  25.932  22.852   4.174
 3256AUSL   AUS 3176  24.575  22.447   8.082
 3257AUSL   AUS 3177  24.719  22.863   8.012
 3258AUL    AUL 3178  24.493  22.750   8.296
 3259THSLK    S 3179  24.472  22.397   8.322
 3260ETHY    C1 3180  24.251  22.211   8.674
 3261ETHY    C1 3181  23.978  22.076   9.118
 3262ETHY    C1 3182  23.701  22.046   9.571
 3263ETHY    C1 3183  23.423  22.115  10.021
 3264ETHY    C1 3184  23.148  22.283  10.458
 3265THSLK    S 3185  24.599  22.992   8.202
 3266ETHY    C1 3186  24.530  23.161   8.620
 3267ETHY    C1 3187  24.388  23.414   9.073
 3268ETHY    C1 3188  24.182  23.715   9.460
 3269ETHY    C1 3189  23.915  24.054   9.775
 3270ETHY    C1 3190  23.595  24.421  10.013
 3271AUSL   AUS 3191  24.821  22.295   8.175
 3272AUSL   AUS 3192  24.474  22.182   7.918
 3273AUL    AUL 3193  24.493  22.143   8.296
 3274THSLK    S 3194  24.296  22.018   8.029
 3275ETHY    C1 3195  23.928  21.765   8.125
 3276ETHY    C1 3196  23.513  21.486   8.323
 3277ETHY    C1 3197  23.135  21.246   8.611
 3278ETHY    C1 3198  22.801  21.050   8.978
 3279ETHY    C1 3199  22.515  20.904   9.415
 3280THSLK    S 3200  24.718  22.243   8.410
 3281ETHY    C1 3201  24.576  21.996   8.766
 3282ETHY    C1 3202  24.418  21.781   9.233
 3283ETHY    C1 3203  24.275  21.665   9.733
 3284ETHY    C1 3204  24.148  21.647  10.250
 3285ETHY    C1 3205  24.036  21.725  10.775
 3286AUSL   AUS 3206  24.575  22.447   6.922
 3287AUSL   AUS 3207  24.719  22.030   6.992
 3288AUL    AUL 3208  24.493  22.143   6.707
 3289THSLK    S 3209  24.480  22.397   6.677
 3290ETHY    C1 3210  24.263  22.211   6.322
 3291ETHY    C1 3211  23.988  22.076   5.879
 3292ETHY    C1 3212  23.707  22.046   5.429
 3293ETHY    C1 3213  23.429  22.115   4.978
 3294ETHY    C1 3214  23.161  22.283   4.537
 3295THSLK    S 3215  24.547  21.856   6.872
 3296ETHY    C1 3216  24.262  21.535   6.717
 3297ETHY    C1 3217  23.961  21.176   6.453
 3298ETHY    C1 3218  23.716  20.853   6.109
 3299ETHY    C1 3219  23.532  20.570   5.696
 3300ETHY    C1 3220  23.413  20.330   5.223
 3301AUSL   AUS 3221  24.821  22.598   6.828
 3302AUSL   AUS 3222  24.474  22.711   7.085
 3303AUL    AUL 3223  24.493  22.750   6.707
 3304THSLK    S 3224  24.343  22.841   6.893
 3305ETHY    C1 3225  24.137  22.941   6.499
 3306ETHY    C1 3226  23.835  23.105   6.085
 3307ETHY    C1 3227  23.481  23.317   5.748
 3308ETHY    C1 3228  23.088  23.571   5.494
 3309ETHY    C1 3229  22.663  23.864   5.324
 3310THSLK    S 3230  24.742  22.557   6.571
 3311ETHY    C1 3231  24.665  22.445   6.136
 3312ETHY    C1 3232  24.549  22.400   5.612
 3313ETHY    C1 3233  24.413  22.456   5.101
 3314ETHY    C1 3234  24.263  22.610   4.613
 3315ETHY    C1 3235  24.103  22.855   4.156
 3316AUSL   AUS 3236  25.564  22.856   7.502
 3317AUSL   AUS 3237  25.494  22.711   7.085
 3318AUL    AUL 3238  25.778  22.937   7.198
 3319THSLK    S 3239  25.673  22.814   6.930
 3320ETHY    C1 3240  26.040  22.825   6.659
 3321ETHY    C1 3241  26.455  22.927   6.332
 3322ETHY    C1 3242  26.833  23.125   6.014
 3323ETHY    C1 3243  27.167  23.412   5.713
 3324ETHY    C1 3244  27.453  23.782   5.438
 3325THSLK    S 3245  25.832  22.912   7.506
 3326ETHY    C1 3246  26.284  22.973   7.508
 3327ETHY    C1 3247  26.798  23.132   7.507
 3328ETHY    C1 3248  27.266  23.386   7.505
 3329ETHY    C1 3249  27.679  23.723   7.506
 3330ETHY    C1 3250  28.031  24.137   7.509
 3331AUSL   AUS 3251  25.658  22.610   7.350
 3332AUSL   AUS 3252  25.658  22.283   7.653
 3333AUL    AUL 3253  25.966  22.447   7.502
 3334THSLK    S 3254  25.917  22.653   7.348
 3335ETHY    C1 3255  26.362  22.583   7.278
 3336ETHY    C1 3256  26.893  22.590   7.190
 3337ETHY    C1 3257  27.406  22.700   7.101
 3338ETHY    C1 3258  27.891  22.906   7.017
 3339ETHY    C1 3259  28.338  23.203   6.940
 3340THSLK    S 3260  25.890  22.145   7.662
 3341ETHY    C1 3261  26.236  21.856   7.728
 3342ETHY    C1 3262  26.697  21.589   7.809
 3343ETHY    C1 3263  27.194  21.420   7.892
 3344ETHY    C1 3264  27.715  21.348   7.980
 3345ETHY    C1 3265  28.250  21.374   8.071
 3346AUSL   AUS 3266  25.658  22.610   7.653
 3347AUSL   AUS 3267  25.401  22.957   7.766
 3348AUL    AUL 3268  25.778  22.937   7.805
 3349THSLK    S 3269  25.584  23.076   7.926
 3350ETHY    C1 3270  25.956  23.231   8.139
 3351ETHY    C1 3271  26.356  23.496   8.385
 3352ETHY    C1 3272  26.690  23.840   8.615
 3353ETHY    C1 3273  26.952  24.253   8.827
 3354ETHY    C1 3274  27.139  24.725   9.019
 3355THSLK    S 3275  25.916  22.653   7.664
 3356ETHY    C1 3276  26.360  22.583   7.738
 3357ETHY    C1 3277  26.891  22.590   7.825
 3358ETHY    C1 3278  27.405  22.700   7.910
 3359ETHY    C1 3279  27.889  22.906   7.994
 3360ETHY    C1 3280  28.336  23.203   8.078
 3361AUSL   AUS 3281  24.404  22.856   7.502
 3362AUSL   AUS 3282  24.474  22.711   7.918
 3363AUL    AUL 3283  24.190  22.937   7.805
 3364THSLK    S 3284  24.338  22.834   8.109
 3365ETHY    C1 3285  24.129  22.930   8.503
 3366ETHY    C1 3286  23.828  23.096   8.917
 3367ETHY    C1 3287  23.477  23.311   9.254
 3368ETHY    C1 3288  23.083  23.565   9.509
 3369ETHY    C1 3289  22.654  23.852   9.678
 3370THSLK    S 3290  24.188  22.996   7.506
 3371ETHY    C1 3291  23.932  23.374   7.508
 3372ETHY    C1 3292  23.559  23.762   7.507
 3373ETHY    C1 3293  23.123  24.068   7.505
 3374ETHY    C1 3294  22.637  24.286   7.506
 3375ETHY    C1 3295  22.110  24.416   7.509
 3376AUSL   AUS 3296  24.310  22.610   7.350
 3377AUSL   AUS 3297  24.568  22.957   7.237
 3378AUL    AUL 3298  24.190  22.937   7.198
 3379THSLK    S 3299  24.079  22.725   7.303
 3380ETHY    C1 3300  23.732  22.913   7.075
 3381ETHY    C1 3301  23.272  23.105   6.872
 3382ETHY    C1 3302  22.774  23.255   6.758
 3383ETHY    C1 3303  22.253  23.365   6.733
 3384ETHY    C1 3304  21.719  23.435   6.796
 3385THSLK    S 3305  24.452  23.122   7.058
 3386ETHY    C1 3306  24.336  23.438   6.750
 3387ETHY    C1 3307  24.122  23.816   6.432
 3388ETHY    C1 3308  23.830  24.185   6.183
 3389ETHY    C1 3309  23.472  24.538   6.008
 3390ETHY    C1 3310  23.054  24.871   5.909
 3391AUSL   AUS 3311  24.310  22.610   7.653
 3392AUSL   AUS 3312  24.310  22.283   7.350
 3393AUL    AUL 3313  24.002  22.447   7.502
 3394THSLK    S 3314  24.052  22.209   7.390
 3395ETHY    C1 3315  23.608  22.174   7.486
 3396ETHY    C1 3316  23.077  22.093   7.518
 3397ETHY    C1 3317  22.563  21.968   7.458
 3398ETHY    C1 3318  22.079  21.800   7.311
 3399ETHY    C1 3319  21.632  21.593   7.083
 3400THSLK    S 3320  24.077  22.717   7.704
 3401ETHY    C1 3321  23.730  22.901   7.935
 3402ETHY    C1 3322  23.270  23.094   8.137
 3403ETHY    C1 3323  22.773  23.249   8.249
 3404ETHY    C1 3324  22.252  23.359   8.274
 3405ETHY    C1 3325  21.716  23.422   8.213
 3406AUSL   AUS 3326  25.564  22.037   7.502
 3407AUSL   AUS 3327  25.494  22.182   7.918
 3408AUL    AUL 3328  25.778  21.956   7.805
 3409THSLK    S 3329  25.780  21.897   7.506
 3410ETHY    C1 3330  26.036  21.519   7.508
 3411ETHY    C1 3331  26.409  21.131   7.507
 3412ETHY    C1 3332  26.845  20.825   7.505
 3413ETHY    C1 3333  27.331  20.607   7.506
 3414ETHY    C1 3334  27.858  20.477   7.509
 3415THSLK    S 3335  25.626  21.992   8.066
 3416ETHY    C1 3336  25.831  21.649   8.285
 3417ETHY    C1 3337  26.133  21.307   8.570
 3418ETHY    C1 3338  26.487  21.054   8.877
 3419ETHY    C1 3339  26.881  20.891   9.198
 3420ETHY    C1 3340  27.305  20.821   9.529
 3421AUSL   AUS 3341  25.658  22.283   7.350
 3422AUSL   AUS 3342  25.401  21.936   7.237
 3423AUL    AUL 3343  25.778  21.956   7.198
 3424THSLK    S 3344  25.891  22.145   7.350
 3425ETHY    C1 3345  26.239  21.856   7.289
 3426ETHY    C1 3346  26.698  21.589   7.206
 3427ETHY    C1 3347  27.195  21.420   7.118
 3428ETHY    C1 3348  27.717  21.348   7.031
 3429ETHY    C1 3349  28.252  21.374   6.947
 3430THSLK    S 3350  25.520  21.746   7.104
 3431ETHY    C1 3351  25.637  21.329   6.963
 3432ETHY    C1 3352  25.851  20.875   6.765
 3433ETHY    C1 3353  26.141  20.489   6.543
 3434ETHY    C1 3354  26.500  20.174   6.306
 3435ETHY    C1 3355  26.920  19.935   6.058
 3436AUSL   AUS 3356  24.404  22.037   7.502
 3437AUSL   AUS 3357  24.474  22.182   7.085
 3438AUL    AUL 3358  24.190  21.956   7.198
 3439THSLK    S 3359  24.301  22.011   6.973
 3440ETHY    C1 3360  23.936  21.754   6.877
 3441ETHY    C1 3361  23.520  21.477   6.679
 3442ETHY    C1 3362  23.140  21.240   6.392
 3443ETHY    C1 3363  22.806  21.044   6.025
 3444ETHY    C1 3364  22.524  20.892   5.587
 3445THSLK    S 3365  24.136  21.981   7.506
 3446ETHY    C1 3366  23.684  21.920   7.508
 3447ETHY    C1 3367  23.170  21.761   7.507
 3448ETHY    C1 3368  22.702  21.507   7.505
 3449ETHY    C1 3369  22.289  21.170   7.506
 3450ETHY    C1 3370  21.937  20.756   7.509
 3451AUSL   AUS 3371  24.310  22.283   7.653
 3452AUSL   AUS 3372  24.568  21.936   7.766
 3453AUL    AUL 3373  24.190  21.956   7.805
 3454THSLK    S 3374  24.380  21.792   7.880
 3455ETHY    C1 3375  24.006  21.535   7.926
 3456ETHY    C1 3376  23.608  21.195   8.052
 3457ETHY    C1 3377  23.275  20.833   8.255
 3458ETHY    C1 3378  23.013  20.459   8.529
 3459ETHY    C1 3379  22.822  20.081   8.870
 3460THSLK    S 3380  24.051  22.216   7.617
 3461ETHY    C1 3381  23.606  22.186   7.524
 3462ETHY    C1 3382  23.075  22.104   7.490
 3463ETHY    C1 3383  22.562  21.975   7.549
 3464ETHY    C1 3384  22.078  21.807   7.696
 3465ETHY    C1 3385  21.630  21.605   7.928
 3466AUSL   AUS 3386  24.984  23.027   7.911
 3467AUSL   AUS 3387  24.568  22.957   7.766
 3468AUL    AUL 3388  24.681  23.241   7.992
 3469THSLK    S 3389  24.448  23.116   7.950
 3470ETHY    C1 3390  24.331  23.428   8.261
 3471ETHY    C1 3391  24.117  23.808   8.578
 3472ETHY    C1 3392  23.827  24.179   8.824
 3473ETHY    C1 3393  23.469  24.533   9.000
 3474ETHY    C1 3394  23.048  24.861   9.102
 3475THSLK    S 3395  25.024  23.253   8.035
 3476ETHY    C1 3396  25.181  23.555   8.339
 3477ETHY    C1 3397  25.296  23.961   8.672
 3478ETHY    C1 3398  25.323  24.405   8.964
 3479ETHY    C1 3399  25.263  24.874   9.211
 3480ETHY    C1 3400  25.119  25.358   9.410
 3481AUSL   AUS 3401  24.832  23.120   7.665
 3482AUSL   AUS 3402  25.136  23.120   7.338
 3483AUL    AUL 3403  24.984  23.428   7.502
 3484THSLK    S 3404  24.873  23.368   7.774
 3485ETHY    C1 3405  24.982  23.778   7.942
 3486ETHY    C1 3406  25.026  24.285   8.118
 3487ETHY    C1 3407  24.969  24.793   8.265
 3488ETHY    C1 3408  24.816  25.290   8.383
 3489ETHY    C1 3409  24.573  25.767   8.472
 3490THSLK    S 3410  25.189  23.355   7.241
 3491ETHY    C1 3411  25.434  23.711   7.094
 3492ETHY    C1 3412  25.647  24.176   6.927
 3493ETHY    C1 3413  25.762  24.674   6.779
 3494ETHY    C1 3414  25.782  25.193   6.655
 3495ETHY    C1 3415  25.707  25.722   6.558
 3496AUSL   AUS 3416  25.136  23.120   7.665
 3497AUSL   AUS 3417  25.249  22.863   8.012
 3498AUL    AUL 3418  25.287  23.241   7.992
 3499THSLK    S 3419  25.421  22.976   8.184
 3500ETHY    C1 3420  25.706  23.079   8.524
 3501ETHY    C1 3421  26.008  23.283   8.921
 3502ETHY    C1 3422  26.253  23.573   9.294
 3503ETHY    C1 3423  26.437  23.936   9.638
 3504ETHY    C1 3424  26.556  24.366   9.948
 3505THSLK    S 3425  25.187  23.354   7.771
 3506ETHY    C1 3426  25.431  23.708   7.922
 3507ETHY    C1 3427  25.644  24.174   8.087
 3508ETHY    C1 3428  25.760  24.673   8.231
 3509ETHY    C1 3429  25.779  25.191   8.356
 3510ETHY    C1 3430  25.704  25.719   8.458
 3511AUSL   AUS 3431  24.984  21.867   7.911
 3512AUSL   AUS 3432  25.401  21.936   7.766
 3513AUL    AUL 3433  25.287  21.652   7.992
 3514THSLK    S 3434  24.940  21.612   7.990
 3515ETHY    C1 3435  24.780  21.208   8.128
 3516ETHY    C1 3436  24.666  20.727   8.341
 3517ETHY    C1 3437  24.641  20.266   8.605
 3518ETHY    C1 3438  24.700  19.836   8.915
 3519ETHY    C1 3439  24.841  19.444   9.263
 3520THSLK    S 3440  25.516  21.747   7.908
 3521ETHY    C1 3441  25.632  21.331   8.052
 3522ETHY    C1 3442  25.846  20.878   8.248
 3523ETHY    C1 3443  26.138  20.490   8.467
 3524ETHY    C1 3444  26.497  20.175   8.705
 3525ETHY    C1 3445  26.914  19.938   8.958
 3526AUSL   AUS 3446  24.832  21.773   7.665
 3527AUSL   AUS 3447  24.719  22.030   8.012
 3528AUL    AUL 3448  24.681  21.652   7.992
 3529THSLK    S 3449  24.779  21.533   7.745
 3530ETHY    C1 3450  24.534  21.152   7.801
 3531ETHY    C1 3451  24.321  20.667   7.897
 3532ETHY    C1 3452  24.206  20.164   8.025
 3533ETHY    C1 3453  24.187  19.655   8.186
 3534ETHY    C1 3454  24.261  19.152   8.374
 3535THSLK    S 3455  24.541  21.862   8.133
 3536ETHY    C1 3456  24.253  21.544   8.289
 3537ETHY    C1 3457  23.953  21.184   8.552
 3538ETHY    C1 3458  23.710  20.858   8.896
 3539ETHY    C1 3459  23.526  20.575   9.309
 3540ETHY    C1 3460  23.402  20.341   9.783
 3541AUSL   AUS 3461  25.136  21.773   7.665
 3542AUSL   AUS 3462  24.832  21.773   7.338
 3543AUL    AUL 3463  24.984  21.465   7.502
 3544THSLK    S 3464  24.781  21.530   7.266
 3545ETHY    C1 3465  24.537  21.148   7.215
 3546ETHY    C1 3466  24.324  20.664   7.117
 3547ETHY    C1 3467  24.208  20.162   6.984
 3548ETHY    C1 3468  24.189  19.653   6.825
 3549ETHY    C1 3469  24.265  19.148   6.642
 3550THSLK    S 3470  25.093  21.517   7.749
 3551ETHY    C1 3471  24.983  21.081   7.821
 3552ETHY    C1 3472  24.940  20.555   7.928
 3553ETHY    C1 3473  24.997  20.043   8.059
 3554ETHY    C1 3474  25.150  19.555   8.213
 3555ETHY    C1 3475  25.392  19.102   8.388
 3556AUSL   AUS 3476  24.984  23.027   7.093
 3557AUSL   AUS 3477  25.401  22.957   7.237
 3558AUL    AUL 3478  25.287  23.241   7.011
 3559THSLK    S 3479  25.028  23.257   6.975
 3560ETHY    C1 3480  25.188  23.561   6.674
 3561ETHY    C1 3481  25.302  23.966   6.339
 3562ETHY    C1 3482  25.327  24.409   6.045
 3563ETHY    C1 3483  25.268  24.878   5.798
 3564ETHY    C1 3484  25.127  25.365   5.604
 3565THSLK    S 3485  25.588  23.078   7.085
 3566ETHY    C1 3486  25.962  23.234   6.876
 3567ETHY    C1 3487  26.360  23.498   6.629
 3568ETHY    C1 3488  26.693  23.842   6.395
 3569ETHY    C1 3489  26.955  24.254   6.184
 3570ETHY    C1 3490  27.146  24.728   5.998
 3571AUSL   AUS 3491  24.832  23.120   7.338
 3572AUSL   AUS 3492  24.719  22.863   6.992
 3573AUL    AUL 3493  24.681  23.241   7.011
 3574THSLK    S 3494  24.875  23.371   7.237
 3575ETHY    C1 3495  24.985  23.782   7.074
 3576ETHY    C1 3496  25.028  24.288   6.896
 3577ETHY    C1 3497  24.971  24.796   6.745
 3578ETHY    C1 3498  24.818  25.293   6.627
 3579ETHY    C1 3499  24.576  25.772   6.545
 3580THSLK    S 3500  24.605  22.998   6.802
 3581ETHY    C1 3501  24.539  23.170   6.385
 3582ETHY    C1 3502  24.396  23.422   5.932
 3583ETHY    C1 3503  24.187  23.721   5.544
 3584ETHY    C1 3504  23.921  24.059   5.230
 3585ETHY    C1 3505  23.605  24.432   4.993
 3586AUSL   AUS 3506  24.984  21.867   7.093
 3587AUSL   AUS 3507  24.568  21.936   7.237
 3588AUL    AUL 3508  24.681  21.652   7.011
 3589THSLK    S 3509  24.384  21.786   7.128
 3590ETHY    C1 3510  24.012  21.525   7.085
 3591ETHY    C1 3511  23.613  21.187   6.958
 3592ETHY    C1 3512  23.278  20.828   6.753
 3593ETHY    C1 3513  23.016  20.454   6.478
 3594ETHY    C1 3514  22.829  20.071   6.142
 3595THSLK    S 3515  24.944  21.608   7.019
 3596ETHY    C1 3516  24.787  21.202   6.885
 3597ETHY    C1 3517  24.672  20.722   6.671
 3598ETHY    C1 3518  24.645  20.263   6.404
 3599ETHY    C1 3519  24.705  19.832   6.094
 3600ETHY    C1 3520  24.849  19.437   5.751
 3601AUSL   AUS 3521  25.136  21.773   7.338
 3602AUSL   AUS 3522  25.249  22.030   6.992
 3603AUL    AUL 3523  25.287  21.652   7.011
 3604THSLK    S 3524  25.095  21.516   7.262
 3605ETHY    C1 3525  24.986  21.078   7.195
 3606ETHY    C1 3526  24.943  20.552   7.086
 3607ETHY    C1 3527  24.999  20.041   6.951
 3608ETHY    C1 3528  25.152  19.553   6.798
 3609ETHY    C1 3529  25.396  19.099   6.629
 3610THSLK    S 3530  25.369  21.840   6.853
 3611ETHY    C1 3531  25.438  21.454   6.621
 3612ETHY    C1 3532  25.580  21.046   6.300
 3613ETHY    C1 3533  25.787  20.710   5.942
 3614ETHY    C1 3534  26.053  20.453   5.559
 3615ETHY    C1 3535  26.373  20.275   5.158
 3616AUC    AUC 3536  43.088   9.631   7.502
 3617AUC    AUC 3537  43.334   9.631   7.350
 3618AUC    AUC 3538  43.334   9.631   7.653
 3619AUC    AUC 3539  42.843   9.631   7.350
 3620AUC    AUC 3540  42.843   9.631   7.653
 3621AUC    AUC 3541  42.936   9.876   7.502
 3622AUC    AUC 3542  43.240   9.876   7.502
 3623AUC    AUC 3543  42.936   9.385   7.502
 3624AUC    AUC 3544  43.240   9.385   7.502
 3625AUC    AUC 3545  43.088   9.479   7.747
 3626AUC    AUC 3546  43.088   9.782   7.747
 3627AUC    AUC 3547  43.088   9.479   7.256
 3628AUC    AUC 3548  43.088   9.782   7.256
 3629AUC    AUC 3549  43.579   9.631   7.198
 3630AUC    AUC 3550  43.579   9.631   7.502
 3631AUC    AUC 3551  43.579   9.631   7.805
 3632AUC    AUC 3552  42.597   9.631   7.198
 3633AUC    AUC 3553  42.597   9.631   7.502
 3634AUC    AUC 3554  42.597   9.631   7.805
 3635AUC    AUC 3555  42.785  10.121   7.502
 3636AUC    AUC 3556  43.088  10.121   7.502
 3637AUC    AUC 3557  43.391  10.121   7.502
 3638AUC    AUC 3558  42.785   9.140   7.502
 3639AUC    AUC 3559  43.088   9.140   7.502
 3640AUC    AUC 3560  43.391   9.140   7.502
 3641AUC    AUC 3561  43.088   9.327   7.992
 3642AUC    AUC 3562  43.088   9.631   7.992
 3643AUC    AUC 3563  43.088   9.934   7.992
 3644AUC    AUC 3564  43.088   9.327   7.011
 3645AUC    AUC 3565  43.088   9.631   7.011
 3646AUC    AUC 3566  43.088   9.934   7.011
 3647AUC    AUC 3567  43.334   9.479   7.899
 3648AUC    AUC 3568  43.334   9.782   7.899
 3649AUC    AUC 3569  43.334   9.479   7.105
 3650AUC    AUC 3570  43.334   9.782   7.105
 3651AUC    AUC 3571  42.843   9.479   7.899
 3652AUC    AUC 3572  42.843   9.782   7.899
 3653AUC    AUC 3573  42.843   9.479   7.105
 3654AUC    AUC 3574  42.843   9.782   7.105
 3655AUC    AUC 3575  43.485   9.876   7.350
 3656AUC    AUC 3576  43.485   9.876   7.653
 3657AUC    AUC 3577  42.691   9.876   7.350
 3658AUC    AUC 3578  42.691   9.876   7.653
 3659AUC    AUC 3579  43.485   9.385   7.350
 3660AUC    AUC 3580  43.485   9.385   7.653
 3661AUC    AUC 3581  42.691   9.385   7.350
 3662AUC    AUC 3582  42.691   9.385   7.653
 3663AUC    AUC 3583  42.936  10.028   7.747
 3664AUC    AUC 3584  43.240  10.028   7.747
 3665AUC    AUC 3585  42.936   9.233   7.747
 3666AUC    AUC 3586  43.240   9.233   7.747
 3667AUC    AUC 3587  42.936  10.028   7.256
 3668AUC    AUC 3588  43.240  10.028   7.256
 3669AUC    AUC 3589  42.936   9.233   7.256
 3670AUC    AUC 3590  43.240   9.233   7.256
 3671AUSL   AUS 3591  43.497   9.631   8.082
 3672AUSL   AUS 3592  43.353   9.214   8.012
 3673AUL    AUL 3593  43.579   9.327   8.296
 3674THSLK    S 3594  43.467   9.026   8.156
 3675ETHY    C1 3595  43.533   8.641   8.391
 3676ETHY    C1 3596  43.676   8.233   8.710
 3677ETHY    C1 3597  43.885   7.897   9.066
 3678ETHY    C1 3598  44.151   7.639   9.450
 3679ETHY    C1 3599  44.467   7.463   9.855
 3680THSLK    S 3600  43.593   9.581   8.326
 3681ETHY    C1 3601  43.809   9.395   8.681
 3682ETHY    C1 3602  44.084   9.260   9.124
 3683ETHY    C1 3603  44.365   9.230   9.575
 3684ETHY    C1 3604  44.643   9.299  10.025
 3685ETHY    C1 3605  44.912   9.467  10.466
 3686AUSL   AUS 3606  43.252   9.479   8.175
 3687AUSL   AUS 3607  42.925   9.782   8.175
 3688AUL    AUL 3608  43.088   9.631   8.483
 3689THSLK    S 3609  43.330   9.426   8.417
 3690ETHY    C1 3610  43.407   9.176   8.790
 3691ETHY    C1 3611  43.523   8.959   9.269
 3692ETHY    C1 3612  43.660   8.843   9.769
 3693ETHY    C1 3613  43.810   8.825  10.281
 3694ETHY    C1 3614  43.969   8.906  10.794
 3695THSLK    S 3615  42.838   9.739   8.431
 3696ETHY    C1 3616  42.756   9.627   8.864
 3697ETHY    C1 3617  42.642   9.581   9.388
 3698ETHY    C1 3618  42.510   9.639   9.901
 3699ETHY    C1 3619  42.359   9.792  10.389
 3700ETHY    C1 3620  42.193  10.036  10.844
 3701AUSL   AUS 3621  43.252   9.782   8.175
 3702AUSL   AUS 3622  43.598   9.895   7.918
 3703AUL    AUL 3623  43.579   9.934   8.296
 3704THSLK    S 3624  43.339   9.836   8.414
 3705ETHY    C1 3625  43.420  10.087   8.786
 3706ETHY    C1 3626  43.534  10.303   9.265
 3707ETHY    C1 3627  43.667  10.419   9.767
 3708ETHY    C1 3628  43.817  10.437  10.279
 3709ETHY    C1 3629  43.983  10.357  10.789
 3710THSLK    S 3630  43.772   9.997   8.080
 3711ETHY    C1 3631  44.136  10.007   8.354
 3712ETHY    C1 3632  44.552  10.109   8.680
 3713ETHY    C1 3633  44.932  10.308   8.995
 3714ETHY    C1 3634  45.267  10.595   9.296
 3715ETHY    C1 3635  45.548  10.963   9.577
 3716AUSL   AUS 3636  43.497   9.631   6.922
 3717AUSL   AUS 3637  43.353  10.047   6.992
 3718AUL    AUL 3638  43.579   9.934   6.707
 3719THSLK    S 3639  43.600   9.581   6.681
 3720ETHY    C1 3640  43.821   9.395   6.329
 3721ETHY    C1 3641  44.094   9.260   5.885
 3722ETHY    C1 3642  44.372   9.230   5.432
 3723ETHY    C1 3643  44.650   9.299   4.982
 3724ETHY    C1 3644  44.924   9.467   4.545
 3725THSLK    S 3645  43.531  10.162   6.825
 3726ETHY    C1 3646  43.819  10.267   6.488
 3727ETHY    C1 3647  44.119  10.471   6.090
 3728ETHY    C1 3648  44.362  10.759   5.714
 3729ETHY    C1 3649  44.546  11.123   5.371
 3730ETHY    C1 3650  44.670  11.554   5.065
 3731AUSL   AUS 3651  43.252   9.479   6.828
 3732AUSL   AUS 3652  43.598   9.366   7.085
 3733AUL    AUL 3653  43.579   9.327   6.707
 3734THSLK    S 3654  43.735   9.174   6.944
 3735ETHY    C1 3655  43.943   8.831   6.729
 3736ETHY    C1 3656  44.244   8.489   6.442
 3737ETHY    C1 3657  44.595   8.236   6.133
 3738ETHY    C1 3658  44.989   8.074   5.812
 3739ETHY    C1 3659  45.418   8.003   5.486
 3740THSLK    S 3660  43.339   9.425   6.590
 3741ETHY    C1 3661  43.420   9.174   6.217
 3742ETHY    C1 3662  43.534   8.958   5.738
 3743ETHY    C1 3663  43.667   8.842   5.236
 3744ETHY    C1 3664  43.817   8.824   4.725
 3745ETHY    C1 3665  43.983   8.904   4.214
 3746AUSL   AUS 3666  43.252   9.782   6.828
 3747AUSL   AUS 3667  42.925   9.479   6.828
 3748AUL    AUL 3668  43.088   9.631   6.520
 3749THSLK    S 3669  42.830   9.425   6.592
 3750ETHY    C1 3670  42.693   9.177   6.235
 3751ETHY    C1 3671  42.533   8.963   5.767
 3752ETHY    C1 3672  42.386   8.848   5.269
 3753ETHY    C1 3673  42.259   8.829   4.751
 3754ETHY    C1 3674  42.154   8.905   4.224
 3755THSLK    S 3675  43.355   9.740   6.578
 3756ETHY    C1 3676  43.496   9.625   6.160
 3757ETHY    C1 3677  43.654   9.578   5.647
 3758ETHY    C1 3678  43.797   9.634   5.138
 3759ETHY    C1 3679  43.925   9.788   4.643
 3760ETHY    C1 3680  44.036  10.036   4.174
 3761AUSL   AUS 3681  42.679   9.631   8.082
 3762AUSL   AUS 3682  42.823  10.047   8.012
 3763AUL    AUL 3683  42.597   9.934   8.296
 3764THSLK    S 3684  42.576   9.581   8.322
 3765ETHY    C1 3685  42.355   9.395   8.674
 3766ETHY    C1 3686  42.082   9.260   9.118
 3767ETHY    C1 3687  41.805   9.230   9.571
 3768ETHY    C1 3688  41.527   9.299  10.021
 3769ETHY    C1 3689  41.252   9.467  10.458
 3770THSLK    S 3690  42.703  10.176   8.202
 3771ETHY    C1 3691  42.634  10.345   8.620
 3772ETHY    C1 3692  42.492  10.598   9.073
 3773ETHY    C1 3693  42.286  10.899   9.460
 3774ETHY    C1 3694  42.019  11.238   9.775
 3775ETHY    C1 3695  41.699  11.605  10.013
 3776AUSL   AUS 3696  42.925   9.479   8.175
 3777AUSL   AUS 3697  42.578   9.366   7.918
 3778AUL    AUL 3698  42.597   9.327   8.296
 3779THSLK    S 3699  42.400   9.202   8.029
 3780ETHY    C1 3700  42.032   8.949   8.125
 3781ETHY    C1 3701  41.617   8.670   8.323
 3782ETHY    C1 3702  41.239   8.430   8.611
 3783ETHY    C1 3703  40.905   8.234   8.978
 3784ETHY    C1 3704  40.619   8.088   9.415
 3785THSLK    S 3705  42.822   9.427   8.410
 3786ETHY    C1 3706  42.680   9.180   8.766
 3787ETHY    C1 3707  42.522   8.965   9.233
 3788ETHY    C1 3708  42.379   8.849   9.733
 3789ETHY    C1 3709  42.252   8.831  10.250
 3790ETHY    C1 3710  42.140   8.909  10.775
 3791AUSL   AUS 3711  42.679   9.631   6.922
 3792AUSL   AUS 3712  42.823   9.214   6.992
 3793AUL    AUL 3713  42.597   9.327   6.707
 3794THSLK    S 3714  42.584   9.581   6.677
 3795ETHY    C1 3715  42.367   9.395   6.322
 3796ETHY    C1 3716  42.092   9.260   5.879
 3797ETHY    C1 3717  41.811   9.230   5.429
 3798ETHY    C1 3718  41.533   9.299   4.978
 3799ETHY    C1 3719  41.265   9.467   4.537
 3800THSLK    S 3720  42.651   9.040   6.872
 3801ETHY    C1 3721  42.366   8.719   6.717
 3802ETHY    C1 3722  42.065   8.360   6.453
 3803ETHY    C1 3723  41.820   8.037   6.109
 3804ETHY    C1 3724  41.636   7.754   5.696
 3805ETHY    C1 3725  41.517   7.514   5.223
 3806AUSL   AUS 3726  42.925   9.782   6.828
 3807AUSL   AUS 3727  42.578   9.895   7.085
 3808AUL    AUL 3728  42.597   9.934   6.707
 3809THSLK    S 3729  42.447  10.025   6.893
 3810ETHY    C1 3730  42.241  10.125   6.499
 3811ETHY    C1 3731  41.939  10.289   6.085
 3812ETHY    C1 3732  41.585  10.501   5.748
 3813ETHY    C1 3733  41.192  10.755   5.494
 3814ETHY    C1 3734  40.767  11.048   5.324
 3815THSLK    S 3735  42.846   9.741   6.571
 3816ETHY    C1 3736  42.769   9.629   6.136
 3817ETHY    C1 3737  42.653   9.584   5.612
 3818ETHY    C1 3738  42.517   9.640   5.101
 3819ETHY    C1 3739  42.367   9.794   4.613
 3820ETHY    C1 3740  42.207  10.039   4.156
 3821AUSL   AUS 3741  43.668  10.040   7.502
 3822AUSL   AUS 3742  43.598   9.895   7.085
 3823AUL    AUL 3743  43.882  10.121   7.198
 3824THSLK    S 3744  43.777   9.998   6.930
 3825ETHY    C1 3745  44.144  10.009   6.659
 3826ETHY    C1 3746  44.559  10.111   6.332
 3827ETHY    C1 3747  44.937  10.309   6.014
 3828ETHY    C1 3748  45.271  10.596   5.713
 3829ETHY    C1 3749  45.557  10.966   5.438
 3830THSLK    S 3750  43.936  10.096   7.506
 3831ETHY    C1 3751  44.388  10.157   7.508
 3832ETHY    C1 3752  44.902  10.316   7.507
 3833ETHY    C1 3753  45.370  10.570   7.505
 3834ETHY    C1 3754  45.783  10.907   7.506
 3835ETHY    C1 3755  46.135  11.321   7.509
 3836AUSL   AUS 3756  43.762   9.794   7.350
 3837AUSL   AUS 3757  43.762   9.467   7.653
 3838AUL    AUL 3758  44.070   9.631   7.502
 3839THSLK    S 3759  44.021   9.837   7.348
 3840ETHY    C1 3760  44.466   9.767   7.278
 3841ETHY    C1 3761  44.997   9.774   7.190
 3842ETHY    C1 3762  45.510   9.884   7.101
 3843ETHY    C1 3763  45.995  10.090   7.017
 3844ETHY    C1 3764  46.442  10.387   6.940
 3845THSLK    S 3765  43.994   9.329   7.662
 3846ETHY    C1 3766  44.340   9.040   7.728
 3847ETHY    C1 3767  44.801   8.773   7.809
 3848ETHY    C1 3768  45.298   8.604   7.892
 3849ETHY    C1 3769  45.819   8.532   7.980
 3850ETHY    C1 3770  46.354   8.558   8.071
 3851AUSL   AUS 3771  43.762   9.794   7.653
 3852AUSL   AUS 3772  43.505  10.141   7.766
 3853AUL    AUL 3773  43.882  10.121   7.805
 3854THSLK    S 3774  43.688  10.260   7.926
 3855ETHY    C1 3775  44.060  10.415   8.139
 3856ETHY    C1 3776  44.460  10.680   8.385
 3857ETHY    C1 3777  44.794  11.024   8.615
 3858ETHY    C1 3778  45.056  11.437   8.827
 3859ETHY    C1 3779  45.243  11.909   9.019
 3860THSLK    S 3780  44.020   9.837   7.664
 3861ETHY    C1 3781  44.464   9.767   7.738
 3862ETHY    C1 3782  44.995   9.774   7.825
 3863ETHY    C1 3783  45.509   9.884   7.910
 3864ETHY    C1 3784  45.993  10.090   7.994
 3865ETHY    C1 3785  46.440  10.387   8.078
 3866AUSL   AUS 3786  42.508  10.040   7.502
 3867AUSL   AUS 3787  42.578   9.895   7.918
 3868AUL    AUL 3788  42.294  10.121   7.805
 3869THSLK    S 3789  42.442  10.018   8.109
 3870ETHY    C1 3790  42.233  10.114   8.503
 3871ETHY    C1 3791  41.932  10.280   8.917
 3872ETHY    C1 3792  41.581  10.495   9.254
 3873ETHY    C1 3793  41.187  10.749   9.509
 3874ETHY    C1 3794  40.758  11.036   9.678
 3875THSLK    S 3795  42.292  10.180   7.506
 3876ETHY    C1 3796  42.036  10.558   7.508
 3877ETHY    C1 3797  41.663  10.946   7.507
 3878ETHY    C1 3798  41.227  11.252   7.505
 3879ETHY    C1 3799  40.741  11.470   7.506
 3880ETHY    C1 3800  40.214  11.600   7.509
 3881AUSL   AUS 3801  42.414   9.794   7.350
 3882AUSL   AUS 3802  42.672  10.141   7.237
 3883AUL    AUL 3803  42.294  10.121   7.198
 3884THSLK    S 3804  42.183   9.909   7.303
 3885ETHY    C1 3805  41.836  10.097   7.075
 3886ETHY    C1 3806  41.376  10.289   6.872
 3887ETHY    C1 3807  40.878  10.439   6.758
 3888ETHY    C1 3808  40.357  10.549   6.733
 3889ETHY    C1 3809  39.823  10.619   6.796
 3890THSLK    S 3810  42.556  10.306   7.058
 3891ETHY    C1 3811  42.440  10.622   6.750
 3892ETHY    C1 3812  42.226  11.000   6.432
 3893ETHY    C1 3813  41.934  11.369   6.183
 3894ETHY    C1 3814  41.576  11.722   6.008
 3895ETHY    C1 3815  41.158  12.055   5.909
 3896AUSL   AUS 3816  42.414   9.794   7.653
 3897AUSL   AUS 3817  42.414   9.467   7.350
 3898AUL    AUL 3818  42.106   9.631   7.502
 3899THSLK    S 3819  42.156   9.393   7.390
 3900ETHY    C1 3820  41.712   9.358   7.486
 3901ETHY    C1 3821  41.181   9.277   7.518
 3902ETHY    C1 3822  40.667   9.152   7.458
 3903ETHY    C1 3823  40.183   8.984   7.311
 3904ETHY    C1 3824  39.736   8.777   7.083
 3905THSLK    S 3825  42.181   9.901   7.704
 3906ETHY    C1 3826  41.834  10.085   7.935
 3907ETHY    C1 3827  41.374  10.278   8.137
 3908ETHY    C1 3828  40.877  10.433   8.249
 3909ETHY    C1 3829  40.356  10.543   8.274
 3910ETHY    C1 3830  39.820  10.606   8.213
 3911AUSL   AUS 3831  43.668   9.221   7.502
 3912AUSL   AUS 3832  43.598   9.366   7.918
 3913AUL    AUL 3833  43.882   9.140   7.805
 3914THSLK    S 3834  43.884   9.081   7.506
 3915ETHY    C1 3835  44.140   8.703   7.508
 3916ETHY    C1 3836  44.513   8.315   7.507
 3917ETHY    C1 3837  44.949   8.009   7.505
 3918ETHY    C1 3838  45.435   7.791   7.506
 3919ETHY    C1 3839  45.962   7.661   7.509
 3920THSLK    S 3840  43.730   9.176   8.066
 3921ETHY    C1 3841  43.935   8.833   8.285
 3922ETHY    C1 3842  44.237   8.491   8.570
 3923ETHY    C1 3843  44.591   8.238   8.877
 3924ETHY    C1 3844  44.985   8.075   9.198
 3925ETHY    C1 3845  45.409   8.005   9.529
 3926AUSL   AUS 3846  43.762   9.467   7.350
 3927AUSL   AUS 3847  43.505   9.120   7.237
 3928AUL    AUL 3848  43.882   9.140   7.198
 3929THSLK    S 3849  43.995   9.329   7.350
 3930ETHY    C1 3850  44.343   9.040   7.289
 3931ETHY    C1 3851  44.802   8.773   7.206
 3932ETHY    C1 3852  45.299   8.604   7.118
 3933ETHY    C1 3853  45.821   8.532   7.031
 3934ETHY    C1 3854  46.356   8.558   6.947
 3935THSLK    S 3855  43.624   8.930   7.104
 3936ETHY    C1 3856  43.741   8.513   6.963
 3937ETHY    C1 3857  43.955   8.059   6.765
 3938ETHY    C1 3858  44.245   7.673   6.543
 3939ETHY    C1 3859  44.604   7.358   6.306
 3940ETHY    C1 3860  45.024   7.119   6.058
 3941AUSL   AUS 3861  42.508   9.221   7.502
 3942AUSL   AUS 3862  42.578   9.366   7.085
 3943AUL    AUL 3863  42.294   9.140   7.198
 3944THSLK    S 3864  42.405   9.195   6.973
 3945ETHY    C1 3865  42.040   8.938   6.877
 3946ETHY    C1 3866  41.624   8.661   6.679
 3947ETHY    C1 3867  41.244   8.424   6.392
 3948ETHY    C1 3868  40.910   8.228   6.025
 3949ETHY    C1 3869  40.628   8.076   5.587
 3950THSLK    S 3870  42.240   9.165   7.506
 3951ETHY    C1 3871  41.788   9.104   7.508
 3952ETHY    C1 3872  41.274   8.945   7.507
 3953ETHY    C1 3873  40.806   8.691   7.505
 3954ETHY    C1 3874  40.393   8.354   7.506
 3955ETHY    C1 3875  40.041   7.940   7.509
 3956AUSL   AUS 3876  42.414   9.467   7.653
 3957AUSL   AUS 3877  42.672   9.120   7.766
 3958AUL    AUL 3878  42.294   9.140   7.805
 3959THSLK    S 3879  42.484   8.976   7.880
 3960ETHY    C1 3880  42.110   8.719   7.926
 3961ETHY    C1 3881  41.712   8.379   8.052
 3962ETHY    C1 3882  41.379   8.017   8.255
 3963ETHY    C1 3883  41.117   7.643   8.529
 3964ETHY    C1 3884  40.926   7.265   8.870
 3965THSLK    S 3885  42.155   9.400   7.617
 3966ETHY    C1 3886  41.710   9.370   7.524
 3967ETHY    C1 3887  41.179   9.288   7.490
 3968ETHY    C1 3888  40.666   9.159   7.549
 3969ETHY    C1 3889  40.182   8.991   7.696
 3970ETHY    C1 3890  39.734   8.789   7.928
 3971AUSL   AUS 3891  43.088  10.211   7.911
 3972AUSL   AUS 3892  42.672  10.141   7.766
 3973AUL    AUL 3893  42.785  10.425   7.992
 3974THSLK    S 3894  42.552  10.300   7.950
 3975ETHY    C1 3895  42.435  10.612   8.261
 3976ETHY    C1 3896  42.221  10.992   8.578
 3977ETHY    C1 3897  41.931  11.363   8.824
 3978ETHY    C1 3898  41.573  11.717   9.000
 3979ETHY    C1 3899  41.152  12.045   9.102
 3980THSLK    S 3900  43.128  10.437   8.035
 3981ETHY    C1 3901  43.285  10.739   8.339
 3982ETHY    C1 3902  43.400  11.145   8.672
 3983ETHY    C1 3903  43.427  11.589   8.964
 3984ETHY    C1 3904  43.367  12.058   9.211
 3985ETHY    C1 3905  43.223  12.542   9.410
 3986AUSL   AUS 3906  42.936  10.304   7.665
 3987AUSL   AUS 3907  43.240  10.304   7.338
 3988AUL    AUL 3908  43.088  10.612   7.502
 3989THSLK    S 3909  42.977  10.552   7.774
 3990ETHY    C1 3910  43.086  10.962   7.942
 3991ETHY    C1 3911  43.130  11.469   8.118
 3992ETHY    C1 3912  43.073  11.977   8.265
 3993ETHY    C1 3913  42.920  12.474   8.383
 3994ETHY    C1 3914  42.677  12.951   8.472
 3995THSLK    S 3915  43.293  10.539   7.241
 3996ETHY    C1 3916  43.538  10.895   7.094
 3997ETHY    C1 3917  43.751  11.360   6.927
 3998ETHY    C1 3918  43.866  11.858   6.779
 3999ETHY    C1 3919  43.886  12.377   6.655
 4000ETHY    C1 3920  43.811  12.906   6.558
 4001AUSL   AUS 3921  43.240  10.304   7.665
 4002AUSL   AUS 3922  43.353  10.047   8.012
 4003AUL    AUL 3923  43.391  10.425   7.992
 4004THSLK    S 3924  43.525  10.160   8.184
 4005ETHY    C1 3925  43.810  10.263   8.524
 4006ETHY    C1 3926  44.112  10.467   8.921
 4007ETHY    C1 3927  44.357  10.757   9.294
 4008ETHY    C1 3928  44.541  11.120   9.638
 4009ETHY    C1 3929  44.660  11.550   9.948
 4010THSLK    S 3930  43.291  10.538   7.771
 4011ETHY    C1 3931  43.535  10.892   7.922
 4012ETHY    C1 3932  43.748  11.358   8.087
 4013ETHY    C1 3933  43.864  11.857   8.231
 4014ETHY    C1 3934  43.883  12.375   8.356
 4015ETHY    C1 3935  43.808  12.903   8.458
 4016AUSL   AUS 3936  43.088   9.051   7.911
 4017AUSL   AUS 3937  43.505   9.120   7.766
 4018AUL    AUL 3938  43.391   8.836   7.992
 4019THSLK    S 3939  43.044   8.796   7.990
 4020ETHY    C1 3940  42.884   8.392   8.128
 4021ETHY    C1 3941  42.770   7.911   8.341
 4022ETHY    C1 3942  42.745   7.450   8.605
 4023ETHY    C1 3943  42.804   7.020   8.915
 4024ETHY    C1 3944  42.945   6.628   9.263
 4025THSLK    S 3945  43.620   8.931   7.908
 4026ETHY    C1 3946  43.736   8.515   8.052
 4027ETHY    C1 3947  43.950   8.062   8.248
 4028ETHY    C1 3948  44.242   7.674   8.467
 4029ETHY    C1 3949  44.601   7.359   8.705
 4030ETHY    C1 3950  45.018   7.122   8.958
 4031AUSL   AUS 3951  42.936   8.957   7.665
 4032AUSL   AUS 3952  42.823   9.214   8.012
 4033AUL    AUL 3953  42.785   8.836   7.992
 4034THSLK    S 3954  42.883   8.717   7.745
 4035ETHY    C1 3955  42.638   8.336   7.801
 4036ETHY    C1 3956  42.425   7.851   7.897
 4037ETHY    C1 3957  42.310   7.348   8.025
 4038ETHY    C1 3958  42.291   6.839   8.186
 4039ETHY    C1 3959  42.365   6.336   8.374
 4040THSLK    S 3960  42.645   9.046   8.133
 4041ETHY    C1 3961  42.357   8.728   8.289
 4042ETHY    C1 3962  42.057   8.368   8.552
 4043ETHY    C1 3963  41.814   8.042   8.896
 4044ETHY    C1 3964  41.630   7.759   9.309
 4045ETHY    C1 3965  41.506   7.525   9.783
 4046AUSL   AUS 3966  43.240   8.957   7.665
 4047AUSL   AUS 3967  42.936   8.957   7.338
 4048AUL    AUL 3968  43.088   8.649   7.502
 4049THSLK    S 3969  42.885   8.714   7.266
 4050ETHY    C1 3970  42.641   8.332   7.215
 4051ETHY    C1 3971  42.428   7.848   7.117
 4052ETHY    C1 3972  42.312   7.346   6.984
 4053ETHY    C1 3973  42.293   6.837   6.825
 4054ETHY    C1 3974  42.369   6.332   6.642
 4055THSLK    S 3975  43.197   8.701   7.749
 4056ETHY    C1 3976  43.087   8.265   7.821
 4057ETHY    C1 3977  43.044   7.739   7.928
 4058ETHY    C1 3978  43.101   7.227   8.059
 4059ETHY    C1 3979  43.254   6.739   8.213
 4060ETHY    C1 3980  43.496   6.286   8.388
 4061AUSL   AUS 3981  43.088  10.211   7.093
 4062AUSL   AUS 3982  43.505  10.141   7.237
 4063AUL    AUL 3983  43.391  10.425   7.011
 4064THSLK    S 3984  43.132  10.441   6.975
 4065ETHY    C1 3985  43.292  10.745   6.674
 4066ETHY    C1 3986  43.406  11.150   6.339
 4067ETHY    C1 3987  43.431  11.593   6.045
 4068ETHY    C1 3988  43.372  12.062   5.798
 4069ETHY    C1 3989  43.231  12.549   5.604
 4070THSLK    S 3990  43.692  10.262   7.085
 4071ETHY    C1 3991  44.066  10.418   6.876
 4072ETHY    C1 3992  44.464  10.682   6.629
 4073ETHY    C1 3993  44.797  11.026   6.395
 4074ETHY    C1 3994  45.059  11.438   6.184
 4075ETHY    C1 3995  45.250  11.912   5.998
 4076AUSL   AUS 3996  42.936  10.304   7.338
 4077AUSL   AUS 3997  42.823  10.047   6.992
 4078AUL    AUL 3998  42.785  10.425   7.011
 4079THSLK    S 3999  42.979  10.555   7.237
 4080ETHY    C1 4000  43.089  10.966   7.074
 4081ETHY    C1 4001  43.132  11.472   6.896
 4082ETHY    C1 4002  43.075  11.980   6.745
 4083ETHY    C1 4003  42.922  12.477   6.627
 4084ETHY    C1 4004  42.680  12.956   6.545
 4085THSLK    S 4005  42.709  10.182   6.802
 4086ETHY    C1 4006  42.643  10.354   6.385
 4087ETHY    C1 4007  42.500  10.606   5.932
 4088ETHY    C1 4008  42.291  10.905   5.544
 4089ETHY    C1 4009  42.025  11.243   5.230
 4090ETHY    C1 4010  41.709  11.616   4.993
 4091AUSL   AUS 4011  43.088   9.051   7.093
 4092AUSL   AUS 4012  42.672   9.120   7.237
 4093AUL    AUL 4013  42.785   8.836   7.011
 4094THSLK    S 4014  42.488   8.970   7.128
 4095ETHY    C1 4015  42.116   8.709   7.085
 4096ETHY    C1 4016  41.717   8.371   6.958
 4097ETHY    C1 4017  41.382   8.012   6.753
 4098ETHY    C1 4018  41.120   7.638   6.478
 4099ETHY    C1 4019  40.933   7.255   6.142
 4100THSLK    S 4020  43.048   8.792   7.019
 4101ETHY    C1 4021  42.891   8.386   6.885
 4102ETHY    C1 4022  42.776   7.906   6.671
 4103ETHY    C1 4023  42.749   7.447   6.404
 4104ETHY    C1 4024  42.809   7.016   6.094
 4105ETHY    C1 4025  42.953   6.621   5.751
 4106AUSL   AUS 4026  43.240   8.957   7.338
 4107AUSL   AUS 4027  43.353   9.214   6.992
 4108AUL    AUL 4028  43.391   8.836   7.011
 4109THSLK    S 4029  43.199   8.700   7.262
 4110ETHY    C1 4030  43.090   8.262   7.195
 4111ETHY    C1 4031  43.047   7.736   7.086
 4112ETHY    C1 4032  43.103   7.225   6.951
 4113ETHY    C1 4033  43.256   6.737   6.798
 4114ETHY    C1 4034  43.500   6.283   6.629
 4115THSLK    S 4035  43.473   9.024   6.853
 4116ETHY    C1 4036  43.542   8.638   6.621
 4117ETHY    C1 4037  43.684   8.230   6.300
 4118ETHY    C1 4038  43.891   7.894   5.942
 4119ETHY    C1 4039  44.157   7.637   5.559
 4120ETHY    C1 4040  44.477   7.459   5.158
 4121AUC    AUC 4041  15.247  21.577   7.502
 4122AUC    AUC 4042  15.493  21.577   7.350
 4123AUC    AUC 4043  15.493  21.577   7.653
 4124AUC    AUC 4044  15.002  21.577   7.350
 4125AUC    AUC 4045  15.002  21.577   7.653
 4126AUC    AUC 4046  15.095  21.822   7.502
 4127AUC    AUC 4047  15.399  21.822   7.502
 4128AUC    AUC 4048  15.095  21.331   7.502
 4129AUC    AUC 4049  15.399  21.331   7.502
 4130AUC    AUC 4050  15.247  21.425   7.747
 4131AUC    AUC 4051  15.247  21.728   7.747
 4132AUC    AUC 4052  15.247  21.425   7.256
 4133AUC    AUC 4053  15.247  21.728   7.256
 4134AUC    AUC 4054  15.738  21.577   7.198
 4135AUC    AUC 4055  15.738  21.577   7.502
 4136AUC    AUC 4056  15.738  21.577   7.805
 4137AUC    AUC 4057  14.756  21.577   7.198
 4138AUC    AUC 4058  14.756  21.577   7.502
 4139AUC    AUC 4059  14.756  21.577   7.805
 4140AUC    AUC 4060  14.944  22.067   7.502
 4141AUC    AUC 4061  15.247  22.067   7.502
 4142AUC    AUC 4062  15.550  22.067   7.502
 4143AUC    AUC 4063  14.944  21.086   7.502
 4144AUC    AUC 4064  15.247  21.086   7.502
 4145AUC    AUC 4065  15.550  21.086   7.502
 4146AUC    AUC 4066  15.247  21.273   7.992
 4147AUC    AUC 4067  15.247  21.577   7.992
 4148AUC    AUC 4068  15.247  21.880   7.992
 4149AUC    AUC 4069  15.247  21.273   7.011
 4150AUC    AUC 4070  15.247  21.577   7.011
 4151AUC    AUC 4071  15.247  21.880   7.011
 4152AUC    AUC 4072  15.493  21.425   7.899
 4153AUC    AUC 4073  15.493  21.728   7.899
 4154AUC    AUC 4074  15.493  21.425   7.105
 4155AUC    AUC 4075  15.493  21.728   7.105
 4156AUC    AUC 4076  15.002  21.425   7.899
 4157AUC    AUC 4077  15.002  21.728   7.899
 4158AUC    AUC 4078  15.002  21.425   7.105
 4159AUC    AUC 4079  15.002  21.728   7.105
 4160AUC    AUC 4080  15.644  21.822   7.350
 4161AUC    AUC 4081  15.644  21.822   7.653
 4162AUC    AUC 4082  14.850  21.822   7.350
 4163AUC    AUC 4083  14.850  21.822   7.653
 4164AUC    AUC 4084  15.644  21.331   7.350
 4165AUC    AUC 4085  15.644  21.331   7.653
 4166AUC    AUC 4086  14.850  21.331   7.350
 4167AUC    AUC 4087  14.850  21.331   7.653
 4168AUC    AUC 4088  15.095  21.974   7.747
 4169AUC    AUC 4089  15.399  21.974   7.747
 4170AUC    AUC 4090  15.095  21.179   7.747
 4171AUC    AUC 4091  15.399  21.179   7.747
 4172AUC    AUC 4092  15.095  21.974   7.256
 4173AUC    AUC 4093  15.399  21.974   7.256
 4174AUC    AUC 4094  15.095  21.179   7.256
 4175AUC    AUC 4095  15.399  21.179   7.256
 4176AUSL   AUS 4096  15.656  21.577   8.082
 4177AUSL   AUS 4097  15.512  21.160   8.012
 4178AUL    AUL 4098  15.738  21.273   8.296
 4179THSLK    S 4099  15.626  20.972   8.156
 4180ETHY    C1 4100  15.692  20.587   8.391
 4181ETHY    C1 4101  15.835  20.179   8.710
 4182ETHY    C1 4102  16.044  19.843   9.066
 4183ETHY    C1 4103  16.310  19.585   9.450
 4184ETHY    C1 4104  16.626  19.409   9.855
 4185THSLK    S 4105  15.752  21.527   8.326
 4186ETHY    C1 4106  15.968  21.341   8.681
 4187ETHY    C1 4107  16.243  21.206   9.124
 4188ETHY    C1 4108  16.524  21.176   9.575
 4189ETHY    C1 4109  16.802  21.245  10.025
 4190ETHY    C1 4110  17.071  21.413  10.466
 4191AUSL   AUS 4111  15.411  21.425   8.175
 4192AUSL   AUS 4112  15.084  21.728   8.175
 4193AUL    AUL 4113  15.247  21.577   8.483
 4194THSLK    S 4114  15.489  21.372   8.417
 4195ETHY    C1 4115  15.566  21.122   8.790
 4196ETHY    C1 4116  15.682  20.905   9.269
 4197ETHY    C1 4117  15.819  20.789   9.769
 4198ETHY    C1 4118  15.969  20.771  10.281
 4199ETHY    C1 4119  16.128  20.852  10.794
 4200THSLK    S 4120  14.997  21.685   8.431
 4201ETHY    C1 4121  14.915  21.573   8.864
 4202ETHY    C1 4122  14.801  21.527   9.388
 4203ETHY    C1 4123  14.669  21.585   9.901
 4204ETHY    C1 4124  14.518  21.738  10.389
 4205ETHY    C1 4125  14.352  21.982  10.844
 4206AUSL   AUS 4126  15.411  21.728   8.175
 4207AUSL   AUS 4127  15.757  21.841   7.918
 4208AUL    AUL 4128  15.738  21.880   8.296
 4209THSLK    S 4129  15.498  21.782   8.414
 4210ETHY    C1 4130  15.579  22.033   8.786
 4211ETHY    C1 4131  15.693  22.249   9.265
 4212ETHY    C1 4132  15.826  22.365   9.767
 4213ETHY    C1 4133  15.976  22.383  10.279
 4214ETHY    C1 4134  16.142  22.303  10.789
 4215THSLK    S 4135  15.931  21.943   8.080
 4216ETHY    C1 4136  16.295  21.953   8.354
 4217ETHY    C1 4137  16.711  22.055   8.680
 4218ETHY    C1 4138  17.091  22.254   8.995
 4219ETHY    C1 4139  17.426  22.541   9.296
 4220ETHY    C1 4140  17.707  22.909   9.577
 4221AUSL   AUS 4141  15.656  21.577   6.922
 4222AUSL   AUS 4142  15.512  21.993   6.992
 4223AUL    AUL 4143  15.738  21.880   6.707
 4224THSLK    S 4144  15.759  21.527   6.681
 4225ETHY    C1 4145  15.980  21.341   6.329
 4226ETHY    C1 4146  16.253  21.206   5.885
 4227ETHY    C1 4147  16.531  21.176   5.432
 4228ETHY    C1 4148  16.809  21.245   4.982
 4229ETHY    C1 4149  17.083  21.413   4.545
 4230THSLK    S 4150  15.690  22.108   6.825
 4231ETHY    C1 4151  15.978  22.213   6.488
 4232ETHY    C1 4152  16.278  22.417   6.090
 4233ETHY    C1 4153  16.521  22.705   5.714
 4234ETHY    C1 4154  16.705  23.069   5.371
 4235ETHY    C1 4155  16.829  23.500   5.065
 4236AUSL   AUS 4156  15.411  21.425   6.828
 4237AUSL   AUS 4157  15.757  21.312   7.085
 4238AUL    AUL 4158  15.738  21.273   6.707
 4239THSLK    S 4159  15.894  21.120   6.944
 4240ETHY    C1 4160  16.102  20.777   6.729
 4241ETHY    C1 4161  16.403  20.435   6.442
 4242ETHY    C1 4162  16.754  20.182   6.133
 4243ETHY    C1 4163  17.148  20.020   5.812
 4244ETHY    C1 4164  17.577  19.949   5.486
 4245THSLK    S 4165  15.498  21.371   6.590
 4246ETHY    C1 4166  15.579  21.120   6.217
 4247ETHY    C1 4167  15.693  20.904   5.738
 4248ETHY    C1 4168  15.826  20.788   5.236
 4249ETHY    C1 4169  15.976  20.770   4.725
 4250ETHY    C1 4170  16.142  20.850   4.214
 4251AUSL   AUS 4171  15.411  21.728   6.828
 4252AUSL   AUS 4172  15.084  21.425   6.828
 4253AUL    AUL 4173  15.247  21.577   6.520
 4254THSLK    S 4174  14.989  21.371   6.592
 4255ETHY    C1 4175  14.852  21.123   6.235
 4256ETHY    C1 4176  14.692  20.909   5.767
 4257ETHY    C1 4177  14.545  20.794   5.269
 4258ETHY    C1 4178  14.418  20.775   4.751
 4259ETHY    C1 4179  14.313  20.851   4.224
 4260THSLK    S 4180  15.514  21.686   6.578
 4261ETHY    C1 4181  15.655  21.571   6.160
 4262ETHY    C1 4182  15.813  21.524   5.647
 4263ETHY    C1 4183  15.956  21.580   5.138
 4264ETHY    C1 4184  16.084  21.734   4.643
 4265ETHY    C1 4185  16.195  21.982   4.174
 4266AUSL   AUS 4186  14.838  21.577   8.082
 4267AUSL   AUS 4187  14.982  21.993   8.012
 4268AUL    AUL 4188  14.756  21.880   8.296
 4269THSLK    S 4189  14.735  21.527   8.322
 4270ETHY    C1 4190  14.514  21.341   8.674
 4271ETHY    C1 4191  14.241  21.206   9.118
 4272ETHY    C1 4192  13.964  21.176   9.571
 4273ETHY    C1 4193  13.686  21.245  10.021
 4274ETHY    C1 4194  13.411  21.413  10.458
 4275THSLK    S 4195  14.862  22.122   8.202
 4276ETHY    C1 4196  14.793  22.291   8.620
 4277ETHY    C1 4197  14.651  22.544   9.073
 4278ETHY    C1 4198  14.445  22.845   9.460
 4279ETHY    C1 4199  14.178  23.184   9.775
 4280ETHY    C1 4200  13.858  23.551  10.013
 4281AUSL   AUS 4201  15.084  21.425   8.175
 4282AUSL   AUS 4202  14.737  21.312   7.918
 4283AUL    AUL 4203  14.756  21.273   8.296
 4284THSLK    S 4204  14.559  21.148   8.029
 4285ETHY    C1 4205  14.191  20.895   8.125
 4286ETHY    C1 4206  13.776  20.616   8.323
 4287ETHY    C1 4207  13.398  20.376   8.611
 4288ETHY    C1 4208  13.064  20.180   8.978
 4289ETHY    C1 4209  12.778  20.034   9.415
 4290THSLK    S 4210  14.981  21.373   8.410
 4291ETHY    C1 4211  14.839  21.126   8.766
 4292ETHY    C1 4212  14.681  20.911   9.233
 4293ETHY    C1 4213  14.538  20.795   9.733
 4294ETHY    C1 4214  14.411  20.777  10.250
 4295ETHY    C1 4215  14.299  20.855  10.775
 4296AUSL   AUS 4216  14.838  21.577   6.922
 4297AUSL   AUS 4217  14.982  21.160   6.992
 4298AUL    AUL 4218  14.756  21.273   6.707
 4299THSLK    S 4219  14.743  21.527   6.677
 4300ETHY    C1 4220  14.526  21.341   6.322
 4301ETHY    C1 4221  14.251  21.206   5.879
 4302ETHY    C1 4222  13.970  21.176   5.429
 4303ETHY    C1 4223  13.692  21.245   4.978
 4304ETHY    C1 4224  13.424  21.413   4.537
 4305THSLK    S 4225  14.810  20.986   6.872
 4306ETHY    C1 4226  14.525  20.665   6.717
 4307ETHY    C1 4227  14.224  20.306   6.453
 4308ETHY    C1 4228  13.979  19.983   6.109
 4309ETHY    C1 4229  13.795  19.700   5.696
 4310ETHY    C1 4230  13.676  19.460   5.223
 4311AUSL   AUS 4231  15.084  21.728   6.828
 4312AUSL   AUS 4232  14.737  21.841   7.085
 4313AUL    AUL 4233  14.756  21.880   6.707
 4314THSLK    S 4234  14.606  21.971   6.893
 4315ETHY    C1 4235  14.400  22.071   6.499
 4316ETHY    C1 4236  14.098  22.235   6.085
 4317ETHY    C1 4237  13.744  22.447   5.748
 4318ETHY    C1 4238  13.351  22.701   5.494
 4319ETHY    C1 4239  12.926  22.994   5.324
 4320THSLK    S 4240  15.005  21.687   6.571
 4321ETHY    C1 4241  14.928  21.575   6.136
 4322ETHY    C1 4242  14.812  21.530   5.612
 4323ETHY    C1 4243  14.676  21.586   5.101
 4324ETHY    C1 4244  14.526  21.740   4.613
 4325ETHY    C1 4245  14.366  21.985   4.156
 4326AUSL   AUS 4246  15.827  21.986   7.502
 4327AUSL   AUS 4247  15.757  21.841   7.085
 4328AUL    AUL 4248  16.041  22.067   7.198
 4329THSLK    S 4249  15.936  21.944   6.930
 4330ETHY    C1 4250  16.303  21.955   6.659
 4331ETHY    C1 4251  16.718  22.057   6.332
 4332ETHY    C1 4252  17.096  22.255   6.014
 4333ETHY    C1 4253  17.430  22.542   5.713
 4334ETHY    C1 4254  17.716  22.912   5.438
 4335THSLK    S 4255  16.095  22.042   7.506
 4336ETHY    C1 4256  16.547  22.103   7.508
 4337ETHY    C1 4257  17.061  22.262   7.507
 4338ETHY    C1 4258  17.529  22.516   7.505
 4339ETHY    C1 4259  17.942  22.853   7.506
 4340ETHY    C1 4260  18.294  23.267   7.509
 4341AUSL   AUS 4261  15.921  21.740   7.350
 4342AUSL   AUS 4262  15.921  21.413   7.653
 4343AUL    AUL 4263  16.229  21.577   7.502
 4344THSLK    S 4264  16.180  21.783   7.348
 4345ETHY    C1 4265  16.625  21.713   7.278
 4346ETHY    C1 4266  17.156  21.720   7.190
 4347ETHY    C1 4267  17.669  21.830   7.101
 4348ETHY    C1 4268  18.154  22.036   7.017
 4349ETHY    C1 4269  18.601  22.333   6.940
 4350THSLK    S 4270  16.153  21.275   7.662
 4351ETHY    C1 4271  16.499  20.986   7.728
 4352ETHY    C1 4272  16.960  20.719   7.809
 4353ETHY    C1 4273  17.457  20.550   7.892
 4354ETHY    C1 4274  17.978  20.478   7.980
 4355ETHY    C1 4275  18.513  20.504   8.071
 4356AUSL   AUS 4276  15.921  21.740   7.653
 4357AUSL   AUS 4277  15.664  22.087   7.766
 4358AUL    AUL 4278  16.041  22.067   7.805
 4359THSLK    S 4279  15.847  22.206   7.926
 4360ETHY    C1 4280  16.219  22.361   8.139
 4361ETHY    C1 4281  16.619  22.626   8.385
 4362ETHY    C1 4282  16.953  22.970   8.615
 4363ETHY    C1 4283  17.215  23.383   8.827
 4364ETHY    C1 4284  17.402  23.855   9.019
 4365THSLK    S 4285  16.179  21.783   7.664
 4366ETHY    C1 4286  16.623  21.713   7.738
 4367ETHY    C1 4287  17.154  21.720   7.825
 4368ETHY    C1 4288  17.668  21.830   7.910
 4369ETHY    C1 4289  18.152  22.036   7.994
 4370ETHY    C1 4290  18.599  22.333   8.078
 4371AUSL   AUS 4291  14.667  21.986   7.502
 4372AUSL   AUS 4292  14.737  21.841   7.918
 4373AUL    AUL 4293  14.453  22.067   7.805
 4374THSLK    S 4294  14.601  21.964   8.109
 4375ETHY    C1 4295  14.392  22.060   8.503
 4376ETHY    C1 4296  14.091  22.226   8.917
 4377ETHY    C1 4297  13.740  22.441   9.254
 4378ETHY    C1 4298  13.346  22.695   9.509
 4379ETHY    C1 4299  12.917  22.982   9.678
 4380THSLK    S 4300  14.451  22.126   7.506
 4381ETHY    C1 4301  14.195  22.504   7.508
 4382ETHY    C1 4302  13.822  22.892   7.507
 4383ETHY    C1 4303  13.386  23.198   7.505
 4384ETHY    C1 4304  12.900  23.416   7.506
 4385ETHY    C1 4305  12.373  23.546   7.509
 4386AUSL   AUS 4306  14.573  21.740   7.350
 4387AUSL   AUS 4307  14.831  22.087   7.237
 4388AUL    AUL 4308  14.453  22.067   7.198
 4389THSLK    S 4309  14.342  21.855   7.303
 4390ETHY    C1 4310  13.995  22.043   7.075
 4391ETHY    C1 4311  13.535  22.235   6.872
 4392ETHY    C1 4312  13.037  22.385   6.758
 4393ETHY    C1 4313  12.516  22.495   6.733
 4394ETHY    C1 4314  11.982  22.565   6.796
 4395THSLK    S 4315  14.715  22.252   7.058
 4396ETHY    C1 4316  14.599  22.568   6.750
 4397ETHY    C1 4317  14.385  22.946   6.432
 4398ETHY    C1 4318  14.093  23.315   6.183
 4399ETHY    C1 4319  13.735  23.668   6.008
 4400ETHY    C1 4320  13.317  24.001   5.909
 4401AUSL   AUS 4321  14.573  21.740   7.653
 4402AUSL   AUS 4322  14.573  21.413   7.350
 4403AUL    AUL 4323  14.265  21.577   7.502
 4404THSLK    S 4324  14.315  21.339   7.390
 4405ETHY    C1 4325  13.871  21.304   7.486
 4406ETHY    C1 4326  13.340  21.223   7.518
 4407ETHY    C1 4327  12.826  21.098   7.458
 4408ETHY    C1 4328  12.342  20.930   7.311
 4409ETHY    C1 4329  11.895  20.723   7.083
 4410THSLK    S 4330  14.340  21.847   7.704
 4411ETHY    C1 4331  13.993  22.031   7.935
 4412ETHY    C1 4332  13.533  22.224   8.137
 4413ETHY    C1 4333  13.036  22.379   8.249
 4414ETHY    C1 4334  12.515  22.489   8.274
 4415ETHY    C1 4335  11.979  22.552   8.213
 4416AUSL   AUS 4336  15.827  21.167   7.502
 4417AUSL   AUS 4337  15.757  21.312   7.918
 4418AUL    AUL 4338  16.041  21.086   7.805
 4419THSLK    S 4339  16.043  21.027   7.506
 4420ETHY    C1 4340  16.299  20.649   7.508
 4421ETHY    C1 4341  16.672  20.261   7.507
 4422ETHY    C1 4342  17.108  19.955   7.505
 4423ETHY    C1 4343  17.594  19.737   7.506
 4424ETHY    C1 4344  18.121  19.607   7.509
 4425THSLK    S 4345  15.889  21.122   8.066
 4426ETHY    C1 4346  16.094  20.779   8.285
 4427ETHY    C1 4347  16.396  20.437   8.570
 4428ETHY    C1 4348  16.750  20.184   8.877
 4429ETHY    C1 4349  17.144  20.021   9.198
 4430ETHY    C1 4350  17.568  19.951   9.529
 4431AUSL   AUS 4351  15.921  21.413   7.350
 4432AUSL   AUS 4352  15.664  21.066   7.237
 4433AUL    AUL 4353  16.041  21.086   7.198
 4434THSLK    S 4354  16.154  21.275   7.350
 4435ETHY    C1 4355  16.502  20.986   7.289
 4436ETHY    C1 4356  16.961  20.719   7.206
 4437ETHY    C1 4357  17.458  20.550   7.118
 4438ETHY    C1 4358  17.980  20.478   7.031
 4439ETHY    C1 4359  18.515  20.504   6.947
 4440THSLK    S 4360  15.783  20.876   7.104
 4441ETHY    C1 4361  15.900  20.459   6.963
 4442ETHY    C1 4362  16.114  20.005   6.765
 4443ETHY    C1 4363  16.404  19.619   6.543
 4444ETHY    C1 4364  16.763  19.304   6.306
 4445ETHY    C1 4365  17.183  19.065   6.058
 4446AUSL   AUS 4366  14.667  21.167   7.502
 4447AUSL   AUS 4367  14.737  21.312   7.085
 4448AUL    AUL 4368  14.453  21.086   7.198
 4449THSLK    S 4369  14.564  21.141   6.973
 4450ETHY    C1 4370  14.199  20.884   6.877
 4451ETHY    C1 4371  13.783  20.607   6.679
 4452ETHY    C1 4372  13.403  20.370   6.392
 4453ETHY    C1 4373  13.069  20.174   6.025
 4454ETHY    C1 4374  12.787  20.022   5.587
 4455THSLK    S 4375  14.399  21.111   7.506
 4456ETHY    C1 4376  13.947  21.050   7.508
 4457ETHY    C1 4377  13.433  20.891   7.507
 4458ETHY    C1 4378  12.965  20.637   7.505
 4459ETHY    C1 4379  12.552  20.300   7.506
 4460ETHY    C1 4380  12.200  19.886   7.509
 4461AUSL   AUS 4381  14.573  21.413   7.653
 4462AUSL   AUS 4382  14.831  21.066   7.766
 4463AUL    AUL 4383  14.453  21.086   7.805
 4464THSLK    S 4384  14.643  20.922   7.880
 4465ETHY    C1 4385  14.269  20.665   7.926
 4466ETHY    C1 4386  13.871  20.325   8.052
 4467ETHY    C1 4387  13.538  19.963   8.255
 4468ETHY    C1 4388  13.276  19.589   8.529
 4469ETHY    C1 4389  13.085  19.211   8.870
 4470THSLK    S 4390  14.314  21.346   7.617
 4471ETHY    C1 4391  13.869  21.316   7.524
 4472ETHY    C1 4392  13.338  21.234   7.490
 4473ETHY    C1 4393  12.825  21.105   7.549
 4474ETHY    C1 4394  12.341  20.937   7.696
 4475ETHY    C1 4395  11.893  20.735   7.928
 4476AUSL   AUS 4396  15.247  22.157   7.911
 4477AUSL   AUS 4397  14.831  22.087   7.766
 4478AUL    AUL 4398  14.944  22.371   7.992
 4479THSLK    S 4399  14.711  22.246   7.950
 4480ETHY    C1 4400  14.594  22.558   8.261
 4481ETHY    C1 4401  14.380  22.938   8.578
 4482ETHY    C1 4402  14.090  23.309   8.824
 4483ETHY    C1 4403  13.732  23.663   9.000
 4484ETHY    C1 4404  13.311  23.991   9.102
 4485THSLK    S 4405  15.287  22.383   8.035
 4486ETHY    C1 4406  15.444  22.685   8.339
 4487ETHY    C1 4407  15.559  23.091   8.672
 4488ETHY    C1 4408  15.586  23.535   8.964
 4489ETHY    C1 4409  15.526  24.004   9.211
 4490ETHY    C1 4410  15.382  24.488   9.410
 4491AUSL   AUS 4411  15.095  22.250   7.665
 4492AUSL   AUS 4412  15.399  22.250   7.338
 4493AUL    AUL 4413  15.247  22.558   7.502
 4494THSLK    S 4414  15.136  22.498   7.774
 4495ETHY    C1 4415  15.245  22.908   7.942
 4496ETHY    C1 4416  15.289  23.415   8.118
 4497ETHY    C1 4417  15.232  23.923   8.265
 4498ETHY    C1 4418  15.079  24.420   8.383
 4499ETHY    C1 4419  14.836  24.897   8.472
 4500THSLK    S 4420  15.452  22.485   7.241
 4501ETHY    C1 4421  15.697  22.841   7.094
 4502ETHY    C1 4422  15.910  23.306   6.927
 4503ETHY    C1 4423  16.025  23.804   6.779
 4504ETHY    C1 4424  16.045  24.323   6.655
 4505ETHY    C1 4425  15.970  24.852   6.558
 4506AUSL   AUS 4426  15.399  22.250   7.665
 4507AUSL   AUS 4427  15.512  21.993   8.012
 4508AUL    AUL 4428  15.550  22.371   7.992
 4509THSLK    S 4429  15.684  22.106   8.184
 4510ETHY    C1 4430  15.969  22.209   8.524
 4511ETHY    C1 4431  16.271  22.413   8.921
 4512ETHY    C1 4432  16.516  22.703   9.294
 4513ETHY    C1 4433  16.700  23.066   9.638
 4514ETHY    C1 4434  16.819  23.496   9.948
 4515THSLK    S 4435  15.450  22.484   7.771
 4516ETHY    C1 4436  15.694  22.838   7.922
 4517ETHY    C1 4437  15.907  23.304   8.087
 4518ETHY    C1 4438  16.023  23.803   8.231
 4519ETHY    C1 4439  16.042  24.321   8.356
 4520ETHY    C1 4440  15.967  24.849   8.458
 4521AUSL   AUS 4441  15.247  20.997   7.911
 4522AUSL   AUS 4442  15.664  21.066   7.766
 4523AUL    AUL 4443  15.550  20.782   7.992
 4524THSLK    S 4444  15.203  20.742   7.990
 4525ETHY    C1 4445  15.043  20.338   8.128
 4526ETHY    C1 4446  14.929  19.857   8.341
 4527ETHY    C1 4447  14.904  19.396   8.605
 4528ETHY    C1 4448  14.963  18.966   8.915
 4529ETHY    C1 4449  15.104  18.574   9.263
 4530THSLK    S 4450  15.779  20.877   7.908
 4531ETHY    C1 4451  15.895  20.461   8.052
 4532ETHY    C1 4452  16.109  20.008   8.248
 4533ETHY    C1 4453  16.401  19.620   8.467
 4534ETHY    C1 4454  16.760  19.305   8.705
 4535ETHY    C1 4455  17.177  19.068   8.958
 4536AUSL   AUS 4456  15.095  20.903   7.665
 4537AUSL   AUS 4457  14.982  21.160   8.012
 4538AUL    AUL 4458  14.944  20.782   7.992
 4539THSLK    S 4459  15.042  20.663   7.745
 4540ETHY    C1 4460  14.797  20.282   7.801
 4541ETHY    C1 4461  14.584  19.797   7.897
 4542ETHY    C1 4462  14.469  19.294   8.025
 4543ETHY    C1 4463  14.450  18.785   8.186
 4544ETHY    C1 4464  14.524  18.282   8.374
 4545THSLK    S 4465  14.804  20.992   8.133
 4546ETHY    C1 4466  14.516  20.674   8.289
 4547ETHY    C1 4467  14.216  20.314   8.552
 4548ETHY    C1 4468  13.973  19.988   8.896
 4549ETHY    C1 4469  13.789  19.705   9.309
 4550ETHY    C1 4470  13.665  19.471   9.783
 4551AUSL   AUS 4471  15.399  20.903   7.665
 4552AUSL   AUS 4472  15.095  20.903   7.338
 4553AUL    AUL 4473  15.247  20.595   7.502
 4554THSLK    S 4474  15.044  20.660   7.266
 4555ETHY    C1 4475  14.800  20.278   7.215
 4556ETHY    C1 4476  14.587  19.794   7.117
 4557ETHY    C1 4477  14.471  19.292   6.984
 4558ETHY    C1 4478  14.452  18.783   6.825
 4559ETHY    C1 4479  14.528  18.278   6.642
 4560THSLK    S 4480  15.356  20.647   7.749
 4561ETHY    C1 4481  15.246  20.211   7.821
 4562ETHY    C1 4482  15.203  19.685   7.928
 4563ETHY    C1 4483  15.260  19.173   8.059
 4564ETHY    C1 4484  15.413  18.685   8.213
 4565ETHY    C1 4485  15.655  18.232   8.388
 4566AUSL   AUS 4486  15.247  22.157   7.093
 4567AUSL   AUS 4487  15.664  22.087   7.237
 4568AUL    AUL 4488  15.550  22.371   7.011
 4569THSLK    S 4489  15.291  22.387   6.975
 4570ETHY    C1 4490  15.451  22.691   6.674
 4571ETHY    C1 4491  15.565  23.096   6.339
 4572ETHY    C1 4492  15.590  23.539   6.045
 4573ETHY    C1 4493  15.531  24.008   5.798
 4574ETHY    C1 4494  15.390  24.495   5.604
 4575THSLK    S 4495  15.851  22.208   7.085
 4576ETHY    C1 4496  16.225  22.364   6.876
 4577ETHY    C1 4497  16.623  22.628   6.629
 4578ETHY    C1 4498  16.956  22.972   6.395
 4579ETHY    C1 4499  17.218  23.384   6.184
 4580ETHY    C1 4500  17.409  23.858   5.998
 4581AUSL   AUS 4501  15.095  22.250   7.338
 4582AUSL   AUS 4502  14.982  21.993   6.992
 4583AUL    AUL 4503  14.944  22.371   7.011
 4584THSLK    S 4504  15.138  22.501   7.237
 4585ETHY    C1 4505  15.248  22.912   7.074
 4586ETHY    C1 4506  15.291  23.418   6.896
 4587ETHY    C1 4507  15.234  23.926   6.745
 4588ETHY    C1 4508  15.081  24.423   6.627
 4589ETHY    C1 4509  14.839  24.902   6.545
 4590THSLK    S 4510  14.868  22.128   6.802
 4591ETHY    C1 4511  14.802  22.300   6.385
 4592ETHY    C1 4512  14.659  22.552   5.932
 4593ETHY    C1 4513  14.450  22.851   5.544
 4594ETHY    C1 4514  14.184  23.189   5.230
 4595ETHY    C1 4515  13.868  23.562   4.993
 4596AUSL   AUS 4516  15.247  20.997   7.093
 4597AUSL   AUS 4517  14.831  21.066   7.237
 4598AUL    AUL 4518  14.944  20.782   7.011
 4599THSLK    S 4519  14.647  20.916   7.128
 4600ETHY    C1 4520  14.275  20.655   7.085
 4601ETHY    C1 4521  13.876  20.317   6.958
 4602ETHY    C1 4522  13.541  19.958   6.753
 4603ETHY    C1 4523  13.279  19.584   6.478
 4604ETHY    C1 4524  13.092  19.201   6.142
 4605THSLK    S 4525  15.207  20.738   7.019
 4606ETHY    C1 4526  15.050  20.332   6.885
 4607ETHY    C1 4527  14.935  19.852   6.671
 4608ETHY    C1 4528  14.908  19.393   6.404
 4609ETHY    C1 4529  14.968  18.962   6.094
 4610ETHY    C1 4530  15.112  18.567   5.751
 4611AUSL   AUS 4531  15.399  20.903   7.338
 4612AUSL   AUS 4532  15.512  21.160   6.992
 4613AUL    AUL 4533  15.550  20.782   7.011
 4614THSLK    S 4534  15.358  20.646   7.262
 4615ETHY    C1 4535  15.249  20.208   7.195
 4616ETHY    C1 4536  15.206  19.682   7.086
 4617ETHY    C1 4537  15.262  19.171   6.951
 4618ETHY    C1 4538  15.415  18.683   6.798
 4619ETHY    C1 4539  15.659  18.229   6.629
 4620THSLK    S 4540  15.632  20.970   6.853
 4621ETHY    C1 4541  15.701  20.584   6.621
 4622ETHY    C1 4542  15.843  20.176   6.300
 4623ETHY    C1 4543  16.050  19.840   5.942
 4624ETHY    C1 4544  16.316  19.583   5.559
 4625ETHY    C1 4545  16.636  19.405   5.158
 4626AUC    AUC 4546  14.979  37.938   7.502
 4627AUC    AUC 4547  15.225  37.938   7.350
 4628AUC    AUC 4548  15.225  37.938   7.653
 4629AUC    AUC 4549  14.734  37.938   7.350
 4630AUC    AUC 4550  14.734  37.938   7.653
 4631AUC    AUC 4551  14.827  38.183   7.502
 4632AUC    AUC 4552  15.131  38.183   7.502
 4633AUC    AUC 4553  14.827  37.692   7.502
 4634AUC    AUC 4554  15.131  37.692   7.502
 4635AUC    AUC 4555  14.979  37.786   7.747
 4636AUC    AUC 4556  14.979  38.089   7.747
 4637AUC    AUC 4557  14.979  37.786   7.256
 4638AUC    AUC 4558  14.979  38.089   7.256
 4639AUC    AUC 4559  15.470  37.938   7.198
 4640AUC    AUC 4560  15.470  37.938   7.502
 4641AUC    AUC 4561  15.470  37.938   7.805
 4642AUC    AUC 4562  14.488  37.938   7.198
 4643AUC    AUC 4563  14.488  37.938   7.502
 4644AUC    AUC 4564  14.488  37.938   7.805
 4645AUC    AUC 4565  14.676  38.428   7.502
 4646AUC    AUC 4566  14.979  38.428   7.502
 4647AUC    AUC 4567  15.282  38.428   7.502
 4648AUC    AUC 4568  14.676  37.447   7.502
 4649AUC    AUC 4569  14.979  37.447   7.502
 4650AUC    AUC 4570  15.282  37.447   7.502
 4651AUC    AUC 4571  14.979  37.634   7.992
 4652AUC    AUC 4572  14.979  37.938   7.992
 4653AUC    AUC 4573  14.979  38.241   7.992
 4654AUC    AUC 4574  14.979  37.634   7.011
 4655AUC    AUC 4575  14.979  37.938   7.011
 4656AUC    AUC 4576  14.979  38.241   7.011
 4657AUC    AUC 4577  15.225  37.786   7.899
 4658AUC    AUC 4578  15.225  38.089   7.899
 4659AUC    AUC 4579  15.225  37.786   7.105
 4660AUC    AUC 4580  15.225  38.089   7.105
 4661AUC    AUC 4581  14.734  37.786   7.899
 4662AUC    AUC 4582  14.734  38.089   7.899
 4663AUC    AUC 4583  14.734  37.786   7.105
 4664AUC    AUC 4584  14.734  38.089   7.105
 4665AUC    AUC 4585  15.376  38.183   7.350
 4666AUC    AUC 4586  15.376  38.183   7.653
 4667AUC    AUC 4587  14.582  38.183   7.350
 4668AUC    AUC 4588  14.582  38.183   7.653
 4669AUC    AUC 4589  15.376  37.692   7.350
 4670AUC    AUC 4590  15.376  37.692   7.653
 4671AUC    AUC 4591  14.582  37.692   7.350
 4672AUC    AUC 4592  14.582  37.692   7.653
 4673AUC    AUC 4593  14.827  38.335   7.747
 4674AUC    AUC 4594  15.131  38.335   7.747
 4675AUC    AUC 4595  14.827  37.540   7.747
 4676AUC    AUC 4596  15.131  37.540   7.747
 4677AUC    AUC 4597  14.827  38.335   7.256
 4678AUC    AUC 4598  15.131  38.335   7.256
 4679AUC    AUC 4599  14.827  37.540   7.256
 4680AUC    AUC 4600  15.131  37.540   7.256
 4681AUSL   AUS 4601  15.388  37.938   8.082
 4682AUSL   AUS 4602  15.244  37.521   8.012
 4683AUL    AUL 4603  15.470  37.634   8.296
 4684THSLK    S 4604  15.358  37.333   8.156
 4685ETHY    C1 4605  15.424  36.948   8.391
 4686ETHY    C1 4606  15.567  36.540   8.710
 4687ETHY    C1 4607  15.776  36.204   9.066
 4688ETHY    C1 4608  16.042  35.946   9.450
 4689ETHY    C1 4609  16.358  35.770   9.855
 4690THSLK    S 4610  15.484  37.888   8.326
 4691ETHY    C1 4611  15.700  37.702   8.681
 4692ETHY    C1 4612  15.975  37.567   9.124
 4693ETHY    C1 4613  16.256  37.537   9.575
 4694ETHY    C1 4614  16.534  37.606  10.025
 4695ETHY    C1 4615  16.803  37.774  10.466
 4696AUSL   AUS 4616  15.143  37.786   8.175
 4697AUSL   AUS 4617  14.816  38.089   8.175
 4698AUL    AUL 4618  14.979  37.938   8.483
 4699THSLK    S 4619  15.221  37.733   8.417
 4700ETHY    C1 4620  15.298  37.483   8.790
 4701ETHY    C1 4621  15.414  37.266   9.269
 4702ETHY    C1 4622  15.551  37.150   9.769
 4703ETHY    C1 4623  15.701  37.132  10.281
 4704ETHY    C1 4624  15.860  37.213  10.794
 4705THSLK    S 4625  14.729  38.046   8.431
 4706ETHY    C1 4626  14.647  37.934   8.864
 4707ETHY    C1 4627  14.533  37.888   9.388
 4708ETHY    C1 4628  14.401  37.946   9.901
 4709ETHY    C1 4629  14.250  38.099  10.389
 4710ETHY    C1 4630  14.084  38.343  10.844
 4711AUSL   AUS 4631  15.143  38.089   8.175
 4712AUSL   AUS 4632  15.489  38.202   7.918
 4713AUL    AUL 4633  15.470  38.241   8.296
 4714THSLK    S 4634  15.230  38.143   8.414
 4715ETHY    C1 4635  15.311  38.394   8.786
 4716ETHY    C1 4636  15.425  38.610   9.265
 4717ETHY    C1 4637  15.558  38.726   9.767
 4718ETHY    C1 4638  15.708  38.744  10.279
 4719ETHY    C1 4639  15.874  38.664  10.789
 4720THSLK    S 4640  15.663  38.304   8.080
 4721ETHY    C1 4641  16.027  38.314   8.354
 4722ETHY    C1 4642  16.443  38.416   8.680
 4723ETHY    C1 4643  16.823  38.615   8.995
 4724ETHY    C1 4644  17.158  38.902   9.296
 4725ETHY    C1 4645  17.439  39.270   9.577
 4726AUSL   AUS 4646  15.388  37.938   6.922
 4727AUSL   AUS 4647  15.244  38.354   6.992
 4728AUL    AUL 4648  15.470  38.241   6.707
 4729THSLK    S 4649  15.491  37.888   6.681
 4730ETHY    C1 4650  15.712  37.702   6.329
 4731ETHY    C1 4651  15.985  37.567   5.885
 4732ETHY    C1 4652  16.263  37.537   5.432
 4733ETHY    C1 4653  16.541  37.606   4.982
 4734ETHY    C1 4654  16.815  37.774   4.545
 4735THSLK    S 4655  15.422  38.469   6.825
 4736ETHY    C1 4656  15.710  38.574   6.488
 4737ETHY    C1 4657  16.010  38.778   6.090
 4738ETHY    C1 4658  16.253  39.066   5.714
 4739ETHY    C1 4659  16.437  39.430   5.371
 4740ETHY    C1 4660  16.561  39.861   5.065
 4741AUSL   AUS 4661  15.143  37.786   6.828
 4742AUSL   AUS 4662  15.489  37.673   7.085
 4743AUL    AUL 4663  15.470  37.634   6.707
 4744THSLK    S 4664  15.626  37.481   6.944
 4745ETHY    C1 4665  15.834  37.138   6.729
 4746ETHY    C1 4666  16.135  36.796   6.442
 4747ETHY    C1 4667  16.486  36.543   6.133
 4748ETHY    C1 4668  16.880  36.381   5.812
 4749ETHY    C1 4669  17.309  36.310   5.486
 4750THSLK    S 4670  15.230  37.732   6.590
 4751ETHY    C1 4671  15.311  37.481   6.217
 4752ETHY    C1 4672  15.425  37.265   5.738
 4753ETHY    C1 4673  15.558  37.149   5.236
 4754ETHY    C1 4674  15.708  37.131   4.725
 4755ETHY    C1 4675  15.874  37.211   4.214
 4756AUSL   AUS 4676  15.143  38.089   6.828
 4757AUSL   AUS 4677  14.816  37.786   6.828
 4758AUL    AUL 4678  14.979  37.938   6.520
 4759THSLK    S 4679  14.721  37.732   6.592
 4760ETHY    C1 4680  14.584  37.484   6.235
 4761ETHY    C1 4681  14.424  37.270   5.767
 4762ETHY    C1 4682  14.277  37.155   5.269
 4763ETHY    C1 4683  14.150  37.136   4.751
 4764ETHY    C1 4684  14.045  37.212   4.224
 4765THSLK    S 4685  15.246  38.047   6.578
 4766ETHY    C1 4686  15.387  37.932   6.160
 4767ETHY    C1 4687  15.545  37.885   5.647
 4768ETHY    C1 4688  15.688  37.941   5.138
 4769ETHY    C1 4689  15.816  38.095   4.643
 4770ETHY    C1 4690  15.927  38.343   4.174
 4771AUSL   AUS 4691  14.570  37.938   8.082
 4772AUSL   AUS 4692  14.714  38.354   8.012
 4773AUL    AUL 4693  14.488  38.241   8.296
 4774THSLK    S 4694  14.467  37.888   8.322
 4775ETHY    C1 4695  14.246  37.702   8.674
 4776ETHY    C1 4696  13.973  37.567   9.118
 4777ETHY    C1 4697  13.696  37.537   9.571
 4778ETHY    C1 4698  13.418  37.606  10.021
 4779ETHY    C1 4699  13.143  37.774  10.458
 4780THSLK    S 4700  14.594  38.483   8.202
 4781ETHY    C1 4701  14.525  38.652   8.620
 4782ETHY    C1 4702  14.383  38.905   9.073
 4783ETHY    C1 4703  14.177  39.206   9.460
 4784ETHY    C1 4704  13.910  39.545   9.775
 4785ETHY    C1 4705  13.590  39.912  10.013
 4786AUSL   AUS 4706  14.816  37.786   8.175
 4787AUSL   AUS 4707  14.469  37.673   7.918
 4788AUL    AUL 4708  14.488  37.634   8.296
 4789THSLK    S 4709  14.291  37.509   8.029
 4790ETHY    C1 4710  13.923  37.256   8.125
 4791ETHY    C1 4711  13.508  36.977   8.323
 4792ETHY    C1 4712  13.130  36.737   8.611
 4793ETHY    C1 4713  12.796  36.541   8.978
 4794ETHY    C1 4714  12.510  36.395   9.415
 4795THSLK    S 4715  14.713  37.734   8.410
 4796ETHY    C1 4716  14.571  37.487   8.766
 4797ETHY    C1 4717  14.413  37.272   9.233
 4798ETHY    C1 4718  14.270  37.156   9.733
 4799ETHY    C1 4719  14.143  37.138  10.250
 4800ETHY    C1 4720  14.031  37.216  10.775
 4801AUSL   AUS 4721  14.570  37.938   6.922
 4802AUSL   AUS 4722  14.714  37.521   6.992
 4803AUL    AUL 4723  14.488  37.634   6.707
 4804THSLK    S 4724  14.475  37.888   6.677
 4805ETHY    C1 4725  14.258  37.702   6.322
 4806ETHY    C1 4726  13.983  37.567   5.879
 4807ETHY    C1 4727  13.702  37.537   5.429
 4808ETHY    C1 4728  13.424  37.606   4.978
 4809ETHY    C1 4729  13.156  37.774   4.537
 4810THSLK    S 4730  14.542  37.347   6.872
 4811ETHY    C1 4731  14.257  37.026   6.717
 4812ETHY    C1 4732  13.956  36.667   6.453
 4813ETHY    C1 4733  13.711  36.344   6.109
 4814ETHY    C1 4734  13.527  36.061   5.696
 4815ETHY    C1 4735  13.408  35.821   5.223
 4816AUSL   AUS 4736  14.816  38.089   6.828
 4817AUSL   AUS 4737  14.469  38.202   7.085
 4818AUL    AUL 4738  14.488  38.241   6.707
 4819THSLK    S 4739  14.338  38.332   6.893
 4820ETHY    C1 4740  14.132  38.432   6.499
 4821ETHY    C1 4741  13.830  38.596   6.085
 4822ETHY    C1 4742  13.476  38.808   5.748
 4823ETHY    C1 4743  13.083  39.062   5.494
 4824ETHY    C1 4744  12.658  39.355   5.324
 4825THSLK    S 4745  14.737  38.048   6.571
 4826ETHY    C1 4746  14.660  37.936   6.136
 4827ETHY    C1 4747  14.544  37.891   5.612
 4828ETHY    C1 4748  14.408  37.947   5.101
 4829ETHY    C1 4749  14.258  38.101   4.613
 4830ETHY    C1 4750  14.098  38.346   4.156
 4831AUSL   AUS 4751  15.559  38.347   7.502
 4832AUSL   AUS 4752  15.489  38.202   7.085
 4833AUL    AUL 4753  15.773  38.428   7.198
 4834THSLK    S 4754  15.668  38.305   6.930
 4835ETHY    C1 4755  16.035  38.316   6.659
 4836ETHY    C1 4756  16.450  38.418   6.332
 4837ETHY    C1 4757  16.828  38.616   6.014
 4838ETHY    C1 4758  17.162  38.903   5.713
 4839ETHY    C1 4759  17.448  39.273   5.438
 4840THSLK    S 4760  15.827  38.403   7.506
 4841ETHY    C1 4761  16.279  38.464   7.508
 4842ETHY    C1 4762  16.793  38.623   7.507
 4843ETHY    C1 4763  17.261  38.877   7.505
 4844ETHY    C1 4764  17.674  39.214   7.506
 4845ETHY    C1 4765  18.026  39.628   7.509
 4846AUSL   AUS 4766  15.653  38.101   7.350
 4847AUSL   AUS 4767  15.653  37.774   7.653
 4848AUL    AUL 4768  15.961  37.938   7.502
 4849THSLK    S 4769  15.912  38.144   7.348
 4850ETHY    C1 4770  16.357  38.074   7.278
 4851ETHY    C1 4771  16.888  38.081   7.190
 4852ETHY    C1 4772  17.401  38.191   7.101
 4853ETHY    C1 4773  17.886  38.397   7.017
 4854ETHY    C1 4774  18.333  38.694   6.940
 4855THSLK    S 4775  15.885  37.636   7.662
 4856ETHY    C1 4776  16.231  37.347   7.728
 4857ETHY    C1 4777  16.692  37.080   7.809
 4858ETHY    C1 4778  17.189  36.911   7.892
 4859ETHY    C1 4779  17.710  36.839   7.980
 4860ETHY    C1 4780  18.245  36.865   8.071
 4861AUSL   AUS 4781  15.653  38.101   7.653
 4862AUSL   AUS 4782  15.396  38.448   7.766
 4863AUL    AUL 4783  15.773  38.428   7.805
 4864THSLK    S 4784  15.579  38.567   7.926
 4865ETHY    C1 4785  15.951  38.722   8.139
 4866ETHY    C1 4786  16.351  38.987   8.385
 4867ETHY    C1 4787  16.685  39.331   8.615
 4868ETHY    C1 4788  16.947  39.744   8.827
 4869ETHY    C1 4789  17.134  40.216   9.019
 4870THSLK    S 4790  15.911  38.144   7.664
 4871ETHY    C1 4791  16.355  38.074   7.738
 4872ETHY    C1 4792  16.886  38.081   7.825
 4873ETHY    C1 4793  17.400  38.191   7.910
 4874ETHY    C1 4794  17.884  38.397   7.994
 4875ETHY    C1 4795  18.331  38.694   8.078
 4876AUSL   AUS 4796  14.399  38.347   7.502
 4877AUSL   AUS 4797  14.469  38.202   7.918
 4878AUL    AUL 4798  14.185  38.428   7.805
 4879THSLK    S 4799  14.333  38.325   8.109
 4880ETHY    C1 4800  14.124  38.421   8.503
 4881ETHY    C1 4801  13.823  38.587   8.917
 4882ETHY    C1 4802  13.472  38.802   9.254
 4883ETHY    C1 4803  13.078  39.056   9.509
 4884ETHY    C1 4804  12.649  39.343   9.678
 4885THSLK    S 4805  14.183  38.487   7.506
 4886ETHY    C1 4806  13.927  38.865   7.508
 4887ETHY    C1 4807  13.554  39.253   7.507
 4888ETHY    C1 4808  13.118  39.559   7.505
 4889ETHY    C1 4809  12.632  39.777   7.506
 4890ETHY    C1 4810  12.105  39.907   7.509
 4891AUSL   AUS 4811  14.305  38.101   7.350
 4892AUSL   AUS 4812  14.563  38.448   7.237
 4893AUL    AUL 4813  14.185  38.428   7.198
 4894THSLK    S 4814  14.074  38.216   7.303
 4895ETHY    C1 4815  13.727  38.404   7.075
 4896ETHY    C1 4816  13.267  38.596   6.872
 4897ETHY    C1 4817  12.769  38.746   6.758
 4898ETHY    C1 4818  12.248  38.856   6.733
 4899ETHY    C1 4819  11.714  38.926   6.796
 4900THSLK    S 4820  14.447  38.613   7.058
 4901ETHY    C1 4821  14.331  38.929   6.750
 4902ETHY    C1 4822  14.117  39.307   6.432
 4903ETHY    C1 4823  13.825  39.676   6.183
 4904ETHY    C1 4824  13.467  40.029   6.008
 4905ETHY    C1 4825  13.049  40.362   5.909
 4906AUSL   AUS 4826  14.305  38.101   7.653
 4907AUSL   AUS 4827  14.305  37.774   7.350
 4908AUL    AUL 4828  13.997  37.938   7.502
 4909THSLK    S 4829  14.047  37.700   7.390
 4910ETHY    C1 4830  13.603  37.665   7.486
 4911ETHY    C1 4831  13.072  37.584   7.518
 4912ETHY    C1 4832  12.558  37.459   7.458
 4913ETHY    C1 4833  12.074  37.291   7.311
 4914ETHY    C1 4834  11.627  37.084   7.083
 4915THSLK    S 4835  14.072  38.208   7.704
 4916ETHY    C1 4836  13.725  38.392   7.935
 4917ETHY    C1 4837  13.265  38.585   8.137
 4918ETHY    C1 4838  12.768  38.740   8.249
 4919ETHY    C1 4839  12.247  38.850   8.274
 4920ETHY    C1 4840  11.711  38.913   8.213
 4921AUSL   AUS 4841  15.559  37.528   7.502
 4922AUSL   AUS 4842  15.489  37.673   7.918
 4923AUL    AUL 4843  15.773  37.447   7.805
 4924THSLK    S 4844  15.775  37.388   7.506
 4925ETHY    C1 4845  16.031  37.010   7.508
 4926ETHY    C1 4846  16.404  36.622   7.507
 4927ETHY    C1 4847  16.840  36.316   7.505
 4928ETHY    C1 4848  17.326  36.098   7.506
 4929ETHY    C1 4849  17.853  35.968   7.509
 4930THSLK    S 4850  15.621  37.483   8.066
 4931ETHY    C1 4851  15.826  37.140   8.285
 4932ETHY    C1 4852  16.128  36.798   8.570
 4933ETHY    C1 4853  16.482  36.545   8.877
 4934ETHY    C1 4854  16.876  36.382   9.198
 4935ETHY    C1 4855  17.300  36.312   9.529
 4936AUSL   AUS 4856  15.653  37.774   7.350
 4937AUSL   AUS 4857  15.396  37.427   7.237
 4938AUL    AUL 4858  15.773  37.447   7.198
 4939THSLK    S 4859  15.886  37.636   7.350
 4940ETHY    C1 4860  16.234  37.347   7.289
 4941ETHY    C1 4861  16.693  37.080   7.206
 4942ETHY    C1 4862  17.190  36.911   7.118
 4943ETHY    C1 4863  17.712  36.839   7.031
 4944ETHY    C1 4864  18.247  36.865   6.947
 4945THSLK    S 4865  15.515  37.237   7.104
 4946ETHY    C1 4866  15.632  36.820   6.963
 4947ETHY    C1 4867  15.846  36.366   6.765
 4948ETHY    C1 4868  16.136  35.980   6.543
 4949ETHY    C1 4869  16.495  35.665   6.306
 4950ETHY    C1 4870  16.915  35.426   6.058
 4951AUSL   AUS 4871  14.399  37.528   7.502
 4952AUSL   AUS 4872  14.469  37.673   7.085
 4953AUL    AUL 4873  14.185  37.447   7.198
 4954THSLK    S 4874  14.296  37.502   6.973
 4955ETHY    C1 4875  13.931  37.245   6.877
 4956ETHY    C1 4876  13.515  36.968   6.679
 4957ETHY    C1 4877  13.135  36.731   6.392
 4958ETHY    C1 4878  12.801  36.535   6.025
 4959ETHY    C1 4879  12.519  36.383   5.587
 4960THSLK    S 4880  14.131  37.472   7.506
 4961ETHY    C1 4881  13.679  37.411   7.508
 4962ETHY    C1 4882  13.165  37.252   7.507
 4963ETHY    C1 4883  12.697  36.998   7.505
 4964ETHY    C1 4884  12.284  36.661   7.506
 4965ETHY    C1 4885  11.932  36.247   7.509
 4966AUSL   AUS 4886  14.305  37.774   7.653
 4967AUSL   AUS 4887  14.563  37.427   7.766
 4968AUL    AUL 4888  14.185  37.447   7.805
 4969THSLK    S 4889  14.375  37.283   7.880
 4970ETHY    C1 4890  14.001  37.026   7.926
 4971ETHY    C1 4891  13.603  36.686   8.052
 4972ETHY    C1 4892  13.270  36.324   8.255
 4973ETHY    C1 4893  13.008  35.950   8.529
 4974ETHY    C1 4894  12.817  35.572   8.870
 4975THSLK    S 4895  14.046  37.707   7.617
 4976ETHY    C1 4896  13.601  37.677   7.524
 4977ETHY    C1 4897  13.070  37.595   7.490
 4978ETHY    C1 4898  12.557  37.466   7.549
 4979ETHY    C1 4899  12.073  37.298   7.696
 4980ETHY    C1 4900  11.625  37.096   7.928
 4981AUSL   AUS 4901  14.979  38.518   7.911
 4982AUSL   AUS 4902  14.563  38.448   7.766
 4983AUL    AUL 4903  14.676  38.732   7.992
 4984THSLK    S 4904  14.443  38.607   7.950
 4985ETHY    C1 4905  14.326  38.919   8.261
 4986ETHY    C1 4906  14.112  39.299   8.578
 4987ETHY    C1 4907  13.822  39.670   8.824
 4988ETHY    C1 4908  13.464  40.024   9.000
 4989ETHY    C1 4909  13.043  40.352   9.102
 4990THSLK    S 4910  15.019  38.744   8.035
 4991ETHY    C1 4911  15.176  39.046   8.339
 4992ETHY    C1 4912  15.291  39.452   8.672
 4993ETHY    C1 4913  15.318  39.896   8.964
 4994ETHY    C1 4914  15.258  40.365   9.211
 4995ETHY    C1 4915  15.114  40.849   9.410
 4996AUSL   AUS 4916  14.827  38.611   7.665
 4997AUSL   AUS 4917  15.131  38.611   7.338
 4998AUL    AUL 4918  14.979  38.919   7.502
 4999THSLK    S 4919  14.868  38.859   7.774
 5000ETHY    C1 4920  14.977  39.269   7.942
 5001ETHY    C1 4921  15.021  39.776   8.118
 5002ETHY    C1 4922  14.964  40.284   8.265
 5003ETHY    C1 4923  14.811  40.781   8.383
 5004ETHY    C1 4924  14.568  41.258   8.472
 5005THSLK    S 4925  15.184  38.846   7.241
 5006ETHY    C1 4926  15.429  39.202   7.094
 5007ETHY    C1 4927  15.642  39.667   6.927
 5008ETHY    C1 4928  15.757  40.165   6.779
 5009ETHY    C1 4929  15.777  40.684   6.655
 5010ETHY    C1 4930  15.702  41.213   6.558
 5011AUSL   AUS 4931  15.131  38.611   7.665
 5012AUSL   AUS 4932  15.244  38.354   8.012
 5013AUL    AUL 4933  15.282  38.732   7.992
 5014THSLK    S 4934  15.416  38.467   8.184
 5015ETHY    C1 4935  15.701  38.570   8.524
 5016ETHY    C1 4936  16.003  38.774   8.921
 5017ETHY    C1 4937  16.248  39.064   9.294
 5018ETHY    C1 4938  16.432  39.427   9.638
 5019ETHY    C1 4939  16.551  39.857   9.948
 5020THSLK    S 4940  15.182  38.845   7.771
 5021ETHY    C1 4941  15.426  39.199   7.922
 5022ETHY    C1 4942  15.639  39.665   8.087
 5023ETHY    C1 4943  15.755  40.164   8.231
 5024ETHY    C1 4944  15.774  40.682   8.356
 5025ETHY    C1 4945  15.699  41.210   8.458
 5026AUSL   AUS 4946  14.979  37.358   7.911
 5027AUSL   AUS 4947  15.396  37.427   7.766
 5028AUL    AUL 4948  15.282  37.143   7.992
 5029THSLK    S 4949  14.935  37.103   7.990
 5030ETHY    C1 4950  14.775  36.699   8.128
 5031ETHY    C1 4951  14.661  36.218   8.341
 5032ETHY    C1 4952  14.636  35.757   8.605
 5033ETHY    C1 4953  14.695  35.327   8.915
 5034ETHY    C1 4954  14.836  34.935   9.263
 5035THSLK    S 4955  15.511  37.238   7.908
 5036ETHY    C1 4956  15.627  36.822   8.052
 5037ETHY    C1 4957  15.841  36.369   8.248
 5038ETHY    C1 4958  16.133  35.981   8.467
 5039ETHY    C1 4959  16.492  35.666   8.705
 5040ETHY    C1 4960  16.909  35.429   8.958
 5041AUSL   AUS 4961  14.827  37.264   7.665
 5042AUSL   AUS 4962  14.714  37.521   8.012
 5043AUL    AUL 4963  14.676  37.143   7.992
 5044THSLK    S 4964  14.774  37.024   7.745
 5045ETHY    C1 4965  14.529  36.643   7.801
 5046ETHY    C1 4966  14.316  36.158   7.897
 5047ETHY    C1 4967  14.201  35.655   8.025
 5048ETHY    C1 4968  14.182  35.146   8.186
 5049ETHY    C1 4969  14.256  34.643   8.374
 5050THSLK    S 4970  14.536  37.353   8.133
 5051ETHY    C1 4971  14.248  37.035   8.289
 5052ETHY    C1 4972  13.948  36.675   8.552
 5053ETHY    C1 4973  13.705  36.349   8.896
 5054ETHY    C1 4974  13.521  36.066   9.309
 5055ETHY    C1 4975  13.397  35.832   9.783
 5056AUSL   AUS 4976  15.131  37.264   7.665
 5057AUSL   AUS 4977  14.827  37.264   7.338
 5058AUL    AUL 4978  14.979  36.956   7.502
 5059THSLK    S 4979  14.776  37.021   7.266
 5060ETHY    C1 4980  14.532  36.639   7.215
 5061ETHY    C1 4981  14.319  36.155   7.117
 5062ETHY    C1 4982  14.203  35.653   6.984
 5063ETHY    C1 4983  14.184  35.144   6.825
 5064ETHY    C1 4984  14.260  34.639   6.642
 5065THSLK    S 4985  15.088  37.008   7.749
 5066ETHY    C1 4986  14.978  36.572   7.821
 5067ETHY    C1 4987  14.935  36.046   7.928
 5068ETHY    C1 4988  14.992  35.534   8.059
 5069ETHY    C1 4989  15.145  35.046   8.213
 5070ETHY    C1 4990  15.387  34.593   8.388
 5071AUSL   AUS 4991  14.979  38.518   7.093
 5072AUSL   AUS 4992  15.396  38.448   7.237
 5073AUL    AUL 4993  15.282  38.732   7.011
 5074THSLK    S 4994  15.023  38.748   6.975
 5075ETHY    C1 4995  15.183  39.052   6.674
 5076ETHY    C1 4996  15.297  39.457   6.339
 5077ETHY    C1 4997  15.322  39.900   6.045
 5078ETHY    C1 4998  15.263  40.369   5.798
 5079ETHY    C1 4999  15.122  40.856   5.604
 5080THSLK    S 5000  15.583  38.569   7.085
 5081ETHY    C1 5001  15.957  38.725   6.876
 5082ETHY    C1 5002  16.355  38.989   6.629
 5083ETHY    C1 5003  16.688  39.333   6.395
 5084ETHY    C1 5004  16.950  39.745   6.184
 5085ETHY    C1 5005  17.141  40.219   5.998
 5086AUSL   AUS 5006  14.827  38.611   7.338
 5087AUSL   AUS 5007  14.714  38.354   6.992
 5088AUL    AUL 5008  14.676  38.732   7.011
 5089THSLK    S 5009  14.870  38.862   7.237
 5090ETHY    C1 5010  14.980  39.273   7.074
 5091ETHY    C1 5011  15.023  39.779   6.896
 5092ETHY    C1 5012  14.966  40.287   6.745
 5093ETHY    C1 5013  14.813  40.784   6.627
 5094ETHY    C1 5014  14.571  41.263   6.545
 5095THSLK    S 5015  14.600  38.489   6.802
 5096ETHY    C1 5016  14.534  38.661   6.385
 5097ETHY    C1 5017  14.391  38.913   5.932
 5098ETHY    C1 5018  14.182  39.212   5.544
 5099ETHY    C1 5019  13.916  39.550   5.230
 5100ETHY    C1 5020  13.600  39.923   4.993
 5101AUSL   AUS 5021  14.979  37.358   7.093
 5102AUSL   AUS 5022  14.563  37.427   7.237
 5103AUL    AUL 5023  14.676  37.143   7.011
 5104THSLK    S 5024  14.379  37.277   7.128
 5105ETHY    C1 5025  14.007  37.016   7.085
 5106ETHY    C1 5026  13.608  36.678   6.958
 5107ETHY    C1 5027  13.273  36.319   6.753
 5108ETHY    C1 5028  13.011  35.945   6.478
 5109ETHY    C1 5029  12.824  35.562   6.142
 5110THSLK    S 5030  14.939  37.099   7.019
 5111ETHY    C1 5031  14.782  36.693   6.885
 5112ETHY    C1 5032  14.667  36.213   6.671
 5113ETHY    C1 5033  14.640  35.754   6.404
 5114ETHY    C1 5034  14.700  35.323   6.094
 5115ETHY    C1 5035  14.844  34.928   5.751
 5116AUSL   AUS 5036  15.131  37.264   7.338
 5117AUSL   AUS 5037  15.244  37.521   6.992
 5118AUL    AUL 5038  15.282  37.143   7.011
 5119THSLK    S 5039  15.090  37.007   7.262
 5120ETHY    C1 5040  14.981  36.569   7.195
 5121ETHY    C1 5041  14.938  36.043   7.086
 5122ETHY    C1 5042  14.994  35.532   6.951
 5123ETHY    C1 5043  15.147  35.044   6.798
 5124ETHY    C1 5044  15.391  34.590   6.629
 5125THSLK    S 5045  15.364  37.331   6.853
 5126ETHY    C1 5046  15.433  36.945   6.621
 5127ETHY    C1 5047  15.575  36.537   6.300
 5128ETHY    C1 5048  15.782  36.201   5.942
 5129ETHY    C1 5049  16.048  35.944   5.559
 5130ETHY    C1 5050  16.368  35.766   5.158
 5131POPC   NC3 5051  23.760   6.643   9.453
 5131POPC   PO4 5052  23.717   6.607   9.153
 5131POPC   GL1 5053  23.751   6.616   8.853
 5131POPC   GL2 5054  23.739   6.562   8.853
 5131POPC   C1A 5055  23.722   6.673   8.553
 5131POPC   D2A 5056  23.734   6.619   8.253
 5131POPC   C3A 5057  23.690   6.630   7.953
 5131POPC   C4A 5058  23.675   6.646   7.653
 5131POPC   C1B 5059  23.804   6.455   8.553
 5131POPC   C2B 5060  23.843   6.452   8.253
 5131POPC   C3B 5061  23.834   6.422   7.953
 5131POPC   C4B 5062  23.814   6.405   7.653
 5132POPC   NC3 5063  17.482   9.770   9.453
 5132POPC   PO4 5064  17.538   9.796   9.153
 5132POPC   GL1 5065  17.494   9.765   8.853
 5132POPC   GL2 5066  17.465   9.859   8.853
 5132POPC   C1A 5067  17.532   9.753   8.553
 5132POPC   D2A 5068  17.513   9.748   8.253
 5132POPC   C3A 5069  17.476   9.726   7.953
 5132POPC   C4A 5070  17.513   9.757   7.653
 5132POPC   C1B 5071  17.298   9.886   8.553
 5132POPC   C2B 5072  17.365   9.883   8.253
 5132POPC   C3B 5073  17.297   9.939   7.953
 5132POPC   C4B 5074  17.310   9.919   7.653
 5133POPC   NC3 5075  14.390   6.681   9.453
 5133POPC   PO4 5076  14.413   6.607   9.153
 5133POPC   GL1 5077  14.452   6.658   8.853
 5133POPC   GL2 5078  14.256   6.672   8.853
 5133POPC   C1A 5079  14.401   6.662   8.553
 5133POPC   D2A 5080  14.397   6.665   8.253
 5133POPC   C3A 5081  14.354   6.601   7.953
 5133POPC   C4A 5082  14.395   6.613   7.653
 5133POPC   C1B 5083  14.165   6.640   8.553
 5133POPC   C2B 5084  14.126   6.669   8.253
 5133POPC   C3B 5085  14.108   6.605   7.953
 5133POPC   C4B 5086  14.173   6.631   7.653
 5134POPC   NC3 5087   8.197  39.188   9.453
 5134POPC   PO4 5088   8.156  39.187   9.153
 5134POPC   GL1 5089   8.231  39.190   8.853
 5134POPC   GL2 5090   8.283  39.247   8.853
 5134POPC   C1A 5091   8.188  39.223   8.553
 5134POPC   D2A 5092   8.169  39.224   8.253
 5134POPC   C3A 5093   8.202  39.220   7.953
 5134POPC   C4A 5094   8.163  39.210   7.653
 5134POPC   C1B 5095   8.453  39.273   8.553
 5134POPC   C2B 5096   8.470  39.228   8.253
 5134POPC   C3B 5097   8.430  39.298   7.953
 5134POPC   C4B 5098   8.429  39.274   7.653
 5135POPC   NC3 5099  29.954  37.679   9.453
 5135POPC   PO4 5100  29.946  37.669   9.153
 5135POPC   GL1 5101  29.930  37.631   8.853
 5135POPC   GL2 5102  29.788  37.700   8.853
 5135POPC   C1A 5103  29.890  37.707   8.553
 5135POPC   D2A 5104  29.959  37.703   8.253
 5135POPC   C3A 5105  29.953  37.663   7.953
 5135POPC   C4A 5106  29.879  37.674   7.653
 5135POPC   C1B 5107  29.662  37.617   8.553
 5135POPC   C2B 5108  29.672  37.693   8.253
 5135POPC   C3B 5109  29.669  37.631   7.953
 5135POPC   C4B 5110  29.639  37.645   7.653
 5136POPC   NC3 5111  41.563  36.090   9.453
 5136POPC   PO4 5112  41.509  36.139   9.153
 5136POPC   GL1 5113  41.601  36.096   8.853
 5136POPC   GL2 5114  41.675  36.177   8.853
 5136POPC   C1A 5115  41.511  36.118   8.553
 5136POPC   D2A 5116  41.551  36.147   8.253
 5136POPC   C3A 5117  41.585  36.147   7.953
 5136POPC   C4A 5118  41.600  36.142   7.653
 5136POPC   C1B 5119  41.818  36.192   8.553
 5136POPC   C2B 5120  41.816  36.257   8.253
 5136POPC   C3B 5121  41.824  36.246   7.953
 5136POPC   C4B 5122  41.814  36.256   7.653
 5137POPC   NC3 5123  40.768  26.063   9.453
 5137POPC   PO4 5124  40.786  26.005   9.153
 5137POPC   GL1 5125  40.800  26.087   8.853
 5137POPC   GL2 5126  40.911  26.041   8.853
 5137POPC   C1A 5127  40.808  26.075   8.553
 5137POPC   D2A 5128  40.815  26.011   8.253
 5137POPC   C3A 5129  40.750  26.088   7.953
 5137POPC   C4A 5130  40.758  26.018   7.653
 5137POPC   C1B 5131  40.983  26.092   8.553
 5137POPC   C2B 5132  40.973  26.147   8.253
 5137POPC   C3B 5133  41.055  26.111   7.953
 5137POPC   C4B 5134  41.025  26.163   7.653
 5138POPC   NC3 5135  24.464  33.757   9.453
 5138POPC   PO4 5136  24.482  33.764   9.153
 5138POPC   GL1 5137  24.484  33.752   8.853
 5138POPC   GL2 5138  24.457  33.638   8.853
 5138POPC   C1A 5139  24.508  33.827   8.553
 5138POPC   D2A 5140  24.527  33.761   8.253
 5138POPC   C3A 5141  24.514  33.766   7.953
 5138POPC   C4A 5142  24.458  33.800   7.653
 5138POPC   C1B 5143  24.564  33.597   8.553
 5138POPC   C2B 5144  24.548  33.575   8.253
 5138POPC   C3B 5145  24.504  33.598   7.953
 5138POPC   C4B 5146  24.469  33.528   7.653
 5139POPC   NC3 5147  30.711  38.497   9.453
 5139POPC   PO4 5148  30.682  38.488   9.153
 5139POPC   GL1 5149  30.665  38.432   8.853
 5139POPC   GL2 5150  30.662  38.310   8.853
 5139POPC   C1A 5151  30.700  38.496   8.553
 5139POPC   D2A 5152  30.690  38.493   8.253
 5139POPC   C3A 5153  30.671  38.455   7.953
 5139POPC   C4A 5154  30.693  38.468   7.653
 5139POPC   C1B 5155  30.591  38.251   8.553
 5139POPC   C2B 5156  30.501  38.274   8.253
 5139POPC   C3B 5157  30.509  38.229   7.953
 5139POPC   C4B 5158  30.506  38.286   7.653
 5140POPC   NC3 5159  29.184  26.829   9.453
 5140POPC   PO4 5160  29.106  26.794   9.153
 5140POPC   GL1 5161  29.123  26.816   8.853
 5140POPC   GL2 5162  29.038  26.824   8.853
 5140POPC   C1A 5163  29.185  26.769   8.553
 5140POPC   D2A 5164  29.141  26.845   8.253
 5140POPC   C3A 5165  29.138  26.810   7.953
 5140POPC   C4A 5166  29.157  26.844   7.653
 5140POPC   C1B 5167  28.887  26.843   8.553
 5140POPC   C2B 5168  28.867  26.792   8.253
 5140POPC   C3B 5169  28.930  26.828   7.953
 5140POPC   C4B 5170  28.878  26.775   7.653
 5141POPC   NC3 5171  18.308  40.752   9.453
 5141POPC   PO4 5172  18.327  40.786   9.153
 5141POPC   GL1 5173  18.313  40.765   8.853
 5141POPC   GL2 5174  18.292  40.913   8.853
 5141POPC   C1A 5175  18.238  40.807   8.553
 5141POPC   D2A 5176  18.330  40.816   8.253
 5141POPC   C3A 5177  18.308  40.784   7.953
 5141POPC   C4A 5178  18.316  40.811   7.653
 5141POPC   C1B 5179  18.262  41.074   8.553
 5141POPC   C2B 5180  18.282  41.039   8.253
 5141POPC   C3B 5181  18.300  41.041   7.953
 5141POPC   C4B 5182  18.249  41.032   7.653
 5142POPC   NC3 5183  43.841  25.281   9.453
 5142POPC   PO4 5184  43.856  25.274   9.153
 5142POPC   GL1 5185  43.883  25.291   8.853
 5142POPC   GL2 5186  44.003  25.272   8.853
 5142POPC   C1A 5187  43.914  25.283   8.553
 5142POPC   D2A 5188  43.918  25.304   8.253
 5142POPC   C3A 5189  43.908  25.219   7.953
 5142POPC   C4A 5190  43.885  25.243   7.653
 5142POPC   C1B 5191  44.145  25.323   8.553
 5142POPC   C2B 5192  44.128  25.242   8.253
 5142POPC   C3B 5193  44.125  25.322   7.953
 5142POPC   C4B 5194  44.151  25.237   7.653
 5143POPC   NC3 5195   1.226  17.495   9.453
 5143POPC   PO4 5196   1.177  17.473   9.153
 5143POPC   GL1 5197   1.237  17.479   8.853
 5143POPC   GL2 5198   1.248  17.400   8.853
 5143POPC   C1A 5199   1.237  17.553   8.553
 5143POPC   D2A 5200   1.184  17.557   8.253
 5143POPC   C3A 5201   1.263  17.471   7.953
 5143POPC   C4A 5202   1.179  17.486   7.653
 5143POPC   C1B 5203   1.409  17.310   8.553
 5143POPC   C2B 5204   1.314  17.278   8.253
 5143POPC   C3B 5205   1.313  17.298   7.953
 5143POPC   C4B 5206   1.356  17.317   7.653
 5144POPC   NC3 5207  43.071  16.002   9.453
 5144POPC   PO4 5208  43.134  15.913   9.153
 5144POPC   GL1 5209  43.126  15.999   8.853
 5144POPC   GL2 5210  43.029  16.090   8.853
 5144POPC   C1A 5211  43.113  15.949   8.553
 5144POPC   D2A 5212  43.106  15.928   8.253
 5144POPC   C3A 5213  43.142  15.950   7.953
 5144POPC   C4A 5214  43.118  15.997   7.653
 5144POPC   C1B 5215  43.010  16.150   8.553
 5144POPC   C2B 5216  42.992  16.129   8.253
 5144POPC   C3B 5217  43.044  16.210   7.953
 5144POPC   C4B 5218  42.989  16.168   7.653
 5145POPC   NC3 5219  24.465  41.575   9.453
 5145POPC   PO4 5220  24.513  41.544   9.153
 5145POPC   GL1 5221  24.459  41.599   8.853
 5145POPC   GL2 5222  24.384  41.454   8.853
 5145POPC   C1A 5223  24.530  41.519   8.553
 5145POPC   D2A 5224  24.505  41.529   8.253
 5145POPC   C3A 5225  24.445  41.511   7.953
 5145POPC   C4A 5226  24.533  41.548   7.653
 5145POPC   C1B 5227  24.308  41.450   8.553
 5145POPC   C2B 5228  24.263  41.449   8.253
 5145POPC   C3B 5229  24.298  41.454   7.953
 5145POPC   C4B 5230  24.273  41.421   7.653
 5146POPC   NC3 5231  26.017  12.107   9.453
 5146POPC   PO4 5232  26.077  12.042   9.153
 5146POPC   GL1 5233  26.003  12.047   8.853
 5146POPC   GL2 5234  26.091  12.154   8.853
 5146POPC   C1A 5235  26.055  12.125   8.553
 5146POPC   D2A 5236  26.034  12.072   8.253
 5146POPC   C3A 5237  26.077  12.061   7.953
 5146POPC   C4A 5238  26.059  12.051   7.653
 5146POPC   C1B 5239  26.185  12.255   8.553
 5146POPC   C2B 5240  26.192  12.267   8.253
 5146POPC   C3B 5241  26.185  12.309   7.953
 5146POPC   C4B 5242  26.220  12.252   7.653
 5147POPC   NC3 5243  17.512  27.641   9.453
 5147POPC   PO4 5244  17.522  27.574   9.153
 5147POPC   GL1 5245  17.544  27.571   8.853
 5147POPC   GL2 5246  17.387  27.638   8.853
 5147POPC   C1A 5247  17.477  27.550   8.553
 5147POPC   D2A 5248  17.459  27.615   8.253
 5147POPC   C3A 5249  17.476  27.596   7.953
 5147POPC   C4A 5250  17.535  27.600   7.653
 5147POPC   C1B 5251  17.351  27.769   8.553
 5147POPC   C2B 5252  17.261  27.724   8.253
 5147POPC   C3B 5253  17.264  27.719   7.953
 5147POPC   C4B 5254  17.270  27.747   7.653
 5148POPC   NC3 5255   1.229   5.885   9.453
 5148POPC   PO4 5256   1.240   5.863   9.153
 5148POPC   GL1 5257   1.249   5.888   8.853
 5148POPC   GL2 5258   1.238   5.748   8.853
 5148POPC   C1A 5259   1.173   5.898   8.553
 5148POPC   D2A 5260   1.236   5.890   8.253
 5148POPC   C3A 5261   1.258   5.852   7.953
 5148POPC   C4A 5262   1.190   5.884   7.653
 5148POPC   C1B 5263   1.174   5.658   8.553
 5148POPC   C2B 5264   1.164   5.609   8.253
 5148POPC   C3B 5265   1.184   5.594   7.953
 5148POPC   C4B 5266   1.231   5.579   7.653
 5149POPC   NC3 5267  43.110  42.383   9.453
 5149POPC   PO4 5268  43.112  42.296   9.153
 5149POPC   GL1 5269  43.083  42.370   8.853
 5149POPC   GL2 5270  43.135  42.495   8.853
 5149POPC   C1A 5271  43.107  42.316   8.553
 5149POPC   D2A 5272  43.090  42.323   8.253
 5149POPC   C3A 5273  43.113  42.345   7.953
 5149POPC   C4A 5274  43.069  42.342   7.653
 5149POPC   C1B 5275  43.168  42.607   8.553
 5149POPC   C2B 5276  43.235  42.557   8.253
 5149POPC   C3B 5277  43.235  42.570   7.953
 5149POPC   C4B 5278  43.202  42.539   7.653
 5150POPC   NC3 5279   1.980   1.943   9.453
 5150POPC   PO4 5280   1.967   2.012   9.153
 5150POPC   GL1 5281   2.007   1.985   8.853
 5150POPC   GL2 5282   1.888   2.127   8.853
 5150POPC   C1A 5283   2.008   2.023   8.553
 5150POPC   D2A 5284   1.960   1.986   8.253
 5150POPC   C3A 5285   2.012   2.036   7.953
 5150POPC   C4A 5286   1.970   1.987   7.653
 5150POPC   C1B 5287   1.832   2.155   8.553
 5150POPC   C2B 5288   1.851   2.204   8.253
 5150POPC   C3B 5289   1.792   2.186   7.953
 5150POPC   C4B 5290   1.851   2.192   7.653
 5151POPC   NC3 5291  40.755  17.552   9.453
 5151POPC   PO4 5292  40.778  17.502   9.153
 5151POPC   GL1 5293  40.821  17.531   8.853
 5151POPC   GL2 5294  40.725  17.433   8.853
 5151POPC   C1A 5295  40.772  17.465   8.553
 5151POPC   D2A 5296  40.765  17.466   8.253
 5151POPC   C3A 5297  40.805  17.491   7.953
 5151POPC   C4A 5298  40.790  17.523   7.653
 5151POPC   C1B 5299  40.689  17.280   8.553
 5151POPC   C2B 5300  40.723  17.226   8.253
 5151POPC   C3B 5301  40.699  17.300   7.953
 5151POPC   C4B 5302  40.658  17.318   7.653
 5152POPC   NC3 5303   8.231  12.826   9.453
 5152POPC   PO4 5304   8.183  12.839   9.153
 5152POPC   GL1 5305   8.167  12.832   8.853
 5152POPC   GL2 5306   8.305  12.832   8.853
 5152POPC   C1A 5307   8.166  12.885   8.553
 5152POPC   D2A 5308   8.150  12.874   8.253
 5152POPC   C3A 5309   8.229  12.835   7.953
 5152POPC   C4A 5310   8.171  12.894   7.653
 5152POPC   C1B 5311   8.463  12.869   8.553
 5152POPC   C2B 5312   8.490  12.849   8.253
 5152POPC   C3B 5313   8.467  12.925   7.953
 5152POPC   C4B 5314   8.480  12.830   7.653
 5153POPC   NC3 5315   1.195   5.140   9.453
 5153POPC   PO4 5316   1.219   5.102   9.153
 5153POPC   GL1 5317   1.169   5.101   8.853
 5153POPC   GL2 5318   1.353   5.124   8.853
 5153POPC   C1A 5319   1.203   5.060   8.553
 5153POPC   D2A 5320   1.242   5.045   8.253
 5153POPC   C3A 5321   1.171   5.140   7.953
 5153POPC   C4A 5322   1.239   5.107   7.653
 5153POPC   C1B 5323   1.510   5.107   8.553
 5153POPC   C2B 5324   1.488   5.082   8.253
 5153POPC   C3B 5325   1.436   5.033   7.953
 5153POPC   C4B 5326   1.460   5.083   7.653
 5154POPC   NC3 5327  39.241  30.693   9.453
 5154POPC   PO4 5328  39.246  30.663   9.153
 5154POPC   GL1 5329  39.252  30.718   8.853
 5154POPC   GL2 5330  39.336  30.753   8.853
 5154POPC   C1A 5331  39.252  30.710   8.553
 5154POPC   D2A 5332  39.262  30.682   8.253
 5154POPC   C3A 5333  39.222  30.666   7.953
 5154POPC   C4A 5334  39.228  30.680   7.653
 5154POPC   C1B 5335  39.463  30.746   8.553
 5154POPC   C2B 5336  39.519  30.745   8.253
 5154POPC   C3B 5337  39.498  30.724   7.953
 5154POPC   C4B 5338  39.495  30.702   7.653
 5155POPC   NC3 5339  19.009   5.133   9.453
 5155POPC   PO4 5340  19.013   5.061   9.153
 5155POPC   GL1 5341  19.087   5.127   8.853
 5155POPC   GL2 5342  18.921   5.037   8.853
 5155POPC   C1A 5343  19.105   5.138   8.553
 5155POPC   D2A 5344  19.080   5.095   8.253
 5155POPC   C3A 5345  19.027   5.086   7.953
 5155POPC   C4A 5346  19.096   5.118   7.653
 5155POPC   C1B 5347  18.816   4.990   8.553
 5155POPC   C2B 5348  18.787   5.023   8.253
 5155POPC   C3B 5349  18.833   4.956   7.953
 5155POPC   C4B 5350  18.793   4.982   7.653
 5156POPC   NC3 5351  32.252  21.383   9.453
 5156POPC   PO4 5352  32.248  21.429   9.153
 5156POPC   GL1 5353  32.201  21.425   8.853
 5156POPC   GL2 5354  32.197  21.281   8.853
 5156POPC   C1A 5355  32.281  21.357   8.553
 5156POPC   D2A 5356  32.209  21.383   8.253
 5156POPC   C3A 5357  32.223  21.387   7.953
 5156POPC   C4A 5358  32.245  21.380   7.653
 5156POPC   C1B 5359  32.091  21.212   8.553
 5156POPC   C2B 5360  32.099  21.148   8.253
 5156POPC   C3B 5361  32.128  21.196   7.953
 5156POPC   C4B 5362  32.129  21.140   7.653
 5157POPC   NC3 5363  36.164  36.167   9.453
 5157POPC   PO4 5364  36.159  36.149   9.153
 5157POPC   GL1 5365  36.129  36.148   8.853
 5157POPC   GL2 5366  36.298  36.167   8.853
 5157POPC   C1A 5367  36.117  36.115   8.553
 5157POPC   D2A 5368  36.104  36.108   8.253
 5157POPC   C3A 5369  36.110  36.132   7.953
 5157POPC   C4A 5370  36.168  36.160   7.653
 5157POPC   C1B 5371  36.385  36.131   8.553
 5157POPC   C2B 5372  36.386  36.136   8.253
 5157POPC   C3B 5373  36.388  36.182   7.953
 5157POPC   C4B 5374  36.420  36.189   7.653
 5158POPC   NC3 5375  13.665   7.389   9.453
 5158POPC   PO4 5376  13.643   7.456   9.153
 5158POPC   GL1 5377  13.647   7.467   8.853
 5158POPC   GL2 5378  13.484   7.435   8.853
 5158POPC   C1A 5379  13.629   7.434   8.553
 5158POPC   D2A 5380  13.654   7.470   8.253
 5158POPC   C3A 5381  13.656   7.380   7.953
 5158POPC   C4A 5382  13.580   7.396   7.653
 5158POPC   C1B 5383  13.390   7.429   8.553
 5158POPC   C2B 5384  13.407   7.452   8.253
 5158POPC   C3B 5385  13.382   7.393   7.953
 5158POPC   C4B 5386  13.413   7.455   7.653
 5159POPC   NC3 5387   1.177  19.032   9.453
 5159POPC   PO4 5388   1.216  19.064   9.153
 5159POPC   GL1 5389   1.220  19.009   8.853
 5159POPC   GL2 5390   1.167  18.967   8.853
 5159POPC   C1A 5391   1.228  19.106   8.553
 5159POPC   D2A 5392   1.243  19.088   8.253
 5159POPC   C3A 5393   1.235  19.103   7.953
 5159POPC   C4A 5394   1.178  19.020   7.653
 5159POPC   C1B 5395   1.043  18.934   8.553
 5159POPC   C2B 5396   0.986  18.890   8.253
 5159POPC   C3B 5397   1.020  18.860   7.953
 5159POPC   C4B 5398   1.068  18.841   7.653
 5160POPC   NC3 5399  20.633  23.710   9.453
 5160POPC   PO4 5400  20.625  23.699   9.153
 5160POPC   GL1 5401  20.644  23.697   8.853
 5160POPC   GL2 5402  20.776  23.683   8.853
 5160POPC   C1A 5403  20.604  23.710   8.553
 5160POPC   D2A 5404  20.565  23.671   8.253
 5160POPC   C3A 5405  20.590  23.754   7.953
 5160POPC   C4A 5406  20.581  23.668   7.653
 5160POPC   C1B 5407  20.817  23.684   8.553
 5160POPC   C2B 5408  20.901  23.714   8.253
 5160POPC   C3B 5409  20.882  23.657   7.953
 5160POPC   C4B 5410  20.874  23.722   7.653
 5161POPC   NC3 5411  18.274   0.461   9.453
 5161POPC   PO4 5412  18.263   0.439   9.153
 5161POPC   GL1 5413  18.323   0.476   8.853
 5161POPC   GL2 5414  18.393   0.451   8.853
 5161POPC   C1A 5415  18.304   0.439   8.553
 5161POPC   D2A 5416  18.276   0.444   8.253
 5161POPC   C3A 5417  18.288   0.414   7.953
 5161POPC   C4A 5418  18.304   0.478   7.653
 5161POPC   C1B 5419  18.498   0.486   8.553
 5161POPC   C2B 5420  18.570   0.479   8.253
 5161POPC   C3B 5421  18.551   0.492   7.953
 5161POPC   C4B 5422  18.541   0.537   7.653
 5162POPC   NC3 5423   2.028  24.448   9.453
 5162POPC   PO4 5424   1.961  24.448   9.153
 5162POPC   GL1 5425   1.959  24.451   8.853
 5162POPC   GL2 5426   1.894  24.404   8.853
 5162POPC   C1A 5427   2.026  24.504   8.553
 5162POPC   D2A 5428   1.996  24.513   8.253
 5162POPC   C3A 5429   2.032  24.496   7.953
 5162POPC   C4A 5430   2.024  24.461   7.653
 5162POPC   C1B 5431   1.816  24.271   8.553
 5162POPC   C2B 5432   1.842  24.273   8.253
 5162POPC   C3B 5433   1.830  24.347   7.953
 5162POPC   C4B 5434   1.798  24.326   7.653
 5163POPC   NC3 5435  20.612  40.012   9.453
 5163POPC   PO4 5436  20.630  39.996   9.153
 5163POPC   GL1 5437  20.584  39.974   8.853
 5163POPC   GL2 5438  20.706  40.088   8.853
 5163POPC   C1A 5439  20.564  40.021   8.553
 5163POPC   D2A 5440  20.633  40.049   8.253
 5163POPC   C3A 5441  20.570  40.031   7.953
 5163POPC   C4A 5442  20.629  40.008   7.653
 5163POPC   C1B 5443  20.797  40.087   8.553
 5163POPC   C2B 5444  20.796  40.158   8.253
 5163POPC   C3B 5445  20.852  40.127   7.953
 5163POPC   C4B 5446  20.861  40.076   7.653
 5164POPC   NC3 5447   7.388  43.851   9.453
 5164POPC   PO4 5448   7.382  43.868   9.153
 5164POPC   GL1 5449   7.401  43.929   8.853
 5164POPC   GL2 5450   7.586  43.907   8.853
 5164POPC   C1A 5451   7.405  43.888   8.553
 5164POPC   D2A 5452   7.467  43.866   8.253
 5164POPC   C3A 5453   7.444  43.891   7.953
 5164POPC   C4A 5454   7.408  43.884   7.653
 5164POPC   C1B 5455   7.648  43.862   8.553
 5164POPC   C2B 5456   7.660  43.907   8.253
 5164POPC   C3B 5457   7.646  43.844   7.953
 5164POPC   C4B 5458   7.660  43.812   7.653
 5165POPC   NC3 5459   5.063  12.832   9.453
 5165POPC   PO4 5460   5.139  12.808   9.153
 5165POPC   GL1 5461   5.139  12.844   8.853
 5165POPC   GL2 5462   5.197  12.959   8.853
 5165POPC   C1A 5463   5.105  12.847   8.553
 5165POPC   D2A 5464   5.129  12.855   8.253
 5165POPC   C3A 5465   5.070  12.825   7.953
 5165POPC   C4A 5466   5.105  12.891   7.653
 5165POPC   C1B 5467   5.270  13.023   8.553
 5165POPC   C2B 5468   5.238  13.016   8.253
 5165POPC   C3B 5469   5.283  13.034   7.953
 5165POPC   C4B 5470   5.321  13.040   7.653
 5166POPC   NC3 5471  36.930  12.115   9.453
 5166POPC   PO4 5472  36.921  12.043   9.153
 5166POPC   GL1 5473  36.929  12.092   8.853
 5166POPC   GL2 5474  36.776  11.960   8.853
 5166POPC   C1A 5475  36.905  12.095   8.553
 5166POPC   D2A 5476  36.911  12.046   8.253
 5166POPC   C3A 5477  36.877  12.052   7.953
 5166POPC   C4A 5478  36.879  12.070   7.653
 5166POPC   C1B 5479  36.751  11.931   8.553
 5166POPC   C2B 5480  36.752  11.897   8.253
 5166POPC   C3B 5481  36.777  11.940   7.953
 5166POPC   C4B 5482  36.775  11.905   7.653
 5167POPC   NC3 5483  37.675  22.906   9.453
 5167POPC   PO4 5484  37.686  22.978   9.153
 5167POPC   GL1 5485  37.666  22.917   8.853
 5167POPC   GL2 5486  37.554  22.885   8.853
 5167POPC   C1A 5487  37.658  22.895   8.553
 5167POPC   D2A 5488  37.687  22.932   8.253
 5167POPC   C3A 5489  37.697  22.916   7.953
 5167POPC   C4A 5490  37.665  22.952   7.653
 5167POPC   C1B 5491  37.456  22.851   8.553
 5167POPC   C2B 5492  37.489  22.815   8.253
 5167POPC   C3B 5493  37.489  22.868   7.953
 5167POPC   C4B 5494  37.400  22.852   7.653
 5168POPC   NC3 5495  13.578  13.614   9.453
 5168POPC   PO4 5496  13.613  13.674   9.153
 5168POPC   GL1 5497  13.601  13.670   8.853
 5168POPC   GL2 5498  13.548  13.601   8.853
 5168POPC   C1A 5499  13.607  13.605   8.553
 5168POPC   D2A 5500  13.581  13.653   8.253
 5168POPC   C3A 5501  13.673  13.618   7.953
 5168POPC   C4A 5502  13.617  13.645   7.653
 5168POPC   C1B 5503  13.408  13.580   8.553
 5168POPC   C2B 5504  13.420  13.493   8.253
 5168POPC   C3B 5505  13.367  13.505   7.953
 5168POPC   C4B 5506  13.357  13.517   7.653
 5169POPC   NC3 5507  39.963  32.992   9.453
 5169POPC   PO4 5508  39.977  33.057   9.153
 5169POPC   GL1 5509  39.986  32.996   8.853
 5169POPC   GL2 5510  40.029  33.150   8.853
 5169POPC   C1A 5511  40.015  33.030   8.553
 5169POPC   D2A 5512  39.976  33.025   8.253
 5169POPC   C3A 5513  39.968  32.995   7.953
 5169POPC   C4A 5514  39.988  33.039   7.653
 5169POPC   C1B 5515  39.966  33.314   8.553
 5169POPC   C2B 5516  39.979  33.256   8.253
 5169POPC   C3B 5517  39.986  33.275   7.953
 5169POPC   C4B 5518  39.944  33.257   7.653
 5170POPC   NC3 5519  35.361  28.368   9.453
 5170POPC   PO4 5520  35.350  28.416   9.153
 5170POPC   GL1 5521  35.309  28.406   8.853
 5170POPC   GL2 5522  35.415  28.293   8.853
 5170POPC   C1A 5523  35.330  28.376   8.553
 5170POPC   D2A 5524  35.387  28.324   8.253
 5170POPC   C3A 5525  35.401  28.340   7.953
 5170POPC   C4A 5526  35.326  28.361   7.653
 5170POPC   C1B 5527  35.554  28.249   8.553
 5170POPC   C2B 5528  35.566  28.265   8.253
 5170POPC   C3B 5529  35.617  28.246   7.953
 5170POPC   C4B 5530  35.598  28.222   7.653
 5171POPC   NC3 5531  40.821  32.202   9.453
 5171POPC   PO4 5532  40.753  32.247   9.153
 5171POPC   GL1 5533  40.799  32.224   8.853
 5171POPC   GL2 5534  40.684  32.337   8.853
 5171POPC   C1A 5535  40.744  32.251   8.553
 5171POPC   D2A 5536  40.754  32.228   8.253
 5171POPC   C3A 5537  40.767  32.210   7.953
 5171POPC   C4A 5538  40.780  32.276   7.653
 5171POPC   C1B 5539  40.672  32.495   8.553
 5171POPC   C2B 5540  40.625  32.492   8.253
 5171POPC   C3B 5541  40.689  32.506   7.953
 5171POPC   C4B 5542  40.674  32.463   7.653
 5172POPC   NC3 5543  44.613  40.734   9.453
 5172POPC   PO4 5544  44.635  40.784   9.153
 5172POPC   GL1 5545  44.692  40.742   8.853
 5172POPC   GL2 5546  44.762  40.887   8.853
 5172POPC   C1A 5547  44.654  40.822   8.553
 5172POPC   D2A 5548  44.703  40.792   8.253
 5172POPC   C3A 5549  44.666  40.773   7.953
 5172POPC   C4A 5550  44.619  40.815   7.653
 5172POPC   C1B 5551  44.812  41.026   8.553
 5172POPC   C2B 5552  44.770  41.003   8.253
 5172POPC   C3B 5553  44.795  41.027   7.953
 5172POPC   C4B 5554  44.834  41.008   7.653
 5173POPC   NC3 5555   4.300   2.015   9.453
 5173POPC   PO4 5556   4.291   1.971   9.153
 5173POPC   GL1 5557   4.354   1.999   8.853
 5173POPC   GL2 5558   4.447   1.993   8.853
 5173POPC   C1A 5559   4.364   1.986   8.553
 5173POPC   D2A 5560   4.271   1.986   8.253
 5173POPC   C3A 5561   4.355   2.025   7.953
 5173POPC   C4A 5562   4.321   2.000   7.653
 5173POPC   C1B 5563   4.599   2.107   8.553
 5173POPC   C2B 5564   4.593   2.111   8.253
 5173POPC   C3B 5565   4.551   2.119   7.953
 5173POPC   C4B 5566   4.574   2.043   7.653
 5174POPC   NC3 5567  24.528  36.096   9.453
 5174POPC   PO4 5568  24.500  36.089   9.153
 5174POPC   GL1 5569  24.496  36.143   8.853
 5174POPC   GL2 5570  24.321  36.092   8.853
 5174POPC   C1A 5571  24.534  36.123   8.553
 5174POPC   D2A 5572  24.532  36.098   8.253
 5174POPC   C3A 5573  24.473  36.129   7.953
 5174POPC   C4A 5574  24.448  36.154   7.653
 5174POPC   C1B 5575  24.258  36.128   8.553
 5174POPC   C2B 5576  24.269  36.068   8.253
 5174POPC   C3B 5577  24.268  36.064   7.953
 5174POPC   C4B 5578  24.268  36.067   7.653
 5175POPC   NC3 5579  31.432   6.624   9.453
 5175POPC   PO4 5580  31.491   6.681   9.153
 5175POPC   GL1 5581  31.466   6.645   8.853
 5175POPC   GL2 5582  31.610   6.644   8.853
 5175POPC   C1A 5583  31.492   6.681   8.553
 5175POPC   D2A 5584  31.466   6.660   8.253
 5175POPC   C3A 5585  31.480   6.597   7.953
 5175POPC   C4A 5586  31.482   6.645   7.653
 5175POPC   C1B 5587  31.758   6.569   8.553
 5175POPC   C2B 5588  31.738   6.608   8.253
 5175POPC   C3B 5589  31.740   6.604   7.953
 5175POPC   C4B 5590  31.763   6.562   7.653
 5176POPC   NC3 5591  28.333  34.548   9.453
 5176POPC   PO4 5592  28.395  34.590   9.153
 5176POPC   GL1 5593  28.361  34.617   8.853
 5176POPC   GL2 5594  28.218  34.560   8.853
 5176POPC   C1A 5595  28.414  34.575   8.553
 5176POPC   D2A 5596  28.411  34.617   8.253
 5176POPC   C3A 5597  28.363  34.613   7.953
 5176POPC   C4A 5598  28.370  34.609   7.653
 5176POPC   C1B 5599  28.101  34.523   8.553
 5176POPC   C2B 5600  28.130  34.600   8.253
 5176POPC   C3B 5601  28.096  34.522   7.953
 5176POPC   C4B 5602  28.127  34.545   7.653
 5177POPC   NC3 5603  24.514  24.442   9.453
 5177POPC   PO4 5604  24.484  24.480   9.153
 5177POPC   GL1 5605  24.480  24.516   8.853
 5177POPC   GL2 5606  24.564  24.542   8.853
 5177POPC   C1A 5607  24.486  24.516   8.553
 5177POPC   D2A 5608  24.515  24.466   8.253
 5177POPC   C3A 5609  24.516  24.486   7.953
 5177POPC   C4A 5610  24.519  24.501   7.653
 5177POPC   C1B 5611  24.726  24.664   8.553
 5177POPC   C2B 5612  24.691  24.667   8.253
 5177POPC   C3B 5613  24.710  24.664   7.953
 5177POPC   C4B 5614  24.643  24.665   7.653
 5178POPC   NC3 5615  24.539   5.871   9.453
 5178POPC   PO4 5616  24.514   5.914   9.153
 5178POPC   GL1 5617  24.463   5.828   8.853
 5178POPC   GL2 5618  24.450   6.024   8.853
 5178POPC   C1A 5619  24.537   5.862   8.553
 5178POPC   D2A 5620  24.501   5.844   8.253
 5178POPC   C3A 5621  24.442   5.863   7.953
 5178POPC   C4A 5622  24.492   5.836   7.653
 5178POPC   C1B 5623  24.501   6.108   8.553
 5178POPC   C2B 5624  24.420   6.101   8.253
 5178POPC   C3B 5625  24.420   6.142   7.953
 5178POPC   C4B 5626  24.479   6.125   7.653
 5179POPC   NC3 5627  29.896  39.272   9.453
 5179POPC   PO4 5628  29.906  39.188   9.153
 5179POPC   GL1 5629  29.939  39.206   8.853
 5179POPC   GL2 5630  29.807  39.109   8.853
 5179POPC   C1A 5631  29.888  39.252   8.553
 5179POPC   D2A 5632  29.922  39.255   8.253
 5179POPC   C3A 5633  29.935  39.258   7.953
 5179POPC   C4A 5634  29.930  39.237   7.653
 5179POPC   C1B 5635  29.748  39.099   8.553
 5179POPC   C2B 5636  29.736  39.057   8.253
 5179POPC   C3B 5637  29.751  39.043   7.953
 5179POPC   C4B 5638  29.749  39.086   7.653
 5180POPC   NC3 5639  16.727  33.844   9.453
 5180POPC   PO4 5640  16.761  33.755   9.153
 5180POPC   GL1 5641  16.713  33.805   8.853
 5180POPC   GL2 5642  16.707  33.948   8.853
 5180POPC   C1A 5643  16.688  33.758   8.553
 5180POPC   D2A 5644  16.716  33.849   8.253
 5180POPC   C3A 5645  16.735  33.833   7.953
 5180POPC   C4A 5646  16.682  33.814   7.653
 5180POPC   C1B 5647  16.596  33.997   8.553
 5180POPC   C2B 5648  16.642  34.001   8.253
 5180POPC   C3B 5649  16.661  34.046   7.953
 5180POPC   C4B 5650  16.654  33.984   7.653
 5181POPC   NC3 5651  32.225  19.010   9.453
 5181POPC   PO4 5652  32.242  19.035   9.153
 5181POPC   GL1 5653  32.294  19.022   8.853
 5181POPC   GL2 5654  32.206  18.950   8.853
 5181POPC   C1A 5655  32.254  19.084   8.553
 5181POPC   D2A 5656  32.232  19.016   8.253
 5181POPC   C3A 5657  32.220  19.056   7.953
 5181POPC   C4A 5658  32.239  19.080   7.653
 5181POPC   C1B 5659  32.191  18.824   8.553
 5181POPC   C2B 5660  32.241  18.853   8.253
 5181POPC   C3B 5661  32.220  18.783   7.953
 5181POPC   C4B 5662  32.173  18.860   7.653
 5182POPC   NC3 5663  31.496  42.310   9.453
 5182POPC   PO4 5664  31.481  42.382   9.153
 5182POPC   GL1 5665  31.454  42.288   8.853
 5182POPC   GL2 5666  31.574  42.426   8.853
 5182POPC   C1A 5667  31.510  42.309   8.553
 5182POPC   D2A 5668  31.431  42.365   8.253
 5182POPC   C3A 5669  31.427  42.366   7.953
 5182POPC   C4A 5670  31.442  42.380   7.653
 5182POPC   C1B 5671  31.634  42.509   8.553
 5182POPC   C2B 5672  31.616  42.540   8.253
 5182POPC   C3B 5673  31.649  42.480   7.953
 5182POPC   C4B 5674  31.621  42.549   7.653
 5183POPC   NC3 5675  12.824  43.099   9.453
 5183POPC   PO4 5676  12.820  43.062   9.153
 5183POPC   GL1 5677  12.884  43.137   8.853
 5183POPC   GL2 5678  12.739  43.123   8.853
 5183POPC   C1A 5679  12.832  43.153   8.553
 5183POPC   D2A 5680  12.805  43.065   8.253
 5183POPC   C3A 5681  12.874  43.123   7.953
 5183POPC   C4A 5682  12.820  43.150   7.653
 5183POPC   C1B 5683  12.588  43.119   8.553
 5183POPC   C2B 5684  12.653  43.091   8.253
 5183POPC   C3B 5685  12.568  43.111   7.953
 5183POPC   C4B 5686  12.575  43.114   7.653
 5184POPC   NC3 5687   1.195   4.299   9.453
 5184POPC   PO4 5688   1.166   4.364   9.153
 5184POPC   GL1 5689   1.180   4.340   8.853
 5184POPC   GL2 5690   1.294   4.383   8.853
 5184POPC   C1A 5691   1.249   4.352   8.553
 5184POPC   D2A 5692   1.202   4.323   8.253
 5184POPC   C3A 5693   1.177   4.278   7.953
 5184POPC   C4A 5694   1.166   4.360   7.653
 5184POPC   C1B 5695   1.394   4.468   8.553
 5184POPC   C2B 5696   1.443   4.425   8.253
 5184POPC   C3B 5697   1.402   4.505   7.953
 5184POPC   C4B 5698   1.390   4.442   7.653
 5185POPC   NC3 5699  21.396   4.311   9.453
 5185POPC   PO4 5700  21.383   4.286   9.153
 5185POPC   GL1 5701  21.412   4.308   8.853
 5185POPC   GL2 5702  21.287   4.324   8.853
 5185POPC   C1A 5703  21.354   4.283   8.553
 5185POPC   D2A 5704  21.409   4.357   8.253
 5185POPC   C3A 5705  21.401   4.323   7.953
 5185POPC   C4A 5706  21.379   4.357   7.653
 5185POPC   C1B 5707  21.175   4.226   8.553
 5185POPC   C2B 5708  21.109   4.290   8.253
 5185POPC   C3B 5709  21.146   4.276   7.953
 5185POPC   C4B 5710  21.158   4.234   7.653
 5186POPC   NC3 5711  22.968  37.677   9.453
 5186POPC   PO4 5712  22.948  37.717   9.153
 5186POPC   GL1 5713  22.934  37.669   8.853
 5186POPC   GL2 5714  22.855  37.526   8.853
 5186POPC   C1A 5715  22.974  37.715   8.553
 5186POPC   D2A 5716  22.923  37.634   8.253
 5186POPC   C3A 5717  22.959  37.686   7.953
 5186POPC   C4A 5718  22.950  37.647   7.653
 5186POPC   C1B 5719  22.865  37.450   8.553
 5186POPC   C2B 5720  22.850  37.462   8.253
 5186POPC   C3B 5721  22.798  37.498   7.953
 5186POPC   C4B 5722  22.861  37.423   7.653
 5187POPC   NC3 5723  34.588  30.687   9.453
 5187POPC   PO4 5724  34.576  30.723   9.153
 5187POPC   GL1 5725  34.570  30.656   8.853
 5187POPC   GL2 5726  34.632  30.755   8.853
 5187POPC   C1A 5727  34.593  30.695   8.553
 5187POPC   D2A 5728  34.556  30.718   8.253
 5187POPC   C3A 5729  34.624  30.714   7.953
 5187POPC   C4A 5730  34.601  30.732   7.653
 5187POPC   C1B 5731  34.672  30.923   8.553
 5187POPC   C2B 5732  34.676  30.904   8.253
 5187POPC   C3B 5733  34.720  30.866   7.953
 5187POPC   C4B 5734  34.689  30.871   7.653
 5188POPC   NC3 5735  41.588  17.516   9.453
 5188POPC   PO4 5736  41.576  17.542   9.153
 5188POPC   GL1 5737  41.534  17.474   8.853
 5188POPC   GL2 5738  41.554  17.673   8.853
 5188POPC   C1A 5739  41.523  17.532   8.553
 5188POPC   D2A 5740  41.594  17.527   8.253
 5188POPC   C3A 5741  41.586  17.541   7.953
 5188POPC   C4A 5742  41.583  17.542   7.653
 5188POPC   C1B 5743  41.484  17.717   8.553
 5188POPC   C2B 5744  41.518  17.760   8.253
 5188POPC   C3B 5745  41.521  17.701   7.953
 5188POPC   C4B 5746  41.526  17.718   7.653
 5189POPC   NC3 5747  43.121  19.027   9.453
 5189POPC   PO4 5748  43.160  19.107   9.153
 5189POPC   GL1 5749  43.116  19.042   8.853
 5189POPC   GL2 5750  43.168  19.169   8.853
 5189POPC   C1A 5751  43.111  19.093   8.553
 5189POPC   D2A 5752  43.064  19.025   8.253
 5189POPC   C3A 5753  43.082  19.024   7.953
 5189POPC   C4A 5754  43.077  19.026   7.653
 5189POPC   C1B 5755  43.178  19.233   8.553
 5189POPC   C2B 5756  43.218  19.317   8.253
 5189POPC   C3B 5757  43.209  19.324   7.953
 5189POPC   C4B 5758  43.208  19.317   7.653
 5190POPC   NC3 5759   8.169  36.122   9.453
 5190POPC   PO4 5760   8.225  36.150   9.153
 5190POPC   GL1 5761   8.169  36.150   8.853
 5190POPC   GL2 5762   8.212  35.996   8.853
 5190POPC   C1A 5763   8.156  36.107   8.553
 5190POPC   D2A 5764   8.157  36.155   8.253
 5190POPC   C3A 5765   8.216  36.108   7.953
 5190POPC   C4A 5766   8.174  36.089   7.653
 5190POPC   C1B 5767   8.267  35.895   8.553
 5190POPC   C2B 5768   8.228  35.892   8.253
 5190POPC   C3B 5769   8.291  35.849   7.953
 5190POPC   C4B 5770   8.266  35.885   7.653
 5191POPC   NC3 5771  29.953  40.770   9.453
 5191POPC   PO4 5772  29.890  40.749   9.153
 5191POPC   GL1 5773  29.951  40.758   8.853
 5191POPC   GL2 5774  30.037  40.843   8.853
 5191POPC   C1A 5775  29.933  40.785   8.553
 5191POPC   D2A 5776  29.908  40.798   8.253
 5191POPC   C3A 5777  29.876  40.751   7.953
 5191POPC   C4A 5778  29.906  40.750   7.653
 5191POPC   C1B 5779  30.157  40.855   8.553
 5191POPC   C2B 5780  30.189  40.848   8.253
 5191POPC   C3B 5781  30.129  40.810   7.953
 5191POPC   C4B 5782  30.163  40.796   7.653
 5192POPC   NC3 5783  42.316  13.624   9.453
 5192POPC   PO4 5784  42.298  13.604   9.153
 5192POPC   GL1 5785  42.308  13.672   8.853
 5192POPC   GL2 5786  42.353  13.776   8.853
 5192POPC   C1A 5787  42.311  13.599   8.553
 5192POPC   D2A 5788  42.382  13.646   8.253
 5192POPC   C3A 5789  42.299  13.580   7.953
 5192POPC   C4A 5790  42.344  13.614   7.653
 5192POPC   C1B 5791  42.389  13.914   8.553
 5192POPC   C2B 5792  42.363  13.919   8.253
 5192POPC   C3B 5793  42.323  13.881   7.953
 5192POPC   C4B 5794  42.347  13.866   7.653
 5193POPC   NC3 5795  38.434   5.045   9.453
 5193POPC   PO4 5796  38.432   5.111   9.153
 5193POPC   GL1 5797  38.463   5.110   8.853
 5193POPC   GL2 5798  38.573   5.217   8.853
 5193POPC   C1A 5799  38.468   5.137   8.553
 5193POPC   D2A 5800  38.447   5.049   8.253
 5193POPC   C3A 5801  38.486   5.121   7.953
 5193POPC   C4A 5802  38.443   5.045   7.653
 5193POPC   C1B 5803  38.608   5.212   8.553
 5193POPC   C2B 5804  38.656   5.222   8.253
 5193POPC   C3B 5805  38.626   5.235   7.953
 5193POPC   C4B 5806  38.605   5.279   7.653
 5194POPC   NC3 5807   6.606  38.496   9.453
 5194POPC   PO4 5808   6.692  38.411   9.153
 5194POPC   GL1 5809   6.617  38.472   8.853
 5194POPC   GL2 5810   6.560  38.385   8.853
 5194POPC   C1A 5811   6.614  38.440   8.553
 5194POPC   D2A 5812   6.596  38.420   8.253
 5194POPC   C3A 5813   6.671  38.482   7.953
 5194POPC   C4A 5814   6.609  38.419   7.653
 5194POPC   C1B 5815   6.417  38.422   8.553
 5194POPC   C2B 5816   6.425  38.380   8.253
 5194POPC   C3B 5817   6.350  38.429   7.953
 5194POPC   C4B 5818   6.399  38.369   7.653
 5195POPC   NC3 5819  36.099  42.365   9.453
 5195POPC   PO4 5820  36.153  42.299   9.153
 5195POPC   GL1 5821  36.114  42.326   8.853
 5195POPC   GL2 5822  36.090  42.395   8.853
 5195POPC   C1A 5823  36.108  42.330   8.553
 5195POPC   D2A 5824  36.116  42.365   8.253
 5195POPC   C3A 5825  36.100  42.336   7.953
 5195POPC   C4A 5826  36.162  42.378   7.653
 5195POPC   C1B 5827  35.985  42.556   8.553
 5195POPC   C2B 5828  35.975  42.501   8.253
 5195POPC   C3B 5829  35.956  42.529   7.953
 5195POPC   C4B 5830  35.923  42.541   7.653
 5196POPC   NC3 5831  32.975  17.540   9.453
 5196POPC   PO4 5832  32.995  17.475   9.153
 5196POPC   GL1 5833  32.984  17.507   8.853
 5196POPC   GL2 5834  32.925  17.623   8.853
 5196POPC   C1A 5835  33.007  17.488   8.553
 5196POPC   D2A 5836  33.043  17.484   8.253
 5196POPC   C3A 5837  33.033  17.496   7.953
 5196POPC   C4A 5838  33.062  17.487   7.653
 5196POPC   C1B 5839  32.804  17.646   8.553
 5196POPC   C2B 5840  32.862  17.642   8.253
 5196POPC   C3B 5841  32.833  17.632   7.953
 5196POPC   C4B 5842  32.830  17.688   7.653
 5197POPC   NC3 5843  34.527  17.487   9.453
 5197POPC   PO4 5844  34.618  17.487   9.153
 5197POPC   GL1 5845  34.544  17.555   8.853
 5197POPC   GL2 5846  34.659  17.440   8.853
 5197POPC   C1A 5847  34.543  17.542   8.553
 5197POPC   D2A 5848  34.619  17.532   8.253
 5197POPC   C3A 5849  34.608  17.532   7.953
 5197POPC   C4A 5850  34.602  17.518   7.653
 5197POPC   C1B 5851  34.765  17.381   8.553
 5197POPC   C2B 5852  34.819  17.331   8.253
 5197POPC   C3B 5853  34.817  17.403   7.953
 5197POPC   C4B 5854  34.733  17.348   7.653
 5198POPC   NC3 5855   6.650  30.705   9.453
 5198POPC   PO4 5856   6.598  30.681   9.153
 5198POPC   GL1 5857   6.615  30.733   8.853
 5198POPC   GL2 5858   6.589  30.792   8.853
 5198POPC   C1A 5859   6.648  30.740   8.553
 5198POPC   D2A 5860   6.662  30.728   8.253
 5198POPC   C3A 5861   6.595  30.682   7.953
 5198POPC   C4A 5862   6.617  30.744   7.653
 5198POPC   C1B 5863   6.649  30.946   8.553
 5198POPC   C2B 5864   6.619  30.973   8.253
 5198POPC   C3B 5865   6.627  30.906   7.953
 5198POPC   C4B 5866   6.640  30.984   7.653
 5199POPC   NC3 5867  21.426  43.136   9.453
 5199POPC   PO4 5868  21.342  43.116   9.153
 5199POPC   GL1 5869  21.377  43.101   8.853
 5199POPC   GL2 5870  21.438  43.030   8.853
 5199POPC   C1A 5871  21.343  43.127   8.553
 5199POPC   D2A 5872  21.362  43.134   8.253
 5199POPC   C3A 5873  21.359  43.093   7.953
 5199POPC   C4A 5874  21.394  43.118   7.653
 5199POPC   C1B 5875  21.559  42.863   8.553
 5199POPC   C2B 5876  21.540  42.914   8.253
 5199POPC   C3B 5877  21.547  42.868   7.953
 5199POPC   C4B 5878  21.505  42.900   7.653
 5200POPC   NC3 5879  37.649  20.572   9.453
 5200POPC   PO4 5880  37.644  20.602   9.153
 5200POPC   GL1 5881  37.717  20.606   8.853
 5200POPC   GL2 5882  37.848  20.590   8.853
 5200POPC   C1A 5883  37.690  20.622   8.553
 5200POPC   D2A 5884  37.662  20.614   8.253
 5200POPC   C3A 5885  37.634  20.594   7.953
 5200POPC   C4A 5886  37.642  20.572   7.653
 5200POPC   C1B 5887  37.907  20.544   8.553
 5200POPC   C2B 5888  37.908  20.524   8.253
 5200POPC   C3B 5889  37.931  20.508   7.953
 5200POPC   C4B 5890  37.881  20.556   7.653
 5201POPC   NC3 5891   1.951  21.404   9.453
 5201POPC   PO4 5892   1.976  21.398   9.153
 5201POPC   GL1 5893   2.016  21.373   8.853
 5201POPC   GL2 5894   2.164  21.428   8.853
 5201POPC   C1A 5895   1.949  21.367   8.553
 5201POPC   D2A 5896   1.992  21.420   8.253
 5201POPC   C3A 5897   1.946  21.394   7.953
 5201POPC   C4A 5898   1.944  21.384   7.653
 5201POPC   C1B 5899   2.268  21.374   8.553
 5201POPC   C2B 5900   2.192  21.381   8.253
 5201POPC   C3B 5901   2.230  21.400   7.953
 5201POPC   C4B 5902   2.194  21.416   7.653
 5202POPC   NC3 5903  12.853   9.758   9.453
 5202POPC   PO4 5904  12.890   9.707   9.153
 5202POPC   GL1 5905  12.804   9.768   8.853
 5202POPC   GL2 5906  12.778   9.702   8.853
 5202POPC   C1A 5907  12.819   9.717   8.553
 5202POPC   D2A 5908  12.881   9.706   8.253
 5202POPC   C3A 5909  12.876   9.746   7.953
 5202POPC   C4A 5910  12.832   9.744   7.653
 5202POPC   C1B 5911  12.644   9.590   8.553
 5202POPC   C2B 5912  12.639   9.545   8.253
 5202POPC   C3B 5913  12.640   9.608   7.953
 5202POPC   C4B 5914  12.700   9.572   7.653
 5203POPC   NC3 5915  34.572  40.793   9.453
 5203POPC   PO4 5916  34.535  40.777   9.153
 5203POPC   GL1 5917  34.531  40.795   8.853
 5203POPC   GL2 5918  34.679  40.774   8.853
 5203POPC   C1A 5919  34.572  40.745   8.553
 5203POPC   D2A 5920  34.609  40.763   8.253
 5203POPC   C3A 5921  34.534  40.742   7.953
 5203POPC   C4A 5922  34.556  40.776   7.653
 5203POPC   C1B 5923  34.828  40.650   8.553
 5203POPC   C2B 5924  34.780  40.672   8.253
 5203POPC   C3B 5925  34.810  40.710   7.953
 5203POPC   C4B 5926  34.776  40.683   7.653
 5204POPC   NC3 5927   7.432  33.794   9.453
 5204POPC   PO4 5928   7.467  33.805   9.153
 5204POPC   GL1 5929   7.379  33.818   8.853
 5204POPC   GL2 5930   7.365  33.689   8.853
 5204POPC   C1A 5931   7.470  33.760   8.553
 5204POPC   D2A 5932   7.455  33.810   8.253
 5204POPC   C3A 5933   7.389  33.788   7.953
 5204POPC   C4A 5934   7.468  33.792   7.653
 5204POPC   C1B 5935   7.310  33.560   8.553
 5204POPC   C2B 5936   7.334  33.562   8.253
 5204POPC   C3B 5937   7.309  33.597   7.953
 5204POPC   C4B 5938   7.325  33.594   7.653
 5205POPC   NC3 5939   1.944  41.545   9.453
 5205POPC   PO4 5940   2.036  41.522   9.153
 5205POPC   GL1 5941   2.037  41.573   8.853
 5205POPC   GL2 5942   2.067  41.484   8.853
 5205POPC   C1A 5943   2.013  41.540   8.553
 5205POPC   D2A 5944   1.975  41.591   8.253
 5205POPC   C3A 5945   1.945  41.532   7.953
 5205POPC   C4A 5946   1.964  41.523   7.653
 5205POPC   C1B 5947   2.133  41.354   8.553
 5205POPC   C2B 5948   2.095  41.408   8.253
 5205POPC   C3B 5949   2.130  41.361   7.953
 5205POPC   C4B 5950   2.119  41.328   7.653
 5206POPC   NC3 5951  33.009  13.661   9.453
 5206POPC   PO4 5952  33.045  13.579   9.153
 5206POPC   GL1 5953  33.025  13.645   8.853
 5206POPC   GL2 5954  33.112  13.667   8.853
 5206POPC   C1A 5955  32.990  13.668   8.553
 5206POPC   D2A 5956  33.067  13.619   8.253
 5206POPC   C3A 5957  33.042  13.606   7.953
 5206POPC   C4A 5958  32.999  13.655   7.653
 5206POPC   C1B 5959  33.293  13.588   8.553
 5206POPC   C2B 5960  33.284  13.604   8.253
 5206POPC   C3B 5961  33.280  13.605   7.953
 5206POPC   C4B 5962  33.260  13.589   7.653
 5207POPC   NC3 5963  31.423  29.158   9.453
 5207POPC   PO4 5964  31.512  29.159   9.153
 5207POPC   GL1 5965  31.426  29.181   8.853
 5207POPC   GL2 5966  31.435  29.004   8.853
 5207POPC   C1A 5967  31.521  29.145   8.553
 5207POPC   D2A 5968  31.473  29.124   8.253
 5207POPC   C3A 5969  31.517  29.110   7.953
 5207POPC   C4A 5970  31.465  29.186   7.653
 5207POPC   C1B 5971  31.370  28.953   8.553
 5207POPC   C2B 5972  31.394  28.888   8.253
 5207POPC   C3B 5973  31.389  28.872   7.953
 5207POPC   C4B 5974  31.329  28.889   7.653
 5208POPC   NC3 5975  36.121   4.327   9.453
 5208POPC   PO4 5976  36.157   4.344   9.153
 5208POPC   GL1 5977  36.123   4.279   8.853
 5208POPC   GL2 5978  36.059   4.403   8.853
 5208POPC   C1A 5979  36.175   4.355   8.553
 5208POPC   D2A 5980  36.084   4.340   8.253
 5208POPC   C3A 5981  36.153   4.321   7.953
 5208POPC   C4A 5982  36.167   4.278   7.653
 5208POPC   C1B 5983  35.930   4.396   8.553
 5208POPC   C2B 5984  35.932   4.466   8.253
 5208POPC   C3B 5985  35.915   4.484   7.953
 5208POPC   C4B 5986  35.895   4.449   7.653
 5209POPC   NC3 5987   4.300  34.608   9.453
 5209POPC   PO4 5988   4.352  34.576   9.153
 5209POPC   GL1 5989   4.270  34.543   8.853
 5209POPC   GL2 5990   4.160  34.559   8.853
 5209POPC   C1A 5991   4.340  34.562   8.553
 5209POPC   D2A 5992   4.351  34.544   8.253
 5209POPC   C3A 5993   4.273  34.526   7.953
 5209POPC   C4A 5994   4.301  34.579   7.653
 5209POPC   C1B 5995   4.130  34.455   8.553
 5209POPC   C2B 5996   4.125  34.524   8.253
 5209POPC   C3B 5997   4.051  34.493   7.953
 5209POPC   C4B 5998   4.106  34.512   7.653
 5210POPC   NC3 5999  26.057  32.255   9.453
 5210POPC   PO4 6000  26.053  32.244   9.153
 5210POPC   GL1 6001  26.028  32.214   8.853
 5210POPC   GL2 6002  26.189  32.181   8.853
 5210POPC   C1A 6003  26.077  32.263   8.553
 5210POPC   D2A 6004  26.001  32.298   8.253
 5210POPC   C3A 6005  26.015  32.294   7.953
 5210POPC   C4A 6006  26.000  32.241   7.653
 5210POPC   C1B 6007  26.281  32.229   8.553
 5210POPC   C2B 6008  26.316  32.182   8.253
 5210POPC   C3B 6009  26.271  32.214   7.953
 5210POPC   C4B 6010  26.256  32.185   7.653
 5211POPC   NC3 6011  17.539   1.231   9.453
 5211POPC   PO4 6012  17.462   1.183   9.153
 5211POPC   GL1 6013  17.504   1.200   8.853
 5211POPC   GL2 6014  17.642   1.279   8.853
 5211POPC   C1A 6015  17.532   1.186   8.553
 5211POPC   D2A 6016  17.555   1.169   8.253
 5211POPC   C3A 6017  17.504   1.196   7.953
 5211POPC   C4A 6018  17.480   1.223   7.653
 5211POPC   C1B 6019  17.722   1.376   8.553
 5211POPC   C2B 6020  17.724   1.342   8.253
 5211POPC   C3B 6021  17.676   1.321   7.953
 5211POPC   C4B 6022  17.677   1.355   7.653
 5212POPC   NC3 6023  38.481   7.427   9.453
 5212POPC   PO4 6024  38.438   7.402   9.153
 5212POPC   GL1 6025  38.428   7.397   8.853
 5212POPC   GL2 6026  38.413   7.521   8.853
 5212POPC   C1A 6027  38.434   7.435   8.553
 5212POPC   D2A 6028  38.476   7.391   8.253
 5212POPC   C3A 6029  38.482   7.460   7.953
 5212POPC   C4A 6030  38.465   7.466   7.653
 5212POPC   C1B 6031  38.417   7.706   8.553
 5212POPC   C2B 6032  38.465   7.644   8.253
 5212POPC   C3B 6033  38.418   7.638   7.953
 5212POPC   C4B 6034  38.486   7.702   7.653
 5213POPC   NC3 6035  24.461  14.449   9.453
 5213POPC   PO4 6036  24.534  14.362   9.153
 5213POPC   GL1 6037  24.481  14.379   8.853
 5213POPC   GL2 6038  24.326  14.389   8.853
 5213POPC   C1A 6039  24.450  14.373   8.553
 5213POPC   D2A 6040  24.527  14.356   8.253
 5213POPC   C3A 6041  24.485  14.375   7.953
 5213POPC   C4A 6042  24.471  14.354   7.653
 5213POPC   C1B 6043  24.281  14.426   8.553
 5213POPC   C2B 6044  24.275  14.377   8.253
 5213POPC   C3B 6045  24.193  14.355   7.953
 5213POPC   C4B 6046  24.217  14.407   7.653
 5214POPC   NC3 6047   5.910   0.472   9.453
 5214POPC   PO4 6048   5.843   0.437   9.153
 5214POPC   GL1 6049   5.886   0.431   8.853
 5214POPC   GL2 6050   5.789   0.534   8.853
 5214POPC   C1A 6051   5.898   0.396   8.553
 5214POPC   D2A 6052   5.822   0.414   8.253
 5214POPC   C3A 6053   5.840   0.450   7.953
 5214POPC   C4A 6054   5.879   0.458   7.653
 5214POPC   C1B 6055   5.688   0.569   8.553
 5214POPC   C2B 6056   5.602   0.557   8.253
 5214POPC   C3B 6057   5.686   0.561   7.953
 5214POPC   C4B 6058   5.672   0.508   7.653
 5215POPC   NC3 6059  35.342  20.611   9.453
 5215POPC   PO4 6060  35.336  20.628   9.153
 5215POPC   GL1 6061  35.398  20.632   8.853
 5215POPC   GL2 6062  35.202  20.609   8.853
 5215POPC   C1A 6063  35.366  20.619   8.553
 5215POPC   D2A 6064  35.389  20.611   8.253
 5215POPC   C3A 6065  35.351  20.614   7.953
 5215POPC   C4A 6066  35.343  20.604   7.653
 5215POPC   C1B 6067  35.110  20.569   8.553
 5215POPC   C2B 6068  35.139  20.602   8.253
 5215POPC   C3B 6069  35.111  20.646   7.953
 5215POPC   C4B 6070  35.058  20.605   7.653
 5216POPC   NC3 6071  43.894  37.718   9.453
 5216POPC   PO4 6072  43.880  37.715   9.153
 5216POPC   GL1 6073  43.894  37.704   8.853
 5216POPC   GL2 6074  43.748  37.755   8.853
 5216POPC   C1A 6075  43.842  37.685   8.553
 5216POPC   D2A 6076  43.857  37.667   8.253
 5216POPC   C3A 6077  43.862  37.729   7.953
 5216POPC   C4A 6078  43.857  37.632   7.653
 5216POPC   C1B 6079  43.645  37.776   8.553
 5216POPC   C2B 6080  43.706  37.786   8.253
 5216POPC   C3B 6081  43.646  37.840   7.953
 5216POPC   C4B 6082  43.686  37.847   7.653
 5217POPC   NC3 6083  40.734   5.116   9.453
 5217POPC   PO4 6084  40.756   5.055   9.153
 5217POPC   GL1 6085  40.757   5.046   8.853
 5217POPC   GL2 6086  40.911   5.118   8.853
 5217POPC   C1A 6087  40.770   5.143   8.553
 5217POPC   D2A 6088  40.827   5.116   8.253
 5217POPC   C3A 6089  40.756   5.121   7.953
 5217POPC   C4A 6090  40.780   5.049   7.653
 5217POPC   C1B 6091  40.975   5.214   8.553
 5217POPC   C2B 6092  41.002   5.255   8.253
 5217POPC   C3B 6093  40.974   5.200   7.953
 5217POPC   C4B 6094  40.971   5.214   7.653
 5218POPC   NC3 6095  35.337  22.967   9.453
 5218POPC   PO4 6096  35.345  22.951   9.153
 5218POPC   GL1 6097  35.307  22.930   8.853
 5218POPC   GL2 6098  35.276  22.793   8.853
 5218POPC   C1A 6099  35.343  22.948   8.553
 5218POPC   D2A 6100  35.357  22.913   8.253
 5218POPC   C3A 6101  35.345  22.927   7.953
 5218POPC   C4A 6102  35.321  22.910   7.653
 5218POPC   C1B 6103  35.182  22.748   8.553
 5218POPC   C2B 6104  35.188  22.764   8.253
 5218POPC   C3B 6105  35.251  22.731   7.953
 5218POPC   C4B 6106  35.255  22.731   7.653
 5219POPC   NC3 6107   9.014  12.853   9.453
 5219POPC   PO4 6108   8.983  12.822   9.153
 5219POPC   GL1 6109   8.979  12.871   8.853
 5219POPC   GL2 6110   8.913  12.938   8.853
 5219POPC   C1A 6111   8.981  12.812   8.553
 5219POPC   D2A 6112   8.958  12.871   8.253
 5219POPC   C3A 6113   9.000  12.901   7.953
 5219POPC   C4A 6114   8.947  12.855   7.653
 5219POPC   C1B 6115   8.873  13.082   8.553
 5219POPC   C2B 6116   8.843  13.064   8.253
 5219POPC   C3B 6117   8.854  13.059   7.953
 5219POPC   C4B 6118   8.919  13.128   7.653
 5220POPC   NC3 6119  29.955  40.030   9.453
 5220POPC   PO4 6120  29.874  40.009   9.153
 5220POPC   GL1 6121  29.969  39.964   8.853
 5220POPC   GL2 6122  29.980  39.883   8.853
 5220POPC   C1A 6123  29.923  39.970   8.553
 5220POPC   D2A 6124  29.903  39.958   8.253
 5220POPC   C3A 6125  29.930  40.035   7.953
 5220POPC   C4A 6126  29.920  40.035   7.653
 5220POPC   C1B 6127  29.987  39.723   8.553
 5220POPC   C2B 6128  29.936  39.793   8.253
 5220POPC   C3B 6129  29.975  39.719   7.953
 5220POPC   C4B 6130  29.942  39.798   7.653
 5221POPC   NC3 6131  43.922   1.210   9.453
 5221POPC   PO4 6132  43.923   1.251   9.153
 5221POPC   GL1 6133  43.839   1.185   8.853
 5221POPC   GL2 6134  43.930   1.360   8.853
 5221POPC   C1A 6135  43.853   1.185   8.553
 5221POPC   D2A 6136  43.866   1.191   8.253
 5221POPC   C3A 6137  43.852   1.216   7.953
 5221POPC   C4A 6138  43.918   1.191   7.653
 5221POPC   C1B 6139  43.937   1.446   8.553
 5221POPC   C2B 6140  43.857   1.469   8.253
 5221POPC   C3B 6141  43.930   1.488   7.953
 5221POPC   C4B 6142  43.906   1.456   7.653
 5222POPC   NC3 6143   3.586  17.553   9.453
 5222POPC   PO4 6144   3.515  17.500   9.153
 5222POPC   GL1 6145   3.557  17.478   8.853
 5222POPC   GL2 6146   3.423  17.439   8.853
 5222POPC   C1A 6147   3.576  17.506   8.553
 5222POPC   D2A 6148   3.587  17.479   8.253
 5222POPC   C3A 6149   3.505  17.518   7.953
 5222POPC   C4A 6150   3.591  17.480   7.653
 5222POPC   C1B 6151   3.351  17.298   8.553
 5222POPC   C2B 6152   3.430  17.296   8.253
 5222POPC   C3B 6153   3.438  17.339   7.953
 5222POPC   C4B 6154   3.345  17.302   7.653
 5223POPC   NC3 6155  36.895  42.318   9.453
 5223POPC   PO4 6156  36.858  42.351   9.153
 5223POPC   GL1 6157  36.903  42.291   8.853
 5223POPC   GL2 6158  37.037  42.436   8.853
 5223POPC   C1A 6159  36.918  42.326   8.553
 5223POPC   D2A 6160  36.918  42.291   8.253
 5223POPC   C3A 6161  36.931  42.377   7.953
 5223POPC   C4A 6162  36.893  42.297   7.653
 5223POPC   C1B 6163  37.063  42.553   8.553
 5223POPC   C2B 6164  37.095  42.499   8.253
 5223POPC   C3B 6165  37.101  42.489   7.953
 5223POPC   C4B 6166  37.065  42.552   7.653
 5224POPC   NC3 6167  41.548  43.129   9.453
 5224POPC   PO4 6168  41.592  43.111   9.153
 5224POPC   GL1 6169  41.565  43.083   8.853
 5224POPC   GL2 6170  41.439  43.217   8.853
 5224POPC   C1A 6171  41.530  43.116   8.553
 5224POPC   D2A 6172  41.519  43.089   8.253
 5224POPC   C3A 6173  41.530  43.160   7.953
 5224POPC   C4A 6174  41.542  43.082   7.653
 5224POPC   C1B 6175  41.338  43.287   8.553
 5224POPC   C2B 6176  41.375  43.194   8.253
 5224POPC   C3B 6177  41.332  43.208   7.953
 5224POPC   C4B 6178  41.361  43.240   7.653
 5225POPC   NC3 6179  29.928  23.720   9.453
 5225POPC   PO4 6180  29.932  23.749   9.153
 5225POPC   GL1 6181  29.897  23.667   8.853
 5225POPC   GL2 6182  30.022  23.709   8.853
 5225POPC   C1A 6183  29.942  23.702   8.553
 5225POPC   D2A 6184  29.921  23.688   8.253
 5225POPC   C3A 6185  29.916  23.675   7.953
 5225POPC   C4A 6186  29.928  23.676   7.653
 5225POPC   C1B 6187  30.145  23.765   8.553
 5225POPC   C2B 6188  30.168  23.725   8.253
 5225POPC   C3B 6189  30.205  23.731   7.953
 5225POPC   C4B 6190  30.186  23.766   7.653
 5226POPC   NC3 6191  35.346  19.882   9.453
 5226POPC   PO4 6192  35.354  19.878   9.153
 5226POPC   GL1 6193  35.352  19.860   8.853
 5226POPC   GL2 6194  35.372  19.914   8.853
 5226POPC   C1A 6195  35.388  19.873   8.553
 5226POPC   D2A 6196  35.399  19.835   8.253
 5226POPC   C3A 6197  35.384  19.787   7.953
 5226POPC   C4A 6198  35.321  19.806   7.653
 5226POPC   C1B 6199  35.473  20.111   8.553
 5226POPC   C2B 6200  35.445  20.111   8.253
 5226POPC   C3B 6201  35.488  20.034   7.953
 5226POPC   C4B 6202  35.484  20.052   7.653
 5227POPC   NC3 6203  18.257  25.225   9.453
 5227POPC   PO4 6204  18.250  25.286   9.153
 5227POPC   GL1 6205  18.309  25.220   8.853
 5227POPC   GL2 6206  18.414  25.375   8.853
 5227POPC   C1A 6207  18.264  25.274   8.553
 5227POPC   D2A 6208  18.323  25.224   8.253
 5227POPC   C3A 6209  18.264  25.290   7.953
 5227POPC   C4A 6210  18.270  25.296   7.653
 5227POPC   C1B 6211  18.431  25.406   8.553
 5227POPC   C2B 6212  18.520  25.409   8.253
 5227POPC   C3B 6213  18.520  25.454   7.953
 5227POPC   C4B 6214  18.444  25.462   7.653
 5228POPC   NC3 6215   2.804  19.837   9.453
 5228POPC   PO4 6216   2.742  19.793   9.153
 5228POPC   GL1 6217   2.773  19.791   8.853
 5228POPC   GL2 6218   2.875  19.861   8.853
 5228POPC   C1A 6219   2.736  19.817   8.553
 5228POPC   D2A 6220   2.813  19.854   8.253
 5228POPC   C3A 6221   2.798  19.844   7.953
 5228POPC   C4A 6222   2.808  19.852   7.653
 5228POPC   C1B 6223   2.942  20.012   8.553
 5228POPC   C2B 6224   3.007  19.968   8.253
 5228POPC   C3B 6225   3.005  19.992   7.953
 5228POPC   C4B 6226   3.002  19.996   7.653
 5229POPC   NC3 6227  25.219  16.752   9.453
 5229POPC   PO4 6228  25.314  16.705   9.153
 5229POPC   GL1 6229  25.254  16.707   8.853
 5229POPC   GL2 6230  25.390  16.632   8.853
 5229POPC   C1A 6231  25.237  16.739   8.553
 5229POPC   D2A 6232  25.281  16.696   8.253
 5229POPC   C3A 6233  25.303  16.724   7.953
 5229POPC   C4A 6234  25.238  16.762   7.653
 5229POPC   C1B 6235  25.497  16.572   8.553
 5229POPC   C2B 6236  25.467  16.547   8.253
 5229POPC   C3B 6237  25.463  16.544   7.953
 5229POPC   C4B 6238  25.429  16.571   7.653
 5230POPC   NC3 6239  28.390   3.550   9.453
 5230POPC   PO4 6240  28.376   3.496   9.153
 5230POPC   GL1 6241  28.352   3.568   8.853
 5230POPC   GL2 6242  28.436   3.635   8.853
 5230POPC   C1A 6243  28.340   3.581   8.553
 5230POPC   D2A 6244  28.333   3.505   8.253
 5230POPC   C3A 6245  28.373   3.561   7.953
 5230POPC   C4A 6246  28.342   3.553   7.653
 5230POPC   C1B 6247  28.469   3.779   8.553
 5230POPC   C2B 6248  28.536   3.768   8.253
 5230POPC   C3B 6249  28.525   3.765   7.953
 5230POPC   C4B 6250  28.532   3.724   7.653
 5231POPC   NC3 6251  11.282  28.367   9.453
 5231POPC   PO4 6252  11.277  28.410   9.153
 5231POPC   GL1 6253  11.253  28.323   8.853
 5231POPC   GL2 6254  11.281  28.500   8.853
 5231POPC   C1A 6255  11.258  28.405   8.553
 5231POPC   D2A 6256  11.275  28.323   8.253
 5231POPC   C3A 6257  11.333  28.346   7.953
 5231POPC   C4A 6258  11.308  28.365   7.653
 5231POPC   C1B 6259  11.339  28.659   8.553
 5231POPC   C2B 6260  11.397  28.623   8.253
 5231POPC   C3B 6261  11.360  28.582   7.953
 5231POPC   C4B 6262  11.402  28.570   7.653
 5232POPC   NC3 6263  43.868  16.770   9.453
 5232POPC   PO4 6264  43.902  16.689   9.153
 5232POPC   GL1 6265  43.845  16.688   8.853
 5232POPC   GL2 6266  43.926  16.645   8.853
 5232POPC   C1A 6267  43.852  16.696   8.553
 5232POPC   D2A 6268  43.852  16.689   8.253
 5232POPC   C3A 6269  43.926  16.707   7.953
 5232POPC   C4A 6270  43.865  16.721   7.653
 5232POPC   C1B 6271  43.847  16.481   8.553
 5232POPC   C2B 6272  43.842  16.528   8.253
 5232POPC   C3B 6273  43.924  16.463   7.953
 5232POPC   C4B 6274  43.916  16.508   7.653
 5233POPC   NC3 6275  38.461  22.146   9.453
 5233POPC   PO4 6276  38.471  22.202   9.153
 5233POPC   GL1 6277  38.407  22.125   8.853
 5233POPC   GL2 6278  38.428  22.059   8.853
 5233POPC   C1A 6279  38.412  22.114   8.553
 5233POPC   D2A 6280  38.411  22.186   8.253
 5233POPC   C3A 6281  38.477  22.175   7.953
 5233POPC   C4A 6282  38.481  22.203   7.653
 5233POPC   C1B 6283  38.356  21.930   8.553
 5233POPC   C2B 6284  38.335  21.938   8.253
 5233POPC   C3B 6285  38.302  21.929   7.953
 5233POPC   C4B 6286  38.302  21.954   7.653
 5234POPC   NC3 6287   2.814  16.688   9.453
 5234POPC   PO4 6288   2.750  16.685   9.153
 5234POPC   GL1 6289   2.775  16.738   8.853
 5234POPC   GL2 6290   2.679  16.610   8.853
 5234POPC   C1A 6291   2.741  16.763   8.553
 5234POPC   D2A 6292   2.776  16.745   8.253
 5234POPC   C3A 6293   2.739  16.763   7.953
 5234POPC   C4A 6294   2.812  16.756   7.653
 5234POPC   C1B 6295   2.672  16.499   8.553
 5234POPC   C2B 6296   2.638  16.473   8.253
 5234POPC   C3B 6297   2.701  16.462   7.953
 5234POPC   C4B 6298   2.719  16.503   7.653
 5235POPC   NC3 6299  30.728  35.330   9.453
 5235POPC   PO4 6300  30.700  35.343   9.153
 5235POPC   GL1 6301  30.734  35.386   8.853
 5235POPC   GL2 6302  30.691  35.261   8.853
 5235POPC   C1A 6303  30.654  35.316   8.553
 5235POPC   D2A 6304  30.651  35.376   8.253
 5235POPC   C3A 6305  30.711  35.399   7.953
 5235POPC   C4A 6306  30.743  35.322   7.653
 5235POPC   C1B 6307  30.618  35.079   8.553
 5235POPC   C2B 6308  30.684  35.087   8.253
 5235POPC   C3B 6309  30.621  35.132   7.953
 5235POPC   C4B 6310  30.687  35.116   7.653
 5236POPC   NC3 6311  42.308  27.574   9.453
 5236POPC   PO4 6312  42.373  27.631   9.153
 5236POPC   GL1 6313  42.315  27.600   8.853
 5236POPC   GL2 6314  42.441  27.651   8.853
 5236POPC   C1A 6315  42.304  27.580   8.553
 5236POPC   D2A 6316  42.341  27.607   8.253
 5236POPC   C3A 6317  42.329  27.637   7.953
 5236POPC   C4A 6318  42.300  27.589   7.653
 5236POPC   C1B 6319  42.559  27.755   8.553
 5236POPC   C2B 6320  42.511  27.749   8.253
 5236POPC   C3B 6321  42.559  27.725   7.953
 5236POPC   C4B 6322  42.508  27.749   7.653
 5237POPC   NC3 6323  43.864  29.102   9.453
 5237POPC   PO4 6324  43.892  29.138   9.153
 5237POPC   GL1 6325  43.851  29.120   8.853
 5237POPC   GL2 6326  44.007  29.074   8.853
 5237POPC   C1A 6327  43.849  29.111   8.553
 5237POPC   D2A 6328  43.923  29.129   8.253
 5237POPC   C3A 6329  43.901  29.141   7.953
 5237POPC   C4A 6330  43.865  29.133   7.653
 5237POPC   C1B 6331  44.079  29.020   8.553
 5237POPC   C2B 6332  44.106  29.059   8.253
 5237POPC   C3B 6333  44.130  29.028   7.953
 5237POPC   C4B 6334  44.109  29.065   7.653
 5238POPC   NC3 6335  33.009  31.515   9.453
 5238POPC   PO4 6336  33.043  31.436   9.153
 5238POPC   GL1 6337  33.012  31.448   8.853
 5238POPC   GL2 6338  33.122  31.521   8.853
 5238POPC   C1A 6339  32.995  31.447   8.553
 5238POPC   D2A 6340  33.063  31.441   8.253
 5238POPC   C3A 6341  33.039  31.475   7.953
 5238POPC   C4A 6342  33.027  31.423   7.653
 5238POPC   C1B 6343  33.191  31.570   8.553
 5238POPC   C2B 6344  33.255  31.585   8.253
 5238POPC   C3B 6345  33.284  31.640   7.953
 5238POPC   C4B 6346  33.211  31.628   7.653
 5239POPC   NC3 6347   8.968  43.923   9.453
 5239POPC   PO4 6348   8.927  43.879   9.153
 5239POPC   GL1 6349   8.991  43.886   8.853
 5239POPC   GL2 6350   8.840  43.975   8.853
 5239POPC   C1A 6351   8.967  43.838   8.553
 5239POPC   D2A 6352   8.944  43.927   8.253
 5239POPC   C3A 6353   8.986  43.900   7.953
 5239POPC   C4A 6354   8.989  43.867   7.653
 5239POPC   C1B 6355   8.701  44.042   8.553
 5239POPC   C2B 6356   8.735  43.990   8.253
 5239POPC   C3B 6357   8.784  43.990   7.953
 5239POPC   C4B 6358   8.704  44.015   7.653
 5240POPC   NC3 6359   6.659  13.670   9.453
 5240POPC   PO4 6360   6.633  13.600   9.153
 5240POPC   GL1 6361   6.605  13.623   8.853
 5240POPC   GL2 6362   6.542  13.686   8.853
 5240POPC   C1A 6363   6.669  13.639   8.553
 5240POPC   D2A 6364   6.677  13.597   8.253
 5240POPC   C3A 6365   6.598  13.602   7.953
 5240POPC   C4A 6366   6.633  13.668   7.653
 5240POPC   C1B 6367   6.468  13.789   8.553
 5240POPC   C2B 6368   6.482  13.831   8.253
 5240POPC   C3B 6369   6.433  13.815   7.953
 5240POPC   C4B 6370   6.506  13.836   7.653
 5241POPC   NC3 6371  22.180  41.540   9.453
 5241POPC   PO4 6372  22.187  41.521   9.153
 5241POPC   GL1 6373  22.157  41.590   8.853
 5241POPC   GL2 6374  22.115  41.480   8.853
 5241POPC   C1A 6375  22.125  41.571   8.553
 5241POPC   D2A 6376  22.195  41.562   8.253
 5241POPC   C3A 6377  22.114  41.583   7.953
 5241POPC   C4A 6378  22.179  41.514   7.653
 5241POPC   C1B 6379  22.017  41.373   8.553
 5241POPC   C2B 6380  22.010  41.313   8.253
 5241POPC   C3B 6381  22.038  41.302   7.953
 5241POPC   C4B 6382  22.021  41.348   7.653
 5242POPC   NC3 6383  41.564  36.879   9.453
 5242POPC   PO4 6384  41.591  36.927   9.153
 5242POPC   GL1 6385  41.550  36.921   8.853
 5242POPC   GL2 6386  41.629  36.825   8.853
 5242POPC   C1A 6387  41.558  36.947   8.553
 5242POPC   D2A 6388  41.566  36.937   8.253
 5242POPC   C3A 6389  41.554  36.916   7.953
 5242POPC   C4A 6390  41.606  36.938   7.653
 5242POPC   C1B 6391  41.829  36.779   8.553
 5242POPC   C2B 6392  41.802  36.760   8.253
 5242POPC   C3B 6393  41.792  36.825   7.953
 5242POPC   C4B 6394  41.751  36.827   7.653
 5243POPC   NC3 6395  15.984   5.063   9.453
 5243POPC   PO4 6396  15.923   5.072   9.153
 5243POPC   GL1 6397  15.944   5.108   8.853
 5243POPC   GL2 6398  15.894   5.248   8.853
 5243POPC   C1A 6399  15.949   5.107   8.553
 5243POPC   D2A 6400  15.954   5.089   8.253
 5243POPC   C3A 6401  15.999   5.107   7.953
 5243POPC   C4A 6402  15.997   5.129   7.653
 5243POPC   C1B 6403  15.864   5.276   8.553
 5243POPC   C2B 6404  15.835   5.288   8.253
 5243POPC   C3B 6405  15.856   5.333   7.953
 5243POPC   C4B 6406  15.894   5.335   7.653
 5244POPC   NC3 6407  44.623  34.576   9.453
 5244POPC   PO4 6408  44.673  34.593   9.153
 5244POPC   GL1 6409  44.613  34.544   8.853
 5244POPC   GL2 6410  44.551  34.477   8.853
 5244POPC   C1A 6411  44.695  34.544   8.553
 5244POPC   D2A 6412  44.689  34.558   8.253
 5244POPC   C3A 6413  44.656  34.542   7.953
 5244POPC   C4A 6414  44.650  34.571   7.653
 5244POPC   C1B 6415  44.475  34.412   8.553
 5244POPC   C2B 6416  44.489  34.409   8.253
 5244POPC   C3B 6417  44.475  34.393   7.953
 5244POPC   C4B 6418  44.449  34.375   7.653
 5245POPC   NC3 6419  41.594   6.673   9.453
 5245POPC   PO4 6420  41.568   6.674   9.153
 5245POPC   GL1 6421  41.543   6.666   8.853
 5245POPC   GL2 6422  41.534   6.525   8.853
 5245POPC   C1A 6423  41.591   6.632   8.553
 5245POPC   D2A 6424  41.562   6.655   8.253
 5245POPC   C3A 6425  41.529   6.613   7.953
 5245POPC   C4A 6426  41.549   6.674   7.653
 5245POPC   C1B 6427  41.512   6.390   8.553
 5245POPC   C2B 6428  41.496   6.363   8.253
 5245POPC   C3B 6429  41.536   6.445   7.953
 5245POPC   C4B 6430  41.514   6.446   7.653
 5246POPC   NC3 6431   2.737   8.149   9.453
 5246POPC   PO4 6432   2.800   8.174   9.153
 5246POPC   GL1 6433   2.744   8.154   8.853
 5246POPC   GL2 6434   2.853   8.229   8.853
 5246POPC   C1A 6435   2.804   8.184   8.553
 5246POPC   D2A 6436   2.724   8.191   8.253
 5246POPC   C3A 6437   2.747   8.168   7.953
 5246POPC   C4A 6438   2.732   8.239   7.653
 5246POPC   C1B 6439   2.996   8.303   8.553
 5246POPC   C2B 6440   3.019   8.266   8.253
 5246POPC   C3B 6441   3.036   8.239   7.953
 5246POPC   C4B 6442   3.030   8.251   7.653
 5247POPC   NC3 6443  18.272  23.718   9.453
 5247POPC   PO4 6444  18.238  23.689   9.153
 5247POPC   GL1 6445  18.319  23.741   8.853
 5247POPC   GL2 6446  18.326  23.645   8.853
 5247POPC   C1A 6447  18.297  23.676   8.553
 5247POPC   D2A 6448  18.238  23.684   8.253
 5247POPC   C3A 6449  18.319  23.700   7.953
 5247POPC   C4A 6450  18.278  23.729   7.653
 5247POPC   C1B 6451  18.463  23.485   8.553
 5247POPC   C2B 6452  18.415  23.462   8.253
 5247POPC   C3B 6453  18.443  23.498   7.953
 5247POPC   C4B 6454  18.443  23.475   7.653
 5248POPC   NC3 6455  11.279   5.138   9.453
 5248POPC   PO4 6456  11.271   5.094   9.153
 5248POPC   GL1 6457  11.255   5.051   8.853
 5248POPC   GL2 6458  11.377   5.014   8.853
 5248POPC   C1A 6459  11.330   5.068   8.553
 5248POPC   D2A 6460  11.346   5.109   8.253
 5248POPC   C3A 6461  11.348   5.136   7.953
 5248POPC   C4A 6462  11.263   5.102   7.653
 5248POPC   C1B 6463  11.408   4.873   8.553
 5248POPC   C2B 6464  11.383   4.858   8.253
 5248POPC   C3B 6465  11.392   4.826   7.953
 5248POPC   C4B 6466  11.389   4.863   7.653
 5249POPC   NC3 6467  12.089   8.995   9.453
 5249POPC   PO4 6468  12.056   8.969   9.153
 5249POPC   GL1 6469  12.027   8.980   8.853
 5249POPC   GL2 6470  12.177   8.882   8.853
 5249POPC   C1A 6471  12.071   8.961   8.553
 5249POPC   D2A 6472  12.071   9.009   8.253
 5249POPC   C3A 6473  12.040   9.015   7.953
 5249POPC   C4A 6474  12.092   8.952   7.653
 5249POPC   C1B 6475  12.294   8.850   8.553
 5249POPC   C2B 6476  12.277   8.785   8.253
 5249POPC   C3B 6477  12.275   8.754   7.953
 5249POPC   C4B 6478  12.232   8.785   7.653
 5250POPC   NC3 6479  10.502  13.614   9.453
 5250POPC   PO4 6480  10.545  13.620   9.153
 5250POPC   GL1 6481  10.562  13.658   8.853
 5250POPC   GL2 6482  10.607  13.596   8.853
 5250POPC   C1A 6483  10.485  13.646   8.553
 5250POPC   D2A 6484  10.535  13.591   8.253
 5250POPC   C3A 6485  10.484  13.589   7.953
 5250POPC   C4A 6486  10.479  13.677   7.653
 5250POPC   C1B 6487  10.736  13.487   8.553
 5250POPC   C2B 6488  10.711  13.519   8.253
 5250POPC   C3B 6489  10.741  13.522   7.953
 5250POPC   C4B 6490  10.697  13.451   7.653
 5251POPC   NC3 6491  30.709  26.810   9.453
 5251POPC   PO4 6492  30.668  26.819   9.153
 5251POPC   GL1 6493  30.692  26.863   8.853
 5251POPC   GL2 6494  30.769  26.857   8.853
 5251POPC   C1A 6495  30.680  26.799   8.553
 5251POPC   D2A 6496  30.734  26.823   8.253
 5251POPC   C3A 6497  30.687  26.811   7.953
 5251POPC   C4A 6498  30.682  26.791   7.653
 5251POPC   C1B 6499  30.879  27.002   8.553
 5251POPC   C2B 6500  30.944  26.999   8.253
 5251POPC   C3B 6501  30.873  26.939   7.953
 5251POPC   C4B 6502  30.875  27.002   7.653
 5252POPC   NC3 6503  37.671  24.518   9.453
 5252POPC   PO4 6504  37.681  24.509   9.153
 5252POPC   GL1 6505  37.691  24.465   8.853
 5252POPC   GL2 6506  37.729  24.574   8.853
 5252POPC   C1A 6507  37.701  24.489   8.553
 5252POPC   D2A 6508  37.705  24.475   8.253
 5252POPC   C3A 6509  37.716  24.481   7.953
 5252POPC   C4A 6510  37.687  24.503   7.653
 5252POPC   C1B 6511  37.773  24.743   8.553
 5252POPC   C2B 6512  37.762  24.704   8.253
 5252POPC   C3B 6513  37.709  24.775   7.953
 5252POPC   C4B 6514  37.751  24.768   7.653
 5253POPC   NC3 6515  40.734  14.393   9.453
 5253POPC   PO4 6516  40.749  14.406   9.153
 5253POPC   GL1 6517  40.802  14.363   8.853
 5253POPC   GL2 6518  40.670  14.369   8.853
 5253POPC   C1A 6519  40.809  14.363   8.553
 5253POPC   D2A 6520  40.743  14.373   8.253
 5253POPC   C3A 6521  40.765  14.422   7.953
 5253POPC   C4A 6522  40.754  14.416   7.653
 5253POPC   C1B 6523  40.529  14.331   8.553
 5253POPC   C2B 6524  40.511  14.308   8.253
 5253POPC   C3B 6525  40.597  14.294   7.953
 5253POPC   C4B 6526  40.505  14.320   7.653
 5254POPC   NC3 6527  28.333  41.544   9.453
 5254POPC   PO4 6528  28.415  41.539   9.153
 5254POPC   GL1 6529  28.399  41.554   8.853
 5254POPC   GL2 6530  28.463  41.679   8.853
 5254POPC   C1A 6531  28.407  41.526   8.553
 5254POPC   D2A 6532  28.388  41.546   8.253
 5254POPC   C3A 6533  28.369  41.603   7.953
 5254POPC   C4A 6534  28.411  41.570   7.653
 5254POPC   C1B 6535  28.479  41.779   8.553
 5254POPC   C2B 6536  28.445  41.791   8.253
 5254POPC   C3B 6537  28.513  41.824   7.953
 5254POPC   C4B 6538  28.474  41.772   7.653
 5255POPC   NC3 6539  17.485  31.484   9.453
 5255POPC   PO4 6540  17.470  31.473   9.153
 5255POPC   GL1 6541  17.512  31.434   8.853
 5255POPC   GL2 6542  17.516  31.607   8.853
 5255POPC   C1A 6543  17.547  31.457   8.553
 5255POPC   D2A 6544  17.483  31.469   8.253
 5255POPC   C3A 6545  17.483  31.498   7.953
 5255POPC   C4A 6546  17.557  31.457   7.653
 5255POPC   C1B 6547  17.523  31.748   8.553
 5255POPC   C2B 6548  17.551  31.728   8.253
 5255POPC   C3B 6549  17.555  31.702   7.953
 5255POPC   C4B 6550  17.528  31.682   7.653
 5256POPC   NC3 6551  18.267   3.564   9.453
 5256POPC   PO4 6552  18.253   3.586   9.153
 5256POPC   GL1 6553  18.261   3.510   8.853
 5256POPC   GL2 6554  18.136   3.540   8.853
 5256POPC   C1A 6555  18.287   3.506   8.553
 5256POPC   D2A 6556  18.312   3.519   8.253
 5256POPC   C3A 6557  18.266   3.550   7.953
 5256POPC   C4A 6558  18.255   3.584   7.653
 5256POPC   C1B 6559  18.067   3.554   8.553
 5256POPC   C2B 6560  18.005   3.539   8.253
 5256POPC   C3B 6561  18.078   3.515   7.953
 5256POPC   C4B 6562  17.987   3.484   7.653
 5257POPC   NC3 6563  13.637   8.939   9.453
 5257POPC   PO4 6564  13.606   9.016   9.153
 5257POPC   GL1 6565  13.631   8.930   8.853
 5257POPC   GL2 6566  13.659   8.891   8.853
 5257POPC   C1A 6567  13.629   8.935   8.553
 5257POPC   D2A 6568  13.653   8.984   8.253
 5257POPC   C3A 6569  13.579   8.981   7.953
 5257POPC   C4A 6570  13.622   9.015   7.653
 5257POPC   C1B 6571  13.713   8.743   8.553
 5257POPC   C2B 6572  13.680   8.741   8.253
 5257POPC   C3B 6573  13.652   8.718   7.953
 5257POPC   C4B 6574  13.667   8.777   7.653
 5258POPC   NC3 6575  26.794   4.340   9.453
 5258POPC   PO4 6576  26.803   4.273   9.153
 5258POPC   GL1 6577  26.832   4.327   8.853
 5258POPC   GL2 6578  26.883   4.434   8.853
 5258POPC   C1A 6579  26.863   4.338   8.553
 5258POPC   D2A 6580  26.840   4.309   8.253
 5258POPC   C3A 6581  26.852   4.313   7.953
 5258POPC   C4A 6582  26.849   4.277   7.653
 5258POPC   C1B 6583  26.941   4.539   8.553
 5258POPC   C2B 6584  26.994   4.540   8.253
 5258POPC   C3B 6585  27.007   4.472   7.953
 5258POPC   C4B 6586  26.966   4.531   7.653
 5259POPC   NC3 6587  39.279   1.221   9.453
 5259POPC   PO4 6588  39.201   1.213   9.153
 5259POPC   GL1 6589  39.238   1.169   8.853
 5259POPC   GL2 6590  39.338   1.141   8.853
 5259POPC   C1A 6591  39.243   1.191   8.553
 5259POPC   D2A 6592  39.252   1.222   8.253
 5259POPC   C3A 6593  39.232   1.253   7.953
 5259POPC   C4A 6594  39.281   1.166   7.653
 5259POPC   C1B 6595  39.407   1.027   8.553
 5259POPC   C2B 6596  39.337   0.995   8.253
 5259POPC   C3B 6597  39.377   1.042   7.953
 5259POPC   C4B 6598  39.421   0.976   7.653
 5260POPC   NC3 6599  36.942   5.847   9.453
 5260POPC   PO4 6600  36.898   5.852   9.153
 5260POPC   GL1 6601  36.886   5.917   8.853
 5260POPC   GL2 6602  36.908   5.983   8.853
 5260POPC   C1A 6603  36.910   5.884   8.553
 5260POPC   D2A 6604  36.914   5.898   8.253
 5260POPC   C3A 6605  36.950   5.850   7.953
 5260POPC   C4A 6606  36.859   5.901   7.653
 5260POPC   C1B 6607  36.788   6.118   8.553
 5260POPC   C2B 6608  36.881   6.137   8.253
 5260POPC   C3B 6609  36.852   6.081   7.953
 5260POPC   C4B 6610  36.801   6.124   7.653
 5261POPC   NC3 6611  19.037  31.460   9.453
 5261POPC   PO4 6612  19.044  31.509   9.153
 5261POPC   GL1 6613  19.095  31.511   8.853
 5261POPC   GL2 6614  19.018  31.363   8.853
 5261POPC   C1A 6615  19.103  31.488   8.553
 5261POPC   D2A 6616  19.025  31.505   8.253
 5261POPC   C3A 6617  19.049  31.447   7.953
 5261POPC   C4A 6618  19.053  31.455   7.653
 5261POPC   C1B 6619  18.856  31.277   8.553
 5261POPC   C2B 6620  18.854  31.267   8.253
 5261POPC   C3B 6621  18.900  31.265   7.953
 5261POPC   C4B 6622  18.950  31.324   7.653
 5262POPC   NC3 6623   5.837  43.121   9.453
 5262POPC   PO4 6624   5.862  43.085   9.153
 5262POPC   GL1 6625   5.915  43.091   8.853
 5262POPC   GL2 6626   5.996  43.072   8.853
 5262POPC   C1A 6627   5.877  43.153   8.553
 5262POPC   D2A 6628   5.884  43.144   8.253
 5262POPC   C3A 6629   5.829  43.147   7.953
 5262POPC   C4A 6630   5.844  43.145   7.653
 5262POPC   C1B 6631   6.054  42.993   8.553
 5262POPC   C2B 6632   6.124  42.971   8.253
 5262POPC   C3B 6633   6.037  43.014   7.953
 5262POPC   C4B 6634   6.073  42.940   7.653
 5263POPC   NC3 6635  31.505  16.697   9.453
 5263POPC   PO4 6636  31.437  16.759   9.153
 5263POPC   GL1 6637  31.516  16.730   8.853
 5263POPC   GL2 6638  31.540  16.597   8.853
 5263POPC   C1A 6639  31.502  16.693   8.553
 5263POPC   D2A 6640  31.423  16.734   8.253
 5263POPC   C3A 6641  31.468  16.742   7.953
 5263POPC   C4A 6642  31.506  16.704   7.653
 5263POPC   C1B 6643  31.665  16.525   8.553
 5263POPC   C2B 6644  31.704  16.538   8.253
 5263POPC   C3B 6645  31.696  16.552   7.953
 5263POPC   C4B 6646  31.676  16.599   7.653
 5264POPC   NC3 6647   0.411   5.906   9.453
 5264POPC   PO4 6648   0.434   5.899   9.153
 5264POPC   GL1 6649   0.406   5.913   8.853
 5264POPC   GL2 6650   0.333   5.844   8.853
 5264POPC   C1A 6651   0.442   5.826   8.553
 5264POPC   D2A 6652   0.455   5.862   8.253
 5264POPC   C3A 6653   0.426   5.865   7.953
 5264POPC   C4A 6654   0.448   5.847   7.653
 5264POPC   C1B 6655   0.182   5.891   8.553
 5264POPC   C2B 6656   0.151   5.908   8.253
 5264POPC   C3B 6657   0.170   5.829   7.953
 5264POPC   C4B 6658   0.231   5.843   7.653
 5265POPC   NC3 6659  11.326  17.512   9.453
 5265POPC   PO4 6660  11.324  17.500   9.153
 5265POPC   GL1 6661  11.254  17.504   8.853
 5265POPC   GL2 6662  11.257  17.610   8.853
 5265POPC   C1A 6663  11.288  17.480   8.553
 5265POPC   D2A 6664  11.297  17.520   8.253
 5265POPC   C3A 6665  11.273  17.507   7.953
 5265POPC   C4A 6666  11.294  17.554   7.653
 5265POPC   C1B 6667  11.216  17.737   8.553
 5265POPC   C2B 6668  11.174  17.690   8.253
 5265POPC   C3B 6669  11.181  17.747   7.953
 5265POPC   C4B 6670  11.193  17.685   7.653
 5266POPC   NC3 6671  23.726  36.949   9.453
 5266POPC   PO4 6672  23.763  36.867   9.153
 5266POPC   GL1 6673  23.759  36.947   8.853
 5266POPC   GL2 6674  23.619  36.823   8.853
 5266POPC   C1A 6675  23.743  36.924   8.553
 5266POPC   D2A 6676  23.761  36.920   8.253
 5266POPC   C3A 6677  23.758  36.932   7.953
 5266POPC   C4A 6678  23.712  36.868   7.653
 5266POPC   C1B 6679  23.556  36.714   8.553
 5266POPC   C2B 6680  23.503  36.705   8.253
 5266POPC   C3B 6681  23.543  36.786   7.953
 5266POPC   C4B 6682  23.541  36.730   7.653
 5267POPC   NC3 6683  16.707  43.907   9.453
 5267POPC   PO4 6684  16.755  43.882   9.153
 5267POPC   GL1 6685  16.757  43.903   8.853
 5267POPC   GL2 6686  16.706  43.975   8.853
 5267POPC   C1A 6687  16.682  43.902   8.553
 5267POPC   D2A 6688  16.690  43.865   8.253
 5267POPC   C3A 6689  16.746  43.859   7.953
 5267POPC   C4A 6690  16.750  43.891   7.653
 5267POPC   C1B 6691  16.703  44.177   8.553
 5267POPC   C2B 6692  16.729  44.088   8.253
 5267POPC   C3B 6693  16.665  44.093   7.953
 5267POPC   C4B 6694  16.718  44.170   7.653
 5268POPC   NC3 6695  37.639  10.571   9.453
 5268POPC   PO4 6696  37.663  10.552   9.153
 5268POPC   GL1 6697  37.699  10.556   8.853
 5268POPC   GL2 6698  37.673  10.404   8.853
 5268POPC   C1A 6699  37.704  10.510   8.553
 5268POPC   D2A 6700  37.717  10.545   8.253
 5268POPC   C3A 6701  37.662  10.502   7.953
 5268POPC   C4A 6702  37.690  10.548   7.653
 5268POPC   C1B 6703  37.594  10.239   8.553
 5268POPC   C2B 6704  37.589  10.244   8.253
 5268POPC   C3B 6705  37.663  10.273   7.953
 5268POPC   C4B 6706  37.667  10.280   7.653
 5269POPC   NC3 6707  33.051  14.369   9.453
 5269POPC   PO4 6708  33.035  14.401   9.153
 5269POPC   GL1 6709  33.036  14.367   8.853
 5269POPC   GL2 6710  32.910  14.440   8.853
 5269POPC   C1A 6711  32.996  14.359   8.553
 5269POPC   D2A 6712  33.063  14.416   8.253
 5269POPC   C3A 6713  33.045  14.387   7.953
 5269POPC   C4A 6714  33.064  14.411   7.653
 5269POPC   C1B 6715  32.841  14.539   8.553
 5269POPC   C2B 6716  32.797  14.586   8.253
 5269POPC   C3B 6717  32.827  14.542   7.953
 5269POPC   C4B 6718  32.866  14.565   7.653
 5270POPC   NC3 6719  12.802  15.968   9.453
 5270POPC   PO4 6720  12.884  15.957   9.153
 5270POPC   GL1 6721  12.846  15.923   8.853
 5270POPC   GL2 6722  12.774  15.891   8.853
 5270POPC   C1A 6723  12.871  16.002   8.553
 5270POPC   D2A 6724  12.876  15.954   8.253
 5270POPC   C3A 6725  12.874  15.922   7.953
 5270POPC   C4A 6726  12.809  15.958   7.653
 5270POPC   C1B 6727  12.596  15.854   8.553
 5270POPC   C2B 6728  12.638  15.824   8.253
 5270POPC   C3B 6729  12.580  15.827   7.953
 5270POPC   C4B 6730  12.631  15.873   7.653
 5271POPC   NC3 6731  36.150   5.114   9.453
 5271POPC   PO4 6732  36.166   5.136   9.153
 5271POPC   GL1 6733  36.164   5.079   8.853
 5271POPC   GL2 6734  35.990   4.995   8.853
 5271POPC   C1A 6735  36.145   5.125   8.553
 5271POPC   D2A 6736  36.108   5.133   8.253
 5271POPC   C3A 6737  36.136   5.110   7.953
 5271POPC   C4A 6738  36.106   5.053   7.653
 5271POPC   C1B 6739  35.947   4.958   8.553
 5271POPC   C2B 6740  35.950   4.945   8.253
 5271POPC   C3B 6741  35.861   4.950   7.953
 5271POPC   C4B 6742  35.876   4.969   7.653
 5272POPC   NC3 6743   4.294  35.344   9.453
 5272POPC   PO4 6744   4.347  35.315   9.153
 5272POPC   GL1 6745   4.327  35.367   8.853
 5272POPC   GL2 6746   4.269  35.440   8.853
 5272POPC   C1A 6747   4.361  35.304   8.553
 5272POPC   D2A 6748   4.346  35.391   8.253
 5272POPC   C3A 6749   4.325  35.370   7.953
 5272POPC   C4A 6750   4.330  35.311   7.653
 5272POPC   C1B 6751   4.165  35.488   8.553
 5272POPC   C2B 6752   4.107  35.477   8.253
 5272POPC   C3B 6753   4.139  35.491   7.953
 5272POPC   C4B 6754   4.146  35.501   7.653
 5273POPC   NC3 6755  36.930  13.581   9.453
 5273POPC   PO4 6756  36.855  13.596   9.153
 5273POPC   GL1 6757  36.949  13.635   8.853
 5273POPC   GL2 6758  36.934  13.534   8.853
 5273POPC   C1A 6759  36.855  13.599   8.553
 5273POPC   D2A 6760  36.876  13.607   8.253
 5273POPC   C3A 6761  36.943  13.632   7.953
 5273POPC   C4A 6762  36.874  13.606   7.653
 5273POPC   C1B 6763  37.044  13.401   8.553
 5273POPC   C2B 6764  36.952  13.353   8.253
 5273POPC   C3B 6765  36.977  13.419   7.953
 5273POPC   C4B 6766  37.019  13.360   7.653
 5274POPC   NC3 6767   0.464  43.122   9.453
 5274POPC   PO4 6768   0.469  43.096   9.153
 5274POPC   GL1 6769   0.445  43.085   8.853
 5274POPC   GL2 6770   0.538  43.137   8.853
 5274POPC   C1A 6771   0.405  43.145   8.553
 5274POPC   D2A 6772   0.392  43.078   8.253
 5274POPC   C3A 6773   0.438  43.157   7.953
 5274POPC   C4A 6774   0.408  43.112   7.653
 5274POPC   C1B 6775   0.670  43.134   8.553
 5274POPC   C2B 6776   0.728  43.079   8.253
 5274POPC   C3B 6777   0.675  43.104   7.953
 5274POPC   C4B 6778   0.674  43.086   7.653
 5275POPC   NC3 6779   2.786  43.900   9.453
 5275POPC   PO4 6780   2.811  43.881   9.153
 5275POPC   GL1 6781   2.776  43.904   8.853
 5275POPC   GL2 6782   2.631  43.958   8.853
 5275POPC   C1A 6783   2.735  43.854   8.553
 5275POPC   D2A 6784   2.811  43.890   8.253
 5275POPC   C3A 6785   2.773  43.914   7.953
 5275POPC   C4A 6786   2.749  43.925   7.653
 5275POPC   C1B 6787   2.532  43.942   8.553
 5275POPC   C2B 6788   2.563  43.993   8.253
 5275POPC   C3B 6789   2.500  43.949   7.953
 5275POPC   C4B 6790   2.517  43.935   7.653
 5276POPC   NC3 6791   0.413  31.516   9.453
 5276POPC   PO4 6792   0.411  31.456   9.153
 5276POPC   GL1 6793   0.470  31.496   8.853
 5276POPC   GL2 6794   0.294  31.383   8.853
 5276POPC   C1A 6795   0.404  31.460   8.553
 5276POPC   D2A 6796   0.478  31.511   8.253
 5276POPC   C3A 6797   0.462  31.463   7.953
 5276POPC   C4A 6798   0.481  31.442   7.653
 5276POPC   C1B 6799   0.199  31.325   8.553
 5276POPC   C2B 6800   0.184  31.364   8.253
 5276POPC   C3B 6801   0.163  31.395   7.953
 5276POPC   C4B 6802   0.235  31.404   7.653
 5277POPC   NC3 6803  21.428  28.320   9.453
 5277POPC   PO4 6804  21.428  28.336   9.153
 5277POPC   GL1 6805  21.436  28.331   8.853
 5277POPC   GL2 6806  21.258  28.329   8.853
 5277POPC   C1A 6807  21.367  28.342   8.553
 5277POPC   D2A 6808  21.402  28.349   8.253
 5277POPC   C3A 6809  21.384  28.338   7.953
 5277POPC   C4A 6810  21.397  28.383   7.653
 5277POPC   C1B 6811  21.144  28.259   8.553
 5277POPC   C2B 6812  21.153  28.251   8.253
 5277POPC   C3B 6813  21.141  28.204   7.953
 5277POPC   C4B 6814  21.199  28.272   7.653
 5278POPC   NC3 6815  40.024  30.694   9.453
 5278POPC   PO4 6816  39.964  30.729   9.153
 5278POPC   GL1 6817  40.029  30.726   8.853
 5278POPC   GL2 6818  39.869  30.731   8.853
 5278POPC   C1A 6819  40.041  30.663   8.553
 5278POPC   D2A 6820  40.021  30.715   8.253
 5278POPC   C3A 6821  40.041  30.730   7.953
 5278POPC   C4A 6822  40.016  30.734   7.653
 5278POPC   C1B 6823  39.813  30.754   8.553
 5278POPC   C2B 6824  39.732  30.751   8.253
 5278POPC   C3B 6825  39.790  30.780   7.953
 5278POPC   C4B 6826  39.745  30.778   7.653
 5279POPC   NC3 6827  24.505  12.850   9.453
 5279POPC   PO4 6828  24.512  12.853   9.153
 5279POPC   GL1 6829  24.464  12.811   8.853
 5279POPC   GL2 6830  24.402  12.767   8.853
 5279POPC   C1A 6831  24.509  12.817   8.553
 5279POPC   D2A 6832  24.509  12.888   8.253
 5279POPC   C3A 6833  24.447  12.826   7.953
 5279POPC   C4A 6834  24.442  12.863   7.653
 5279POPC   C1B 6835  24.302  12.697   8.553
 5279POPC   C2B 6836  24.285  12.665   8.253
 5279POPC   C3B 6837  24.262  12.711   7.953
 5279POPC   C4B 6838  24.320  12.737   7.653
 5280POPC   NC3 6839  28.350  27.547   9.453
 5280POPC   PO4 6840  28.345  27.573   9.153
 5280POPC   GL1 6841  28.322  27.596   8.853
 5280POPC   GL2 6842  28.453  27.625   8.853
 5280POPC   C1A 6843  28.335  27.593   8.553
 5280POPC   D2A 6844  28.411  27.613   8.253
 5280POPC   C3A 6845  28.332  27.631   7.953
 5280POPC   C4A 6846  28.394  27.584   7.653
 5280POPC   C1B 6847  28.651  27.645   8.553
 5280POPC   C2B 6848  28.612  27.673   8.253
 5280POPC   C3B 6849  28.611  27.682   7.953
 5280POPC   C4B 6850  28.611  27.664   7.653
 5281POPC   NC3 6851   7.390   3.534   9.453
 5281POPC   PO4 6852   7.459   3.525   9.153
 5281POPC   GL1 6853   7.467   3.544   8.853
 5281POPC   GL2 6854   7.392   3.451   8.853
 5281POPC   C1A 6855   7.428   3.505   8.553
 5281POPC   D2A 6856   7.395   3.518   8.253
 5281POPC   C3A 6857   7.381   3.511   7.953
 5281POPC   C4A 6858   7.452   3.498   7.653
 5281POPC   C1B 6859   7.291   3.351   8.553
 5281POPC   C2B 6860   7.305   3.339   8.253
 5281POPC   C3B 6861   7.299   3.306   7.953
 5281POPC   C4B 6862   7.330   3.274   7.653
 5282POPC   NC3 6863  29.942  17.521   9.453
 5282POPC   PO4 6864  29.962  17.475   9.153
 5282POPC   GL1 6865  29.952  17.535   8.853
 5282POPC   GL2 6866  30.002  17.569   8.853
 5282POPC   C1A 6867  29.892  17.474   8.553
 5282POPC   D2A 6868  29.876  17.540   8.253
 5282POPC   C3A 6869  29.896  17.555   7.953
 5282POPC   C4A 6870  29.961  17.460   7.653
 5282POPC   C1B 6871  30.204  17.544   8.553
 5282POPC   C2B 6872  30.174  17.590   8.253
 5282POPC   C3B 6873  30.165  17.534   7.953
 5282POPC   C4B 6874  30.114  17.523   7.653
 5283POPC   NC3 6875  19.879  26.027   9.453
 5283POPC   PO4 6876  19.872  26.085   9.153
 5283POPC   GL1 6877  19.827  26.011   8.853
 5283POPC   GL2 6878  19.901  25.908   8.853
 5283POPC   C1A 6879  19.789  26.030   8.553
 5283POPC   D2A 6880  19.797  26.011   8.253
 5283POPC   C3A 6881  19.857  26.017   7.953
 5283POPC   C4A 6882  19.860  26.089   7.653
 5283POPC   C1B 6883  19.935  25.756   8.553
 5283POPC   C2B 6884  19.874  25.756   8.253
 5283POPC   C3B 6885  19.898  25.843   7.953
 5283POPC   C4B 6886  19.870  25.782   7.653
 5284POPC   NC3 6887   5.078  36.869   9.453
 5284POPC   PO4 6888   5.044  36.879   9.153
 5284POPC   GL1 6889   5.076  36.868   8.853
 5284POPC   GL2 6890   5.233  36.928   8.853
 5284POPC   C1A 6891   5.046  36.949   8.553
 5284POPC   D2A 6892   5.141  36.877   8.253
 5284POPC   C3A 6893   5.080  36.915   7.953
 5284POPC   C4A 6894   5.044  36.941   7.653
 5284POPC   C1B 6895   5.297  36.980   8.553
 5284POPC   C2B 6896   5.359  36.979   8.253
 5284POPC   C3B 6897   5.359  36.950   7.953
 5284POPC   C4B 6898   5.277  36.946   7.653
 5285POPC   NC3 6899  15.169   5.091   9.453
 5285POPC   PO4 6900  15.159   5.064   9.153
 5285POPC   GL1 6901  15.227   5.089   8.853
 5285POPC   GL2 6902  15.118   5.135   8.853
 5285POPC   C1A 6903  15.219   5.113   8.553
 5285POPC   D2A 6904  15.178   5.072   8.253
 5285POPC   C3A 6905  15.188   5.087   7.953
 5285POPC   C4A 6906  15.179   5.052   7.653
 5285POPC   C1B 6907  14.950   5.234   8.553
 5285POPC   C2B 6908  15.015   5.249   8.253
 5285POPC   C3B 6909  14.965   5.230   7.953
 5285POPC   C4B 6910  14.957   5.236   7.653
 5286POPC   NC3 6911  14.434  28.341   9.453
 5286POPC   PO4 6912  14.446  28.417   9.153
 5286POPC   GL1 6913  14.417  28.338   8.853
 5286POPC   GL2 6914  14.398  28.202   8.853
 5286POPC   C1A 6915  14.411  28.412   8.553
 5286POPC   D2A 6916  14.402  28.387   8.253
 5286POPC   C3A 6917  14.362  28.344   7.953
 5286POPC   C4A 6918  14.405  28.324   7.653
 5286POPC   C1B 6919  14.474  28.164   8.553
 5286POPC   C2B 6920  14.454  28.137   8.253
 5286POPC   C3B 6921  14.480  28.176   7.953
 5286POPC   C4B 6922  14.439  28.099   7.653
 5287POPC   NC3 6923   9.749   5.880   9.453
 5287POPC   PO4 6924   9.702   5.834   9.153
 5287POPC   GL1 6925   9.724   5.850   8.853
 5287POPC   GL2 6926   9.710   6.006   8.853
 5287POPC   C1A 6927   9.753   5.873   8.553
 5287POPC   D2A 6928   9.765   5.831   8.253
 5287POPC   C3A 6929   9.740   5.874   7.953
 5287POPC   C4A 6930   9.764   5.821   7.653
 5287POPC   C1B 6931   9.639   6.122   8.553
 5287POPC   C2B 6932   9.641   6.107   8.253
 5287POPC   C3B 6933   9.590   6.037   7.953
 5287POPC   C4B 6934   9.620   6.051   7.653
 5288POPC   NC3 6935   6.653  14.442   9.453
 5288POPC   PO4 6936   6.693  14.371   9.153
 5288POPC   GL1 6937   6.642  14.356   8.853
 5288POPC   GL2 6938   6.498  14.339   8.853
 5288POPC   C1A 6939   6.684  14.392   8.553
 5288POPC   D2A 6940   6.619  14.379   8.253
 5288POPC   C3A 6941   6.688  14.411   7.953
 5288POPC   C4A 6942   6.625  14.414   7.653
 5288POPC   C1B 6943   6.431  14.276   8.553
 5288POPC   C2B 6944   6.382  14.320   8.253
 5288POPC   C3B 6945   6.433  14.313   7.953
 5288POPC   C4B 6946   6.386  14.268   7.653
 5289POPC   NC3 6947  38.475  33.002   9.453
 5289POPC   PO4 6948  38.441  33.027   9.153
 5289POPC   GL1 6949  38.413  33.063   8.853
 5289POPC   GL2 6950  38.412  32.900   8.853
 5289POPC   C1A 6951  38.462  33.023   8.553
 5289POPC   D2A 6952  38.487  33.071   8.253
 5289POPC   C3A 6953  38.469  33.023   7.953
 5289POPC   C4A 6954  38.423  32.977   7.653
 5289POPC   C1B 6955  38.401  32.788   8.553
 5289POPC   C2B 6956  38.374  32.781   8.253
 5289POPC   C3B 6957  38.429  32.793   7.953
 5289POPC   C4B 6958  38.372  32.756   7.653
 5290POPC   NC3 6959   1.263  32.285   9.453
 5290POPC   PO4 6960   1.258  32.237   9.153
 5290POPC   GL1 6961   1.205  32.267   8.853
 5290POPC   GL2 6962   1.287  32.379   8.853
 5290POPC   C1A 6963   1.181  32.219   8.553
 5290POPC   D2A 6964   1.229  32.266   8.253
 5290POPC   C3A 6965   1.203  32.218   7.953
 5290POPC   C4A 6966   1.217  32.289   7.653
 5290POPC   C1B 6967   1.369  32.403   8.553
 5290POPC   C2B 6968   1.368  32.409   8.253
 5290POPC   C3B 6969   1.393  32.478   7.953
 5290POPC   C4B 6970   1.406  32.483   7.653
 5291POPC   NC3 6971   1.229  20.592   9.453
 5291POPC   PO4 6972   1.251  20.654   9.153
 5291POPC   GL1 6973   1.237  20.596   8.853
 5291POPC   GL2 6974   1.162  20.701   8.853
 5291POPC   C1A 6975   1.227  20.650   8.553
 5291POPC   D2A 6976   1.241  20.635   8.253
 5291POPC   C3A 6977   1.209  20.602   7.953
 5291POPC   C4A 6978   1.167  20.604   7.653
 5291POPC   C1B 6979   0.981  20.730   8.553
 5291POPC   C2B 6980   1.065  20.760   8.253
 5291POPC   C3B 6981   1.051  20.756   7.953
 5291POPC   C4B 6982   0.980  20.773   7.653
 5292POPC   NC3 6983  43.154  26.835   9.453
 5292POPC   PO4 6984  43.140  26.857   9.153
 5292POPC   GL1 6985  43.113  26.799   8.853
 5292POPC   GL2 6986  43.081  26.987   8.853
 5292POPC   C1A 6987  43.130  26.859   8.553
 5292POPC   D2A 6988  43.134  26.800   8.253
 5292POPC   C3A 6989  43.074  26.821   7.953
 5292POPC   C4A 6990  43.110  26.851   7.653
 5292POPC   C1B 6991  43.059  27.031   8.553
 5292POPC   C2B 6992  43.099  27.110   8.253
 5292POPC   C3B 6993  43.051  27.077   7.953
 5292POPC   C4B 6994  43.038  27.028   7.653
 5293POPC   NC3 6995  38.476  12.095   9.453
 5293POPC   PO4 6996  38.476  12.109   9.153
 5293POPC   GL1 6997  38.408  12.121   8.853
 5293POPC   GL2 6998  38.430  11.917   8.853
 5293POPC   C1A 6999  38.460  12.041   8.553
 5293POPC   D2A 7000  38.503  12.098   8.253
 5293POPC   C3A 7001  38.483  12.039   7.953
 5293POPC   C4A 7002  38.414  12.107   7.653
 5293POPC   C1B 7003  38.306  11.852   8.553
 5293POPC   C2B 7004  38.359  11.861   8.253
 5293POPC   C3B 7005  38.335  11.882   7.953
 5293POPC   C4B 7006  38.399  11.850   7.653
 5294POPC   NC3 7007  20.597  19.811   9.453
 5294POPC   PO4 7008  20.569  19.877   9.153
 5294POPC   GL1 7009  20.590  19.845   8.853
 5294POPC   GL2 7010  20.703  19.875   8.853
 5294POPC   C1A 7011  20.645  19.822   8.553
 5294POPC   D2A 7012  20.565  19.849   8.253
 5294POPC   C3A 7013  20.630  19.798   7.953
 5294POPC   C4A 7014  20.641  19.831   7.653
 5294POPC   C1B 7015  20.849  19.956   8.553
 5294POPC   C2B 7016  20.823  19.941   8.253
 5294POPC   C3B 7017  20.857  19.894   7.953
 5294POPC   C4B 7018  20.870  19.931   7.653
 5295POPC   NC3 7019  32.203  41.512   9.453
 5295POPC   PO4 7020  32.281  41.604   9.153
 5295POPC   GL1 7021  32.275  41.551   8.853
 5295POPC   GL2 7022  32.154  41.497   8.853
 5295POPC   C1A 7023  32.210  41.540   8.553
 5295POPC   D2A 7024  32.250  41.535   8.253
 5295POPC   C3A 7025  32.213  41.555   7.953
 5295POPC   C4A 7026  32.213  41.598   7.653
 5295POPC   C1B 7027  32.113  41.303   8.553
 5295POPC   C2B 7028  32.114  41.325   8.253
 5295POPC   C3B 7029  32.059  41.392   7.953
 5295POPC   C4B 7030  32.142  41.340   7.653
 5296POPC   NC3 7031   4.357  19.860   9.453
 5296POPC   PO4 7032   4.289  19.844   9.153
 5296POPC   GL1 7033   4.359  19.811   8.853
 5296POPC   GL2 7034   4.405  19.745   8.853
 5296POPC   C1A 7035   4.297  19.788   8.553
 5296POPC   D2A 7036   4.291  19.884   8.253
 5296POPC   C3A 7037   4.272  19.809   7.953
 5296POPC   C4A 7038   4.317  19.883   7.653
 5296POPC   C1B 7039   4.494  19.751   8.553
 5296POPC   C2B 7040   4.538  19.671   8.253
 5296POPC   C3B 7041   4.548  19.667   7.953
 5296POPC   C4B 7042   4.574  19.683   7.653
 5297POPC   NC3 7043   1.235  28.344   9.453
 5297POPC   PO4 7044   1.257  28.350   9.153
 5297POPC   GL1 7045   1.202  28.349   8.853
 5297POPC   GL2 7046   1.173  28.237   8.853
 5297POPC   C1A 7047   1.204  28.414   8.553
 5297POPC   D2A 7048   1.234  28.370   8.253
 5297POPC   C3A 7049   1.170  28.362   7.953
 5297POPC   C4A 7050   1.263  28.336   7.653
 5297POPC   C1B 7051   1.097  28.206   8.553
 5297POPC   C2B 7052   1.050  28.160   8.253
 5297POPC   C3B 7053   1.096  28.153   7.953
 5297POPC   C4B 7054   1.016  28.196   7.653
 5298POPC   NC3 7055  22.926  40.005   9.453
 5298POPC   PO4 7056  22.940  40.034   9.153
 5298POPC   GL1 7057  22.899  40.052   8.853
 5298POPC   GL2 7058  23.050  39.993   8.853
 5298POPC   C1A 7059  22.971  40.026   8.553
 5298POPC   D2A 7060  22.964  40.044   8.253
 5298POPC   C3A 7061  22.946  39.977   7.953
 5298POPC   C4A 7062  22.974  40.007   7.653
 5298POPC   C1B 7063  23.179  40.023   8.553
 5298POPC   C2B 7064  23.183  40.045   8.253
 5298POPC   C3B 7065  23.194  40.053   7.953
 5298POPC   C4B 7066  23.216  40.038   7.653
 5299POPC   NC3 7067  36.946  10.518   9.453
 5299POPC   PO4 7068  36.856  10.493   9.153
 5299POPC   GL1 7069  36.937  10.564   8.853
 5299POPC   GL2 7070  36.828  10.628   8.853
 5299POPC   C1A 7071  36.884  10.571   8.553
 5299POPC   D2A 7072  36.921  10.493   8.253
 5299POPC   C3A 7073  36.938  10.543   7.953
 5299POPC   C4A 7074  36.897  10.508   7.653
 5299POPC   C1B 7075  36.747  10.644   8.553
 5299POPC   C2B 7076  36.749  10.655   8.253
 5299POPC   C3B 7077  36.664  10.662   7.953
 5299POPC   C4B 7078  36.728  10.700   7.653
 5300POPC   NC3 7079  25.252  33.026   9.453
 5300POPC   PO4 7080  25.310  33.003   9.153
 5300POPC   GL1 7081  25.257  33.022   8.853
 5300POPC   GL2 7082  25.110  32.975   8.853
 5300POPC   C1A 7083  25.235  33.040   8.553
 5300POPC   D2A 7084  25.278  32.977   8.253
 5300POPC   C3A 7085  25.249  33.044   7.953
 5300POPC   C4A 7086  25.231  33.043   7.653
 5300POPC   C1B 7087  25.021  32.928   8.553
 5300POPC   C2B 7088  24.996  32.948   8.253
 5300POPC   C3B 7089  25.081  32.870   7.953
 5300POPC   C4B 7090  25.012  32.924   7.653
 5301POPC   NC3 7091  16.711   7.469   9.453
 5301POPC   PO4 7092  16.778   7.455   9.153
 5301POPC   GL1 7093  16.683   7.463   8.853
 5301POPC   GL2 7094  16.594   7.404   8.853
 5301POPC   C1A 7095  16.686   7.371   8.553
 5301POPC   D2A 7096  16.711   7.457   8.253
 5301POPC   C3A 7097  16.781   7.393   7.953
 5301POPC   C4A 7098  16.748   7.450   7.653
 5301POPC   C1B 7099  16.497   7.325   8.553
 5301POPC   C2B 7100  16.456   7.376   8.253
 5301POPC   C3B 7101  16.513   7.348   7.953
 5301POPC   C4B 7102  16.536   7.380   7.653
 5302POPC   NC3 7103  41.564  24.497   9.453
 5302POPC   PO4 7104  41.530  24.539   9.153
 5302POPC   GL1 7105  41.524  24.443   8.853
 5302POPC   GL2 7106  41.447  24.519   8.853
 5302POPC   C1A 7107  41.574  24.535   8.553
 5302POPC   D2A 7108  41.573  24.444   8.253
 5302POPC   C3A 7109  41.537  24.443   7.953
 5302POPC   C4A 7110  41.514  24.538   7.653
 5302POPC   C1B 7111  41.304  24.520   8.553
 5302POPC   C2B 7112  41.334  24.579   8.253
 5302POPC   C3B 7113  41.337  24.564   7.953
 5302POPC   C4B 7114  41.270  24.486   7.653
 5303POPC   NC3 7115  35.351  31.496   9.453
 5303POPC   PO4 7116  35.319  31.501   9.153
 5303POPC   GL1 7117  35.352  31.514   8.853
 5303POPC   GL2 7118  35.280  31.617   8.853
 5303POPC   C1A 7119  35.376  31.471   8.553
 5303POPC   D2A 7120  35.402  31.507   8.253
 5303POPC   C3A 7121  35.304  31.466   7.953
 5303POPC   C4A 7122  35.337  31.516   7.653
 5303POPC   C1B 7123  35.192  31.703   8.553
 5303POPC   C2B 7124  35.225  31.721   8.253
 5303POPC   C3B 7125  35.183  31.657   7.953
 5303POPC   C4B 7126  35.192  31.665   7.653
 5304POPC   NC3 7127   6.609  28.405   9.453
 5304POPC   PO4 7128   6.622  28.361   9.153
 5304POPC   GL1 7129   6.651  28.319   8.853
 5304POPC   GL2 7130   6.717  28.291   8.853
 5304POPC   C1A 7131   6.636  28.416   8.553
 5304POPC   D2A 7132   6.628  28.373   8.253
 5304POPC   C3A 7133   6.633  28.339   7.953
 5304POPC   C4A 7134   6.664  28.366   7.653
 5304POPC   C1B 7135   6.849  28.254   8.553
 5304POPC   C2B 7136   6.879  28.305   8.253
 5304POPC   C3B 7137   6.850  28.292   7.953
 5304POPC   C4B 7138   6.848  28.243   7.653
 5305POPC   NC3 7139  22.132  26.031   9.453
 5305POPC   PO4 7140  22.142  26.089   9.153
 5305POPC   GL1 7141  22.121  26.004   8.853
 5305POPC   GL2 7142  22.243  25.980   8.853
 5305POPC   C1A 7143  22.197  26.023   8.553
 5305POPC   D2A 7144  22.169  26.019   8.253
 5305POPC   C3A 7145  22.170  26.081   7.953
 5305POPC   C4A 7146  22.203  26.041   7.653
 5305POPC   C1B 7147  22.375  25.985   8.553
 5305POPC   C2B 7148  22.453  25.972   8.253
 5305POPC   C3B 7149  22.375  25.946   7.953
 5305POPC   C4B 7150  22.443  25.991   7.653
 5306POPC   NC3 7151  12.121  26.812   9.453
 5306POPC   PO4 7152  12.090  26.826   9.153
 5306POPC   GL1 7153  12.067  26.847   8.853
 5306POPC   GL2 7154  11.916  26.823   8.853
 5306POPC   C1A 7155  12.077  26.849   8.553
 5306POPC   D2A 7156  12.060  26.783   8.253
 5306POPC   C3A 7157  12.103  26.839   7.953
 5306POPC   C4A 7158  12.119  26.830   7.653
 5306POPC   C1B 7159  11.793  26.844   8.553
 5306POPC   C2B 7160  11.859  26.923   8.253
 5306POPC   C3B 7161  11.821  26.909   7.953
 5306POPC   C4B 7162  11.824  26.846   7.653
 5307POPC   NC3 7163  29.130  36.893   9.453
 5307POPC   PO4 7164  29.134  36.901   9.153
 5307POPC   GL1 7165  29.172  36.857   8.853
 5307POPC   GL2 7166  29.100  37.016   8.853
 5307POPC   C1A 7167  29.132  36.929   8.553
 5307POPC   D2A 7168  29.103  36.924   8.253
 5307POPC   C3A 7169  29.174  36.854   7.953
 5307POPC   C4A 7170  29.170  36.881   7.653
 5307POPC   C1B 7171  28.931  37.134   8.553
 5307POPC   C2B 7172  28.962  37.107   8.253
 5307POPC   C3B 7173  28.956  37.039   7.953
 5307POPC   C4B 7174  28.973  37.040   7.653
 5308POPC   NC3 7175  20.569  13.584   9.453
 5308POPC   PO4 7176  20.586  13.611   9.153
 5308POPC   GL1 7177  20.561  13.620   8.853
 5308POPC   GL2 7178  20.742  13.653   8.853
 5308POPC   C1A 7179  20.624  13.612   8.553
 5308POPC   D2A 7180  20.590  13.647   8.253
 5308POPC   C3A 7181  20.598  13.640   7.953
 5308POPC   C4A 7182  20.601  13.657   7.653
 5308POPC   C1B 7183  20.829  13.774   8.553
 5308POPC   C2B 7184  20.871  13.754   8.253
 5308POPC   C3B 7185  20.821  13.714   7.953
 5308POPC   C4B 7186  20.813  13.771   7.653
 5309POPC   NC3 7187  28.418  39.990   9.453
 5309POPC   PO4 7188  28.349  40.043   9.153
 5309POPC   GL1 7189  28.359  39.995   8.853
 5309POPC   GL2 7190  28.266  40.038   8.853
 5309POPC   C1A 7191  28.392  39.999   8.553
 5309POPC   D2A 7192  28.355  40.039   8.253
 5309POPC   C3A 7193  28.325  39.979   7.953
 5309POPC   C4A 7194  28.333  40.053   7.653
 5309POPC   C1B 7195  28.140  40.165   8.553
 5309POPC   C2B 7196  28.169  40.180   8.253
 5309POPC   C3B 7197  28.204  40.161   7.953
 5309POPC   C4B 7198  28.128  40.118   7.653
 5310POPC   NC3 7199  42.345  42.314   9.453
 5310POPC   PO4 7200  42.321  42.340   9.153
 5310POPC   GL1 7201  42.350  42.357   8.853
 5310POPC   GL2 7202  42.366  42.503   8.853
 5310POPC   C1A 7203  42.380  42.303   8.553
 5310POPC   D2A 7204  42.324  42.290   8.253
 5310POPC   C3A 7205  42.303  42.375   7.953
 5310POPC   C4A 7206  42.285  42.367   7.653
 5310POPC   C1B 7207  42.405  42.618   8.553
 5310POPC   C2B 7208  42.393  42.543   8.253
 5310POPC   C3B 7209  42.413  42.612   7.953
 5310POPC   C4B 7210  42.394  42.549   7.653
 5311POPC   NC3 7211  26.790  19.061   9.453
 5311POPC   PO4 7212  26.779  19.010   9.153
 5311POPC   GL1 7213  26.822  19.031   8.853
 5311POPC   GL2 7214  26.694  19.147   8.853
 5311POPC   C1A 7215  26.812  19.085   8.553
 5311POPC   D2A 7216  26.810  19.022   8.253
 5311POPC   C3A 7217  26.773  19.024   7.953
 5311POPC   C4A 7218  26.853  19.104   7.653
 5311POPC   C1B 7219  26.631  19.285   8.553
 5311POPC   C2B 7220  26.658  19.234   8.253
 5311POPC   C3B 7221  26.709  19.249   7.953
 5311POPC   C4B 7222  26.697  19.302   7.653
 5312POPC   NC3 7223  26.849  36.080   9.453
 5312POPC   PO4 7224  26.816  36.163   9.153
 5312POPC   GL1 7225  26.815  36.166   8.853
 5312POPC   GL2 7226  26.902  36.050   8.853
 5312POPC   C1A 7227  26.832  36.080   8.553
 5312POPC   D2A 7228  26.784  36.099   8.253
 5312POPC   C3A 7229  26.806  36.170   7.953
 5312POPC   C4A 7230  26.774  36.158   7.653
 5312POPC   C1B 7231  27.073  36.078   8.553
 5312POPC   C2B 7232  27.087  35.992   8.253
 5312POPC   C3B 7233  27.073  35.980   7.953
 5312POPC   C4B 7234  27.077  35.984   7.653
 5313POPC   NC3 7235  30.721  17.472   9.453
 5313POPC   PO4 7236  30.718  17.511   9.153
 5313POPC   GL1 7237  30.669  17.533   8.853
 5313POPC   GL2 7238  30.806  17.487   8.853
 5313POPC   C1A 7239  30.712  17.508   8.553
 5313POPC   D2A 7240  30.727  17.508   8.253
 5313POPC   C3A 7241  30.736  17.515   7.953
 5313POPC   C4A 7242  30.649  17.515   7.653
 5313POPC   C1B 7243  30.880  17.410   8.553
 5313POPC   C2B 7244  30.928  17.426   8.253
 5313POPC   C3B 7245  30.962  17.372   7.953
 5313POPC   C4B 7246  30.941  17.353   7.653
 5314POPC   NC3 7247  40.759  22.163   9.453
 5314POPC   PO4 7248  40.754  22.148   9.153
 5314POPC   GL1 7249  40.827  22.115   8.853
 5314POPC   GL2 7250  40.661  22.201   8.853
 5314POPC   C1A 7251  40.811  22.207   8.553
 5314POPC   D2A 7252  40.747  22.133   8.253
 5314POPC   C3A 7253  40.784  22.186   7.953
 5314POPC   C4A 7254  40.800  22.170   7.653
 5314POPC   C1B 7255  40.580  22.286   8.553
 5314POPC   C2B 7256  40.543  22.272   8.253
 5314POPC   C3B 7257  40.570  22.240   7.953
 5314POPC   C4B 7258  40.557  22.291   7.653
 5315POPC   NC3 7259  14.430   7.471   9.453
 5315POPC   PO4 7260  14.389   7.401   9.153
 5315POPC   GL1 7261  14.355   7.372   8.853
 5315POPC   GL2 7262  14.519   7.417   8.853
 5315POPC   C1A 7263  14.371   7.406   8.553
 5315POPC   D2A 7264  14.451   7.402   8.253
 5315POPC   C3A 7265  14.430   7.423   7.953
 5315POPC   C4A 7266  14.385   7.413   7.653
 5315POPC   C1B 7267  14.674   7.335   8.553
 5315POPC   C2B 7268  14.678   7.383   8.253
 5315POPC   C3B 7269  14.636   7.371   7.953
 5315POPC   C4B 7270  14.630   7.309   7.653
 5316POPC   NC3 7271   1.990  14.388   9.453
 5316POPC   PO4 7272   2.032  14.434   9.153
 5316POPC   GL1 7273   2.036  14.448   8.853
 5316POPC   GL2 7274   1.994  14.565   8.853
 5316POPC   C1A 7275   1.976  14.415   8.553
 5316POPC   D2A 7276   1.947  14.364   8.253
 5316POPC   C3A 7277   1.990  14.365   7.953
 5316POPC   C4A 7278   1.989  14.440   7.653
 5316POPC   C1B 7279   1.964  14.665   8.553
 5316POPC   C2B 7280   2.041  14.649   8.253
 5316POPC   C3B 7281   1.961  14.629   7.953
 5316POPC   C4B 7282   1.976  14.674   7.653
 5317POPC   NC3 7283  31.457  28.380   9.453
 5317POPC   PO4 7284  31.499  28.392   9.153
 5317POPC   GL1 7285  31.492  28.373   8.853
 5317POPC   GL2 7286  31.588  28.453   8.853
 5317POPC   C1A 7287  31.451  28.320   8.553
 5317POPC   D2A 7288  31.459  28.393   8.253
 5317POPC   C3A 7289  31.431  28.383   7.953
 5317POPC   C4A 7290  31.460  28.346   7.653
 5317POPC   C1B 7291  31.667  28.583   8.553
 5317POPC   C2B 7292  31.589  28.548   8.253
 5317POPC   C3B 7293  31.587  28.558   7.953
 5317POPC   C4B 7294  31.601  28.572   7.653
 5318POPC   NC3 7295  25.241  25.992   9.453
 5318POPC   PO4 7296  25.226  26.049   9.153
 5318POPC   GL1 7297  25.302  26.071   8.853
 5318POPC   GL2 7298  25.171  26.051   8.853
 5318POPC   C1A 7299  25.277  25.993   8.553
 5318POPC   D2A 7300  25.250  26.077   8.253
 5318POPC   C3A 7301  25.248  26.009   7.953
 5318POPC   C4A 7302  25.264  26.045   7.653
 5318POPC   C1B 7303  25.075  26.132   8.553
 5318POPC   C2B 7304  25.084  26.113   8.253
 5318POPC   C3B 7305  25.074  26.168   7.953
 5318POPC   C4B 7306  25.007  26.151   7.653
 5319POPC   NC3 7307   9.716  22.169   9.453
 5319POPC   PO4 7308   9.782  22.166   9.153
 5319POPC   GL1 7309   9.770  22.208   8.853
 5319POPC   GL2 7310   9.620  22.101   8.853
 5319POPC   C1A 7311   9.768  22.142   8.553
 5319POPC   D2A 7312   9.726  22.185   8.253
 5319POPC   C3A 7313   9.777  22.207   7.953
 5319POPC   C4A 7314   9.731  22.182   7.653
 5319POPC   C1B 7315   9.621  21.935   8.553
 5319POPC   C2B 7316   9.625  22.018   8.253
 5319POPC   C3B 7317   9.619  21.992   7.953
 5319POPC   C4B 7318   9.560  21.952   7.653
 5320POPC   NC3 7319  29.181  19.028   9.453
 5320POPC   PO4 7320  29.153  19.014   9.153
 5320POPC   GL1 7321  29.127  19.083   8.853
 5320POPC   GL2 7322  29.067  18.988   8.853
 5320POPC   C1A 7323  29.154  19.038   8.553
 5320POPC   D2A 7324  29.191  19.014   8.253
 5320POPC   C3A 7325  29.154  19.014   7.953
 5320POPC   C4A 7326  29.133  19.015   7.653
 5320POPC   C1B 7327  29.071  18.874   8.553
 5320POPC   C2B 7328  29.052  18.797   8.253
 5320POPC   C3B 7329  29.084  18.868   7.953
 5320POPC   C4B 7330  29.039  18.852   7.653
 5321POPC   NC3 7331  12.829  33.026   9.453
 5321POPC   PO4 7332  12.838  33.056   9.153
 5321POPC   GL1 7333  12.824  32.983   8.853
 5321POPC   GL2 7334  13.003  32.973   8.853
 5321POPC   C1A 7335  12.825  33.008   8.553
 5321POPC   D2A 7336  12.813  33.035   8.253
 5321POPC   C3A 7337  12.841  33.028   7.953
 5321POPC   C4A 7338  12.849  32.990   7.653
 5321POPC   C1B 7339  13.079  32.933   8.553
 5321POPC   C2B 7340  13.050  32.943   8.253
 5321POPC   C3B 7341  13.031  32.946   7.953
 5321POPC   C4B 7342  13.092  32.880   7.653
 5322POPC   NC3 7343  39.237  31.446   9.453
 5322POPC   PO4 7344  39.189  31.496   9.153
 5322POPC   GL1 7345  39.275  31.429   8.853
 5322POPC   GL2 7346  39.324  31.427   8.853
 5322POPC   C1A 7347  39.225  31.517   8.553
 5322POPC   D2A 7348  39.214  31.486   8.253
 5322POPC   C3A 7349  39.193  31.512   7.953
 5322POPC   C4A 7350  39.241  31.509   7.653
 5322POPC   C1B 7351  39.471  31.367   8.553
 5322POPC   C2B 7352  39.471  31.340   8.253
 5322POPC   C3B 7353  39.459  31.372   7.953
 5322POPC   C4B 7354  39.463  31.336   7.653
 5323POPC   NC3 7355  27.592  43.129   9.453
 5323POPC   PO4 7356  27.583  43.067   9.153
 5323POPC   GL1 7357  27.581  43.077   8.853
 5323POPC   GL2 7358  27.706  43.008   8.853
 5323POPC   C1A 7359  27.565  43.115   8.553
 5323POPC   D2A 7360  27.636  43.159   8.253
 5323POPC   C3A 7361  27.591  43.068   7.953
 5323POPC   C4A 7362  27.576  43.154   7.653
 5323POPC   C1B 7363  27.855  43.027   8.553
 5323POPC   C2B 7364  27.777  43.011   8.253
 5323POPC   C3B 7365  27.845  42.970   7.953
 5323POPC   C4B 7366  27.845  43.024   7.653
 5324POPC   NC3 7367   6.639   8.214   9.453
 5324POPC   PO4 7368   6.649   8.230   9.153
 5324POPC   GL1 7369   6.598   8.226   8.853
 5324POPC   GL2 7370   6.724   8.185   8.853
 5324POPC   C1A 7371   6.662   8.197   8.553
 5324POPC   D2A 7372   6.662   8.196   8.253
 5324POPC   C3A 7373   6.681   8.235   7.953
 5324POPC   C4A 7374   6.618   8.205   7.653
 5324POPC   C1B 7375   6.873   8.207   8.553
 5324POPC   C2B 7376   6.941   8.225   8.253
 5324POPC   C3B 7377   6.926   8.265   7.953
 5324POPC   C4B 7378   6.864   8.201   7.653
 5325POPC   NC3 7379  34.617   9.736   9.453
 5325POPC   PO4 7380  34.574   9.758   9.153
 5325POPC   GL1 7381  34.536   9.742   8.853
 5325POPC   GL2 7382  34.539   9.846   8.853
 5325POPC   C1A 7383  34.579   9.764   8.553
 5325POPC   D2A 7384  34.611   9.788   8.253
 5325POPC   C3A 7385  34.574   9.722   7.953
 5325POPC   C4A 7386  34.568   9.792   7.653
 5325POPC   C1B 7387  34.513  10.003   8.553
 5325POPC   C2B 7388  34.479  10.011   8.253
 5325POPC   C3B 7389  34.542   9.997   7.953
 5325POPC   C4B 7390  34.453  10.017   7.653
 5326POPC   NC3 7391  29.875  33.804   9.453
 5326POPC   PO4 7392  29.954  33.837   9.153
 5326POPC   GL1 7393  29.927  33.751   8.853
 5326POPC   GL2 7394  29.818  33.754   8.853
 5326POPC   C1A 7395  29.964  33.816   8.553
 5326POPC   D2A 7396  29.957  33.842   8.253
 5326POPC   C3A 7397  29.935  33.798   7.953
 5326POPC   C4A 7398  29.924  33.781   7.653
 5326POPC   C1B 7399  29.734  33.659   8.553
 5326POPC   C2B 7400  29.789  33.614   8.253
 5326POPC   C3B 7401  29.779  33.597   7.953
 5326POPC   C4B 7402  29.771  33.612   7.653
 5327POPC   NC3 7403  29.152  21.340   9.453
 5327POPC   PO4 7404  29.151  21.338   9.153
 5327POPC   GL1 7405  29.185  21.391   8.853
 5327POPC   GL2 7406  29.275  21.400   8.853
 5327POPC   C1A 7407  29.194  21.379   8.553
 5327POPC   D2A 7408  29.154  21.391   8.253
 5327POPC   C3A 7409  29.155  21.379   7.953
 5327POPC   C4A 7410  29.103  21.412   7.653
 5327POPC   C1B 7411  29.345  21.542   8.553
 5327POPC   C2B 7412  29.356  21.545   8.253
 5327POPC   C3B 7413  29.398  21.543   7.953
 5327POPC   C4B 7414  29.327  21.492   7.653
 5328POPC   NC3 7415  18.254  33.778   9.453
 5328POPC   PO4 7416  18.282  33.805   9.153
 5328POPC   GL1 7417  18.295  33.750   8.853
 5328POPC   GL2 7418  18.421  33.807   8.853
 5328POPC   C1A 7419  18.246  33.816   8.553
 5328POPC   D2A 7420  18.278  33.846   8.253
 5328POPC   C3A 7421  18.303  33.834   7.953
 5328POPC   C4A 7422  18.283  33.782   7.653
 5328POPC   C1B 7423  18.496  33.908   8.553
 5328POPC   C2B 7424  18.471  33.863   8.253
 5328POPC   C3B 7425  18.538  33.850   7.953
 5328POPC   C4B 7426  18.522  33.936   7.653
 5329POPC   NC3 7427   5.129   8.230   9.453
 5329POPC   PO4 7428   5.139   8.224   9.153
 5329POPC   GL1 7429   5.133   8.219   8.853
 5329POPC   GL2 7430   5.104   8.300   8.853
 5329POPC   C1A 7431   5.071   8.223   8.553
 5329POPC   D2A 7432   5.090   8.185   8.253
 5329POPC   C3A 7433   5.128   8.199   7.953
 5329POPC   C4A 7434   5.105   8.235   7.653
 5329POPC   C1B 7435   5.131   8.470   8.553
 5329POPC   C2B 7436   5.182   8.436   8.253
 5329POPC   C3B 7437   5.126   8.413   7.953
 5329POPC   C4B 7438   5.208   8.447   7.653
 5330POPC   NC3 7439  36.903  43.147   9.453
 5330POPC   PO4 7440  36.948  43.067   9.153
 5330POPC   GL1 7441  36.917  43.129   8.853
 5330POPC   GL2 7442  36.902  43.279   8.853
 5330POPC   C1A 7443  36.904  43.126   8.553
 5330POPC   D2A 7444  36.902  43.066   8.253
 5330POPC   C3A 7445  36.924  43.126   7.953
 5330POPC   C4A 7446  36.878  43.118   7.653
 5330POPC   C1B 7447  36.847  43.375   8.553
 5330POPC   C2B 7448  36.839  43.367   8.253
 5330POPC   C3B 7449  36.885  43.390   7.953
 5330POPC   C4B 7450  36.843  43.319   7.653
 5331POPC   NC3 7451  41.553  25.247   9.453
 5331POPC   PO4 7452  41.519  25.314   9.153
 5331POPC   GL1 7453  41.555  25.220   8.853
 5331POPC   GL2 7454  41.617  25.356   8.853
 5331POPC   C1A 7455  41.588  25.217   8.553
 5331POPC   D2A 7456  41.542  25.311   8.253
 5331POPC   C3A 7457  41.517  25.288   7.953
 5331POPC   C4A 7458  41.595  25.306   7.653
 5331POPC   C1B 7459  41.699  25.491   8.553
 5331POPC   C2B 7460  41.662  25.490   8.253
 5331POPC   C3B 7461  41.641  25.501   7.953
 5331POPC   C4B 7462  41.675  25.534   7.653
 5332POPC   NC3 7463  26.038   5.100   9.453
 5332POPC   PO4 7464  26.027   5.119   9.153
 5332POPC   GL1 7465  25.994   5.103   8.853
 5332POPC   GL2 7466  26.138   5.038   8.853
 5332POPC   C1A 7467  26.048   5.048   8.553
 5332POPC   D2A 7468  26.081   5.044   8.253
 5332POPC   C3A 7469  26.015   5.121   7.953
 5332POPC   C4A 7470  26.069   5.092   7.653
 5332POPC   C1B 7471  26.313   5.102   8.553
 5332POPC   C2B 7472  26.265   5.094   8.253
 5332POPC   C3B 7473  26.240   5.102   7.953
 5332POPC   C4B 7474  26.278   5.036   7.653
 5333POPC   NC3 7475  18.325  15.183   9.453
 5333POPC   PO4 7476  18.301  15.223   9.153
 5333POPC   GL1 7477  18.319  15.141   8.853
 5333POPC   GL2 7478  18.179  15.116   8.853
 5333POPC   C1A 7479  18.305  15.135   8.553
 5333POPC   D2A 7480  18.293  15.157   8.253
 5333POPC   C3A 7481  18.236  15.219   7.953
 5333POPC   C4A 7482  18.263  15.185   7.653
 5333POPC   C1B 7483  18.047  14.996   8.553
 5333POPC   C2B 7484  18.036  15.072   8.253
 5333POPC   C3B 7485  18.043  15.052   7.953
 5333POPC   C4B 7486  18.114  15.068   7.653
 5334POPC   NC3 7487   8.209  17.502   9.453
 5334POPC   PO4 7488   8.213  17.515   9.153
 5334POPC   GL1 7489   8.218  17.466   8.853
 5334POPC   GL2 7490   8.300  17.561   8.853
 5334POPC   C1A 7491   8.234  17.501   8.553
 5334POPC   D2A 7492   8.234  17.498   8.253
 5334POPC   C3A 7493   8.150  17.554   7.953
 5334POPC   C4A 7494   8.170  17.465   7.653
 5334POPC   C1B 7495   8.375  17.678   8.553
 5334POPC   C2B 7496   8.353  17.690   8.253
 5334POPC   C3B 7497   8.340  17.661   7.953
 5334POPC   C4B 7498   8.405  17.696   7.653
 5335POPC   NC3 7499  22.979   1.974   9.453
 5335POPC   PO4 7500  22.919   2.029   9.153
 5335POPC   GL1 7501  22.982   1.942   8.853
 5335POPC   GL2 7502  22.998   2.155   8.853
 5335POPC   C1A 7503  22.961   2.010   8.553
 5335POPC   D2A 7504  22.934   1.941   8.253
 5335POPC   C3A 7505  22.944   1.944   7.953
 5335POPC   C4A 7506  22.979   1.967   7.653
 5335POPC   C1B 7507  23.009   2.218   8.553
 5335POPC   C2B 7508  23.040   2.266   8.253
 5335POPC   C3B 7509  23.023   2.182   7.953
 5335POPC   C4B 7510  22.996   2.268   7.653
 5336POPC   NC3 7511  30.707  24.501   9.453
 5336POPC   PO4 7512  30.679  24.471   9.153
 5336POPC   GL1 7513  30.654  24.465   8.853
 5336POPC   GL2 7514  30.733  24.416   8.853
 5336POPC   C1A 7515  30.664  24.515   8.553
 5336POPC   D2A 7516  30.686  24.535   8.253
 5336POPC   C3A 7517  30.694  24.527   7.953
 5336POPC   C4A 7518  30.745  24.483   7.653
 5336POPC   C1B 7519  30.803  24.266   8.553
 5336POPC   C2B 7520  30.783  24.259   8.253
 5336POPC   C3B 7521  30.814  24.246   7.953
 5336POPC   C4B 7522  30.796  24.297   7.653
 5337POPC   NC3 7523   0.454  37.655   9.453
 5337POPC   PO4 7524   0.455  37.642   9.153
 5337POPC   GL1 7525   0.403  37.718   8.853
 5337POPC   GL2 7526   0.325  37.580   8.853
 5337POPC   C1A 7527   0.393  37.674   8.553
 5337POPC   D2A 7528   0.436  37.646   8.253
 5337POPC   C3A 7529   0.437  37.714   7.953
 5337POPC   C4A 7530   0.389  37.643   7.653
 5337POPC   C1B 7531   0.253  37.486   8.553
 5337POPC   C2B 7532   0.279  37.439   8.253
 5337POPC   C3B 7533   0.299  37.501   7.953
 5337POPC   C4B 7534   0.330  37.488   7.653
 5338POPC   NC3 7535  36.080   2.741   9.453
 5338POPC   PO4 7536  36.163   2.755   9.153
 5338POPC   GL1 7537  36.132   2.721   8.853
 5338POPC   GL2 7538  36.019   2.708   8.853
 5338POPC   C1A 7539  36.131   2.757   8.553
 5338POPC   D2A 7540  36.173   2.812   8.253
 5338POPC   C3A 7541  36.085   2.791   7.953
 5338POPC   C4A 7542  36.131   2.807   7.653
 5338POPC   C1B 7543  35.908   2.612   8.553
 5338POPC   C2B 7544  35.954   2.563   8.253
 5338POPC   C3B 7545  35.973   2.566   7.953
 5338POPC   C4B 7546  35.957   2.613   7.653
 5339POPC   NC3 7547  12.824  16.707   9.453
 5339POPC   PO4 7548  12.845  16.733   9.153
 5339POPC   GL1 7549  12.892  16.757   8.853
 5339POPC   GL2 7550  12.925  16.624   8.853
 5339POPC   C1A 7551  12.889  16.706   8.553
 5339POPC   D2A 7552  12.812  16.725   8.253
 5339POPC   C3A 7553  12.866  16.731   7.953
 5339POPC   C4A 7554  12.818  16.689   7.653
 5339POPC   C1B 7555  12.986  16.505   8.553
 5339POPC   C2B 7556  12.968  16.514   8.253
 5339POPC   C3B 7557  12.940  16.543   7.953
 5339POPC   C4B 7558  12.997  16.499   7.653
 5340POPC   NC3 7559  39.193  25.995   9.453
 5340POPC   PO4 7560  39.246  26.018   9.153
 5340POPC   GL1 7561  39.233  26.081   8.853
 5340POPC   GL2 7562  39.335  25.935   8.853
 5340POPC   C1A 7563  39.224  26.002   8.553
 5340POPC   D2A 7564  39.270  26.052   8.253
 5340POPC   C3A 7565  39.244  26.012   7.953
 5340POPC   C4A 7566  39.277  26.016   7.653
 5340POPC   C1B 7567  39.381  25.860   8.553
 5340POPC   C2B 7568  39.387  25.877   8.253
 5340POPC   C3B 7569  39.456  25.918   7.953
 5340POPC   C4B 7570  39.410  25.915   7.653
 5341POPC   NC3 7571  34.606  32.244   9.453
 5341POPC   PO4 7572  34.623  32.247   9.153
 5341POPC   GL1 7573  34.622  32.243   8.853
 5341POPC   GL2 7574  34.720  32.194   8.853
 5341POPC   C1A 7575  34.569  32.234   8.553
 5341POPC   D2A 7576  34.554  32.284   8.253
 5341POPC   C3A 7577  34.603  32.215   7.953
 5341POPC   C4A 7578  34.538  32.260   7.653
 5341POPC   C1B 7579  34.769  32.091   8.553
 5341POPC   C2B 7580  34.792  32.093   8.253
 5341POPC   C3B 7581  34.822  32.137   7.953
 5341POPC   C4B 7582  34.835  32.110   7.653
 5342POPC   NC3 7583  44.650   5.833   9.453
 5342POPC   PO4 7584  44.702   5.849   9.153
 5342POPC   GL1 7585  44.659   5.892   8.853
 5342POPC   GL2 7586  44.618   5.748   8.853
 5342POPC   C1A 7587  44.685   5.884   8.553
 5342POPC   D2A 7588  44.691   5.887   8.253
 5342POPC   C3A 7589  44.644   5.844   7.953
 5342POPC   C4A 7590  44.616   5.887   7.653
 5342POPC   C1B 7591  44.679   5.593   8.553
 5342POPC   C2B 7592  44.665   5.660   8.253
 5342POPC   C3B 7593  44.610   5.609   7.953
 5342POPC   C4B 7594  44.631   5.632   7.653
 5343POPC   NC3 7595  19.091  36.153   9.453
 5343POPC   PO4 7596  19.029  36.105   9.153
 5343POPC   GL1 7597  19.052  36.114   8.853
 5343POPC   GL2 7598  19.224  36.083   8.853
 5343POPC   C1A 7599  19.088  36.168   8.553
 5343POPC   D2A 7600  19.043  36.126   8.253
 5343POPC   C3A 7601  19.024  36.130   7.953
 5343POPC   C4A 7602  19.018  36.093   7.653
 5343POPC   C1B 7603  19.344  36.076   8.553
 5343POPC   C2B 7604  19.328  36.073   8.253
 5343POPC   C3B 7605  19.259  36.108   7.953
 5343POPC   C4B 7606  19.314  36.072   7.653
 5344POPC   NC3 7607  28.393   1.944   9.453
 5344POPC   PO4 7608  28.344   1.957   9.153
 5344POPC   GL1 7609  28.386   1.984   8.853
 5344POPC   GL2 7610  28.318   1.937   8.853
 5344POPC   C1A 7611  28.400   2.001   8.553
 5344POPC   D2A 7612  28.395   1.951   8.253
 5344POPC   C3A 7613  28.391   1.987   7.953
 5344POPC   C4A 7614  28.409   1.990   7.653
 5344POPC   C1B 7615  28.189   1.789   8.553
 5344POPC   C2B 7616  28.246   1.809   8.253
 5344POPC   C3B 7617  28.248   1.775   7.953
 5344POPC   C4B 7618  28.202   1.778   7.653
 5345POPC   NC3 7619  15.216   9.020   9.453
 5345POPC   PO4 7620  15.217   8.954   9.153
 5345POPC   GL1 7621  15.194   8.976   8.853
 5345POPC   GL2 7622  15.271   8.904   8.853
 5345POPC   C1A 7623  15.214   9.005   8.553
 5345POPC   D2A 7624  15.152   8.979   8.253
 5345POPC   C3A 7625  15.150   8.960   7.953
 5345POPC   C4A 7626  15.168   8.970   7.653
 5345POPC   C1B 7627  15.427   8.894   8.553
 5345POPC   C2B 7628  15.449   8.875   8.253
 5345POPC   C3B 7629  15.422   8.941   7.953
 5345POPC   C4B 7630  15.412   8.906   7.653
 5346POPC   NC3 7631  43.137  20.614   9.453
 5346POPC   PO4 7632  43.073  20.624   9.153
 5346POPC   GL1 7633  43.133  20.580   8.853
 5346POPC   GL2 7634  43.237  20.507   8.853
 5346POPC   C1A 7635  43.103  20.642   8.553
 5346POPC   D2A 7636  43.160  20.599   8.253
 5346POPC   C3A 7637  43.116  20.651   7.953
 5346POPC   C4A 7638  43.123  20.561   7.653
 5346POPC   C1B 7639  43.274  20.448   8.553
 5346POPC   C2B 7640  43.287  20.471   8.253
 5346POPC   C3B 7641  43.309  20.494   7.953
 5346POPC   C4B 7642  43.368  20.426   7.653
 5347POPC   NC3 7643  23.726  15.167   9.453
 5347POPC   PO4 7644  23.699  15.160   9.153
 5347POPC   GL1 7645  23.700  15.216   8.853
 5347POPC   GL2 7646  23.598  15.224   8.853
 5347POPC   C1A 7647  23.726  15.190   8.553
 5347POPC   D2A 7648  23.711  15.134   8.253
 5347POPC   C3A 7649  23.727  15.153   7.953
 5347POPC   C4A 7650  23.728  15.202   7.653
 5347POPC   C1B 7651  23.536  15.251   8.553
 5347POPC   C2B 7652  23.465  15.276   8.253
 5347POPC   C3B 7653  23.497  15.295   7.953
 5347POPC   C4B 7654  23.518  15.279   7.653
 5348POPC   NC3 7655  40.055  35.355   9.453
 5348POPC   PO4 7656  39.996  35.366   9.153
 5348POPC   GL1 7657  39.963  35.315   8.853
 5348POPC   GL2 7658  40.090  35.278   8.853
 5348POPC   C1A 7659  40.036  35.364   8.553
 5348POPC   D2A 7660  40.046  35.308   8.253
 5348POPC   C3A 7661  40.057  35.339   7.953
 5348POPC   C4A 7662  40.052  35.383   7.653
 5348POPC   C1B 7663  40.156  35.170   8.553
 5348POPC   C2B 7664  40.133  35.195   8.253
 5348POPC   C3B 7665  40.128  35.152   7.953
 5348POPC   C4B 7666  40.162  35.134   7.653
 5349POPC   NC3 7667  25.301  30.733   9.453
 5349POPC   PO4 7668  25.275  30.651   9.153
 5349POPC   GL1 7669  25.234  30.733   8.853
 5349POPC   GL2 7670  25.238  30.824   8.853
 5349POPC   C1A 7671  25.283  30.736   8.553
 5349POPC   D2A 7672  25.311  30.661   8.253
 5349POPC   C3A 7673  25.298  30.647   7.953
 5349POPC   C4A 7674  25.259  30.744   7.653
 5349POPC   C1B 7675  25.275  30.940   8.553
 5349POPC   C2B 7676  25.269  30.976   8.253
 5349POPC   C3B 7677  25.235  30.965   7.953
 5349POPC   C4B 7678  25.231  30.993   7.653
 5350POPC   NC3 7679  26.037  33.798   9.453
 5350POPC   PO4 7680  26.058  33.840   9.153
 5350POPC   GL1 7681  26.082  33.797   8.853
 5350POPC   GL2 7682  25.950  33.808   8.853
 5350POPC   C1A 7683  26.078  33.838   8.553
 5350POPC   D2A 7684  26.035  33.847   8.253
 5350POPC   C3A 7685  26.016  33.839   7.953
 5350POPC   C4A 7686  26.004  33.820   7.653
 5350POPC   C1B 7687  25.761  33.720   8.553
 5350POPC   C2B 7688  25.787  33.770   8.253
 5350POPC   C3B 7689  25.768  33.726   7.953
 5350POPC   C4B 7690  25.774  33.754   7.653
 5351POPC   NC3 7691  18.294  41.527   9.453
 5351POPC   PO4 7692  18.281  41.543   9.153
 5351POPC   GL1 7693  18.288  41.529   8.853
 5351POPC   GL2 7694  18.212  41.466   8.853
 5351POPC   C1A 7695  18.290  41.526   8.553
 5351POPC   D2A 7696  18.301  41.602   8.253
 5351POPC   C3A 7697  18.330  41.527   7.953
 5351POPC   C4A 7698  18.244  41.553   7.653
 5351POPC   C1B 7699  18.135  41.345   8.553
 5351POPC   C2B 7700  18.125  41.423   8.253
 5351POPC   C3B 7701  18.123  41.396   7.953
 5351POPC   C4B 7702  18.100  41.355   7.653
 5352POPC   NC3 7703   6.608  40.744   9.453
 5352POPC   PO4 7704   6.673  40.800   9.153
 5352POPC   GL1 7705   6.656  40.733   8.853
 5352POPC   GL2 7706   6.703  40.894   8.853
 5352POPC   C1A 7707   6.599  40.825   8.553
 5352POPC   D2A 7708   6.641  40.763   8.253
 5352POPC   C3A 7709   6.631  40.745   7.953
 5352POPC   C4A 7710   6.672  40.741   7.653
 5352POPC   C1B 7711   6.785  40.958   8.553
 5352POPC   C2B 7712   6.803  40.937   8.253
 5352POPC   C3B 7713   6.800  40.976   7.953
 5352POPC   C4B 7714   6.820  40.985   7.653
 5353POPC   NC3 7715  28.358  43.121   9.453
 5353POPC   PO4 7716  28.354  43.061   9.153
 5353POPC   GL1 7717  28.323  43.128   8.853
 5353POPC   GL2 7718  28.240  43.100   8.853
 5353POPC   C1A 7719  28.357  43.113   8.553
 5353POPC   D2A 7720  28.351  43.128   8.253
 5353POPC   C3A 7721  28.407  43.119   7.953
 5353POPC   C4A 7722  28.390  43.086   7.653
 5353POPC   C1B 7723  28.130  43.024   8.553
 5353POPC   C2B 7724  28.101  42.971   8.253
 5353POPC   C3B 7725  28.103  42.986   7.953
 5353POPC   C4B 7726  28.144  43.007   7.653
 5354POPC   NC3 7727   2.029  19.818   9.453
 5354POPC   PO4 7728   1.979  19.821   9.153
 5354POPC   GL1 7729   2.004  19.802   8.853
 5354POPC   GL2 7730   1.890  19.733   8.853
 5354POPC   C1A 7731   1.954  19.869   8.553
 5354POPC   D2A 7732   1.994  19.797   8.253
 5354POPC   C3A 7733   1.960  19.785   7.953
 5354POPC   C4A 7734   2.014  19.790   7.653
 5354POPC   C1B 7735   1.757  19.644   8.553
 5354POPC   C2B 7736   1.847  19.671   8.253
 5354POPC   C3B 7737   1.800  19.640   7.953
 5354POPC   C4B 7738   1.830  19.655   7.653
 5355POPC   NC3 7739   5.872  41.564   9.453
 5355POPC   PO4 7740   5.859  41.584   9.153
 5355POPC   GL1 7741   5.891  41.567   8.853
 5355POPC   GL2 7742   5.939  41.703   8.853
 5355POPC   C1A 7743   5.869  41.572   8.553
 5355POPC   D2A 7744   5.837  41.551   8.253
 5355POPC   C3A 7745   5.864  41.579   7.953
 5355POPC   C4A 7746   5.847  41.541   7.653
 5355POPC   C1B 7747   5.934  41.807   8.553
 5355POPC   C2B 7748   5.975  41.735   8.253
 5355POPC   C3B 7749   5.942  41.832   7.953
 5355POPC   C4B 7750   5.964  41.804   7.653
 5356POPC   NC3 7751  16.002  30.703   9.453
 5356POPC   PO4 7752  15.957  30.679   9.153
 5356POPC   GL1 7753  15.919  30.695   8.853
 5356POPC   GL2 7754  15.808  30.768   8.853
 5356POPC   C1A 7755  15.949  30.697   8.553
 5356POPC   D2A 7756  15.926  30.651   8.253
 5356POPC   C3A 7757  15.937  30.719   7.953
 5356POPC   C4A 7758  15.982  30.665   7.653
 5356POPC   C1B 7759  15.677  30.790   8.553
 5356POPC   C2B 7760  15.726  30.766   8.253
 5356POPC   C3B 7761  15.722  30.793   7.953
 5356POPC   C4B 7762  15.733  30.794   7.653
 5357POPC   NC3 7763  26.028  14.373   9.453
 5357POPC   PO4 7764  26.070  14.405   9.153
 5357POPC   GL1 7765  26.082  14.369   8.853
 5357POPC   GL2 7766  26.154  14.371   8.853
 5357POPC   C1A 7767  26.075  14.445   8.553
 5357POPC   D2A 7768  26.001  14.398   8.253
 5357POPC   C3A 7769  26.032  14.378   7.953
 5357POPC   C4A 7770  26.079  14.377   7.653
 5357POPC   C1B 7771  26.232  14.349   8.553
 5357POPC   C2B 7772  26.315  14.308   8.253
 5357POPC   C3B 7773  26.275  14.320   7.953
 5357POPC   C4B 7774  26.280  14.319   7.653
 5358POPC   NC3 7775  20.598  31.482   9.453
 5358POPC   PO4 7776  20.633  31.432   9.153
 5358POPC   GL1 7777  20.649  31.458   8.853
 5358POPC   GL2 7778  20.676  31.341   8.853
 5358POPC   C1A 7779  20.564  31.509   8.553
 5358POPC   D2A 7780  20.627  31.492   8.253
 5358POPC   C3A 7781  20.609  31.423   7.953
 5358POPC   C4A 7782  20.626  31.497   7.653
 5358POPC   C1B 7783  20.689  31.210   8.553
 5358POPC   C2B 7784  20.620  31.269   8.253
 5358POPC   C3B 7785  20.670  31.242   7.953
 5358POPC   C4B 7786  20.660  31.278   7.653
 5359POPC   NC3 7787   4.274  36.123   9.453
 5359POPC   PO4 7788   4.318  36.114   9.153
 5359POPC   GL1 7789   4.312  36.148   8.853
 5359POPC   GL2 7790   4.236  36.212   8.853
 5359POPC   C1A 7791   4.269  36.127   8.553
 5359POPC   D2A 7792   4.281  36.146   8.253
 5359POPC   C3A 7793   4.362  36.084   7.953
 5359POPC   C4A 7794   4.339  36.090   7.653
 5359POPC   C1B 7795   4.187  36.365   8.553
 5359POPC   C2B 7796   4.136  36.327   8.253
 5359POPC   C3B 7797   4.211  36.277   7.953
 5359POPC   C4B 7798   4.119  36.291   7.653
 5360POPC   NC3 7799  13.659  26.002   9.453
 5360POPC   PO4 7800  13.608  25.994   9.153
 5360POPC   GL1 7801  13.596  26.004   8.853
 5360POPC   GL2 7802  13.615  25.905   8.853
 5360POPC   C1A 7803  13.660  26.039   8.553
 5360POPC   D2A 7804  13.590  26.055   8.253
 5360POPC   C3A 7805  13.621  25.994   7.953
 5360POPC   C4A 7806  13.661  25.994   7.653
 5360POPC   C1B 7807  13.489  25.849   8.553
 5360POPC   C2B 7808  13.510  25.848   8.253
 5360POPC   C3B 7809  13.511  25.762   7.953
 5360POPC   C4B 7810  13.572  25.847   7.653
 5361POPC   NC3 7811   0.468   6.657   9.453
 5361POPC   PO4 7812   0.421   6.627   9.153
 5361POPC   GL1 7813   0.447   6.619   8.853
 5361POPC   GL2 7814   0.468   6.714   8.853
 5361POPC   C1A 7815   0.393   6.595   8.553
 5361POPC   D2A 7816   0.471   6.637   8.253
 5361POPC   C3A 7817   0.463   6.613   7.953
 5361POPC   C4A 7818   0.454   6.645   7.653
 5361POPC   C1B 7819   0.520   6.824   8.553
 5361POPC   C2B 7820   0.550   6.840   8.253
 5361POPC   C3B 7821   0.595   6.819   7.953
 5361POPC   C4B 7822   0.516   6.829   7.653
 5362POPC   NC3 7823  36.098  36.914   9.453
 5362POPC   PO4 7824  36.131  36.904   9.153
 5362POPC   GL1 7825  36.162  36.924   8.853
 5362POPC   GL2 7826  36.152  36.821   8.853
 5362POPC   C1A 7827  36.169  36.933   8.553
 5362POPC   D2A 7828  36.122  36.866   8.253
 5362POPC   C3A 7829  36.133  36.854   7.953
 5362POPC   C4A 7830  36.130  36.879   7.653
 5362POPC   C1B 7831  36.188  36.656   8.553
 5362POPC   C2B 7832  36.171  36.691   8.253
 5362POPC   C3B 7833  36.199  36.657   7.953
 5362POPC   C4B 7834  36.173  36.693   7.653
 5363POPC   NC3 7835   3.585  42.338   9.453
 5363POPC   PO4 7836   3.494  42.319   9.153
 5363POPC   GL1 7837   3.520  42.364   8.853
 5363POPC   GL2 7838   3.496  42.240   8.853
 5363POPC   C1A 7839   3.577  42.299   8.553
 5363POPC   D2A 7840   3.505  42.336   8.253
 5363POPC   C3A 7841   3.569  42.298   7.953
 5363POPC   C4A 7842   3.499  42.303   7.653
 5363POPC   C1B 7843   3.482  42.053   8.553
 5363POPC   C2B 7844   3.542  42.115   8.253
 5363POPC   C3B 7845   3.467  42.111   7.953
 5363POPC   C4B 7846   3.480  42.041   7.653
 5364POPC   NC3 7847  44.643   6.669   9.453
 5364POPC   PO4 7848  44.620   6.666   9.153
 5364POPC   GL1 7849  44.667   6.658   8.853
 5364POPC   GL2 7850  44.608   6.485   8.853
 5364POPC   C1A 7851  44.673   6.663   8.553
 5364POPC   D2A 7852  44.620   6.638   8.253
 5364POPC   C3A 7853  44.686   6.606   7.953
 5364POPC   C4A 7854  44.623   6.619   7.653
 5364POPC   C1B 7855  44.643   6.368   8.553
 5364POPC   C2B 7856  44.633   6.406   8.253
 5364POPC   C3B 7857  44.648   6.444   7.953
 5364POPC   C4B 7858  44.642   6.359   7.653
 5365POPC   NC3 7859  39.961  36.172   9.453
 5365POPC   PO4 7860  40.004  36.169   9.153
 5365POPC   GL1 7861  39.992  36.140   8.853
 5365POPC   GL2 7862  40.160  36.102   8.853
 5365POPC   C1A 7863  39.983  36.087   8.553
 5365POPC   D2A 7864  40.029  36.092   8.253
 5365POPC   C3A 7865  40.049  36.088   7.953
 5365POPC   C4A 7866  39.988  36.142   7.653
 5365POPC   C1B 7867  40.282  36.033   8.553
 5365POPC   C2B 7868  40.280  36.056   8.253
 5365POPC   C3B 7869  40.262  36.055   7.953
 5365POPC   C4B 7870  40.225  36.053   7.653
 5366POPC   NC3 7871  17.508   5.831   9.453
 5366POPC   PO4 7872  17.549   5.821   9.153
 5366POPC   GL1 7873  17.459   5.843   8.853
 5366POPC   GL2 7874  17.573   5.914   8.853
 5366POPC   C1A 7875  17.541   5.887   8.553
 5366POPC   D2A 7876  17.523   5.879   8.253
 5366POPC   C3A 7877  17.531   5.839   7.953
 5366POPC   C4A 7878  17.518   5.859   7.653
 5366POPC   C1B 7879  17.781   5.932   8.553
 5366POPC   C2B 7880  17.758   5.942   8.253
 5366POPC   C3B 7881  17.783   5.932   7.953
 5366POPC   C4B 7882  17.709   5.929   7.653
 5367POPC   NC3 7883  22.899   5.059   9.453
 5367POPC   PO4 7884  22.965   5.055   9.153
 5367POPC   GL1 7885  22.923   5.069   8.853
 5367POPC   GL2 7886  22.872   5.021   8.853
 5367POPC   C1A 7887  22.968   5.074   8.553
 5367POPC   D2A 7888  22.963   5.138   8.253
 5367POPC   C3A 7889  22.937   5.081   7.953
 5367POPC   C4A 7890  22.898   5.142   7.653
 5367POPC   C1B 7891  22.676   4.927   8.553
 5367POPC   C2B 7892  22.753   4.945   8.253
 5367POPC   C3B 7893  22.689   4.956   7.953
 5367POPC   C4B 7894  22.684   4.950   7.653
 5368POPC   NC3 7895  25.227  27.618   9.453
 5368POPC   PO4 7896  25.223  27.612   9.153
 5368POPC   GL1 7897  25.237  27.607   8.853
 5368POPC   GL2 7898  25.140  27.501   8.853
 5368POPC   C1A 7899  25.220  27.638   8.553
 5368POPC   D2A 7900  25.235  27.546   8.253
 5368POPC   C3A 7901  25.300  27.586   7.953
 5368POPC   C4A 7902  25.237  27.572   7.653
 5368POPC   C1B 7903  25.076  27.544   8.553
 5368POPC   C2B 7904  25.028  27.535   8.253
 5368POPC   C3B 7905  25.018  27.543   7.953
 5368POPC   C4B 7906  25.081  27.515   7.653
 5369POPC   NC3 7907  19.802  24.478   9.453
 5369POPC   PO4 7908  19.842  24.467   9.153
 5369POPC   GL1 7909  19.810  24.524   8.853
 5369POPC   GL2 7910  19.860  24.390   8.853
 5369POPC   C1A 7911  19.790  24.496   8.553
 5369POPC   D2A 7912  19.831  24.506   8.253
 5369POPC   C3A 7913  19.827  24.471   7.953
 5369POPC   C4A 7914  19.797  24.443   7.653
 5369POPC   C1B 7915  19.889  24.237   8.553
 5369POPC   C2B 7916  19.926  24.225   8.253
 5369POPC   C3B 7917  19.915  24.286   7.953
 5369POPC   C4B 7918  19.931  24.241   7.653
 5370POPC   NC3 7919  30.732  39.974   9.453
 5370POPC   PO4 7920  30.683  39.989   9.153
 5370POPC   GL1 7921  30.717  40.028   8.853
 5370POPC   GL2 7922  30.649  40.153   8.853
 5370POPC   C1A 7923  30.713  39.971   8.553
 5370POPC   D2A 7924  30.665  40.007   8.253
 5370POPC   C3A 7925  30.702  39.995   7.953
 5370POPC   C4A 7926  30.734  39.994   7.653
 5370POPC   C1B 7927  30.585  40.232   8.553
 5370POPC   C2B 7928  30.582  40.225   8.253
 5370POPC   C3B 7929  30.527  40.191   7.953
 5370POPC   C4B 7930  30.569  40.261   7.653
 5371POPC   NC3 7931   8.230  27.590   9.453
 5371POPC   PO4 7932   8.156  27.585   9.153
 5371POPC   GL1 7933   8.230  27.572   8.853
 5371POPC   GL2 7934   8.122  27.591   8.853
 5371POPC   C1A 7935   8.203  27.593   8.553
 5371POPC   D2A 7936   8.230  27.587   8.253
 5371POPC   C3A 7937   8.181  27.627   7.953
 5371POPC   C4A 7938   8.186  27.610   7.653
 5371POPC   C1B 7939   7.984  27.696   8.553
 5371POPC   C2B 7940   7.998  27.633   8.253
 5371POPC   C3B 7941   8.002  27.643   7.953
 5371POPC   C4B 7942   7.983  27.710   7.653
 5372POPC   NC3 7943  34.533  19.812   9.453
 5372POPC   PO4 7944  34.550  19.796   9.153
 5372POPC   GL1 7945  34.574  19.864   8.853
 5372POPC   GL2 7946  34.690  19.946   8.853
 5372POPC   C1A 7947  34.602  19.877   8.553
 5372POPC   D2A 7948  34.601  19.793   8.253
 5372POPC   C3A 7949  34.555  19.797   7.953
 5372POPC   C4A 7950  34.535  19.826   7.653
 5372POPC   C1B 7951  34.727  20.062   8.553
 5372POPC   C2B 7952  34.786  19.987   8.253
 5372POPC   C3B 7953  34.772  20.040   7.953
 5372POPC   C4B 7954  34.751  20.061   7.653
 5373POPC   NC3 7955  19.796  19.853   9.453
 5373POPC   PO4 7956  19.802  19.817   9.153
 5373POPC   GL1 7957  19.810  19.797   8.853
 5373POPC   GL2 7958  19.771  19.803   8.853
 5373POPC   C1A 7959  19.834  19.796   8.553
 5373POPC   D2A 7960  19.839  19.839   8.253
 5373POPC   C3A 7961  19.810  19.866   7.953
 5373POPC   C4A 7962  19.795  19.797   7.653
 5373POPC   C1B 7963  19.611  19.686   8.553
 5373POPC   C2B 7964  19.678  19.717   8.253
 5373POPC   C3B 7965  19.592  19.637   7.953
 5373POPC   C4B 7966  19.648  19.677   7.653
 5374POPC   NC3 7967  33.029  12.882   9.453
 5374POPC   PO4 7968  32.991  12.873   9.153
 5374POPC   GL1 7969  33.012  12.835   8.853
 5374POPC   GL2 7970  33.065  12.727   8.853
 5374POPC   C1A 7971  33.024  12.885   8.553
 5374POPC   D2A 7972  33.061  12.830   8.253
 5374POPC   C3A 7973  32.979  12.879   7.953
 5374POPC   C4A 7974  32.978  12.870   7.653
 5374POPC   C1B 7975  33.174  12.652   8.553
 5374POPC   C2B 7976  33.146  12.679   8.253
 5374POPC   C3B 7977  33.153  12.676   7.953
 5374POPC   C4B 7978  33.234  12.614   7.653
 5375POPC   NC3 7979  43.114  34.553   9.453
 5375POPC   PO4 7980  43.073  34.584   9.153
 5375POPC   GL1 7981  43.136  34.610   8.853
 5375POPC   GL2 7982  42.970  34.464   8.853
 5375POPC   C1A 7983  43.115  34.609   8.553
 5375POPC   D2A 7984  43.151  34.578   8.253
 5375POPC   C3A 7985  43.086  34.601   7.953
 5375POPC   C4A 7986  43.151  34.572   7.653
 5375POPC   C1B 7987  42.894  34.395   8.553
 5375POPC   C2B 7988  42.893  34.450   8.253
 5375POPC   C3B 7989  42.884  34.399   7.953
 5375POPC   C4B 7990  42.929  34.473   7.653
 5376POPC   NC3 7991  33.784  15.140   9.453
 5376POPC   PO4 7992  33.800  15.168   9.153
 5376POPC   GL1 7993  33.774  15.165   8.853
 5376POPC   GL2 7994  33.915  15.164   8.853
 5376POPC   C1A 7995  33.762  15.226   8.553
 5376POPC   D2A 7996  33.785  15.183   8.253
 5376POPC   C3A 7997  33.798  15.183   7.953
 5376POPC   C4A 7998  33.818  15.171   7.653
 5376POPC   C1B 7999  34.039  15.063   8.553
 5376POPC   C2B 8000  34.023  15.098   8.253
 5376POPC   C3B 8001  34.013  15.118   7.953
 5376POPC   C4B 8002  34.009  15.074   7.653
 5377POPC   NC3 8003   5.895  43.925   9.453
 5377POPC   PO4 8004   5.872  43.904   9.153
 5377POPC   GL1 8005   5.859  43.915   8.853
 5377POPC   GL2 8006   5.935  43.940   8.853
 5377POPC   C1A 8007   5.909  43.854   8.553
 5377POPC   D2A 8008   5.841  43.887   8.253
 5377POPC   C3A 8009   5.855  43.904   7.953
 5377POPC   C4A 8010   5.902  43.917   7.653
 5377POPC   C1B 8011   6.096  44.082   8.553
 5377POPC   C2B 8012   6.028  44.061   8.253
 5377POPC   C3B 8013   6.045  44.068   7.953
 5377POPC   C4B 8014   6.090  44.041   7.653
 5378POPC   NC3 8015  17.508  42.291   9.453
 5378POPC   PO4 8016  17.491  42.319   9.153
 5378POPC   GL1 8017  17.549  42.329   8.853
 5378POPC   GL2 8018  17.388  42.281   8.853
 5378POPC   C1A 8019  17.523  42.286   8.553
 5378POPC   D2A 8020  17.468  42.321   8.253
 5378POPC   C3A 8021  17.462  42.346   7.953
 5378POPC   C4A 8022  17.463  42.374   7.653
 5378POPC   C1B 8023  17.324  42.194   8.553
 5378POPC   C2B 8024  17.331  42.217   8.253
 5378POPC   C3B 8025  17.271  42.179   7.953
 5378POPC   C4B 8026  17.285  42.143   7.653
 5379POPC   NC3 8027   2.755  39.963   9.453
 5379POPC   PO4 8028   2.788  39.989   9.153
 5379POPC   GL1 8029   2.803  40.016   8.853
 5379POPC   GL2 8030   2.817  39.919   8.853
 5379POPC   C1A 8031   2.742  40.056   8.553
 5379POPC   D2A 8032   2.765  40.030   8.253
 5379POPC   C3A 8033   2.770  40.017   7.953
 5379POPC   C4A 8034   2.794  39.976   7.653
 5379POPC   C1B 8035   2.851  39.823   8.553
 5379POPC   C2B 8036   2.848  39.759   8.253
 5379POPC   C3B 8037   2.860  39.764   7.953
 5379POPC   C4B 8038   2.841  39.766   7.653
 5380POPC   NC3 8039   7.427  11.303   9.453
 5380POPC   PO4 8040   7.371  11.277   9.153
 5380POPC   GL1 8041   7.420  11.321   8.853
 5380POPC   GL2 8042   7.417  11.400   8.853
 5380POPC   C1A 8043   7.429  11.314   8.553
 5380POPC   D2A 8044   7.383  11.301   8.253
 5380POPC   C3A 8045   7.446  11.290   7.953
 5380POPC   C4A 8046   7.470  11.311   7.653
 5380POPC   C1B 8047   7.334  11.501   8.553
 5380POPC   C2B 8048   7.324  11.490   8.253
 5380POPC   C3B 8049   7.357  11.564   7.953
 5380POPC   C4B 8050   7.374  11.490   7.653
 5381POPC   NC3 8051   9.006   8.148   9.453
 5381POPC   PO4 8052   8.971   8.242   9.153
 5381POPC   GL1 8053   8.925   8.181   8.853
 5381POPC   GL2 8054   8.865   8.268   8.853
 5381POPC   C1A 8055   8.962   8.243   8.553
 5381POPC   D2A 8056   8.992   8.222   8.253
 5381POPC   C3A 8057   8.994   8.231   7.953
 5381POPC   C4A 8058   9.000   8.220   7.653
 5381POPC   C1B 8059   8.861   8.397   8.553
 5381POPC   C2B 8060   8.822   8.432   8.253
 5381POPC   C3B 8061   8.852   8.382   7.953
 5381POPC   C4B 8062   8.787   8.425   7.653
 5382POPC   NC3 8063  29.962  44.633   9.453
 5382POPC   PO4 8064  29.884  44.634   9.153
 5382POPC   GL1 8065  29.890  44.647   8.853
 5382POPC   GL2 8066  30.054  44.586   8.853
 5382POPC   C1A 8067  29.927  44.646   8.553
 5382POPC   D2A 8068  29.907  44.693   8.253
 5382POPC   C3A 8069  29.944  44.679   7.953
 5382POPC   C4A 8070  29.896  44.653   7.653
 5382POPC   C1B 8071  30.133  44.458   8.553
 5382POPC   C2B 8072  30.147  44.505   8.253
 5382POPC   C3B 8073  30.063  44.458   7.953
 5382POPC   C4B 8074  30.084  44.528   7.653
 5383POPC   NC3 8075   5.905  12.040   9.453
 5383POPC   PO4 8076   5.905  12.122   9.153
 5383POPC   GL1 8077   5.906  12.027   8.853
 5383POPC   GL2 8078   5.787  12.146   8.853
 5383POPC   C1A 8079   5.843  12.077   8.553
 5383POPC   D2A 8080   5.848  12.116   8.253
 5383POPC   C3A 8081   5.844  12.035   7.953
 5383POPC   C4A 8082   5.854  12.117   7.653
 5383POPC   C1B 8083   5.645  12.166   8.553
 5383POPC   C2B 8084   5.607  12.084   8.253
 5383POPC   C3B 8085   5.582  12.083   7.953
 5383POPC   C4B 8086   5.609  12.155   7.653
 5384POPC   NC3 8087  17.528  12.841   9.453
 5384POPC   PO4 8088  17.506  12.863   9.153
 5384POPC   GL1 8089  17.488  12.805   8.853
 5384POPC   GL2 8090  17.654  12.882   8.853
 5384POPC   C1A 8091  17.474  12.813   8.553
 5384POPC   D2A 8092  17.524  12.875   8.253
 5384POPC   C3A 8093  17.557  12.859   7.953
 5384POPC   C4A 8094  17.504  12.813   7.653
 5384POPC   C1B 8095  17.763  12.916   8.553
 5384POPC   C2B 8096  17.735  12.879   8.253
 5384POPC   C3B 8097  17.745  12.866   7.953
 5384POPC   C4B 8098  17.705  12.900   7.653
 5385POPC   NC3 8099  22.161   8.948   9.453
 5385POPC   PO4 8100  22.174   8.936   9.153
 5385POPC   GL1 8101  22.210   8.925   8.853
 5385POPC   GL2 8102  22.144   9.090   8.853
 5385POPC   C1A 8103  22.139   8.995   8.553
 5385POPC   D2A 8104  22.164   8.978   8.253
 5385POPC   C3A 8105  22.128   8.958   7.953
 5385POPC   C4A 8106  22.132   8.976   7.653
 5385POPC   C1B 8107  22.000   9.180   8.553
 5385POPC   C2B 8108  22.004   9.188   8.253
 5385POPC   C3B 8109  22.060   9.182   7.953
 5385POPC   C4B 8110  22.040   9.224   7.653
 5386POPC   NC3 8111  43.124  13.602   9.453
 5386POPC   PO4 8112  43.095  13.638   9.153
 5386POPC   GL1 8113  43.070  13.629   8.853
 5386POPC   GL2 8114  43.256  13.653   8.853
 5386POPC   C1A 8115  43.080  13.590   8.553
 5386POPC   D2A 8116  43.066  13.644   8.253
 5386POPC   C3A 8117  43.087  13.611   7.953
 5386POPC   C4A 8118  43.099  13.609   7.653
 5386POPC   C1B 8119  43.342  13.707   8.553
 5386POPC   C2B 8120  43.345  13.688   8.253
 5386POPC   C3B 8121  43.319  13.718   7.953
 5386POPC   C4B 8122  43.328  13.700   7.653
 5387POPC   NC3 8123  39.252  36.863   9.453
 5387POPC   PO4 8124  39.274  36.953   9.153
 5387POPC   GL1 8125  39.226  36.932   8.853
 5387POPC   GL2 8126  39.301  36.775   8.853
 5387POPC   C1A 8127  39.243  36.866   8.553
 5387POPC   D2A 8128  39.205  36.890   8.253
 5387POPC   C3A 8129  39.236  36.952   7.953
 5387POPC   C4A 8130  39.195  36.914   7.653
 5387POPC   C1B 8131  39.424  36.715   8.553
 5387POPC   C2B 8132  39.416  36.708   8.253
 5387POPC   C3B 8133  39.451  36.760   7.953
 5387POPC   C4B 8134  39.413  36.728   7.653
 5388POPC   NC3 8135  14.385  26.069   9.453
 5388POPC   PO4 8136  14.392  26.008   9.153
 5388POPC   GL1 8137  14.428  26.062   8.853
 5388POPC   GL2 8138  14.488  26.176   8.853
 5388POPC   C1A 8139  14.438  26.031   8.553
 5388POPC   D2A 8140  14.442  26.000   8.253
 5388POPC   C3A 8141  14.409  26.031   7.953
 5388POPC   C4A 8142  14.358  26.037   7.653
 5388POPC   C1B 8143  14.556  26.230   8.553
 5388POPC   C2B 8144  14.600  26.205   8.253
 5388POPC   C3B 8145  14.567  26.268   7.953
 5388POPC   C4B 8146  14.616  26.213   7.653
 5389POPC   NC3 8147  32.269  33.787   9.453
 5389POPC   PO4 8148  32.268  33.824   9.153
 5389POPC   GL1 8149  32.225  33.838   8.853
 5389POPC   GL2 8150  32.110  33.774   8.853
 5389POPC   C1A 8151  32.289  33.837   8.553
 5389POPC   D2A 8152  32.293  33.758   8.253
 5389POPC   C3A 8153  32.222  33.790   7.953
 5389POPC   C4A 8154  32.210  33.764   7.653
 5389POPC   C1B 8155  31.974  33.882   8.553
 5389POPC   C2B 8156  32.022  33.794   8.253
 5389POPC   C3B 8157  32.027  33.864   7.953
 5389POPC   C4B 8158  32.035  33.851   7.653
 5390POPC   NC3 8159   2.773  12.039   9.453
 5390POPC   PO4 8160   2.721  12.030   9.153
 5390POPC   GL1 8161   2.781  12.103   8.853
 5390POPC   GL2 8162   2.729  12.179   8.853
 5390POPC   C1A 8163   2.799  12.032   8.553
 5390POPC   D2A 8164   2.764  12.028   8.253
 5390POPC   C3A 8165   2.760  12.113   7.953
 5390POPC   C4A 8166   2.756  12.120   7.653
 5390POPC   C1B 8167   2.605  12.297   8.553
 5390POPC   C2B 8168   2.686  12.294   8.253
 5390POPC   C3B 8169   2.619  12.248   7.953
 5390POPC   C4B 8170   2.596  12.306   7.653
 5391POPC   NC3 8171   3.559   2.031   9.453
 5391POPC   PO4 8172   3.517   2.030   9.153
 5391POPC   GL1 8173   3.540   1.985   8.853
 5391POPC   GL2 8174   3.665   1.842   8.853
 5391POPC   C1A 8175   3.564   1.958   8.553
 5391POPC   D2A 8176   3.499   2.008   8.253
 5391POPC   C3A 8177   3.498   2.007   7.953
 5391POPC   C4A 8178   3.565   1.966   7.653
 5391POPC   C1B 8179   3.683   1.770   8.553
 5391POPC   C2B 8180   3.719   1.776   8.253
 5391POPC   C3B 8181   3.675   1.802   7.953
 5391POPC   C4B 8182   3.715   1.792   7.653
 5392POPC   NC3 8183   7.379  40.744   9.453
 5392POPC   PO4 8184   7.413  40.776   9.153
 5392POPC   GL1 8185   7.385  40.751   8.853
 5392POPC   GL2 8186   7.329  40.755   8.853
 5392POPC   C1A 8187   7.373  40.734   8.553
 5392POPC   D2A 8188   7.468  40.780   8.253
 5392POPC   C3A 8189   7.431  40.747   7.953
 5392POPC   C4A 8190   7.394  40.759   7.653
 5392POPC   C1B 8191   7.187  40.707   8.553
 5392POPC   C2B 8192   7.152  40.805   8.253
 5392POPC   C3B 8193   7.166  40.765   7.953
 5392POPC   C4B 8194   7.153  40.746   7.653
 5393POPC   NC3 8195   5.046   5.895   9.453
 5393POPC   PO4 8196   5.076   5.863   9.153
 5393POPC   GL1 8197   5.103   5.886   8.853
 5393POPC   GL2 8198   5.233   5.873   8.853
 5393POPC   C1A 8199   5.095   5.903   8.553
 5393POPC   D2A 8200   5.090   5.874   8.253
 5393POPC   C3A 8201   5.058   5.870   7.953
 5393POPC   C4A 8202   5.098   5.907   7.653
 5393POPC   C1B 8203   5.336   5.977   8.553
 5393POPC   C2B 8204   5.355   5.935   8.253
 5393POPC   C3B 8205   5.374   5.943   7.953
 5393POPC   C4B 8206   5.311   5.901   7.653
 5394POPC   NC3 8207  15.139  12.897   9.453
 5394POPC   PO4 8208  15.156  12.804   9.153
 5394POPC   GL1 8209  15.221  12.840   8.853
 5394POPC   GL2 8210  15.033  12.818   8.853
 5394POPC   C1A 8211  15.180  12.833   8.553
 5394POPC   D2A 8212  15.204  12.802   8.253
 5394POPC   C3A 8213  15.191  12.892   7.953
 5394POPC   C4A 8214  15.134  12.821   7.653
 5394POPC   C1B 8215  14.905  12.905   8.553
 5394POPC   C2B 8216  14.969  12.886   8.253
 5394POPC   C3B 8217  14.911  12.841   7.953
 5394POPC   C4B 8218  14.970  12.839   7.653
 5395POPC   NC3 8219  34.609  28.409   9.453
 5395POPC   PO4 8220  34.540  28.413   9.153
 5395POPC   GL1 8221  34.593  28.330   8.853
 5395POPC   GL2 8222  34.546  28.517   8.853
 5395POPC   C1A 8223  34.540  28.376   8.553
 5395POPC   D2A 8224  34.549  28.407   8.253
 5395POPC   C3A 8225  34.536  28.343   7.953
 5395POPC   C4A 8226  34.536  28.327   7.653
 5395POPC   C1B 8227  34.495  28.630   8.553
 5395POPC   C2B 8228  34.513  28.628   8.253
 5395POPC   C3B 8229  34.441  28.599   7.953
 5395POPC   C4B 8230  34.434  28.626   7.653
 5396POPC   NC3 8231  44.659  43.911   9.453
 5396POPC   PO4 8232  44.705  43.928   9.153
 5396POPC   GL1 8233  44.655  43.883   8.853
 5396POPC   GL2 8234  44.813  43.910   8.853
 5396POPC   C1A 8235  44.683  43.919   8.553
 5396POPC   D2A 8236  44.691  43.878   8.253
 5396POPC   C3A 8237  44.641  43.842   7.953
 5396POPC   C4A 8238  44.675  43.887   7.653
 5396POPC   C1B 8239  44.905  44.007   8.553
 5396POPC   C2B 8240  44.867  43.996   8.253
 5396POPC   C3B 8241  44.931  43.972   7.953
 5396POPC   C4B 8242  44.884  44.010   7.653
 5397POPC   NC3 8243   5.072  17.529   9.453
 5397POPC   PO4 8244   5.052  17.462   9.153
 5397POPC   GL1 8245   5.120  17.483   8.853
 5397POPC   GL2 8246   5.187  17.592   8.853
 5397POPC   C1A 8247   5.124  17.536   8.553
 5397POPC   D2A 8248   5.143  17.553   8.253
 5397POPC   C3A 8249   5.069  17.476   7.953
 5397POPC   C4A 8250   5.131  17.531   7.653
 5397POPC   C1B 8251   5.176  17.702   8.553
 5397POPC   C2B 8252   5.151  17.774   8.253
 5397POPC   C3B 8253   5.201  17.711   7.953
 5397POPC   C4B 8254   5.210  17.753   7.653
 5398POPC   NC3 8255  19.065  16.701   9.453
 5398POPC   PO4 8256  19.079  16.708   9.153
 5398POPC   GL1 8257  19.058  16.754   8.853
 5398POPC   GL2 8258  19.010  16.859   8.853
 5398POPC   C1A 8259  19.108  16.697   8.553
 5398POPC   D2A 8260  19.082  16.701   8.253
 5398POPC   C3A 8261  19.097  16.721   7.953
 5398POPC   C4A 8262  19.049  16.765   7.653
 5398POPC   C1B 8263  18.854  16.942   8.553
 5398POPC   C2B 8264  18.868  16.865   8.253
 5398POPC   C3B 8265  18.890  16.941   7.953
 5398POPC   C4B 8266  18.847  16.847   7.653
 5399POPC   NC3 8267  35.378  38.455   9.453
 5399POPC   PO4 8268  35.303  38.429   9.153
 5399POPC   GL1 8269  35.400  38.432   8.853
 5399POPC   GL2 8270  35.340  38.576   8.853
 5399POPC   C1A 8271  35.377  38.462   8.553
 5399POPC   D2A 8272  35.318  38.462   8.253
 5399POPC   C3A 8273  35.342  38.485   7.953
 5399POPC   C4A 8274  35.373  38.485   7.653
 5399POPC   C1B 8275  35.346  38.742   8.553
 5399POPC   C2B 8276  35.313  38.657   8.253
 5399POPC   C3B 8277  35.355  38.692   7.953
 5399POPC   C4B 8278  35.343  38.680   7.653
 5400POPC   NC3 8279  15.214   7.394   9.453
 5400POPC   PO4 8280  15.191   7.421   9.153
 5400POPC   GL1 8281  15.137   7.435   8.853
 5400POPC   GL2 8282  15.322   7.463   8.853
 5400POPC   C1A 8283  15.130   7.436   8.553
 5400POPC   D2A 8284  15.199   7.454   8.253
 5400POPC   C3A 8285  15.212   7.416   7.953
 5400POPC   C4A 8286  15.179   7.429   7.653
 5400POPC   C1B 8287  15.395   7.507   8.553
 5400POPC   C2B 8288  15.380   7.419   8.253
 5400POPC   C3B 8289  15.468   7.409   7.953
 5400POPC   C4B 8290  15.405   7.470   7.653
 5401POPC   NC3 8291  31.484  29.959   9.453
 5401POPC   PO4 8292  31.497  29.914   9.153
 5401POPC   GL1 8293  31.495  29.961   8.853
 5401POPC   GL2 8294  31.392  29.974   8.853
 5401POPC   C1A 8295  31.456  29.910   8.553
 5401POPC   D2A 8296  31.460  29.940   8.253
 5401POPC   C3A 8297  31.506  29.968   7.953
 5401POPC   C4A 8298  31.469  29.952   7.653
 5401POPC   C1B 8299  31.326  30.130   8.553
 5401POPC   C2B 8300  31.291  30.091   8.253
 5401POPC   C3B 8301  31.304  30.109   7.953
 5401POPC   C4B 8302  31.375  30.089   7.653
 5402POPC   NC3 8303  20.591   6.613   9.453
 5402POPC   PO4 8304  20.588   6.683   9.153
 5402POPC   GL1 8305  20.565   6.631   8.853
 5402POPC   GL2 8306  20.731   6.622   8.853
 5402POPC   C1A 8307  20.628   6.674   8.553
 5402POPC   D2A 8308  20.573   6.624   8.253
 5402POPC   C3A 8309  20.578   6.606   7.953
 5402POPC   C4A 8310  20.583   6.681   7.653
 5402POPC   C1B 8311  20.858   6.630   8.553
 5402POPC   C2B 8312  20.829   6.604   8.253
 5402POPC   C3B 8313  20.896   6.579   7.953
 5402POPC   C4B 8314  20.898   6.597   7.653
 5403POPC   NC3 8315  34.534  25.269   9.453
 5403POPC   PO4 8316  34.542  25.301   9.153
 5403POPC   GL1 8317  34.570  25.239   8.853
 5403POPC   GL2 8318  34.624  25.155   8.853
 5403POPC   C1A 8319  34.552  25.244   8.553
 5403POPC   D2A 8320  34.615  25.297   8.253
 5403POPC   C3A 8321  34.598  25.260   7.953
 5403POPC   C4A 8322  34.579  25.230   7.653
 5403POPC   C1B 8323  34.608  25.003   8.553
 5403POPC   C2B 8324  34.614  24.987   8.253
 5403POPC   C3B 8325  34.656  25.067   7.953
 5403POPC   C4B 8326  34.578  25.059   7.653
 5404POPC   NC3 8327  28.380   0.406   9.453
 5404POPC   PO4 8328  28.336   0.429   9.153
 5404POPC   GL1 8329  28.414   0.434   8.853
 5404POPC   GL2 8330  28.267   0.525   8.853
 5404POPC   C1A 8331  28.327   0.425   8.553
 5404POPC   D2A 8332  28.375   0.480   8.253
 5404POPC   C3A 8333  28.347   0.430   7.953
 5404POPC   C4A 8334  28.409   0.481   7.653
 5404POPC   C1B 8335  28.151   0.528   8.553
 5404POPC   C2B 8336  28.098   0.548   8.253
 5404POPC   C3B 8337  28.146   0.574   7.953
 5404POPC   C4B 8338  28.099   0.494   7.653
 5405POPC   NC3 8339  31.428  31.436   9.453
 5405POPC   PO4 8340  31.490  31.479   9.153
 5405POPC   GL1 8341  31.488  31.453   8.853
 5405POPC   GL2 8342  31.391  31.497   8.853
 5405POPC   C1A 8343  31.424  31.499   8.553
 5405POPC   D2A 8344  31.498  31.431   8.253
 5405POPC   C3A 8345  31.444  31.486   7.953
 5405POPC   C4A 8346  31.438  31.453   7.653
 5405POPC   C1B 8347  31.193  31.529   8.553
 5405POPC   C2B 8348  31.222  31.551   8.253
 5405POPC   C3B 8349  31.227  31.522   7.953
 5405POPC   C4B 8350  31.253  31.516   7.653
 5406POPC   NC3 8351   9.762   5.087   9.453
 5406POPC   PO4 8352   9.792   5.043   9.153
 5406POPC   GL1 8353   9.751   5.111   8.853
 5406POPC   GL2 8354   9.764   5.225   8.853
 5406POPC   C1A 8355   9.753   5.103   8.553
 5406POPC   D2A 8356   9.786   5.080   8.253
 5406POPC   C3A 8357   9.766   5.121   7.953
 5406POPC   C4A 8358   9.766   5.130   7.653
 5406POPC   C1B 8359   9.816   5.366   8.553
 5406POPC   C2B 8360   9.837   5.314   8.253
 5406POPC   C3B 8361   9.816   5.316   7.953
 5406POPC   C4B 8362   9.829   5.339   7.653
 5407POPC   NC3 8363  35.365  43.122   9.453
 5407POPC   PO4 8364  35.380  43.064   9.153
 5407POPC   GL1 8365  35.310  43.115   8.853
 5407POPC   GL2 8366  35.421  42.967   8.853
 5407POPC   C1A 8367  35.309  43.152   8.553
 5407POPC   D2A 8368  35.365  43.066   8.253
 5407POPC   C3A 8369  35.328  43.115   7.953
 5407POPC   C4A 8370  35.343  43.079   7.653
 5407POPC   C1B 8371  35.493  42.968   8.553
 5407POPC   C2B 8372  35.521  42.966   8.253
 5407POPC   C3B 8373  35.545  42.971   7.953
 5407POPC   C4B 8374  35.559  42.953   7.653
 5408POPC   NC3 8375  19.052  19.875   9.453
 5408POPC   PO4 8376  19.079  19.807   9.153
 5408POPC   GL1 8377  19.098  19.795   8.853
 5408POPC   GL2 8378  19.020  19.931   8.853
 5408POPC   C1A 8379  19.051  19.843   8.553
 5408POPC   D2A 8380  19.020  19.871   8.253
 5408POPC   C3A 8381  19.066  19.834   7.953
 5408POPC   C4A 8382  19.088  19.814   7.653
 5408POPC   C1B 8383  18.992  20.065   8.553
 5408POPC   C2B 8384  18.953  20.058   8.253
 5408POPC   C3B 8385  18.996  20.016   7.953
 5408POPC   C4B 8386  18.919  20.027   7.653
 5409POPC   NC3 8387  41.585  15.184   9.453
 5409POPC   PO4 8388  41.603  15.141   9.153
 5409POPC   GL1 8389  41.552  15.132   8.853
 5409POPC   GL2 8390  41.446  15.194   8.853
 5409POPC   C1A 8391  41.517  15.135   8.553
 5409POPC   D2A 8392  41.516  15.202   8.253
 5409POPC   C3A 8393  41.556  15.220   7.953
 5409POPC   C4A 8394  41.585  15.171   7.653
 5409POPC   C1B 8395  41.343  15.308   8.553
 5409POPC   C2B 8396  41.370  15.270   8.253
 5409POPC   C3B 8397  41.326  15.330   7.953
 5409POPC   C4B 8398  41.345  15.338   7.653
 5410POPC   NC3 8399   1.998  39.270   9.453
 5410POPC   PO4 8400   1.995  39.181   9.153
 5410POPC   GL1 8401   2.032  39.275   8.853
 5410POPC   GL2 8402   1.915  39.206   8.853
 5410POPC   C1A 8403   1.977  39.230   8.553
 5410POPC   D2A 8404   1.961  39.260   8.253
 5410POPC   C3A 8405   1.959  39.201   7.953
 5410POPC   C4A 8406   1.950  39.251   7.653
 5410POPC   C1B 8407   1.764  39.180   8.553
 5410POPC   C2B 8408   1.706  39.120   8.253
 5410POPC   C3B 8409   1.709  39.154   7.953
 5410POPC   C4B 8410   1.713  39.152   7.653
 5411POPC   NC3 8411  32.278  16.696   9.453
 5411POPC   PO4 8412  32.205  16.683   9.153
 5411POPC   GL1 8413  32.254  16.749   8.853
 5411POPC   GL2 8414  32.280  16.643   8.853
 5411POPC   C1A 8415  32.199  16.715   8.553
 5411POPC   D2A 8416  32.200  16.685   8.253
 5411POPC   C3A 8417  32.290  16.707   7.953
 5411POPC   C4A 8418  32.241  16.771   7.653
 5411POPC   C1B 8419  32.253  16.470   8.553
 5411POPC   C2B 8420  32.260  16.479   8.253
 5411POPC   C3B 8421  32.281  16.435   7.953
 5411POPC   C4B 8422  32.256  16.497   7.653
 5412POPC   NC3 8423   1.171  15.946   9.453
 5412POPC   PO4 8424   1.233  15.973   9.153
 5412POPC   GL1 8425   1.171  15.936   8.853
 5412POPC   GL2 8426   1.154  15.882   8.853
 5412POPC   C1A 8427   1.192  15.974   8.553
 5412POPC   D2A 8428   1.195  15.914   8.253
 5412POPC   C3A 8429   1.179  15.990   7.953
 5412POPC   C4A 8430   1.197  15.926   7.653
 5412POPC   C1B 8431   1.005  15.773   8.553
 5412POPC   C2B 8432   0.995  15.783   8.253
 5412POPC   C3B 8433   1.006  15.813   7.953
 5412POPC   C4B 8434   1.092  15.787   7.653
 5413POPC   NC3 8435  12.868  29.948   9.453
 5413POPC   PO4 8436  12.807  29.928   9.153
 5413POPC   GL1 8437  12.831  29.920   8.853
 5413POPC   GL2 8438  12.842  30.063   8.853
 5413POPC   C1A 8439  12.826  29.937   8.553
 5413POPC   D2A 8440  12.807  29.962   8.253
 5413POPC   C3A 8441  12.816  29.881   7.953
 5413POPC   C4A 8442  12.901  29.967   7.653
 5413POPC   C1B 8443  12.969  30.118   8.553
 5413POPC   C2B 8444  12.944  30.118   8.253
 5413POPC   C3B 8445  12.953  30.140   7.953
 5413POPC   C4B 8446  12.885  30.169   7.653
 5414POPC   NC3 8447  39.220   4.283   9.453
 5414POPC   PO4 8448  39.200   4.323   9.153
 5414POPC   GL1 8449  39.204   4.321   8.853
 5414POPC   GL2 8450  39.343   4.261   8.853
 5414POPC   C1A 8451  39.213   4.333   8.553
 5414POPC   D2A 8452  39.209   4.366   8.253
 5414POPC   C3A 8453  39.249   4.357   7.953
 5414POPC   C4A 8454  39.227   4.287   7.653
 5414POPC   C1B 8455  39.400   4.111   8.553
 5414POPC   C2B 8456  39.437   4.194   8.253
 5414POPC   C3B 8457  39.449   4.192   7.953
 5414POPC   C4B 8458  39.407   4.106   7.653
 5415POPC   NC3 8459  11.307  22.131   9.453
 5415POPC   PO4 8460  11.291  22.172   9.153
 5415POPC   GL1 8461  11.338  22.164   8.853
 5415POPC   GL2 8462  11.450  22.086   8.853
 5415POPC   C1A 8463  11.324  22.158   8.553
 5415POPC   D2A 8464  11.261  22.120   8.253
 5415POPC   C3A 8465  11.340  22.205   7.953
 5415POPC   C4A 8466  11.253  22.195   7.653
 5415POPC   C1B 8467  11.476  22.081   8.553
 5415POPC   C2B 8468  11.492  22.078   8.253
 5415POPC   C3B 8469  11.500  22.076   7.953
 5415POPC   C4B 8470  11.564  21.997   7.653
 5416POPC   NC3 8471  32.200  31.515   9.453
 5416POPC   PO4 8472  32.226  31.504   9.153
 5416POPC   GL1 8473  32.281  31.494   8.853
 5416POPC   GL2 8474  32.290  31.347   8.853
 5416POPC   C1A 8475  32.255  31.493   8.553
 5416POPC   D2A 8476  32.242  31.483   8.253
 5416POPC   C3A 8477  32.250  31.512   7.953
 5416POPC   C4A 8478  32.275  31.438   7.653
 5416POPC   C1B 8479  32.408  31.258   8.553
 5416POPC   C2B 8480  32.399  31.270   8.253
 5416POPC   C3B 8481  32.397  31.286   7.953
 5416POPC   C4B 8482  32.333  31.206   7.653
 5417POPC   NC3 8483   1.971  40.766   9.453
 5417POPC   PO4 8484   2.004  40.795   9.153
 5417POPC   GL1 8485   1.958  40.803   8.853
 5417POPC   GL2 8486   1.889  40.757   8.853
 5417POPC   C1A 8487   1.947  40.826   8.553
 5417POPC   D2A 8488   1.978  40.737   8.253
 5417POPC   C3A 8489   2.001  40.787   7.953
 5417POPC   C4A 8490   1.943  40.786   7.653
 5417POPC   C1B 8491   1.733  40.668   8.553
 5417POPC   C2B 8492   1.791  40.682   8.253
 5417POPC   C3B 8493   1.806  40.680   7.953
 5417POPC   C4B 8494   1.749  40.705   7.653
 5418POPC   NC3 8495  26.794  16.739   9.453
 5418POPC   PO4 8496  26.774  16.774   9.153
 5418POPC   GL1 8497  26.862  16.735   8.853
 5418POPC   GL2 8498  26.781  16.812   8.853
 5418POPC   C1A 8499  26.819  16.741   8.553
 5418POPC   D2A 8500  26.791  16.778   8.253
 5418POPC   C3A 8501  26.838  16.685   7.953
 5418POPC   C4A 8502  26.827  16.751   7.653
 5418POPC   C1B 8503  26.795  16.943   8.553
 5418POPC   C2B 8504  26.823  17.001   8.253
 5418POPC   C3B 8505  26.787  16.983   7.953
 5418POPC   C4B 8506  26.861  16.937   7.653
 5419POPC   NC3 8507  16.711  15.138   9.453
 5419POPC   PO4 8508  16.699  15.214   9.153
 5419POPC   GL1 8509  16.741  15.202   8.853
 5419POPC   GL2 8510  16.812  15.105   8.853
 5419POPC   C1A 8511  16.730  15.152   8.553
 5419POPC   D2A 8512  16.738  15.177   8.253
 5419POPC   C3A 8513  16.746  15.167   7.953
 5419POPC   C4A 8514  16.705  15.200   7.653
 5419POPC   C1B 8515  16.978  15.078   8.553
 5419POPC   C2B 8516  16.957  15.098   8.253
 5419POPC   C3B 8517  17.002  15.064   7.953
 5419POPC   C4B 8518  16.976  15.093   7.653
 5420POPC   NC3 8519  29.920  27.569   9.453
 5420POPC   PO4 8520  29.912  27.609   9.153
 5420POPC   GL1 8521  29.900  27.548   8.853
 5420POPC   GL2 8522  29.867  27.439   8.853
 5420POPC   C1A 8523  29.898  27.637   8.553
 5420POPC   D2A 8524  29.937  27.590   8.253
 5420POPC   C3A 8525  29.936  27.573   7.953
 5420POPC   C4A 8526  29.929  27.568   7.653
 5420POPC   C1B 8527  29.826  27.346   8.553
 5420POPC   C2B 8528  29.799  27.363   8.253
 5420POPC   C3B 8529  29.824  27.346   7.953
 5420POPC   C4B 8530  29.872  27.339   7.653
 5421POPC   NC3 8531  23.762  35.351   9.453
 5421POPC   PO4 8532  23.717  35.317   9.153
 5421POPC   GL1 8533  23.667  35.375   8.853
 5421POPC   GL2 8534  23.676  35.446   8.853
 5421POPC   C1A 8535  23.714  35.341   8.553
 5421POPC   D2A 8536  23.721  35.356   8.253
 5421POPC   C3A 8537  23.698  35.373   7.953
 5421POPC   C4A 8538  23.726  35.376   7.653
 5421POPC   C1B 8539  23.682  35.621   8.553
 5421POPC   C2B 8540  23.711  35.567   8.253
 5421POPC   C3B 8541  23.689  35.620   7.953
 5421POPC   C4B 8542  23.695  35.644   7.653
 5422POPC   NC3 8543  44.646  12.827   9.453
 5422POPC   PO4 8544  44.635  12.866   9.153
 5422POPC   GL1 8545  44.708  12.838   8.853
 5422POPC   GL2 8546  44.715  12.721   8.853
 5422POPC   C1A 8547  44.643  12.814   8.553
 5422POPC   D2A 8548  44.665  12.804   8.253
 5422POPC   C3A 8549  44.709  12.836   7.953
 5422POPC   C4A 8550  44.656  12.864   7.653
 5422POPC   C1B 8551  44.839  12.648   8.553
 5422POPC   C2B 8552  44.866  12.671   8.253
 5422POPC   C3B 8553  44.864  12.699   7.953
 5422POPC   C4B 8554  44.857  12.674   7.653
 5423POPC   NC3 8555   1.998  12.866   9.453
 5423POPC   PO4 8556   2.032  12.863   9.153
 5423POPC   GL1 8557   1.992  12.900   8.853
 5423POPC   GL2 8558   2.088  12.960   8.853
 5423POPC   C1A 8559   2.025  12.888   8.553
 5423POPC   D2A 8560   1.997  12.874   8.253
 5423POPC   C3A 8561   1.943  12.850   7.953
 5423POPC   C4A 8562   1.998  12.867   7.653
 5423POPC   C1B 8563   2.199  12.959   8.553
 5423POPC   C2B 8564   2.158  13.047   8.253
 5423POPC   C3B 8565   2.179  12.954   7.953
 5423POPC   C4B 8566   2.200  13.002   7.653
 5424POPC   NC3 8567  10.509  16.716   9.453
 5424POPC   PO4 8568  10.491  16.723   9.153
 5424POPC   GL1 8569  10.552  16.715   8.853
 5424POPC   GL2 8570  10.654  16.792   8.853
 5424POPC   C1A 8571  10.504  16.713   8.553
 5424POPC   D2A 8572  10.478  16.779   8.253
 5424POPC   C3A 8573  10.486  16.716   7.953
 5424POPC   C4A 8574  10.498  16.755   7.653
 5424POPC   C1B 8575  10.709  16.813   8.553
 5424POPC   C2B 8576  10.717  16.818   8.253
 5424POPC   C3B 8577  10.702  16.875   7.953
 5424POPC   C4B 8578  10.779  16.888   7.653
 5425POPC   NC3 8579  22.200  15.983   9.453
 5425POPC   PO4 8580  22.150  15.928   9.153
 5425POPC   GL1 8581  22.134  16.004   8.853
 5425POPC   GL2 8582  22.206  16.022   8.853
 5425POPC   C1A 8583  22.181  15.947   8.553
 5425POPC   D2A 8584  22.133  15.947   8.253
 5425POPC   C3A 8585  22.190  15.988   7.953
 5425POPC   C4A 8586  22.140  15.990   7.653
 5425POPC   C1B 8587  22.335  16.096   8.553
 5425POPC   C2B 8588  22.330  16.106   8.253
 5425POPC   C3B 8589  22.339  16.159   7.953
 5425POPC   C4B 8590  22.347  16.178   7.653
 5426POPC   NC3 8591  26.008  35.366   9.453
 5426POPC   PO4 8592  26.010  35.385   9.153
 5426POPC   GL1 8593  26.074  35.302   8.853
 5426POPC   GL2 8594  26.060  35.432   8.853
 5426POPC   C1A 8595  26.051  35.306   8.553
 5426POPC   D2A 8596  26.090  35.344   8.253
 5426POPC   C3A 8597  26.056  35.312   7.953
 5426POPC   C4A 8598  26.057  35.344   7.653
 5426POPC   C1B 8599  26.132  35.549   8.553
 5426POPC   C2B 8600  26.106  35.554   8.253
 5426POPC   C3B 8601  26.131  35.559   7.953
 5426POPC   C4B 8602  26.171  35.576   7.653
 5427POPC   NC3 8603   9.785  40.760   9.453
 5427POPC   PO4 8604   9.736  40.794   9.153
 5427POPC   GL1 8605   9.762  40.743   8.853
 5427POPC   GL2 8606   9.661  40.856   8.853
 5427POPC   C1A 8607   9.719  40.830   8.553
 5427POPC   D2A 8608   9.731  40.749   8.253
 5427POPC   C3A 8609   9.755  40.797   7.953
 5427POPC   C4A 8610   9.740  40.812   7.653
 5427POPC   C1B 8611   9.557  40.882   8.553
 5427POPC   C2B 8612   9.547  40.881   8.253
 5427POPC   C3B 8613   9.503  40.929   7.953
 5427POPC   C4B 8614   9.523  40.919   7.653
 5428POPC   NC3 8615   1.259  16.746   9.453
 5428POPC   PO4 8616   1.203  16.699   9.153
 5428POPC   GL1 8617   1.204  16.765   8.853
 5428POPC   GL2 8618   1.179  16.638   8.853
 5428POPC   C1A 8619   1.225  16.728   8.553
 5428POPC   D2A 8620   1.225  16.692   8.253
 5428POPC   C3A 8621   1.185  16.723   7.953
 5428POPC   C4A 8622   1.239  16.727   7.653
 5428POPC   C1B 8623   1.188  16.437   8.553
 5428POPC   C2B 8624   1.247  16.483   8.253
 5428POPC   C3B 8625   1.204  16.476   7.953
 5428POPC   C4B 8626   1.217  16.527   7.653
 5429POPC   NC3 8627  26.029  15.137   9.453
 5429POPC   PO4 8628  26.048  15.163   9.153
 5429POPC   GL1 8629  26.075  15.142   8.853
 5429POPC   GL2 8630  26.143  15.217   8.853
 5429POPC   C1A 8631  26.009  15.177   8.553
 5429POPC   D2A 8632  26.015  15.197   8.253
 5429POPC   C3A 8633  26.012  15.190   7.953
 5429POPC   C4A 8634  26.048  15.151   7.653
 5429POPC   C1B 8635  26.291  15.275   8.553
 5429POPC   C2B 8636  26.264  15.248   8.253
 5429POPC   C3B 8637  26.237  15.218   7.953
 5429POPC   C4B 8638  26.312  15.220   7.653
 5430POPC   NC3 8639  35.308  10.490   9.453
 5430POPC   PO4 8640  35.381  10.559   9.153
 5430POPC   GL1 8641  35.302  10.505   8.853
 5430POPC   GL2 8642  35.347  10.694   8.853
 5430POPC   C1A 8643  35.320  10.477   8.553
 5430POPC   D2A 8644  35.328  10.544   8.253
 5430POPC   C3A 8645  35.369  10.513   7.953
 5430POPC   C4A 8646  35.331  10.542   7.653
 5430POPC   C1B 8647  35.354  10.813   8.553
 5430POPC   C2B 8648  35.370  10.821   8.253
 5430POPC   C3B 8649  35.407  10.796   7.953
 5430POPC   C4B 8650  35.369  10.749   7.653
 5431POPC   NC3 8651  42.288  38.475   9.453
 5431POPC   PO4 8652  42.324  38.437   9.153
 5431POPC   GL1 8653  42.335  38.420   8.853
 5431POPC   GL2 8654  42.419  38.538   8.853
 5431POPC   C1A 8655  42.339  38.469   8.553
 5431POPC   D2A 8656  42.368  38.418   8.253
 5431POPC   C3A 8657  42.339  38.463   7.953
 5431POPC   C4A 8658  42.384  38.423   7.653
 5431POPC   C1B 8659  42.599  38.547   8.553
 5431POPC   C2B 8660  42.569  38.534   8.253
 5431POPC   C3B 8661  42.538  38.552   7.953
 5431POPC   C4B 8662  42.525  38.584   7.653
 5432POPC   NC3 8663  15.961   5.919   9.453
 5432POPC   PO4 8664  15.923   5.825   9.153
 5432POPC   GL1 8665  15.988   5.838   8.853
 5432POPC   GL2 8666  15.889   5.741   8.853
 5432POPC   C1A 8667  15.971   5.820   8.553
 5432POPC   D2A 8668  15.958   5.910   8.253
 5432POPC   C3A 8669  15.988   5.886   7.953
 5432POPC   C4A 8670  15.920   5.887   7.653
 5432POPC   C1B 8671  15.770   5.688   8.553
 5432POPC   C2B 8672  15.737   5.687   8.253
 5432POPC   C3B 8673  15.813   5.686   7.953
 5432POPC   C4B 8674  15.742   5.724   7.653
 5433POPC   NC3 8675  30.727  22.209   9.453
 5433POPC   PO4 8676  30.661  22.170   9.153
 5433POPC   GL1 8677  30.670  22.175   8.853
 5433POPC   GL2 8678  30.822  22.114   8.853
 5433POPC   C1A 8679  30.681  22.159   8.553
 5433POPC   D2A 8680  30.701  22.133   8.253
 5433POPC   C3A 8681  30.680  22.130   7.953
 5433POPC   C4A 8682  30.683  22.183   7.653
 5433POPC   C1B 8683  30.908  22.033   8.553
 5433POPC   C2B 8684  30.849  22.003   8.253
 5433POPC   C3B 8685  30.856  21.959   7.953
 5433POPC   C4B 8686  30.912  21.992   7.653
 5434POPC   NC3 8687   3.555   9.734   9.453
 5434POPC   PO4 8688   3.579   9.718   9.153
 5434POPC   GL1 8689   3.591   9.732   8.853
 5434POPC   GL2 8690   3.680   9.819   8.853
 5434POPC   C1A 8691   3.561   9.715   8.553
 5434POPC   D2A 8692   3.526   9.732   8.253
 5434POPC   C3A 8693   3.500   9.764   7.953
 5434POPC   C4A 8694   3.505   9.746   7.653
 5434POPC   C1B 8695   3.739   9.846   8.553
 5434POPC   C2B 8696   3.718   9.894   8.253
 5434POPC   C3B 8697   3.723   9.885   7.953
 5434POPC   C4B 8698   3.789   9.876   7.653
 5435POPC   NC3 8699   9.732  10.529   9.453
 5435POPC   PO4 8700   9.707  10.505   9.153
 5435POPC   GL1 8701   9.756  10.565   8.853
 5435POPC   GL2 8702   9.736  10.402   8.853
 5435POPC   C1A 8703   9.732  10.513   8.553
 5435POPC   D2A 8704   9.787  10.558   8.253
 5435POPC   C3A 8705   9.780  10.484   7.953
 5435POPC   C4A 8706   9.730  10.564   7.653
 5435POPC   C1B 8707   9.716  10.296   8.553
 5435POPC   C2B 8708   9.670  10.306   8.253
 5435POPC   C3B 8709   9.643  10.307   7.953
 5435POPC   C4B 8710   9.686  10.330   7.653
 5436POPC   NC3 8711  44.644  29.950   9.453
 5436POPC   PO4 8712  44.633  29.895   9.153
 5436POPC   GL1 8713  44.706  29.930   8.853
 5436POPC   GL2 8714  44.794  29.840   8.853
 5436POPC   C1A 8715  44.693  29.935   8.553
 5436POPC   D2A 8716  44.665  29.929   8.253
 5436POPC   C3A 8717  44.650  29.893   7.953
 5436POPC   C4A 8718  44.637  29.921   7.653
 5436POPC   C1B 8719  44.866  29.853   8.553
 5436POPC   C2B 8720  44.859  29.797   8.253
 5436POPC   C3B 8721  44.898  29.755   7.953
 5436POPC   C4B 8722  44.918  29.825   7.653
 5437POPC   NC3 8723  37.709   6.676   9.453
 5437POPC   PO4 8724  37.713   6.668   9.153
 5437POPC   GL1 8725  37.680   6.631   8.853
 5437POPC   GL2 8726  37.814   6.726   8.853
 5437POPC   C1A 8727  37.704   6.606   8.553
 5437POPC   D2A 8728  37.673   6.642   8.253
 5437POPC   C3A 8729  37.692   6.637   7.953
 5437POPC   C4A 8730  37.646   6.644   7.653
 5437POPC   C1B 8731  37.947   6.703   8.553
 5437POPC   C2B 8732  37.868   6.770   8.253
 5437POPC   C3B 8733  37.941   6.741   7.953
 5437POPC   C4B 8734  37.881   6.710   7.653
 5438POPC   NC3 8735  37.692  13.652   9.453
 5438POPC   PO4 8736  37.655  13.587   9.153
 5438POPC   GL1 8737  37.699  13.628   8.853
 5438POPC   GL2 8738  37.743  13.756   8.853
 5438POPC   C1A 8739  37.649  13.641   8.553
 5438POPC   D2A 8740  37.642  13.624   8.253
 5438POPC   C3A 8741  37.690  13.648   7.953
 5438POPC   C4A 8742  37.717  13.671   7.653
 5438POPC   C1B 8743  37.809  13.848   8.553
 5438POPC   C2B 8744  37.865  13.884   8.253
 5438POPC   C3B 8745  37.822  13.818   7.953
 5438POPC   C4B 8746  37.856  13.793   7.653
 5439POPC   NC3 8747  36.080  23.696   9.453
 5439POPC   PO4 8748  36.142  23.753   9.153
 5439POPC   GL1 8749  36.121  23.719   8.853
 5439POPC   GL2 8750  36.180  23.832   8.853
 5439POPC   C1A 8751  36.116  23.713   8.553
 5439POPC   D2A 8752  36.136  23.712   8.253
 5439POPC   C3A 8753  36.117  23.673   7.953
 5439POPC   C4A 8754  36.107  23.733   7.653
 5439POPC   C1B 8755  36.185  23.968   8.553
 5439POPC   C2B 8756  36.145  24.002   8.253
 5439POPC   C3B 8757  36.135  23.932   7.953
 5439POPC   C4B 8758  36.187  23.978   7.653
 5440POPC   NC3 8759  20.599  28.333   9.453
 5440POPC   PO4 8760  20.617  28.388   9.153
 5440POPC   GL1 8761  20.599  28.340   8.853
 5440POPC   GL2 8762  20.667  28.232   8.853
 5440POPC   C1A 8763  20.660  28.352   8.553
 5440POPC   D2A 8764  20.595  28.413   8.253
 5440POPC   C3A 8765  20.619  28.322   7.953
 5440POPC   C4A 8766  20.597  28.405   7.653
 5440POPC   C1B 8767  20.652  28.162   8.553
 5440POPC   C2B 8768  20.681  28.164   8.253
 5440POPC   C3B 8769  20.663  28.081   7.953
 5440POPC   C4B 8770  20.674  28.073   7.653
 5441POPC   NC3 8771  12.091   6.626   9.453
 5441POPC   PO4 8772  12.051   6.598   9.153
 5441POPC   GL1 8773  12.117   6.618   8.853
 5441POPC   GL2 8774  11.951   6.517   8.853
 5441POPC   C1A 8775  12.115   6.603   8.553
 5441POPC   D2A 8776  12.082   6.647   8.253
 5441POPC   C3A 8777  12.078   6.596   7.953
 5441POPC   C4A 8778  12.121   6.603   7.653
 5441POPC   C1B 8779  11.953   6.431   8.553
 5441POPC   C2B 8780  11.879   6.460   8.253
 5441POPC   C3B 8781  11.931   6.438   7.953
 5441POPC   C4B 8782  11.930   6.495   7.653
 5442POPC   NC3 8783  20.657  42.372   9.453
 5442POPC   PO4 8784  20.603  42.343   9.153
 5442POPC   GL1 8785  20.657  42.373   8.853
 5442POPC   GL2 8786  20.519  42.442   8.853
 5442POPC   C1A 8787  20.571  42.318   8.553
 5442POPC   D2A 8788  20.611  42.346   8.253
 5442POPC   C3A 8789  20.585  42.304   7.953
 5442POPC   C4A 8790  20.657  42.329   7.653
 5442POPC   C1B 8791  20.413  42.576   8.553
 5442POPC   C2B 8792  20.462  42.521   8.253
 5442POPC   C3B 8793  20.411  42.505   7.953
 5442POPC   C4B 8794  20.469  42.569   7.653
 5443POPC   NC3 8795  11.294  37.698   9.453
 5443POPC   PO4 8796  11.276  37.725   9.153
 5443POPC   GL1 8797  11.338  37.668   8.853
 5443POPC   GL2 8798  11.341  37.800   8.853
 5443POPC   C1A 8799  11.339  37.688   8.553
 5443POPC   D2A 8800  11.324  37.662   8.253
 5443POPC   C3A 8801  11.324  37.705   7.953
 5443POPC   C4A 8802  11.253  37.648   7.653
 5443POPC   C1B 8803  11.356  37.971   8.553
 5443POPC   C2B 8804  11.340  37.885   8.253
 5443POPC   C3B 8805  11.362  37.930   7.953
 5443POPC   C4B 8806  11.347  37.891   7.653
 5444POPC   NC3 8807  41.535  39.195   9.453
 5444POPC   PO4 8808  41.518  39.239   9.153
 5444POPC   GL1 8809  41.529  39.261   8.853
 5444POPC   GL2 8810  41.580  39.105   8.853
 5444POPC   C1A 8811  41.568  39.227   8.553
 5444POPC   D2A 8812  41.518  39.255   8.253
 5444POPC   C3A 8813  41.574  39.253   7.953
 5444POPC   C4A 8814  41.515  39.226   7.653
 5444POPC   C1B 8815  41.492  39.020   8.553
 5444POPC   C2B 8816  41.481  38.936   8.253
 5444POPC   C3B 8817  41.485  38.972   7.953
 5444POPC   C4B 8818  41.547  39.022   7.653
 5445POPC   NC3 8819  20.646  33.772   9.453
 5445POPC   PO4 8820  20.571  33.776   9.153
 5445POPC   GL1 8821  20.592  33.770   8.853
 5445POPC   GL2 8822  20.592  33.694   8.853
 5445POPC   C1A 8823  20.574  33.776   8.553
 5445POPC   D2A 8824  20.644  33.757   8.253
 5445POPC   C3A 8825  20.571  33.805   7.953
 5445POPC   C4A 8826  20.656  33.839   7.653
 5445POPC   C1B 8827  20.624  33.570   8.553
 5445POPC   C2B 8828  20.682  33.513   8.253
 5445POPC   C3B 8829  20.652  33.585   7.953
 5445POPC   C4B 8830  20.647  33.589   7.653
 5446POPC   NC3 8831  37.677  12.901   9.453
 5446POPC   PO4 8832  37.712  12.812   9.153
 5446POPC   GL1 8833  37.695  12.841   8.853
 5446POPC   GL2 8834  37.754  12.981   8.853
 5446POPC   C1A 8835  37.692  12.830   8.553
 5446POPC   D2A 8836  37.635  12.859   8.253
 5446POPC   C3A 8837  37.725  12.843   7.953
 5446POPC   C4A 8838  37.710  12.814   7.653
 5446POPC   C1B 8839  37.820  13.034   8.553
 5446POPC   C2B 8840  37.882  13.066   8.253
 5446POPC   C3B 8841  37.818  12.981   7.953
 5446POPC   C4B 8842  37.868  13.045   7.653
 5447POPC   NC3 8843  33.040  19.847   9.453
 5447POPC   PO4 8844  33.022  19.856   9.153
 5447POPC   GL1 8845  33.009  19.835   8.853
 5447POPC   GL2 8846  33.101  19.934   8.853
 5447POPC   C1A 8847  33.004  19.824   8.553
 5447POPC   D2A 8848  32.990  19.841   8.253
 5447POPC   C3A 8849  33.065  19.808   7.953
 5447POPC   C4A 8850  33.064  19.800   7.653
 5447POPC   C1B 8851  33.129  20.055   8.553
 5447POPC   C2B 8852  33.147  20.033   8.253
 5447POPC   C3B 8853  33.124  20.043   7.953
 5447POPC   C4B 8854  33.186  19.991   7.653
 5448POPC   NC3 8855  35.392  27.548   9.453
 5448POPC   PO4 8856  35.383  27.606   9.153
 5448POPC   GL1 8857  35.359  27.629   8.853
 5448POPC   GL2 8858  35.275  27.685   8.853
 5448POPC   C1A 8859  35.306  27.640   8.553
 5448POPC   D2A 8860  35.306  27.582   8.253
 5448POPC   C3A 8861  35.307  27.613   7.953
 5448POPC   C4A 8862  35.352  27.574   7.653
 5448POPC   C1B 8863  35.177  27.779   8.553
 5448POPC   C2B 8864  35.185  27.750   8.253
 5448POPC   C3B 8865  35.204  27.822   7.953
 5448POPC   C4B 8866  35.216  27.818   7.653
 5449POPC   NC3 8867  32.284  37.687   9.453
 5449POPC   PO4 8868  32.269  37.716   9.153
 5449POPC   GL1 8869  32.199  37.638   8.853
 5449POPC   GL2 8870  32.275  37.592   8.853
 5449POPC   C1A 8871  32.260  37.632   8.553
 5449POPC   D2A 8872  32.209  37.666   8.253
 5449POPC   C3A 8873  32.235  37.634   7.953
 5449POPC   C4A 8874  32.243  37.638   7.653
 5449POPC   C1B 8875  32.325  37.388   8.553
 5449POPC   C2B 8876  32.336  37.430   8.253
 5449POPC   C3B 8877  32.357  37.398   7.953
 5449POPC   C4B 8878  32.261  37.408   7.653
 5450POPC   NC3 8879   2.028  43.111   9.453
 5450POPC   PO4 8880   1.967  43.160   9.153
 5450POPC   GL1 8881   2.005  43.063   8.853
 5450POPC   GL2 8882   2.080  43.104   8.853
 5450POPC   C1A 8883   1.942  43.067   8.553
 5450POPC   D2A 8884   1.979  43.099   8.253
 5450POPC   C3A 8885   1.991  43.067   7.953
 5450POPC   C4A 8886   1.969  43.075   7.653
 5450POPC   C1B 8887   2.257  43.177   8.553
 5450POPC   C2B 8888   2.236  43.185   8.253
 5450POPC   C3B 8889   2.221  43.146   7.953
 5450POPC   C4B 8890   2.257  43.170   7.653
 5451POPC   NC3 8891  20.592  18.274   9.453
 5451POPC   PO4 8892  20.658  18.259   9.153
 5451POPC   GL1 8893  20.623  18.332   8.853
 5451POPC   GL2 8894  20.591  18.127   8.853
 5451POPC   C1A 8895  20.578  18.274   8.553
 5451POPC   D2A 8896  20.637  18.274   8.253
 5451POPC   C3A 8897  20.591  18.332   7.953
 5451POPC   C4A 8898  20.611  18.263   7.653
 5451POPC   C1B 8899  20.671  18.001   8.553
 5451POPC   C2B 8900  20.648  17.987   8.253
 5451POPC   C3B 8901  20.628  18.047   7.953
 5451POPC   C4B 8902  20.616  18.037   7.653
 5452POPC   NC3 8903   1.167  26.792   9.453
 5452POPC   PO4 8904   1.181  26.853   9.153
 5452POPC   GL1 8905   1.207  26.778   8.853
 5452POPC   GL2 8906   1.240  26.939   8.853
 5452POPC   C1A 8907   1.229  26.805   8.553
 5452POPC   D2A 8908   1.218  26.796   8.253
 5452POPC   C3A 8909   1.215  26.778   7.953
 5452POPC   C4A 8910   1.262  26.819   7.653
 5452POPC   C1B 8911   1.278  27.070   8.553
 5452POPC   C2B 8912   1.300  27.011   8.253
 5452POPC   C3B 8913   1.309  27.093   7.953
 5452POPC   C4B 8914   1.242  27.068   7.653
 5453POPC   NC3 8915  29.139  13.597   9.453
 5453POPC   PO4 8916  29.184  13.660   9.153
 5453POPC   GL1 8917  29.174  13.653   8.853
 5453POPC   GL2 8918  29.263  13.690   8.853
 5453POPC   C1A 8919  29.169  13.639   8.553
 5453POPC   D2A 8920  29.193  13.591   8.253
 5453POPC   C3A 8921  29.171  13.588   7.953
 5453POPC   C4A 8922  29.128  13.605   7.653
 5453POPC   C1B 8923  29.388  13.714   8.553
 5453POPC   C2B 8924  29.360  13.739   8.253
 5453POPC   C3B 8925  29.381  13.744   7.953
 5453POPC   C4B 8926  29.426  13.670   7.653
 5454POPC   NC3 8927  36.921  33.826   9.453
 5454POPC   PO4 8928  36.893  33.804   9.153
 5454POPC   GL1 8929  36.873  33.764   8.853
 5454POPC   GL2 8930  36.865  33.943   8.853
 5454POPC   C1A 8931  36.953  33.801   8.553
 5454POPC   D2A 8932  36.881  33.770   8.253
 5454POPC   C3A 8933  36.927  33.773   7.953
 5454POPC   C4A 8934  36.916  33.784   7.653
 5454POPC   C1B 8935  36.789  34.072   8.553
 5454POPC   C2B 8936  36.793  34.066   8.253
 5454POPC   C3B 8937  36.828  34.006   7.953
 5454POPC   C4B 8938  36.808  34.087   7.653
 5455POPC   NC3 8939   8.984  24.508   9.453
 5455POPC   PO4 8940   8.931  24.513   9.153
 5455POPC   GL1 8941   8.982  24.510   8.853
 5455POPC   GL2 8942   9.081  24.461   8.853
 5455POPC   C1A 8943   8.960  24.466   8.553
 5455POPC   D2A 8944   8.995  24.467   8.253
 5455POPC   C3A 8945   8.941  24.495   7.953
 5455POPC   C4A 8946   8.931  24.453   7.653
 5455POPC   C1B 8947   9.242  24.371   8.553
 5455POPC   C2B 8948   9.167  24.420   8.253
 5455POPC   C3B 8949   9.175  24.431   7.953
 5455POPC   C4B 8950   9.246  24.417   7.653
 5456POPC   NC3 8951  29.137  33.007   9.453
 5456POPC   PO4 8952  29.178  33.025   9.153
 5456POPC   GL1 8953  29.147  33.056   8.853
 5456POPC   GL2 8954  29.012  33.006   8.853
 5456POPC   C1A 8955  29.184  33.014   8.553
 5456POPC   D2A 8956  29.115  32.998   8.253
 5456POPC   C3A 8957  29.155  33.051   7.953
 5456POPC   C4A 8958  29.103  33.004   7.653
 5456POPC   C1B 8959  28.920  32.851   8.553
 5456POPC   C2B 8960  28.938  32.923   8.253
 5456POPC   C3B 8961  28.908  32.935   7.953
 5456POPC   C4B 8962  28.926  32.916   7.653
 5457POPC   NC3 8963  23.686  14.442   9.453
 5457POPC   PO4 8964  23.739  14.399   9.153
 5457POPC   GL1 8965  23.698  14.397   8.853
 5457POPC   GL2 8966  23.724  14.286   8.853
 5457POPC   C1A 8967  23.744  14.412   8.553
 5457POPC   D2A 8968  23.736  14.451   8.253
 5457POPC   C3A 8969  23.728  14.421   7.953
 5457POPC   C4A 8970  23.757  14.452   7.653
 5457POPC   C1B 8971  23.654  14.191   8.553
 5457POPC   C2B 8972  23.696  14.122   8.253
 5457POPC   C3B 8973  23.711  14.170   7.953
 5457POPC   C4B 8974  23.630  14.179   7.653
 5458POPC   NC3 8975  32.272  15.981   9.453
 5458POPC   PO4 8976  32.216  15.967   9.153
 5458POPC   GL1 8977  32.238  15.984   8.853
 5458POPC   GL2 8978  32.301  15.850   8.853
 5458POPC   C1A 8979  32.250  15.976   8.553
 5458POPC   D2A 8980  32.245  15.943   8.253
 5458POPC   C3A 8981  32.259  15.960   7.953
 5458POPC   C4A 8982  32.212  15.944   7.653
 5458POPC   C1B 8983  32.367  15.720   8.553
 5458POPC   C2B 8984  32.293  15.721   8.253
 5458POPC   C3B 8985  32.315  15.670   7.953
 5458POPC   C4B 8986  32.320  15.669   7.653
 5459POPC   NC3 8987  43.119   2.793   9.453
 5459POPC   PO4 8988  43.097   2.745   9.153
 5459POPC   GL1 8989  43.086   2.763   8.853
 5459POPC   GL2 8990  43.058   2.900   8.853
 5459POPC   C1A 8991  43.076   2.738   8.553
 5459POPC   D2A 8992  43.119   2.778   8.253
 5459POPC   C3A 8993  43.106   2.725   7.953
 5459POPC   C4A 8994  43.131   2.753   7.653
 5459POPC   C1B 8995  43.079   3.049   8.553
 5459POPC   C2B 8996  43.035   2.998   8.253
 5459POPC   C3B 8997  43.105   2.975   7.953
 5459POPC   C4B 8998  43.047   3.040   7.653
 5460POPC   NC3 8999  41.589  21.368   9.453
 5460POPC   PO4 9000  41.548  21.398   9.153
 5460POPC   GL1 9001  41.586  21.385   8.853
 5460POPC   GL2 9002  41.418  21.348   8.853
 5460POPC   C1A 9003  41.523  21.433   8.553
 5460POPC   D2A 9004  41.547  21.416   8.253
 5460POPC   C3A 9005  41.574  21.354   7.953
 5460POPC   C4A 9006  41.601  21.428   7.653
 5460POPC   C1B 9007  41.341  21.243   8.553
 5460POPC   C2B 9008  41.320  21.224   8.253
 5460POPC   C3B 9009  41.329  21.308   7.953
 5460POPC   C4B 9010  41.348  21.243   7.653
 5461POPC   NC3 9011  39.991  40.810   9.453
 5461POPC   PO4 9012  40.039  40.814   9.153
 5461POPC   GL1 9013  40.003  40.829   8.853
 5461POPC   GL2 9014  39.852  40.732   8.853
 5461POPC   C1A 9015  39.979  40.776   8.553
 5461POPC   D2A 9016  39.975  40.756   8.253
 5461POPC   C3A 9017  40.049  40.749   7.953
 5461POPC   C4A 9018  39.981  40.770   7.653
 5461POPC   C1B 9019  39.810  40.714   8.553
 5461POPC   C2B 9020  39.736  40.689   8.253
 5461POPC   C3B 9021  39.716  40.699   7.953
 5461POPC   C4B 9022  39.781  40.770   7.653
 5462POPC   NC3 9023   9.747  20.578   9.453
 5462POPC   PO4 9024   9.731  20.644   9.153
 5462POPC   GL1 9025   9.707  20.568   8.853
 5462POPC   GL2 9026   9.593  20.621   8.853
 5462POPC   C1A 9027   9.758  20.579   8.553
 5462POPC   D2A 9028   9.782  20.646   8.253
 5462POPC   C3A 9029   9.777  20.609   7.953
 5462POPC   C4A 9030   9.701  20.613   7.653
 5462POPC   C1B 9031   9.531  20.615   8.553
 5462POPC   C2B 9032   9.497  20.633   8.253
 5462POPC   C3B 9033   9.526  20.604   7.953
 5462POPC   C4B 9034   9.472  20.582   7.653
 5463POPC   NC3 9035   5.103  39.969   9.453
 5463POPC   PO4 9036   5.107  40.001   9.153
 5463POPC   GL1 9037   5.139  39.987   8.853
 5463POPC   GL2 9038   5.069  39.915   8.853
 5463POPC   C1A 9039   5.105  40.050   8.553
 5463POPC   D2A 9040   5.053  39.964   8.253
 5463POPC   C3A 9041   5.076  40.040   7.953
 5463POPC   C4A 9042   5.090  40.014   7.653
 5463POPC   C1B 9043   5.010  39.770   8.553
 5463POPC   C2B 9044   4.974  39.762   8.253
 5463POPC   C3B 9045   4.950  39.779   7.953
 5463POPC   C4B 9046   4.932  39.796   7.653
 5464POPC   NC3 9047   7.398  22.138   9.453
 5464POPC   PO4 9048   7.427  22.151   9.153
 5464POPC   GL1 9049   7.411  22.197   8.853
 5464POPC   GL2 9050   7.375  22.003   8.853
 5464POPC   C1A 9051   7.391  22.135   8.553
 5464POPC   D2A 9052   7.407  22.196   8.253
 5464POPC   C3A 9053   7.417  22.206   7.953
 5464POPC   C4A 9054   7.457  22.158   7.653
 5464POPC   C1B 9055   7.362  21.949   8.553
 5464POPC   C2B 9056   7.370  21.898   8.253
 5464POPC   C3B 9057   7.376  21.920   7.953
 5464POPC   C4B 9058   7.358  21.963   7.653
 5465POPC   NC3 9059  39.276  43.110   9.453
 5465POPC   PO4 9060  39.188  43.115   9.153
 5465POPC   GL1 9061  39.195  43.084   8.853
 5465POPC   GL2 9062  39.086  43.130   8.853
 5465POPC   C1A 9063  39.209  43.142   8.553
 5465POPC   D2A 9064  39.260  43.090   8.253
 5465POPC   C3A 9065  39.232  43.093   7.953
 5465POPC   C4A 9066  39.207  43.152   7.653
 5465POPC   C1B 9067  38.942  43.038   8.553
 5465POPC   C2B 9068  38.988  43.025   8.253
 5465POPC   C3B 9069  38.963  43.118   7.953
 5465POPC   C4B 9070  39.026  43.023   7.653
 5466POPC   NC3 9071  27.615  17.519   9.453
 5466POPC   PO4 9072  27.635  17.460   9.153
 5466POPC   GL1 9073  27.608  17.532   8.853
 5466POPC   GL2 9074  27.758  17.498   8.853
 5466POPC   C1A 9075  27.629  17.524   8.553
 5466POPC   D2A 9076  27.593  17.532   8.253
 5466POPC   C3A 9077  27.545  17.550   7.953
 5466POPC   C4A 9078  27.580  17.509   7.653
 5466POPC   C1B 9079  27.802  17.467   8.553
 5466POPC   C2B 9080  27.883  17.478   8.253
 5466POPC   C3B 9081  27.838  17.486   7.953
 5466POPC   C4B 9082  27.856  17.442   7.653
 5467POPC   NC3 9083  22.139  39.983   9.453
 5467POPC   PO4 9084  22.120  40.044   9.153
 5467POPC   GL1 9085  22.150  39.987   8.853
 5467POPC   GL2 9086  22.229  39.899   8.853
 5467POPC   C1A 9087  22.159  40.050   8.553
 5467POPC   D2A 9088  22.138  39.987   8.253
 5467POPC   C3A 9089  22.160  39.991   7.953
 5467POPC   C4A 9090  22.150  39.961   7.653
 5467POPC   C1B 9091  22.322  39.759   8.553
 5467POPC   C2B 9092  22.350  39.804   8.253
 5467POPC   C3B 9093  22.349  39.781   7.953
 5467POPC   C4B 9094  22.297  39.823   7.653
 5468POPC   NC3 9095  35.374  18.298   9.453
 5468POPC   PO4 9096  35.330  18.276   9.153
 5468POPC   GL1 9097  35.343  18.296   8.853
 5468POPC   GL2 9098  35.304  18.160   8.853
 5468POPC   C1A 9099  35.345  18.324   8.553
 5468POPC   D2A 9100  35.358  18.283   8.253
 5468POPC   C3A 9101  35.358  18.322   7.953
 5468POPC   C4A 9102  35.333  18.328   7.653
 5468POPC   C1B 9103  35.318  18.006   8.553
 5468POPC   C2B 9104  35.220  18.093   8.253
 5468POPC   C3B 9105  35.317  18.012   7.953
 5468POPC   C4B 9106  35.283  18.088   7.653
 5469POPC   NC3 9107  23.672  36.155   9.453
 5469POPC   PO4 9108  23.741  36.103   9.153
 5469POPC   GL1 9109  23.665  36.126   8.853
 5469POPC   GL2 9110  23.587  36.206   8.853
 5469POPC   C1A 9111  23.702  36.166   8.553
 5469POPC   D2A 9112  23.680  36.102   8.253
 5469POPC   C3A 9113  23.708  36.151   7.953
 5469POPC   C4A 9114  23.761  36.170   7.653
 5469POPC   C1B 9115  23.486  36.266   8.553
 5469POPC   C2B 9116  23.471  36.261   8.253
 5469POPC   C3B 9117  23.465  36.287   7.953
 5469POPC   C4B 9118  23.548  36.225   7.653
 5470POPC   NC3 9119  33.046   8.948   9.453
 5470POPC   PO4 9120  33.006   8.948   9.153
 5470POPC   GL1 9121  32.982   8.992   8.853
 5470POPC   GL2 9122  33.128   9.014   8.853
 5470POPC   C1A 9123  33.055   8.934   8.553
 5470POPC   D2A 9124  32.983   8.983   8.253
 5470POPC   C3A 9125  33.020   8.959   7.953
 5470POPC   C4A 9126  33.059   9.005   7.653
 5470POPC   C1B 9127  33.231   9.120   8.553
 5470POPC   C2B 9128  33.193   9.160   8.253
 5470POPC   C3B 9129  33.246   9.116   7.953
 5470POPC   C4B 9130  33.215   9.113   7.653
 5471POPC   NC3 9131  20.612  29.929   9.453
 5471POPC   PO4 9132  20.591  29.881   9.153
 5471POPC   GL1 9133  20.607  29.952   8.853
 5471POPC   GL2 9134  20.741  29.878   8.853
 5471POPC   C1A 9135  20.636  29.871   8.553
 5471POPC   D2A 9136  20.644  29.904   8.253
 5471POPC   C3A 9137  20.645  29.882   7.953
 5471POPC   C4A 9138  20.586  29.879   7.653
 5471POPC   C1B 9139  20.879  29.848   8.553
 5471POPC   C2B 9140  20.890  29.878   8.253
 5471POPC   C3B 9141  20.808  29.799   7.953
 5471POPC   C4B 9142  20.865  29.823   7.653
 5472POPC   NC3 9143  17.496   3.572   9.453
 5472POPC   PO4 9144  17.545   3.530   9.153
 5472POPC   GL1 9145  17.483   3.506   8.853
 5472POPC   GL2 9146  17.651   3.602   8.853
 5472POPC   C1A 9147  17.542   3.549   8.553
 5472POPC   D2A 9148  17.552   3.580   8.253
 5472POPC   C3A 9149  17.520   3.499   7.953
 5472POPC   C4A 9150  17.541   3.590   7.653
 5472POPC   C1B 9151  17.748   3.725   8.553
 5472POPC   C2B 9152  17.685   3.682   8.253
 5472POPC   C3B 9153  17.740   3.664   7.953
 5472POPC   C4B 9154  17.698   3.692   7.653
 5473POPC   NC3 9155  22.982  17.473   9.453
 5473POPC   PO4 9156  22.965  17.534   9.153
 5473POPC   GL1 9157  22.896  17.501   8.853
 5473POPC   GL2 9158  22.921  17.334   8.853
 5473POPC   C1A 9159  22.889  17.544   8.553
 5473POPC   D2A 9160  22.925  17.465   8.253
 5473POPC   C3A 9161  22.911  17.548   7.953
 5473POPC   C4A 9162  22.953  17.460   7.653
 5473POPC   C1B 9163  22.990  17.258   8.553
 5473POPC   C2B 9164  22.951  17.221   8.253
 5473POPC   C3B 9165  22.977  17.305   7.953
 5473POPC   C4B 9166  22.957  17.278   7.653
 5474POPC   NC3 9167  22.970  12.900   9.453
 5474POPC   PO4 9168  22.983  12.819   9.153
 5474POPC   GL1 9169  22.961  12.848   8.853
 5474POPC   GL2 9170  22.850  12.821   8.853
 5474POPC   C1A 9171  22.913  12.887   8.553
 5474POPC   D2A 9172  22.922  12.837   8.253
 5474POPC   C3A 9173  22.979  12.872   7.953
 5474POPC   C4A 9174  22.907  12.839   7.653
 5474POPC   C1B 9175  22.725  12.775   8.553
 5474POPC   C2B 9176  22.748  12.733   8.253
 5474POPC   C3B 9177  22.690  12.740   7.953
 5474POPC   C4B 9178  22.713  12.714   7.653
 5475POPC   NC3 9179  16.759  10.537   9.453
 5475POPC   PO4 9180  16.685  10.558   9.153
 5475POPC   GL1 9181  16.739  10.530   8.853
 5475POPC   GL2 9182  16.851  10.540   8.853
 5475POPC   C1A 9183  16.709  10.538   8.553
 5475POPC   D2A 9184  16.726  10.541   8.253
 5475POPC   C3A 9185  16.724  10.538   7.953
 5475POPC   C4A 9186  16.750  10.574   7.653
 5475POPC   C1B 9187  16.992  10.581   8.553
 5475POPC   C2B 9188  17.027  10.521   8.253
 5475POPC   C3B 9189  16.957  10.560   7.953
 5475POPC   C4B 9190  16.932  10.571   7.653
 5476POPC   NC3 9191  19.862  29.119   9.453
 5476POPC   PO4 9192  19.853  29.129   9.153
 5476POPC   GL1 9193  19.849  29.178   8.853
 5476POPC   GL2 9194  20.000  29.198   8.853
 5476POPC   C1A 9195  19.801  29.173   8.553
 5476POPC   D2A 9196  19.801  29.120   8.253
 5476POPC   C3A 9197  19.821  29.136   7.953
 5476POPC   C4A 9198  19.834  29.114   7.653
 5476POPC   C1B 9199  20.049  29.125   8.553
 5476POPC   C2B 9200  20.103  29.151   8.253
 5476POPC   C3B 9201  20.079  29.169   7.953
 5476POPC   C4B 9202  20.079  29.162   7.653
 5477POPC   NC3 9203   1.968  44.707   9.453
 5477POPC   PO4 9204   2.010  44.625   9.153
 5477POPC   GL1 9205   2.005  44.635   8.853
 5477POPC   GL2 9206   1.904  44.648   8.853
 5477POPC   C1A 9207   2.018  44.678   8.553
 5477POPC   D2A 9208   1.984  44.681   8.253
 5477POPC   C3A 9209   2.029  44.706   7.953
 5477POPC   C4A 9210   2.031  44.696   7.653
 5477POPC   C1B 9211   1.735  44.577   8.553
 5477POPC   C2B 9212   1.763  44.507   8.253
 5477POPC   C3B 9213   1.785  44.568   7.953
 5477POPC   C4B 9214   1.813  44.567   7.653
 5478POPC   NC3 9215   5.049  21.388   9.453
 5478POPC   PO4 9216   5.077  21.340   9.153
 5478POPC   GL1 9217   5.132  21.391   8.853
 5478POPC   GL2 9218   5.044  21.546   8.853
 5478POPC   C1A 9219   5.090  21.433   8.553
 5478POPC   D2A 9220   5.116  21.382   8.253
 5478POPC   C3A 9221   5.122  21.376   7.953
 5478POPC   C4A 9222   5.113  21.390   7.653
 5478POPC   C1B 9223   5.078  21.672   8.553
 5478POPC   C2B 9224   5.022  21.597   8.253
 5478POPC   C3B 9225   5.008  21.621   7.953
 5478POPC   C4B 9226   4.999  21.651   7.653
 5479POPC   NC3 9227  18.240  21.411   9.453
 5479POPC   PO4 9228  18.239  21.421   9.153
 5479POPC   GL1 9229  18.240  21.388   8.853
 5479POPC   GL2 9230  18.213  21.511   8.853
 5479POPC   C1A 9231  18.283  21.410   8.553
 5479POPC   D2A 9232  18.238  21.428   8.253
 5479POPC   C3A 9233  18.273  21.399   7.953
 5479POPC   C4A 9234  18.257  21.370   7.653
 5479POPC   C1B 9235  18.228  21.606   8.553
 5479POPC   C2B 9236  18.202  21.625   8.253
 5479POPC   C3B 9237  18.171  21.612   7.953
 5479POPC   C4B 9238  18.199  21.652   7.653
 5480POPC   NC3 9239  39.972   2.748   9.453
 5480POPC   PO4 9240  39.981   2.722   9.153
 5480POPC   GL1 9241  40.001   2.771   8.853
 5480POPC   GL2 9242  40.079   2.718   8.853
 5480POPC   C1A 9243  40.053   2.775   8.553
 5480POPC   D2A 9244  40.028   2.767   8.253
 5480POPC   C3A 9245  39.983   2.797   7.953
 5480POPC   C4A 9246  40.005   2.731   7.653
 5480POPC   C1B 9247  40.211   2.659   8.553
 5480POPC   C2B 9248  40.259   2.722   8.253
 5480POPC   C3B 9249  40.247   2.721   7.953
 5480POPC   C4B 9250  40.224   2.733   7.653
 5481POPC   NC3 9251  17.496  12.065   9.453
 5481POPC   PO4 9252  17.504  12.045   9.153
 5481POPC   GL1 9253  17.481  12.085   8.853
 5481POPC   GL2 9254  17.426  12.175   8.853
 5481POPC   C1A 9255  17.468  12.098   8.553
 5481POPC   D2A 9256  17.466  12.028   8.253
 5481POPC   C3A 9257  17.512  12.067   7.953
 5481POPC   C4A 9258  17.510  12.090   7.653
 5481POPC   C1B 9259  17.269  12.234   8.553
 5481POPC   C2B 9260  17.274  12.218   8.253
 5481POPC   C3B 9261  17.315  12.217   7.953
 5481POPC   C4B 9262  17.333  12.201   7.653
 5482POPC   NC3 9263  29.099  31.424   9.453
 5482POPC   PO4 9264  29.099  31.456   9.153
 5482POPC   GL1 9265  29.165  31.487   8.853
 5482POPC   GL2 9266  29.272  31.406   8.853
 5482POPC   C1A 9267  29.133  31.479   8.553
 5482POPC   D2A 9268  29.162  31.435   8.253
 5482POPC   C3A 9269  29.135  31.457   7.953
 5482POPC   C4A 9270  29.182  31.438   7.653
 5482POPC   C1B 9271  29.345  31.394   8.553
 5482POPC   C2B 9272  29.364  31.430   8.253
 5482POPC   C3B 9273  29.376  31.399   7.953
 5482POPC   C4B 9274  29.375  31.373   7.653
 5483POPC   NC3 9275  24.468  29.872   9.453
 5483POPC   PO4 9276  24.459  29.965   9.153
 5483POPC   GL1 9277  24.474  29.955   8.853
 5483POPC   GL2 9278  24.610  29.835   8.853
 5483POPC   C1A 9279  24.496  29.894   8.553
 5483POPC   D2A 9280  24.469  29.875   8.253
 5483POPC   C3A 9281  24.502  29.907   7.953
 5483POPC   C4A 9282  24.468  29.895   7.653
 5483POPC   C1B 9283  24.683  29.774   8.553
 5483POPC   C2B 9284  24.755  29.763   8.253
 5483POPC   C3B 9285  24.747  29.752   7.953
 5483POPC   C4B 9286  24.661  29.752   7.653
 5484POPC   NC3 9287  33.831  32.984   9.453
 5484POPC   PO4 9288  33.752  32.978   9.153
 5484POPC   GL1 9289  33.812  33.015   8.853
 5484POPC   GL2 9290  33.850  33.092   8.853
 5484POPC   C1A 9291  33.829  33.056   8.553
 5484POPC   D2A 9292  33.828  33.016   8.253
 5484POPC   C3A 9293  33.758  33.059   7.953
 5484POPC   C4A 9294  33.789  33.065   7.653
 5484POPC   C1B 9295  33.941  33.304   8.553
 5484POPC   C2B 9296  33.909  33.286   8.253
 5484POPC   C3B 9297  33.944  33.242   7.953
 5484POPC   C4B 9298  33.919  33.230   7.653
 5485POPC   NC3 9299   1.947  26.043   9.453
 5485POPC   PO4 9300   2.006  26.059   9.153
 5485POPC   GL1 9301   2.007  26.035   8.853
 5485POPC   GL2 9302   2.103  26.020   8.853
 5485POPC   C1A 9303   1.993  26.085   8.553
 5485POPC   D2A 9304   1.996  26.078   8.253
 5485POPC   C3A 9305   2.013  26.070   7.953
 5485POPC   C4A 9306   2.013  26.013   7.653
 5485POPC   C1B 9307   2.207  25.926   8.553
 5485POPC   C2B 9308   2.256  25.990   8.253
 5485POPC   C3B 9309   2.271  25.967   7.953
 5485POPC   C4B 9310   2.276  25.956   7.653
 5486POPC   NC3 9311  32.248  39.989   9.453
 5486POPC   PO4 9312  32.246  40.051   9.153
 5486POPC   GL1 9313  32.285  40.018   8.853
 5486POPC   GL2 9314  32.186  39.859   8.853
 5486POPC   C1A 9315  32.201  40.021   8.553
 5486POPC   D2A 9316  32.208  39.959   8.253
 5486POPC   C3A 9317  32.240  40.033   7.953
 5486POPC   C4A 9318  32.222  40.041   7.653
 5486POPC   C1B 9319  32.145  39.747   8.553
 5486POPC   C2B 9320  32.083  39.761   8.253
 5486POPC   C3B 9321  32.092  39.751   7.953
 5486POPC   C4B 9322  32.083  39.823   7.653
 5487POPC   NC3 9323   0.451  20.611   9.453
 5487POPC   PO4 9324   0.449  20.619   9.153
 5487POPC   GL1 9325   0.485  20.574   8.853
 5487POPC   GL2 9326   0.522  20.731   8.853
 5487POPC   C1A 9327   0.461  20.613   8.553
 5487POPC   D2A 9328   0.446  20.620   8.253
 5487POPC   C3A 9329   0.425  20.597   7.953
 5487POPC   C4A 9330   0.388  20.621   7.653
 5487POPC   C1B 9331   0.613  20.776   8.553
 5487POPC   C2B 9332   0.593  20.753   8.253
 5487POPC   C3B 9333   0.557  20.777   7.953
 5487POPC   C4B 9334   0.588  20.804   7.653
 5488POPC   NC3 9335   1.196  38.458   9.453
 5488POPC   PO4 9336   1.240  38.504   9.153
 5488POPC   GL1 9337   1.193  38.417   8.853
 5488POPC   GL2 9338   1.322  38.416   8.853
 5488POPC   C1A 9339   1.196  38.501   8.553
 5488POPC   D2A 9340   1.240  38.429   8.253
 5488POPC   C3A 9341   1.193  38.441   7.953
 5488POPC   C4A 9342   1.227  38.451   7.653
 5488POPC   C1B 9343   1.402  38.275   8.553
 5488POPC   C2B 9344   1.393  38.251   8.253
 5488POPC   C3B 9345   1.405  38.296   7.953
 5488POPC   C4B 9346   1.395  38.263   7.653
 5489POPC   NC3 9347  44.701  36.125   9.453
 5489POPC   PO4 9348  44.650  36.085   9.153
 5489POPC   GL1 9349  44.638  36.104   8.853
 5489POPC   GL2 9350  44.744  36.216   8.853
 5489POPC   C1A 9351  44.683  36.095   8.553
 5489POPC   D2A 9352  44.674  36.140   8.253
 5489POPC   C3A 9353  44.703  36.165   7.953
 5489POPC   C4A 9354  44.681  36.157   7.653
 5489POPC   C1B 9355  44.825  36.362   8.553
 5489POPC   C2B 9356  44.817  36.336   8.253
 5489POPC   C3B 9357  44.820  36.346   7.953
 5489POPC   C4B 9358  44.794  36.321   7.653
 5490POPC   NC3 9359  22.155  40.743   9.453
 5490POPC   PO4 9360  22.144  40.820   9.153
 5490POPC   GL1 9361  22.211  40.792   8.853
 5490POPC   GL2 9362  22.264  40.641   8.853
 5490POPC   C1A 9363  22.151  40.798   8.553
 5490POPC   D2A 9364  22.122  40.823   8.253
 5490POPC   C3A 9365  22.119  40.767   7.953
 5490POPC   C4A 9366  22.119  40.740   7.653
 5490POPC   C1B 9367  22.346  40.545   8.553
 5490POPC   C2B 9368  22.340  40.557   8.253
 5490POPC   C3B 9369  22.312  40.612   7.953
 5490POPC   C4B 9370  22.336  40.555   7.653
 5491POPC   NC3 9371   2.811  26.809   9.453
 5491POPC   PO4 9372   2.765  26.788   9.153
 5491POPC   GL1 9373   2.762  26.853   8.853
 5491POPC   GL2 9374   2.761  26.934   8.853
 5491POPC   C1A 9375   2.736  26.773   8.553
 5491POPC   D2A 9376   2.718  26.861   8.253
 5491POPC   C3A 9377   2.720  26.806   7.953
 5491POPC   C4A 9378   2.747  26.774   7.653
 5491POPC   C1B 9379   2.705  27.075   8.553
 5491POPC   C2B 9380   2.681  27.087   8.253
 5491POPC   C3B 9381   2.754  27.050   7.953
 5491POPC   C4B 9382   2.746  27.093   7.653
 5492POPC   NC3 9383  33.843  19.010   9.453
 5492POPC   PO4 9384  33.768  19.094   9.153
 5492POPC   GL1 9385  33.782  19.074   8.853
 5492POPC   GL2 9386  33.813  18.926   8.853
 5492POPC   C1A 9387  33.815  19.075   8.553
 5492POPC   D2A 9388  33.763  19.077   8.253
 5492POPC   C3A 9389  33.844  19.018   7.953
 5492POPC   C4A 9390  33.755  19.047   7.653
 5492POPC   C1B 9391  33.686  18.832   8.553
 5492POPC   C2B 9392  33.762  18.832   8.253
 5492POPC   C3B 9393  33.773  18.788   7.953
 5492POPC   C4B 9394  33.709  18.850   7.653
 5493POPC   NC3 9395  38.443   2.023   9.453
 5493POPC   PO4 9396  38.464   1.951   9.153
 5493POPC   GL1 9397  38.499   2.037   8.853
 5493POPC   GL2 9398  38.418   1.820   8.853
 5493POPC   C1A 9399  38.452   2.008   8.553
 5493POPC   D2A 9400  38.458   1.979   8.253
 5493POPC   C3A 9401  38.416   1.964   7.953
 5493POPC   C4A 9402  38.413   1.987   7.653
 5493POPC   C1B 9403  38.460   1.700   8.553
 5493POPC   C2B 9404  38.407   1.710   8.253
 5493POPC   C3B 9405  38.434   1.754   7.953
 5493POPC   C4B 9406  38.418   1.791   7.653
 5494POPC   NC3 9407  12.829  11.252   9.453
 5494POPC   PO4 9408  12.814  11.346   9.153
 5494POPC   GL1 9409  12.888  11.279   8.853
 5494POPC   GL2 9410  12.819  11.191   8.853
 5494POPC   C1A 9411  12.851  11.298   8.553
 5494POPC   D2A 9412  12.825  11.261   8.253
 5494POPC   C3A 9413  12.838  11.339   7.953
 5494POPC   C4A 9414  12.889  11.349   7.653
 5494POPC   C1B 9415  12.699  11.040   8.553
 5494POPC   C2B 9416  12.756  11.085   8.253
 5494POPC   C3B 9417  12.753  11.052   7.953
 5494POPC   C4B 9418  12.696  11.134   7.653
 5495POPC   NC3 9419  33.795  36.940   9.453
 5495POPC   PO4 9420  33.766  36.862   9.153
 5495POPC   GL1 9421  33.830  36.933   8.853
 5495POPC   GL2 9422  33.904  37.007   8.853
 5495POPC   C1A 9423  33.757  36.907   8.553
 5495POPC   D2A 9424  33.830  36.951   8.253
 5495POPC   C3A 9425  33.765  36.926   7.953
 5495POPC   C4A 9426  33.763  36.888   7.653
 5495POPC   C1B 9427  34.015  37.088   8.553
 5495POPC   C2B 9428  34.051  36.998   8.253
 5495POPC   C3B 9429  34.033  37.019   7.953
 5495POPC   C4B 9430  34.019  37.080   7.653
 5496POPC   NC3 9431  35.350  33.776   9.453
 5496POPC   PO4 9432  35.323  33.769   9.153
 5496POPC   GL1 9433  35.358  33.792   8.853
 5496POPC   GL2 9434  35.285  33.902   8.853
 5496POPC   C1A 9435  35.385  33.831   8.553
 5496POPC   D2A 9436  35.327  33.806   8.253
 5496POPC   C3A 9437  35.378  33.813   7.953
 5496POPC   C4A 9438  35.349  33.819   7.653
 5496POPC   C1B 9439  35.173  33.958   8.553
 5496POPC   C2B 9440  35.169  33.963   8.253
 5496POPC   C3B 9441  35.123  33.918   7.953
 5496POPC   C4B 9442  35.162  33.958   7.653
 5497POPC   NC3 9443   3.520  18.245   9.453
 5497POPC   PO4 9444   3.564  18.327   9.153
 5497POPC   GL1 9445   3.508  18.245   8.853
 5497POPC   GL2 9446   3.458  18.177   8.853
 5497POPC   C1A 9447   3.519  18.252   8.553
 5497POPC   D2A 9448   3.540  18.251   8.253
 5497POPC   C3A 9449   3.591  18.244   7.953
 5497POPC   C4A 9450   3.518  18.249   7.653
 5497POPC   C1B 9451   3.438  18.069   8.553
 5497POPC   C2B 9452   3.409  18.020   8.253
 5497POPC   C3B 9453   3.427  18.031   7.953
 5497POPC   C4B 9454   3.444  18.050   7.653
 5498POPC   NC3 9455  33.825  19.872   9.453
 5498POPC   PO4 9456  33.753  19.851   9.153
 5498POPC   GL1 9457  33.817  19.806   8.853
 5498POPC   GL2 9458  33.873  19.804   8.853
 5498POPC   C1A 9459  33.847  19.855   8.553
 5498POPC   D2A 9460  33.757  19.871   8.253
 5498POPC   C3A 9461  33.842  19.791   7.953
 5498POPC   C4A 9462  33.816  19.872   7.653
 5498POPC   C1B 9463  34.083  19.727   8.553
 5498POPC   C2B 9464  34.028  19.799   8.253
 5498POPC   C3B 9465  34.036  19.772   7.953
 5498POPC   C4B 9466  34.007  19.786   7.653
 5499POPC   NC3 9467  43.899  14.429   9.453
 5499POPC   PO4 9468  43.934  14.431   9.153
 5499POPC   GL1 9469  43.856  14.422   8.853
 5499POPC   GL2 9470  43.928  14.532   8.853
 5499POPC   C1A 9471  43.854  14.376   8.553
 5499POPC   D2A 9472  43.837  14.397   8.253
 5499POPC   C3A 9473  43.919  14.409   7.953
 5499POPC   C4A 9474  43.840  14.403   7.653
 5499POPC   C1B 9475  43.915  14.650   8.553
 5499POPC   C2B 9476  43.866  14.627   8.253
 5499POPC   C3B 9477  43.912  14.614   7.953
 5499POPC   C4B 9478  43.880  14.652   7.653
 5500POPC   NC3 9479   5.892   8.223   9.453
 5500POPC   PO4 9480   5.873   8.169   9.153
 5500POPC   GL1 9481   5.907   8.147   8.853
 5500POPC   GL2 9482   5.790   8.163   8.853
 5500POPC   C1A 9483   5.824   8.189   8.553
 5500POPC   D2A 9484   5.895   8.231   8.253
 5500POPC   C3A 9485   5.843   8.157   7.953
 5500POPC   C4A 9486   5.839   8.148   7.653
 5500POPC   C1B 9487   5.572   8.185   8.553
 5500POPC   C2B 9488   5.638   8.174   8.253
 5500POPC   C3B 9489   5.595   8.163   7.953
 5500POPC   C4B 9490   5.602   8.173   7.653
 5501POPC   NC3 9491   5.137  15.916   9.453
 5501POPC   PO4 9492   5.047  15.918   9.153
 5501POPC   GL1 9493   5.134  15.960   8.853
 5501POPC   GL2 9494   5.009  15.973   8.853
 5501POPC   C1A 9495   5.090  15.982   8.553
 5501POPC   D2A 9496   5.105  15.960   8.253
 5501POPC   C3A 9497   5.074  15.961   7.953
 5501POPC   C4A 9498   5.132  15.924   7.653
 5501POPC   C1B 9499   4.894  15.976   8.553
 5501POPC   C2B 9500   4.887  15.985   8.253
 5501POPC   C3B 9501   4.859  15.998   7.953
 5501POPC   C4B 9502   4.838  16.021   7.653
 5502POPC   NC3 9503  27.558  12.895   9.453
 5502POPC   PO4 9504  27.642  12.842   9.153
 5502POPC   GL1 9505  27.603  12.894   8.853
 5502POPC   GL2 9506  27.483  12.934   8.853
 5502POPC   C1A 9507  27.561  12.839   8.553
 5502POPC   D2A 9508  27.618  12.805   8.253
 5502POPC   C3A 9509  27.583  12.856   7.953
 5502POPC   C4A 9510  27.626  12.838   7.653
 5502POPC   C1B 9511  27.322  12.894   8.553
 5502POPC   C2B 9512  27.362  12.938   8.253
 5502POPC   C3B 9513  27.355  12.928   7.953
 5502POPC   C4B 9514  27.388  12.914   7.653
 5503POPC   NC3 9515  21.347  36.123   9.453
 5503POPC   PO4 9516  21.339  36.164   9.153
 5503POPC   GL1 9517  21.400  36.141   8.853
 5503POPC   GL2 9518  21.343  36.056   8.853
 5503POPC   C1A 9519  21.425  36.160   8.553
 5503POPC   D2A 9520  21.421  36.129   8.253
 5503POPC   C3A 9521  21.375  36.177   7.953
 5503POPC   C4A 9522  21.393  36.086   7.653
 5503POPC   C1B 9523  21.331  35.918   8.553
 5503POPC   C2B 9524  21.287  35.883   8.253
 5503POPC   C3B 9525  21.271  35.884   7.953
 5503POPC   C4B 9526  21.317  35.909   7.653
 5504POPC   NC3 9527  21.427   3.523   9.453
 5504POPC   PO4 9528  21.381   3.514   9.153
 5504POPC   GL1 9529  21.370   3.565   8.853
 5504POPC   GL2 9530  21.515   3.618   8.853
 5504POPC   C1A 9531  21.342   3.582   8.553
 5504POPC   D2A 9532  21.364   3.580   8.253
 5504POPC   C3A 9533  21.366   3.522   7.953
 5504POPC   C4A 9534  21.355   3.529   7.653
 5504POPC   C1B 9535  21.575   3.611   8.553
 5504POPC   C2B 9536  21.616   3.612   8.253
 5504POPC   C3B 9537  21.605   3.635   7.953
 5504POPC   C4B 9538  21.630   3.592   7.653
 5505POPC   NC3 9539   8.934  38.417   9.453
 5505POPC   PO4 9540   8.968  38.462   9.153
 5505POPC   GL1 9541   8.958  38.419   8.853
 5505POPC   GL2 9542   9.021  38.546   8.853
 5505POPC   C1A 9543   8.971  38.457   8.553
 5505POPC   D2A 9544   8.998  38.484   8.253
 5505POPC   C3A 9545   8.992  38.496   7.953
 5505POPC   C4A 9546   8.975  38.481   7.653
 5505POPC   C1B 9547   8.975  38.706   8.553
 5505POPC   C2B 9548   8.934  38.694   8.253
 5505POPC   C3B 9549   8.937  38.696   7.953
 5505POPC   C4B 9550   8.997  38.682   7.653
 5506POPC   NC3 9551   0.405  27.599   9.453
 5506POPC   PO4 9552   0.450  27.602   9.153
 5506POPC   GL1 9553   0.480  27.611   8.853
 5506POPC   GL2 9554   0.360  27.549   8.853
 5506POPC   C1A 9555   0.420  27.628   8.553
 5506POPC   D2A 9556   0.443  27.576   8.253
 5506POPC   C3A 9557   0.469  27.571   7.953
 5506POPC   C4A 9558   0.482  27.549   7.653
 5506POPC   C1B 9559   0.212  27.540   8.553
 5506POPC   C2B 9560   0.232  27.593   8.253
 5506POPC   C3B 9561   0.183  27.571   7.953
 5506POPC   C4B 9562   0.153  27.578   7.653
 5507POPC   NC3 9563  37.680   4.341   9.453
 5507POPC   PO4 9564  37.634   4.352   9.153
 5507POPC   GL1 9565  37.696   4.362   8.853
 5507POPC   GL2 9566  37.587   4.357   8.853
 5507POPC   C1A 9567  37.723   4.327   8.553
 5507POPC   D2A 9568  37.667   4.293   8.253
 5507POPC   C3A 9569  37.726   4.277   7.953
 5507POPC   C4A 9570  37.650   4.287   7.653
 5507POPC   C1B 9571  37.420   4.330   8.553
 5507POPC   C2B 9572  37.393   4.370   8.253
 5507POPC   C3B 9573  37.444   4.348   7.953
 5507POPC   C4B 9574  37.466   4.331   7.653
 5508POPC   NC3 9575   2.808   1.962   9.453
 5508POPC   PO4 9576   2.758   1.964   9.153
 5508POPC   GL1 9577   2.811   2.003   8.853
 5508POPC   GL2 9578   2.779   1.897   8.853
 5508POPC   C1A 9579   2.743   1.949   8.553
 5508POPC   D2A 9580   2.723   2.024   8.253
 5508POPC   C3A 9581   2.726   1.961   7.953
 5508POPC   C4A 9582   2.762   2.035   7.653
 5508POPC   C1B 9583   2.866   1.790   8.553
 5508POPC   C2B 9584   2.895   1.748   8.253
 5508POPC   C3B 9585   2.931   1.785   7.953
 5508POPC   C4B 9586   2.875   1.823   7.653
 5509POPC   NC3 9587  41.601  20.631   9.453
 5509POPC   PO4 9588  41.536  20.655   9.153
 5509POPC   GL1 9589  41.563  20.593   8.853
 5509POPC   GL2 9590  41.456  20.582   8.853
 5509POPC   C1A 9591  41.544  20.633   8.553
 5509POPC   D2A 9592  41.595  20.575   8.253
 5509POPC   C3A 9593  41.583  20.627   7.953
 5509POPC   C4A 9594  41.542  20.588   7.653
 5509POPC   C1B 9595  41.389  20.472   8.553
 5509POPC   C2B 9596  41.309  20.491   8.253
 5509POPC   C3B 9597  41.321  20.515   7.953
 5509POPC   C4B 9598  41.343  20.524   7.653
 5510POPC   NC3 9599  26.089  40.039   9.453
 5510POPC   PO4 9600  26.055  40.025   9.153
 5510POPC   GL1 9601  26.000  40.000   8.853
 5510POPC   GL2 9602  26.111  40.132   8.853
 5510POPC   C1A 9603  26.003  39.999   8.553
 5510POPC   D2A 9604  25.996  39.977   8.253
 5510POPC   C3A 9605  26.015  40.032   7.953
 5510POPC   C4A 9606  26.050  40.003   7.653
 5510POPC   C1B 9607  26.160  40.224   8.553
 5510POPC   C2B 9608  26.249  40.171   8.253
 5510POPC   C3B 9609  26.223  40.205   7.953
 5510POPC   C4B 9610  26.199  40.209   7.653
 5511POPC   NC3 9611  33.848  36.164   9.453
 5511POPC   PO4 9612  33.759  36.172   9.153
 5511POPC   GL1 9613  33.842  36.127   8.853
 5511POPC   GL2 9614  33.880  36.144   8.853
 5511POPC   C1A 9615  33.781  36.143   8.553
 5511POPC   D2A 9616  33.843  36.168   8.253
 5511POPC   C3A 9617  33.818  36.093   7.953
 5511POPC   C4A 9618  33.777  36.101   7.653
 5511POPC   C1B 9619  34.020  36.149   8.553
 5511POPC   C2B 9620  34.036  36.152   8.253
 5511POPC   C3B 9621  34.032  36.143   7.953
 5511POPC   C4B 9622  34.092  36.179   7.653
 5512POPC   NC3 9623  22.128  36.907   9.453
 5512POPC   PO4 9624  22.121  36.869   9.153
 5512POPC   GL1 9625  22.175  36.893   8.853
 5512POPC   GL2 9626  22.228  36.989   8.853
 5512POPC   C1A 9627  22.135  36.897   8.553
 5512POPC   D2A 9628  22.121  36.870   8.253
 5512POPC   C3A 9629  22.156  36.902   7.953
 5512POPC   C4A 9630  22.141  36.873   7.653
 5512POPC   C1B 9631  22.347  37.067   8.553
 5512POPC   C2B 9632  22.336  37.047   8.253
 5512POPC   C3B 9633  22.397  37.040   7.953
 5512POPC   C4B 9634  22.342  37.009   7.653
 5513POPC   NC3 9635   6.620  15.205   9.453
 5513POPC   PO4 9636   6.683  15.134   9.153
 5513POPC   GL1 9637   6.622  15.168   8.853
 5513POPC   GL2 9638   6.627  15.280   8.853
 5513POPC   C1A 9639   6.622  15.142   8.553
 5513POPC   D2A 9640   6.669  15.224   8.253
 5513POPC   C3A 9641   6.604  15.218   7.953
 5513POPC   C4A 9642   6.673  15.183   7.653
 5513POPC   C1B 9643   6.658  15.441   8.553
 5513POPC   C2B 9644   6.633  15.399   8.253
 5513POPC   C3B 9645   6.672  15.425   7.953
 5513POPC   C4B 9646   6.621  15.412   7.653
 5514POPC   NC3 9647  33.798  22.199   9.453
 5514POPC   PO4 9648  33.810  22.127   9.153
 5514POPC   GL1 9649  33.796  22.157   8.853
 5514POPC   GL2 9650  33.766  22.272   8.853
 5514POPC   C1A 9651  33.835  22.164   8.553
 5514POPC   D2A 9652  33.840  22.155   8.253
 5514POPC   C3A 9653  33.827  22.178   7.953
 5514POPC   C4A 9654  33.803  22.209   7.653
 5514POPC   C1B 9655  33.787  22.363   8.553
 5514POPC   C2B 9656  33.691  22.454   8.253
 5514POPC   C3B 9657  33.701  22.368   7.953
 5514POPC   C4B 9658  33.720  22.395   7.653
 5515POPC   NC3 9659  35.400  34.595   9.453
 5515POPC   PO4 9660  35.391  34.586   9.153
 5515POPC   GL1 9661  35.362  34.540   8.853
 5515POPC   GL2 9662  35.188  34.510   8.853
 5515POPC   C1A 9663  35.344  34.536   8.553
 5515POPC   D2A 9664  35.379  34.586   8.253
 5515POPC   C3A 9665  35.368  34.531   7.953
 5515POPC   C4A 9666  35.385  34.557   7.653
 5515POPC   C1B 9667  35.083  34.515   8.553
 5515POPC   C2B 9668  35.085  34.513   8.253
 5515POPC   C3B 9669  35.157  34.509   7.953
 5515POPC   C4B 9670  35.085  34.489   7.653
 5516POPC   NC3 9671  43.893   2.765   9.453
 5516POPC   PO4 9672  43.875   2.741   9.153
 5516POPC   GL1 9673  43.907   2.795   8.853
 5516POPC   GL2 9674  44.038   2.750   8.853
 5516POPC   C1A 9675  43.914   2.716   8.553
 5516POPC   D2A 9676  43.870   2.806   8.253
 5516POPC   C3A 9677  43.851   2.757   7.953
 5516POPC   C4A 9678  43.918   2.760   7.653
 5516POPC   C1B 9679  44.142   2.703   8.553
 5516POPC   C2B 9680  44.110   2.723   8.253
 5516POPC   C3B 9681  44.086   2.792   7.953
 5516POPC   C4B 9682  44.123   2.790   7.653
 5517POPC   NC3 9683  34.578  42.315   9.453
 5517POPC   PO4 9684  34.611  42.301   9.153
 5517POPC   GL1 9685  34.571  42.363   8.853
 5517POPC   GL2 9686  34.480  42.259   8.853
 5517POPC   C1A 9687  34.584  42.368   8.553
 5517POPC   D2A 9688  34.532  42.309   8.253
 5517POPC   C3A 9689  34.586  42.366   7.953
 5517POPC   C4A 9690  34.570  42.300   7.653
 5517POPC   C1B 9691  34.408  42.194   8.553
 5517POPC   C2B 9692  34.415  42.153   8.253
 5517POPC   C3B 9693  34.351  42.140   7.953
 5517POPC   C4B 9694  34.354  42.164   7.653
 5518POPC   NC3 9695  43.158  21.365   9.453
 5518POPC   PO4 9696  43.071  21.419   9.153
 5518POPC   GL1 9697  43.104  21.351   8.853
 5518POPC   GL2 9698  43.278  21.353   8.853
 5518POPC   C1A 9699  43.092  21.366   8.553
 5518POPC   D2A 9700  43.065  21.383   8.253
 5518POPC   C3A 9701  43.101  21.384   7.953
 5518POPC   C4A 9702  43.114  21.435   7.653
 5518POPC   C1B 9703  43.393  21.421   8.553
 5518POPC   C2B 9704  43.335  21.369   8.253
 5518POPC   C3B 9705  43.366  21.356   7.953
 5518POPC   C4B 9706  43.347  21.349   7.653
 5519POPC   NC3 9707  33.766  30.674   9.453
 5519POPC   PO4 9708  33.760  30.701   9.153
 5519POPC   GL1 9709  33.781  30.744   8.853
 5519POPC   GL2 9710  33.720  30.814   8.853
 5519POPC   C1A 9711  33.812  30.738   8.553
 5519POPC   D2A 9712  33.849  30.714   8.253
 5519POPC   C3A 9713  33.810  30.715   7.953
 5519POPC   C4A 9714  33.796  30.692   7.653
 5519POPC   C1B 9715  33.646  30.813   8.553
 5519POPC   C2B 9716  33.620  30.869   8.253
 5519POPC   C3B 9717  33.650  30.894   7.953
 5519POPC   C4B 9718  33.569  30.862   7.653
 5520POPC   NC3 9719  15.968   0.389   9.453
 5520POPC   PO4 9720  15.936   0.397   9.153
 5520POPC   GL1 9721  15.981   0.440   8.853
 5520POPC   GL2 9722  15.967   0.358   8.853
 5520POPC   C1A 9723  15.971   0.420   8.553
 5520POPC   D2A 9724  15.920   0.415   8.253
 5520POPC   C3A 9725  15.997   0.408   7.953
 5520POPC   C4A 9726  15.954   0.477   7.653
 5520POPC   C1B 9727  16.027   0.239   8.553
 5520POPC   C2B 9728  16.078   0.152   8.253
 5520POPC   C3B 9729  16.055   0.244   7.953
 5520POPC   C4B 9730  16.066   0.164   7.653
 5521POPC   NC3 9731   8.961  40.786   9.453
 5521POPC   PO4 9732   8.966  40.766   9.153
 5521POPC   GL1 9733   8.964  40.733   8.853
 5521POPC   GL2 9734   8.895  40.799   8.853
 5521POPC   C1A 9735   9.020  40.814   8.553
 5521POPC   D2A 9736   8.928  40.799   8.253
 5521POPC   C3A 9737   8.944  40.820   7.953
 5521POPC   C4A 9738   8.993  40.816   7.653
 5521POPC   C1B 9739   8.696  40.752   8.553
 5521POPC   C2B 9740   8.738  40.749   8.253
 5521POPC   C3B 9741   8.750  40.727   7.953
 5521POPC   C4B 9742   8.679  40.722   7.653
 5522POPC   NC3 9743   5.130  43.889   9.453
 5522POPC   PO4 9744   5.045  43.886   9.153
 5522POPC   GL1 9745   5.142  43.911   8.853
 5522POPC   GL2 9746   5.011  43.804   8.853
 5522POPC   C1A 9747   5.061  43.869   8.553
 5522POPC   D2A 9748   5.087  43.883   8.253
 5522POPC   C3A 9749   5.098  43.935   7.953
 5522POPC   C4A 9750   5.057  43.886   7.653
 5522POPC   C1B 9751   4.871  43.775   8.553
 5522POPC   C2B 9752   4.834  43.791   8.253
 5522POPC   C3B 9753   4.841  43.784   7.953
 5522POPC   C4B 9754   4.854  43.804   7.653
 5523POPC   NC3 9755  29.133  28.397   9.453
 5523POPC   PO4 9756  29.178  28.324   9.153
 5523POPC   GL1 9757  29.102  28.385   8.853
 5523POPC   GL2 9758  29.272  28.297   8.853
 5523POPC   C1A 9759  29.140  28.329   8.553
 5523POPC   D2A 9760  29.174  28.409   8.253
 5523POPC   C3A 9761  29.192  28.321   7.953
 5523POPC   C4A 9762  29.177  28.354   7.653
 5523POPC   C1B 9763  29.321  28.240   8.553
 5523POPC   C2B 9764  29.372  28.243   8.253
 5523POPC   C3B 9765  29.315  28.182   7.953
 5523POPC   C4B 9766  29.311  28.240   7.653
 5524POPC   NC3 9767  11.306  12.811   9.453
 5524POPC   PO4 9768  11.258  12.821   9.153
 5524POPC   GL1 9769  11.252  12.858   8.853
 5524POPC   GL2 9770  11.260  12.761   8.853
 5524POPC   C1A 9771  11.294  12.830   8.553
 5524POPC   D2A 9772  11.309  12.852   8.253
 5524POPC   C3A 9773  11.268  12.814   7.953
 5524POPC   C4A 9774  11.306  12.854   7.653
 5524POPC   C1B 9775  11.091  12.673   8.553
 5524POPC   C2B 9776  11.104  12.652   8.253
 5524POPC   C3B 9777  11.107  12.696   7.953
 5524POPC   C4B 9778  11.088  12.700   7.653
 5525POPC   NC3 9779  21.365  33.022   9.453
 5525POPC   PO4 9780  21.433  33.057   9.153
 5525POPC   GL1 9781  21.342  33.040   8.853
 5525POPC   GL2 9782  21.242  33.143   8.853
 5525POPC   C1A 9783  21.341  33.069   8.553
 5525POPC   D2A 9784  21.385  33.039   8.253
 5525POPC   C3A 9785  21.416  32.985   7.953
 5525POPC   C4A 9786  21.357  33.027   7.653
 5525POPC   C1B 9787  21.202  33.155   8.553
 5525POPC   C2B 9788  21.209  33.207   8.253
 5525POPC   C3B 9789  21.234  33.221   7.953
 5525POPC   C4B 9790  21.195  33.210   7.653
 5526POPC   NC3 9791  36.109  33.788   9.453
 5526POPC   PO4 9792  36.092  33.766   9.153
 5526POPC   GL1 9793  36.145  33.824   8.853
 5526POPC   GL2 9794  36.278  33.748   8.853
 5526POPC   C1A 9795  36.111  33.756   8.553
 5526POPC   D2A 9796  36.127  33.782   8.253
 5526POPC   C3A 9797  36.170  33.778   7.953
 5526POPC   C4A 9798  36.139  33.808   7.653
 5526POPC   C1B 9799  36.371  33.719   8.553
 5526POPC   C2B 9800  36.423  33.778   8.253
 5526POPC   C3B 9801  36.419  33.775   7.953
 5526POPC   C4B 9802  36.422  33.753   7.653
 5527POPC   NC3 9803  32.997  35.323   9.453
 5527POPC   PO4 9804  33.067  35.388   9.153
 5527POPC   GL1 9805  32.991  35.329   8.853
 5527POPC   GL2 9806  33.092  35.317   8.853
 5527POPC   C1A 9807  32.980  35.324   8.553
 5527POPC   D2A 9808  32.976  35.374   8.253
 5527POPC   C3A 9809  33.065  35.381   7.953
 5527POPC   C4A 9810  33.065  35.342   7.653
 5527POPC   C1B 9811  33.267  35.228   8.553
 5527POPC   C2B 9812  33.244  35.256   8.253
 5527POPC   C3B 9813  33.246  35.232   7.953
 5527POPC   C4B 9814  33.208  35.285   7.653
 5528POPC   NC3 9815  18.257  17.507   9.453
 5528POPC   PO4 9816  18.233  17.460   9.153
 5528POPC   GL1 9817  18.266  17.510   8.853
 5528POPC   GL2 9818  18.211  17.434   8.853
 5528POPC   C1A 9819  18.241  17.502   8.553
 5528POPC   D2A 9820  18.253  17.460   8.253
 5528POPC   C3A 9821  18.292  17.473   7.953
 5528POPC   C4A 9822  18.283  17.511   7.653
 5528POPC   C1B 9823  18.076  17.355   8.553
 5528POPC   C2B 9824  18.025  17.398   8.253
 5528POPC   C3B 9825  18.077  17.358   7.953
 5528POPC   C4B 9826  18.068  17.341   7.653
 5529POPC   NC3 9827  27.605  26.052   9.453
 5529POPC   PO4 9828  27.638  26.055   9.153
 5529POPC   GL1 9829  27.572  26.026   8.853
 5529POPC   GL2 9830  27.440  25.996   8.853
 5529POPC   C1A 9831  27.642  26.043   8.553
 5529POPC   D2A 9832  27.584  26.073   8.253
 5529POPC   C3A 9833  27.601  26.086   7.953
 5529POPC   C4A 9834  27.572  26.034   7.653
 5529POPC   C1B 9835  27.335  26.045   8.553
 5529POPC   C2B 9836  27.336  26.060   8.253
 5529POPC   C3B 9837  27.364  26.063   7.953
 5529POPC   C4B 9838  27.384  26.064   7.653
 5530POPC   NC3 9839  41.597   2.813   9.453
 5530POPC   PO4 9840  41.557   2.798   9.153
 5530POPC   GL1 9841  41.583   2.749   8.853
 5530POPC   GL2 9842  41.711   2.788   8.853
 5530POPC   C1A 9843  41.607   2.775   8.553
 5530POPC   D2A 9844  41.541   2.777   8.253
 5530POPC   C3A 9845  41.602   2.725   7.953
 5530POPC   C4A 9846  41.590   2.795   7.653
 5530POPC   C1B 9847  41.759   2.877   8.553
 5530POPC   C2B 9848  41.824   2.841   8.253
 5530POPC   C3B 9849  41.822   2.895   7.953
 5530POPC   C4B 9850  41.758   2.906   7.653
 5531POPC   NC3 9851  14.391  11.267   9.453
 5531POPC   PO4 9852  14.382  11.336   9.153
 5531POPC   GL1 9853  14.370  11.310   8.853
 5531POPC   GL2 9854  14.560  11.300   8.853
 5531POPC   C1A 9855  14.361  11.270   8.553
 5531POPC   D2A 9856  14.396  11.347   8.253
 5531POPC   C3A 9857  14.388  11.348   7.953
 5531POPC   C4A 9858  14.416  11.307   7.653
 5531POPC   C1B 9859  14.698  11.367   8.553
 5531POPC   C2B 9860  14.605  11.346   8.253
 5531POPC   C3B 9861  14.674  11.328   7.953
 5531POPC   C4B 9862  14.688  11.388   7.653
 5532POPC   NC3 9863  19.015  29.895   9.453
 5532POPC   PO4 9864  19.053  29.937   9.153
 5532POPC   GL1 9865  19.074  29.919   8.853
 5532POPC   GL2 9866  19.137  30.019   8.853
 5532POPC   C1A 9867  19.034  29.883   8.553
 5532POPC   D2A 9868  19.061  29.925   8.253
 5532POPC   C3A 9869  19.064  29.881   7.953
 5532POPC   C4A 9870  19.039  29.909   7.653
 5532POPC   C1B 9871  19.112  30.196   8.553
 5532POPC   C2B 9872  19.117  30.103   8.253
 5532POPC   C3B 9873  19.142  30.157   7.953
 5532POPC   C4B 9874  19.105  30.195   7.653
 5533POPC   NC3 9875   3.523  43.864   9.453
 5533POPC   PO4 9876   3.548  43.929   9.153
 5533POPC   GL1 9877   3.507  43.871   8.853
 5533POPC   GL2 9878   3.546  43.770   8.853
 5533POPC   C1A 9879   3.550  43.927   8.553
 5533POPC   D2A 9880   3.550  43.838   8.253
 5533POPC   C3A 9881   3.539  43.874   7.953
 5533POPC   C4A 9882   3.583  43.921   7.653
 5533POPC   C1B 9883   3.470  43.683   8.553
 5533POPC   C2B 9884   3.483  43.650   8.253
 5533POPC   C3B 9885   3.439  43.665   7.953
 5533POPC   C4B 9886   3.463  43.604   7.653
 5534POPC   NC3 9887  27.586  34.601   9.453
 5534POPC   PO4 9888  27.597  34.613   9.153
 5534POPC   GL1 9889  27.621  34.591   8.853
 5534POPC   GL2 9890  27.508  34.575   8.853
 5534POPC   C1A 9891  27.622  34.616   8.553
 5534POPC   D2A 9892  27.585  34.616   8.253
 5534POPC   C3A 9893  27.561  34.574   7.953
 5534POPC   C4A 9894  27.592  34.575   7.653
 5534POPC   C1B 9895  27.404  34.615   8.553
 5534POPC   C2B 9896  27.343  34.636   8.253
 5534POPC   C3B 9897  27.319  34.643   7.953
 5534POPC   C4B 9898  27.325  34.692   7.653
 5535POPC   NC3 9899  11.252  21.420   9.453
 5535POPC   PO4 9900  11.265  21.435   9.153
 5535POPC   GL1 9901  11.347  21.387   8.853
 5535POPC   GL2 9902  11.142  21.409   8.853
 5535POPC   C1A 9903  11.317  21.389   8.553
 5535POPC   D2A 9904  11.291  21.358   8.253
 5535POPC   C3A 9905  11.321  21.347   7.953
 5535POPC   C4A 9906  11.318  21.427   7.653
 5535POPC   C1B 9907  11.059  21.513   8.553
 5535POPC   C2B 9908  11.069  21.469   8.253
 5535POPC   C3B 9909  11.031  21.455   7.953
 5535POPC   C4B 9910  11.117  21.506   7.653
 5536POPC   NC3 9911  11.272  36.086   9.453
 5536POPC   PO4 9912  11.252  36.097   9.153
 5536POPC   GL1 9913  11.341  36.175   8.853
 5536POPC   GL2 9914  11.249  36.244   8.853
 5536POPC   C1A 9915  11.286  36.093   8.553
 5536POPC   D2A 9916  11.262  36.167   8.253
 5536POPC   C3A 9917  11.283  36.145   7.953
 5536POPC   C4A 9918  11.284  36.113   7.653
 5536POPC   C1B 9919  11.098  36.278   8.553
 5536POPC   C2B 9920  11.096  36.282   8.253
 5536POPC   C3B 9921  11.164  36.256   7.953
 5536POPC   C4B 9922  11.142  36.340   7.653
 5537POPC   NC3 9923   9.747  29.139   9.453
 5537POPC   PO4 9924   9.741  29.157   9.153
 5537POPC   GL1 9925   9.729  29.124   8.853
 5537POPC   GL2 9926   9.875  29.128   8.853
 5537POPC   C1A 9927   9.711  29.139   8.553
 5537POPC   D2A 9928   9.720  29.179   8.253
 5537POPC   C3A 9929   9.769  29.170   7.953
 5537POPC   C4A 9930   9.797  29.103   7.653
 5537POPC   C1B 9931   9.925  28.992   8.553
 5537POPC   C2B 9932   9.934  29.050   8.253
 5537POPC   C3B 9933   9.940  28.992   7.953
 5537POPC   C4B 9934   9.984  29.033   7.653
 5538POPC   NC3 9935  26.080   1.973   9.453
 5538POPC   PO4 9936  26.030   2.027   9.153
 5538POPC   GL1 9937  26.072   2.013   8.853
 5538POPC   GL2 9938  26.185   1.889   8.853
 5538POPC   C1A 9939  25.995   2.022   8.553
 5538POPC   D2A 9940  26.055   1.972   8.253
 5538POPC   C3A 9941  26.036   2.022   7.953
 5538POPC   C4A 9942  26.065   2.022   7.653
 5538POPC   C1B 9943  26.255   1.917   8.553
 5538POPC   C2B 9944  26.257   1.883   8.253
 5538POPC   C3B 9945  26.310   1.912   7.953
 5538POPC   C4B 9946  26.241   1.871   7.653
 5539POPC   NC3 9947  12.044  12.876   9.453
 5539POPC   PO4 9948  12.078  12.827   9.153
 5539POPC   GL1 9949  12.102  12.812   8.853
 5539POPC   GL2 9950  12.187  12.761   8.853
 5539POPC   C1A 9951  12.082  12.835   8.553
 5539POPC   D2A 9952  12.073  12.843   8.253
 5539POPC   C3A 9953  12.043  12.886   7.953
 5539POPC   C4A 9954  12.116  12.820   7.653
 5539POPC   C1B 9955  12.324  12.792   8.553
 5539POPC   C2B 9956  12.297  12.717   8.253
 5539POPC   C3B 9957  12.328  12.745   7.953
 5539POPC   C4B 9958  12.350  12.776   7.653
 5540POPC   NC3 9959  29.926  15.200   9.453
 5540POPC   PO4 9960  29.881  15.214   9.153
 5540POPC   GL1 9961  29.908  15.192   8.853
 5540POPC   GL2 9962  29.876  15.069   8.853
 5540POPC   C1A 9963  29.895  15.226   8.553
 5540POPC   D2A 9964  29.882  15.212   8.253
 5540POPC   C3A 9965  29.877  15.152   7.953
 5540POPC   C4A 9966  29.871  15.200   7.653
 5540POPC   C1B 9967  29.684  15.055   8.553
 5540POPC   C2B 9968  29.713  15.033   8.253
 5540POPC   C3B 9969  29.708  14.967   7.953
 5540POPC   C4B 9970  29.778  14.992   7.653
 5541POPC   NC3 9971  16.774  16.775   9.453
 5541POPC   PO4 9972  16.771  16.757   9.153
 5541POPC   GL1 9973  16.757  16.738   8.853
 5541POPC   GL2 9974  16.705  16.598   8.853
 5541POPC   C1A 9975  16.689  16.764   8.553
 5541POPC   D2A 9976  16.760  16.698   8.253
 5541POPC   C3A 9977  16.712  16.687   7.953
 5541POPC   C4A 9978  16.710  16.744   7.653
 5541POPC   C1B 9979  16.764  16.448   8.553
 5541POPC   C2B 9980  16.717  16.446   8.253
 5541POPC   C3B 9981  16.762  16.521   7.953
 5541POPC   C4B 9982  16.754  16.490   7.653
 5542POPC   NC3 9983  40.744  42.381   9.453
 5542POPC   PO4 9984  40.763  42.302   9.153
 5542POPC   GL1 9985  40.831  42.312   8.853
 5542POPC   GL2 9986  40.787  42.469   8.853
 5542POPC   C1A 9987  40.766  42.357   8.553
 5542POPC   D2A 9988  40.773  42.297   8.253
 5542POPC   C3A 9989  40.831  42.337   7.953
 5542POPC   C4A 9990  40.733  42.347   7.653
 5542POPC   C1B 9991  40.740  42.613   8.553
 5542POPC   C2B 9992  40.750  42.590   8.253
 5542POPC   C3B 9993  40.736  42.534   7.953
 5542POPC   C4B 9994  40.711  42.524   7.653
 5543POPC   NC3 9995  29.948  42.342   9.453
 5543POPC   PO4 9996  29.915  42.366   9.153
 5543POPC   GL1 9997  29.872  42.308   8.853
 5543POPC   GL2 9998  29.751  42.403   8.853
 5543POPC   C1A 9999  29.895  42.307   8.553
 5543POPC   D2A10000  29.965  42.288   8.253
 5543POPC   C3A10001  29.957  42.356   7.953
 5543POPC   C4A10002  29.950  42.298   7.653
 5543POPC   C1B10003  29.685  42.419   8.553
 5543POPC   C2B10004  29.700  42.358   8.253
 5543POPC   C3B10005  29.652  42.347   7.953
 5543POPC   C4B10006  29.642  42.376   7.653
 5544POPC   NC310007  29.917  36.886   9.453
 5544POPC   PO410008  29.946  36.874   9.153
 5544POPC   GL110009  29.958  36.863   8.853
 5544POPC   GL210010  29.820  36.957   8.853
 5544POPC   C1A10011  29.968  36.878   8.553
 5544POPC   D2A10012  29.892  36.904   8.253
 5544POPC   C3A10013  29.902  36.934   7.953
 5544POPC   C4A10014  29.946  36.884   7.653
 5544POPC   C1B10015  29.695  37.026   8.553
 5544POPC   C2B10016  29.698  37.036   8.253
 5544POPC   C3B10017  29.707  37.049   7.953
 5544POPC   C4B10018  29.720  36.954   7.653
 5545POPC   NC310019  28.374  16.004   9.453
 5545POPC   PO410020  28.348  15.975   9.153
 5545POPC   GL110021  28.414  15.915   8.853
 5545POPC   GL210022  28.235  15.864   8.853
 5545POPC   C1A10023  28.329  15.975   8.553
 5545POPC   D2A10024  28.339  15.976   8.253
 5545POPC   C3A10025  28.324  15.956   7.953
 5545POPC   C4A10026  28.358  15.964   7.653
 5545POPC   C1B10027  28.144  15.911   8.553
 5545POPC   C2B10028  28.144  15.870   8.253
 5545POPC   C3B10029  28.167  15.894   7.953
 5545POPC   C4B10030  28.139  15.859   7.653
 5546POPC   NC310031  44.648  29.121   9.453
 5546POPC   PO410032  44.687  29.127   9.153
 5546POPC   GL110033  44.622  29.160   8.853
 5546POPC   GL210034  44.686  28.987   8.853
 5546POPC   C1A10035  44.703  29.147   8.553
 5546POPC   D2A10036  44.666  29.110   8.253
 5546POPC   C3A10037  44.705  29.135   7.953
 5546POPC   C4A10038  44.661  29.156   7.653
 5546POPC   C1B10039  44.751  28.859   8.553
 5546POPC   C2B10040  44.716  28.934   8.253
 5546POPC   C3B10041  44.702  28.890   7.953
 5546POPC   C4B10042  44.736  28.862   7.653
 5547POPC   NC310043  35.317  42.316   9.453
 5547POPC   PO410044  35.396  42.328   9.153
 5547POPC   GL110045  35.309  42.305   8.853
 5547POPC   GL210046  35.385  42.226   8.853
 5547POPC   C1A10047  35.375  42.303   8.553
 5547POPC   D2A10048  35.306  42.296   8.253
 5547POPC   C3A10049  35.314  42.337   7.953
 5547POPC   C4A10050  35.358  42.301   7.653
 5547POPC   C1B10051  35.381  42.102   8.553
 5547POPC   C2B10052  35.376  42.050   8.253
 5547POPC   C3B10053  35.357  42.082   7.953
 5547POPC   C4B10054  35.340  42.069   7.653
 5548POPC   NC310055   2.758  26.060   9.453
 5548POPC   PO410056   2.730  26.022   9.153
 5548POPC   GL110057   2.815  26.070   8.853
 5548POPC   GL210058   2.625  26.046   8.853
 5548POPC   C1A10059   2.742  25.998   8.553
 5548POPC   D2A10060   2.778  26.045   8.253
 5548POPC   C3A10061   2.810  26.003   7.953
 5548POPC   C4A10062   2.761  26.077   7.653
 5548POPC   C1B10063   2.509  26.119   8.553
 5548POPC   C2B10064   2.563  26.076   8.253
 5548POPC   C3B10065   2.566  26.127   7.953
 5548POPC   C4B10066   2.545  26.052   7.653
 5549POPC   NC310067  31.486  15.202   9.453
 5549POPC   PO410068  31.492  15.180   9.153
 5549POPC   GL110069  31.444  15.227   8.853
 5549POPC   GL210070  31.579  15.173   8.853
 5549POPC   C1A10071  31.448  15.182   8.553
 5549POPC   D2A10072  31.485  15.202   8.253
 5549POPC   C3A10073  31.502  15.193   7.953
 5549POPC   C4A10074  31.435  15.151   7.653
 5549POPC   C1B10075  31.707  15.259   8.553
 5549POPC   C2B10076  31.710  15.229   8.253
 5549POPC   C3B10077  31.732  15.262   7.953
 5549POPC   C4B10078  31.709  15.245   7.653
 5550POPC   NC310079   7.385  19.010   9.453
 5550POPC   PO410080   7.426  19.106   9.153
 5550POPC   GL110081   7.453  19.023   8.853
 5550POPC   GL210082   7.300  19.122   8.853
 5550POPC   C1A10083   7.440  19.082   8.553
 5550POPC   D2A10084   7.383  19.089   8.253
 5550POPC   C3A10085   7.375  19.043   7.953
 5550POPC   C4A10086   7.429  19.096   7.653
 5550POPC   C1B10087   7.289  19.293   8.553
 5550POPC   C2B10088   7.244  19.293   8.253
 5550POPC   C3B10089   7.282  19.212   7.953
 5550POPC   C4B10090   7.308  19.269   7.653
 5551POPC   NC310091  26.034  43.104   9.453
 5551POPC   PO410092  26.073  43.094   9.153
 5551POPC   GL110093  26.025  43.141   8.853
 5551POPC   GL210094  25.882  43.122   8.853
 5551POPC   C1A10095  26.008  43.125   8.553
 5551POPC   D2A10096  26.039  43.145   8.253
 5551POPC   C3A10097  26.041  43.132   7.953
 5551POPC   C4A10098  26.041  43.123   7.653
 5551POPC   C1B10099  25.836  43.011   8.553
 5551POPC   C2B10100  25.825  43.093   8.253
 5551POPC   C3B10101  25.827  43.078   7.953
 5551POPC   C4B10102  25.754  43.005   7.653
 5552POPC   NC310103   7.455   4.281   9.453
 5552POPC   PO410104   7.469   4.302   9.153
 5552POPC   GL110105   7.426   4.338   8.853
 5552POPC   GL210106   7.340   4.207   8.853
 5552POPC   C1A10107   7.384   4.323   8.553
 5552POPC   D2A10108   7.438   4.352   8.253
 5552POPC   C3A10109   7.437   4.359   7.953
 5552POPC   C4A10110   7.417   4.279   7.653
 5552POPC   C1B10111   7.334   4.103   8.553
 5552POPC   C2B10112   7.332   4.107   8.253
 5552POPC   C3B10113   7.326   4.131   7.953
 5552POPC   C4B10114   7.313   4.059   7.653
 5553POPC   NC310115  21.412   5.124   9.453
 5553POPC   PO410116  21.399   5.079   9.153
 5553POPC   GL110117  21.369   5.084   8.853
 5553POPC   GL210118  21.276   5.112   8.853
 5553POPC   C1A10119  21.407   5.081   8.553
 5553POPC   D2A10120  21.414   5.138   8.253
 5553POPC   C3A10121  21.370   5.111   7.953
 5553POPC   C4A10122  21.358   5.082   7.653
 5553POPC   C1B10123  21.165   5.119   8.553
 5553POPC   C2B10124  21.174   5.183   8.253
 5553POPC   C3B10125  21.104   5.106   7.953
 5553POPC   C4B10126  21.102   5.103   7.653
 5554POPC   NC310127  33.054  23.742   9.453
 5554POPC   PO410128  33.067  23.741   9.153
 5554POPC   GL110129  33.014  23.750   8.853
 5554POPC   GL210130  33.101  23.823   8.853
 5554POPC   C1A10131  33.071  23.736   8.553
 5554POPC   D2A10132  33.047  23.680   8.253
 5554POPC   C3A10133  33.014  23.687   7.953
 5554POPC   C4A10134  33.073  23.699   7.653
 5554POPC   C1B10135  33.245  23.897   8.553
 5554POPC   C2B10136  33.194  23.900   8.253
 5554POPC   C3B10137  33.207  23.888   7.953
 5554POPC   C4B10138  33.203  23.920   7.653
 5555POPC   NC310139  31.424  23.700   9.453
 5555POPC   PO410140  31.502  23.701   9.153
 5555POPC   GL110141  31.489  23.704   8.853
 5555POPC   GL210142  31.623  23.608   8.853
 5555POPC   C1A10143  31.511  23.680   8.553
 5555POPC   D2A10144  31.477  23.729   8.253
 5555POPC   C3A10145  31.486  23.741   7.953
 5555POPC   C4A10146  31.464  23.689   7.653
 5555POPC   C1B10147  31.714  23.597   8.553
 5555POPC   C2B10148  31.689  23.635   8.253
 5555POPC   C3B10149  31.709  23.575   7.953
 5555POPC   C4B10150  31.691  23.617   7.653
 5556POPC   NC310151  19.048  11.313   9.453
 5556POPC   PO410152  19.043  11.253   9.153
 5556POPC   GL110153  19.065  11.252   8.853
 5556POPC   GL210154  19.034  11.235   8.853
 5556POPC   C1A10155  19.009  11.317   8.553
 5556POPC   D2A10156  19.033  11.304   8.253
 5556POPC   C3A10157  19.029  11.343   7.953
 5556POPC   C4A10158  19.018  11.323   7.653
 5556POPC   C1B10159  18.876  11.073   8.553
 5556POPC   C2B10160  18.925  11.063   8.253
 5556POPC   C3B10161  18.920  11.072   7.953
 5556POPC   C4B10162  18.880  11.093   7.653
 5557POPC   NC310163   5.124  43.098   9.453
 5557POPC   PO410164   5.071  43.110   9.153
 5557POPC   GL110165   5.066  43.070   8.853
 5557POPC   GL210166   5.223  43.113   8.853
 5557POPC   C1A10167   5.116  43.088   8.553
 5557POPC   D2A10168   5.071  43.148   8.253
 5557POPC   C3A10169   5.140  43.091   7.953
 5557POPC   C4A10170   5.133  43.136   7.653
 5557POPC   C1B10171   5.336  43.218   8.553
 5557POPC   C2B10172   5.377  43.196   8.253
 5557POPC   C3B10173   5.336  43.205   7.953
 5557POPC   C4B10174   5.322  43.156   7.653
 5558POPC   NC310175  42.300  43.856   9.453
 5558POPC   PO410176  42.296  43.928   9.153
 5558POPC   GL110177  42.364  43.881   8.853
 5558POPC   GL210178  42.355  43.770   8.853
 5558POPC   C1A10179  42.343  43.849   8.553
 5558POPC   D2A10180  42.368  43.892   8.253
 5558POPC   C3A10181  42.317  43.929   7.953
 5558POPC   C4A10182  42.336  43.865   7.653
 5558POPC   C1B10183  42.290  43.683   8.553
 5558POPC   C2B10184  42.336  43.657   8.253
 5558POPC   C3B10185  42.288  43.612   7.953
 5558POPC   C4B10186  42.314  43.666   7.653
 5559POPC   NC310187  37.674   9.752   9.453
 5559POPC   PO410188  37.700   9.796   9.153
 5559POPC   GL110189  37.680   9.774   8.853
 5559POPC   GL210190  37.774   9.695   8.853
 5559POPC   C1A10191  37.694   9.726   8.553
 5559POPC   D2A10192  37.660   9.754   8.253
 5559POPC   C3A10193  37.686   9.735   7.953
 5559POPC   C4A10194  37.726   9.725   7.653
 5559POPC   C1B10195  37.835   9.589   8.553
 5559POPC   C2B10196  37.865   9.613   8.253
 5559POPC   C3B10197  37.825   9.624   7.953
 5559POPC   C4B10198  37.910   9.599   7.653
 5560POPC   NC310199  33.011  36.092   9.453
 5560POPC   PO410200  32.977  36.087   9.153
 5560POPC   GL110201  33.056  36.175   8.853
 5560POPC   GL210202  32.977  36.246   8.853
 5560POPC   C1A10203  32.988  36.080   8.553
 5560POPC   D2A10204  33.071  36.141   8.253
 5560POPC   C3A10205  33.022  36.174   7.953
 5560POPC   C4A10206  33.028  36.084   7.653
 5560POPC   C1B10207  32.875  36.381   8.553
 5560POPC   C2B10208  32.908  36.300   8.253
 5560POPC   C3B10209  32.848  36.385   7.953
 5560POPC   C4B10210  32.935  36.382   7.653
 5561POPC   NC310211   8.957  43.157   9.453
 5561POPC   PO410212   8.976  43.158   9.153
 5561POPC   GL110213   8.929  43.159   8.853
 5561POPC   GL210214   9.030  43.038   8.853
 5561POPC   C1A10215   8.962  43.092   8.553
 5561POPC   D2A10216   8.932  43.097   8.253
 5561POPC   C3A10217   8.948  43.109   7.953
 5561POPC   C4A10218   8.984  43.068   7.653
 5561POPC   C1B10219   9.153  42.933   8.553
 5561POPC   C2B10220   9.151  42.872   8.253
 5561POPC   C3B10221   9.170  42.934   7.953
 5561POPC   C4B10222   9.145  42.912   7.653
 5562POPC   NC310223   1.944  23.714   9.453
 5562POPC   PO410224   2.007  23.728   9.153
 5562POPC   GL110225   2.013  23.678   8.853
 5562POPC   GL210226   2.142  23.645   8.853
 5562POPC   C1A10227   1.980  23.691   8.553
 5562POPC   D2A10228   1.998  23.673   8.253
 5562POPC   C3A10229   2.016  23.697   7.953
 5562POPC   C4A10230   2.014  23.706   7.653
 5562POPC   C1B10231   2.229  23.621   8.553
 5562POPC   C2B10232   2.179  23.604   8.253
 5562POPC   C3B10233   2.245  23.546   7.953
 5562POPC   C4B10234   2.192  23.579   7.653
 5563POPC   NC310235  31.509   7.411   9.453
 5563POPC   PO410236  31.453   7.429   9.153
 5563POPC   GL110237  31.457   7.392   8.853
 5563POPC   GL210238  31.550   7.293   8.853
 5563POPC   C1A10239  31.431   7.411   8.553
 5563POPC   D2A10240  31.516   7.438   8.253
 5563POPC   C3A10241  31.483   7.393   7.953
 5563POPC   C4A10242  31.506   7.386   7.653
 5563POPC   C1B10243  31.624   7.192   8.553
 5563POPC   C2B10244  31.581   7.157   8.253
 5563POPC   C3B10245  31.593   7.237   7.953
 5563POPC   C4B10246  31.626   7.172   7.653
 5564POPC   NC310247  13.622  29.121   9.453
 5564POPC   PO410248  13.664  29.131   9.153
 5564POPC   GL110249  13.597  29.181   8.853
 5564POPC   GL210250  13.523  29.106   8.853
 5564POPC   C1A10251  13.608  29.139   8.553
 5564POPC   D2A10252  13.583  29.160   8.253
 5564POPC   C3A10253  13.584  29.192   7.953
 5564POPC   C4A10254  13.623  29.184   7.653
 5564POPC   C1B10255  13.420  29.049   8.553
 5564POPC   C2B10256  13.416  29.075   8.253
 5564POPC   C3B10257  13.390  29.092   7.953
 5564POPC   C4B10258  13.411  29.070   7.653
 5565POPC   NC310259  44.710  13.649   9.453
 5565POPC   PO410260  44.648  13.638   9.153
 5565POPC   GL110261  44.651  13.672   8.853
 5565POPC   GL210262  44.761  13.679   8.853
 5565POPC   C1A10263  44.682  13.635   8.553
 5565POPC   D2A10264  44.643  13.619   8.253
 5565POPC   C3A10265  44.680  13.594   7.953
 5565POPC   C4A10266  44.710  13.655   7.653
 5565POPC   C1B10267  44.897  13.794   8.553
 5565POPC   C2B10268  44.874  13.837   8.253
 5565POPC   C3B10269  44.883  13.756   7.953
 5565POPC   C4B10270  44.876  13.830   7.653
 5566POPC   NC310271  26.774  41.548   9.453
 5566POPC   PO410272  26.784  41.519   9.153
 5566POPC   GL110273  26.788  41.575   8.853
 5566POPC   GL210274  26.769  41.432   8.853
 5566POPC   C1A10275  26.845  41.608   8.553
 5566POPC   D2A10276  26.855  41.518   8.253
 5566POPC   C3A10277  26.812  41.541   7.953
 5566POPC   C4A10278  26.779  41.573   7.653
 5566POPC   C1B10279  26.831  41.273   8.553
 5566POPC   C2B10280  26.736  41.330   8.253
 5566POPC   C3B10281  26.779  41.358   7.953
 5566POPC   C4B10282  26.805  41.265   7.653
 5567POPC   NC310283  35.314  41.533   9.453
 5567POPC   PO410284  35.382  41.573   9.153
 5567POPC   GL110285  35.379  41.536   8.853
 5567POPC   GL210286  35.297  41.645   8.853
 5567POPC   C1A10287  35.374  41.535   8.553
 5567POPC   D2A10288  35.302  41.583   8.253
 5567POPC   C3A10289  35.387  41.541   7.953
 5567POPC   C4A10290  35.345  41.537   7.653
 5567POPC   C1B10291  35.339  41.772   8.553
 5567POPC   C2B10292  35.323  41.771   8.253
 5567POPC   C3B10293  35.302  41.774   7.953
 5567POPC   C4B10294  35.290  41.783   7.653
 5568POPC   NC310295  33.798   8.975   9.453
 5568POPC   PO410296  33.762   9.015   9.153
 5568POPC   GL110297  33.842   8.956   8.853
 5568POPC   GL210298  33.872   9.093   8.853
 5568POPC   C1A10299  33.822   9.002   8.553
 5568POPC   D2A10300  33.837   8.982   8.253
 5568POPC   C3A10301  33.757   8.961   7.953
 5568POPC   C4A10302  33.810   8.956   7.653
 5568POPC   C1B10303  33.809   9.215   8.553
 5568POPC   C2B10304  33.902   9.192   8.253
 5568POPC   C3B10305  33.842   9.237   7.953
 5568POPC   C4B10306  33.888   9.254   7.653
 5569POPC   NC310307  36.898   6.664   9.453
 5569POPC   PO410308  36.942   6.682   9.153
 5569POPC   GL110309  36.944   6.681   8.853
 5569POPC   GL210310  36.897   6.719   8.853
 5569POPC   C1A10311  36.931   6.596   8.553
 5569POPC   D2A10312  36.932   6.679   8.253
 5569POPC   C3A10313  36.888   6.649   7.953
 5569POPC   C4A10314  36.938   6.677   7.653
 5569POPC   C1B10315  36.886   6.857   8.553
 5569POPC   C2B10316  36.883   6.870   8.253
 5569POPC   C3B10317  36.846   6.914   7.953
 5569POPC   C4B10318  36.858   6.870   7.653
 5570POPC   NC310319  37.660  34.602   9.453
 5570POPC   PO410320  37.715  34.614   9.153
 5570POPC   GL110321  37.705  34.589   8.853
 5570POPC   GL210322  37.558  34.613   8.853
 5570POPC   C1A10323  37.687  34.550   8.553
 5570POPC   D2A10324  37.686  34.605   8.253
 5570POPC   C3A10325  37.633  34.547   7.953
 5570POPC   C4A10326  37.672  34.532   7.653
 5570POPC   C1B10327  37.429  34.694   8.553
 5570POPC   C2B10328  37.428  34.663   8.253
 5570POPC   C3B10329  37.428  34.656   7.953
 5570POPC   C4B10330  37.469  34.657   7.653
 5571POPC   NC310331   2.761  29.888   9.453
 5571POPC   PO410332   2.777  29.890   9.153
 5571POPC   GL110333   2.790  29.938   8.853
 5571POPC   GL210334   2.808  29.791   8.853
 5571POPC   C1A10335   2.775  29.934   8.553
 5571POPC   D2A10336   2.805  29.916   8.253
 5571POPC   C3A10337   2.724  29.876   7.953
 5571POPC   C4A10338   2.772  29.966   7.653
 5571POPC   C1B10339   2.875  29.689   8.553
 5571POPC   C2B10340   2.907  29.750   8.253
 5571POPC   C3B10341   2.866  29.684   7.953
 5571POPC   C4B10342   2.845  29.694   7.653
 5572POPC   NC310343   4.314   0.431   9.453
 5572POPC   PO410344   4.274   0.422   9.153
 5572POPC   GL110345   4.292   0.468   8.853
 5572POPC   GL210346   4.380   0.336   8.853
 5572POPC   C1A10347   4.271   0.408   8.553
 5572POPC   D2A10348   4.322   0.439   8.253
 5572POPC   C3A10349   4.274   0.449   7.953
 5572POPC   C4A10350   4.337   0.438   7.653
 5572POPC   C1B10351   4.526   0.258   8.553
 5572POPC   C2B10352   4.452   0.294   8.253
 5572POPC   C3B10353   4.495   0.223   7.953
 5572POPC   C4B10354   4.463   0.237   7.653
 5573POPC   NC310355   2.730  43.118   9.453
 5573POPC   PO410356   2.716  43.079   9.153
 5573POPC   GL110357   2.765  43.097   8.853
 5573POPC   GL210358   2.877  43.138   8.853
 5573POPC   C1A10359   2.805  43.085   8.553
 5573POPC   D2A10360   2.737  43.130   8.253
 5573POPC   C3A10361   2.716  43.061   7.953
 5573POPC   C4A10362   2.780  43.107   7.653
 5573POPC   C1B10363   3.001  43.080   8.553
 5573POPC   C2B10364   3.038  43.083   8.253
 5573POPC   C3B10365   2.979  43.152   7.953
 5573POPC   C4B10366   3.033  43.149   7.653
 5574POPC   NC310367  12.032  24.520   9.453
 5574POPC   PO410368  12.034  24.491   9.153
 5574POPC   GL110369  12.064  24.505   8.853
 5574POPC   GL210370  12.033  24.549   8.853
 5574POPC   C1A10371  12.074  24.479   8.553
 5574POPC   D2A10372  12.073  24.516   8.253
 5574POPC   C3A10373  12.104  24.468   7.953
 5574POPC   C4A10374  12.090  24.478   7.653
 5574POPC   C1B10375  11.941  24.694   8.553
 5574POPC   C2B10376  11.933  24.661   8.253
 5574POPC   C3B10377  11.896  24.686   7.953
 5574POPC   C4B10378  11.904  24.703   7.653
 5575POPC   NC310379   4.361  19.058   9.453
 5575POPC   PO410380   4.347  19.026   9.153
 5575POPC   GL110381   4.365  19.098   8.853
 5575POPC   GL210382   4.239  19.004   8.853
 5575POPC   C1A10383   4.283  19.031   8.553
 5575POPC   D2A10384   4.288  19.074   8.253
 5575POPC   C3A10385   4.366  19.031   7.953
 5575POPC   C4A10386   4.364  19.045   7.653
 5575POPC   C1B10387   4.149  18.904   8.553
 5575POPC   C2B10388   4.158  18.889   8.253
 5575POPC   C3B10389   4.125  18.877   7.953
 5575POPC   C4B10390   4.143  18.891   7.653
 5576POPC   NC310391  36.131  43.088   9.453
 5576POPC   PO410392  36.164  43.087   9.153
 5576POPC   GL110393  36.124  43.074   8.853
 5576POPC   GL210394  36.221  43.162   8.853
 5576POPC   C1A10395  36.165  43.088   8.553
 5576POPC   D2A10396  36.160  43.063   8.253
 5576POPC   C3A10397  36.177  43.088   7.953
 5576POPC   C4A10398  36.101  43.081   7.653
 5576POPC   C1B10399  36.386  43.167   8.553
 5576POPC   C2B10400  36.356  43.154   8.253
 5576POPC   C3B10401  36.374  43.108   7.953
 5576POPC   C4B10402  36.341  43.097   7.653
 5577POPC   NC310403   8.156  19.791   9.453
 5577POPC   PO410404   8.180  19.872   9.153
 5577POPC   GL110405   8.202  19.843   8.853
 5577POPC   GL210406   8.290  19.873   8.853
 5577POPC   C1A10407   8.230  19.837   8.553
 5577POPC   D2A10408   8.178  19.870   8.253
 5577POPC   C3A10409   8.227  19.878   7.953
 5577POPC   C4A10410   8.233  19.877   7.653
 5577POPC   C1B10411   8.482  19.864   8.553
 5577POPC   C2B10412   8.459  19.961   8.253
 5577POPC   C3B10413   8.455  19.881   7.953
 5577POPC   C4B10414   8.385  19.955   7.653
 5578POPC   NC310415  43.910  32.297   9.453
 5578POPC   PO410416  43.863  32.297   9.153
 5578POPC   GL110417  43.909  32.269   8.853
 5578POPC   GL210418  43.972  32.195   8.853
 5578POPC   C1A10419  43.893  32.232   8.553
 5578POPC   D2A10420  43.851  32.249   8.253
 5578POPC   C3A10421  43.860  32.262   7.953
 5578POPC   C4A10422  43.917  32.216   7.653
 5578POPC   C1B10423  44.141  32.218   8.553
 5578POPC   C2B10424  44.138  32.207   8.253
 5578POPC   C3B10425  44.115  32.162   7.953
 5578POPC   C4B10426  44.105  32.207   7.653
 5579POPC   NC310427   1.957  19.053   9.453
 5579POPC   PO410428   1.996  19.074   9.153
 5579POPC   GL110429   1.959  19.059   8.853
 5579POPC   GL210430   2.087  18.984   8.853
 5579POPC   C1A10431   2.004  19.076   8.553
 5579POPC   D2A10432   2.031  19.107   8.253
 5579POPC   C3A10433   2.033  19.029   7.953
 5579POPC   C4A10434   1.954  19.084   7.653
 5579POPC   C1B10435   2.093  18.812   8.553
 5579POPC   C2B10436   2.091  18.854   8.253
 5579POPC   C3B10437   2.121  18.832   7.953
 5579POPC   C4B10438   2.123  18.835   7.653
 5580POPC   NC310439  12.869   9.004   9.453
 5580POPC   PO410440  12.880   8.966   9.153
 5580POPC   GL110441  12.875   8.936   8.853
 5580POPC   GL210442  12.974   8.971   8.853
 5580POPC   C1A10443  12.884   8.928   8.553
 5580POPC   D2A10444  12.867   8.932   8.253
 5580POPC   C3A10445  12.873   8.982   7.953
 5580POPC   C4A10446  12.812   8.969   7.653
 5580POPC   C1B10447  13.087   9.024   8.553
 5580POPC   C2B10448  13.110   9.037   8.253
 5580POPC   C3B10449  13.123   9.063   7.953
 5580POPC   C4B10450  13.135   9.013   7.653
 5581POPC   NC310451   8.944  15.196   9.453
 5581POPC   PO410452   8.988  15.132   9.153
 5581POPC   GL110453   9.013  15.190   8.853
 5581POPC   GL210454   8.911  15.113   8.853
 5581POPC   C1A10455   8.999  15.208   8.553
 5581POPC   D2A10456   8.959  15.221   8.253
 5581POPC   C3A10457   9.000  15.170   7.953
 5581POPC   C4A10458   8.948  15.209   7.653
 5581POPC   C1B10459   8.838  14.991   8.553
 5581POPC   C2B10460   8.840  14.987   8.253
 5581POPC   C3B10461   8.824  14.921   7.953
 5581POPC   C4B10462   8.833  14.933   7.653
 5582POPC   NC310463   6.693   4.302   9.453
 5582POPC   PO410464   6.669   4.303   9.153
 5582POPC   GL110465   6.648   4.335   8.853
 5582POPC   GL210466   6.544   4.231   8.853
 5582POPC   C1A10467   6.598   4.333   8.553
 5582POPC   D2A10468   6.615   4.345   8.253
 5582POPC   C3A10469   6.622   4.279   7.953
 5582POPC   C4A10470   6.680   4.366   7.653
 5582POPC   C1B10471   6.381   4.255   8.553
 5582POPC   C2B10472   6.449   4.248   8.253
 5582POPC   C3B10473   6.444   4.243   7.953
 5582POPC   C4B10474   6.391   4.235   7.653
 5583POPC   NC310475   7.380  20.611   9.453
 5583POPC   PO410476   7.426  20.595   9.153
 5583POPC   GL110477   7.388  20.583   8.853
 5583POPC   GL210478   7.519  20.709   8.853
 5583POPC   C1A10479   7.432  20.635   8.553
 5583POPC   D2A10480   7.403  20.580   8.253
 5583POPC   C3A10481   7.464  20.567   7.953
 5583POPC   C4A10482   7.458  20.586   7.653
 5583POPC   C1B10483   7.662  20.753   8.553
 5583POPC   C2B10484   7.621  20.779   8.253
 5583POPC   C3B10485   7.612  20.786   7.953
 5583POPC   C4B10486   7.596  20.801   7.653
 5584POPC   NC310487  42.363   2.783   9.453
 5584POPC   PO410488  42.292   2.783   9.153
 5584POPC   GL110489  42.341   2.768   8.853
 5584POPC   GL210490  42.449   2.828   8.853
 5584POPC   C1A10491  42.286   2.782   8.553
 5584POPC   D2A10492  42.377   2.731   8.253
 5584POPC   C3A10493  42.323   2.802   7.953
 5584POPC   C4A10494  42.371   2.748   7.653
 5584POPC   C1B10495  42.602   2.782   8.553
 5584POPC   C2B10496  42.554   2.766   8.253
 5584POPC   C3B10497  42.578   2.784   7.953
 5584POPC   C4B10498  42.559   2.847   7.653
 5585POPC   NC310499   1.231  31.487   9.453
 5585POPC   PO410500   1.183  31.479   9.153
 5585POPC   GL110501   1.192  31.446   8.853
 5585POPC   GL210502   1.059  31.487   8.853
 5585POPC   C1A10503   1.191  31.455   8.553
 5585POPC   D2A10504   1.174  31.468   8.253
 5585POPC   C3A10505   1.177  31.455   7.953
 5585POPC   C4A10506   1.247  31.491   7.653
 5585POPC   C1B10507   1.004  31.424   8.553
 5585POPC   C2B10508   0.979  31.388   8.253
 5585POPC   C3B10509   0.983  31.418   7.953
 5585POPC   C4B10510   0.926  31.428   7.653
 5586POPC   NC310511   4.306   4.327   9.453
 5586POPC   PO410512   4.360   4.293   9.153
 5586POPC   GL110513   4.352   4.357   8.853
 5586POPC   GL210514   4.405   4.380   8.853
 5586POPC   C1A10515   4.343   4.274   8.553
 5586POPC   D2A10516   4.366   4.312   8.253
 5586POPC   C3A10517   4.332   4.349   7.953
 5586POPC   C4A10518   4.308   4.338   7.653
 5586POPC   C1B10519   4.460   4.553   8.553
 5586POPC   C2B10520   4.457   4.459   8.253
 5586POPC   C3B10521   4.464   4.536   7.953
 5586POPC   C4B10522   4.430   4.463   7.653
 5587POPC   NC310523   1.967  33.846   9.453
 5587POPC   PO410524   1.949  33.756   9.153
 5587POPC   GL110525   1.974  33.772   8.853
 5587POPC   GL210526   1.968  33.698   8.853
 5587POPC   C1A10527   1.950  33.838   8.553
 5587POPC   D2A10528   1.983  33.765   8.253
 5587POPC   C3A10529   1.989  33.806   7.953
 5587POPC   C4A10530   1.947  33.803   7.653
 5587POPC   C1B10531   1.932  33.552   8.553
 5587POPC   C2B10532   1.975  33.533   8.253
 5587POPC   C3B10533   1.927  33.563   7.953
 5587POPC   C4B10534   1.973  33.570   7.653
 5588POPC   NC310535  33.015  18.252   9.453
 5588POPC   PO410536  33.051  18.283   9.153
 5588POPC   GL110537  33.017  18.263   8.853
 5588POPC   GL210538  32.945  18.158   8.853
 5588POPC   C1A10539  33.033  18.301   8.553
 5588POPC   D2A10540  33.045  18.276   8.253
 5588POPC   C3A10541  33.062  18.260   7.953
 5588POPC   C4A10542  33.068  18.311   7.653
 5588POPC   C1B10543  32.860  18.156   8.553
 5588POPC   C2B10544  32.855  18.143   8.253
 5588POPC   C3B10545  32.879  18.086   7.953
 5588POPC   C4B10546  32.878  18.146   7.653
 5589POPC   NC310547  17.516  32.264   9.453
 5589POPC   PO410548  17.547  32.217   9.153
 5589POPC   GL110549  17.509  32.288   8.853
 5589POPC   GL210550  17.603  32.361   8.853
 5589POPC   C1A10551  17.467  32.290   8.553
 5589POPC   D2A10552  17.467  32.227   8.253
 5589POPC   C3A10553  17.463  32.231   7.953
 5589POPC   C4A10554  17.547  32.288   7.653
 5589POPC   C1B10555  17.757  32.365   8.553
 5589POPC   C2B10556  17.714  32.389   8.253
 5589POPC   C3B10557  17.722  32.369   7.953
 5589POPC   C4B10558  17.731  32.344   7.653
 5590POPC   NC310559   3.507  10.501   9.453
 5590POPC   PO410560   3.500  10.475   9.153
 5590POPC   GL110561   3.572  10.522   8.853
 5590POPC   GL210562   3.603  10.385   8.853
 5590POPC   C1A10563   3.520  10.536   8.553
 5590POPC   D2A10564   3.549  10.519   8.253
 5590POPC   C3A10565   3.579  10.528   7.953
 5590POPC   C4A10566   3.588  10.514   7.653
 5590POPC   C1B10567   3.693  10.383   8.553
 5590POPC   C2B10568   3.683  10.343   8.253
 5590POPC   C3B10569   3.703  10.289   7.953
 5590POPC   C4B10570   3.751  10.369   7.653
 5591POPC   NC310571  32.274  15.133   9.453
 5591POPC   PO410572  32.225  15.210   9.153
 5591POPC   GL110573  32.230  15.206   8.853
 5591POPC   GL210574  32.096  15.156   8.853
 5591POPC   C1A10575  32.222  15.194   8.553
 5591POPC   D2A10576  32.233  15.203   8.253
 5591POPC   C3A10577  32.211  15.211   7.953
 5591POPC   C4A10578  32.213  15.199   7.653
 5591POPC   C1B10579  31.960  15.219   8.553
 5591POPC   C2B10580  31.953  15.244   8.253
 5591POPC   C3B10581  31.989  15.173   7.953
 5591POPC   C4B10582  32.033  15.260   7.653
 5592POPC   NC310583  25.248   2.721   9.453
 5592POPC   PO410584  25.309   2.721   9.153
 5592POPC   GL110585  25.289   2.741   8.853
 5592POPC   GL210586  25.214   2.682   8.853
 5592POPC   C1A10587  25.223   2.783   8.553
 5592POPC   D2A10588  25.278   2.786   8.253
 5592POPC   C3A10589  25.303   2.769   7.953
 5592POPC   C4A10590  25.240   2.765   7.653
 5592POPC   C1B10591  25.252   2.496   8.553
 5592POPC   C2B10592  25.230   2.535   8.253
 5592POPC   C3B10593  25.264   2.496   7.953
 5592POPC   C4B10594  25.238   2.485   7.653
 5593POPC   NC310595   6.634  33.839   9.453
 5593POPC   PO410596   6.664  33.818   9.153
 5593POPC   GL110597   6.673  33.821   8.853
 5593POPC   GL210598   6.625  33.642   8.853
 5593POPC   C1A10599   6.631  33.835   8.553
 5593POPC   D2A10600   6.599  33.818   8.253
 5593POPC   C3A10601   6.614  33.847   7.953
 5593POPC   C4A10602   6.641  33.816   7.653
 5593POPC   C1B10603   6.601  33.507   8.553
 5593POPC   C2B10604   6.598  33.606   8.253
 5593POPC   C3B10605   6.596  33.527   7.953
 5593POPC   C4B10606   6.555  33.526   7.653
 5594POPC   NC310607  12.118   5.840   9.453
 5594POPC   PO410608  12.108   5.893   9.153
 5594POPC   GL110609  12.075   5.841   8.853
 5594POPC   GL210610  12.216   5.964   8.853
 5594POPC   C1A10611  12.088   5.868   8.553
 5594POPC   D2A10612  12.039   5.885   8.253
 5594POPC   C3A10613  12.057   5.864   7.953
 5594POPC   C4A10614  12.092   5.880   7.653
 5594POPC   C1B10615  12.304   6.020   8.553
 5594POPC   C2B10616  12.264   6.029   8.253
 5594POPC   C3B10617  12.337   5.977   7.953
 5594POPC   C4B10618  12.301   5.988   7.653
 5595POPC   NC310619   6.653   2.793   9.453
 5595POPC   PO410620   6.614   2.755   9.153
 5595POPC   GL110621   6.682   2.797   8.853
 5595POPC   GL210622   6.608   2.825   8.853
 5595POPC   C1A10623   6.624   2.723   8.553
 5595POPC   D2A10624   6.677   2.744   8.253
 5595POPC   C3A10625   6.679   2.761   7.953
 5595POPC   C4A10626   6.609   2.749   7.653
 5595POPC   C1B10627   6.525   2.979   8.553
 5595POPC   C2B10628   6.446   3.013   8.253
 5595POPC   C3B10629   6.457   2.924   7.953
 5595POPC   C4B10630   6.505   2.951   7.653
 5596POPC   NC310631   5.896  40.794   9.453
 5596POPC   PO410632   5.872  40.750   9.153
 5596POPC   GL110633   5.911  40.768   8.853
 5596POPC   GL210634   5.844  40.689   8.853
 5596POPC   C1A10635   5.877  40.779   8.553
 5596POPC   D2A10636   5.834  40.794   8.253
 5596POPC   C3A10637   5.858  40.757   7.953
 5596POPC   C4A10638   5.860  40.821   7.653
 5596POPC   C1B10639   5.744  40.541   8.553
 5596POPC   C2B10640   5.805  40.539   8.253
 5596POPC   C3B10641   5.746  40.589   7.953
 5596POPC   C4B10642   5.791  40.574   7.653
 5597POPC   NC310643  17.528  30.740   9.453
 5597POPC   PO410644  17.544  30.701   9.153
 5597POPC   GL110645  17.527  30.698   8.853
 5597POPC   GL210646  17.480  30.774   8.853
 5597POPC   C1A10647  17.492  30.654   8.553
 5597POPC   D2A10648  17.519  30.700   8.253
 5597POPC   C3A10649  17.478  30.738   7.953
 5597POPC   C4A10650  17.493  30.721   7.653
 5597POPC   C1B10651  17.447  30.903   8.553
 5597POPC   C2B10652  17.432  30.986   8.253
 5597POPC   C3B10653  17.441  30.913   7.953
 5597POPC   C4B10654  17.417  30.989   7.653
 5598POPC   NC310655  40.007  36.930   9.453
 5598POPC   PO410656  39.985  36.899   9.153
 5598POPC   GL110657  40.002  36.930   8.853
 5598POPC   GL210658  40.169  36.925   8.853
 5598POPC   C1A10659  39.969  36.943   8.553
 5598POPC   D2A10660  39.975  36.874   8.253
 5598POPC   C3A10661  39.981  36.884   7.953
 5598POPC   C4A10662  40.012  36.953   7.653
 5598POPC   C1B10663  40.235  36.992   8.553
 5598POPC   C2B10664  40.247  37.012   8.253
 5598POPC   C3B10665  40.237  36.972   7.953
 5598POPC   C4B10666  40.236  36.999   7.653
 5599POPC   NC310667  39.200  11.339   9.453
 5599POPC   PO410668  39.262  11.262   9.153
 5599POPC   GL110669  39.262  11.339   8.853
 5599POPC   GL210670  39.080  11.292   8.853
 5599POPC   C1A10671  39.236  11.341   8.553
 5599POPC   D2A10672  39.254  11.316   8.253
 5599POPC   C3A10673  39.266  11.305   7.953
 5599POPC   C4A10674  39.267  11.266   7.653
 5599POPC   C1B10675  39.015  11.210   8.553
 5599POPC   C2B10676  39.045  11.224   8.253
 5599POPC   C3B10677  39.038  11.202   7.953
 5599POPC   C4B10678  39.039  11.255   7.653
 5600POPC   NC310679  18.276   2.790   9.453
 5600POPC   PO410680  18.243   2.731   9.153
 5600POPC   GL110681  18.261   2.721   8.853
 5600POPC   GL210682  18.355   2.698   8.853
 5600POPC   C1A10683  18.238   2.801   8.553
 5600POPC   D2A10684  18.241   2.755   8.253
 5600POPC   C3A10685  18.307   2.719   7.953
 5600POPC   C4A10686  18.305   2.748   7.653
 5600POPC   C1B10687  18.556   2.633   8.553
 5600POPC   C2B10688  18.511   2.683   8.253
 5600POPC   C3B10689  18.541   2.655   7.953
 5600POPC   C4B10690  18.527   2.615   7.653
 5601POPC   NC310691  25.280  17.519   9.453
 5601POPC   PO410692  25.311  17.458   9.153
 5601POPC   GL110693  25.220  17.529   8.853
 5601POPC   GL210694  25.353  17.561   8.853
 5601POPC   C1A10695  25.288  17.491   8.553
 5601POPC   D2A10696  25.232  17.543   8.253
 5601POPC   C3A10697  25.274  17.537   7.953
 5601POPC   C4A10698  25.289  17.517   7.653
 5601POPC   C1B10699  25.408  17.701   8.553
 5601POPC   C2B10700  25.463  17.731   8.253
 5601POPC   C3B10701  25.477  17.721   7.953
 5601POPC   C4B10702  25.430  17.700   7.653
 5602POPC   NC310703  27.553  39.187   9.453
 5602POPC   PO410704  27.566  39.274   9.153
 5602POPC   GL110705  27.568  39.266   8.853
 5602POPC   GL210706  27.718  39.174   8.853
 5602POPC   C1A10707  27.608  39.273   8.553
 5602POPC   D2A10708  27.611  39.223   8.253
 5602POPC   C3A10709  27.601  39.225   7.953
 5602POPC   C4A10710  27.575  39.270   7.653
 5602POPC   C1B10711  27.848  39.123   8.553
 5602POPC   C2B10712  27.840  39.046   8.253
 5602POPC   C3B10713  27.813  39.074   7.953
 5602POPC   C4B10714  27.790  39.081   7.653
 5603POPC   NC310715  33.752  20.598   9.453
 5603POPC   PO410716  33.833  20.607   9.153
 5603POPC   GL110717  33.758  20.572   8.853
 5603POPC   GL210718  33.879  20.566   8.853
 5603POPC   C1A10719  33.786  20.586   8.553
 5603POPC   D2A10720  33.796  20.589   8.253
 5603POPC   C3A10721  33.759  20.606   7.953
 5603POPC   C4A10722  33.779  20.611   7.653
 5603POPC   C1B10723  33.999  20.494   8.553
 5603POPC   C2B10724  34.082  20.555   8.253
 5603POPC   C3B10725  33.995  20.540   7.953
 5603POPC   C4B10726  33.990  20.485   7.653
 5604POPC   NC310727   1.221  43.150   9.453
 5604POPC   PO410728   1.181  43.111   9.153
 5604POPC   GL110729   1.197  43.124   8.853
 5604POPC   GL210730   1.103  43.045   8.853
 5604POPC   C1A10731   1.233  43.086   8.553
 5604POPC   D2A10732   1.179  43.147   8.253
 5604POPC   C3A10733   1.250  43.147   7.953
 5604POPC   C4A10734   1.177  43.104   7.653
 5604POPC   C1B10735   0.934  42.997   8.553
 5604POPC   C2B10736   0.997  43.045   8.253
 5604POPC   C3B10737   1.022  43.025   7.953
 5604POPC   C4B10738   0.957  42.990   7.653
 5605POPC   NC310739  11.296  19.019   9.453
 5605POPC   PO410740  11.253  19.056   9.153
 5605POPC   GL110741  11.294  19.096   8.853
 5605POPC   GL210742  11.165  19.117   8.853
 5605POPC   C1A10743  11.325  19.108   8.553
 5605POPC   D2A10744  11.269  19.044   8.253
 5605POPC   C3A10745  11.306  19.083   7.953
 5605POPC   C4A10746  11.290  19.072   7.653
 5605POPC   C1B10747  11.040  19.111   8.553
 5605POPC   C2B10748  11.040  19.126   8.253
 5605POPC   C3B10749  11.019  19.107   7.953
 5605POPC   C4B10750  11.010  19.046   7.653
 5606POPC   NC310751  26.814  32.274   9.453
 5606POPC   PO410752  26.853  32.296   9.153
 5606POPC   GL110753  26.863  32.230   8.853
 5606POPC   GL210754  26.900  32.205   8.853
 5606POPC   C1A10755  26.842  32.285   8.553
 5606POPC   D2A10756  26.832  32.251   8.253
 5606POPC   C3A10757  26.777  32.231   7.953
 5606POPC   C4A10758  26.847  32.297   7.653
 5606POPC   C1B10759  26.986  32.133   8.553
 5606POPC   C2B10760  26.997  32.130   8.253
 5606POPC   C3B10761  27.051  32.084   7.953
 5606POPC   C4B10762  27.032  32.052   7.653
 5607POPC   NC310763  36.907  30.665   9.453
 5607POPC   PO410764  36.878  30.676   9.153
 5607POPC   GL110765  36.894  30.739   8.853
 5607POPC   GL210766  36.982  30.565   8.853
 5607POPC   C1A10767  36.906  30.670   8.553
 5607POPC   D2A10768  36.913  30.736   8.253
 5607POPC   C3A10769  36.905  30.721   7.953
 5607POPC   C4A10770  36.932  30.677   7.653
 5607POPC   C1B10771  37.018  30.462   8.553
 5607POPC   C2B10772  37.078  30.473   8.253
 5607POPC   C3B10773  37.069  30.533   7.953
 5607POPC   C4B10774  37.043  30.515   7.653
 5608POPC   NC310775  40.747  39.223   9.453
 5608POPC   PO410776  40.789  39.249   9.153
 5608POPC   GL110777  40.774  39.184   8.853
 5608POPC   GL210778  40.769  39.099   8.853
 5608POPC   C1A10779  40.829  39.250   8.553
 5608POPC   D2A10780  40.771  39.232   8.253
 5608POPC   C3A10781  40.802  39.269   7.953
 5608POPC   C4A10782  40.828  39.252   7.653
 5608POPC   C1B10783  40.745  38.954   8.553
 5608POPC   C2B10784  40.740  38.991   8.253
 5608POPC   C3B10785  40.684  39.018   7.953
 5608POPC   C4B10786  40.678  39.007   7.653
 5609POPC   NC310787  23.752  33.003   9.453
 5609POPC   PO410788  23.700  32.999   9.153
 5609POPC   GL110789  23.756  32.987   8.853
 5609POPC   GL210790  23.818  33.047   8.853
 5609POPC   C1A10791  23.742  33.047   8.553
 5609POPC   D2A10792  23.730  33.017   8.253
 5609POPC   C3A10793  23.679  32.992   7.953
 5609POPC   C4A10794  23.686  32.975   7.653
 5609POPC   C1B10795  24.010  32.995   8.553
 5609POPC   C2B10796  23.977  33.042   8.253
 5609POPC   C3B10797  23.930  33.087   7.953
 5609POPC   C4B10798  23.932  33.061   7.653
 5610POPC   NC310799  33.785  34.604   9.453
 5610POPC   PO410800  33.842  34.564   9.153
 5610POPC   GL110801  33.804  34.563   8.853
 5610POPC   GL210802  33.896  34.654   8.853
 5610POPC   C1A10803  33.799  34.554   8.553
 5610POPC   D2A10804  33.812  34.533   8.253
 5610POPC   C3A10805  33.822  34.541   7.953
 5610POPC   C4A10806  33.834  34.565   7.653
 5610POPC   C1B10807  34.057  34.690   8.553
 5610POPC   C2B10808  34.001  34.681   8.253
 5610POPC   C3B10809  34.055  34.702   7.953
 5610POPC   C4B10810  34.039  34.737   7.653
 5611POPC   NC310811  12.026  15.942   9.453
 5611POPC   PO410812  12.094  15.957   9.153
 5611POPC   GL110813  12.126  15.933   8.853
 5611POPC   GL210814  12.094  15.808   8.853
 5611POPC   C1A10815  12.105  15.965   8.553
 5611POPC   D2A10816  12.104  15.981   8.253
 5611POPC   C3A10817  12.115  15.965   7.953
 5611POPC   C4A10818  12.062  15.916   7.653
 5611POPC   C1B10819  12.185  15.746   8.553
 5611POPC   C2B10820  12.100  15.761   8.253
 5611POPC   C3B10821  12.110  15.715   7.953
 5611POPC   C4B10822  12.132  15.700   7.653
 5612POPC   NC310823  38.481  40.056   9.453
 5612POPC   PO410824  38.482  40.049   9.153
 5612POPC   GL110825  38.496  40.044   8.853
 5612POPC   GL210826  38.606  40.021   8.853
 5612POPC   C1A10827  38.458  40.020   8.553
 5612POPC   D2A10828  38.443  39.978   8.253
 5612POPC   C3A10829  38.486  39.985   7.953
 5612POPC   C4A10830  38.410  39.976   7.653
 5612POPC   C1B10831  38.714  39.999   8.553
 5612POPC   C2B10832  38.681  39.978   8.253
 5612POPC   C3B10833  38.683  40.056   7.953
 5612POPC   C4B10834  38.687  40.018   7.653
 5613POPC   NC310835  22.950  29.153   9.453
 5613POPC   PO410836  22.939  29.099   9.153
 5613POPC   GL110837  22.895  29.140   8.853
 5613POPC   GL210838  23.061  29.212   8.853
 5613POPC   C1A10839  22.942  29.133   8.553
 5613POPC   D2A10840  22.922  29.097   8.253
 5613POPC   C3A10841  22.929  29.165   7.953
 5613POPC   C4A10842  22.902  29.156   7.653
 5613POPC   C1B10843  23.167  29.176   8.553
 5613POPC   C2B10844  23.162  29.197   8.253
 5613POPC   C3B10845  23.186  29.246   7.953
 5613POPC   C4B10846  23.204  29.221   7.653
 5614POPC   NC310847  39.984  21.393   9.453
 5614POPC   PO410848  39.974  21.402   9.153
 5614POPC   GL110849  40.006  21.400   8.853
 5614POPC   GL210850  39.907  21.320   8.853
 5614POPC   C1A10851  40.033  21.423   8.553
 5614POPC   D2A10852  40.041  21.419   8.253
 5614POPC   C3A10853  40.032  21.402   7.953
 5614POPC   C4A10854  40.034  21.432   7.653
 5614POPC   C1B10855  39.863  21.179   8.553
 5614POPC   C2B10856  39.885  21.178   8.253
 5614POPC   C3B10857  39.877  21.199   7.953
 5614POPC   C4B10858  39.833  21.220   7.653
 5615POPC   NC310859   7.396  44.673   9.453
 5615POPC   PO410860   7.388  44.652   9.153
 5615POPC   GL110861   7.385  44.628   8.853
 5615POPC   GL210862   7.529  44.640   8.853
 5615POPC   C1A10863   7.470  44.673   8.553
 5615POPC   D2A10864   7.392  44.653   8.253
 5615POPC   C3A10865   7.391  44.702   7.953
 5615POPC   C4A10866   7.397  44.664   7.653
 5615POPC   C1B10867   7.686  44.657   8.553
 5615POPC   C2B10868   7.622  44.604   8.253
 5615POPC   C3B10869   7.683  44.643   7.953
 5615POPC   C4B10870   7.690  44.684   7.653
 5616POPC   NC310871  10.505  24.535   9.453
 5616POPC   PO410872  10.491  24.510   9.153
 5616POPC   GL110873  10.484  24.538   8.853
 5616POPC   GL210874  10.425  24.628   8.853
 5616POPC   C1A10875  10.565  24.485   8.553
 5616POPC   D2A10876  10.500  24.450   8.253
 5616POPC   C3A10877  10.543  24.525   7.953
 5616POPC   C4A10878  10.488  24.472   7.653
 5616POPC   C1B10879  10.322  24.673   8.553
 5616POPC   C2B10880  10.404  24.691   8.253
 5616POPC   C3B10881  10.399  24.653   7.953
 5616POPC   C4B10882  10.323  24.686   7.653
 5617POPC   NC310883  30.663  15.150   9.453
 5617POPC   PO410884  30.719  15.141   9.153
 5617POPC   GL110885  30.661  15.137   8.853
 5617POPC   GL210886  30.545  15.192   8.853
 5617POPC   C1A10887  30.654  15.148   8.553
 5617POPC   D2A10888  30.726  15.209   8.253
 5617POPC   C3A10889  30.743  15.228   7.953
 5617POPC   C4A10890  30.694  15.184   7.653
 5617POPC   C1B10891  30.482  15.119   8.553
 5617POPC   C2B10892  30.449  15.096   8.253
 5617POPC   C3B10893  30.488  15.148   7.953
 5617POPC   C4B10894  30.466  15.177   7.653
 5618POPC   NC310895  12.804   8.190   9.453
 5618POPC   PO410896  12.826   8.241   9.153
 5618POPC   GL110897  12.867   8.165   8.853
 5618POPC   GL210898  12.939   8.232   8.853
 5618POPC   C1A10899  12.809   8.238   8.553
 5618POPC   D2A10900  12.806   8.206   8.253
 5618POPC   C3A10901  12.819   8.198   7.953
 5618POPC   C4A10902  12.855   8.225   7.653
 5618POPC   C1B10903  13.089   8.343   8.553
 5618POPC   C2B10904  13.009   8.389   8.253
 5618POPC   C3B10905  13.068   8.305   7.953
 5618POPC   C4B10906  13.054   8.358   7.653
 5619POPC   NC310907   7.433  38.451   9.453
 5619POPC   PO410908   7.461  38.489   9.153
 5619POPC   GL110909   7.456  38.444   8.853
 5619POPC   GL210910   7.396  38.383   8.853
 5619POPC   C1A10911   7.379  38.460   8.553
 5619POPC   D2A10912   7.389  38.447   8.253
 5619POPC   C3A10913   7.431  38.490   7.953
 5619POPC   C4A10914   7.378  38.442   7.653
 5619POPC   C1B10915   7.356  38.246   8.553
 5619POPC   C2B10916   7.314  38.243   8.253
 5619POPC   C3B10917   7.327  38.251   7.953
 5619POPC   C4B10918   7.346  38.212   7.653
 5620POPC   NC310919   3.537  39.211   9.453
 5620POPC   PO410920   3.527  39.275   9.153
 5620POPC   GL110921   3.586  39.189   8.853
 5620POPC   GL210922   3.509  39.125   8.853
 5620POPC   C1A10923   3.590  39.216   8.553
 5620POPC   D2A10924   3.576  39.214   8.253
 5620POPC   C3A10925   3.503  39.242   7.953
 5620POPC   C4A10926   3.570  39.197   7.653
 5620POPC   C1B10927   3.468  38.969   8.553
 5620POPC   C2B10928   3.438  39.042   8.253
 5620POPC   C3B10929   3.463  38.986   7.953
 5620POPC   C4B10930   3.398  38.975   7.653
 5621POPC   NC310931  39.236  39.991   9.453
 5621POPC   PO410932  39.259  39.994   9.153
 5621POPC   GL110933  39.267  40.021   8.853
 5621POPC   GL210934  39.090  39.942   8.853
 5621POPC   C1A10935  39.212  39.979   8.553
 5621POPC   D2A10936  39.191  39.958   8.253
 5621POPC   C3A10937  39.275  40.025   7.953
 5621POPC   C4A10938  39.236  39.965   7.653
 5621POPC   C1B10939  39.026  39.902   8.553
 5621POPC   C2B10940  39.027  39.856   8.253
 5621POPC   C3B10941  38.989  39.918   7.953
 5621POPC   C4B10942  39.040  39.904   7.653
 5622POPC   NC310943  40.770  40.810   9.453
 5622POPC   PO410944  40.829  40.742   9.153
 5622POPC   GL110945  40.803  40.737   8.853
 5622POPC   GL210946  40.679  40.835   8.853
 5622POPC   C1A10947  40.788  40.760   8.553
 5622POPC   D2A10948  40.777  40.737   8.253
 5622POPC   C3A10949  40.744  40.787   7.953
 5622POPC   C4A10950  40.794  40.808   7.653
 5622POPC   C1B10951  40.674  40.997   8.553
 5622POPC   C2B10952  40.595  41.023   8.253
 5622POPC   C3B10953  40.660  40.967   7.953
 5622POPC   C4B10954  40.604  40.991   7.653
 5623POPC   NC310955  29.134  18.246   9.453
 5623POPC   PO410956  29.165  18.240   9.153
 5623POPC   GL110957  29.097  18.258   8.853
 5623POPC   GL210958  29.258  18.340   8.853
 5623POPC   C1A10959  29.102  18.236   8.553
 5623POPC   D2A10960  29.156  18.233   8.253
 5623POPC   C3A10961  29.191  18.237   7.953
 5623POPC   C4A10962  29.124  18.236   7.653
 5623POPC   C1B10963  29.299  18.478   8.553
 5623POPC   C2B10964  29.347  18.441   8.253
 5623POPC   C3B10965  29.330  18.491   7.953
 5623POPC   C4B10966  29.309  18.405   7.653
 5624POPC   NC310967  22.953   8.208   9.453
 5624POPC   PO410968  22.894   8.157   9.153
 5624POPC   GL110969  22.914   8.233   8.853
 5624POPC   GL210970  22.817   8.101   8.853
 5624POPC   C1A10971  22.911   8.183   8.553
 5624POPC   D2A10972  22.922   8.202   8.253
 5624POPC   C3A10973  22.894   8.195   7.953
 5624POPC   C4A10974  22.979   8.184   7.653
 5624POPC   C1B10975  22.793   8.017   8.553
 5624POPC   C2B10976  22.701   8.007   8.253
 5624POPC   C3B10977  22.742   8.000   7.953
 5624POPC   C4B10978  22.761   8.086   7.653
 5625POPC   NC310979  37.679  32.207   9.453
 5625POPC   PO410980  37.696  32.283   9.153
 5625POPC   GL110981  37.664  32.258   8.853
 5625POPC   GL210982  37.586  32.232   8.853
 5625POPC   C1A10983  37.729  32.241   8.553
 5625POPC   D2A10984  37.631  32.265   8.253
 5625POPC   C3A10985  37.639  32.288   7.953
 5625POPC   C4A10986  37.655  32.249   7.653
 5625POPC   C1B10987  37.475  32.166   8.553
 5625POPC   C2B10988  37.432  32.112   8.253
 5625POPC   C3B10989  37.419  32.094   7.953
 5625POPC   C4B10990  37.441  32.085   7.653
 5626POPC   NC310991  14.411  12.884   9.453
 5626POPC   PO410992  14.388  12.879   9.153
 5626POPC   GL110993  14.370  12.805   8.853
 5626POPC   GL210994  14.383  12.955   8.853
 5626POPC   C1A10995  14.357  12.900   8.553
 5626POPC   D2A10996  14.377  12.855   8.253
 5626POPC   C3A10997  14.407  12.836   7.953
 5626POPC   C4A10998  14.373  12.859   7.653
 5626POPC   C1B10999  14.384  13.072   8.553
 5626POPC   C2B11000  14.376  13.082   8.253
 5626POPC   C3B11001  14.407  13.065   7.953
 5626POPC   C4B11002  14.372  13.070   7.653
 5627POPC   NC311003  38.467  44.690   9.453
 5627POPC   PO411004  38.477  44.686   9.153
 5627POPC   GL111005  38.460  44.693   8.853
 5627POPC   GL211006  38.500  44.793   8.853
 5627POPC   C1A11007  38.448  44.613   8.553
 5627POPC   D2A11008  38.499  44.655   8.253
 5627POPC   C3A11009  38.434  44.650   7.953
 5627POPC   C4A11010  38.471  44.709   7.653
 5627POPC   C1B11011  38.681  44.835   8.553
 5627POPC   C2B11012  38.601  44.801   8.253
 5627POPC   C3B11013  38.661  44.838   7.953
 5627POPC   C4B11014  38.661  44.832   7.653
 5628POPC   NC311015   2.813   7.451   9.453
 5628POPC   PO411016   2.800   7.394   9.153
 5628POPC   GL111017   2.789   7.436   8.853
 5628POPC   GL211018   2.852   7.537   8.853
 5628POPC   C1A11019   2.790   7.437   8.553
 5628POPC   D2A11020   2.723   7.448   8.253
 5628POPC   C3A11021   2.755   7.385   7.953
 5628POPC   C4A11022   2.807   7.384   7.653
 5628POPC   C1B11023   2.960   7.607   8.553
 5628POPC   C2B11024   3.005   7.588   8.253
 5628POPC   C3B11025   2.969   7.595   7.953
 5628POPC   C4B11026   2.980   7.571   7.653
 5629POPC   NC311027   8.148  14.425   9.453
 5629POPC   PO411028   8.238  14.408   9.153
 5629POPC   GL111029   8.208  14.397   8.853
 5629POPC   GL211030   8.236  14.317   8.853
 5629POPC   C1A11031   8.241  14.394   8.553
 5629POPC   D2A11032   8.211  14.446   8.253
 5629POPC   C3A11033   8.209  14.407   7.953
 5629POPC   C4A11034   8.196  14.363   7.653
 5629POPC   C1B11035   8.361  14.252   8.553
 5629POPC   C2B11036   8.324  14.260   8.253
 5629POPC   C3B11037   8.379  14.176   7.953
 5629POPC   C4B11038   8.408  14.264   7.653
 5630POPC   NC311039  39.981  41.531   9.453
 5630POPC   PO411040  40.031  41.556   9.153
 5630POPC   GL111041  40.011  41.526   8.853
 5630POPC   GL211042  39.915  41.670   8.853
 5630POPC   C1A11043  40.043  41.534   8.553
 5630POPC   D2A11044  39.967  41.587   8.253
 5630POPC   C3A11045  40.045  41.605   7.953
 5630POPC   C4A11046  40.010  41.519   7.653
 5630POPC   C1B11047  39.929  41.801   8.553
 5630POPC   C2B11048  39.945  41.822   8.253
 5630POPC   C3B11049  39.855  41.767   7.953
 5630POPC   C4B11050  39.876  41.756   7.653
 5631POPC   NC311051  31.510  26.825   9.453
 5631POPC   PO411052  31.423  26.812   9.153
 5631POPC   GL111053  31.425  26.840   8.853
 5631POPC   GL211054  31.332  26.831   8.853
 5631POPC   C1A11055  31.454  26.809   8.553
 5631POPC   D2A11056  31.472  26.864   8.253
 5631POPC   C3A11057  31.491  26.854   7.953
 5631POPC   C4A11058  31.472  26.798   7.653
 5631POPC   C1B11059  31.186  26.908   8.553
 5631POPC   C2B11060  31.276  26.908   8.253
 5631POPC   C3B11061  31.231  26.846   7.953
 5631POPC   C4B11062  31.255  26.893   7.653
 5632POPC   NC311063   7.375  12.120   9.453
 5632POPC   PO411064   7.395  12.080   9.153
 5632POPC   GL111065   7.386  12.063   8.853
 5632POPC   GL211066   7.444  12.183   8.853
 5632POPC   C1A11067   7.434  12.110   8.553
 5632POPC   D2A11068   7.425  12.124   8.253
 5632POPC   C3A11069   7.380  12.092   7.953
 5632POPC   C4A11070   7.373  12.063   7.653
 5632POPC   C1B11071   7.488  12.339   8.553
 5632POPC   C2B11072   7.462  12.356   8.253
 5632POPC   C3B11073   7.448  12.279   7.953
 5632POPC   C4B11074   7.494  12.295   7.653
 5633POPC   NC311075   5.876  30.663   9.453
 5633POPC   PO411076   5.830  30.651   9.153
 5633POPC   GL111077   5.908  30.741   8.853
 5633POPC   GL211078   5.996  30.762   8.853
 5633POPC   C1A11079   5.904  30.651   8.553
 5633POPC   D2A11080   5.917  30.673   8.253
 5633POPC   C3A11081   5.917  30.682   7.953
 5633POPC   C4A11082   5.893  30.684   7.653
 5633POPC   C1B11083   6.049  30.811   8.553
 5633POPC   C2B11084   6.056  30.781   8.253
 5633POPC   C3B11085   6.099  30.797   7.953
 5633POPC   C4B11086   6.065  30.843   7.653
 5634POPC   NC311087  26.017  28.402   9.453
 5634POPC   PO411088  26.086  28.411   9.153
 5634POPC   GL111089  26.056  28.408   8.853
 5634POPC   GL211090  25.880  28.435   8.853
 5634POPC   C1A11091  25.993  28.352   8.553
 5634POPC   D2A11092  26.019  28.376   8.253
 5634POPC   C3A11093  26.083  28.333   7.953
 5634POPC   C4A11094  26.061  28.338   7.653
 5634POPC   C1B11095  25.770  28.383   8.553
 5634POPC   C2B11096  25.810  28.433   8.253
 5634POPC   C3B11097  25.750  28.417   7.953
 5634POPC   C4B11098  25.830  28.429   7.653
 5635POPC   NC311099  23.678  25.253   9.453
 5635POPC   PO411100  23.683  25.218   9.153
 5635POPC   GL111101  23.750  25.252   8.853
 5635POPC   GL211102  23.652  25.383   8.853
 5635POPC   C1A11103  23.697  25.235   8.553
 5635POPC   D2A11104  23.741  25.284   8.253
 5635POPC   C3A11105  23.666  25.247   7.953
 5635POPC   C4A11106  23.675  25.278   7.653
 5635POPC   C1B11107  23.538  25.450   8.553
 5635POPC   C2B11108  23.536  25.417   8.253
 5635POPC   C3B11109  23.599  25.431   7.953
 5635POPC   C4B11110  23.589  25.496   7.653
 5636POPC   NC311111  27.624  18.320   9.453
 5636POPC   PO411112  27.627  18.328   9.153
 5636POPC   GL111113  27.627  18.305   8.853
 5636POPC   GL211114  27.484  18.322   8.853
 5636POPC   C1A11115  27.628  18.254   8.553
 5636POPC   D2A11116  27.641  18.326   8.253
 5636POPC   C3A11117  27.638  18.317   7.953
 5636POPC   C4A11118  27.592  18.286   7.653
 5636POPC   C1B11119  27.353  18.288   8.553
 5636POPC   C2B11120  27.391  18.264   8.253
 5636POPC   C3B11121  27.313  18.334   7.953
 5636POPC   C4B11122  27.349  18.274   7.653
 5637POPC   NC311123  22.118  12.848   9.453
 5637POPC   PO411124  22.198  12.806   9.153
 5637POPC   GL111125  22.149  12.864   8.853
 5637POPC   GL211126  22.031  12.816   8.853
 5637POPC   C1A11127  22.211  12.848   8.553
 5637POPC   D2A11128  22.150  12.824   8.253
 5637POPC   C3A11129  22.166  12.847   7.953
 5637POPC   C4A11130  22.206  12.873   7.653
 5637POPC   C1B11131  21.888  12.799   8.553
 5637POPC   C2B11132  21.913  12.824   8.253
 5637POPC   C3B11133  21.888  12.807   7.953
 5637POPC   C4B11134  21.922  12.802   7.653
 5638POPC   NC311135   0.465  32.225   9.453
 5638POPC   PO411136   0.392  32.221   9.153
 5638POPC   GL111137   0.397  32.288   8.853
 5638POPC   GL211138   0.586  32.281   8.853
 5638POPC   C1A11139   0.468  32.278   8.553
 5638POPC   D2A11140   0.393  32.209   8.253
 5638POPC   C3A11141   0.397  32.211   7.953
 5638POPC   C4A11142   0.457  32.241   7.653
 5638POPC   C1B11143   0.677  32.399   8.553
 5638POPC   C2B11144   0.622  32.393   8.253
 5638POPC   C3B11145   0.663  32.399   7.953
 5638POPC   C4B11146   0.673  32.320   7.653
 5639POPC   NC311147  26.837  15.913   9.453
 5639POPC   PO411148  26.811  15.911   9.153
 5639POPC   GL111149  26.787  16.000   8.853
 5639POPC   GL211150  26.695  15.879   8.853
 5639POPC   C1A11151  26.789  15.972   8.553
 5639POPC   D2A11152  26.846  15.946   8.253
 5639POPC   C3A11153  26.786  15.934   7.953
 5639POPC   C4A11154  26.851  15.988   7.653
 5639POPC   C1B11155  26.697  15.733   8.553
 5639POPC   C2B11156  26.685  15.776   8.253
 5639POPC   C3B11157  26.615  15.812   7.953
 5639POPC   C4B11158  26.645  15.759   7.653
 5640POPC   NC311159   9.763  21.401   9.453
 5640POPC   PO411160   9.718  21.390   9.153
 5640POPC   GL111161   9.707  21.382   8.853
 5640POPC   GL211162   9.880  21.383   8.853
 5640POPC   C1A11163   9.713  21.337   8.553
 5640POPC   D2A11164   9.772  21.371   8.253
 5640POPC   C3A11165   9.760  21.347   7.953
 5640POPC   C4A11166   9.700  21.365   7.653
 5640POPC   C1B11167  10.046  21.436   8.553
 5640POPC   C2B11168   9.973  21.401   8.253
 5640POPC   C3B11169  10.036  21.389   7.953
 5640POPC   C4B11170  10.006  21.458   7.653
 5641POPC   NC311171  23.706   4.277   9.453
 5641POPC   PO411172  23.689   4.275   9.153
 5641POPC   GL111173  23.671   4.324   8.853
 5641POPC   GL211174  23.723   4.197   8.853
 5641POPC   C1A11175  23.672   4.315   8.553
 5641POPC   D2A11176  23.731   4.333   8.253
 5641POPC   C3A11177  23.738   4.267   7.953
 5641POPC   C4A11178  23.755   4.270   7.653
 5641POPC   C1B11179  23.636   4.031   8.553
 5641POPC   C2B11180  23.696   4.028   8.253
 5641POPC   C3B11181  23.692   4.090   7.953
 5641POPC   C4B11182  23.732   4.093   7.653
 5642POPC   NC311183   9.021  39.213   9.453
 5642POPC   PO411184   8.967  39.230   9.153
 5642POPC   GL111185   8.940  39.198   8.853
 5642POPC   GL211186   8.929  39.330   8.853
 5642POPC   C1A11187   9.022  39.234   8.553
 5642POPC   D2A11188   9.014  39.202   8.253
 5642POPC   C3A11189   9.000  39.276   7.953
 5642POPC   C4A11190   8.940  39.207   7.653
 5642POPC   C1B11191   8.806  39.458   8.553
 5642POPC   C2B11192   8.781  39.397   8.253
 5642POPC   C3B11193   8.845  39.457   7.953
 5642POPC   C4B11194   8.821  39.434   7.653
 5643POPC   NC311195  30.671  16.769   9.453
 5643POPC   PO411196  30.649  16.744   9.153
 5643POPC   GL111197  30.687  16.759   8.853
 5643POPC   GL211198  30.757  16.666   8.853
 5643POPC   C1A11199  30.686  16.690   8.553
 5643POPC   D2A11200  30.656  16.733   8.253
 5643POPC   C3A11201  30.731  16.730   7.953
 5643POPC   C4A11202  30.697  16.765   7.653
 5643POPC   C1B11203  30.843  16.575   8.553
 5643POPC   C2B11204  30.909  16.588   8.253
 5643POPC   C3B11205  30.839  16.513   7.953
 5643POPC   C4B11206  30.820  16.520   7.653
 5644POPC   NC311207   8.933  19.871   9.453
 5644POPC   PO411208   8.942  19.784   9.153
 5644POPC   GL111209   8.975  19.870   8.853
 5644POPC   GL211210   9.027  19.699   8.853
 5644POPC   C1A11211   8.942  19.785   8.553
 5644POPC   D2A11212   8.935  19.852   8.253
 5644POPC   C3A11213   8.989  19.848   7.953
 5644POPC   C4A11214   8.963  19.804   7.653
 5644POPC   C1B11215   9.149  19.682   8.553
 5644POPC   C2B11216   9.111  19.695   8.253
 5644POPC   C3B11217   9.182  19.618   7.953
 5644POPC   C4B11218   9.136  19.681   7.653
 5645POPC   NC311219  22.929  26.078   9.453
 5645POPC   PO411220  22.957  26.006   9.153
 5645POPC   GL111221  22.916  26.063   8.853
 5645POPC   GL211222  23.043  26.064   8.853
 5645POPC   C1A11223  22.953  26.065   8.553
 5645POPC   D2A11224  22.977  26.028   8.253
 5645POPC   C3A11225  22.955  26.077   7.953
 5645POPC   C4A11226  22.919  26.037   7.653
 5645POPC   C1B11227  23.160  26.043   8.553
 5645POPC   C2B11228  23.222  26.123   8.253
 5645POPC   C3B11229  23.184  26.095   7.953
 5645POPC   C4B11230  23.184  26.041   7.653
 5646POPC   NC311231  31.443  32.268   9.453
 5646POPC   PO411232  31.515  32.276   9.153
 5646POPC   GL111233  31.497  32.205   8.853
 5646POPC   GL211234  31.538  32.195   8.853
 5646POPC   C1A11235  31.519  32.281   8.553
 5646POPC   D2A11236  31.452  32.235   8.253
 5646POPC   C3A11237  31.505  32.294   7.953
 5646POPC   C4A11238  31.430  32.214   7.653
 5646POPC   C1B11239  31.706  32.121   8.553
 5646POPC   C2B11240  31.627  32.065   8.253
 5646POPC   C3B11241  31.684  32.049   7.953
 5646POPC   C4B11242  31.682  32.109   7.653
 5647POPC   NC311243  18.235  34.582   9.453
 5647POPC   PO411244  18.266  34.566   9.153
 5647POPC   GL111245  18.306  34.625   8.853
 5647POPC   GL211246  18.122  34.627   8.853
 5647POPC   C1A11247  18.250  34.571   8.553
 5647POPC   D2A11248  18.243  34.591   8.253
 5647POPC   C3A11249  18.259  34.591   7.953
 5647POPC   C4A11250  18.258  34.602   7.653
 5647POPC   C1B11251  17.997  34.640   8.553
 5647POPC   C2B11252  18.005  34.638   8.253
 5647POPC   C3B11253  18.006  34.644   7.953
 5647POPC   C4B11254  18.001  34.609   7.653
 5648POPC   NC311255  14.439  31.505   9.453
 5648POPC   PO411256  14.383  31.428   9.153
 5648POPC   GL111257  14.360  31.487   8.853
 5648POPC   GL211258  14.333  31.565   8.853
 5648POPC   C1A11259  14.354  31.501   8.553
 5648POPC   D2A11260  14.366  31.451   8.253
 5648POPC   C3A11261  14.357  31.469   7.953
 5648POPC   C4A11262  14.354  31.429   7.653
 5648POPC   C1B11263  14.306  31.750   8.553
 5648POPC   C2B11264  14.361  31.687   8.253
 5648POPC   C3B11265  14.376  31.695   7.953
 5648POPC   C4B11266  14.380  31.684   7.653
 5649POPC   NC311267  44.633   3.576   9.453
 5649POPC   PO411268  44.679   3.492   9.153
 5649POPC   GL111269  44.615   3.566   8.853
 5649POPC   GL211270  44.742   3.392   8.853
 5649POPC   C1A11271  44.671   3.582   8.553
 5649POPC   D2A11272  44.683   3.569   8.253
 5649POPC   C3A11273  44.673   3.493   7.953
 5649POPC   C4A11274  44.669   3.529   7.653
 5649POPC   C1B11275  44.825   3.351   8.553
 5649POPC   C2B11276  44.747   3.323   8.253
 5649POPC   C3B11277  44.820   3.329   7.953
 5649POPC   C4B11278  44.765   3.354   7.653
 5650POPC   NC311279  36.952   4.276   9.453
 5650POPC   PO411280  36.881   4.298   9.153
 5650POPC   GL111281  36.856   4.344   8.853
 5650POPC   GL211282  36.880   4.410   8.853
 5650POPC   C1A11283  36.914   4.279   8.553
 5650POPC   D2A11284  36.900   4.311   8.253
 5650POPC   C3A11285  36.947   4.345   7.953
 5650POPC   C4A11286  36.911   4.351   7.653
 5650POPC   C1B11287  36.967   4.606   8.553
 5650POPC   C2B11288  36.930   4.573   8.253
 5650POPC   C3B11289  36.932   4.599   7.953
 5650POPC   C4B11290  36.897   4.583   7.653
 5651POPC   NC311291  13.588  29.948   9.453
 5651POPC   PO411292  13.596  29.929   9.153
 5651POPC   GL111293  13.644  29.886   8.853
 5651POPC   GL211294  13.725  29.889   8.853
 5651POPC   C1A11295  13.674  29.905   8.553
 5651POPC   D2A11296  13.608  29.900   8.253
 5651POPC   C3A11297  13.613  29.894   7.953
 5651POPC   C4A11298  13.670  29.900   7.653
 5651POPC   C1B11299  13.826  29.762   8.553
 5651POPC   C2B11300  13.852  29.831   8.253
 5651POPC   C3B11301  13.860  29.770   7.953
 5651POPC   C4B11302  13.822  29.750   7.653
 5652POPC   NC311303   6.672   0.465   9.453
 5652POPC   PO411304   6.635   0.468   9.153
 5652POPC   GL111305   6.670   0.430   8.853
 5652POPC   GL211306   6.763   0.340   8.853
 5652POPC   C1A11307   6.686   0.473   8.553
 5652POPC   D2A11308   6.650   0.472   8.253
 5652POPC   C3A11309   6.636   0.434   7.953
 5652POPC   C4A11310   6.662   0.449   7.653
 5652POPC   C1B11311   6.905   0.315   8.553
 5652POPC   C2B11312   6.825   0.287   8.253
 5652POPC   C3B11313   6.914   0.299   7.953
 5652POPC   C4B11314   6.901   0.333   7.653
 5653POPC   NC311315  33.817   8.165   9.453
 5653POPC   PO411316  33.834   8.154   9.153
 5653POPC   GL111317  33.843   8.161   8.853
 5653POPC   GL211318  33.684   8.114   8.853
 5653POPC   C1A11319  33.810   8.147   8.553
 5653POPC   D2A11320  33.760   8.205   8.253
 5653POPC   C3A11321  33.757   8.235   7.953
 5653POPC   C4A11322  33.794   8.192   7.653
 5653POPC   C1B11323  33.580   8.053   8.553
 5653POPC   C2B11324  33.584   7.972   8.253
 5653POPC   C3B11325  33.672   8.030   7.953
 5653POPC   C4B11326  33.610   7.975   7.653
 5654POPC   NC311327   9.761  19.793   9.453
 5654POPC   PO411328   9.767  19.789   9.153
 5654POPC   GL111329   9.722  19.843   8.853
 5654POPC   GL211330   9.592  19.841   8.853
 5654POPC   C1A11331   9.792  19.788   8.553
 5654POPC   D2A11332   9.722  19.793   8.253
 5654POPC   C3A11333   9.765  19.829   7.953
 5654POPC   C4A11334   9.786  19.812   7.653
 5654POPC   C1B11335   9.518  19.781   8.553
 5654POPC   C2B11336   9.481  19.839   8.253
 5654POPC   C3B11337   9.506  19.816   7.953
 5654POPC   C4B11338   9.483  19.782   7.653
 5655POPC   NC311339  37.687  12.114   9.453
 5655POPC   PO411340  37.713  12.033   9.153
 5655POPC   GL111341  37.695  12.041   8.853
 5655POPC   GL211342  37.747  12.164   8.853
 5655POPC   C1A11343  37.700  12.082   8.553
 5655POPC   D2A11344  37.650  12.081   8.253
 5655POPC   C3A11345  37.716  12.058   7.953
 5655POPC   C4A11346  37.713  12.037   7.653
 5655POPC   C1B11347  37.841  12.312   8.553
 5655POPC   C2B11348  37.774  12.266   8.253
 5655POPC   C3B11349  37.859  12.327   7.953
 5655POPC   C4B11350  37.808  12.281   7.653
 5656POPC   NC311351  27.566  19.879   9.453
 5656POPC   PO411352  27.546  19.793   9.153
 5656POPC   GL111353  27.628  19.821   8.853
 5656POPC   GL211354  27.437  19.806   8.853
 5656POPC   C1A11355  27.549  19.882   8.553
 5656POPC   D2A11356  27.605  19.798   8.253
 5656POPC   C3A11357  27.614  19.873   7.953
 5656POPC   C4A11358  27.635  19.795   7.653
 5656POPC   C1B11359  27.333  19.717   8.553
 5656POPC   C2B11360  27.350  19.726   8.253
 5656POPC   C3B11361  27.375  19.717   7.953
 5656POPC   C4B11362  27.380  19.722   7.653
 5657POPC   NC311363   0.398  15.200   9.453
 5657POPC   PO411364   0.453  15.153   9.153
 5657POPC   GL111365   0.408  15.202   8.853
 5657POPC   GL211366   0.289  15.206   8.853
 5657POPC   C1A11367   0.440  15.177   8.553
 5657POPC   D2A11368   0.449  15.180   8.253
 5657POPC   C3A11369   0.462  15.162   7.953
 5657POPC   C4A11370   0.470  15.146   7.653
 5657POPC   C1B11371   0.181  15.224   8.553
 5657POPC   C2B11372   0.248  15.302   8.253
 5657POPC   C3B11373   0.230  15.281   7.953
 5657POPC   C4B11374   0.163  15.228   7.653
 5658POPC   NC311375  22.958  43.105   9.453
 5658POPC   PO411376  22.972  43.107   9.153
 5658POPC   GL111377  22.940  43.113   8.853
 5658POPC   GL211378  22.873  43.271   8.853
 5658POPC   C1A11379  22.896  43.122   8.553
 5658POPC   D2A11380  22.953  43.144   8.253
 5658POPC   C3A11381  22.927  43.111   7.953
 5658POPC   C4A11382  22.972  43.130   7.653
 5658POPC   C1B11383  22.847  43.335   8.553
 5658POPC   C2B11384  22.870  43.397   8.253
 5658POPC   C3B11385  22.910  43.361   7.953
 5658POPC   C4B11386  22.937  43.393   7.653
 5659POPC   NC311387  37.710   0.412   9.453
 5659POPC   PO411388  37.667   0.433   9.153
 5659POPC   GL111389  37.688   0.449   8.853
 5659POPC   GL211390  37.767   0.405   8.853
 5659POPC   C1A11391  37.636   0.428   8.553
 5659POPC   D2A11392  37.705   0.403   8.253
 5659POPC   C3A11393  37.638   0.461   7.953
 5659POPC   C4A11394  37.690   0.410   7.653
 5659POPC   C1B11395  37.902   0.405   8.553
 5659POPC   C2B11396  37.962   0.328   8.253
 5659POPC   C3B11397  37.910   0.382   7.953
 5659POPC   C4B11398  37.962   0.397   7.653
 5660POPC   NC311399  22.890   2.775   9.453
 5660POPC   PO411400  22.934   2.779   9.153
 5660POPC   GL111401  22.934   2.739   8.853
 5660POPC   GL211402  22.854   2.866   8.853
 5660POPC   C1A11403  22.890   2.765   8.553
 5660POPC   D2A11404  22.987   2.785   8.253
 5660POPC   C3A11405  22.937   2.747   7.953
 5660POPC   C4A11406  22.947   2.728   7.653
 5660POPC   C1B11407  22.706   2.883   8.553
 5660POPC   C2B11408  22.750   2.827   8.253
 5660POPC   C3B11409  22.696   2.864   7.953
 5660POPC   C4B11410  22.717   2.918   7.653
 5661POPC   NC311411   1.970  34.527   9.453
 5661POPC   PO411412   2.002  34.601   9.153
 5661POPC   GL111413   2.006  34.596   8.853
 5661POPC   GL211414   1.928  34.747   8.853
 5661POPC   C1A11415   2.016  34.566   8.553
 5661POPC   D2A11416   1.997  34.535   8.253
 5661POPC   C3A11417   2.037  34.578   7.953
 5661POPC   C4A11418   2.035  34.573   7.653
 5661POPC   C1B11419   1.928  34.796   8.553
 5661POPC   C2B11420   1.942  34.839   8.253
 5661POPC   C3B11421   1.935  34.811   7.953
 5661POPC   C4B11422   1.967  34.827   7.653
 5662POPC   NC311423   2.738  22.168   9.453
 5662POPC   PO411424   2.812  22.152   9.153
 5662POPC   GL111425   2.776  22.143   8.853
 5662POPC   GL211426   2.631  22.146   8.853
 5662POPC   C1A11427   2.718  22.132   8.553
 5662POPC   D2A11428   2.809  22.173   8.253
 5662POPC   C3A11429   2.727  22.132   7.953
 5662POPC   C4A11430   2.793  22.163   7.653
 5662POPC   C1B11431   2.540  22.157   8.553
 5662POPC   C2B11432   2.479  22.166   8.253
 5662POPC   C3B11433   2.500  22.120   7.953
 5662POPC   C4B11434   2.500  22.161   7.653
 5663POPC   NC311435  24.509  12.095   9.453
 5663POPC   PO411436  24.538  12.112   9.153
 5663POPC   GL111437  24.459  12.100   8.853
 5663POPC   GL211438  24.569  12.016   8.853
 5663POPC   C1A11439  24.456  12.057   8.553
 5663POPC   D2A11440  24.507  12.039   8.253
 5663POPC   C3A11441  24.455  12.125   7.953
 5663POPC   C4A11442  24.464  12.082   7.653
 5663POPC   C1B11443  24.695  11.895   8.553
 5663POPC   C2B11444  24.691  11.930   8.253
 5663POPC   C3B11445  24.685  11.844   7.953
 5663POPC   C4B11446  24.656  11.869   7.653
 5664POPC   NC311447  18.277  33.031   9.453
 5664POPC   PO411448  18.278  33.018   9.153
 5664POPC   GL111449  18.297  33.066   8.853
 5664POPC   GL211450  18.368  32.896   8.853
 5664POPC   C1A11451  18.244  33.037   8.553
 5664POPC   D2A11452  18.252  33.019   8.253
 5664POPC   C3A11453  18.251  32.990   7.953
 5664POPC   C4A11454  18.319  33.029   7.653
 5664POPC   C1B11455  18.506  32.881   8.553
 5664POPC   C2B11456  18.423  32.893   8.253
 5664POPC   C3B11457  18.491  32.846   7.953
 5664POPC   C4B11458  18.492  32.864   7.653
 5665POPC   NC311459  41.512  41.601   9.453
 5665POPC   PO411460  41.561  41.597   9.153
 5665POPC   GL111461  41.588  41.514   8.853
 5665POPC   GL211462  41.695  41.495   8.853
 5665POPC   C1A11463  41.530  41.529   8.553
 5665POPC   D2A11464  41.523  41.510   8.253
 5665POPC   C3A11465  41.510  41.605   7.953
 5665POPC   C4A11466  41.593  41.578   7.653
 5665POPC   C1B11467  41.788  41.506   8.553
 5665POPC   C2B11468  41.815  41.531   8.253
 5665POPC   C3B11469  41.801  41.496   7.953
 5665POPC   C4B11470  41.843  41.515   7.653
 5666POPC   NC311471   1.198  43.907   9.453
 5666POPC   PO411472   1.199  43.858   9.153
 5666POPC   GL111473   1.246  43.887   8.853
 5666POPC   GL211474   1.139  43.744   8.853
 5666POPC   C1A11475   1.200  43.929   8.553
 5666POPC   D2A11476   1.240  43.844   8.253
 5666POPC   C3A11477   1.254  43.897   7.953
 5666POPC   C4A11478   1.189  43.848   7.653
 5666POPC   C1B11479   1.140  43.641   8.553
 5666POPC   C2B11480   1.144  43.676   8.253
 5666POPC   C3B11481   1.174  43.659   7.953
 5666POPC   C4B11482   1.116  43.627   7.653
 5667POPC   NC311483   5.123  38.417   9.453
 5667POPC   PO411484   5.069  38.482   9.153
 5667POPC   GL111485   5.117  38.501   8.853
 5667POPC   GL211486   5.177  38.562   8.853
 5667POPC   C1A11487   5.067  38.420   8.553
 5667POPC   D2A11488   5.124  38.449   8.253
 5667POPC   C3A11489   5.055  38.451   7.953
 5667POPC   C4A11490   5.077  38.443   7.653
 5667POPC   C1B11491   5.275  38.583   8.553
 5667POPC   C2B11492   5.298  38.649   8.253
 5667POPC   C3B11493   5.311  38.619   7.953
 5667POPC   C4B11494   5.301  38.655   7.653
 5668POPC   NC311495  15.179   1.218   9.453
 5668POPC   PO411496  15.225   1.177   9.153
 5668POPC   GL111497  15.158   1.171   8.853
 5668POPC   GL211498  15.163   1.065   8.853
 5668POPC   C1A11499  15.187   1.260   8.553
 5668POPC   D2A11500  15.209   1.207   8.253
 5668POPC   C3A11501  15.153   1.194   7.953
 5668POPC   C4A11502  15.165   1.184   7.653
 5668POPC   C1B11503  15.236   0.996   8.553
 5668POPC   C2B11504  15.185   0.963   8.253
 5668POPC   C3B11505  15.241   0.994   7.953
 5668POPC   C4B11506  15.194   0.949   7.653
 5669POPC   NC311507   5.914   2.765   9.453
 5669POPC   PO411508   5.838   2.736   9.153
 5669POPC   GL111509   5.903   2.753   8.853
 5669POPC   GL211510   6.027   2.719   8.853
 5669POPC   C1A11511   5.913   2.773   8.553
 5669POPC   D2A11512   5.908   2.787   8.253
 5669POPC   C3A11513   5.874   2.756   7.953
 5669POPC   C4A11514   5.847   2.732   7.653
 5669POPC   C1B11515   6.107   2.695   8.553
 5669POPC   C2B11516   6.100   2.689   8.253
 5669POPC   C3B11517   6.144   2.655   7.953
 5669POPC   C4B11518   6.092   2.718   7.653
 5670POPC   NC311519  39.189  35.341   9.453
 5670POPC   PO411520  39.202  35.400   9.153
 5670POPC   GL111521  39.185  35.351   8.853
 5670POPC   GL211522  39.334  35.280   8.853
 5670POPC   C1A11523  39.211  35.400   8.553
 5670POPC   D2A11524  39.250  35.323   8.253
 5670POPC   C3A11525  39.229  35.329   7.953
 5670POPC   C4A11526  39.271  35.331   7.653
 5670POPC   C1B11527  39.491  35.331   8.553
 5670POPC   C2B11528  39.443  35.277   8.253
 5670POPC   C3B11529  39.479  35.309   7.953
 5670POPC   C4B11530  39.491  35.313   7.653
 5671POPC   NC311531  25.226  26.827   9.453
 5671POPC   PO411532  25.237  26.771   9.153
 5671POPC   GL111533  25.223  26.853   8.853
 5671POPC   GL211534  25.365  26.795   8.853
 5671POPC   C1A11535  25.272  26.793   8.553
 5671POPC   D2A11536  25.287  26.798   8.253
 5671POPC   C3A11537  25.262  26.844   7.953
 5671POPC   C4A11538  25.248  26.802   7.653
 5671POPC   C1B11539  25.560  26.874   8.553
 5671POPC   C2B11540  25.515  26.859   8.253
 5671POPC   C3B11541  25.495  26.878   7.953
 5671POPC   C4B11542  25.538  26.843   7.653
 5672POPC   NC311543  11.346   8.969   9.453
 5672POPC   PO411544  11.290   8.968   9.153
 5672POPC   GL111545  11.250   9.012   8.853
 5672POPC   GL211546  11.277   8.820   8.853
 5672POPC   C1A11547  11.289   8.987   8.553
 5672POPC   D2A11548  11.305   8.977   8.253
 5672POPC   C3A11549  11.294   8.974   7.953
 5672POPC   C4A11550  11.342   9.001   7.653
 5672POPC   C1B11551  11.195   8.715   8.553
 5672POPC   C2B11552  11.198   8.729   8.253
 5672POPC   C3B11553  11.253   8.741   7.953
 5672POPC   C4B11554  11.204   8.693   7.653
 5673POPC   NC311555  38.475  42.370   9.453
 5673POPC   PO411556  38.456  42.372   9.153
 5673POPC   GL111557  38.462  42.312   8.853
 5673POPC   GL211558  38.380  42.276   8.853
 5673POPC   C1A11559  38.475  42.372   8.553
 5673POPC   D2A11560  38.430  42.304   8.253
 5673POPC   C3A11561  38.428  42.368   7.953
 5673POPC   C4A11562  38.431  42.291   7.653
 5673POPC   C1B11563  38.182  42.252   8.553
 5673POPC   C2B11564  38.258  42.328   8.253
 5673POPC   C3B11565  38.169  42.310   7.953
 5673POPC   C4B11566  38.172  42.304   7.653
 5674POPC   NC311567  33.030  21.420   9.453
 5674POPC   PO411568  33.030  21.404   9.153
 5674POPC   GL111569  33.031  21.350   8.853
 5674POPC   GL211570  32.983  21.307   8.853
 5674POPC   C1A11571  33.013  21.407   8.553
 5674POPC   D2A11572  33.055  21.422   8.253
 5674POPC   C3A11573  33.002  21.428   7.953
 5674POPC   C4A11574  33.063  21.376   7.653
 5674POPC   C1B11575  32.854  21.216   8.553
 5674POPC   C2B11576  32.847  21.182   8.253
 5674POPC   C3B11577  32.894  21.189   7.953
 5674POPC   C4B11578  32.849  21.179   7.653
 5675POPC   NC311579  38.478  24.534   9.453
 5675POPC   PO411580  38.489  24.479   9.153
 5675POPC   GL111581  38.405  24.530   8.853
 5675POPC   GL211582  38.516  24.436   8.853
 5675POPC   C1A11583  38.439  24.509   8.553
 5675POPC   D2A11584  38.408  24.455   8.253
 5675POPC   C3A11585  38.419  24.538   7.953
 5675POPC   C4A11586  38.433  24.472   7.653
 5675POPC   C1B11587  38.616  24.253   8.553
 5675POPC   C2B11588  38.614  24.258   8.253
 5675POPC   C3B11589  38.615  24.262   7.953
 5675POPC   C4B11590  38.571  24.243   7.653
 5676POPC   NC311591  22.987  38.421   9.453
 5676POPC   PO411592  22.894  38.502   9.153
 5676POPC   GL111593  22.970  38.442   8.853
 5676POPC   GL211594  22.894  38.533   8.853
 5676POPC   C1A11595  22.971  38.461   8.553
 5676POPC   D2A11596  22.919  38.453   8.253
 5676POPC   C3A11597  22.967  38.451   7.953
 5676POPC   C4A11598  22.906  38.433   7.653
 5676POPC   C1B11599  22.859  38.669   8.553
 5676POPC   C2B11600  22.882  38.682   8.253
 5676POPC   C3B11601  22.817  38.670   7.953
 5676POPC   C4B11602  22.819  38.686   7.653
 5677POPC   NC311603  41.549  29.960   9.453
 5677POPC   PO411604  41.598  29.958   9.153
 5677POPC   GL111605  41.518  29.880   8.853
 5677POPC   GL211606  41.466  29.933   8.853
 5677POPC   C1A11607  41.558  29.969   8.553
 5677POPC   D2A11608  41.534  29.904   8.253
 5677POPC   C3A11609  41.579  29.965   7.953
 5677POPC   C4A11610  41.596  29.881   7.653
 5677POPC   C1B11611  41.268  29.947   8.553
 5677POPC   C2B11612  41.337  29.877   8.253
 5677POPC   C3B11613  41.282  29.915   7.953
 5677POPC   C4B11614  41.282  29.943   7.653
 5678POPC   NC311615  13.633  14.406   9.453
 5678POPC   PO411616  13.663  14.387   9.153
 5678POPC   GL111617  13.629  14.409   8.853
 5678POPC   GL211618  13.788  14.340   8.853
 5678POPC   C1A11619  13.651  14.369   8.553
 5678POPC   D2A11620  13.673  14.395   8.253
 5678POPC   C3A11621  13.633  14.400   7.953
 5678POPC   C4A11622  13.601  14.433   7.653
 5678POPC   C1B11623  13.868  14.392   8.553
 5678POPC   C2B11624  13.894  14.383   8.253
 5678POPC   C3B11625  13.881  14.365   7.953
 5678POPC   C4B11626  13.845  14.390   7.653
 5679POPC   NC311627  19.020  23.741   9.453
 5679POPC   PO411628  19.020  23.745   9.153
 5679POPC   GL111629  19.064  23.695   8.853
 5679POPC   GL211630  19.062  23.557   8.853
 5679POPC   C1A11631  19.097  23.720   8.553
 5679POPC   D2A11632  19.107  23.724   8.253
 5679POPC   C3A11633  19.040  23.672   7.953
 5679POPC   C4A11634  19.042  23.735   7.653
 5679POPC   C1B11635  19.042  23.475   8.553
 5679POPC   C2B11636  19.056  23.511   8.253
 5679POPC   C3B11637  18.996  23.426   7.953
 5679POPC   C4B11638  18.996  23.482   7.653
 5680POPC   NC311639   3.529   0.475   9.453
 5680POPC   PO411640   3.557   0.423   9.153
 5680POPC   GL111641   3.536   0.456   8.853
 5680POPC   GL211642   3.575   0.332   8.853
 5680POPC   C1A11643   3.521   0.453   8.553
 5680POPC   D2A11644   3.497   0.415   8.253
 5680POPC   C3A11645   3.525   0.431   7.953
 5680POPC   C4A11646   3.494   0.479   7.653
 5680POPC   C1B11647   3.696   0.198   8.553
 5680POPC   C2B11648   3.706   0.227   8.253
 5680POPC   C3B11649   3.655   0.228   7.953
 5680POPC   C4B11650   3.667   0.199   7.653
 5681POPC   NC311651  30.651  13.674   9.453
 5681POPC   PO411652  30.720  13.590   9.153
 5681POPC   GL111653  30.658  13.629   8.853
 5681POPC   GL211654  30.602  13.546   8.853
 5681POPC   C1A11655  30.726  13.583   8.553
 5681POPC   D2A11656  30.701  13.596   8.253
 5681POPC   C3A11657  30.703  13.633   7.953
 5681POPC   C4A11658  30.741  13.618   7.653
 5681POPC   C1B11659  30.482  13.475   8.553
 5681POPC   C2B11660  30.488  13.472   8.253
 5681POPC   C3B11661  30.480  13.493   7.953
 5681POPC   C4B11662  30.527  13.464   7.653
 5682POPC   NC311663  12.841  26.081   9.453
 5682POPC   PO411664  12.873  26.033   9.153
 5682POPC   GL111665  12.858  26.072   8.853
 5682POPC   GL211666  12.987  26.086   8.853
 5682POPC   C1A11667  12.899  26.073   8.553
 5682POPC   D2A11668  12.864  26.061   8.253
 5682POPC   C3A11669  12.827  26.072   7.953
 5682POPC   C4A11670  12.899  26.008   7.653
 5682POPC   C1B11671  13.119  26.082   8.553
 5682POPC   C2B11672  13.127  26.073   8.253
 5682POPC   C3B11673  13.067  26.003   7.953
 5682POPC   C4B11674  13.134  26.091   7.653
 5683POPC   NC311675  16.750  26.772   9.453
 5683POPC   PO411676  16.718  26.774   9.153
 5683POPC   GL111677  16.742  26.818   8.853
 5683POPC   GL211678  16.806  26.929   8.853
 5683POPC   C1A11679  16.723  26.850   8.553
 5683POPC   D2A11680  16.756  26.835   8.253
 5683POPC   C3A11681  16.726  26.789   7.953
 5683POPC   C4A11682  16.759  26.813   7.653
 5683POPC   C1B11683  16.903  27.007   8.553
 5683POPC   C2B11684  16.900  26.930   8.253
 5683POPC   C3B11685  16.957  27.013   7.953
 5683POPC   C4B11686  16.936  26.991   7.653
 5684POPC   NC311687  19.797  28.339   9.453
 5684POPC   PO411688  19.883  28.353   9.153
 5684POPC   GL111689  19.825  28.387   8.853
 5684POPC   GL211690  19.953  28.421   8.853
 5684POPC   C1A11691  19.810  28.320   8.553
 5684POPC   D2A11692  19.849  28.345   8.253
 5684POPC   C3A11693  19.875  28.399   7.953
 5684POPC   C4A11694  19.829  28.323   7.653
 5684POPC   C1B11695  20.098  28.465   8.553
 5684POPC   C2B11696  20.055  28.410   8.253
 5684POPC   C3B11697  20.061  28.400   7.953
 5684POPC   C4B11698  20.036  28.400   7.653
 5685POPC   NC311699  38.482  27.636   9.453
 5685POPC   PO411700  38.488  27.624   9.153
 5685POPC   GL111701  38.484  27.621   8.853
 5685POPC   GL211702  38.313  27.580   8.853
 5685POPC   C1A11703  38.475  27.643   8.553
 5685POPC   D2A11704  38.460  27.615   8.253
 5685POPC   C3A11705  38.425  27.623   7.953
 5685POPC   C4A11706  38.460  27.544   7.653
 5685POPC   C1B11707  38.212  27.584   8.553
 5685POPC   C2B11708  38.174  27.590   8.253
 5685POPC   C3B11709  38.190  27.603   7.953
 5685POPC   C4B11710  38.210  27.574   7.653
 5686POPC   NC311711  22.179   2.760   9.453
 5686POPC   PO411712  22.184   2.770   9.153
 5686POPC   GL111713  22.209   2.769   8.853
 5686POPC   GL211714  22.199   2.880   8.853
 5686POPC   C1A11715  22.140   2.748   8.553
 5686POPC   D2A11716  22.142   2.772   8.253
 5686POPC   C3A11717  22.206   2.730   7.953
 5686POPC   C4A11718  22.157   2.732   7.653
 5686POPC   C1B11719  22.189   3.059   8.553
 5686POPC   C2B11720  22.178   3.009   8.253
 5686POPC   C3B11721  22.184   3.003   7.953
 5686POPC   C4B11722  22.157   3.045   7.653
 5687POPC   NC311723  38.431  11.291   9.453
 5687POPC   PO411724  38.444  11.295   9.153
 5687POPC   GL111725  38.470  11.275   8.853
 5687POPC   GL211726  38.383  11.342   8.853
 5687POPC   C1A11727  38.478  11.254   8.553
 5687POPC   D2A11728  38.502  11.341   8.253
 5687POPC   C3A11729  38.412  11.289   7.953
 5687POPC   C4A11730  38.432  11.259   7.653
 5687POPC   C1B11731  38.252  11.414   8.553
 5687POPC   C2B11732  38.289  11.413   8.253
 5687POPC   C3B11733  38.254  11.464   7.953
 5687POPC   C4B11734  38.270  11.401   7.653
 5688POPC   NC311735  29.164  43.134   9.453
 5688POPC   PO411736  29.139  43.115   9.153
 5688POPC   GL111737  29.158  43.102   8.853
 5688POPC   GL211738  29.079  43.256   8.853
 5688POPC   C1A11739  29.169  43.096   8.553
 5688POPC   D2A11740  29.137  43.092   8.253
 5688POPC   C3A11741  29.173  43.077   7.953
 5688POPC   C4A11742  29.127  43.133   7.653
 5688POPC   C1B11743  29.002  43.354   8.553
 5688POPC   C2B11744  28.986  43.305   8.253
 5688POPC   C3B11745  28.967  43.273   7.953
 5688POPC   C4B11746  28.988  43.319   7.653
 5689POPC   NC311747  32.267  32.261   9.453
 5689POPC   PO411748  32.210  32.272   9.153
 5689POPC   GL111749  32.248  32.266   8.853
 5689POPC   GL211750  32.190  32.374   8.853
 5689POPC   C1A11751  32.274  32.278   8.553
 5689POPC   D2A11752  32.275  32.230   8.253
 5689POPC   C3A11753  32.257  32.289   7.953
 5689POPC   C4A11754  32.207  32.203   7.653
 5689POPC   C1B11755  32.088  32.377   8.553
 5689POPC   C2B11756  32.093  32.459   8.253
 5689POPC   C3B11757  32.077  32.383   7.953
 5689POPC   C4B11758  32.020  32.422   7.653
 5690POPC   NC311759  12.093  25.218   9.453
 5690POPC   PO411760  12.090  25.217   9.153
 5690POPC   GL111761  12.097  25.278   8.853
 5690POPC   GL211762  12.184  25.238   8.853
 5690POPC   C1A11763  12.063  25.226   8.553
 5690POPC   D2A11764  12.083  25.285   8.253
 5690POPC   C3A11765  12.068  25.308   7.953
 5690POPC   C4A11766  12.083  25.278   7.653
 5690POPC   C1B11767  12.302  25.289   8.553
 5690POPC   C2B11768  12.345  25.280   8.253
 5690POPC   C3B11769  12.373  25.262   7.953
 5690POPC   C4B11770  12.300  25.278   7.653
 5691POPC   NC311771  36.088   6.669   9.453
 5691POPC   PO411772  36.091   6.672   9.153
 5691POPC   GL111773  36.125   6.681   8.853
 5691POPC   GL211774  36.012   6.624   8.853
 5691POPC   C1A11775  36.177   6.676   8.553
 5691POPC   D2A11776  36.124   6.599   8.253
 5691POPC   C3A11777  36.085   6.615   7.953
 5691POPC   C4A11778  36.094   6.612   7.653
 5691POPC   C1B11779  35.858   6.638   8.553
 5691POPC   C2B11780  35.875   6.593   8.253
 5691POPC   C3B11781  35.886   6.662   7.953
 5691POPC   C4B11782  35.864   6.619   7.653
 5692POPC   NC311783  16.778  23.709   9.453
 5692POPC   PO411784  16.746  23.690   9.153
 5692POPC   GL111785  16.713  23.714   8.853
 5692POPC   GL211786  16.663  23.619   8.853
 5692POPC   C1A11787  16.691  23.709   8.553
 5692POPC   D2A11788  16.719  23.741   8.253
 5692POPC   C3A11789  16.733  23.667   7.953
 5692POPC   C4A11790  16.715  23.745   7.653
 5692POPC   C1B11791  16.670  23.503   8.553
 5692POPC   C2B11792  16.630  23.488   8.253
 5692POPC   C3B11793  16.643  23.464   7.953
 5692POPC   C4B11794  16.697  23.520   7.653
 5693POPC   NC311795   1.182  22.187   9.453
 5693POPC   PO411796   1.172  22.174   9.153
 5693POPC   GL111797   1.165  22.209   8.853
 5693POPC   GL211798   1.097  22.106   8.853
 5693POPC   C1A11799   1.214  22.160   8.553
 5693POPC   D2A11800   1.245  22.157   8.253
 5693POPC   C3A11801   1.201  22.119   7.953
 5693POPC   C4A11802   1.191  22.163   7.653
 5693POPC   C1B11803   1.064  21.935   8.553
 5693POPC   C2B11804   1.013  21.936   8.253
 5693POPC   C3B11805   1.056  21.959   7.953
 5693POPC   C4B11806   1.047  21.948   7.653
 5694POPC   NC311807   9.736   8.191   9.453
 5694POPC   PO411808   9.795   8.184   9.153
 5694POPC   GL111809   9.705   8.180   8.853
 5694POPC   GL211810   9.868   8.174   8.853
 5694POPC   C1A11811   9.761   8.184   8.553
 5694POPC   D2A11812   9.784   8.202   8.253
 5694POPC   C3A11813   9.738   8.205   7.953
 5694POPC   C4A11814   9.767   8.184   7.653
 5694POPC   C1B11815   9.999   8.208   8.553
 5694POPC   C2B11816  10.024   8.287   8.253
 5694POPC   C3B11817   9.980   8.274   7.953
 5694POPC   C4B11818   9.973   8.209   7.653
 5695POPC   NC311819   5.063   5.064   9.453
 5695POPC   PO411820   5.098   5.122   9.153
 5695POPC   GL111821   5.135   5.071   8.853
 5695POPC   GL211822   5.001   5.174   8.853
 5695POPC   C1A11823   5.063   5.045   8.553
 5695POPC   D2A11824   5.142   5.109   8.253
 5695POPC   C3A11825   5.101   5.088   7.953
 5695POPC   C4A11826   5.123   5.087   7.653
 5695POPC   C1B11827   4.943   5.260   8.553
 5695POPC   C2B11828   4.848   5.285   8.253
 5695POPC   C3B11829   4.878   5.239   7.953
 5695POPC   C4B11830   4.916   5.293   7.653
 5696POPC   NC311831  22.182  29.936   9.453
 5696POPC   PO411832  22.178  29.961   9.153
 5696POPC   GL111833  22.137  29.876   8.853
 5696POPC   GL211834  22.076  30.057   8.853
 5696POPC   C1A11835  22.150  29.962   8.553
 5696POPC   D2A11836  22.182  29.952   8.253
 5696POPC   C3A11837  22.164  29.962   7.953
 5696POPC   C4A11838  22.130  29.915   7.653
 5696POPC   C1B11839  22.032  30.073   8.553
 5696POPC   C2B11840  22.023  30.053   8.253
 5696POPC   C3B11841  22.012  30.144   7.953
 5696POPC   C4B11842  22.000  30.086   7.653
 5697POPC   NC311843  44.691  35.321   9.453
 5697POPC   PO411844  44.708  35.334   9.153
 5697POPC   GL111845  44.710  35.371   8.853
 5697POPC   GL211846  44.697  35.212   8.853
 5697POPC   C1A11847  44.632  35.364   8.553
 5697POPC   D2A11848  44.692  35.325   8.253
 5697POPC   C3A11849  44.704  35.328   7.953
 5697POPC   C4A11850  44.619  35.302   7.653
 5697POPC   C1B11851  44.699  35.106   8.553
 5697POPC   C2B11852  44.629  35.063   8.253
 5697POPC   C3B11853  44.658  35.080   7.953
 5697POPC   C4B11854  44.703  35.057   7.653
 5698POPC   NC311855  42.320  39.276   9.453
 5698POPC   PO411856  42.327  39.257   9.153
 5698POPC   GL111857  42.330  39.260   8.853
 5698POPC   GL211858  42.270  39.309   8.853
 5698POPC   C1A11859  42.331  39.268   8.553
 5698POPC   D2A11860  42.353  39.182   8.253
 5698POPC   C3A11861  42.291  39.240   7.953
 5698POPC   C4A11862  42.382  39.212   7.653
 5698POPC   C1B11863  42.191  39.418   8.553
 5698POPC   C2B11864  42.182  39.414   8.253
 5698POPC   C3B11865  42.249  39.469   7.953
 5698POPC   C4B11866  42.229  39.492   7.653
 5699POPC   NC311867  38.449  13.586   9.453
 5699POPC   PO411868  38.408  13.583   9.153
 5699POPC   GL111869  38.433  13.639   8.853
 5699POPC   GL211870  38.599  13.558   8.853
 5699POPC   C1A11871  38.434  13.670   8.553
 5699POPC   D2A11872  38.448  13.643   8.253
 5699POPC   C3A11873  38.466  13.646   7.953
 5699POPC   C4A11874  38.482  13.584   7.653
 5699POPC   C1B11875  38.620  13.461   8.553
 5699POPC   C2B11876  38.663  13.524   8.253
 5699POPC   C3B11877  38.626  13.447   7.953
 5699POPC   C4B11878  38.618  13.460   7.653
 5700POPC   NC311879  21.418  13.614   9.453
 5700POPC   PO411880  21.425  13.583   9.153
 5700POPC   GL111881  21.401  13.617   8.853
 5700POPC   GL211882  21.321  13.742   8.853
 5700POPC   C1A11883  21.339  13.581   8.553
 5700POPC   D2A11884  21.346  13.654   8.253
 5700POPC   C3A11885  21.371  13.623   7.953
 5700POPC   C4A11886  21.360  13.618   7.653
 5700POPC   C1B11887  21.257  13.856   8.553
 5700POPC   C2B11888  21.225  13.835   8.253
 5700POPC   C3B11889  21.189  13.788   7.953
 5700POPC   C4B11890  21.277  13.837   7.653
 5701POPC   NC311891  42.371  24.485   9.453
 5701POPC   PO411892  42.307  24.456   9.153
 5701POPC   GL111893  42.317  24.492   8.853
 5701POPC   GL211894  42.454  24.366   8.853
 5701POPC   C1A11895  42.369  24.463   8.553
 5701POPC   D2A11896  42.288  24.504   8.253
 5701POPC   C3A11897  42.372  24.472   7.953
 5701POPC   C4A11898  42.304  24.449   7.653
 5701POPC   C1B11899  42.489  24.290   8.553
 5701POPC   C2B11900  42.482  24.288   8.253
 5701POPC   C3B11901  42.477  24.271   7.953
 5701POPC   C4B11902  42.461  24.281   7.653
 5702POPC   NC311903  34.587  27.605   9.453
 5702POPC   PO411904  34.619  27.549   9.153
 5702POPC   GL111905  34.529  27.618   8.853
 5702POPC   GL211906  34.477  27.646   8.853
 5702POPC   C1A11907  34.616  27.634   8.553
 5702POPC   D2A11908  34.560  27.643   8.253
 5702POPC   C3A11909  34.573  27.572   7.953
 5702POPC   C4A11910  34.547  27.554   7.653
 5702POPC   C1B11911  34.366  27.718   8.553
 5702POPC   C2B11912  34.336  27.672   8.253
 5702POPC   C3B11913  34.374  27.690   7.953
 5702POPC   C4B11914  34.353  27.636   7.653
 5703POPC   NC311915  39.201  22.944   9.453
 5703POPC   PO411916  39.247  22.962   9.153
 5703POPC   GL111917  39.189  22.925   8.853
 5703POPC   GL211918  39.121  22.914   8.853
 5703POPC   C1A11919  39.280  22.924   8.553
 5703POPC   D2A11920  39.191  22.895   8.253
 5703POPC   C3A11921  39.222  22.976   7.953
 5703POPC   C4A11922  39.248  22.940   7.653
 5703POPC   C1B11923  39.028  22.946   8.553
 5703POPC   C2B11924  39.020  22.880   8.253
 5703POPC   C3B11925  38.994  22.945   7.953
 5703POPC   C4B11926  39.013  22.892   7.653
 5704POPC   NC311927  23.739  41.518   9.453
 5704POPC   PO411928  23.740  41.594   9.153
 5704POPC   GL111929  23.755  41.531   8.853
 5704POPC   GL211930  23.604  41.589   8.853
 5704POPC   C1A11931  23.687  41.561   8.553
 5704POPC   D2A11932  23.726  41.607   8.253
 5704POPC   C3A11933  23.743  41.535   7.953
 5704POPC   C4A11934  23.710  41.524   7.653
 5704POPC   C1B11935  23.449  41.677   8.553
 5704POPC   C2B11936  23.492  41.641   8.253
 5704POPC   C3B11937  23.474  41.689   7.953
 5704POPC   C4B11938  23.460  41.692   7.653
 5705POPC   NC311939   0.437  21.383   9.453
 5705POPC   PO411940   0.456  21.382   9.153
 5705POPC   GL111941   0.439  21.341   8.853
 5705POPC   GL211942   0.441  21.293   8.853
 5705POPC   C1A11943   0.469  21.338   8.553
 5705POPC   D2A11944   0.434  21.425   8.253
 5705POPC   C3A11945   0.487  21.357   7.953
 5705POPC   C4A11946   0.420  21.404   7.653
 5705POPC   C1B11947   0.356  21.176   8.553
 5705POPC   C2B11948   0.369  21.152   8.253
 5705POPC   C3B11949   0.386  21.156   7.953
 5705POPC   C4B11950   0.354  21.164   7.653
 5706POPC   NC311951  31.493  33.800   9.453
 5706POPC   PO411952  31.442  33.759   9.153
 5706POPC   GL111953  31.509  33.827   8.853
 5706POPC   GL211954  31.574  33.774   8.853
 5706POPC   C1A11955  31.441  33.822   8.553
 5706POPC   D2A11956  31.484  33.750   8.253
 5706POPC   C3A11957  31.469  33.797   7.953
 5706POPC   C4A11958  31.432  33.774   7.653
 5706POPC   C1B11959  31.728  33.715   8.553
 5706POPC   C2B11960  31.760  33.761   8.253
 5706POPC   C3B11961  31.707  33.728   7.953
 5706POPC   C4B11962  31.672  33.778   7.653
 5707POPC   NC311963  30.655  29.096   9.453
 5707POPC   PO411964  30.715  29.139   9.153
 5707POPC   GL111965  30.677  29.136   8.853
 5707POPC   GL211966  30.729  29.199   8.853
 5707POPC   C1A11967  30.694  29.149   8.553
 5707POPC   D2A11968  30.668  29.097   8.253
 5707POPC   C3A11969  30.734  29.127   7.953
 5707POPC   C4A11970  30.686  29.127   7.653
 5707POPC   C1B11971  30.886  29.385   8.553
 5707POPC   C2B11972  30.886  29.363   8.253
 5707POPC   C3B11973  30.810  29.356   7.953
 5707POPC   C4B11974  30.859  29.375   7.653
 5708POPC   NC311975  23.673  11.273   9.453
 5708POPC   PO411976  23.706  11.276   9.153
 5708POPC   GL111977  23.714  11.280   8.853
 5708POPC   GL211978  23.800  11.295   8.853
 5708POPC   C1A11979  23.717  11.279   8.553
 5708POPC   D2A11980  23.735  11.265   8.253
 5708POPC   C3A11981  23.760  11.296   7.953
 5708POPC   C4A11982  23.735  11.270   7.653
 5708POPC   C1B11983  23.955  11.355   8.553
 5708POPC   C2B11984  23.976  11.409   8.253
 5708POPC   C3B11985  23.916  11.347   7.953
 5708POPC   C4B11986  23.957  11.377   7.653
 5709POPC   NC311987  35.307  22.155   9.453
 5709POPC   PO411988  35.338  22.199   9.153
 5709POPC   GL111989  35.367  22.133   8.853
 5709POPC   GL211990  35.417  22.262   8.853
 5709POPC   C1A11991  35.393  22.148   8.553
 5709POPC   D2A11992  35.305  22.121   8.253
 5709POPC   C3A11993  35.331  22.183   7.953
 5709POPC   C4A11994  35.356  22.188   7.653
 5709POPC   C1B11995  35.432  22.445   8.553
 5709POPC   C2B11996  35.410  22.356   8.253
 5709POPC   C3B11997  35.431  22.417   7.953
 5709POPC   C4B11998  35.437  22.365   7.653
 5710POPC   NC311999  32.229   8.991   9.453
 5710POPC   PO412000  32.200   8.925   9.153
 5710POPC   GL112001  32.274   8.984   8.853
 5710POPC   GL212002  32.330   8.825   8.853
 5710POPC   C1A12003  32.213   9.013   8.553
 5710POPC   D2A12004  32.206   8.993   8.253
 5710POPC   C3A12005  32.270   8.955   7.953
 5710POPC   C4A12006  32.245   8.952   7.653
 5710POPC   C1B12007  32.340   8.800   8.553
 5710POPC   C2B12008  32.371   8.751   8.253
 5710POPC   C3B12009  32.335   8.793   7.953
 5710POPC   C4B12010  32.428   8.800   7.653
 5711POPC   NC312011   8.187  28.408   9.453
 5711POPC   PO412012   8.186  28.342   9.153
 5711POPC   GL112013   8.185  28.366   8.853
 5711POPC   GL212014   8.213  28.223   8.853
 5711POPC   C1A12015   8.230  28.393   8.553
 5711POPC   D2A12016   8.200  28.355   8.253
 5711POPC   C3A12017   8.206  28.365   7.953
 5711POPC   C4A12018   8.171  28.346   7.653
 5711POPC   C1B12019   8.328  28.148   8.553
 5711POPC   C2B12020   8.349  28.119   8.253
 5711POPC   C3B12021   8.319  28.103   7.953
 5711POPC   C4B12022   8.294  28.113   7.653
 5712POPC   NC312023  42.347   5.864   9.453
 5712POPC   PO412024  42.356   5.880   9.153
 5712POPC   GL112025  42.296   5.866   8.853
 5712POPC   GL212026  42.361   6.007   8.853
 5712POPC   C1A12027  42.349   5.846   8.553
 5712POPC   D2A12028  42.367   5.833   8.253
 5712POPC   C3A12029  42.346   5.901   7.953
 5712POPC   C4A12030  42.372   5.862   7.653
 5712POPC   C1B12031  42.436   6.092   8.553
 5712POPC   C2B12032  42.424   6.085   8.253
 5712POPC   C3B12033  42.433   6.110   7.953
 5712POPC   C4B12034  42.481   6.050   7.653
 5713POPC   NC312035  19.843   9.009   9.453
 5713POPC   PO412036  19.841   9.015   9.153
 5713POPC   GL112037  19.873   8.982   8.853
 5713POPC   GL212038  19.894   8.875   8.853
 5713POPC   C1A12039  19.795   8.994   8.553
 5713POPC   D2A12040  19.836   9.004   8.253
 5713POPC   C3A12041  19.858   8.994   7.953
 5713POPC   C4A12042  19.794   8.983   7.653
 5713POPC   C1B12043  20.007   8.803   8.553
 5713POPC   C2B12044  19.994   8.855   8.253
 5713POPC   C3B12045  20.039   8.839   7.953
 5713POPC   C4B12046  20.014   8.815   7.653
 5714POPC   NC312047  28.337  37.713   9.453
 5714POPC   PO412048  28.369  37.728   9.153
 5714POPC   GL112049  28.334  37.632   8.853
 5714POPC   GL212050  28.428  37.534   8.853
 5714POPC   C1A12051  28.396  37.695   8.553
 5714POPC   D2A12052  28.338  37.636   8.253
 5714POPC   C3A12053  28.319  37.695   7.953
 5714POPC   C4A12054  28.387  37.702   7.653
 5714POPC   C1B12055  28.434  37.404   8.553
 5714POPC   C2B12056  28.441  37.427   8.253
 5714POPC   C3B12057  28.373  37.418   7.953
 5714POPC   C4B12058  28.394  37.385   7.653
 5715POPC   NC312059  43.082   1.261   9.453
 5715POPC   PO412060  43.075   1.218   9.153
 5715POPC   GL112061  43.136   1.239   8.853
 5715POPC   GL212062  43.096   1.325   8.853
 5715POPC   C1A12063  43.080   1.214   8.553
 5715POPC   D2A12064  43.107   1.170   8.253
 5715POPC   C3A12065  43.155   1.259   7.953
 5715POPC   C4A12066  43.143   1.203   7.653
 5715POPC   C1B12067  43.138   1.446   8.553
 5715POPC   C2B12068  43.106   1.463   8.253
 5715POPC   C3B12069  43.066   1.485   7.953
 5715POPC   C4B12070  43.094   1.449   7.653
 5716POPC   NC312071  39.252  33.794   9.453
 5716POPC   PO412072  39.184  33.795   9.153
 5716POPC   GL112073  39.261  33.798   8.853
 5716POPC   GL212074  39.315  33.710   8.853
 5716POPC   C1A12075  39.275  33.756   8.553
 5716POPC   D2A12076  39.265  33.844   8.253
 5716POPC   C3A12077  39.214  33.833   7.953
 5716POPC   C4A12078  39.223  33.774   7.653
 5716POPC   C1B12079  39.313  33.553   8.553
 5716POPC   C2B12080  39.395  33.542   8.253
 5716POPC   C3B12081  39.353  33.591   7.953
 5716POPC   C4B12082  39.344  33.610   7.653
 5717POPC   NC312083  15.173  11.335   9.453
 5717POPC   PO412084  15.170  11.318   9.153
 5717POPC   GL112085  15.201  11.323   8.853
 5717POPC   GL212086  15.262  11.374   8.853
 5717POPC   C1A12087  15.132  11.322   8.553
 5717POPC   D2A12088  15.203  11.274   8.253
 5717POPC   C3A12089  15.211  11.340   7.953
 5717POPC   C4A12090  15.163  11.251   7.653
 5717POPC   C1B12091  15.390  11.442   8.553
 5717POPC   C2B12092  15.393  11.477   8.253
 5717POPC   C3B12093  15.357  11.475   7.953
 5717POPC   C4B12094  15.376  11.430   7.653
 5718POPC   NC312095  43.084  32.974   9.453
 5718POPC   PO412096  43.096  33.004   9.153
 5718POPC   GL112097  43.144  32.983   8.853
 5718POPC   GL212098  43.014  33.122   8.853
 5718POPC   C1A12099  43.076  33.048   8.553
 5718POPC   D2A12100  43.066  32.997   8.253
 5718POPC   C3A12101  43.138  33.060   7.953
 5718POPC   C4A12102  43.130  33.059   7.653
 5718POPC   C1B12103  43.028  33.227   8.553
 5718POPC   C2B12104  43.009  33.262   8.253
 5718POPC   C3B12105  42.992  33.278   7.953
 5718POPC   C4B12106  42.973  33.270   7.653
 5719POPC   NC312107  41.550  40.829   9.453
 5719POPC   PO412108  41.562  40.792   9.153
 5719POPC   GL112109  41.601  40.769   8.853
 5719POPC   GL212110  41.622  40.640   8.853
 5719POPC   C1A12111  41.608  40.789   8.553
 5719POPC   D2A12112  41.539  40.754   8.253
 5719POPC   C3A12113  41.557  40.831   7.953
 5719POPC   C4A12114  41.579  40.757   7.653
 5719POPC   C1B12115  41.619  40.566   8.553
 5719POPC   C2B12116  41.650  40.566   8.253
 5719POPC   C3B12117  41.610  40.557   7.953
 5719POPC   C4B12118  41.656  40.552   7.653
 5720POPC   NC312119  24.497  10.506   9.453
 5720POPC   PO412120  24.478  10.529   9.153
 5720POPC   GL112121  24.450  10.506   8.853
 5720POPC   GL212122  24.529  10.688   8.853
 5720POPC   C1A12123  24.505  10.490   8.553
 5720POPC   D2A12124  24.441  10.541   8.253
 5720POPC   C3A12125  24.539  10.482   7.953
 5720POPC   C4A12126  24.479  10.486   7.653
 5720POPC   C1B12127  24.608  10.753   8.553
 5720POPC   C2B12128  24.529  10.729   8.253
 5720POPC   C3B12129  24.573  10.766   7.953
 5720POPC   C4B12130  24.609  10.763   7.653
 5721POPC   NC312131  29.096  35.360   9.453
 5721POPC   PO412132  29.152  35.303   9.153
 5721POPC   GL112133  29.150  35.332   8.853
 5721POPC   GL212134  29.095  35.275   8.853
 5721POPC   C1A12135  29.121  35.381   8.553
 5721POPC   D2A12136  29.122  35.374   8.253
 5721POPC   C3A12137  29.100  35.364   7.953
 5721POPC   C4A12138  29.142  35.302   7.653
 5721POPC   C1B12139  28.995  35.083   8.553
 5721POPC   C2B12140  28.992  35.136   8.253
 5721POPC   C3B12141  28.993  35.088   7.953
 5721POPC   C4B12142  29.042  35.086   7.653
 5722POPC   NC312143   2.755  23.686   9.453
 5722POPC   PO412144   2.799  23.714   9.153
 5722POPC   GL112145   2.741  23.754   8.853
 5722POPC   GL212146   2.885  23.651   8.853
 5722POPC   C1A12147   2.726  23.717   8.553
 5722POPC   D2A12148   2.727  23.722   8.253
 5722POPC   C3A12149   2.752  23.749   7.953
 5722POPC   C4A12150   2.748  23.754   7.653
 5722POPC   C1B12151   2.929  23.584   8.553
 5722POPC   C2B12152   2.980  23.618   8.253
 5722POPC   C3B12153   2.943  23.598   7.953
 5722POPC   C4B12154   2.985  23.602   7.653
 5723POPC   NC312155  25.226  34.550   9.453
 5723POPC   PO412156  25.293  34.582   9.153
 5723POPC   GL112157  25.219  34.526   8.853
 5723POPC   GL212158  25.197  34.673   8.853
 5723POPC   C1A12159  25.261  34.549   8.553
 5723POPC   D2A12160  25.236  34.559   8.253
 5723POPC   C3A12161  25.217  34.550   7.953
 5723POPC   C4A12162  25.246  34.567   7.653
 5723POPC   C1B12163  25.062  34.780   8.553
 5723POPC   C2B12164  25.103  34.737   8.253
 5723POPC   C3B12165  25.050  34.781   7.953
 5723POPC   C4B12166  25.049  34.721   7.653
 5724POPC   NC312167  19.871   9.783   9.453
 5724POPC   PO412168  19.807   9.719   9.153
 5724POPC   GL112169  19.791   9.721   8.853
 5724POPC   GL212170  19.988   9.722   8.853
 5724POPC   C1A12171  19.801   9.724   8.553
 5724POPC   D2A12172  19.831   9.789   8.253
 5724POPC   C3A12173  19.879   9.724   7.953
 5724POPC   C4A12174  19.881   9.744   7.653
 5724POPC   C1B12175  20.127   9.720   8.553
 5724POPC   C2B12176  20.064   9.685   8.253
 5724POPC   C3B12177  20.050   9.661   7.953
 5724POPC   C4B12178  20.050   9.748   7.653
 5725POPC   NC312179   8.183  41.575   9.453
 5725POPC   PO412180   8.230  41.597   9.153
 5725POPC   GL112181   8.235  41.571   8.853
 5725POPC   GL212182   8.116  41.449   8.853
 5725POPC   C1A12183   8.204  41.560   8.553
 5725POPC   D2A12184   8.205  41.532   8.253
 5725POPC   C3A12185   8.152  41.545   7.953
 5725POPC   C4A12186   8.200  41.546   7.653
 5725POPC   C1B12187   7.991  41.392   8.553
 5725POPC   C2B12188   7.974  41.375   8.253
 5725POPC   C3B12189   7.969  41.454   7.953
 5725POPC   C4B12190   8.014  41.376   7.653
 5726POPC   NC312191  39.979   1.166   9.453
 5726POPC   PO412192  39.998   1.209   9.153
 5726POPC   GL112193  40.005   1.230   8.853
 5726POPC   GL212194  39.933   1.167   8.853
 5726POPC   C1A12195  40.020   1.252   8.553
 5726POPC   D2A12196  39.996   1.174   8.253
 5726POPC   C3A12197  39.977   1.239   7.953
 5726POPC   C4A12198  39.959   1.174   7.653
 5726POPC   C1B12199  39.738   1.168   8.553
 5726POPC   C2B12200  39.726   1.184   8.253
 5726POPC   C3B12201  39.785   1.144   7.953
 5726POPC   C4B12202  39.723   1.197   7.653
 5727POPC   NC312203  22.932  27.568   9.453
 5727POPC   PO412204  22.915  27.636   9.153
 5727POPC   GL112205  22.912  27.575   8.853
 5727POPC   GL212206  23.032  27.486   8.853
 5727POPC   C1A12207  22.959  27.595   8.553
 5727POPC   D2A12208  22.913  27.637   8.253
 5727POPC   C3A12209  22.926  27.613   7.953
 5727POPC   C4A12210  22.926  27.552   7.653
 5727POPC   C1B12211  23.117  27.421   8.553
 5727POPC   C2B12212  23.058  27.373   8.253
 5727POPC   C3B12213  23.104  27.351   7.953
 5727POPC   C4B12214  23.086  27.342   7.653
 5728POPC   NC312215  34.617  39.195   9.453
 5728POPC   PO412216  34.548  39.258   9.153
 5728POPC   GL112217  34.611  39.205   8.853
 5728POPC   GL212218  34.591  39.339   8.853
 5728POPC   C1A12219  34.571  39.280   8.553
 5728POPC   D2A12220  34.543  39.250   8.253
 5728POPC   C3A12221  34.596  39.224   7.953
 5728POPC   C4A12222  34.576  39.269   7.653
 5728POPC   C1B12223  34.671  39.438   8.553
 5728POPC   C2B12224  34.637  39.497   8.253
 5728POPC   C3B12225  34.647  39.472   7.953
 5728POPC   C4B12226  34.683  39.472   7.653
 5729POPC   NC312227  24.486  30.735   9.453
 5729POPC   PO412228  24.452  30.688   9.153
 5729POPC   GL112229  24.507  30.683   8.853
 5729POPC   GL212230  24.443  30.574   8.853
 5729POPC   C1A12231  24.493  30.732   8.553
 5729POPC   D2A12232  24.529  30.720   8.253
 5729POPC   C3A12233  24.533  30.723   7.953
 5729POPC   C4A12234  24.513  30.663   7.653
 5729POPC   C1B12235  24.418  30.462   8.553
 5729POPC   C2B12236  24.376  30.464   8.253
 5729POPC   C3B12237  24.369  30.452   7.953
 5729POPC   C4B12238  24.370  30.505   7.653
 5730POPC   NC312239   2.798  10.552   9.453
 5730POPC   PO412240   2.731  10.529   9.153
 5730POPC   GL112241   2.768  10.513   8.853
 5730POPC   GL212242   2.850  10.448   8.853
 5730POPC   C1A12243   2.765  10.540   8.553
 5730POPC   D2A12244   2.813  10.531   8.253
 5730POPC   C3A12245   2.802  10.482   7.953
 5730POPC   C4A12246   2.749  10.513   7.653
 5730POPC   C1B12247   2.960  10.334   8.553
 5730POPC   C2B12248   2.952  10.322   8.253
 5730POPC   C3B12249   2.967  10.355   7.953
 5730POPC   C4B12250   3.000  10.320   7.653
 5731POPC   NC312251  36.878   1.992   9.453
 5731POPC   PO412252  36.941   1.944   9.153
 5731POPC   GL112253  36.927   2.027   8.853
 5731POPC   GL212254  36.771   2.008   8.853
 5731POPC   C1A12255  36.857   1.996   8.553
 5731POPC   D2A12256  36.872   2.030   8.253
 5731POPC   C3A12257  36.881   1.950   7.953
 5731POPC   C4A12258  36.876   2.035   7.653
 5731POPC   C1B12259  36.711   2.124   8.553
 5731POPC   C2B12260  36.709   2.160   8.253
 5731POPC   C3B12261  36.645   2.154   7.953
 5731POPC   C4B12262  36.727   2.077   7.653
 5732POPC   NC312263  22.909  10.564   9.453
 5732POPC   PO412264  22.889  10.520   9.153
 5732POPC   GL112265  22.981  10.491   8.853
 5732POPC   GL212266  22.846  10.559   8.853
 5732POPC   C1A12267  22.947  10.558   8.553
 5732POPC   D2A12268  22.974  10.519   8.253
 5732POPC   C3A12269  22.949  10.574   7.953
 5732POPC   C4A12270  22.948  10.503   7.653
 5732POPC   C1B12271  22.705  10.601   8.553
 5732POPC   C2B12272  22.693  10.661   8.253
 5732POPC   C3B12273  22.748  10.667   7.953
 5732POPC   C4B12274  22.682  10.634   7.653
 5733POPC   NC312275  30.649  37.727   9.453
 5733POPC   PO412276  30.683  37.634   9.153
 5733POPC   GL112277  30.705  37.685   8.853
 5733POPC   GL212278  30.787  37.753   8.853
 5733POPC   C1A12279  30.732  37.659   8.553
 5733POPC   D2A12280  30.704  37.729   8.253
 5733POPC   C3A12281  30.742  37.721   7.953
 5733POPC   C4A12282  30.658  37.658   7.653
 5733POPC   C1B12283  30.910  37.736   8.553
 5733POPC   C2B12284  30.908  37.698   8.253
 5733POPC   C3B12285  30.963  37.755   7.953
 5733POPC   C4B12286  30.933  37.764   7.653
 5734POPC   NC312287   3.502   7.439   9.453
 5734POPC   PO412288   3.508   7.445   9.153
 5734POPC   GL112289   3.587   7.388   8.853
 5734POPC   GL212290   3.557   7.315   8.853
 5734POPC   C1A12291   3.503   7.454   8.553
 5734POPC   D2A12292   3.501   7.450   8.253
 5734POPC   C3A12293   3.555   7.383   7.953
 5734POPC   C4A12294   3.591   7.386   7.653
 5734POPC   C1B12295   3.501   7.199   8.553
 5734POPC   C2B12296   3.541   7.190   8.253
 5734POPC   C3B12297   3.526   7.211   7.953
 5734POPC   C4B12298   3.549   7.215   7.653
 5735POPC   NC312299  16.000  44.696   9.453
 5735POPC   PO412300  15.908  44.644   9.153
 5735POPC   GL112301  15.926  44.684   8.853
 5735POPC   GL212302  16.006  44.818   8.853
 5735POPC   C1A12303  15.983  44.685   8.553
 5735POPC   D2A12304  15.921  44.644   8.253
 5735POPC   C3A12305  15.974  44.623   7.953
 5735POPC   C4A12306  15.921  44.680   7.653
 5735POPC   C1B12307  15.997  44.879   8.553
 5735POPC   C2B12308  16.027  44.934   8.253
 5735POPC   C3B12309  16.014  44.880   7.953
 5735POPC   C4B12310  16.018  44.889   7.653
 5736POPC   NC312311   6.610  39.188   9.453
 5736POPC   PO412312   6.672  39.265   9.153
 5736POPC   GL112313   6.628  39.230   8.853
 5736POPC   GL212314   6.512  39.228   8.853
 5736POPC   C1A12315   6.685  39.265   8.553
 5736POPC   D2A12316   6.659  39.250   8.253
 5736POPC   C3A12317   6.605  39.243   7.953
 5736POPC   C4A12318   6.629  39.186   7.653
 5736POPC   C1B12319   6.369  39.184   8.553
 5736POPC   C2B12320   6.452  39.175   8.253
 5736POPC   C3B12321   6.372  39.175   7.953
 5736POPC   C4B12322   6.444  39.096   7.653
 5737POPC   NC312323  27.591  26.780   9.453
 5737POPC   PO412324  27.636  26.845   9.153
 5737POPC   GL112325  27.622  26.811   8.853
 5737POPC   GL212326  27.493  26.726   8.853
 5737POPC   C1A12327  27.606  26.823   8.553
 5737POPC   D2A12328  27.629  26.782   8.253
 5737POPC   C3A12329  27.567  26.812   7.953
 5737POPC   C4A12330  27.579  26.814   7.653
 5737POPC   C1B12331  27.387  26.735   8.553
 5737POPC   C2B12332  27.359  26.732   8.253
 5737POPC   C3B12333  27.345  26.713   7.953
 5737POPC   C4B12334  27.316  26.741   7.653
 5738POPC   NC312335  40.827  39.983   9.453
 5738POPC   PO412336  40.830  40.022   9.153
 5738POPC   GL112337  40.768  40.026   8.853
 5738POPC   GL212338  40.917  40.088   8.853
 5738POPC   C1A12339  40.760  39.979   8.553
 5738POPC   D2A12340  40.781  39.966   8.253
 5738POPC   C3A12341  40.755  40.002   7.953
 5738POPC   C4A12342  40.774  40.006   7.653
 5738POPC   C1B12343  41.032  40.150   8.553
 5738POPC   C2B12344  41.026  40.152   8.253
 5738POPC   C3B12345  41.021  40.141   7.953
 5738POPC   C4B12346  40.995  40.117   7.653
 5739POPC   NC312347  23.720  15.921   9.453
 5739POPC   PO412348  23.682  15.975   9.153
 5739POPC   GL112349  23.716  15.979   8.853
 5739POPC   GL212350  23.821  15.852   8.853
 5739POPC   C1A12351  23.669  16.002   8.553
 5739POPC   D2A12352  23.745  15.926   8.253
 5739POPC   C3A12353  23.702  15.999   7.953
 5739POPC   C4A12354  23.677  15.912   7.653
 5739POPC   C1B12355  23.876  15.735   8.553
 5739POPC   C2B12356  23.906  15.801   8.253
 5739POPC   C3B12357  23.924  15.782   7.953
 5739POPC   C4B12358  23.902  15.722   7.653
 5740POPC   NC312359  39.232  28.329   9.453
 5740POPC   PO412360  39.190  28.370   9.153
 5740POPC   GL112361  39.216  28.388   8.853
 5740POPC   GL212362  39.149  28.326   8.853
 5740POPC   C1A12363  39.271  28.385   8.553
 5740POPC   D2A12364  39.213  28.365   8.253
 5740POPC   C3A12365  39.214  28.343   7.953
 5740POPC   C4A12366  39.257  28.327   7.653
 5740POPC   C1B12367  38.947  28.394   8.553
 5740POPC   C2B12368  38.975  28.306   8.253
 5740POPC   C3B12369  38.991  28.392   7.953
 5740POPC   C4B12370  38.976  28.319   7.653
 5741POPC   NC312371  12.112  16.754   9.453
 5741POPC   PO412372  12.036  16.764   9.153
 5741POPC   GL112373  12.061  16.767   8.853
 5741POPC   GL212374  12.010  16.566   8.853
 5741POPC   C1A12375  12.114  16.689   8.553
 5741POPC   D2A12376  12.072  16.770   8.253
 5741POPC   C3A12377  12.057  16.681   7.953
 5741POPC   C4A12378  12.065  16.688   7.653
 5741POPC   C1B12379  12.016  16.475   8.553
 5741POPC   C2B12380  11.967  16.455   8.253
 5741POPC   C3B12381  12.058  16.512   7.953
 5741POPC   C4B12382  12.025  16.481   7.653
 5742POPC   NC312383   0.394  17.552   9.453
 5742POPC   PO412384   0.463  17.496   9.153
 5742POPC   GL112385   0.486  17.503   8.853
 5742POPC   GL212386   0.316  17.598   8.853
 5742POPC   C1A12387   0.413  17.512   8.553
 5742POPC   D2A12388   0.471  17.501   8.253
 5742POPC   C3A12389   0.428  17.545   7.953
 5742POPC   C4A12390   0.470  17.513   7.653
 5742POPC   C1B12391   0.238  17.657   8.553
 5742POPC   C2B12392   0.224  17.679   8.253
 5742POPC   C3B12393   0.262  17.670   7.953
 5742POPC   C4B12394   0.218  17.652   7.653
 5743POPC   NC312395  41.538  42.299   9.453
 5743POPC   PO412396  41.520  42.285   9.153
 5743POPC   GL112397  41.557  42.351   8.853
 5743POPC   GL212398  41.529  42.241   8.853
 5743POPC   C1A12399  41.538  42.316   8.553
 5743POPC   D2A12400  41.520  42.288   8.253
 5743POPC   C3A12401  41.542  42.359   7.953
 5743POPC   C4A12402  41.543  42.360   7.653
 5743POPC   C1B12403  41.390  42.110   8.553
 5743POPC   C2B12404  41.374  42.097   8.253
 5743POPC   C3B12405  41.438  42.165   7.953
 5743POPC   C4B12406  41.396  42.115   7.653
 5744POPC   NC312407  20.613   7.434   9.453
 5744POPC   PO412408  20.593   7.422   9.153
 5744POPC   GL112409  20.578   7.423   8.853
 5744POPC   GL212410  20.511   7.414   8.853
 5744POPC   C1A12411  20.588   7.438   8.553
 5744POPC   D2A12412  20.656   7.440   8.253
 5744POPC   C3A12413  20.605   7.372   7.953
 5744POPC   C4A12414  20.585   7.416   7.653
 5744POPC   C1B12415  20.324   7.335   8.553
 5744POPC   C2B12416  20.385   7.389   8.253
 5744POPC   C3B12417  20.418   7.357   7.953
 5744POPC   C4B12418  20.416   7.372   7.653
 5745POPC   NC312419  19.863  25.304   9.453
 5745POPC   PO412420  19.877  25.280   9.153
 5745POPC   GL112421  19.879  25.300   8.853
 5745POPC   GL212422  19.686  25.265   8.853
 5745POPC   C1A12423  19.790  25.255   8.553
 5745POPC   D2A12424  19.835  25.291   8.253
 5745POPC   C3A12425  19.874  25.272   7.953
 5745POPC   C4A12426  19.833  25.218   7.653
 5745POPC   C1B12427  19.541  25.189   8.553
 5745POPC   C2B12428  19.638  25.182   8.253
 5745POPC   C3B12429  19.616  25.274   7.953
 5745POPC   C4B12430  19.584  25.239   7.653
 5746POPC   NC312431  23.685  34.588   9.453
 5746POPC   PO412432  23.741  34.601   9.153
 5746POPC   GL112433  23.667  34.593   8.853
 5746POPC   GL212434  23.726  34.424   8.853
 5746POPC   C1A12435  23.731  34.622   8.553
 5746POPC   D2A12436  23.742  34.583   8.253
 5746POPC   C3A12437  23.671  34.541   7.953
 5746POPC   C4A12438  23.691  34.573   7.653
 5746POPC   C1B12439  23.598  34.380   8.553
 5746POPC   C2B12440  23.695  34.308   8.253
 5746POPC   C3B12441  23.604  34.358   7.953
 5746POPC   C4B12442  23.672  34.344   7.653
 5747POPC   NC312443  18.276  37.666   9.453
 5747POPC   PO412444  18.296  37.638   9.153
 5747POPC   GL112445  18.277  37.667   8.853
 5747POPC   GL212446  18.389  37.706   8.853
 5747POPC   C1A12447  18.262  37.658   8.553
 5747POPC   D2A12448  18.285  37.689   8.253
 5747POPC   C3A12449  18.237  37.724   7.953
 5747POPC   C4A12450  18.262  37.678   7.653
 5747POPC   C1B12451  18.527  37.728   8.553
 5747POPC   C2B12452  18.559  37.722   8.253
 5747POPC   C3B12453  18.466  37.758   7.953
 5747POPC   C4B12454  18.557  37.731   7.653
 5748POPC   NC312455  17.530  28.358   9.453
 5748POPC   PO412456  17.503  28.349   9.153
 5748POPC   GL112457  17.537  28.352   8.853
 5748POPC   GL212458  17.643  28.422   8.853
 5748POPC   C1A12459  17.555  28.336   8.553
 5748POPC   D2A12460  17.477  28.333   8.253
 5748POPC   C3A12461  17.513  28.328   7.953
 5748POPC   C4A12462  17.551  28.326   7.653
 5748POPC   C1B12463  17.777  28.442   8.553
 5748POPC   C2B12464  17.774  28.418   8.253
 5748POPC   C3B12465  17.744  28.481   7.953
 5748POPC   C4B12466  17.773  28.484   7.653
 5749POPC   NC312467  26.794  38.423   9.453
 5749POPC   PO412468  26.864  38.437   9.153
 5749POPC   GL112469  26.843  38.490   8.853
 5749POPC   GL212470  26.664  38.462   8.853
 5749POPC   C1A12471  26.823  38.406   8.553
 5749POPC   D2A12472  26.842  38.502   8.253
 5749POPC   C3A12473  26.777  38.464   7.953
 5749POPC   C4A12474  26.841  38.471   7.653
 5749POPC   C1B12475  26.537  38.354   8.553
 5749POPC   C2B12476  26.536  38.347   8.253
 5749POPC   C3B12477  26.583  38.413   7.953
 5749POPC   C4B12478  26.587  38.401   7.653
 5750POPC   NC312479  15.994  15.987   9.453
 5750POPC   PO412480  16.004  15.960   9.153
 5750POPC   GL112481  15.956  15.927   8.853
 5750POPC   GL212482  16.015  15.813   8.853
 5750POPC   C1A12483  15.929  15.960   8.553
 5750POPC   D2A12484  15.978  15.919   8.253
 5750POPC   C3A12485  15.909  15.997   7.953
 5750POPC   C4A12486  15.955  15.991   7.653
 5750POPC   C1B12487  16.145  15.778   8.553
 5750POPC   C2B12488  16.113  15.734   8.253
 5750POPC   C3B12489  16.133  15.809   7.953
 5750POPC   C4B12490  16.115  15.768   7.653
 5751POPC   NC312491   2.764   3.569   9.453
 5751POPC   PO412492   2.809   3.518   9.153
 5751POPC   GL112493   2.739   3.518   8.853
 5751POPC   GL212494   2.799   3.459   8.853
 5751POPC   C1A12495   2.751   3.536   8.553
 5751POPC   D2A12496   2.732   3.588   8.253
 5751POPC   C3A12497   2.806   3.504   7.953
 5751POPC   C4A12498   2.725   3.534   7.653
 5751POPC   C1B12499   2.840   3.274   8.553
 5751POPC   C2B12500   2.804   3.270   8.253
 5751POPC   C3B12501   2.839   3.250   7.953
 5751POPC   C4B12502   2.783   3.258   7.653
 5752POPC   NC312503  27.582  28.395   9.453
 5752POPC   PO412504  27.546  28.384   9.153
 5752POPC   GL112505  27.552  28.353   8.853
 5752POPC   GL212506  27.561  28.478   8.853
 5752POPC   C1A12507  27.573  28.354   8.553
 5752POPC   D2A12508  27.627  28.374   8.253
 5752POPC   C3A12509  27.546  28.337   7.953
 5752POPC   C4A12510  27.573  28.360   7.653
 5752POPC   C1B12511  27.636  28.583   8.553
 5752POPC   C2B12512  27.590  28.632   8.253
 5752POPC   C3B12513  27.645  28.633   7.953
 5752POPC   C4B12514  27.567  28.647   7.653
 5753POPC   NC312515  12.043  22.208   9.453
 5753POPC   PO412516  12.101  22.123   9.153
 5753POPC   GL112517  12.045  22.161   8.853
 5753POPC   GL212518  12.114  22.031   8.853
 5753POPC   C1A12519  12.047  22.170   8.553
 5753POPC   D2A12520  12.046  22.125   8.253
 5753POPC   C3A12521  12.091  22.203   7.953
 5753POPC   C4A12522  12.054  22.192   7.653
 5753POPC   C1B12523  12.179  21.951   8.553
 5753POPC   C2B12524  12.207  21.982   8.253
 5753POPC   C3B12525  12.242  21.942   7.953
 5753POPC   C4B12526  12.241  21.920   7.653
 5754POPC   NC312527   4.310   8.200   9.453
 5754POPC   PO412528   4.290   8.220   9.153
 5754POPC   GL112529   4.305   8.213   8.853
 5754POPC   GL212530   4.341   8.272   8.853
 5754POPC   C1A12531   4.337   8.152   8.553
 5754POPC   D2A12532   4.349   8.179   8.253
 5754POPC   C3A12533   4.294   8.197   7.953
 5754POPC   C4A12534   4.359   8.161   7.653
 5754POPC   C1B12535   4.252   8.396   8.553
 5754POPC   C2B12536   4.279   8.442   8.253
 5754POPC   C3B12537   4.291   8.433   7.953
 5754POPC   C4B12538   4.259   8.426   7.653
 5755POPC   NC312539  36.863  12.826   9.453
 5755POPC   PO412540  36.881  12.840   9.153
 5755POPC   GL112541  36.910  12.819   8.853
 5755POPC   GL212542  36.864  12.922   8.853
 5755POPC   C1A12543  36.934  12.806   8.553
 5755POPC   D2A12544  36.917  12.896   8.253
 5755POPC   C3A12545  36.898  12.857   7.953
 5755POPC   C4A12546  36.935  12.822   7.653
 5755POPC   C1B12547  36.732  13.030   8.553
 5755POPC   C2B12548  36.792  13.048   8.253
 5755POPC   C3B12549  36.814  13.102   7.953
 5755POPC   C4B12550  36.777  13.088   7.653
 5756POPC   NC312551  37.644   5.854   9.453
 5756POPC   PO412552  37.660   5.854   9.153
 5756POPC   GL112553  37.637   5.888   8.853
 5756POPC   GL212554  37.723   5.725   8.853
 5756POPC   C1A12555  37.643   5.843   8.553
 5756POPC   D2A12556  37.651   5.885   8.253
 5756POPC   C3A12557  37.671   5.891   7.953
 5756POPC   C4A12558  37.721   5.898   7.653
 5756POPC   C1B12559  37.832   5.608   8.553
 5756POPC   C2B12560  37.778   5.631   8.253
 5756POPC   C3B12561  37.745   5.643   7.953
 5756POPC   C4B12562  37.811   5.667   7.653
 5757POPC   NC312563  37.690  33.774   9.453
 5757POPC   PO412564  37.680  33.797   9.153
 5757POPC   GL112565  37.680  33.848   8.853
 5757POPC   GL212566  37.596  33.859   8.853
 5757POPC   C1A12567  37.725  33.837   8.553
 5757POPC   D2A12568  37.702  33.824   8.253
 5757POPC   C3A12569  37.659  33.824   7.953
 5757POPC   C4A12570  37.653  33.802   7.653
 5757POPC   C1B12571  37.492  33.928   8.553
 5757POPC   C2B12572  37.510  33.935   8.253
 5757POPC   C3B12573  37.436  33.879   7.953
 5757POPC   C4B12574  37.446  33.956   7.653
 5758POPC   NC312575  22.133  38.474   9.453
 5758POPC   PO412576  22.168  38.410   9.153
 5758POPC   GL112577  22.162  38.476   8.853
 5758POPC   GL212578  22.178  38.535   8.853
 5758POPC   C1A12579  22.189  38.497   8.553
 5758POPC   D2A12580  22.151  38.464   8.253
 5758POPC   C3A12581  22.183  38.413   7.953
 5758POPC   C4A12582  22.155  38.469   7.653
 5758POPC   C1B12583  22.125  38.740   8.553
 5758POPC   C2B12584  22.082  38.713   8.253
 5758POPC   C3B12585  22.073  38.716   7.953
 5758POPC   C4B12586  22.110  38.657   7.653
 5759POPC   NC312587  19.794   6.683   9.453
 5759POPC   PO412588  19.846   6.682   9.153
 5759POPC   GL112589  19.883   6.690   8.853
 5759POPC   GL212590  19.985   6.616   8.853
 5759POPC   C1A12591  19.881   6.684   8.553
 5759POPC   D2A12592  19.825   6.649   8.253
 5759POPC   C3A12593  19.819   6.618   7.953
 5759POPC   C4A12594  19.869   6.694   7.653
 5759POPC   C1B12595  20.070   6.583   8.553
 5759POPC   C2B12596  20.116   6.613   8.253
 5759POPC   C3B12597  20.058   6.651   7.953
 5759POPC   C4B12598  20.073   6.648   7.653
 5760POPC   NC312599  11.308  29.174   9.453
 5760POPC   PO412600  11.296  29.130   9.153
 5760POPC   GL112601  11.272  29.147   8.853
 5760POPC   GL212602  11.228  29.239   8.853
 5760POPC   C1A12603  11.267  29.183   8.553
 5760POPC   D2A12604  11.285  29.141   8.253
 5760POPC   C3A12605  11.310  29.138   7.953
 5760POPC   C4A12606  11.301  29.170   7.653
 5760POPC   C1B12607  11.129  29.346   8.553
 5760POPC   C2B12608  11.172  29.371   8.253
 5760POPC   C3B12609  11.183  29.361   7.953
 5760POPC   C4B12610  11.171  29.343   7.653
 5761POPC   NC312611   0.395  30.654   9.453
 5761POPC   PO412612   0.462  30.673   9.153
 5761POPC   GL112613   0.476  30.746   8.853
 5761POPC   GL212614   0.320  30.759   8.853
 5761POPC   C1A12615   0.467  30.696   8.553
 5761POPC   D2A12616   0.434  30.740   8.253
 5761POPC   C3A12617   0.426  30.658   7.953
 5761POPC   C4A12618   0.441  30.669   7.653
 5761POPC   C1B12619   0.211  30.831   8.553
 5761POPC   C2B12620   0.278  30.854   8.253
 5761POPC   C3B12621   0.294  30.877   7.953
 5761POPC   C4B12622   0.300  30.878   7.653
 5762POPC   NC312623  21.382  36.940   9.453
 5762POPC   PO412624  21.404  36.877   9.153
 5762POPC   GL112625  21.338  36.897   8.853
 5762POPC   GL212626  21.480  36.989   8.853
 5762POPC   C1A12627  21.389  36.869   8.553
 5762POPC   D2A12628  21.367  36.909   8.253
 5762POPC   C3A12629  21.359  36.911   7.953
 5762POPC   C4A12630  21.420  36.867   7.653
 5762POPC   C1B12631  21.531  37.089   8.553
 5762POPC   C2B12632  21.572  37.098   8.253
 5762POPC   C3B12633  21.571  37.074   7.953
 5762POPC   C4B12634  21.535  37.090   7.653
 5763POPC   NC312635   1.940  32.227   9.453
 5763POPC   PO412636   1.955  32.222   9.153
 5763POPC   GL112637   2.002  32.208   8.853
 5763POPC   GL212638   1.839  32.288   8.853
 5763POPC   C1A12639   2.006  32.229   8.553
 5763POPC   D2A12640   2.018  32.285   8.253
 5763POPC   C3A12641   1.944  32.257   7.953
 5763POPC   C4A12642   1.976  32.233   7.653
 5763POPC   C1B12643   1.727  32.288   8.553
 5763POPC   C2B12644   1.779  32.257   8.253
 5763POPC   C3B12645   1.769  32.202   7.953
 5763POPC   C4B12646   1.777  32.250   7.653
 5764POPC   NC312647  21.386  42.297   9.453
 5764POPC   PO412648  21.388  42.358   9.153
 5764POPC   GL112649  21.345  42.354   8.853
 5764POPC   GL212650  21.526  42.329   8.853
 5764POPC   C1A12651  21.378  42.345   8.553
 5764POPC   D2A12652  21.394  42.316   8.253
 5764POPC   C3A12653  21.390  42.365   7.953
 5764POPC   C4A12654  21.414  42.353   7.653
 5764POPC   C1B12655  21.637  42.308   8.553
 5764POPC   C2B12656  21.625  42.303   8.253
 5764POPC   C3B12657  21.614  42.349   7.953
 5764POPC   C4B12658  21.646  42.374   7.653
 5765POPC   NC312659  19.079  15.915   9.453
 5765POPC   PO412660  19.031  15.924   9.153
 5765POPC   GL112661  19.107  15.932   8.853
 5765POPC   GL212662  18.898  16.013   8.853
 5765POPC   C1A12663  19.074  15.954   8.553
 5765POPC   D2A12664  19.050  15.973   8.253
 5765POPC   C3A12665  19.042  16.003   7.953
 5765POPC   C4A12666  19.048  15.915   7.653
 5765POPC   C1B12667  18.841  15.977   8.553
 5765POPC   C2B12668  18.785  15.974   8.253
 5765POPC   C3B12669  18.844  16.015   7.953
 5765POPC   C4B12670  18.776  16.068   7.653
 5766POPC   NC312671  36.911   8.227   9.453
 5766POPC   PO412672  36.947   8.156   9.153
 5766POPC   GL112673  36.897   8.222   8.853
 5766POPC   GL212674  36.997   8.253   8.853
 5766POPC   C1A12675  36.899   8.202   8.553
 5766POPC   D2A12676  36.868   8.166   8.253
 5766POPC   C3A12677  36.866   8.216   7.953
 5766POPC   C4A12678  36.856   8.188   7.653
 5766POPC   C1B12679  37.100   8.329   8.553
 5766POPC   C2B12680  37.158   8.317   8.253
 5766POPC   C3B12681  37.087   8.303   7.953
 5766POPC   C4B12682  37.116   8.305   7.653
 5767POPC   NC312683  20.567  25.294   9.453
 5767POPC   PO412684  20.640  25.257   9.153
 5767POPC   GL112685  20.588  25.291   8.853
 5767POPC   GL212686  20.651  25.381   8.853
 5767POPC   C1A12687  20.618  25.271   8.553
 5767POPC   D2A12688  20.602  25.266   8.253
 5767POPC   C3A12689  20.646  25.285   7.953
 5767POPC   C4A12690  20.616  25.257   7.653
 5767POPC   C1B12691  20.751  25.506   8.553
 5767POPC   C2B12692  20.733  25.446   8.253
 5767POPC   C3B12693  20.811  25.459   7.953
 5767POPC   C4B12694  20.765  25.435   7.653
 5768POPC   NC312695  19.861  29.920   9.453
 5768POPC   PO412696  19.882  29.879   9.153
 5768POPC   GL112697  19.800  29.884   8.853
 5768POPC   GL212698  19.867  30.060   8.853
 5768POPC   C1A12699  19.813  29.933   8.553
 5768POPC   D2A12700  19.808  29.952   8.253
 5768POPC   C3A12701  19.848  29.892   7.953
 5768POPC   C4A12702  19.810  29.897   7.653
 5768POPC   C1B12703  19.846  30.125   8.553
 5768POPC   C2B12704  19.849  30.137   8.253
 5768POPC   C3B12705  19.856  30.139   7.953
 5768POPC   C4B12706  19.843  30.148   7.653
 5769POPC   NC312707   2.004   5.834   9.453
 5769POPC   PO412708   1.962   5.839   9.153
 5769POPC   GL112709   1.990   5.879   8.853
 5769POPC   GL212710   2.000   6.027   8.853
 5769POPC   C1A12711   1.999   5.869   8.553
 5769POPC   D2A12712   1.956   5.896   8.253
 5769POPC   C3A12713   2.005   5.833   7.953
 5769POPC   C4A12714   2.024   5.887   7.653
 5769POPC   C1B12715   1.964   6.121   8.553
 5769POPC   C2B12716   2.000   6.108   8.253
 5769POPC   C3B12717   1.963   6.165   7.953
 5769POPC   C4B12718   2.019   6.136   7.653
 5770POPC   NC312719  22.166  26.827   9.453
 5770POPC   PO412720  22.206  26.771   9.153
 5770POPC   GL112721  22.140  26.782   8.853
 5770POPC   GL212722  22.087  26.848   8.853
 5770POPC   C1A12723  22.190  26.815   8.553
 5770POPC   D2A12724  22.154  26.833   8.253
 5770POPC   C3A12725  22.153  26.833   7.953
 5770POPC   C4A12726  22.128  26.778   7.653
 5770POPC   C1B12727  21.917  26.926   8.553
 5770POPC   C2B12728  21.970  26.957   8.253
 5770POPC   C3B12729  21.974  26.959   7.953
 5770POPC   C4B12730  21.935  26.952   7.653
 5771POPC   NC312731  20.565  44.693   9.453
 5771POPC   PO412732  20.613  44.665   9.153
 5771POPC   GL112733  20.623  44.702   8.853
 5771POPC   GL212734  20.656  44.786   8.853
 5771POPC   C1A12735  20.576  44.620   8.553
 5771POPC   D2A12736  20.645  44.647   8.253
 5771POPC   C3A12737  20.577  44.674   7.953
 5771POPC   C4A12738  20.593  44.639   7.653
 5771POPC   C1B12739  20.714  44.880   8.553
 5771POPC   C2B12740  20.752  44.914   8.253
 5771POPC   C3B12741  20.710  44.928   7.953
 5771POPC   C4B12742  20.727  44.887   7.653
 5772POPC   NC312743   2.774   9.005   9.453
 5772POPC   PO412744   2.781   8.924   9.153
 5772POPC   GL112745   2.736   8.945   8.853
 5772POPC   GL212746   2.653   8.923   8.853
 5772POPC   C1A12747   2.720   8.923   8.553
 5772POPC   D2A12748   2.814   8.973   8.253
 5772POPC   C3A12749   2.770   8.986   7.953
 5772POPC   C4A12750   2.728   8.949   7.653
 5772POPC   C1B12751   2.601   8.803   8.553
 5772POPC   C2B12752   2.560   8.815   8.253
 5772POPC   C3B12753   2.544   8.846   7.953
 5772POPC   C4B12754   2.548   8.829   7.653
 5773POPC   NC312755  18.256  28.347   9.453
 5773POPC   PO412756  18.309  28.324   9.153
 5773POPC   GL112757  18.332  28.321   8.853
 5773POPC   GL212758  18.289  28.282   8.853
 5773POPC   C1A12759  18.283  28.411   8.553
 5773POPC   D2A12760  18.314  28.412   8.253
 5773POPC   C3A12761  18.278  28.360   7.953
 5773POPC   C4A12762  18.295  28.412   7.653
 5773POPC   C1B12763  18.251  28.110   8.553
 5773POPC   C2B12764  18.277  28.137   8.253
 5773POPC   C3B12765  18.332  28.143   7.953
 5773POPC   C4B12766  18.308  28.138   7.653
 5774POPC   NC312767   1.183  24.484   9.453
 5774POPC   PO412768   1.204  24.443   9.153
 5774POPC   GL112769   1.219  24.491   8.853
 5774POPC   GL212770   1.077  24.593   8.853
 5774POPC   C1A12771   1.215  24.529   8.553
 5774POPC   D2A12772   1.180  24.493   8.253
 5774POPC   C3A12773   1.199  24.476   7.953
 5774POPC   C4A12774   1.231  24.476   7.653
 5774POPC   C1B12775   0.997  24.663   8.553
 5774POPC   C2B12776   1.046  24.619   8.253
 5774POPC   C3B12777   1.061  24.655   7.953
 5774POPC   C4B12778   1.068  24.616   7.653
 5775POPC   NC312779  36.132  14.418   9.453
 5775POPC   PO412780  36.091  14.377   9.153
 5775POPC   GL112781  36.105  14.412   8.853
 5775POPC   GL212782  36.233  14.376   8.853
 5775POPC   C1A12783  36.097  14.428   8.553
 5775POPC   D2A12784  36.126  14.355   8.253
 5775POPC   C3A12785  36.148  14.383   7.953
 5775POPC   C4A12786  36.127  14.406   7.653
 5775POPC   C1B12787  36.407  14.439   8.553
 5775POPC   C2B12788  36.401  14.479   8.253
 5775POPC   C3B12789  36.339  14.419   7.953
 5775POPC   C4B12790  36.414  14.483   7.653
 5776POPC   NC312791  30.651  23.688   9.453
 5776POPC   PO412792  30.736  23.714   9.153
 5776POPC   GL112793  30.739  23.666   8.853
 5776POPC   GL212794  30.677  23.631   8.853
 5776POPC   C1A12795  30.661  23.689   8.553
 5776POPC   D2A12796  30.673  23.688   8.253
 5776POPC   C3A12797  30.745  23.734   7.953
 5776POPC   C4A12798  30.736  23.735   7.653
 5776POPC   C1B12799  30.683  23.460   8.553
 5776POPC   C2B12800  30.699  23.502   8.253
 5776POPC   C3B12801  30.717  23.422   7.953
 5776POPC   C4B12802  30.700  23.421   7.653
 5777POPC   NC312803  32.991  44.702   9.453
 5777POPC   PO412804  32.991  44.614   9.153
 5777POPC   GL112805  32.987  44.643   8.853
 5777POPC   GL212806  32.909  44.747   8.853
 5777POPC   C1A12807  33.002  44.662   8.553
 5777POPC   D2A12808  33.024  44.634   8.253
 5777POPC   C3A12809  33.060  44.644   7.953
 5777POPC   C4A12810  33.066  44.614   7.653
 5777POPC   C1B12811  32.848  44.760   8.553
 5777POPC   C2B12812  32.815  44.828   8.253
 5777POPC   C3B12813  32.778  44.847   7.953
 5777POPC   C4B12814  32.817  44.756   7.653
 5778POPC   NC312815   4.326   5.053   9.453
 5778POPC   PO412816   4.332   5.045   9.153
 5778POPC   GL112817   4.310   5.133   8.853
 5778POPC   GL212818   4.281   5.176   8.853
 5778POPC   C1A12819   4.270   5.065   8.553
 5778POPC   D2A12820   4.363   5.131   8.253
 5778POPC   C3A12821   4.356   5.078   7.953
 5778POPC   C4A12822   4.313   5.098   7.653
 5778POPC   C1B12823   4.306   5.325   8.553
 5778POPC   C2B12824   4.380   5.305   8.253
 5778POPC   C3B12825   4.380   5.364   7.953
 5778POPC   C4B12826   4.376   5.376   7.653
 5779POPC   NC312827  28.392  33.059   9.453
 5779POPC   PO412828  28.398  33.059   9.153
 5779POPC   GL112829  28.347  32.978   8.853
 5779POPC   GL212830  28.465  32.961   8.853
 5779POPC   C1A12831  28.419  33.003   8.553
 5779POPC   D2A12832  28.347  33.013   8.253
 5779POPC   C3A12833  28.333  33.007   7.953
 5779POPC   C4A12834  28.379  33.006   7.653
 5779POPC   C1B12835  28.625  32.903   8.553
 5779POPC   C2B12836  28.614  32.912   8.253
 5779POPC   C3B12837  28.612  32.862   7.953
 5779POPC   C4B12838  28.628  32.920   7.653
 5780POPC   NC312839  22.168  29.180   9.453
 5780POPC   PO412840  22.163  29.167   9.153
 5780POPC   GL112841  22.198  29.164   8.853
 5780POPC   GL212842  22.302  29.170   8.853
 5780POPC   C1A12843  22.144  29.188   8.553
 5780POPC   D2A12844  22.195  29.119   8.253
 5780POPC   C3A12845  22.161  29.134   7.953
 5780POPC   C4A12846  22.117  29.170   7.653
 5780POPC   C1B12847  22.341  29.312   8.553
 5780POPC   C2B12848  22.383  29.260   8.253
 5780POPC   C3B12849  22.354  29.301   7.953
 5780POPC   C4B12850  22.394  29.287   7.653
 5781POPC   NC312851   0.420  38.413   9.453
 5781POPC   PO412852   0.419  38.424   9.153
 5781POPC   GL112853   0.460  38.475   8.853
 5781POPC   GL212854   0.311  38.433   8.853
 5781POPC   C1A12855   0.391  38.472   8.553
 5781POPC   D2A12856   0.484  38.432   8.253
 5781POPC   C3A12857   0.444  38.411   7.953
 5781POPC   C4A12858   0.420  38.482   7.653
 5781POPC   C1B12859   0.227  38.502   8.553
 5781POPC   C2B12860   0.156  38.426   8.253
 5781POPC   C3B12861   0.191  38.433   7.953
 5781POPC   C4B12862   0.165  38.458   7.653
 5782POPC   NC312863  10.480  26.852   9.453
 5782POPC   PO412864  10.564  26.825   9.153
 5782POPC   GL112865  10.505  26.850   8.853
 5782POPC   GL212866  10.424  26.697   8.853
 5782POPC   C1A12867  10.486  26.845   8.553
 5782POPC   D2A12868  10.556  26.864   8.253
 5782POPC   C3A12869  10.551  26.768   7.953
 5782POPC   C4A12870  10.513  26.776   7.653
 5782POPC   C1B12871  10.353  26.676   8.553
 5782POPC   C2B12872  10.291  26.624   8.253
 5782POPC   C3B12873  10.296  26.697   7.953
 5782POPC   C4B12874  10.349  26.630   7.653
 5783POPC   NC312875   5.850  10.560   9.453
 5783POPC   PO412876   5.821  10.520   9.153
 5783POPC   GL112877   5.848  10.511   8.853
 5783POPC   GL212878   5.880  10.637   8.853
 5783POPC   C1A12879   5.918  10.570   8.553
 5783POPC   D2A12880   5.847  10.522   8.253
 5783POPC   C3A12881   5.919  10.563   7.953
 5783POPC   C4A12882   5.891  10.496   7.653
 5783POPC   C1B12883   5.918  10.820   8.553
 5783POPC   C2B12884   5.898  10.814   8.253
 5783POPC   C3B12885   5.880  10.814   7.953
 5783POPC   C4B12886   5.883  10.725   7.653
 5784POPC   NC312887   1.999  27.548   9.453
 5784POPC   PO412888   2.039  27.613   9.153
 5784POPC   GL112889   1.974  27.583   8.853
 5784POPC   GL212890   1.891  27.443   8.853
 5784POPC   C1A12891   1.979  27.592   8.553
 5784POPC   D2A12892   1.953  27.611   8.253
 5784POPC   C3A12893   2.000  27.559   7.953
 5784POPC   C4A12894   2.026  27.627   7.653
 5784POPC   C1B12895   1.872  27.414   8.553
 5784POPC   C2B12896   1.898  27.390   8.253
 5784POPC   C3B12897   1.877  27.399   7.953
 5784POPC   C4B12898   1.910  27.407   7.653
 5785POPC   NC312899  35.320   5.856   9.453
 5785POPC   PO412900  35.324   5.848   9.153
 5785POPC   GL112901  35.395   5.827   8.853
 5785POPC   GL212902  35.447   5.807   8.853
 5785POPC   C1A12903  35.380   5.898   8.553
 5785POPC   D2A12904  35.364   5.859   8.253
 5785POPC   C3A12905  35.364   5.826   7.953
 5785POPC   C4A12906  35.303   5.843   7.653
 5785POPC   C1B12907  35.519   5.747   8.553
 5785POPC   C2B12908  35.577   5.725   8.253
 5785POPC   C3B12909  35.613   5.777   7.953
 5785POPC   C4B12910  35.530   5.786   7.653
 5786POPC   NC312911  35.336  39.255   9.453
 5786POPC   PO412912  35.353  39.253   9.153
 5786POPC   GL112913  35.388  39.184   8.853
 5786POPC   GL212914  35.267  39.249   8.853
 5786POPC   C1A12915  35.334  39.232   8.553
 5786POPC   D2A12916  35.349  39.265   8.253
 5786POPC   C3A12917  35.381  39.277   7.953
 5786POPC   C4A12918  35.316  39.207   7.653
 5786POPC   C1B12919  35.106  39.397   8.553
 5786POPC   C2B12920  35.111  39.362   8.253
 5786POPC   C3B12921  35.170  39.373   7.953
 5786POPC   C4B12922  35.122  39.336   7.653
 5787POPC   NC312923  23.762   5.081   9.453
 5787POPC   PO412924  23.671   5.102   9.153
 5787POPC   GL112925  23.761   5.113   8.853
 5787POPC   GL212926  23.649   5.043   8.853
 5787POPC   C1A12927  23.737   5.066   8.553
 5787POPC   D2A12928  23.705   5.142   8.253
 5787POPC   C3A12929  23.670   5.133   7.953
 5787POPC   C4A12930  23.753   5.050   7.653
 5787POPC   C1B12931  23.450   4.976   8.553
 5787POPC   C2B12932  23.527   5.017   8.253
 5787POPC   C3B12933  23.461   4.946   7.953
 5787POPC   C4B12934  23.446   5.025   7.653
 5788POPC   NC312935  26.031  29.153   9.453
 5788POPC   PO412936  26.052  29.121   9.153
 5788POPC   GL112937  26.029  29.138   8.853
 5788POPC   GL212938  26.171  29.102   8.853
 5788POPC   C1A12939  26.076  29.128   8.553
 5788POPC   D2A12940  25.995  29.146   8.253
 5788POPC   C3A12941  26.085  29.105   7.953
 5788POPC   C4A12942  26.061  29.121   7.653
 5788POPC   C1B12943  26.271  29.043   8.553
 5788POPC   C2B12944  26.276  29.040   8.253
 5788POPC   C3B12945  26.245  29.089   7.953
 5788POPC   C4B12946  26.244  29.112   7.653
 5789POPC   NC312947  18.238   6.616   9.453
 5789POPC   PO412948  18.315   6.661   9.153
 5789POPC   GL112949  18.328   6.624   8.853
 5789POPC   GL212950  18.433   6.619   8.853
 5789POPC   C1A12951  18.301   6.631   8.553
 5789POPC   D2A12952  18.250   6.677   8.253
 5789POPC   C3A12953  18.296   6.681   7.953
 5789POPC   C4A12954  18.243   6.595   7.653
 5789POPC   C1B12955  18.569   6.556   8.553
 5789POPC   C2B12956  18.518   6.571   8.253
 5789POPC   C3B12957  18.507   6.615   7.953
 5789POPC   C4B12958  18.572   6.602   7.653
 5790POPC   NC312959  18.322   5.900   9.453
 5790POPC   PO412960  18.267   5.880   9.153
 5790POPC   GL112961  18.253   5.892   8.853
 5790POPC   GL212962  18.227   5.759   8.853
 5790POPC   C1A12963  18.233   5.820   8.553
 5790POPC   D2A12964  18.248   5.915   8.253
 5790POPC   C3A12965  18.254   5.904   7.953
 5790POPC   C4A12966  18.307   5.887   7.653
 5790POPC   C1B12967  18.074   5.742   8.553
 5790POPC   C2B12968  18.077   5.746   8.253
 5790POPC   C3B12969  18.122   5.725   7.953
 5790POPC   C4B12970  18.113   5.680   7.653
 5791POPC   NC312971  36.865  28.327   9.453
 5791POPC   PO412972  36.863  28.350   9.153
 5791POPC   GL112973  36.915  28.320   8.853
 5791POPC   GL212974  37.058  28.399   8.853
 5791POPC   C1A12975  36.916  28.399   8.553
 5791POPC   D2A12976  36.871  28.409   8.253
 5791POPC   C3A12977  36.884  28.370   7.953
 5791POPC   C4A12978  36.943  28.340   7.653
 5791POPC   C1B12979  37.113  28.434   8.553
 5791POPC   C2B12980  37.174  28.402   8.253
 5791POPC   C3B12981  37.179  28.440   7.953
 5791POPC   C4B12982  37.186  28.384   7.653
 5792POPC   NC312983  37.629   3.572   9.453
 5792POPC   PO412984  37.658   3.555   9.153
 5792POPC   GL112985  37.674   3.513   8.853
 5792POPC   GL212986  37.558   3.615   8.853
 5792POPC   C1A12987  37.669   3.574   8.553
 5792POPC   D2A12988  37.663   3.553   8.253
 5792POPC   C3A12989  37.729   3.519   7.953
 5792POPC   C4A12990  37.723   3.566   7.653
 5792POPC   C1B12991  37.456   3.643   8.553
 5792POPC   C2B12992  37.411   3.631   8.253
 5792POPC   C3B12993  37.472   3.613   7.953
 5792POPC   C4B12994  37.487   3.626   7.653
 5793POPC   NC312995  19.835  33.023   9.453
 5793POPC   PO412996  19.811  33.003   9.153
 5793POPC   GL112997  19.834  32.977   8.853
 5793POPC   GL212998  19.894  33.146   8.853
 5793POPC   C1A12999  19.825  33.056   8.553
 5793POPC   D2A13000  19.820  32.982   8.253
 5793POPC   C3A13001  19.802  33.019   7.953
 5793POPC   C4A13002  19.816  33.011   7.653
 5793POPC   C1B13003  19.994  33.278   8.553
 5793POPC   C2B13004  19.939  33.278   8.253
 5793POPC   C3B13005  19.921  33.237   7.953
 5793POPC   C4B13006  19.957  33.267   7.653
 5794POPC   NC313007   6.633   5.896   9.453
 5794POPC   PO413008   6.616   5.911   9.153
 5794POPC   GL113009   6.668   5.916   8.853
 5794POPC   GL213010   6.732   5.719   8.853
 5794POPC   C1A13011   6.608   5.854   8.553
 5794POPC   D2A13012   6.601   5.865   8.253
 5794POPC   C3A13013   6.680   5.882   7.953
 5794POPC   C4A13014   6.600   5.894   7.653
 5794POPC   C1B13015   6.771   5.598   8.553
 5794POPC   C2B13016   6.800   5.623   8.253
 5794POPC   C3B13017   6.800   5.666   7.953
 5794POPC   C4B13018   6.741   5.667   7.653
 5795POPC   NC313019  36.948  22.967   9.453
 5795POPC   PO413020  36.891  22.947   9.153
 5795POPC   GL113021  36.901  22.987   8.853
 5795POPC   GL213022  36.869  23.071   8.853
 5795POPC   C1A13023  36.901  22.984   8.553
 5795POPC   D2A13024  36.891  22.939   8.253
 5795POPC   C3A13025  36.882  22.945   7.953
 5795POPC   C4A13026  36.864  22.905   7.653
 5795POPC   C1B13027  36.759  23.171   8.553
 5795POPC   C2B13028  36.739  23.187   8.253
 5795POPC   C3B13029  36.806  23.130   7.953
 5795POPC   C4B13030  36.796  23.168   7.653
 5796POPC   NC313031  29.961   5.864   9.453
 5796POPC   PO413032  29.970   5.884   9.153
 5796POPC   GL113033  29.881   5.908   8.853
 5796POPC   GL213034  30.071   5.776   8.853
 5796POPC   C1A13035  29.968   5.897   8.553
 5796POPC   D2A13036  29.898   5.895   8.253
 5796POPC   C3A13037  29.940   5.829   7.953
 5796POPC   C4A13038  29.927   5.874   7.653
 5796POPC   C1B13039  30.120   5.689   8.553
 5796POPC   C2B13040  30.164   5.753   8.253
 5796POPC   C3B13041  30.080   5.752   7.953
 5796POPC   C4B13042  30.130   5.737   7.653
 5797POPC   NC313043  15.169  26.796   9.453
 5797POPC   PO413044  15.192  26.793   9.153
 5797POPC   GL113045  15.168  26.797   8.853
 5797POPC   GL213046  15.255  26.872   8.853
 5797POPC   C1A13047  15.150  26.824   8.553
 5797POPC   D2A13048  15.216  26.854   8.253
 5797POPC   C3A13049  15.146  26.816   7.953
 5797POPC   C4A13050  15.200  26.781   7.653
 5797POPC   C1B13051  15.419  26.915   8.553
 5797POPC   C2B13052  15.388  26.912   8.253
 5797POPC   C3B13053  15.422  26.877   7.953
 5797POPC   C4B13054  15.411  26.934   7.653
 5798POPC   NC313055  35.376  11.287   9.453
 5798POPC   PO413056  35.361  11.311   9.153
 5798POPC   GL113057  35.343  11.326   8.853
 5798POPC   GL213058  35.237  11.401   8.853
 5798POPC   C1A13059  35.334  11.267   8.553
 5798POPC   D2A13060  35.346  11.274   8.253
 5798POPC   C3A13061  35.366  11.323   7.953
 5798POPC   C4A13062  35.353  11.293   7.653
 5798POPC   C1B13063  35.095  11.443   8.553
 5798POPC   C2B13064  35.140  11.427   8.253
 5798POPC   C3B13065  35.161  11.420   7.953
 5798POPC   C4B13066  35.170  11.395   7.653
 5799POPC   NC313067  29.922  18.249   9.453
 5799POPC   PO413068  29.964  18.312   9.153
 5799POPC   GL113069  29.912  18.325   8.853
 5799POPC   GL213070  29.881  18.451   8.853
 5799POPC   C1A13071  29.943  18.264   8.553
 5799POPC   D2A13072  29.907  18.311   8.253
 5799POPC   C3A13073  29.886  18.271   7.953
 5799POPC   C4A13074  29.905  18.253   7.653
 5799POPC   C1B13075  29.886  18.579   8.553
 5799POPC   C2B13076  29.957  18.542   8.253
 5799POPC   C3B13077  29.908  18.572   7.953
 5799POPC   C4B13078  29.915  18.517   7.653
 5800POPC   NC313079  18.241  24.498   9.453
 5800POPC   PO413080  18.327  24.470   9.153
 5800POPC   GL113081  18.287  24.511   8.853
 5800POPC   GL213082  18.171  24.368   8.853
 5800POPC   C1A13083  18.303  24.491   8.553
 5800POPC   D2A13084  18.263  24.443   8.253
 5800POPC   C3A13085  18.297  24.529   7.953
 5800POPC   C4A13086  18.256  24.445   7.653
 5800POPC   C1B13087  18.082  24.358   8.553
 5800POPC   C2B13088  18.062  24.389   8.253
 5800POPC   C3B13089  18.044  24.357   7.953
 5800POPC   C4B13090  18.090  24.332   7.653
 5801POPC   NC313091  29.966  12.098   9.453
 5801POPC   PO413092  29.875  12.081   9.153
 5801POPC   GL113093  29.928  12.098   8.853
 5801POPC   GL213094  30.058  12.135   8.853
 5801POPC   C1A13095  29.962  12.077   8.553
 5801POPC   D2A13096  29.904  12.088   8.253
 5801POPC   C3A13097  29.883  12.056   7.953
 5801POPC   C4A13098  29.930  12.042   7.653
 5801POPC   C1B13099  30.204  12.095   8.553
 5801POPC   C2B13100  30.174  12.101   8.253
 5801POPC   C3B13101  30.183  12.103   7.953
 5801POPC   C4B13102  30.200  12.131   7.653
 5802POPC   NC313103  24.536   2.026   9.453
 5802POPC   PO413104  24.494   2.035   9.153
 5802POPC   GL113105  24.442   1.946   8.853
 5802POPC   GL213106  24.560   1.934   8.853
 5802POPC   C1A13107  24.507   1.988   8.553
 5802POPC   D2A13108  24.473   2.004   8.253
 5802POPC   C3A13109  24.467   1.991   7.953
 5802POPC   C4A13110  24.521   1.942   7.653
 5802POPC   C1B13111  24.649   1.814   8.553
 5802POPC   C2B13112  24.629   1.749   8.253
 5802POPC   C3B13113  24.651   1.776   7.953
 5802POPC   C4B13114  24.605   1.770   7.653
 5803POPC   NC313115   4.346   8.965   9.453
 5803POPC   PO413116   4.310   8.973   9.153
 5803POPC   GL113117   4.288   8.974   8.853
 5803POPC   GL213118   4.328   9.119   8.853
 5803POPC   C1A13119   4.320   8.947   8.553
 5803POPC   D2A13120   4.306   9.018   8.253
 5803POPC   C3A13121   4.310   8.963   7.953
 5803POPC   C4A13122   4.277   8.998   7.653
 5803POPC   C1B13123   4.294   9.256   8.553
 5803POPC   C2B13124   4.293   9.200   8.253
 5803POPC   C3B13125   4.254   9.219   7.953
 5803POPC   C4B13126   4.226   9.204   7.653
 5804POPC   NC313127  37.668  28.338   9.453
 5804POPC   PO413128  37.720  28.327   9.153
 5804POPC   GL113129  37.671  28.338   8.853
 5804POPC   GL213130  37.707  28.201   8.853
 5804POPC   C1A13131  37.659  28.322   8.553
 5804POPC   D2A13132  37.696  28.412   8.253
 5804POPC   C3A13133  37.706  28.392   7.953
 5804POPC   C4A13134  37.679  28.387   7.653
 5804POPC   C1B13135  37.623  28.159   8.553
 5804POPC   C2B13136  37.637  28.150   8.253
 5804POPC   C3B13137  37.658  28.079   7.953
 5804POPC   C4B13138  37.643  28.138   7.653
 5805POPC   NC313139   0.475  23.686   9.453
 5805POPC   PO413140   0.446  23.716   9.153
 5805POPC   GL113141   0.433  23.705   8.853
 5805POPC   GL213142   0.434  23.559   8.853
 5805POPC   C1A13143   0.389  23.678   8.553
 5805POPC   D2A13144   0.422  23.713   8.253
 5805POPC   C3A13145   0.403  23.729   7.953
 5805POPC   C4A13146   0.408  23.720   7.653
 5805POPC   C1B13147   0.403  23.425   8.553
 5805POPC   C2B13148   0.436  23.504   8.253
 5805POPC   C3B13149   0.421  23.472   7.953
 5805POPC   C4B13150   0.421  23.492   7.653
 5806POPC   NC313151  19.089  39.228   9.453
 5806POPC   PO413152  19.086  39.250   9.153
 5806POPC   GL113153  19.075  39.238   8.853
 5806POPC   GL213154  19.056  39.137   8.853
 5806POPC   C1A13155  19.009  39.270   8.553
 5806POPC   D2A13156  19.012  39.255   8.253
 5806POPC   C3A13157  19.051  39.261   7.953
 5806POPC   C4A13158  19.058  39.259   7.653
 5806POPC   C1B13159  19.006  39.020   8.553
 5806POPC   C2B13160  19.025  38.951   8.253
 5806POPC   C3B13161  19.045  39.009   7.953
 5806POPC   C4B13162  19.036  38.946   7.653
 5807POPC   NC313163  32.978  27.639   9.453
 5807POPC   PO413164  32.982  27.551   9.153
 5807POPC   GL113165  33.020  27.560   8.853
 5807POPC   GL213166  33.022  27.690   8.853
 5807POPC   C1A13167  33.024  27.589   8.553
 5807POPC   D2A13168  33.031  27.631   8.253
 5807POPC   C3A13169  33.071  27.622   7.953
 5807POPC   C4A13170  33.022  27.553   7.653
 5807POPC   C1B13171  33.081  27.832   8.553
 5807POPC   C2B13172  33.112  27.873   8.253
 5807POPC   C3B13173  33.072  27.812   7.953
 5807POPC   C4B13174  33.157  27.783   7.653
 5808POPC   NC313175  42.355  12.821   9.453
 5808POPC   PO413176  42.383  12.882   9.153
 5808POPC   GL113177  42.383  12.898   8.853
 5808POPC   GL213178  42.217  12.972   8.853
 5808POPC   C1A13179  42.333  12.830   8.553
 5808POPC   D2A13180  42.377  12.850   8.253
 5808POPC   C3A13181  42.383  12.844   7.953
 5808POPC   C4A13182  42.336  12.893   7.653
 5808POPC   C1B13183  42.124  12.996   8.553
 5808POPC   C2B13184  42.166  13.030   8.253
 5808POPC   C3B13185  42.113  13.013   7.953
 5808POPC   C4B13186  42.185  12.991   7.653
 5809POPC   NC313187  18.301  19.046   9.453
 5809POPC   PO413188  18.310  19.022   9.153
 5809POPC   GL113189  18.272  19.100   8.853
 5809POPC   GL213190  18.343  18.902   8.853
 5809POPC   C1A13191  18.274  19.032   8.553
 5809POPC   D2A13192  18.253  19.048   8.253
 5809POPC   C3A13193  18.308  19.078   7.953
 5809POPC   C4A13194  18.287  19.078   7.653
 5809POPC   C1B13195  18.308  18.777   8.553
 5809POPC   C2B13196  18.297  18.845   8.253
 5809POPC   C3B13197  18.346  18.857   7.953
 5809POPC   C4B13198  18.339  18.773   7.653
 5810POPC   NC313199  38.449  38.435   9.453
 5810POPC   PO413200  38.430  38.451   9.153
 5810POPC   GL113201  38.443  38.492   8.853
 5810POPC   GL213202  38.549  38.535   8.853
 5810POPC   C1A13203  38.483  38.442   8.553
 5810POPC   D2A13204  38.439  38.442   8.253
 5810POPC   C3A13205  38.494  38.467   7.953
 5810POPC   C4A13206  38.407  38.491   7.653
 5810POPC   C1B13207  38.554  38.702   8.553
 5810POPC   C2B13208  38.561  38.700   8.253
 5810POPC   C3B13209  38.500  38.721   7.953
 5810POPC   C4B13210  38.557  38.661   7.653
 5811POPC   NC313211   0.411  12.803   9.453
 5811POPC   PO413212   0.400  12.893   9.153
 5811POPC   GL113213   0.428  12.809   8.853
 5811POPC   GL213214   0.407  12.983   8.853
 5811POPC   C1A13215   0.396  12.901   8.553
 5811POPC   D2A13216   0.452  12.842   8.253
 5811POPC   C3A13217   0.451  12.853   7.953
 5811POPC   C4A13218   0.395  12.826   7.653
 5811POPC   C1B13219   0.310  13.052   8.553
 5811POPC   C2B13220   0.315  13.028   8.253
 5811POPC   C3B13221   0.282  13.122   7.953
 5811POPC   C4B13222   0.332  13.101   7.653
 5812POPC   NC313223   2.753  20.567   9.453
 5812POPC   PO413224   2.774  20.597   9.153
 5812POPC   GL113225   2.813  20.648   8.853
 5812POPC   GL213226   2.807  20.502   8.853
 5812POPC   C1A13227   2.764  20.592   8.553
 5812POPC   D2A13228   2.766  20.604   8.253
 5812POPC   C3A13229   2.748  20.565   7.953
 5812POPC   C4A13230   2.757  20.646   7.653
 5812POPC   C1B13231   2.819  20.398   8.553
 5812POPC   C2B13232   2.778  20.327   8.253
 5812POPC   C3B13233   2.856  20.377   7.953
 5812POPC   C4B13234   2.840  20.377   7.653
 5813POPC   NC313235  26.081  37.631   9.453
 5813POPC   PO413236  26.085  37.637   9.153
 5813POPC   GL113237  26.064  37.688   8.853
 5813POPC   GL213238  26.111  37.561   8.853
 5813POPC   C1A13239  26.046  37.688   8.553
 5813POPC   D2A13240  26.060  37.717   8.253
 5813POPC   C3A13241  26.016  37.654   7.953
 5813POPC   C4A13242  26.037  37.717   7.653
 5813POPC   C1B13243  26.112  37.480   8.553
 5813POPC   C2B13244  26.107  37.411   8.253
 5813POPC   C3B13245  26.154  37.460   7.953
 5813POPC   C4B13246  26.114  37.404   7.653
 5814POPC   NC313247   6.657  37.720   9.453
 5814POPC   PO413248   6.687  37.700   9.153
 5814POPC   GL113249   6.668  37.694   8.853
 5814POPC   GL213250   6.812  37.692   8.853
 5814POPC   C1A13251   6.608  37.687   8.553
 5814POPC   D2A13252   6.633  37.684   8.253
 5814POPC   C3A13253   6.687  37.676   7.953
 5814POPC   C4A13254   6.602  37.664   7.653
 5814POPC   C1B13255   6.846  37.784   8.553
 5814POPC   C2B13256   6.904  37.751   8.253
 5814POPC   C3B13257   6.855  37.744   7.953
 5814POPC   C4B13258   6.857  37.772   7.653
 5815POPC   NC313259  19.801  36.945   9.453
 5815POPC   PO413260  19.795  36.904   9.153
 5815POPC   GL113261  19.819  36.863   8.853
 5815POPC   GL213262  19.961  36.969   8.853
 5815POPC   C1A13263  19.804  36.884   8.553
 5815POPC   D2A13264  19.881  36.944   8.253
 5815POPC   C3A13265  19.843  36.884   7.953
 5815POPC   C4A13266  19.880  36.916   7.653
 5815POPC   C1B13267  20.048  37.107   8.553
 5815POPC   C2B13268  20.065  37.076   8.253
 5815POPC   C3B13269  19.982  37.060   7.953
 5815POPC   C4B13270  20.017  37.120   7.653
 5816POPC   NC313271   3.558  12.066   9.453
 5816POPC   PO413272   3.562  12.066   9.153
 5816POPC   GL113273   3.506  12.039   8.853
 5816POPC   GL213274   3.669  12.044   8.853
 5816POPC   C1A13275   3.591  12.052   8.553
 5816POPC   D2A13276   3.578  12.101   8.253
 5816POPC   C3A13277   3.574  12.117   7.953
 5816POPC   C4A13278   3.574  12.030   7.653
 5816POPC   C1B13279   3.821  12.034   8.553
 5816POPC   C2B13280   3.743  12.085   8.253
 5816POPC   C3B13281   3.815  12.058   7.953
 5816POPC   C4B13282   3.812  12.100   7.653
 5817POPC   NC313283  27.620  39.982   9.453
 5817POPC   PO413284  27.566  40.056   9.153
 5817POPC   GL113285  27.635  39.977   8.853
 5817POPC   GL213286  27.487  39.947   8.853
 5817POPC   C1A13287  27.549  40.016   8.553
 5817POPC   D2A13288  27.570  40.030   8.253
 5817POPC   C3A13289  27.546  40.025   7.953
 5817POPC   C4A13290  27.557  40.001   7.653
 5817POPC   C1B13291  27.446  39.807   8.553
 5817POPC   C2B13292  27.456  39.798   8.253
 5817POPC   C3B13293  27.414  39.838   7.953
 5817POPC   C4B13294  27.459  39.805   7.653
 5818POPC   NC313295  22.974  11.348   9.453
 5818POPC   PO413296  22.896  11.309   9.153
 5818POPC   GL113297  22.906  11.336   8.853
 5818POPC   GL213298  22.991  11.166   8.853
 5818POPC   C1A13299  22.934  11.277   8.553
 5818POPC   D2A13300  22.981  11.276   8.253
 5818POPC   C3A13301  22.930  11.334   7.953
 5818POPC   C4A13302  22.959  11.260   7.653
 5818POPC   C1B13303  23.099  11.121   8.553
 5818POPC   C2B13304  23.107  11.125   8.253
 5818POPC   C3B13305  23.082  11.082   7.953
 5818POPC   C4B13306  23.125  11.101   7.653
 5819POPC   NC313307   2.804  32.201   9.453
 5819POPC   PO413308   2.785  32.224   9.153
 5819POPC   GL113309   2.806  32.240   8.853
 5819POPC   GL213310   2.832  32.077   8.853
 5819POPC   C1A13311   2.717  32.287   8.553
 5819POPC   D2A13312   2.734  32.256   8.253
 5819POPC   C3A13313   2.770  32.248   7.953
 5819POPC   C4A13314   2.801  32.250   7.653
 5819POPC   C1B13315   2.845  32.019   8.553
 5819POPC   C2B13316   2.804  32.041   8.253
 5819POPC   C3B13317   2.871  31.970   7.953
 5819POPC   C4B13318   2.823  32.015   7.653
 5820POPC   NC313319  19.103  24.453   9.453
 5820POPC   PO413320  19.059  24.533   9.153
 5820POPC   GL113321  19.083  24.503   8.853
 5820POPC   GL213322  18.971  24.395   8.853
 5820POPC   C1A13323  19.053  24.515   8.553
 5820POPC   D2A13324  19.050  24.457   8.253
 5820POPC   C3A13325  19.025  24.495   7.953
 5820POPC   C4A13326  19.093  24.537   7.653
 5820POPC   C1B13327  18.860  24.347   8.553
 5820POPC   C2B13328  18.806  24.397   8.253
 5820POPC   C3B13329  18.823  24.398   7.953
 5820POPC   C4B13330  18.813  24.324   7.653
 5821POPC   NC313331  10.508  15.989   9.453
 5821POPC   PO413332  10.518  15.914   9.153
 5821POPC   GL113333  10.489  15.947   8.853
 5821POPC   GL213334  10.387  15.961   8.853
 5821POPC   C1A13335  10.545  15.962   8.553
 5821POPC   D2A13336  10.479  15.987   8.253
 5821POPC   C3A13337  10.497  15.937   7.953
 5821POPC   C4A13338  10.561  15.946   7.653
 5821POPC   C1B13339  10.318  15.911   8.553
 5821POPC   C2B13340  10.244  15.943   8.253
 5821POPC   C3B13341  10.299  15.935   7.953
 5821POPC   C4B13342  10.240  15.932   7.653
 5822POPC   NC313343  33.043  43.106   9.453
 5822POPC   PO413344  32.990  43.133   9.153
 5822POPC   GL113345  32.975  43.110   8.853
 5822POPC   GL213346  33.050  43.012   8.853
 5822POPC   C1A13347  33.009  43.101   8.553
 5822POPC   D2A13348  33.072  43.122   8.253
 5822POPC   C3A13349  33.011  43.157   7.953
 5822POPC   C4A13350  33.047  43.153   7.653
 5822POPC   C1B13351  33.099  42.815   8.553
 5822POPC   C2B13352  33.094  42.857   8.253
 5822POPC   C3B13353  33.061  42.837   7.953
 5822POPC   C4B13354  33.029  42.900   7.653
 5823POPC   NC313355  14.395  33.786   9.453
 5823POPC   PO413356  14.453  33.778   9.153
 5823POPC   GL113357  14.401  33.794   8.853
 5823POPC   GL213358  14.521  33.801   8.853
 5823POPC   C1A13359  14.382  33.817   8.553
 5823POPC   D2A13360  14.395  33.798   8.253
 5823POPC   C3A13361  14.357  33.808   7.953
 5823POPC   C4A13362  14.372  33.789   7.653
 5823POPC   C1B13363  14.617  33.761   8.553
 5823POPC   C2B13364  14.607  33.847   8.253
 5823POPC   C3B13365  14.604  33.817   7.953
 5823POPC   C4B13366  14.638  33.812   7.653
 5824POPC   NC313367  21.430  22.897   9.453
 5824POPC   PO413368  21.412  22.976   9.153
 5824POPC   GL113369  21.377  22.900   8.853
 5824POPC   GL213370  21.355  23.066   8.853
 5824POPC   C1A13371  21.400  22.892   8.553
 5824POPC   D2A13372  21.360  22.946   8.253
 5824POPC   C3A13373  21.404  22.917   7.953
 5824POPC   C4A13374  21.424  22.948   7.653
 5824POPC   C1B13375  21.283  23.209   8.553
 5824POPC   C2B13376  21.347  23.168   8.253
 5824POPC   C3B13377  21.308  23.179   7.953
 5824POPC   C4B13378  21.296  23.125   7.653
 5825POPC   NC313379  24.494  44.702   9.453
 5825POPC   PO413380  24.484  44.615   9.153
 5825POPC   GL113381  24.469  44.650   8.853
 5825POPC   GL213382  24.620  44.713   8.853
 5825POPC   C1A13383  24.536  44.692   8.553
 5825POPC   D2A13384  24.466  44.668   8.253
 5825POPC   C3A13385  24.440  44.702   7.953
 5825POPC   C4A13386  24.539  44.633   7.653
 5825POPC   C1B13387  24.653  44.800   8.553
 5825POPC   C2B13388  24.702  44.845   8.253
 5825POPC   C3B13389  24.691  44.837   7.953
 5825POPC   C4B13390  24.640  44.807   7.653
 5826POPC   NC313391  25.245  43.078   9.453
 5826POPC   PO413392  25.314  43.139   9.153
 5826POPC   GL113393  25.308  43.104   8.853
 5826POPC   GL213394  25.174  43.206   8.853
 5826POPC   C1A13395  25.257  43.079   8.553
 5826POPC   D2A13396  25.281  43.128   8.253
 5826POPC   C3A13397  25.231  43.075   7.953
 5826POPC   C4A13398  25.301  43.065   7.653
 5826POPC   C1B13399  25.129  43.270   8.553
 5826POPC   C2B13400  25.073  43.361   8.253
 5826POPC   C3B13401  25.084  43.357   7.953
 5826POPC   C4B13402  25.072  43.274   7.653
 5827POPC   NC313403  15.146   9.744   9.453
 5827POPC   PO413404  15.159   9.745   9.153
 5827POPC   GL113405  15.156   9.736   8.853
 5827POPC   GL213406  15.228   9.663   8.853
 5827POPC   C1A13407  15.216   9.742   8.553
 5827POPC   D2A13408  15.205   9.729   8.253
 5827POPC   C3A13409  15.130   9.702   7.953
 5827POPC   C4A13410  15.182   9.772   7.653
 5827POPC   C1B13411  15.396   9.626   8.553
 5827POPC   C2B13412  15.331   9.570   8.253
 5827POPC   C3B13413  15.391   9.591   7.953
 5827POPC   C4B13414  15.324   9.629   7.653
 5828POPC   NC313415  35.397  13.660   9.453
 5828POPC   PO413416  35.384  13.620   9.153
 5828POPC   GL113417  35.356  13.620   8.853
 5828POPC   GL213418  35.471  13.494   8.853
 5828POPC   C1A13419  35.314  13.585   8.553
 5828POPC   D2A13420  35.374  13.659   8.253
 5828POPC   C3A13421  35.312  13.602   7.953
 5828POPC   C4A13422  35.327  13.596   7.653
 5828POPC   C1B13423  35.461  13.394   8.553
 5828POPC   C2B13424  35.496  13.442   8.253
 5828POPC   C3B13425  35.522  13.450   7.953
 5828POPC   C4B13426  35.490  13.471   7.653
 5829POPC   NC313427  29.164  23.671   9.453
 5829POPC   PO413428  29.101  23.732   9.153
 5829POPC   GL113429  29.134  23.745   8.853
 5829POPC   GL213430  29.200  23.767   8.853
 5829POPC   C1A13431  29.148  23.671   8.553
 5829POPC   D2A13432  29.101  23.722   8.253
 5829POPC   C3A13433  29.164  23.713   7.953
 5829POPC   C4A13434  29.165  23.676   7.653
 5829POPC   C1B13435  29.392  23.897   8.553
 5829POPC   C2B13436  29.351  23.869   8.253
 5829POPC   C3B13437  29.365  23.878   7.953
 5829POPC   C4B13438  29.312  23.814   7.653
 5830POPC   NC313439  36.086   5.826   9.453
 5830POPC   PO413440  36.110   5.912   9.153
 5830POPC   GL113441  36.087   5.882   8.853
 5830POPC   GL213442  36.037   5.800   8.853
 5830POPC   C1A13443  36.140   5.918   8.553
 5830POPC   D2A13444  36.123   5.844   8.253
 5830POPC   C3A13445  36.141   5.893   7.953
 5830POPC   C4A13446  36.164   5.877   7.653
 5830POPC   C1B13447  36.026   5.599   8.553
 5830POPC   C2B13448  36.009   5.638   8.253
 5830POPC   C3B13449  35.969   5.656   7.953
 5830POPC   C4B13450  36.021   5.656   7.653
 5831POPC   NC313451   5.915  31.462   9.453
 5831POPC   PO413452   5.845  31.520   9.153
 5831POPC   GL113453   5.885  31.446   8.853
 5831POPC   GL213454   5.867  31.586   8.853
 5831POPC   C1A13455   5.917  31.430   8.553
 5831POPC   D2A13456   5.844  31.477   8.253
 5831POPC   C3A13457   5.909  31.448   7.953
 5831POPC   C4A13458   5.888  31.462   7.653
 5831POPC   C1B13459   5.832  31.764   8.553
 5831POPC   C2B13460   5.795  31.672   8.253
 5831POPC   C3B13461   5.866  31.748   7.953
 5831POPC   C4B13462   5.867  31.752   7.653
 5832POPC   NC313463   8.237  36.876   9.453
 5832POPC   PO413464   8.218  36.941   9.153
 5832POPC   GL113465   8.179  36.898   8.853
 5832POPC   GL213466   8.368  36.845   8.853
 5832POPC   C1A13467   8.235  36.901   8.553
 5832POPC   D2A13468   8.229  36.889   8.253
 5832POPC   C3A13469   8.238  36.867   7.953
 5832POPC   C4A13470   8.173  36.912   7.653
 5832POPC   C1B13471   8.433  36.890   8.553
 5832POPC   C2B13472   8.481  36.803   8.253
 5832POPC   C3B13473   8.442  36.887   7.953
 5832POPC   C4B13474   8.437  36.820   7.653
 5833POPC   NC313475  35.326   7.417   9.453
 5833POPC   PO413476  35.386   7.465   9.153
 5833POPC   GL113477  35.387   7.372   8.853
 5833POPC   GL213478  35.328   7.540   8.853
 5833POPC   C1A13479  35.394   7.413   8.553
 5833POPC   D2A13480  35.375   7.456   8.253
 5833POPC   C3A13481  35.399   7.392   7.953
 5833POPC   C4A13482  35.360   7.468   7.653
 5833POPC   C1B13483  35.327   7.670   8.553
 5833POPC   C2B13484  35.399   7.686   8.253
 5833POPC   C3B13485  35.354   7.701   7.953
 5833POPC   C4B13486  35.311   7.683   7.653
 5834POPC   NC313487  37.668  37.674   9.453
 5834POPC   PO413488  37.674  37.692   9.153
 5834POPC   GL113489  37.647  37.642   8.853
 5834POPC   GL213490  37.669  37.798   8.853
 5834POPC   C1A13491  37.636  37.664   8.553
 5834POPC   D2A13492  37.654  37.677   8.253
 5834POPC   C3A13493  37.654  37.658   7.953
 5834POPC   C4A13494  37.706  37.630   7.653
 5834POPC   C1B13495  37.680  37.946   8.553
 5834POPC   C2B13496  37.664  37.899   8.253
 5834POPC   C3B13497  37.645  37.964   7.953
 5834POPC   C4B13498  37.607  37.885   7.653
 5835POPC   NC313499  44.684  37.728   9.453
 5835POPC   PO413500  44.655  37.690   9.153
 5835POPC   GL113501  44.712  37.672   8.853
 5835POPC   GL213502  44.520  37.640   8.853
 5835POPC   C1A13503  44.711  37.714   8.553
 5835POPC   D2A13504  44.668  37.687   8.253
 5835POPC   C3A13505  44.648  37.700   7.953
 5835POPC   C4A13506  44.645  37.633   7.653
 5835POPC   C1B13507  44.426  37.691   8.553
 5835POPC   C2B13508  44.435  37.685   8.253
 5835POPC   C3B13509  44.412  37.653   7.953
 5835POPC   C4B13510  44.364  37.676   7.653
 5836POPC   NC313511  36.118  34.562   9.453
 5836POPC   PO413512  36.096  34.534   9.153
 5836POPC   GL113513  36.150  34.540   8.853
 5836POPC   GL213514  36.217  34.696   8.853
 5836POPC   C1A13515  36.091  34.588   8.553
 5836POPC   D2A13516  36.149  34.555   8.253
 5836POPC   C3A13517  36.128  34.595   7.953
 5836POPC   C4A13518  36.093  34.562   7.653
 5836POPC   C1B13519  36.333  34.688   8.553
 5836POPC   C2B13520  36.335  34.736   8.253
 5836POPC   C3B13521  36.312  34.733   7.953
 5836POPC   C4B13522  36.283  34.692   7.653
 5837POPC   NC313523  23.716  43.157   9.453
 5837POPC   PO413524  23.748  43.146   9.153
 5837POPC   GL113525  23.755  43.131   8.853
 5837POPC   GL213526  23.588  43.128   8.853
 5837POPC   C1A13527  23.763  43.152   8.553
 5837POPC   D2A13528  23.726  43.085   8.253
 5837POPC   C3A13529  23.722  43.118   7.953
 5837POPC   C4A13530  23.719  43.130   7.653
 5837POPC   C1B13531  23.489  43.042   8.553
 5837POPC   C2B13532  23.420  43.087   8.253
 5837POPC   C3B13533  23.458  43.114   7.953
 5837POPC   C4B13534  23.432  43.129   7.653
 5838POPC   NC313535   5.876  36.118   9.453
 5838POPC   PO413536   5.853  36.171   9.153
 5838POPC   GL113537   5.886  36.164   8.853
 5838POPC   GL213538   5.877  36.232   8.853
 5838POPC   C1A13539   5.831  36.162   8.553
 5838POPC   D2A13540   5.829  36.165   8.253
 5838POPC   C3A13541   5.864  36.121   7.953
 5838POPC   C4A13542   5.877  36.168   7.653
 5838POPC   C1B13543   5.942  36.367   8.553
 5838POPC   C2B13544   5.873  36.328   8.253
 5838POPC   C3B13545   5.864  36.365   7.953
 5838POPC   C4B13546   5.909  36.396   7.653
 5839POPC   NC313547  42.381  32.281   9.453
 5839POPC   PO413548  42.359  32.293   9.153
 5839POPC   GL113549  42.368  32.265   8.853
 5839POPC   GL213550  42.453  32.263   8.853
 5839POPC   C1A13551  42.311  32.280   8.553
 5839POPC   D2A13552  42.303  32.242   8.253
 5839POPC   C3A13553  42.339  32.231   7.953
 5839POPC   C4A13554  42.328  32.216   7.653
 5839POPC   C1B13555  42.522  32.352   8.553
 5839POPC   C2B13556  42.600  32.376   8.253
 5839POPC   C3B13557  42.559  32.326   7.953
 5839POPC   C4B13558  42.577  32.418   7.653
 5840POPC   NC313559  44.667  41.540   9.453
 5840POPC   PO413560  44.679  41.586   9.153
 5840POPC   GL113561  44.711  41.528   8.853
 5840POPC   GL213562  44.767  41.631   8.853
 5840POPC   C1A13563  44.665  41.602   8.553
 5840POPC   D2A13564  44.678  41.541   8.253
 5840POPC   C3A13565  44.680  41.608   7.953
 5840POPC   C4A13566  44.645  41.576   7.653
 5840POPC   C1B13567  44.784  41.787   8.553
 5840POPC   C2B13568  44.815  41.799   8.253
 5840POPC   C3B13569  44.812  41.773   7.953
 5840POPC   C4B13570  44.781  41.737   7.653
 5841POPC   NC313571  39.210  38.462   9.453
 5841POPC   PO413572  39.184  38.426   9.153
 5841POPC   GL113573  39.257  38.453   8.853
 5841POPC   GL213574  39.217  38.373   8.853
 5841POPC   C1A13575  39.274  38.410   8.553
 5841POPC   D2A13576  39.257  38.435   8.253
 5841POPC   C3A13577  39.253  38.472   7.953
 5841POPC   C4A13578  39.209  38.426   7.653
 5841POPC   C1B13579  39.221  38.157   8.553
 5841POPC   C2B13580  39.158  38.199   8.253
 5841POPC   C3B13581  39.187  38.251   7.953
 5841POPC   C4B13582  39.217  38.217   7.653
 5842POPC   NC313583  27.563  29.123   9.453
 5842POPC   PO413584  27.622  29.137   9.153
 5842POPC   GL113585  27.616  29.101   8.853
 5842POPC   GL213586  27.480  29.254   8.853
 5842POPC   C1A13587  27.604  29.110   8.553
 5842POPC   D2A13588  27.595  29.171   8.253
 5842POPC   C3A13589  27.557  29.136   7.953
 5842POPC   C4A13590  27.643  29.111   7.653
 5842POPC   C1B13591  27.441  29.302   8.553
 5842POPC   C2B13592  27.457  29.343   8.253
 5842POPC   C3B13593  27.422  29.356   7.953
 5842POPC   C4B13594  27.460  29.370   7.653
 5843POPC   NC313595  38.434   9.782   9.453
 5843POPC   PO413596  38.486   9.781   9.153
 5843POPC   GL113597  38.419   9.752   8.853
 5843POPC   GL213598  38.406   9.677   8.853
 5843POPC   C1A13599  38.476   9.724   8.553
 5843POPC   D2A13600  38.452   9.743   8.253
 5843POPC   C3A13601  38.421   9.747   7.953
 5843POPC   C4A13602  38.427   9.745   7.653
 5843POPC   C1B13603  38.400   9.495   8.553
 5843POPC   C2B13604  38.353   9.491   8.253
 5843POPC   C3B13605  38.335   9.491   7.953
 5843POPC   C4B13606  38.339   9.533   7.653
 5844POPC   NC313607   7.423  39.253   9.453
 5844POPC   PO413608   7.440  39.233   9.153
 5844POPC   GL113609   7.405  39.239   8.853
 5844POPC   GL213610   7.464  39.130   8.853
 5844POPC   C1A13611   7.377  39.231   8.553
 5844POPC   D2A13612   7.426  39.215   8.253
 5844POPC   C3A13613   7.372  39.196   7.953
 5844POPC   C4A13614   7.390  39.204   7.653
 5844POPC   C1B13615   7.610  38.986   8.553
 5844POPC   C2B13616   7.585  39.028   8.253
 5844POPC   C3B13617   7.561  39.031   7.953
 5844POPC   C4B13618   7.609  39.010   7.653
 5845POPC   NC313619   3.590  33.812   9.453
 5845POPC   PO413620   3.580  33.794   9.153
 5845POPC   GL113621   3.568  33.759   8.853
 5845POPC   GL213622   3.522  33.677   8.853
 5845POPC   C1A13623   3.557  33.794   8.553
 5845POPC   D2A13624   3.500  33.846   8.253
 5845POPC   C3A13625   3.525  33.840   7.953
 5845POPC   C4A13626   3.574  33.792   7.653
 5845POPC   C1B13627   3.517  33.587   8.553
 5845POPC   C2B13628   3.530  33.536   8.253
 5845POPC   C3B13629   3.548  33.522   7.953
 5845POPC   C4B13630   3.514  33.548   7.653
 5846POPC   NC313631  33.779   5.839   9.453
 5846POPC   PO413632  33.815   5.879   9.153
 5846POPC   GL113633  33.772   5.844   8.853
 5846POPC   GL213634  33.721   6.016   8.853
 5846POPC   C1A13635  33.825   5.859   8.553
 5846POPC   D2A13636  33.779   5.825   8.253
 5846POPC   C3A13637  33.784   5.901   7.953
 5846POPC   C4A13638  33.810   5.870   7.653
 5846POPC   C1B13639  33.729   6.106   8.553
 5846POPC   C2B13640  33.706   6.120   8.253
 5846POPC   C3B13641  33.710   6.124   7.953
 5846POPC   C4B13642  33.701   6.076   7.653
 5847POPC   NC313643  44.650  18.280   9.453
 5847POPC   PO413644  44.673  18.267   9.153
 5847POPC   GL113645  44.658  18.316   8.853
 5847POPC   GL213646  44.760  18.306   8.853
 5847POPC   C1A13647  44.704  18.289   8.553
 5847POPC   D2A13648  44.647  18.285   8.253
 5847POPC   C3A13649  44.681  18.299   7.953
 5847POPC   C4A13650  44.678  18.301   7.653
 5847POPC   C1B13651  44.915  18.418   8.553
 5847POPC   C2B13652  44.881  18.380   8.253
 5847POPC   C3B13653  44.882  18.420   7.953
 5847POPC   C4B13654  44.884  18.335   7.653
 5848POPC   NC313655  35.396  21.357   9.453
 5848POPC   PO413656  35.337  21.352   9.153
 5848POPC   GL113657  35.330  21.364   8.853
 5848POPC   GL213658  35.475  21.350   8.853
 5848POPC   C1A13659  35.385  21.381   8.553
 5848POPC   D2A13660  35.304  21.347   8.253
 5848POPC   C3A13661  35.333  21.339   7.953
 5848POPC   C4A13662  35.370  21.414   7.653
 5848POPC   C1B13663  35.586  21.400   8.553
 5848POPC   C2B13664  35.575  21.402   8.253
 5848POPC   C3B13665  35.614  21.379   7.953
 5848POPC   C4B13666  35.619  21.327   7.653
 5849POPC   NC313667  31.490  30.746   9.453
 5849POPC   PO413668  31.503  30.717   9.153
 5849POPC   GL113669  31.425  30.657   8.853
 5849POPC   GL213670  31.445  30.839   8.853
 5849POPC   C1A13671  31.495  30.738   8.553
 5849POPC   D2A13672  31.479  30.676   8.253
 5849POPC   C3A13673  31.424  30.655   7.953
 5849POPC   C4A13674  31.474  30.685   7.653
 5849POPC   C1B13675  31.395  30.918   8.553
 5849POPC   C2B13676  31.370  30.945   8.253
 5849POPC   C3B13677  31.371  30.880   7.953
 5849POPC   C4B13678  31.391  30.952   7.653
 5850POPC   NC313679  20.604   5.113   9.453
 5850POPC   PO413680  20.606   5.049   9.153
 5850POPC   GL113681  20.571   5.112   8.853
 5850POPC   GL213682  20.764   5.053   8.853
 5850POPC   C1A13683  20.613   5.044   8.553
 5850POPC   D2A13684  20.580   5.070   8.253
 5850POPC   C3A13685  20.592   5.112   7.953
 5850POPC   C4A13686  20.637   5.123   7.653
 5850POPC   C1B13687  20.903   5.084   8.553
 5850POPC   C2B13688  20.851   5.011   8.253
 5850POPC   C3B13689  20.857   5.004   7.953
 5850POPC   C4B13690  20.843   5.064   7.653
 5851POPC   NC313691  34.546  33.779   9.453
 5851POPC   PO413692  34.590  33.783   9.153
 5851POPC   GL113693  34.598  33.813   8.853
 5851POPC   GL213694  34.583  33.897   8.853
 5851POPC   C1A13695  34.546  33.802   8.553
 5851POPC   D2A13696  34.618  33.757   8.253
 5851POPC   C3A13697  34.547  33.752   7.953
 5851POPC   C4A13698  34.567  33.787   7.653
 5851POPC   C1B13699  34.570  34.017   8.553
 5851POPC   C2B13700  34.640  34.049   8.253
 5851POPC   C3B13701  34.604  34.068   7.953
 5851POPC   C4B13702  34.578  34.001   7.653
 5852POPC   NC313703   1.188  40.769   9.453
 5852POPC   PO413704   1.192  40.793   9.153
 5852POPC   GL113705   1.207  40.749   8.853
 5852POPC   GL213706   1.117  40.822   8.853
 5852POPC   C1A13707   1.181  40.776   8.553
 5852POPC   D2A13708   1.254  40.826   8.253
 5852POPC   C3A13709   1.256  40.792   7.953
 5852POPC   C4A13710   1.178  40.804   7.653
 5852POPC   C1B13711   0.997  40.796   8.553
 5852POPC   C2B13712   0.921  40.796   8.253
 5852POPC   C3B13713   0.931  40.864   7.953
 5852POPC   C4B13714   0.921  40.889   7.653
 5853POPC   NC313715  26.795  29.897   9.453
 5853POPC   PO413716  26.805  29.883   9.153
 5853POPC   GL113717  26.767  29.960   8.853
 5853POPC   GL213718  26.650  29.883   8.853
 5853POPC   C1A13719  26.819  29.910   8.553
 5853POPC   D2A13720  26.852  29.965   8.253
 5853POPC   C3A13721  26.865  29.879   7.953
 5853POPC   C4A13722  26.804  29.924   7.653
 5853POPC   C1B13723  26.559  29.873   8.553
 5853POPC   C2B13724  26.617  29.832   8.253
 5853POPC   C3B13725  26.538  29.874   7.953
 5853POPC   C4B13726  26.530  29.813   7.653
 5854POPC   NC313727  29.899  30.735   9.453
 5854POPC   PO413728  29.965  30.682   9.153
 5854POPC   GL113729  29.916  30.713   8.853
 5854POPC   GL213730  29.964  30.544   8.853
 5854POPC   C1A13731  29.903  30.746   8.553
 5854POPC   D2A13732  29.928  30.689   8.253
 5854POPC   C3A13733  29.895  30.711   7.953
 5854POPC   C4A13734  29.947  30.676   7.653
 5854POPC   C1B13735  29.928  30.442   8.553
 5854POPC   C2B13736  30.005  30.475   8.253
 5854POPC   C3B13737  29.995  30.418   7.953
 5854POPC   C4B13738  30.009  30.443   7.653
 5855POPC   NC313739   8.952  13.653   9.453
 5855POPC   PO413740   8.994  13.639   9.153
 5855POPC   GL113741   8.991  13.641   8.853
 5855POPC   GL213742   8.902  13.581   8.853
 5855POPC   C1A13743   8.957  13.663   8.553
 5855POPC   D2A13744   8.968  13.625   8.253
 5855POPC   C3A13745   8.995  13.595   7.953
 5855POPC   C4A13746   8.952  13.643   7.653
 5855POPC   C1B13747   8.720  13.549   8.553
 5855POPC   C2B13748   8.698  13.531   8.253
 5855POPC   C3B13749   8.726  13.533   7.953
 5855POPC   C4B13750   8.709  13.533   7.653
 5856POPC   NC313751   9.002  20.617   9.453
 5856POPC   PO413752   9.016  20.618   9.153
 5856POPC   GL113753   9.001  20.568   8.853
 5856POPC   GL213754   8.880  20.484   8.853
 5856POPC   C1A13755   9.022  20.621   8.553
 5856POPC   D2A13756   9.014  20.649   8.253
 5856POPC   C3A13757   8.973  20.599   7.953
 5856POPC   C4A13758   9.007  20.645   7.653
 5856POPC   C1B13759   8.793  20.389   8.553
 5856POPC   C2B13760   8.855  20.375   8.253
 5856POPC   C3B13761   8.877  20.418   7.953
 5856POPC   C4B13762   8.874  20.406   7.653
 5857POPC   NC313763  32.216  22.914   9.453
 5857POPC   PO413764  32.266  22.894   9.153
 5857POPC   GL113765  32.255  22.960   8.853
 5857POPC   GL213766  32.282  22.806   8.853
 5857POPC   C1A13767  32.275  22.952   8.553
 5857POPC   D2A13768  32.211  22.956   8.253
 5857POPC   C3A13769  32.264  22.912   7.953
 5857POPC   C4A13770  32.216  22.906   7.653
 5857POPC   C1B13771  32.388  22.745   8.553
 5857POPC   C2B13772  32.392  22.705   8.253
 5857POPC   C3B13773  32.393  22.737   7.953
 5857POPC   C4B13774  32.446  22.775   7.653
 5858POPC   NC313775  42.354   0.467   9.453
 5858POPC   PO413776  42.316   0.442   9.153
 5858POPC   GL113777  42.295   0.460   8.853
 5858POPC   GL213778  42.258   0.385   8.853
 5858POPC   C1A13779  42.370   0.388   8.553
 5858POPC   D2A13780  42.362   0.447   8.253
 5858POPC   C3A13781  42.306   0.481   7.953
 5858POPC   C4A13782  42.371   0.471   7.653
 5858POPC   C1B13783  42.119   0.338   8.553
 5858POPC   C2B13784  42.126   0.331   8.253
 5858POPC   C3B13785  42.051   0.300   7.953
 5858POPC   C4B13786  42.084   0.301   7.653
 5859POPC   NC313787   9.758  14.392   9.453
 5859POPC   PO413788   9.761  14.394   9.153
 5859POPC   GL113789   9.742  14.359   8.853
 5859POPC   GL213790   9.693  14.288   8.853
 5859POPC   C1A13791   9.790  14.441   8.553
 5859POPC   D2A13792   9.781  14.388   8.253
 5859POPC   C3A13793   9.717  14.415   7.953
 5859POPC   C4A13794   9.749  14.367   7.653
 5859POPC   C1B13795   9.552  14.216   8.553
 5859POPC   C2B13796   9.609  14.224   8.253
 5859POPC   C3B13797   9.539  14.257   7.953
 5859POPC   C4B13798   9.612  14.274   7.653
 5860POPC   NC313799  26.791  39.198   9.453
 5860POPC   PO413800  26.857  39.277   9.153
 5860POPC   GL113801  26.788  39.252   8.853
 5860POPC   GL213802  26.746  39.132   8.853
 5860POPC   C1A13803  26.848  39.200   8.553
 5860POPC   D2A13804  26.841  39.259   8.253
 5860POPC   C3A13805  26.790  39.262   7.953
 5860POPC   C4A13806  26.859  39.217   7.653
 5860POPC   C1B13807  26.718  38.997   8.553
 5860POPC   C2B13808  26.732  39.037   8.253
 5860POPC   C3B13809  26.801  38.958   7.953
 5860POPC   C4B13810  26.774  38.985   7.653
 5861POPC   NC313811  13.618   3.566   9.453
 5861POPC   PO413812  13.663   3.549   9.153
 5861POPC   GL113813  13.654   3.525   8.853
 5861POPC   GL213814  13.542   3.427   8.853
 5861POPC   C1A13815  13.585   3.578   8.553
 5861POPC   D2A13816  13.669   3.548   8.253
 5861POPC   C3A13817  13.625   3.550   7.953
 5861POPC   C4A13818  13.673   3.570   7.653
 5861POPC   C1B13819  13.484   3.351   8.553
 5861POPC   C2B13820  13.534   3.282   8.253
 5861POPC   C3B13821  13.462   3.362   7.953
 5861POPC   C4B13822  13.540   3.335   7.653
 5862POPC   NC313823  12.115  27.574   9.453
 5862POPC   PO413824  12.101  27.613   9.153
 5862POPC   GL113825  12.052  27.557   8.853
 5862POPC   GL213826  12.084  27.505   8.853
 5862POPC   C1A13827  12.062  27.631   8.553
 5862POPC   D2A13828  12.039  27.598   8.253
 5862POPC   C3A13829  12.103  27.588   7.953
 5862POPC   C4A13830  12.052  27.602   7.653
 5862POPC   C1B13831  12.083  27.299   8.553
 5862POPC   C2B13832  12.055  27.321   8.253
 5862POPC   C3B13833  12.034  27.359   7.953
 5862POPC   C4B13834  12.043  27.384   7.653
 5863POPC   NC313835  36.895  29.142   9.453
 5863POPC   PO413836  36.946  29.181   9.153
 5863POPC   GL113837  36.935  29.122   8.853
 5863POPC   GL213838  37.009  29.123   8.853
 5863POPC   C1A13839  36.875  29.111   8.553
 5863POPC   D2A13840  36.863  29.107   8.253
 5863POPC   C3A13841  36.901  29.182   7.953
 5863POPC   C4A13842  36.896  29.174   7.653
 5863POPC   C1B13843  37.129  29.161   8.553
 5863POPC   C2B13844  37.196  29.157   8.253
 5863POPC   C3B13845  37.172  29.077   7.953
 5863POPC   C4B13846  37.142  29.133   7.653
 5864POPC   NC313847  28.397  39.181   9.453
 5864POPC   PO413848  28.376  39.185   9.153
 5864POPC   GL113849  28.329  39.194   8.853
 5864POPC   GL213850  28.490  39.119   8.853
 5864POPC   C1A13851  28.388  39.274   8.553
 5864POPC   D2A13852  28.372  39.275   8.253
 5864POPC   C3A13853  28.414  39.202   7.953
 5864POPC   C4A13854  28.375  39.188   7.653
 5864POPC   C1B13855  28.500  39.041   8.553
 5864POPC   C2B13856  28.518  39.085   8.253
 5864POPC   C3B13857  28.560  39.061   7.953
 5864POPC   C4B13858  28.496  39.029   7.653
 5865POPC   NC313859   8.186   1.242   9.453
 5865POPC   PO413860   8.152   1.181   9.153
 5865POPC   GL113861   8.245   1.229   8.853
 5865POPC   GL213862   8.191   1.330   8.853
 5865POPC   C1A13863   8.221   1.249   8.553
 5865POPC   D2A13864   8.216   1.252   8.253
 5865POPC   C3A13865   8.201   1.204   7.953
 5865POPC   C4A13866   8.175   1.233   7.653
 5865POPC   C1B13867   8.239   1.449   8.553
 5865POPC   C2B13868   8.231   1.409   8.253
 5865POPC   C3B13869   8.249   1.433   7.953
 5865POPC   C4B13870   8.290   1.461   7.653
 5866POPC   NC313871  13.657  17.521   9.453
 5866POPC   PO413872  13.642  17.536   9.153
 5866POPC   GL113873  13.666  17.546   8.853
 5866POPC   GL213874  13.532  17.435   8.853
 5866POPC   C1A13875  13.672  17.538   8.553
 5866POPC   D2A13876  13.630  17.466   8.253
 5866POPC   C3A13877  13.655  17.514   7.953
 5866POPC   C4A13878  13.672  17.473   7.653
 5866POPC   C1B13879  13.509  17.340   8.553
 5866POPC   C2B13880  13.519  17.277   8.253
 5866POPC   C3B13881  13.438  17.274   7.953
 5866POPC   C4B13882  13.423  17.283   7.653
 5867POPC   NC313883  19.842  17.462   9.453
 5867POPC   PO413884  19.823  17.552   9.153
 5867POPC   GL113885  19.883  17.535   8.853
 5867POPC   GL213886  19.684  17.455   8.853
 5867POPC   C1A13887  19.796  17.457   8.553
 5867POPC   D2A13888  19.827  17.462   8.253
 5867POPC   C3A13889  19.866  17.475   7.953
 5867POPC   C4A13890  19.797  17.488   7.653
 5867POPC   C1B13891  19.599  17.365   8.553
 5867POPC   C2B13892  19.652  17.399   8.253
 5867POPC   C3B13893  19.652  17.404   7.953
 5867POPC   C4B13894  19.578  17.354   7.653
 5868POPC   NC313895  12.900  25.283   9.453
 5868POPC   PO413896  12.855  25.303   9.153
 5868POPC   GL113897  12.826  25.258   8.853
 5868POPC   GL213898  12.719  25.180   8.853
 5868POPC   C1A13899  12.888  25.263   8.553
 5868POPC   D2A13900  12.839  25.242   8.253
 5868POPC   C3A13901  12.856  25.246   7.953
 5868POPC   C4A13902  12.805  25.311   7.653
 5868POPC   C1B13903  12.669  25.097   8.553
 5868POPC   C2B13904  12.652  25.066   8.253
 5868POPC   C3B13905  12.716  25.054   7.953
 5868POPC   C4B13906  12.696  25.116   7.653
 5869POPC   NC313907  25.241   1.975   9.453
 5869POPC   PO413908  25.231   1.991   9.153
 5869POPC   GL113909  25.242   2.027   8.853
 5869POPC   GL213910  25.305   1.884   8.853
 5869POPC   C1A13911  25.276   1.983   8.553
 5869POPC   D2A13912  25.233   2.005   8.253
 5869POPC   C3A13913  25.223   1.982   7.953
 5869POPC   C4A13914  25.240   1.977   7.653
 5869POPC   C1B13915  25.375   1.769   8.553
 5869POPC   C2B13916  25.368   1.720   8.253
 5869POPC   C3B13917  25.296   1.752   7.953
 5869POPC   C4B13918  25.298   1.710   7.653
 5870POPC   NC313919  16.724  41.548   9.453
 5870POPC   PO413920  16.765  41.516   9.153
 5870POPC   GL113921  16.738  41.576   8.853
 5870POPC   GL213922  16.804  41.618   8.853
 5870POPC   C1A13923  16.745  41.520   8.553
 5870POPC   D2A13924  16.765  41.536   8.253
 5870POPC   C3A13925  16.711  41.572   7.953
 5870POPC   C4A13926  16.766  41.518   7.653
 5870POPC   C1B13927  16.957  41.731   8.553
 5870POPC   C2B13928  16.913  41.709   8.253
 5870POPC   C3B13929  16.935  41.686   7.953
 5870POPC   C4B13930  16.985  41.725   7.653
 5871POPC   NC313931  23.712   8.971   9.453
 5871POPC   PO413932  23.695   8.997   9.153
 5871POPC   GL113933  23.762   9.011   8.853
 5871POPC   GL213934  23.623   9.018   8.853
 5871POPC   C1A13935  23.668   9.006   8.553
 5871POPC   D2A13936  23.704   8.999   8.253
 5871POPC   C3A13937  23.746   8.930   7.953
 5871POPC   C4A13938  23.684   8.929   7.653
 5871POPC   C1B13939  23.498   9.111   8.553
 5871POPC   C2B13940  23.534   9.110   8.253
 5871POPC   C3B13941  23.537   9.160   7.953
 5871POPC   C4B13942  23.461   9.113   7.653
 5872POPC   NC313943   1.229   2.736   9.453
 5872POPC   PO413944   1.193   2.805   9.153
 5872POPC   GL113945   1.201   2.748   8.853
 5872POPC   GL213946   1.111   2.672   8.853
 5872POPC   C1A13947   1.247   2.783   8.553
 5872POPC   D2A13948   1.170   2.789   8.253
 5872POPC   C3A13949   1.168   2.719   7.953
 5872POPC   C4A13950   1.234   2.800   7.653
 5872POPC   C1B13951   0.984   2.562   8.553
 5872POPC   C2B13952   1.063   2.569   8.253
 5872POPC   C3B13953   1.013   2.605   7.953
 5872POPC   C4B13954   1.022   2.623   7.653
 5873POPC   NC313955   4.343  17.547   9.453
 5873POPC   PO413956   4.286  17.535   9.153
 5873POPC   GL113957   4.328  17.535   8.853
 5873POPC   GL213958   4.166  17.525   8.853
 5873POPC   C1A13959   4.351  17.527   8.553
 5873POPC   D2A13960   4.351  17.509   8.253
 5873POPC   C3A13961   4.309  17.474   7.953
 5873POPC   C4A13962   4.345  17.530   7.653
 5873POPC   C1B13963   4.087  17.508   8.553
 5873POPC   C2B13964   4.091  17.457   8.253
 5873POPC   C3B13965   4.068  17.463   7.953
 5873POPC   C4B13966   4.085  17.462   7.653
 5874POPC   NC313967  17.550  33.064   9.453
 5874POPC   PO413968  17.517  32.983   9.153
 5874POPC   GL113969  17.557  33.062   8.853
 5874POPC   GL213970  17.642  32.932   8.853
 5874POPC   C1A13971  17.495  33.036   8.553
 5874POPC   D2A13972  17.537  33.055   8.253
 5874POPC   C3A13973  17.539  33.009   7.953
 5874POPC   C4A13974  17.507  32.980   7.653
 5874POPC   C1B13975  17.739  32.916   8.553
 5874POPC   C2B13976  17.683  32.849   8.253
 5874POPC   C3B13977  17.706  32.872   7.953
 5874POPC   C4B13978  17.661  32.862   7.653
 5875POPC   NC313979  25.266  35.316   9.453
 5875POPC   PO413980  25.301  35.372   9.153
 5875POPC   GL113981  25.249  35.331   8.853
 5875POPC   GL213982  25.166  35.411   8.853
 5875POPC   C1A13983  25.296  35.395   8.553
 5875POPC   D2A13984  25.306  35.355   8.253
 5875POPC   C3A13985  25.220  35.350   7.953
 5875POPC   C4A13986  25.307  35.385   7.653
 5875POPC   C1B13987  25.009  35.446   8.553
 5875POPC   C2B13988  25.017  35.414   8.253
 5875POPC   C3B13989  25.059  35.384   7.953
 5875POPC   C4B13990  25.056  35.440   7.653
 5876POPC   NC313991   5.101  15.154   9.453
 5876POPC   PO413992   5.093  15.216   9.153
 5876POPC   GL113993   5.061  15.146   8.853
 5876POPC   GL213994   5.013  15.203   8.853
 5876POPC   C1A13995   5.093  15.193   8.553
 5876POPC   D2A13996   5.120  15.173   8.253
 5876POPC   C3A13997   5.049  15.136   7.953
 5876POPC   C4A13998   5.122  15.209   7.653
 5876POPC   C1B13999   4.874  15.240   8.553
 5876POPC   C2B14000   4.868  15.251   8.253
 5876POPC   C3B14001   4.860  15.247   7.953
 5876POPC   C4B14002   4.893  15.245   7.653
 5877POPC   NC314003  14.419  40.038   9.453
 5877POPC   PO414004  14.421  40.052   9.153
 5877POPC   GL114005  14.380  40.045   8.853
 5877POPC   GL214006  14.256  40.034   8.853
 5877POPC   C1A14007  14.426  39.973   8.553
 5877POPC   D2A14008  14.402  39.965   8.253
 5877POPC   C3A14009  14.372  39.977   7.953
 5877POPC   C4A14010  14.427  39.997   7.653
 5877POPC   C1B14011  14.186  39.949   8.553
 5877POPC   C2B14012  14.109  39.970   8.253
 5877POPC   C3B14013  14.175  39.967   7.953
 5877POPC   C4B14014  14.154  39.943   7.653
 5878POPC   NC314015  43.875  30.660   9.453
 5878POPC   PO414016  43.927  30.683   9.153
 5878POPC   GL114017  43.876  30.743   8.853
 5878POPC   GL214018  43.842  30.564   8.853
 5878POPC   C1A14019  43.839  30.663   8.553
 5878POPC   D2A14020  43.873  30.727   8.253
 5878POPC   C3A14021  43.843  30.675   7.953
 5878POPC   C4A14022  43.910  30.659   7.653
 5878POPC   C1B14023  43.874  30.449   8.553
 5878POPC   C2B14024  43.904  30.497   8.253
 5878POPC   C3B14025  43.913  30.496   7.953
 5878POPC   C4B14026  43.853  30.441   7.653
 5879POPC   NC314027   1.982   4.304   9.453
 5879POPC   PO414028   1.955   4.366   9.153
 5879POPC   GL114029   2.025   4.314   8.853
 5879POPC   GL214030   1.903   4.349   8.853
 5879POPC   C1A14031   2.015   4.291   8.553
 5879POPC   D2A14032   2.038   4.318   8.253
 5879POPC   C3A14033   2.033   4.292   7.953
 5879POPC   C4A14034   1.978   4.327   7.653
 5879POPC   C1B14035   1.754   4.382   8.553
 5879POPC   C2B14036   1.744   4.379   8.253
 5879POPC   C3B14037   1.709   4.344   7.953
 5879POPC   C4B14038   1.722   4.358   7.653
 5880POPC   NC314039  37.631  39.280   9.453
 5880POPC   PO414040  37.727  39.216   9.153
 5880POPC   GL114041  37.713  39.269   8.853
 5880POPC   GL214042  37.730  39.341   8.853
 5880POPC   C1A14043  37.636  39.204   8.553
 5880POPC   D2A14044  37.633  39.232   8.253
 5880POPC   C3A14045  37.676  39.223   7.953
 5880POPC   C4A14046  37.676  39.203   7.653
 5880POPC   C1B14047  37.885  39.408   8.553
 5880POPC   C2B14048  37.883  39.401   8.253
 5880POPC   C3B14049  37.856  39.384   7.953
 5880POPC   C4B14050  37.858  39.466   7.653
 5881POPC   NC314051   5.132  32.230   9.453
 5881POPC   PO414052   5.131  32.233   9.153
 5881POPC   GL114053   5.103  32.283   8.853
 5881POPC   GL214054   4.999  32.216   8.853
 5881POPC   C1A14055   5.079  32.205   8.553
 5881POPC   D2A14056   5.112  32.246   8.253
 5881POPC   C3A14057   5.068  32.278   7.953
 5881POPC   C4A14058   5.065  32.289   7.653
 5881POPC   C1B14059   4.823  32.221   8.553
 5881POPC   C2B14060   4.821  32.216   8.253
 5881POPC   C3B14061   4.895  32.129   7.953
 5881POPC   C4B14062   4.824  32.209   7.653
 5882POPC   NC314063   7.439  15.202   9.453
 5882POPC   PO414064   7.391  15.132   9.153
 5882POPC   GL114065   7.431  15.173   8.853
 5882POPC   GL214066   7.349  15.041   8.853
 5882POPC   C1A14067   7.412  15.145   8.553
 5882POPC   D2A14068   7.408  15.189   8.253
 5882POPC   C3A14069   7.387  15.213   7.953
 5882POPC   C4A14070   7.432  15.140   7.653
 5882POPC   C1B14071   7.335  14.935   8.553
 5882POPC   C2B14072   7.271  14.942   8.253
 5882POPC   C3B14073   7.296  14.935   7.953
 5882POPC   C4B14074   7.262  14.927   7.653
 5883POPC   NC314075   5.891  29.164   9.453
 5883POPC   PO414076   5.857  29.193   9.153
 5883POPC   GL114077   5.852  29.186   8.853
 5883POPC   GL214078   5.931  29.044   8.853
 5883POPC   C1A14079   5.822  29.188   8.553
 5883POPC   D2A14080   5.884  29.116   8.253
 5883POPC   C3A14081   5.866  29.145   7.953
 5883POPC   C4A14082   5.824  29.108   7.653
 5883POPC   C1B14083   5.913  28.877   8.553
 5883POPC   C2B14084   5.883  28.911   8.253
 5883POPC   C3B14085   5.936  28.909   7.953
 5883POPC   C4B14086   5.875  28.888   7.653
 5884POPC   NC314087  10.565  12.880   9.453
 5884POPC   PO414088  10.514  12.819   9.153
 5884POPC   GL114089  10.482  12.841   8.853
 5884POPC   GL214090  10.433  12.930   8.853
 5884POPC   C1A14091  10.503  12.870   8.553
 5884POPC   D2A14092  10.518  12.891   8.253
 5884POPC   C3A14093  10.510  12.862   7.953
 5884POPC   C4A14094  10.514  12.811   7.653
 5884POPC   C1B14095  10.330  12.932   8.553
 5884POPC   C2B14096  10.288  12.859   8.253
 5884POPC   C3B14097  10.303  12.872   7.953
 5884POPC   C4B14098  10.251  12.946   7.653
 5885POPC   NC314099  22.921  32.294   9.453
 5885POPC   PO414100  22.901  32.223   9.153
 5885POPC   GL114101  22.929  32.215   8.853
 5885POPC   GL214102  22.778  32.191   8.853
 5885POPC   C1A14103  22.956  32.205   8.553
 5885POPC   D2A14104  22.973  32.249   8.253
 5885POPC   C3A14105  22.922  32.267   7.953
 5885POPC   C4A14106  22.956  32.225   7.653
 5885POPC   C1B14107  22.705  32.164   8.553
 5885POPC   C2B14108  22.663  32.187   8.253
 5885POPC   C3B14109  22.656  32.213   7.953
 5885POPC   C4B14110  22.706  32.205   7.653
 5886POPC   NC314111  42.344   3.495   9.453
 5886POPC   PO414112  42.356   3.509   9.153
 5886POPC   GL114113  42.370   3.576   8.853
 5886POPC   GL214114  42.225   3.627   8.853
 5886POPC   C1A14115  42.297   3.573   8.553
 5886POPC   D2A14116  42.288   3.516   8.253
 5886POPC   C3A14117  42.363   3.505   7.953
 5886POPC   C4A14118  42.366   3.564   7.653
 5886POPC   C1B14119  42.150   3.746   8.553
 5886POPC   C2B14120  42.144   3.700   8.253
 5886POPC   C3B14121  42.128   3.691   7.953
 5886POPC   C4B14122  42.149   3.763   7.653
 5887POPC   NC314123  20.611   4.327   9.453
 5887POPC   PO414124  20.562   4.338   9.153
 5887POPC   GL114125  20.659   4.322   8.853
 5887POPC   GL214126  20.632   4.447   8.853
 5887POPC   C1A14127  20.630   4.325   8.553
 5887POPC   D2A14128  20.581   4.283   8.253
 5887POPC   C3A14129  20.626   4.363   7.953
 5887POPC   C4A14130  20.574   4.341   7.653
 5887POPC   C1B14131  20.709   4.546   8.553
 5887POPC   C2B14132  20.670   4.563   8.253
 5887POPC   C3B14133  20.664   4.527   7.953
 5887POPC   C4B14134  20.685   4.541   7.653
 5888POPC   NC314135   3.518   2.807   9.453
 5888POPC   PO414136   3.497   2.730   9.153
 5888POPC   GL114137   3.533   2.770   8.853
 5888POPC   GL214138   3.622   2.621   8.853
 5888POPC   C1A14139   3.585   2.782   8.553
 5888POPC   D2A14140   3.492   2.794   8.253
 5888POPC   C3A14141   3.575   2.805   7.953
 5888POPC   C4A14142   3.504   2.722   7.653
 5888POPC   C1B14143   3.644   2.566   8.553
 5888POPC   C2B14144   3.678   2.520   8.253
 5888POPC   C3B14145   3.717   2.578   7.953
 5888POPC   C4B14146   3.655   2.522   7.653
 5889POPC   NC314147  35.362   9.002   9.453
 5889POPC   PO414148  35.316   9.001   9.153
 5889POPC   GL114149  35.313   9.004   8.853
 5889POPC   GL214150  35.399   9.052   8.853
 5889POPC   C1A14151  35.400   8.934   8.553
 5889POPC   D2A14152  35.387   8.971   8.253
 5889POPC   C3A14153  35.358   8.989   7.953
 5889POPC   C4A14154  35.389   8.968   7.653
 5889POPC   C1B14155  35.328   9.179   8.553
 5889POPC   C2B14156  35.364   9.268   8.253
 5889POPC   C3B14157  35.370   9.178   7.953
 5889POPC   C4B14158  35.392   9.268   7.653
 5890POPC   NC314159  42.352  31.454   9.453
 5890POPC   PO414160  42.361  31.503   9.153
 5890POPC   GL114161  42.359  31.513   8.853
 5890POPC   GL214162  42.252  31.580   8.853
 5890POPC   C1A14163  42.370  31.430   8.553
 5890POPC   D2A14164  42.294  31.501   8.253
 5890POPC   C3A14165  42.361  31.463   7.953
 5890POPC   C4A14166  42.334  31.469   7.653
 5890POPC   C1B14167  42.158  31.680   8.553
 5890POPC   C2B14168  42.186  31.695   8.253
 5890POPC   C3B14169  42.180  31.709   7.953
 5890POPC   C4B14170  42.164  31.690   7.653
 5891POPC   NC314171  29.911  14.437   9.453
 5891POPC   PO414172  29.964  14.378   9.153
 5891POPC   GL114173  29.924  14.421   8.853
 5891POPC   GL214174  29.865  14.334   8.853
 5891POPC   C1A14175  29.938  14.445   8.553
 5891POPC   D2A14176  29.882  14.432   8.253
 5891POPC   C3A14177  29.889  14.432   7.953
 5891POPC   C4A14178  29.891  14.384   7.653
 5891POPC   C1B14179  29.750  14.184   8.553
 5891POPC   C2B14180  29.718  14.199   8.253
 5891POPC   C3B14181  29.749  14.210   7.953
 5891POPC   C4B14182  29.773  14.216   7.653
 5892POPC   NC314183  22.968  32.980   9.453
 5892POPC   PO414184  22.979  32.991   9.153
 5892POPC   GL114185  22.920  33.063   8.853
 5892POPC   GL214186  22.904  32.893   8.853
 5892POPC   C1A14187  22.973  32.978   8.553
 5892POPC   D2A14188  22.914  33.021   8.253
 5892POPC   C3A14189  22.981  33.061   7.953
 5892POPC   C4A14190  22.973  33.022   7.653
 5892POPC   C1B14191  22.846  32.771   8.553
 5892POPC   C2B14192  22.838  32.767   8.253
 5892POPC   C3B14193  22.840  32.819   7.953
 5892POPC   C4B14194  22.883  32.793   7.653
 5893POPC   NC314195  22.170   0.480   9.453
 5893POPC   PO414196  22.160   0.452   9.153
 5893POPC   GL114197  22.149   0.411   8.853
 5893POPC   GL214198  22.165   0.308   8.853
 5893POPC   C1A14199  22.116   0.479   8.553
 5893POPC   D2A14200  22.157   0.482   8.253
 5893POPC   C3A14201  22.120   0.461   7.953
 5893POPC   C4A14202  22.159   0.448   7.653
 5893POPC   C1B14203  22.133   0.152   8.553
 5893POPC   C2B14204  22.134   0.167   8.253
 5893POPC   C3B14205  22.127   0.168   7.953
 5893POPC   C4B14206  22.202   0.194   7.653
 5894POPC   NC314207  10.496  42.292   9.453
 5894POPC   PO414208  10.500  42.344   9.153
 5894POPC   GL114209  10.541  42.365   8.853
 5894POPC   GL214210  10.581  42.238   8.853
 5894POPC   C1A14211  10.513  42.357   8.553
 5894POPC   D2A14212  10.528  42.311   8.253
 5894POPC   C3A14213  10.571  42.384   7.953
 5894POPC   C4A14214  10.528  42.328   7.653
 5894POPC   C1B14215  10.691  42.145   8.553
 5894POPC   C2B14216  10.671  42.154   8.253
 5894POPC   C3B14217  10.633  42.105   7.953
 5894POPC   C4B14218  10.656  42.120   7.653
 5895POPC   NC314219  17.469  33.778   9.453
 5895POPC   PO414220  17.462  33.812   9.153
 5895POPC   GL114221  17.530  33.812   8.853
 5895POPC   GL214222  17.552  33.735   8.853
 5895POPC   C1A14223  17.557  33.772   8.553
 5895POPC   D2A14224  17.459  33.832   8.253
 5895POPC   C3A14225  17.483  33.797   7.953
 5895POPC   C4A14226  17.511  33.849   7.653
 5895POPC   C1B14227  17.630  33.590   8.553
 5895POPC   C2B14228  17.591  33.632   8.253
 5895POPC   C3B14229  17.622  33.585   7.953
 5895POPC   C4B14230  17.655  33.621   7.653
 5896POPC   NC314231  20.597   5.838   9.453
 5896POPC   PO414232  20.621   5.848   9.153
 5896POPC   GL114233  20.610   5.883   8.853
 5896POPC   GL214234  20.536   5.962   8.853
 5896POPC   C1A14235  20.657   5.872   8.553
 5896POPC   D2A14236  20.596   5.917   8.253
 5896POPC   C3A14237  20.631   5.859   7.953
 5896POPC   C4A14238  20.648   5.877   7.653
 5896POPC   C1B14239  20.510   6.053   8.553
 5896POPC   C2B14240  20.487   6.040   8.253
 5896POPC   C3B14241  20.530   6.083   7.953
 5896POPC   C4B14242  20.463   6.092   7.653
 5897POPC   NC314243  29.934  26.016   9.453
 5897POPC   PO414244  29.887  25.995   9.153
 5897POPC   GL114245  29.900  26.028   8.853
 5897POPC   GL214246  30.067  26.002   8.853
 5897POPC   C1A14247  29.963  26.020   8.553
 5897POPC   D2A14248  29.877  26.025   8.253
 5897POPC   C3A14249  29.895  26.043   7.953
 5897POPC   C4A14250  29.954  26.075   7.653
 5897POPC   C1B14251  30.140  25.966   8.553
 5897POPC   C2B14252  30.203  26.005   8.253
 5897POPC   C3B14253  30.211  25.978   7.953
 5897POPC   C4B14254  30.169  26.038   7.653
 5898POPC   NC314255  28.353  22.136   9.453
 5898POPC   PO414256  28.355  22.181   9.153
 5898POPC   GL114257  28.399  22.136   8.853
 5898POPC   GL214258  28.284  22.027   8.853
 5898POPC   C1A14259  28.328  22.168   8.553
 5898POPC   D2A14260  28.327  22.188   8.253
 5898POPC   C3A14261  28.366  22.206   7.953
 5898POPC   C4A14262  28.419  22.166   7.653
 5898POPC   C1B14263  28.252  21.924   8.553
 5898POPC   C2B14264  28.303  21.908   8.253
 5898POPC   C3B14265  28.317  21.941   7.953
 5898POPC   C4B14266  28.255  21.967   7.653
 5899POPC   NC314267  15.976   2.724   9.453
 5899POPC   PO414268  15.926   2.732   9.153
 5899POPC   GL114269  15.950   2.746   8.853
 5899POPC   GL214270  15.888   2.716   8.853
 5899POPC   C1A14271  15.988   2.778   8.553
 5899POPC   D2A14272  15.997   2.783   8.253
 5899POPC   C3A14273  15.915   2.760   7.953
 5899POPC   C4A14274  15.910   2.815   7.653
 5899POPC   C1B14275  15.795   2.561   8.553
 5899POPC   C2B14276  15.800   2.614   8.253
 5899POPC   C3B14277  15.832   2.597   7.953
 5899POPC   C4B14278  15.767   2.612   7.653
 5900POPC   NC314279  40.817  34.565   9.453
 5900POPC   PO414280  40.804  34.552   9.153
 5900POPC   GL114281  40.743  34.567   8.853
 5900POPC   GL214282  40.700  34.566   8.853
 5900POPC   C1A14283  40.749  34.604   8.553
 5900POPC   D2A14284  40.820  34.623   8.253
 5900POPC   C3A14285  40.743  34.535   7.953
 5900POPC   C4A14286  40.822  34.615   7.653
 5900POPC   C1B14287  40.557  34.559   8.553
 5900POPC   C2B14288  40.561  34.610   8.253
 5900POPC   C3B14289  40.551  34.605   7.953
 5900POPC   C4B14290  40.499  34.575   7.653
 5901POPC   NC314291  36.109  43.891   9.453
 5901POPC   PO414292  36.150  43.844   9.153
 5901POPC   GL114293  36.132  43.919   8.853
 5901POPC   GL214294  36.111  44.025   8.853
 5901POPC   C1A14295  36.123  43.878   8.553
 5901POPC   D2A14296  36.093  43.883   8.253
 5901POPC   C3A14297  36.094  43.909   7.953
 5901POPC   C4A14298  36.140  43.863   7.653
 5901POPC   C1B14299  36.087  44.162   8.553
 5901POPC   C2B14300  36.099  44.099   8.253
 5901POPC   C3B14301  36.120  44.146   7.953
 5901POPC   C4B14302  36.120  44.158   7.653
 5902POPC   NC314303   5.123  30.661   9.453
 5902POPC   PO414304   5.073  30.732   9.153
 5902POPC   GL114305   5.047  30.733   8.853
 5902POPC   GL214306   5.173  30.809   8.853
 5902POPC   C1A14307   5.044  30.740   8.553
 5902POPC   D2A14308   5.058  30.650   8.253
 5902POPC   C3A14309   5.048  30.707   7.953
 5902POPC   C4A14310   5.078  30.746   7.653
 5902POPC   C1B14311   5.250  30.911   8.553
 5902POPC   C2B14312   5.178  30.874   8.253
 5902POPC   C3B14313   5.197  30.939   7.953
 5902POPC   C4B14314   5.204  30.873   7.653
 5903POPC   NC314315  43.870  20.627   9.453
 5903POPC   PO414316  43.935  20.648   9.153
 5903POPC   GL114317  43.890  20.579   8.853
 5903POPC   GL214318  43.889  20.472   8.853
 5903POPC   C1A14319  43.934  20.575   8.553
 5903POPC   D2A14320  43.914  20.628   8.253
 5903POPC   C3A14321  43.893  20.656   7.953
 5903POPC   C4A14322  43.871  20.613   7.653
 5903POPC   C1B14323  43.892  20.360   8.553
 5903POPC   C2B14324  43.840  20.378   8.253
 5903POPC   C3B14325  43.891  20.337   7.953
 5903POPC   C4B14326  43.809  20.353   7.653
 5904POPC   NC314327  19.042  32.223   9.453
 5904POPC   PO414328  19.086  32.289   9.153
 5904POPC   GL114329  19.033  32.241   8.853
 5904POPC   GL214330  18.935  32.113   8.853
 5904POPC   C1A14331  19.010  32.289   8.553
 5904POPC   D2A14332  19.018  32.212   8.253
 5904POPC   C3A14333  19.097  32.231   7.953
 5904POPC   C4A14334  19.071  32.264   7.653
 5904POPC   C1B14335  18.838  32.121   8.553
 5904POPC   C2B14336  18.914  32.027   8.253
 5904POPC   C3B14337  18.873  32.065   7.953
 5904POPC   C4B14338  18.889  32.082   7.653
 5905POPC   NC314339  17.495  43.884   9.453
 5905POPC   PO414340  17.545  43.892   9.153
 5905POPC   GL114341  17.482  43.849   8.853
 5905POPC   GL214342  17.599  43.838   8.853
 5905POPC   C1A14343  17.513  43.872   8.553
 5905POPC   D2A14344  17.474  43.923   8.253
 5905POPC   C3A14345  17.484  43.911   7.953
 5905POPC   C4A14346  17.543  43.928   7.653
 5905POPC   C1B14347  17.730  43.881   8.553
 5905POPC   C2B14348  17.776  43.880   8.253
 5905POPC   C3B14349  17.774  43.879   7.953
 5905POPC   C4B14350  17.791  43.889   7.653
 5906POPC   NC314351  43.095  30.724   9.453
 5906POPC   PO414352  43.072  30.721   9.153
 5906POPC   GL114353  43.064  30.689   8.853
 5906POPC   GL214354  43.065  30.783   8.853
 5906POPC   C1A14355  43.134  30.684   8.553
 5906POPC   D2A14356  43.101  30.742   8.253
 5906POPC   C3A14357  43.158  30.653   7.953
 5906POPC   C4A14358  43.104  30.697   7.653
 5906POPC   C1B14359  43.161  30.897   8.553
 5906POPC   C2B14360  43.088  30.913   8.253
 5906POPC   C3B14361  43.167  30.916   7.953
 5906POPC   C4B14362  43.154  30.996   7.653
 5907POPC   NC314363  14.428  25.253   9.453
 5907POPC   PO414364  14.434  25.255   9.153
 5907POPC   GL114365  14.408  25.248   8.853
 5907POPC   GL214366  14.565  25.268   8.853
 5907POPC   C1A14367  14.386  25.301   8.553
 5907POPC   D2A14368  14.392  25.295   8.253
 5907POPC   C3A14369  14.354  25.310   7.953
 5907POPC   C4A14370  14.444  25.258   7.653
 5907POPC   C1B14371  14.622  25.193   8.553
 5907POPC   C2B14372  14.641  25.193   8.253
 5907POPC   C3B14373  14.632  25.250   7.953
 5907POPC   C4B14374  14.690  25.176   7.653
 5908POPC   NC314375  22.906  30.711   9.453
 5908POPC   PO414376  22.903  30.714   9.153
 5908POPC   GL114377  22.921  30.649   8.853
 5908POPC   GL214378  23.022  30.743   8.853
 5908POPC   C1A14379  22.913  30.663   8.553
 5908POPC   D2A14380  22.900  30.730   8.253
 5908POPC   C3A14381  22.911  30.694   7.953
 5908POPC   C4A14382  22.975  30.656   7.653
 5908POPC   C1B14383  23.194  30.824   8.553
 5908POPC   C2B14384  23.194  30.805   8.253
 5908POPC   C3B14385  23.165  30.834   7.953
 5908POPC   C4B14386  23.143  30.777   7.653
 5909POPC   NC314387   1.940  20.612   9.453
 5909POPC   PO414388   2.009  20.621   9.153
 5909POPC   GL114389   2.029  20.570   8.853
 5909POPC   GL214390   2.059  20.642   8.853
 5909POPC   C1A14391   1.974  20.639   8.553
 5909POPC   D2A14392   1.994  20.599   8.253
 5909POPC   C3A14393   2.031  20.655   7.953
 5909POPC   C4A14394   2.019  20.598   7.653
 5909POPC   C1B14395   2.218  20.719   8.553
 5909POPC   C2B14396   2.189  20.707   8.253
 5909POPC   C3B14397   2.179  20.725   7.953
 5909POPC   C4B14398   2.210  20.706   7.653
 5910POPC   NC314399  22.976  16.723   9.453
 5910POPC   PO414400  22.903  16.737   9.153
 5910POPC   GL114401  22.981  16.738   8.853
 5910POPC   GL214402  22.857  16.820   8.853
 5910POPC   C1A14403  22.927  16.720   8.553
 5910POPC   D2A14404  22.892  16.691   8.253
 5910POPC   C3A14405  22.939  16.705   7.953
 5910POPC   C4A14406  22.890  16.731   7.653
 5910POPC   C1B14407  22.875  16.943   8.553
 5910POPC   C2B14408  22.874  16.925   8.253
 5910POPC   C3B14409  22.827  16.979   7.953
 5910POPC   C4B14410  22.888  16.950   7.653
 5911POPC   NC314411   2.772  30.662   9.453
 5911POPC   PO414412   2.802  30.733   9.153
 5911POPC   GL114413   2.810  30.718   8.853
 5911POPC   GL214414   2.702  30.744   8.853
 5911POPC   C1A14415   2.771  30.689   8.553
 5911POPC   D2A14416   2.742  30.665   8.253
 5911POPC   C3A14417   2.787  30.706   7.953
 5911POPC   C4A14418   2.727  30.665   7.653
 5911POPC   C1B14419   2.538  30.800   8.553
 5911POPC   C2B14420   2.502  30.810   8.253
 5911POPC   C3B14421   2.512  30.825   7.953
 5911POPC   C4B14422   2.557  30.775   7.653
 5912POPC   NC314423  22.179   4.294   9.453
 5912POPC   PO414424  22.136   4.305   9.153
 5912POPC   GL114425  22.178   4.336   8.853
 5912POPC   GL214426  22.178   4.160   8.853
 5912POPC   C1A14427  22.158   4.362   8.553
 5912POPC   D2A14428  22.156   4.297   8.253
 5912POPC   C3A14429  22.127   4.278   7.953
 5912POPC   C4A14430  22.130   4.303   7.653
 5912POPC   C1B14431  22.087   4.061   8.553
 5912POPC   C2B14432  22.123   4.046   8.253
 5912POPC   C3B14433  22.093   4.026   7.953
 5912POPC   C4B14434  22.076   4.056   7.653
 5913POPC   NC314435   6.673  16.716   9.453
 5913POPC   PO414436   6.665  16.708   9.153
 5913POPC   GL114437   6.662  16.723   8.853
 5913POPC   GL214438   6.548  16.605   8.853
 5913POPC   C1A14439   6.596  16.708   8.553
 5913POPC   D2A14440   6.647  16.769   8.253
 5913POPC   C3A14441   6.674  16.713   7.953
 5913POPC   C4A14442   6.637  16.763   7.653
 5913POPC   C1B14443   6.540  16.534   8.553
 5913POPC   C2B14444   6.529  16.484   8.253
 5913POPC   C3B14445   6.498  16.555   7.953
 5913POPC   C4B14446   6.490  16.473   7.653
 5914POPC   NC314447  37.661  44.662   9.453
 5914POPC   PO414448  37.673  44.695   9.153
 5914POPC   GL114449  37.706  44.672   8.853
 5914POPC   GL214450  37.657  44.808   8.853
 5914POPC   C1A14451  37.708  44.693   8.553
 5914POPC   D2A14452  37.694  44.661   8.253
 5914POPC   C3A14453  37.719  44.636   7.953
 5914POPC   C4A14454  37.678  44.684   7.653
 5914POPC   C1B14455  37.610  44.847   8.553
 5914POPC   C2B14456  37.581  44.919   8.253
 5914POPC   C3B14457  37.588  44.870   7.953
 5914POPC   C4B14458  37.559  44.850   7.653
 5915POPC   NC314459  10.544   8.183   9.453
 5915POPC   PO414460  10.478   8.182   9.153
 5915POPC   GL114461  10.560   8.180   8.853
 5915POPC   GL214462  10.398   8.069   8.853
 5915POPC   C1A14463  10.570   8.242   8.553
 5915POPC   D2A14464  10.566   8.148   8.253
 5915POPC   C3A14465  10.566   8.198   7.953
 5915POPC   C4A14466  10.553   8.233   7.653
 5915POPC   C1B14467  10.396   8.059   8.553
 5915POPC   C2B14468  10.379   7.982   8.253
 5915POPC   C3B14469  10.380   7.992   7.953
 5915POPC   C4B14470  10.331   8.056   7.653
 5916POPC   NC314471  20.634   9.796   9.453
 5916POPC   PO414472  20.579   9.735   9.153
 5916POPC   GL114473  20.630   9.793   8.853
 5916POPC   GL214474  20.465   9.787   8.853
 5916POPC   C1A14475  20.658   9.702   8.553
 5916POPC   D2A14476  20.614   9.762   8.253
 5916POPC   C3A14477  20.654   9.700   7.953
 5916POPC   C4A14478  20.593   9.763   7.653
 5916POPC   C1B14479  20.353   9.759   8.553
 5916POPC   C2B14480  20.325   9.717   8.253
 5916POPC   C3B14481  20.334   9.697   7.953
 5916POPC   C4B14482  20.378   9.711   7.653
 5917POPC   NC314483  36.174   7.468   9.453
 5917POPC   PO414484  36.094   7.452   9.153
 5917POPC   GL114485  36.084   7.386   8.853
 5917POPC   GL214486  36.231   7.349   8.853
 5917POPC   C1A14487  36.158   7.454   8.553
 5917POPC   D2A14488  36.156   7.431   8.253
 5917POPC   C3A14489  36.141   7.406   7.953
 5917POPC   C4A14490  36.157   7.415   7.653
 5917POPC   C1B14491  36.327   7.268   8.553
 5917POPC   C2B14492  36.313   7.269   8.253
 5917POPC   C3B14493  36.309   7.291   7.953
 5917POPC   C4B14494  36.341   7.256   7.653
 5918POPC   NC314495  15.980   4.339   9.453
 5918POPC   PO414496  15.925   4.327   9.153
 5918POPC   GL114497  15.911   4.272   8.853
 5918POPC   GL214498  16.012   4.454   8.853
 5918POPC   C1A14499  15.968   4.326   8.553
 5918POPC   D2A14500  15.935   4.356   8.253
 5918POPC   C3A14501  15.996   4.345   7.953
 5918POPC   C4A14502  15.966   4.306   7.653
 5918POPC   C1B14503  15.987   4.602   8.553
 5918POPC   C2B14504  16.000   4.557   8.253
 5918POPC   C3B14505  16.022   4.530   7.953
 5918POPC   C4B14506  15.967   4.532   7.653
 5919POPC   NC314507  41.580  35.350   9.453
 5919POPC   PO414508  41.608  35.343   9.153
 5919POPC   GL114509  41.526  35.396   8.853
 5919POPC   GL214510  41.544  35.488   8.853
 5919POPC   C1A14511  41.552  35.360   8.553
 5919POPC   D2A14512  41.596  35.333   8.253
 5919POPC   C3A14513  41.605  35.399   7.953
 5919POPC   C4A14514  41.512  35.304   7.653
 5919POPC   C1B14515  41.547  35.640   8.553
 5919POPC   C2B14516  41.489  35.635   8.253
 5919POPC   C3B14517  41.529  35.560   7.953
 5919POPC   C4B14518  41.460  35.553   7.653
 5920POPC   NC314519  29.947   6.682   9.453
 5920POPC   PO414520  29.893   6.687   9.153
 5920POPC   GL114521  29.930   6.632   8.853
 5920POPC   GL214522  30.006   6.641   8.853
 5920POPC   C1A14523  29.960   6.602   8.553
 5920POPC   D2A14524  29.952   6.630   8.253
 5920POPC   C3A14525  29.901   6.678   7.953
 5920POPC   C4A14526  29.920   6.685   7.653
 5920POPC   C1B14527  30.131   6.747   8.553
 5920POPC   C2B14528  30.123   6.720   8.253
 5920POPC   C3B14529  30.164   6.686   7.953
 5920POPC   C4B14530  30.149   6.747   7.653
 5921POPC   NC314531  23.725  29.916   9.453
 5921POPC   PO414532  23.676  29.963   9.153
 5921POPC   GL114533  23.743  29.925   8.853
 5921POPC   GL214534  23.738  29.787   8.853
 5921POPC   C1A14535  23.683  29.894   8.553
 5921POPC   D2A14536  23.742  29.922   8.253
 5921POPC   C3A14537  23.717  29.951   7.953
 5921POPC   C4A14538  23.713  29.882   7.653
 5921POPC   C1B14539  23.806  29.713   8.553
 5921POPC   C2B14540  23.890  29.730   8.253
 5921POPC   C3B14541  23.836  29.677   7.953
 5921POPC   C4B14542  23.867  29.734   7.653
 5922POPC   NC314543   3.504   1.222   9.453
 5922POPC   PO414544   3.546   1.200   9.153
 5922POPC   GL114545   3.532   1.234   8.853
 5922POPC   GL214546   3.475   1.140   8.853
 5922POPC   C1A14547   3.496   1.257   8.553
 5922POPC   D2A14548   3.579   1.166   8.253
 5922POPC   C3A14549   3.511   1.180   7.953
 5922POPC   C4A14550   3.583   1.241   7.653
 5922POPC   C1B14551   3.447   0.952   8.553
 5922POPC   C2B14552   3.455   1.009   8.253
 5922POPC   C3B14553   3.469   0.950   7.953
 5922POPC   C4B14554   3.436   1.005   7.653
 5923POPC   NC314555   1.178  35.400   9.453
 5923POPC   PO414556   1.185  35.306   9.153
 5923POPC   GL114557   1.225  35.345   8.853
 5923POPC   GL214558   1.173  35.187   8.853
 5923POPC   C1A14559   1.228  35.371   8.553
 5923POPC   D2A14560   1.180  35.362   8.253
 5923POPC   C3A14561   1.194  35.393   7.953
 5923POPC   C4A14562   1.203  35.360   7.653
 5923POPC   C1B14563   1.190  35.126   8.553
 5923POPC   C2B14564   1.187  35.140   8.253
 5923POPC   C3B14565   1.150  35.090   7.953
 5923POPC   C4B14566   1.215  35.118   7.653
 5924POPC   NC314567  21.365  12.807   9.453
 5924POPC   PO414568  21.360  12.822   9.153
 5924POPC   GL114569  21.432  12.883   8.853
 5924POPC   GL214570  21.230  12.865   8.853
 5924POPC   C1A14571  21.353  12.803   8.553
 5924POPC   D2A14572  21.368  12.809   8.253
 5924POPC   C3A14573  21.426  12.899   7.953
 5924POPC   C4A14574  21.417  12.875   7.653
 5924POPC   C1B14575  21.113  12.972   8.553
 5924POPC   C2B14576  21.117  12.905   8.253
 5924POPC   C3B14577  21.137  12.972   7.953
 5924POPC   C4B14578  21.201  12.930   7.653
 5925POPC   NC314579   8.985  14.425   9.453
 5925POPC   PO414580   8.939  14.390   9.153
 5925POPC   GL114581   8.964  14.445   8.853
 5925POPC   GL214582   8.905  14.252   8.853
 5925POPC   C1A14583   8.930  14.399   8.553
 5925POPC   D2A14584   8.974  14.360   8.253
 5925POPC   C3A14585   9.013  14.366   7.953
 5925POPC   C4A14586   8.950  14.410   7.653
 5925POPC   C1B14587   8.921  14.124   8.553
 5925POPC   C2B14588   8.844  14.178   8.253
 5925POPC   C3B14589   8.910  14.166   7.953
 5925POPC   C4B14590   8.912  14.188   7.653
 5926POPC   NC314591   1.999   6.599   9.453
 5926POPC   PO414592   1.976   6.627   9.153
 5926POPC   GL114593   2.006   6.666   8.853
 5926POPC   GL214594   1.890   6.715   8.853
 5926POPC   C1A14595   2.028   6.634   8.553
 5926POPC   D2A14596   1.999   6.670   8.253
 5926POPC   C3A14597   1.946   6.655   7.953
 5926POPC   C4A14598   2.007   6.609   7.653
 5926POPC   C1B14599   1.867   6.859   8.553
 5926POPC   C2B14600   1.905   6.859   8.253
 5926POPC   C3B14601   1.907   6.917   7.953
 5926POPC   C4B14602   1.925   6.847   7.653
 5927POPC   NC314603   5.891  19.851   9.453
 5927POPC   PO414604   5.908  19.871   9.153
 5927POPC   GL114605   5.894  19.819   8.853
 5927POPC   GL214606   5.846  20.000   8.853
 5927POPC   C1A14607   5.832  19.802   8.553
 5927POPC   D2A14608   5.907  19.814   8.253
 5927POPC   C3A14609   5.859  19.799   7.953
 5927POPC   C4A14610   5.889  19.843   7.653
 5927POPC   C1B14611   5.764  20.063   8.553
 5927POPC   C2B14612   5.775  20.070   8.253
 5927POPC   C3B14613   5.767  20.124   7.953
 5927POPC   C4B14614   5.783  20.103   7.653
 5928POPC   NC314615  15.218  31.483   9.453
 5928POPC   PO414616  15.157  31.428   9.153
 5928POPC   GL114617  15.179  31.443   8.853
 5928POPC   GL214618  15.034  31.478   8.853
 5928POPC   C1A14619  15.208  31.490   8.553
 5928POPC   D2A14620  15.226  31.490   8.253
 5928POPC   C3A14621  15.162  31.491   7.953
 5928POPC   C4A14622  15.136  31.464   7.653
 5928POPC   C1B14623  14.968  31.532   8.553
 5928POPC   C2B14624  14.907  31.521   8.253
 5928POPC   C3B14625  14.898  31.481   7.953
 5928POPC   C4B14626  14.970  31.557   7.653
 5929POPC   NC314627  25.265   4.281   9.453
 5929POPC   PO414628  25.269   4.307   9.153
 5929POPC   GL114629  25.311   4.277   8.853
 5929POPC   GL214630  25.185   4.391   8.853
 5929POPC   C1A14631  25.306   4.327   8.553
 5929POPC   D2A14632  25.264   4.320   8.253
 5929POPC   C3A14633  25.309   4.293   7.953
 5929POPC   C4A14634  25.299   4.293   7.653
 5929POPC   C1B14635  24.998   4.394   8.553
 5929POPC   C2B14636  25.002   4.377   8.253
 5929POPC   C3B14637  25.056   4.393   7.953
 5929POPC   C4B14638  25.010   4.381   7.653
 5930POPC   NC314639  26.837  30.661   9.453
 5930POPC   PO414640  26.835  30.744   9.153
 5930POPC   GL114641  26.855  30.731   8.853
 5930POPC   GL214642  26.906  30.751   8.853
 5930POPC   C1A14643  26.783  30.658   8.553
 5930POPC   D2A14644  26.852  30.653   8.253
 5930POPC   C3A14645  26.804  30.656   7.953
 5930POPC   C4A14646  26.853  30.685   7.653
 5930POPC   C1B14647  27.026  30.738   8.553
 5930POPC   C2B14648  27.065  30.670   8.253
 5930POPC   C3B14649  27.020  30.687   7.953
 5930POPC   C4B14650  27.049  30.703   7.653
 5931POPC   NC314651  20.595   2.000   9.453
 5931POPC   PO414652  20.581   2.007   9.153
 5931POPC   GL114653  20.591   1.948   8.853
 5931POPC   GL214654  20.457   1.955   8.853
 5931POPC   C1A14655  20.644   1.968   8.553
 5931POPC   D2A14656  20.600   1.985   8.253
 5931POPC   C3A14657  20.624   1.958   7.953
 5931POPC   C4A14658  20.645   2.020   7.653
 5931POPC   C1B14659  20.387   1.893   8.553
 5931POPC   C2B14660  20.340   1.933   8.253
 5931POPC   C3B14661  20.372   1.883   7.953
 5931POPC   C4B14662  20.334   1.936   7.653
 5932POPC   NC314663  19.848  10.545   9.453
 5932POPC   PO414664  19.816  10.485   9.153
 5932POPC   GL114665  19.806  10.530   8.853
 5932POPC   GL214666  19.729  10.582   8.853
 5932POPC   C1A14667  19.825  10.505   8.553
 5932POPC   D2A14668  19.847  10.571   8.253
 5932POPC   C3A14669  19.825  10.524   7.953
 5932POPC   C4A14670  19.799  10.523   7.653
 5932POPC   C1B14671  19.644  10.670   8.553
 5932POPC   C2B14672  19.675  10.694   8.253
 5932POPC   C3B14673  19.607  10.657   7.953
 5932POPC   C4B14674  19.665  10.662   7.653
 5933POPC   NC314675   5.846   8.967   9.453
 5933POPC   PO414676   5.897   9.003   9.153
 5933POPC   GL114677   5.887   9.020   8.853
 5933POPC   GL214678   5.792   8.942   8.853
 5933POPC   C1A14679   5.845   9.014   8.553
 5933POPC   D2A14680   5.827   8.927   8.253
 5933POPC   C3A14681   5.853   9.020   7.953
 5933POPC   C4A14682   5.827   8.933   7.653
 5933POPC   C1B14683   5.672   8.900   8.553
 5933POPC   C2B14684   5.592   8.922   8.253
 5933POPC   C3B14685   5.645   8.970   7.953
 5933POPC   C4B14686   5.600   8.894   7.653
 5934POPC   NC314687   5.137  40.769   9.453
 5934POPC   PO414688   5.060  40.826   9.153
 5934POPC   GL114689   5.104  40.830   8.853
 5934POPC   GL214690   5.226  40.732   8.853
 5934POPC   C1A14691   5.046  40.767   8.553
 5934POPC   D2A14692   5.116  40.798   8.253
 5934POPC   C3A14693   5.099  40.806   7.953
 5934POPC   C4A14694   5.076  40.751   7.653
 5934POPC   C1B14695   5.365  40.764   8.553
 5934POPC   C2B14696   5.366  40.718   8.253
 5934POPC   C3B14697   5.318  40.728   7.953
 5934POPC   C4B14698   5.297  40.756   7.653
 5935POPC   NC314699   3.509  29.133   9.453
 5935POPC   PO414700   3.544  29.159   9.153
 5935POPC   GL114701   3.501  29.175   8.853
 5935POPC   GL214702   3.469  29.239   8.853
 5935POPC   C1A14703   3.515  29.144   8.553
 5935POPC   D2A14704   3.561  29.152   8.253
 5935POPC   C3A14705   3.508  29.103   7.953
 5935POPC   C4A14706   3.573  29.176   7.653
 5935POPC   C1B14707   3.434  29.346   8.553
 5935POPC   C2B14708   3.381  29.368   8.253
 5935POPC   C3B14709   3.374  29.321   7.953
 5935POPC   C4B14710   3.393  29.383   7.653
 5936POPC   NC314711   2.754  33.800   9.453
 5936POPC   PO414712   2.772  33.834   9.153
 5936POPC   GL114713   2.739  33.767   8.853
 5936POPC   GL214714   2.697  33.724   8.853
 5936POPC   C1A14715   2.745  33.802   8.553
 5936POPC   D2A14716   2.799  33.763   8.253
 5936POPC   C3A14717   2.729  33.793   7.953
 5936POPC   C4A14718   2.789  33.821   7.653
 5936POPC   C1B14719   2.498  33.714   8.553
 5936POPC   C2B14720   2.519  33.740   8.253
 5936POPC   C3B14721   2.565  33.680   7.953
 5936POPC   C4B14722   2.557  33.756   7.653
 5937POPC   NC314723  22.919  41.541   9.453
 5937POPC   PO414724  22.986  41.587   9.153
 5937POPC   GL114725  22.945  41.609   8.853
 5937POPC   GL214726  23.039  41.463   8.853
 5937POPC   C1A14727  22.981  41.567   8.553
 5937POPC   D2A14728  22.895  41.562   8.253
 5937POPC   C3A14729  22.962  41.590   7.953
 5937POPC   C4A14730  22.907  41.549   7.653
 5937POPC   C1B14731  23.165  41.492   8.553
 5937POPC   C2B14732  23.208  41.404   8.253
 5937POPC   C3B14733  23.178  41.424   7.953
 5937POPC   C4B14734  23.206  41.493   7.653
 5938POPC   NC314735  29.110  40.777   9.453
 5938POPC   PO414736  29.161  40.815   9.153
 5938POPC   GL114737  29.131  40.736   8.853
 5938POPC   GL214738  29.175  40.655   8.853
 5938POPC   C1A14739  29.193  40.831   8.553
 5938POPC   D2A14740  29.177  40.794   8.253
 5938POPC   C3A14741  29.145  40.814   7.953
 5938POPC   C4A14742  29.095  40.792   7.653
 5938POPC   C1B14743  29.270  40.567   8.553
 5938POPC   C2B14744  29.346  40.547   8.253
 5938POPC   C3B14745  29.271  40.553   7.953
 5938POPC   C4B14746  29.315  40.584   7.653
 5939POPC   NC314747  39.273   5.117   9.453
 5939POPC   PO414748  39.188   5.132   9.153
 5939POPC   GL114749  39.195   5.129   8.853
 5939POPC   GL214750  39.170   5.014   8.853
 5939POPC   C1A14751  39.266   5.138   8.553
 5939POPC   D2A14752  39.266   5.098   8.253
 5939POPC   C3A14753  39.239   5.054   7.953
 5939POPC   C4A14754  39.216   5.061   7.653
 5939POPC   C1B14755  39.050   4.940   8.553
 5939POPC   C2B14756  39.087   4.918   8.253
 5939POPC   C3B14757  38.993   4.969   7.953
 5939POPC   C4B14758  39.033   4.905   7.653
 5940POPC   NC314759  19.069  12.830   9.453
 5940POPC   PO414760  19.017  12.813   9.153
 5940POPC   GL114761  19.063  12.875   8.853
 5940POPC   GL214762  19.138  12.721   8.853
 5940POPC   C1A14763  19.104  12.847   8.553
 5940POPC   D2A14764  19.018  12.846   8.253
 5940POPC   C3A14765  19.093  12.885   7.953
 5940POPC   C4A14766  19.011  12.825   7.653
 5940POPC   C1B14767  19.192  12.685   8.553
 5940POPC   C2B14768  19.214  12.621   8.253
 5940POPC   C3B14769  19.216  12.666   7.953
 5940POPC   C4B14770  19.196  12.653   7.653
 5941POPC   NC314771   2.030  12.123   9.453
 5941POPC   PO414772   2.015  12.048   9.153
 5941POPC   GL114773   1.978  12.047   8.853
 5941POPC   GL214774   2.094  12.102   8.853
 5941POPC   C1A14775   1.966  12.035   8.553
 5941POPC   D2A14776   1.943  12.123   8.253
 5941POPC   C3A14777   1.946  12.093   7.953
 5941POPC   C4A14778   1.951  12.084   7.653
 5941POPC   C1B14779   2.235  12.128   8.553
 5941POPC   C2B14780   2.223  12.164   8.253
 5941POPC   C3B14781   2.259  12.164   7.953
 5941POPC   C4B14782   2.230  12.191   7.653
 5942POPC   NC314783   3.588  29.885   9.453
 5942POPC   PO414784   3.535  29.927   9.153
 5942POPC   GL114785   3.528  29.928   8.853
 5942POPC   GL214786   3.457  29.845   8.853
 5942POPC   C1A14787   3.520  29.949   8.553
 5942POPC   D2A14788   3.500  29.881   8.253
 5942POPC   C3A14789   3.545  29.909   7.953
 5942POPC   C4A14790   3.559  29.882   7.653
 5942POPC   C1B14791   3.352  29.828   8.553
 5942POPC   C2B14792   3.266  29.822   8.253
 5942POPC   C3B14793   3.356  29.809   7.953
 5942POPC   C4B14794   3.337  29.809   7.653
 5943POPC   NC314795   2.758  29.188   9.453
 5943POPC   PO414796   2.792  29.108   9.153
 5943POPC   GL114797   2.779  29.168   8.853
 5943POPC   GL214798   2.662  29.170   8.853
 5943POPC   C1A14799   2.746  29.166   8.553
 5943POPC   D2A14800   2.806  29.169   8.253
 5943POPC   C3A14801   2.800  29.109   7.953
 5943POPC   C4A14802   2.790  29.129   7.653
 5943POPC   C1B14803   2.470  29.166   8.553
 5943POPC   C2B14804   2.519  29.199   8.253
 5943POPC   C3B14805   2.565  29.203   7.953
 5943POPC   C4B14806   2.561  29.178   7.653
 5944POPC   NC314807  11.346  40.021   9.453
 5944POPC   PO414808  11.260  39.992   9.153
 5944POPC   GL114809  11.282  39.978   8.853
 5944POPC   GL214810  11.150  39.918   8.853
 5944POPC   C1A14811  11.265  39.997   8.553
 5944POPC   D2A14812  11.310  39.974   8.253
 5944POPC   C3A14813  11.267  39.965   7.953
 5944POPC   C4A14814  11.273  39.993   7.653
 5944POPC   C1B14815  11.112  39.818   8.553
 5944POPC   C2B14816  11.130  39.824   8.253
 5944POPC   C3B14817  11.051  39.856   7.953
 5944POPC   C4B14818  11.078  39.824   7.653
 5945POPC   NC314819  34.613  12.859   9.453
 5945POPC   PO414820  34.531  12.819   9.153
 5945POPC   GL114821  34.574  12.861   8.853
 5945POPC   GL214822  34.603  13.005   8.853
 5945POPC   C1A14823  34.584  12.814   8.553
 5945POPC   D2A14824  34.599  12.878   8.253
 5945POPC   C3A14825  34.564  12.876   7.953
 5945POPC   C4A14826  34.613  12.891   7.653
 5945POPC   C1B14827  34.583  13.060   8.553
 5945POPC   C2B14828  34.622  13.139   8.253
 5945POPC   C3B14829  34.585  13.123   7.953
 5945POPC   C4B14830  34.631  13.108   7.653
 5946POPC   NC314831   1.194  26.023   9.453
 5946POPC   PO414832   1.250  26.073   9.153
 5946POPC   GL114833   1.203  26.009   8.853
 5946POPC   GL214834   1.118  26.108   8.853
 5946POPC   C1A14835   1.180  26.084   8.553
 5946POPC   D2A14836   1.259  26.018   8.253
 5946POPC   C3A14837   1.196  26.082   7.953
 5946POPC   C4A14838   1.235  26.035   7.653
 5946POPC   C1B14839   0.986  26.137   8.553
 5946POPC   C2B14840   0.962  26.166   8.253
 5946POPC   C3B14841   0.983  26.114   7.953
 5946POPC   C4B14842   0.992  26.130   7.653
 5947POPC   NC314843  26.035   2.787   9.453
 5947POPC   PO414844  25.998   2.760   9.153
 5947POPC   GL114845  26.076   2.790   8.853
 5947POPC   GL214846  26.101   2.608   8.853
 5947POPC   C1A14847  26.045   2.751   8.553
 5947POPC   D2A14848  26.061   2.796   8.253
 5947POPC   C3A14849  26.050   2.730   7.953
 5947POPC   C4A14850  26.053   2.762   7.653
 5947POPC   C1B14851  26.092   2.499   8.553
 5947POPC   C2B14852  26.120   2.520   8.253
 5947POPC   C3B14853  26.089   2.489   7.953
 5947POPC   C4B14854  26.126   2.474   7.653
 5948POPC   NC314855  29.167  44.653   9.453
 5948POPC   PO414856  29.106  44.638   9.153
 5948POPC   GL114857  29.139  44.699   8.853
 5948POPC   GL214858  29.121  44.823   8.853
 5948POPC   C1A14859  29.131  44.649   8.553
 5948POPC   D2A14860  29.101  44.703   8.253
 5948POPC   C3A14861  29.129  44.677   7.953
 5948POPC   C4A14862  29.127  44.632   7.653
 5948POPC   C1B14863  29.171  44.864   8.553
 5948POPC   C2B14864  29.085  44.882   8.253
 5948POPC   C3B14865  29.086  44.897   7.953
 5948POPC   C4B14866  29.101  44.944   7.653
 5949POPC   NC314867  13.605  33.018   9.453
 5949POPC   PO414868  13.613  33.009   9.153
 5949POPC   GL114869  13.605  32.998   8.853
 5949POPC   GL214870  13.722  33.185   8.853
 5949POPC   C1A14871  13.598  32.984   8.553
 5949POPC   D2A14872  13.626  33.011   8.253
 5949POPC   C3A14873  13.630  33.053   7.953
 5949POPC   C4A14874  13.634  32.991   7.653
 5949POPC   C1B14875  13.764  33.235   8.553
 5949POPC   C2B14876  13.737  33.259   8.253
 5949POPC   C3B14877  13.744  33.292   7.953
 5949POPC   C4B14878  13.752  33.231   7.653
 5950POPC   NC314879  33.051  22.900   9.453
 5950POPC   PO414880  33.043  22.966   9.153
 5950POPC   GL114881  32.977  22.930   8.853
 5950POPC   GL214882  33.036  22.778   8.853
 5950POPC   C1A14883  32.975  22.922   8.553
 5950POPC   D2A14884  32.981  22.899   8.253
 5950POPC   C3A14885  33.000  22.977   7.953
 5950POPC   C4A14886  33.063  22.901   7.653
 5950POPC   C1B14887  33.025  22.666   8.553
 5950POPC   C2B14888  32.941  22.687   8.253
 5950POPC   C3B14889  32.945  22.662   7.953
 5950POPC   C4B14890  33.028  22.707   7.653
 5951POPC   NC314891  33.010   8.160   9.453
 5951POPC   PO414892  33.056   8.156   9.153
 5951POPC   GL114893  33.035   8.204   8.853
 5951POPC   GL214894  32.958   8.145   8.853
 5951POPC   C1A14895  33.015   8.182   8.553
 5951POPC   D2A14896  33.016   8.151   8.253
 5951POPC   C3A14897  33.048   8.233   7.953
 5951POPC   C4A14898  33.056   8.241   7.653
 5951POPC   C1B14899  32.831   8.090   8.553
 5951POPC   C2B14900  32.858   8.108   8.253
 5951POPC   C3B14901  32.834   8.063   7.953
 5951POPC   C4B14902  32.759   8.049   7.653
 5952POPC   NC314903  30.686  36.110   9.453
 5952POPC   PO414904  30.739  36.084   9.153
 5952POPC   GL114905  30.677  36.143   8.853
 5952POPC   GL214906  30.820  36.231   8.853
 5952POPC   C1A14907  30.651  36.171   8.553
 5952POPC   D2A14908  30.674  36.116   8.253
 5952POPC   C3A14909  30.729  36.134   7.953
 5952POPC   C4A14910  30.668  36.146   7.653
 5952POPC   C1B14911  30.872  36.233   8.553
 5952POPC   C2B14912  30.900  36.231   8.253
 5952POPC   C3B14913  30.942  36.284   7.953
 5952POPC   C4B14914  30.915  36.293   7.653
 5953POPC   NC314915  40.809  35.335   9.453
 5953POPC   PO414916  40.827  35.361   9.153
 5953POPC   GL114917  40.803  35.325   8.853
 5953POPC   GL214918  40.897  35.305   8.853
 5953POPC   C1A14919  40.767  35.306   8.553
 5953POPC   D2A14920  40.749  35.381   8.253
 5953POPC   C3A14921  40.751  35.339   7.953
 5953POPC   C4A14922  40.775  35.329   7.653
 5953POPC   C1B14923  41.058  35.338   8.553
 5953POPC   C2B14924  40.994  35.321   8.253
 5953POPC   C3B14925  41.006  35.374   7.953
 5953POPC   C4B14926  41.070  35.348   7.653
 5954POPC   NC314927   7.424  41.521   9.453
 5954POPC   PO414928   7.397  41.510   9.153
 5954POPC   GL114929   7.389  41.593   8.853
 5954POPC   GL214930   7.500  41.606   8.853
 5954POPC   C1A14931   7.432  41.518   8.553
 5954POPC   D2A14932   7.452  41.598   8.253
 5954POPC   C3A14933   7.428  41.543   7.953
 5954POPC   C4A14934   7.442  41.576   7.653
 5954POPC   C1B14935   7.625  41.677   8.553
 5954POPC   C2B14936   7.667  41.702   8.253
 5954POPC   C3B14937   7.603  41.631   7.953
 5954POPC   C4B14938   7.633  41.684   7.653
 5955POPC   NC314939  19.094  34.547   9.453
 5955POPC   PO414940  19.023  34.582   9.153
 5955POPC   GL114941  19.080  34.573   8.853
 5955POPC   GL214942  19.190  34.590   8.853
 5955POPC   C1A14943  19.045  34.541   8.553
 5955POPC   D2A14944  19.035  34.598   8.253
 5955POPC   C3A14945  19.067  34.563   7.953
 5955POPC   C4A14946  19.071  34.600   7.653
 5955POPC   C1B14947  19.261  34.609   8.553
 5955POPC   C2B14948  19.248  34.641   8.253
 5955POPC   C3B14949  19.290  34.630   7.953
 5955POPC   C4B14950  19.266  34.621   7.653
 5956POPC   NC314951  12.099  38.431   9.453
 5956POPC   PO414952  12.084  38.437   9.153
 5956POPC   GL114953  12.081  38.492   8.853
 5956POPC   GL214954  11.977  38.556   8.853
 5956POPC   C1A14955  12.029  38.446   8.553
 5956POPC   D2A14956  12.122  38.476   8.253
 5956POPC   C3A14957  12.086  38.501   7.953
 5956POPC   C4A14958  12.101  38.422   7.653
 5956POPC   C1B14959  11.871  38.591   8.553
 5956POPC   C2B14960  11.873  38.562   8.253
 5956POPC   C3B14961  11.810  38.591   7.953
 5956POPC   C4B14962  11.896  38.620   7.653
 5957POPC   NC314963  16.703   4.353   9.453
 5957POPC   PO414964  16.724   4.313   9.153
 5957POPC   GL114965  16.732   4.351   8.853
 5957POPC   GL214966  16.769   4.263   8.853
 5957POPC   C1A14967  16.730   4.331   8.553
 5957POPC   D2A14968  16.769   4.354   8.253
 5957POPC   C3A14969  16.743   4.306   7.953
 5957POPC   C4A14970  16.716   4.358   7.653
 5957POPC   C1B14971  16.902   4.143   8.553
 5957POPC   C2B14972  16.882   4.111   8.253
 5957POPC   C3B14973  16.899   4.101   7.953
 5957POPC   C4B14974  16.932   4.127   7.653
 5958POPC   NC314975  33.828  17.527   9.453
 5958POPC   PO414976  33.772  17.487   9.153
 5958POPC   GL114977  33.771  17.520   8.853
 5958POPC   GL214978  33.813  17.400   8.853
 5958POPC   C1A14979  33.785  17.462   8.553
 5958POPC   D2A14980  33.759  17.488   8.253
 5958POPC   C3A14981  33.770  17.491   7.953
 5958POPC   C4A14982  33.840  17.550   7.653
 5958POPC   C1B14983  33.872  17.270   8.553
 5958POPC   C2B14984  33.839  17.308   8.253
 5958POPC   C3B14985  33.853  17.309   7.953
 5958POPC   C4B14986  33.859  17.309   7.653
 5959POPC   NC314987  29.123  15.968   9.453
 5959POPC   PO414988  29.146  15.926   9.153
 5959POPC   GL114989  29.172  15.970   8.853
 5959POPC   GL214990  29.202  15.807   8.853
 5959POPC   C1A14991  29.151  15.921   8.553
 5959POPC   D2A14992  29.138  15.972   8.253
 5959POPC   C3A14993  29.151  15.986   7.953
 5959POPC   C4A14994  29.130  15.953   7.653
 5959POPC   C1B14995  29.258  15.769   8.553
 5959POPC   C2B14996  29.332  15.796   8.253
 5959POPC   C3B14997  29.311  15.796   7.953
 5959POPC   C4B14998  29.262  15.772   7.653
 5960POPC   NC314999   0.440  19.799   9.453
 5960POPC   PO415000   0.448  19.861   9.153
 5960POPC   GL115001   0.485  19.883   8.853
 5960POPC   GL215002   0.514  19.856   8.853
 5960POPC   C1A15003   0.485  19.869   8.553
 5960POPC   D2A15004   0.403  19.805   8.253
 5960POPC   C3A15005   0.479  19.852   7.953
 5960POPC   C4A15006   0.485  19.817   7.653
 5960POPC   C1B15007   0.708  19.907   8.553
 5960POPC   C2B15008   0.715  19.892   8.253
 5960POPC   C3B15009   0.680  19.885   7.953
 5960POPC   C4B15010   0.708  19.895   7.653
 5961POPC   NC315011   8.192   5.908   9.453
 5961POPC   PO415012   8.214   5.904   9.153
 5961POPC   GL115013   8.164   5.909   8.853
 5961POPC   GL215014   8.197   5.745   8.853
 5961POPC   C1A15015   8.202   5.835   8.553
 5961POPC   D2A15016   8.195   5.848   8.253
 5961POPC   C3A15017   8.151   5.893   7.953
 5961POPC   C4A15018   8.215   5.838   7.653
 5961POPC   C1B15019   8.166   5.649   8.553
 5961POPC   C2B15020   8.186   5.583   8.253
 5961POPC   C3B15021   8.141   5.635   7.953
 5961POPC   C4B15022   8.140   5.652   7.653
 5962POPC   NC315023  42.342  33.058   9.453
 5962POPC   PO415024  42.356  33.006   9.153
 5962POPC   GL115025  42.319  32.976   8.853
 5962POPC   GL215026  42.420  33.053   8.853
 5962POPC   C1A15027  42.307  33.060   8.553
 5962POPC   D2A15028  42.299  32.997   8.253
 5962POPC   C3A15029  42.322  33.057   7.953
 5962POPC   C4A15030  42.376  33.030   7.653
 5962POPC   C1B15031  42.522  33.206   8.553
 5962POPC   C2B15032  42.543  33.153   8.253
 5962POPC   C3B15033  42.503  33.173   7.953
 5962POPC   C4B15034  42.492  33.194   7.653
 5963POPC   NC315035   0.421   5.063   9.453
 5963POPC   PO415036   0.465   5.112   9.153
 5963POPC   GL115037   0.393   5.083   8.853
 5963POPC   GL215038   0.331   5.014   8.853
 5963POPC   C1A15039   0.412   5.053   8.553
 5963POPC   D2A15040   0.430   5.082   8.253
 5963POPC   C3A15041   0.454   5.092   7.953
 5963POPC   C4A15042   0.488   5.086   7.653
 5963POPC   C1B15043   0.263   4.971   8.553
 5963POPC   C2B15044   0.257   4.974   8.253
 5963POPC   C3B15045   0.266   4.961   7.953
 5963POPC   C4B15046   0.253   4.937   7.653
 5964POPC   NC315047  34.571  26.044   9.453
 5964POPC   PO415048  34.621  26.091   9.153
 5964POPC   GL115049  34.615  26.063   8.853
 5964POPC   GL215050  34.736  26.052   8.853
 5964POPC   C1A15051  34.624  26.075   8.553
 5964POPC   D2A15052  34.602  26.033   8.253
 5964POPC   C3A15053  34.540  26.040   7.953
 5964POPC   C4A15054  34.619  25.997   7.653
 5964POPC   C1B15055  34.863  26.135   8.553
 5964POPC   C2B15056  34.867  26.121   8.253
 5964POPC   C3B15057  34.810  26.085   7.953
 5964POPC   C4B15058  34.834  26.138   7.653
 5965POPC   NC315059  10.521  39.183   9.453
 5965POPC   PO415060  10.561  39.249   9.153
 5965POPC   GL115061  10.534  39.243   8.853
 5965POPC   GL215062  10.572  39.102   8.853
 5965POPC   C1A15063  10.556  39.262   8.553
 5965POPC   D2A15064  10.568  39.278   8.253
 5965POPC   C3A15065  10.517  39.203   7.953
 5965POPC   C4A15066  10.481  39.232   7.653
 5965POPC   C1B15067  10.666  39.059   8.553
 5965POPC   C2B15068  10.666  39.059   8.253
 5965POPC   C3B15069  10.660  39.047   7.953
 5965POPC   C4B15070  10.715  39.109   7.653
 5966POPC   NC315071   7.446   5.097   9.453
 5966POPC   PO415072   7.434   5.072   9.153
 5966POPC   GL115073   7.385   5.066   8.853
 5966POPC   GL215074   7.560   5.187   8.853
 5966POPC   C1A15075   7.381   5.062   8.553
 5966POPC   D2A15076   7.462   5.082   8.253
 5966POPC   C3A15077   7.436   5.085   7.953
 5966POPC   C4A15078   7.402   5.064   7.653
 5966POPC   C1B15079   7.648   5.271   8.553
 5966POPC   C2B15080   7.581   5.296   8.253
 5966POPC   C3B15081   7.578   5.203   7.953
 5966POPC   C4B15082   7.613   5.274   7.653
 5967POPC   NC315083  41.526  14.428   9.453
 5967POPC   PO415084  41.528  14.355   9.153
 5967POPC   GL115085  41.602  14.385   8.853
 5967POPC   GL215086  41.636  14.488   8.853
 5967POPC   C1A15087  41.534  14.363   8.553
 5967POPC   D2A15088  41.514  14.356   8.253
 5967POPC   C3A15089  41.605  14.379   7.953
 5967POPC   C4A15090  41.551  14.360   7.653
 5967POPC   C1B15091  41.742  14.582   8.553
 5967POPC   C2B15092  41.678  14.657   8.253
 5967POPC   C3B15093  41.695  14.633   7.953
 5967POPC   C4B15094  41.683  14.571   7.653
 5968POPC   NC315095  10.526   6.636   9.453
 5968POPC   PO415096  10.481   6.660   9.153
 5968POPC   GL115097  10.544   6.625   8.853
 5968POPC   GL215098  10.646   6.652   8.853
 5968POPC   C1A15099  10.554   6.645   8.553
 5968POPC   D2A15100  10.498   6.597   8.253
 5968POPC   C3A15101  10.573   6.664   7.953
 5968POPC   C4A15102  10.560   6.680   7.653
 5968POPC   C1B15103  10.789   6.630   8.553
 5968POPC   C2B15104  10.720   6.548   8.253
 5968POPC   C3B15105  10.777   6.600   7.953
 5968POPC   C4B15106  10.789   6.614   7.653
 5969POPC   NC315107   7.430  10.502   9.453
 5969POPC   PO415108   7.438  10.529   9.153
 5969POPC   GL115109   7.417  10.492   8.853
 5969POPC   GL215110   7.517  10.483   8.853
 5969POPC   C1A15111   7.425  10.520   8.553
 5969POPC   D2A15112   7.375  10.557   8.253
 5969POPC   C3A15113   7.384  10.501   7.953
 5969POPC   C4A15114   7.394  10.561   7.653
 5969POPC   C1B15115   7.664  10.512   8.553
 5969POPC   C2B15116   7.641  10.560   8.253
 5969POPC   C3B15117   7.653  10.513   7.953
 5969POPC   C4B15118   7.645  10.487   7.653
 5970POPC   NC315119  32.202   7.438   9.453
 5970POPC   PO415120  32.201   7.427   9.153
 5970POPC   GL115121  32.241   7.401   8.853
 5970POPC   GL215122  32.252   7.262   8.853
 5970POPC   C1A15123  32.222   7.444   8.553
 5970POPC   D2A15124  32.246   7.433   8.253
 5970POPC   C3A15125  32.231   7.379   7.953
 5970POPC   C4A15126  32.215   7.438   7.653
 5970POPC   C1B15127  32.136   7.230   8.553
 5970POPC   C2B15128  32.191   7.224   8.253
 5970POPC   C3B15129  32.110   7.218   7.953
 5970POPC   C4B15130  32.106   7.225   7.653
 5971POPC   NC315131  33.805  29.959   9.453
 5971POPC   PO415132  33.766  29.932   9.153
 5971POPC   GL115133  33.757  29.966   8.853
 5971POPC   GL215134  33.669  29.834   8.853
 5971POPC   C1A15135  33.841  29.871   8.553
 5971POPC   D2A15136  33.772  29.893   8.253
 5971POPC   C3A15137  33.819  29.889   7.953
 5971POPC   C4A15138  33.754  29.935   7.653
 5971POPC   C1B15139  33.601  29.730   8.553
 5971POPC   C2B15140  33.614  29.816   8.253
 5971POPC   C3B15141  33.552  29.790   7.953
 5971POPC   C4B15142  33.587  29.738   7.653
 5972POPC   NC315143   5.074  18.319   9.453
 5972POPC   PO415144   5.123  18.308   9.153
 5972POPC   GL115145   5.129  18.324   8.853
 5972POPC   GL215146   5.190  18.262   8.853
 5972POPC   C1A15147   5.070  18.234   8.553
 5972POPC   D2A15148   5.143  18.297   8.253
 5972POPC   C3A15149   5.054  18.300   7.953
 5972POPC   C4A15150   5.077  18.325   7.653
 5972POPC   C1B15151   5.367  18.288   8.553
 5972POPC   C2B15152   5.346  18.331   8.253
 5972POPC   C3B15153   5.377  18.318   7.953
 5972POPC   C4B15154   5.345  18.290   7.653
 5973POPC   NC315155  36.151  12.093   9.453
 5973POPC   PO415156  36.123  12.037   9.153
 5973POPC   GL115157  36.158  12.030   8.853
 5973POPC   GL215158  36.105  12.210   8.853
 5973POPC   C1A15159  36.112  12.085   8.553
 5973POPC   D2A15160  36.088  12.057   8.253
 5973POPC   C3A15161  36.088  12.100   7.953
 5973POPC   C4A15162  36.098  12.028   7.653
 5973POPC   C1B15163  36.175  12.280   8.553
 5973POPC   C2B15164  36.107  12.279   8.253
 5973POPC   C3B15165  36.113  12.331   7.953
 5973POPC   C4B15166  36.152  12.301   7.653
 5974POPC   NC315167  35.398  35.362   9.453
 5974POPC   PO415168  35.388  35.321   9.153
 5974POPC   GL115169  35.322  35.371   8.853
 5974POPC   GL215170  35.328  35.519   8.853
 5974POPC   C1A15171  35.397  35.354   8.553
 5974POPC   D2A15172  35.376  35.313   8.253
 5974POPC   C3A15173  35.344  35.313   7.953
 5974POPC   C4A15174  35.358  35.371   7.653
 5974POPC   C1B15175  35.402  35.626   8.553
 5974POPC   C2B15176  35.439  35.637   8.253
 5974POPC   C3B15177  35.388  35.577   7.953
 5974POPC   C4B15178  35.420  35.550   7.653
 5975POPC   NC315179  34.553   2.753   9.453
 5975POPC   PO415180  34.554   2.749   9.153
 5975POPC   GL115181  34.577   2.782   8.853
 5975POPC   GL215182  34.653   2.881   8.853
 5975POPC   C1A15183  34.622   2.781   8.553
 5975POPC   D2A15184  34.617   2.753   8.253
 5975POPC   C3A15185  34.530   2.716   7.953
 5975POPC   C4A15186  34.528   2.813   7.653
 5975POPC   C1B15187  34.723   2.995   8.553
 5975POPC   C2B15188  34.770   2.990   8.253
 5975POPC   C3B15189  34.742   2.938   7.953
 5975POPC   C4B15190  34.763   2.938   7.653
 5976POPC   NC315191  40.785   9.784   9.453
 5976POPC   PO415192  40.743   9.738   9.153
 5976POPC   GL115193  40.831   9.789   8.853
 5976POPC   GL215194  40.800   9.885   8.853
 5976POPC   C1A15195  40.733   9.762   8.553
 5976POPC   D2A15196  40.739   9.701   8.253
 5976POPC   C3A15197  40.778   9.772   7.953
 5976POPC   C4A15198  40.798   9.700   7.653
 5976POPC   C1B15199  40.819  10.029   8.553
 5976POPC   C2B15200  40.837   9.953   8.253
 5976POPC   C3B15201  40.808   9.956   7.953
 5976POPC   C4B15202  40.810   9.978   7.653
 5977POPC   NC315203  14.400   9.021   9.453
 5977POPC   PO415204  14.416   8.975   9.153
 5977POPC   GL115205  14.443   9.011   8.853
 5977POPC   GL215206  14.448   8.851   8.853
 5977POPC   C1A15207  14.371   9.008   8.553
 5977POPC   D2A15208  14.442   8.958   8.253
 5977POPC   C3A15209  14.389   9.015   7.953
 5977POPC   C4A15210  14.386   8.975   7.653
 5977POPC   C1B15211  14.395   8.759   8.553
 5977POPC   C2B15212  14.402   8.770   8.253
 5977POPC   C3B15213  14.396   8.765   7.953
 5977POPC   C4B15214  14.413   8.731   7.653
 5978POPC   NC315215  19.806   2.808   9.453
 5978POPC   PO415216  19.808   2.716   9.153
 5978POPC   GL115217  19.829   2.797   8.853
 5978POPC   GL215218  19.756   2.620   8.853
 5978POPC   C1A15219  19.810   2.763   8.553
 5978POPC   D2A15220  19.876   2.814   8.253
 5978POPC   C3A15221  19.818   2.795   7.953
 5978POPC   C4A15222  19.798   2.783   7.653
 5978POPC   C1B15223  19.690   2.557   8.553
 5978POPC   C2B15224  19.696   2.517   8.253
 5978POPC   C3B15225  19.683   2.533   7.953
 5978POPC   C4B15226  19.732   2.567   7.653
 5979POPC   NC315227  19.821  40.001   9.453
 5979POPC   PO415228  19.868  40.048   9.153
 5979POPC   GL115229  19.813  39.986   8.853
 5979POPC   GL215230  19.793  39.927   8.853
 5979POPC   C1A15231  19.787  40.022   8.553
 5979POPC   D2A15232  19.883  39.971   8.253
 5979POPC   C3A15233  19.859  40.024   7.953
 5979POPC   C4A15234  19.844  39.985   7.653
 5979POPC   C1B15235  19.868  39.746   8.553
 5979POPC   C2B15236  19.857  39.747   8.253
 5979POPC   C3B15237  19.877  39.721   7.953
 5979POPC   C4B15238  19.836  39.769   7.653
 5980POPC   NC315239  17.527  14.431   9.453
 5980POPC   PO415240  17.464  14.449   9.153
 5980POPC   GL115241  17.488  14.355   8.853
 5980POPC   GL215242  17.478  14.494   8.853
 5980POPC   C1A15243  17.531  14.413   8.553
 5980POPC   D2A15244  17.484  14.363   8.253
 5980POPC   C3A15245  17.502  14.410   7.953
 5980POPC   C4A15246  17.542  14.421   7.653
 5980POPC   C1B15247  17.496  14.605   8.553
 5980POPC   C2B15248  17.465  14.694   8.253
 5980POPC   C3B15249  17.536  14.616   7.953
 5980POPC   C4B15250  17.482  14.665   7.653
 5981POPC   NC315251  43.843  40.804   9.453
 5981POPC   PO415252  43.838  40.769   9.153
 5981POPC   GL115253  43.918  40.734   8.853
 5981POPC   GL215254  43.927  40.905   8.853
 5981POPC   C1A15255  43.876  40.762   8.553
 5981POPC   D2A15256  43.877  40.772   8.253
 5981POPC   C3A15257  43.853  40.775   7.953
 5981POPC   C4A15258  43.915  40.797   7.653
 5981POPC   C1B15259  43.964  41.003   8.553
 5981POPC   C2B15260  44.041  40.968   8.253
 5981POPC   C3B15261  44.004  40.966   7.953
 5981POPC   C4B15262  43.970  40.998   7.653
 5982POPC   NC315263  39.272  26.777   9.453
 5982POPC   PO415264  39.267  26.824   9.153
 5982POPC   GL115265  39.232  26.782   8.853
 5982POPC   GL215266  39.362  26.881   8.853
 5982POPC   C1A15267  39.259  26.856   8.553
 5982POPC   D2A15268  39.273  26.785   8.253
 5982POPC   C3A15269  39.268  26.857   7.953
 5982POPC   C4A15270  39.248  26.777   7.653
 5982POPC   C1B15271  39.401  26.966   8.553
 5982POPC   C2B15272  39.389  27.025   8.253
 5982POPC   C3B15273  39.427  26.980   7.953
 5982POPC   C4B15274  39.406  26.979   7.653
 5983POPC   NC315275  15.154  14.371   9.453
 5983POPC   PO415276  15.200  14.378   9.153
 5983POPC   GL115277  15.199  14.372   8.853
 5983POPC   GL215278  15.097  14.334   8.853
 5983POPC   C1A15279  15.134  14.444   8.553
 5983POPC   D2A15280  15.177  14.392   8.253
 5983POPC   C3A15281  15.161  14.390   7.953
 5983POPC   C4A15282  15.148  14.438   7.653
 5983POPC   C1B15283  14.962  14.292   8.553
 5983POPC   C2B15284  14.937  14.332   8.253
 5983POPC   C3B15285  14.935  14.252   7.953
 5983POPC   C4B15286  14.942  14.278   7.653
 5984POPC   NC315287  23.671  44.616   9.453
 5984POPC   PO415288  23.713  44.681   9.153
 5984POPC   GL115289  23.666  44.662   8.853
 5984POPC   GL215290  23.760  44.605   8.853
 5984POPC   C1A15291  23.752  44.684   8.553
 5984POPC   D2A15292  23.710  44.690   8.253
 5984POPC   C3A15293  23.678  44.704   7.953
 5984POPC   C4A15294  23.725  44.708   7.653
 5984POPC   C1B15295  23.876  44.467   8.553
 5984POPC   C2B15296  23.885  44.504   8.253
 5984POPC   C3B15297  23.889  44.477   7.953
 5984POPC   C4B15298  23.917  44.492   7.653
 5985POPC   NC315299  36.874   5.094   9.453
 5985POPC   PO415300  36.887   5.103   9.153
 5985POPC   GL115301  36.946   5.052   8.853
 5985POPC   GL215302  36.860   5.017   8.853
 5985POPC   C1A15303  36.952   5.137   8.553
 5985POPC   D2A15304  36.933   5.046   8.253
 5985POPC   C3A15305  36.892   5.140   7.953
 5985POPC   C4A15306  36.929   5.136   7.653
 5985POPC   C1B15307  36.768   4.876   8.553
 5985POPC   C2B15308  36.731   4.910   8.253
 5985POPC   C3B15309  36.743   4.947   7.953
 5985POPC   C4B15310  36.700   4.904   7.653
 5986POPC   NC315311  33.750  42.357   9.453
 5986POPC   PO415312  33.789  42.363   9.153
 5986POPC   GL115313  33.774  42.308   8.853
 5986POPC   GL215314  33.909  42.234   8.853
 5986POPC   C1A15315  33.828  42.289   8.553
 5986POPC   D2A15316  33.833  42.337   8.253
 5986POPC   C3A15317  33.829  42.322   7.953
 5986POPC   C4A15318  33.805  42.352   7.653
 5986POPC   C1B15319  33.907  42.114   8.553
 5986POPC   C2B15320  33.976  42.099   8.253
 5986POPC   C3B15321  33.953  42.152   7.953
 5986POPC   C4B15322  33.980  42.137   7.653
 5987POPC   NC315323  31.522  37.632   9.453
 5987POPC   PO415324  31.459  37.685   9.153
 5987POPC   GL115325  31.492  37.649   8.853
 5987POPC   GL215326  31.329  37.810   8.853
 5987POPC   C1A15327  31.449  37.696   8.553
 5987POPC   D2A15328  31.447  37.689   8.253
 5987POPC   C3A15329  31.506  37.715   7.953
 5987POPC   C4A15330  31.499  37.714   7.653
 5987POPC   C1B15331  31.319  37.893   8.553
 5987POPC   C2B15332  31.238  37.837   8.253
 5987POPC   C3B15333  31.287  37.844   7.953
 5987POPC   C4B15334  31.254  37.804   7.653
 5988POPC   NC315335  40.011  34.560   9.453
 5988POPC   PO415336  40.054  34.611   9.153
 5988POPC   GL115337  40.025  34.581   8.853
 5988POPC   GL215338  39.847  34.627   8.853
 5988POPC   C1A15339  40.011  34.568   8.553
 5988POPC   D2A15340  40.019  34.577   8.253
 5988POPC   C3A15341  40.028  34.617   7.953
 5988POPC   C4A15342  39.990  34.623   7.653
 5988POPC   C1B15343  39.792  34.645   8.553
 5988POPC   C2B15344  39.774  34.646   8.253
 5988POPC   C3B15345  39.764  34.656   7.953
 5988POPC   C4B15346  39.723  34.582   7.653
 5989POPC   NC315347  23.711  13.664   9.453
 5989POPC   PO415348  23.716  13.602   9.153
 5989POPC   GL115349  23.704  13.669   8.853
 5989POPC   GL215350  23.640  13.530   8.853
 5989POPC   C1A15351  23.707  13.667   8.553
 5989POPC   D2A15352  23.666  13.672   8.253
 5989POPC   C3A15353  23.740  13.602   7.953
 5989POPC   C4A15354  23.735  13.585   7.653
 5989POPC   C1B15355  23.541  13.399   8.553
 5989POPC   C2B15356  23.607  13.452   8.253
 5989POPC   C3B15357  23.566  13.452   7.953
 5989POPC   C4B15358  23.569  13.451   7.653
 5990POPC   NC315359  43.068   2.030   9.453
 5990POPC   PO415360  43.145   1.974   9.153
 5990POPC   GL115361  43.160   2.001   8.853
 5990POPC   GL215362  43.015   2.052   8.853
 5990POPC   C1A15363  43.133   1.999   8.553
 5990POPC   D2A15364  43.065   1.963   8.253
 5990POPC   C3A15365  43.122   1.943   7.953
 5990POPC   C4A15366  43.134   2.008   7.653
 5990POPC   C1B15367  42.959   2.141   8.553
 5990POPC   C2B15368  42.901   2.145   8.253
 5990POPC   C3B15369  42.883   2.133   7.953
 5990POPC   C4B15370  42.929   2.176   7.653
 5991POPC   NC315371  36.125  32.209   9.453
 5991POPC   PO415372  36.111  32.261   9.153
 5991POPC   GL115373  36.147  32.259   8.853
 5991POPC   GL215374  36.158  32.395   8.853
 5991POPC   C1A15375  36.102  32.231   8.553
 5991POPC   D2A15376  36.164  32.204   8.253
 5991POPC   C3A15377  36.120  32.204   7.953
 5991POPC   C4A15378  36.156  32.273   7.653
 5991POPC   C1B15379  36.216  32.503   8.553
 5991POPC   C2B15380  36.237  32.495   8.253
 5991POPC   C3B15381  36.288  32.414   7.953
 5991POPC   C4B15382  36.244  32.429   7.653
 5992POPC   NC315383  16.743  11.334   9.453
 5992POPC   PO415384  16.705  11.301   9.153
 5992POPC   GL115385  16.778  11.310   8.853
 5992POPC   GL215386  16.893  11.292   8.853
 5992POPC   C1A15387  16.764  11.250   8.553
 5992POPC   D2A15388  16.745  11.341   8.253
 5992POPC   C3A15389  16.714  11.274   7.953
 5992POPC   C4A15390  16.693  11.283   7.653
 5992POPC   C1B15391  16.953  11.295   8.553
 5992POPC   C2B15392  16.995  11.321   8.253
 5992POPC   C3B15393  16.982  11.251   7.953
 5992POPC   C4B15394  16.983  11.234   7.653
 5993POPC   NC315395  21.356  33.769   9.453
 5993POPC   PO415396  21.405  33.812   9.153
 5993POPC   GL115397  21.410  33.839   8.853
 5993POPC   GL215398  21.482  33.798   8.853
 5993POPC   C1A15399  21.346  33.775   8.553
 5993POPC   D2A15400  21.351  33.788   8.253
 5993POPC   C3A15401  21.363  33.788   7.953
 5993POPC   C4A15402  21.427  33.754   7.653
 5993POPC   C1B15403  21.620  33.763   8.553
 5993POPC   C2B15404  21.611  33.694   8.253
 5993POPC   C3B15405  21.632  33.758   7.953
 5993POPC   C4B15406  21.580  33.773   7.653
 5994POPC   NC315407   9.770  11.297   9.453
 5994POPC   PO415408   9.761  11.264   9.153
 5994POPC   GL115409   9.782  11.296   8.853
 5994POPC   GL215410   9.617  11.272   8.853
 5994POPC   C1A15411   9.743  11.268   8.553
 5994POPC   D2A15412   9.770  11.288   8.253
 5994POPC   C3A15413   9.757  11.274   7.953
 5994POPC   C4A15414   9.746  11.328   7.653
 5994POPC   C1B15415   9.566  11.183   8.553
 5994POPC   C2B15416   9.555  11.161   8.253
 5994POPC   C3B15417   9.580  11.145   7.953
 5994POPC   C4B15418   9.551  11.134   7.653
 5995POPC   NC315419  39.971  33.753   9.453
 5995POPC   PO415420  39.958  33.770   9.153
 5995POPC   GL115421  40.005  33.831   8.853
 5995POPC   GL215422  40.076  33.725   8.853
 5995POPC   C1A15423  39.966  33.766   8.553
 5995POPC   D2A15424  40.029  33.823   8.253
 5995POPC   C3A15425  39.972  33.841   7.953
 5995POPC   C4A15426  39.969  33.807   7.653
 5995POPC   C1B15427  40.129  33.623   8.553
 5995POPC   C2B15428  40.145  33.644   8.253
 5995POPC   C3B15429  40.171  33.600   7.953
 5995POPC   C4B15430  40.144  33.594   7.653
 5996POPC   NC315431   6.597  20.635   9.453
 5996POPC   PO415432   6.665  20.623   9.153
 5996POPC   GL115433   6.625  20.627   8.853
 5996POPC   GL215434   6.766  20.535   8.853
 5996POPC   C1A15435   6.684  20.562   8.553
 5996POPC   D2A15436   6.666  20.571   8.253
 5996POPC   C3A15437   6.684  20.619   7.953
 5996POPC   C4A15438   6.612  20.623   7.653
 5996POPC   C1B15439   6.824  20.479   8.553
 5996POPC   C2B15440   6.868  20.409   8.253
 5996POPC   C3B15441   6.854  20.464   7.953
 5996POPC   C4B15442   6.875  20.406   7.653
 5997POPC   NC315443   8.989  29.159   9.453
 5997POPC   PO415444   9.013  29.116   9.153
 5997POPC   GL115445   9.014  29.192   8.853
 5997POPC   GL215446   8.862  29.232   8.853
 5997POPC   C1A15447   8.938  29.163   8.553
 5997POPC   D2A15448   8.934  29.120   8.253
 5997POPC   C3A15449   9.015  29.102   7.953
 5997POPC   C4A15450   8.990  29.095   7.653
 5997POPC   C1B15451   8.711  29.248   8.553
 5997POPC   C2B15452   8.735  29.217   8.253
 5997POPC   C3B15453   8.720  29.255   7.953
 5997POPC   C4B15454   8.686  29.226   7.653
 5998POPC   NC315455  10.531  40.817   9.453
 5998POPC   PO415456  10.511  40.789   9.153
 5998POPC   GL115457  10.569  40.764   8.853
 5998POPC   GL215458  10.565  40.938   8.853
 5998POPC   C1A15459  10.545  40.745   8.553
 5998POPC   D2A15460  10.511  40.750   8.253
 5998POPC   C3A15461  10.511  40.820   7.953
 5998POPC   C4A15462  10.544  40.774   7.653
 5998POPC   C1B15463  10.546  41.067   8.553
 5998POPC   C2B15464  10.505  41.044   8.253
 5998POPC   C3B15465  10.503  40.993   7.953
 5998POPC   C4B15466  10.561  41.065   7.653
 5999POPC   NC315467  29.896  38.504   9.453
 5999POPC   PO415468  29.932  38.425   9.153
 5999POPC   GL115469  29.905  38.494   8.853
 5999POPC   GL215470  29.828  38.553   8.853
 5999POPC   C1A15471  29.877  38.439   8.553
 5999POPC   D2A15472  29.883  38.505   8.253
 5999POPC   C3A15473  29.871  38.422   7.953
 5999POPC   C4A15474  29.914  38.446   7.653
 5999POPC   C1B15475  29.654  38.599   8.553
 5999POPC   C2B15476  29.652  38.510   8.253
 5999POPC   C3B15477  29.680  38.605   7.953
 5999POPC   C4B15478  29.708  38.551   7.653
 6000POPC   NC315479   0.436  36.901   9.453
 6000POPC   PO415480   0.469  36.892   9.153
 6000POPC   GL115481   0.396  36.896   8.853
 6000POPC   GL215482   0.535  37.007   8.853
 6000POPC   C1A15483   0.446  36.947   8.553
 6000POPC   D2A15484   0.423  36.912   8.253
 6000POPC   C3A15485   0.480  36.935   7.953
 6000POPC   C4A15486   0.442  36.895   7.653
 6000POPC   C1B15487   0.652  37.040   8.553
 6000POPC   C2B15488   0.617  37.033   8.253
 6000POPC   C3B15489   0.653  37.077   7.953
 6000POPC   C4B15490   0.646  37.093   7.653
 6001POPC   NC315491  18.299   7.414   9.453
 6001POPC   PO415492  18.314   7.438   9.153
 6001POPC   GL115493  18.264   7.382   8.853
 6001POPC   GL215494  18.243   7.276   8.853
 6001POPC   C1A15495  18.265   7.433   8.553
 6001POPC   D2A15496  18.266   7.403   8.253
 6001POPC   C3A15497  18.283   7.406   7.953
 6001POPC   C4A15498  18.254   7.464   7.653
 6001POPC   C1B15499  18.247   7.126   8.553
 6001POPC   C2B15500  18.254   7.146   8.253
 6001POPC   C3B15501  18.329   7.192   7.953
 6001POPC   C4B15502  18.332   7.219   7.653
 6002POPC   NC315503   4.344  33.816   9.453
 6002POPC   PO415504   4.273  33.753   9.153
 6002POPC   GL115505   4.305  33.799   8.853
 6002POPC   GL215506   4.259  33.742   8.853
 6002POPC   C1A15507   4.320  33.773   8.553
 6002POPC   D2A15508   4.269  33.765   8.253
 6002POPC   C3A15509   4.366  33.821   7.953
 6002POPC   C4A15510   4.280  33.833   7.653
 6002POPC   C1B15511   4.223  33.587   8.553
 6002POPC   C2B15512   4.145  33.592   8.253
 6002POPC   C3B15513   4.137  33.596   7.953
 6002POPC   C4B15514   4.212  33.583   7.653
 6003POPC   NC315515   8.208  37.649   9.453
 6003POPC   PO415516   8.212  37.655   9.153
 6003POPC   GL115517   8.162  37.672   8.853
 6003POPC   GL215518   8.118  37.637   8.853
 6003POPC   C1A15519   8.164  37.630   8.553
 6003POPC   D2A15520   8.212  37.700   8.253
 6003POPC   C3A15521   8.243  37.692   7.953
 6003POPC   C4A15522   8.176  37.676   7.653
 6003POPC   C1B15523   7.943  37.588   8.553
 6003POPC   C2B15524   7.927  37.638   8.253
 6003POPC   C3B15525   8.002  37.573   7.953
 6003POPC   C4B15526   8.002  37.585   7.653
 6004POPC   NC315527  12.045   9.765   9.453
 6004POPC   PO415528  12.030   9.753   9.153
 6004POPC   GL115529  12.087   9.711   8.853
 6004POPC   GL215530  12.009   9.843   8.853
 6004POPC   C1A15531  12.072   9.749   8.553
 6004POPC   D2A15532  12.034   9.772   8.253
 6004POPC   C3A15533  12.095   9.706   7.953
 6004POPC   C4A15534  12.103   9.785   7.653
 6004POPC   C1B15535  11.910   9.909   8.553
 6004POPC   C2B15536  11.954   9.926   8.253
 6004POPC   C3B15537  11.964   9.926   7.953
 6004POPC   C4B15538  11.892   9.977   7.653
 6005POPC   NC315539  16.735  13.617   9.453
 6005POPC   PO415540  16.743  13.665   9.153
 6005POPC   GL115541  16.732  13.607   8.853
 6005POPC   GL215542  16.715  13.464   8.853
 6005POPC   C1A15543  16.688  13.588   8.553
 6005POPC   D2A15544  16.742  13.595   8.253
 6005POPC   C3A15545  16.698  13.586   7.953
 6005POPC   C4A15546  16.688  13.656   7.653
 6005POPC   C1B15547  16.663  13.339   8.553
 6005POPC   C2B15548  16.678  13.398   8.253
 6005POPC   C3B15549  16.717  13.419   7.953
 6005POPC   C4B15550  16.680  13.383   7.653
 6006POPC   NC315551  25.994  19.049   9.453
 6006POPC   PO415552  26.018  19.067   9.153
 6006POPC   GL115553  26.080  19.107   8.853
 6006POPC   GL215554  25.913  19.137   8.853
 6006POPC   C1A15555  26.067  19.108   8.553
 6006POPC   D2A15556  26.012  19.067   8.253
 6006POPC   C3A15557  25.993  19.079   7.953
 6006POPC   C4A15558  26.025  19.026   7.653
 6006POPC   C1B15559  25.859  19.162   8.553
 6006POPC   C2B15560  25.869  19.235   8.253
 6006POPC   C3B15561  25.851  19.217   7.953
 6006POPC   C4B15562  25.884  19.250   7.653
 6007POPC   NC315563  34.571  29.112   9.453
 6007POPC   PO415564  34.610  29.160   9.153
 6007POPC   GL115565  34.551  29.117   8.853
 6007POPC   GL215566  34.426  29.170   8.853
 6007POPC   C1A15567  34.527  29.131   8.553
 6007POPC   D2A15568  34.573  29.098   8.253
 6007POPC   C3A15569  34.577  29.124   7.953
 6007POPC   C4A15570  34.567  29.164   7.653
 6007POPC   C1B15571  34.369  29.195   8.553
 6007POPC   C2B15572  34.348  29.247   8.253
 6007POPC   C3B15573  34.352  29.191   7.953
 6007POPC   C4B15574  34.345  29.197   7.653
 6008POPC   NC315575   2.810   6.596   9.453
 6008POPC   PO415576   2.763   6.595   9.153
 6008POPC   GL115577   2.784   6.639   8.853
 6008POPC   GL215578   2.657   6.561   8.853
 6008POPC   C1A15579   2.719   6.637   8.553
 6008POPC   D2A15580   2.803   6.622   8.253
 6008POPC   C3A15581   2.783   6.652   7.953
 6008POPC   C4A15582   2.769   6.657   7.653
 6008POPC   C1B15583   2.535   6.606   8.553
 6008POPC   C2B15584   2.525   6.548   8.253
 6008POPC   C3B15585   2.540   6.578   7.953
 6008POPC   C4B15586   2.535   6.621   7.653
 6009POPC   NC315587  28.403  42.318   9.453
 6009POPC   PO415588  28.413  42.300   9.153
 6009POPC   GL115589  28.337  42.382   8.853
 6009POPC   GL215590  28.413  42.198   8.853
 6009POPC   C1A15591  28.383  42.325   8.553
 6009POPC   D2A15592  28.414  42.381   8.253
 6009POPC   C3A15593  28.386  42.350   7.953
 6009POPC   C4A15594  28.321  42.290   7.653
 6009POPC   C1B15595  28.559  42.117   8.553
 6009POPC   C2B15596  28.500  42.115   8.253
 6009POPC   C3B15597  28.509  42.175   7.953
 6009POPC   C4B15598  28.534  42.104   7.653
 6010POPC   NC315599   4.356  20.658   9.453
 6010POPC   PO415600   4.294  20.623   9.153
 6010POPC   GL115601   4.286  20.639   8.853
 6010POPC   GL215602   4.416  20.712   8.853
 6010POPC   C1A15603   4.296  20.643   8.553
 6010POPC   D2A15604   4.315  20.639   8.253
 6010POPC   C3A15605   4.358  20.563   7.953
 6010POPC   C4A15606   4.284  20.637   7.653
 6010POPC   C1B15607   4.428  20.812   8.553
 6010POPC   C2B15608   4.470  20.820   8.253
 6010POPC   C3B15609   4.485  20.795   7.953
 6010POPC   C4B15610   4.507  20.834   7.653
 6011POPC   NC315611  24.447   5.129   9.453
 6011POPC   PO415612  24.474   5.111   9.153
 6011POPC   GL115613  24.468   5.067   8.853
 6011POPC   GL215614  24.429   5.150   8.853
 6011POPC   C1A15615  24.532   5.111   8.553
 6011POPC   D2A15616  24.478   5.132   8.253
 6011POPC   C3A15617  24.464   5.131   7.953
 6011POPC   C4A15618  24.517   5.069   7.653
 6011POPC   C1B15619  24.315   5.239   8.553
 6011POPC   C2B15620  24.299   5.230   8.253
 6011POPC   C3B15621  24.252   5.259   7.953
 6011POPC   C4B15622  24.246   5.254   7.653
 6012POPC   NC315623  29.949  21.375   9.453
 6012POPC   PO415624  29.939  21.430   9.153
 6012POPC   GL115625  29.958  21.340   8.853
 6012POPC   GL215626  30.075  21.437   8.853
 6012POPC   C1A15627  29.913  21.421   8.553
 6012POPC   D2A15628  29.960  21.417   8.253
 6012POPC   C3A15629  29.922  21.412   7.953
 6012POPC   C4A15630  29.922  21.380   7.653
 6012POPC   C1B15631  30.174  21.488   8.553
 6012POPC   C2B15632  30.152  21.406   8.253
 6012POPC   C3B15633  30.184  21.452   7.953
 6012POPC   C4B15634  30.116  21.430   7.653
 6013POPC   NC315635  26.058  36.130   9.453
 6013POPC   PO415636  26.083  36.093   9.153
 6013POPC   GL115637  26.069  36.125   8.853
 6013POPC   GL215638  26.107  36.212   8.853
 6013POPC   C1A15639  26.079  36.151   8.553
 6013POPC   D2A15640  26.047  36.133   8.253
 6013POPC   C3A15641  26.034  36.086   7.953
 6013POPC   C4A15642  26.008  36.147   7.653
 6013POPC   C1B15643  26.155  36.279   8.553
 6013POPC   C2B15644  26.192  36.281   8.253
 6013POPC   C3B15645  26.206  36.344   7.953
 6013POPC   C4B15646  26.221  36.282   7.653
 6014POPC   NC315647  18.323  43.900   9.453
 6014POPC   PO415648  18.252  43.863   9.153
 6014POPC   GL115649  18.239  43.922   8.853
 6014POPC   GL215650  18.258  44.014   8.853
 6014POPC   C1A15651  18.316  43.920   8.553
 6014POPC   D2A15652  18.248  43.853   8.253
 6014POPC   C3A15653  18.312  43.903   7.953
 6014POPC   C4A15654  18.289  43.859   7.653
 6014POPC   C1B15655  18.269  44.133   8.553
 6014POPC   C2B15656  18.226  44.151   8.253
 6014POPC   C3B15657  18.277  44.148   7.953
 6014POPC   C4B15658  18.287  44.162   7.653
 6015POPC   NC315659  16.754   8.221   9.453
 6015POPC   PO415660  16.704   8.194   9.153
 6015POPC   GL115661  16.744   8.233   8.853
 6015POPC   GL215662  16.579   8.226   8.853
 6015POPC   C1A15663  16.725   8.199   8.553
 6015POPC   D2A15664  16.703   8.198   8.253
 6015POPC   C3A15665  16.778   8.210   7.953
 6015POPC   C4A15666  16.685   8.242   7.653
 6015POPC   C1B15667  16.479   8.211   8.553
 6015POPC   C2B15668  16.469   8.235   8.253
 6015POPC   C3B15669  16.453   8.241   7.953
 6015POPC   C4B15670  16.440   8.269   7.653
 6016POPC   NC315671  36.131  37.671   9.453
 6016POPC   PO415672  36.121  37.713   9.153
 6016POPC   GL115673  36.173  37.728   8.853
 6016POPC   GL215674  36.044  37.672   8.853
 6016POPC   C1A15675  36.127  37.659   8.553
 6016POPC   D2A15676  36.129  37.716   8.253
 6016POPC   C3A15677  36.127  37.655   7.953
 6016POPC   C4A15678  36.167  37.636   7.653
 6016POPC   C1B15679  35.836  37.619   8.553
 6016POPC   C2B15680  35.924  37.653   8.253
 6016POPC   C3B15681  35.922  37.700   7.953
 6016POPC   C4B15682  35.857  37.648   7.653
 6017POPC   NC315683  43.070  22.125   9.453
 6017POPC   PO415684  43.098  22.158   9.153
 6017POPC   GL115685  43.127  22.128   8.853
 6017POPC   GL215686  43.122  22.031   8.853
 6017POPC   C1A15687  43.103  22.156   8.553
 6017POPC   D2A15688  43.156  22.123   8.253
 6017POPC   C3A15689  43.127  22.205   7.953
 6017POPC   C4A15690  43.104  22.201   7.653
 6017POPC   C1B15691  43.141  21.943   8.553
 6017POPC   C2B15692  43.130  21.959   8.253
 6017POPC   C3B15693  43.160  21.875   7.953
 6017POPC   C4B15694  43.145  21.922   7.653
 6018POPC   NC315695   5.142  35.338   9.453
 6018POPC   PO415696   5.046  35.375   9.153
 6018POPC   GL115697   5.109  35.388   8.853
 6018POPC   GL215698   5.032  35.270   8.853
 6018POPC   C1A15699   5.109  35.317   8.553
 6018POPC   D2A15700   5.083  35.396   8.253
 6018POPC   C3A15701   5.073  35.350   7.953
 6018POPC   C4A15702   5.143  35.393   7.653
 6018POPC   C1B15703   4.992  35.078   8.553
 6018POPC   C2B15704   5.045  35.112   8.253
 6018POPC   C3B15705   5.066  35.151   7.953
 6018POPC   C4B15706   5.007  35.093   7.653
 6019POPC   NC315707   8.165   4.311   9.453
 6019POPC   PO415708   8.246   4.293   9.153
 6019POPC   GL115709   8.152   4.344   8.853
 6019POPC   GL215710   8.086   4.420   8.853
 6019POPC   C1A15711   8.183   4.353   8.553
 6019POPC   D2A15712   8.164   4.366   8.253
 6019POPC   C3A15713   8.195   4.333   7.953
 6019POPC   C4A15714   8.157   4.343   7.653
 6019POPC   C1B15715   8.042   4.549   8.553
 6019POPC   C2B15716   8.023   4.553   8.253
 6019POPC   C3B15717   8.024   4.501   7.953
 6019POPC   C4B15718   8.062   4.470   7.653
 6020POPC   NC315719  26.824  40.052   9.453
 6020POPC   PO415720  26.801  40.012   9.153
 6020POPC   GL115721  26.797  39.967   8.853
 6020POPC   GL215722  26.982  39.993   8.853
 6020POPC   C1A15723  26.829  39.960   8.553
 6020POPC   D2A15724  26.772  40.044   8.253
 6020POPC   C3A15725  26.811  40.000   7.953
 6020POPC   C4A15726  26.841  39.971   7.653
 6020POPC   C1B15727  27.084  39.985   8.553
 6020POPC   C2B15728  27.028  40.039   8.253
 6020POPC   C3B15729  27.043  40.016   7.953
 6020POPC   C4B15730  27.033  40.065   7.653
 6021POPC   NC315731  40.745  12.826   9.453
 6021POPC   PO415732  40.787  12.886   9.153
 6021POPC   GL115733  40.823  12.879   8.853
 6021POPC   GL215734  40.904  12.934   8.853
 6021POPC   C1A15735  40.794  12.836   8.553
 6021POPC   D2A15736  40.818  12.851   8.253
 6021POPC   C3A15737  40.799  12.869   7.953
 6021POPC   C4A15738  40.803  12.865   7.653
 6021POPC   C1B15739  40.983  12.969   8.553
 6021POPC   C2B15740  41.005  13.031   8.253
 6021POPC   C3B15741  40.980  12.983   7.953
 6021POPC   C4B15742  41.024  12.982   7.653
 6022POPC   NC315743  27.640  27.606   9.453
 6022POPC   PO415744  27.629  27.643   9.153
 6022POPC   GL115745  27.569  27.643   8.853
 6022POPC   GL215746  27.654  27.692   8.853
 6022POPC   C1A15747  27.564  27.628   8.553
 6022POPC   D2A15748  27.626  27.604   8.253
 6022POPC   C3A15749  27.551  27.612   7.953
 6022POPC   C4A15750  27.629  27.555   7.653
 6022POPC   C1B15751  27.762  27.700   8.553
 6022POPC   C2B15752  27.744  27.722   8.253
 6022POPC   C3B15753  27.801  27.775   7.953
 6022POPC   C4B15754  27.786  27.769   7.653
 6023POPC   NC315755  43.917  23.750   9.453
 6023POPC   PO415756  43.882  23.759   9.153
 6023POPC   GL115757  43.839  23.751   8.853
 6023POPC   GL215758  43.940  23.801   8.853
 6023POPC   C1A15759  43.871  23.761   8.553
 6023POPC   D2A15760  43.867  23.696   8.253
 6023POPC   C3A15761  43.916  23.717   7.953
 6023POPC   C4A15762  43.930  23.726   7.653
 6023POPC   C1B15763  44.040  23.872   8.553
 6023POPC   C2B15764  44.012  23.900   8.253
 6023POPC   C3B15765  44.007  23.850   7.953
 6023POPC   C4B15766  44.084  23.876   7.653
 6024POPC   NC315767  41.539  13.677   9.453
 6024POPC   PO415768  41.519  13.626   9.153
 6024POPC   GL115769  41.576  13.633   8.853
 6024POPC   GL215770  41.475  13.580   8.853
 6024POPC   C1A15771  41.568  13.675   8.553
 6024POPC   D2A15772  41.568  13.644   8.253
 6024POPC   C3A15773  41.529  13.592   7.953
 6024POPC   C4A15774  41.571  13.670   7.653
 6024POPC   C1B15775  41.320  13.549   8.553
 6024POPC   C2B15776  41.277  13.600   8.253
 6024POPC   C3B15777  41.298  13.542   7.953
 6024POPC   C4B15778  41.343  13.586   7.653
 6025POPC   NC315779  18.293   1.186   9.453
 6025POPC   PO415780  18.253   1.260   9.153
 6025POPC   GL115781  18.289   1.195   8.853
 6025POPC   GL215782  18.180   1.209   8.853
 6025POPC   C1A15783  18.245   1.179   8.553
 6025POPC   D2A15784  18.252   1.215   8.253
 6025POPC   C3A15785  18.329   1.198   7.953
 6025POPC   C4A15786  18.328   1.264   7.653
 6025POPC   C1B15787  17.985   1.197   8.553
 6025POPC   C2B15788  18.040   1.187   8.253
 6025POPC   C3B15789  18.068   1.266   7.953
 6025POPC   C4B15790  18.064   1.268   7.653
 6026POPC   NC315791  19.812  26.794   9.453
 6026POPC   PO415792  19.808  26.844   9.153
 6026POPC   GL115793  19.813  26.853   8.853
 6026POPC   GL215794  19.896  26.748   8.853
 6026POPC   C1A15795  19.808  26.866   8.553
 6026POPC   D2A15796  19.855  26.795   8.253
 6026POPC   C3A15797  19.815  26.783   7.953
 6026POPC   C4A15798  19.796  26.828   7.653
 6026POPC   C1B15799  19.985  26.656   8.553
 6026POPC   C2B15800  20.026  26.624   8.253
 6026POPC   C3B15801  20.039  26.586   7.953
 6026POPC   C4B15802  20.016  26.601   7.653
 6027POPC   NC315803  31.434  33.021   9.453
 6027POPC   PO415804  31.482  33.018   9.153
 6027POPC   GL115805  31.433  32.991   8.853
 6027POPC   GL215806  31.465  33.097   8.853
 6027POPC   C1A15807  31.424  33.033   8.553
 6027POPC   D2A15808  31.510  32.990   8.253
 6027POPC   C3A15809  31.489  33.060   7.953
 6027POPC   C4A15810  31.510  33.014   7.653
 6027POPC   C1B15811  31.522  33.277   8.553
 6027POPC   C2B15812  31.544  33.282   8.253
 6027POPC   C3B15813  31.518  33.291   7.953
 6027POPC   C4B15814  31.559  33.250   7.653
 6028POPC   NC315815  44.633  15.986   9.453
 6028POPC   PO415816  44.615  15.987   9.153
 6028POPC   GL115817  44.673  15.986   8.853
 6028POPC   GL215818  44.628  15.838   8.853
 6028POPC   C1A15819  44.621  15.944   8.553
 6028POPC   D2A15820  44.674  15.966   8.253
 6028POPC   C3A15821  44.645  15.910   7.953
 6028POPC   C4A15822  44.647  15.932   7.653
 6028POPC   C1B15823  44.719  15.670   8.553
 6028POPC   C2B15824  44.731  15.709   8.253
 6028POPC   C3B15825  44.689  15.749   7.953
 6028POPC   C4B15826  44.700  15.683   7.653
 6029POPC   NC315827   1.189  36.161   9.453
 6029POPC   PO415828   1.236  36.107   9.153
 6029POPC   GL115829   1.260  36.126   8.853
 6029POPC   GL215830   1.110  36.235   8.853
 6029POPC   C1A15831   1.240  36.103   8.553
 6029POPC   D2A15832   1.247  36.085   8.253
 6029POPC   C3A15833   1.255  36.126   7.953
 6029POPC   C4A15834   1.231  36.144   7.653
 6029POPC   C1B15835   1.011  36.319   8.553
 6029POPC   C2B15836   1.036  36.307   8.253
 6029POPC   C3B15837   1.020  36.322   7.953
 6029POPC   C4B15838   0.998  36.333   7.653
 6030POPC   NC315839   0.406  43.863   9.453
 6030POPC   PO415840   0.455  43.915   9.153
 6030POPC   GL115841   0.441  43.927   8.853
 6030POPC   GL215842   0.404  43.777   8.853
 6030POPC   C1A15843   0.407  43.901   8.553
 6030POPC   D2A15844   0.393  43.872   8.253
 6030POPC   C3A15845   0.415  43.875   7.953
 6030POPC   C4A15846   0.470  43.867   7.653
 6030POPC   C1B15847   0.369  43.632   8.553
 6030POPC   C2B15848   0.343  43.603   8.253
 6030POPC   C3B15849   0.365  43.599   7.953
 6030POPC   C4B15850   0.372  43.687   7.653
 6031POPC   NC315851   0.461  13.619   9.453
 6031POPC   PO415852   0.395  13.671   9.153
 6031POPC   GL115853   0.475  13.621   8.853
 6031POPC   GL215854   0.403  13.757   8.853
 6031POPC   C1A15855   0.459  13.653   8.553
 6031POPC   D2A15856   0.467  13.629   8.253
 6031POPC   C3A15857   0.462  13.636   7.953
 6031POPC   C4A15858   0.432  13.662   7.653
 6031POPC   C1B15859   0.401  13.835   8.553
 6031POPC   C2B15860   0.306  13.891   8.253
 6031POPC   C3B15861   0.397  13.824   7.953
 6031POPC   C4B15862   0.385  13.834   7.653
 6032POPC   NC315863  33.049  41.546   9.453
 6032POPC   PO415864  32.977  41.581   9.153
 6032POPC   GL115865  32.991  41.593   8.853
 6032POPC   GL215866  32.976  41.718   8.853
 6032POPC   C1A15867  33.013  41.525   8.553
 6032POPC   D2A15868  33.021  41.581   8.253
 6032POPC   C3A15869  33.002  41.587   7.953
 6032POPC   C4A15870  32.974  41.562   7.653
 6032POPC   C1B15871  32.934  41.790   8.553
 6032POPC   C2B15872  32.999  41.773   8.253
 6032POPC   C3B15873  32.981  41.776   7.953
 6032POPC   C4B15874  32.994  41.752   7.653
 6033POPC   NC315875  40.013  25.278   9.453
 6033POPC   PO415876  40.023  25.243   9.153
 6033POPC   GL115877  39.971  25.305   8.853
 6033POPC   GL215878  39.951  25.212   8.853
 6033POPC   C1A15879  40.057  25.277   8.553
 6033POPC   D2A15880  40.044  25.289   8.253
 6033POPC   C3A15881  39.961  25.288   7.953
 6033POPC   C4A15882  39.999  25.297   7.653
 6033POPC   C1B15883  39.795  25.101   8.553
 6033POPC   C2B15884  39.797  25.076   8.253
 6033POPC   C3B15885  39.829  25.034   7.953
 6033POPC   C4B15886  39.884  25.029   7.653
 6034POPC   NC315887  26.023   3.508   9.453
 6034POPC   PO415888  26.053   3.553   9.153
 6034POPC   GL115889  26.005   3.516   8.853
 6034POPC   GL215890  26.139   3.639   8.853
 6034POPC   C1A15891  26.039   3.515   8.553
 6034POPC   D2A15892  26.069   3.535   8.253
 6034POPC   C3A15893  26.030   3.578   7.953
 6034POPC   C4A15894  26.060   3.567   7.653
 6034POPC   C1B15895  26.217   3.720   8.553
 6034POPC   C2B15896  26.179   3.788   8.253
 6034POPC   C3B15897  26.217   3.717   7.953
 6034POPC   C4B15898  26.165   3.783   7.653
 6035POPC   NC315899  18.333  31.476   9.453
 6035POPC   PO415900  18.274  31.464   9.153
 6035POPC   GL115901  18.240  31.492   8.853
 6035POPC   GL215902  18.428  31.510   8.853
 6035POPC   C1A15903  18.276  31.475   8.553
 6035POPC   D2A15904  18.269  31.459   8.253
 6035POPC   C3A15905  18.324  31.432   7.953
 6035POPC   C4A15906  18.288  31.423   7.653
 6035POPC   C1B15907  18.534  31.550   8.553
 6035POPC   C2B15908  18.495  31.540   8.253
 6035POPC   C3B15909  18.481  31.589   7.953
 6035POPC   C4B15910  18.539  31.522   7.653
 6036POPC   NC315911  27.551  32.234   9.453
 6036POPC   PO415912  27.592  32.266   9.153
 6036POPC   GL115913  27.634  32.286   8.853
 6036POPC   GL215914  27.534  32.082   8.853
 6036POPC   C1A15915  27.544  32.296   8.553
 6036POPC   D2A15916  27.564  32.246   8.253
 6036POPC   C3A15917  27.619  32.225   7.953
 6036POPC   C4A15918  27.546  32.244   7.653
 6036POPC   C1B15919  27.486  31.990   8.553
 6036POPC   C2B15920  27.505  31.994   8.253
 6036POPC   C3B15921  27.532  32.023   7.953
 6036POPC   C4B15922  27.552  31.984   7.653
 6037POPC   NC315923  35.307  32.974   9.453
 6037POPC   PO415924  35.391  33.073   9.153
 6037POPC   GL115925  35.397  32.989   8.853
 6037POPC   GL215926  35.496  32.937   8.853
 6037POPC   C1A15927  35.392  33.051   8.553
 6037POPC   D2A15928  35.390  33.020   8.253
 6037POPC   C3A15929  35.369  32.998   7.953
 6037POPC   C4A15930  35.302  33.055   7.653
 6037POPC   C1B15931  35.558  32.870   8.553
 6037POPC   C2B15932  35.511  32.869   8.253
 6037POPC   C3B15933  35.534  32.880   7.953
 6037POPC   C4B15934  35.585  32.893   7.653
 6038POPC   NC315935  36.881  36.151   9.453
 6038POPC   PO415936  36.864  36.086   9.153
 6038POPC   GL115937  36.883  36.140   8.853
 6038POPC   GL215938  36.958  36.215   8.853
 6038POPC   C1A15939  36.936  36.169   8.553
 6038POPC   D2A15940  36.918  36.079   8.253
 6038POPC   C3A15941  36.892  36.098   7.953
 6038POPC   C4A15942  36.889  36.111   7.653
 6038POPC   C1B15943  37.084  36.362   8.553
 6038POPC   C2B15944  37.082  36.334   8.253
 6038POPC   C3B15945  37.037  36.337   7.953
 6038POPC   C4B15946  37.052  36.334   7.653
 6039POPC   NC315947  33.812   7.434   9.453
 6039POPC   PO415948  33.757   7.419   9.153
 6039POPC   GL115949  33.824   7.462   8.853
 6039POPC   GL215950  33.713   7.473   8.853
 6039POPC   C1A15951  33.848   7.381   8.553
 6039POPC   D2A15952  33.771   7.411   8.253
 6039POPC   C3A15953  33.837   7.417   7.953
 6039POPC   C4A15954  33.792   7.450   7.653
 6039POPC   C1B15955  33.554   7.620   8.553
 6039POPC   C2B15956  33.577   7.584   8.253
 6039POPC   C3B15957  33.644   7.543   7.953
 6039POPC   C4B15958  33.558   7.601   7.653
 6040POPC   NC315959  12.034  19.108   9.453
 6040POPC   PO415960  12.027  19.095   9.153
 6040POPC   GL115961  12.074  19.066   8.853
 6040POPC   GL215962  12.114  19.170   8.853
 6040POPC   C1A15963  12.070  19.022   8.553
 6040POPC   D2A15964  12.065  19.082   8.253
 6040POPC   C3A15965  12.094  19.058   7.953
 6040POPC   C4A15966  12.062  19.052   7.653
 6040POPC   C1B15967  12.200  19.236   8.553
 6040POPC   C2B15968  12.241  19.313   8.253
 6040POPC   C3B15969  12.195  19.291   7.953
 6040POPC   C4B15970  12.179  19.242   7.653
 6041POPC   NC315971   4.322  37.658   9.453
 6041POPC   PO415972   4.308  37.681   9.153
 6041POPC   GL115973   4.296  37.666   8.853
 6041POPC   GL215974   4.206  37.685   8.853
 6041POPC   C1A15975   4.346  37.650   8.553
 6041POPC   D2A15976   4.292  37.700   8.253
 6041POPC   C3A15977   4.309  37.713   7.953
 6041POPC   C4A15978   4.329  37.692   7.653
 6041POPC   C1B15979   4.053  37.773   8.553
 6041POPC   C2B15980   4.038  37.823   8.253
 6041POPC   C3B15981   4.099  37.755   7.953
 6041POPC   C4B15982   4.068  37.762   7.653
 6042POPC   NC315983  24.521   4.275   9.453
 6042POPC   PO415984  24.444   4.349   9.153
 6042POPC   GL115985  24.518   4.363   8.853
 6042POPC   GL215986  24.353   4.429   8.853
 6042POPC   C1A15987  24.518   4.366   8.553
 6042POPC   D2A15988  24.489   4.274   8.253
 6042POPC   C3A15989  24.535   4.347   7.953
 6042POPC   C4A15990  24.521   4.339   7.653
 6042POPC   C1B15991  24.313   4.446   8.553
 6042POPC   C2B15992  24.291   4.408   8.253
 6042POPC   C3B15993  24.255   4.421   7.953
 6042POPC   C4B15994  24.250   4.482   7.653
 6043POPC   NC315995  29.098  42.362   9.453
 6043POPC   PO415996  29.107  42.373   9.153
 6043POPC   GL115997  29.147  42.304   8.853
 6043POPC   GL215998  29.057  42.258   8.853
 6043POPC   C1A15999  29.177  42.345   8.553
 6043POPC   D2A16000  29.096  42.364   8.253
 6043POPC   C3A16001  29.135  42.323   7.953
 6043POPC   C4A16002  29.154  42.333   7.653
 6043POPC   C1B16003  28.892  42.170   8.553
 6043POPC   C2B16004  28.908  42.218   8.253
 6043POPC   C3B16005  28.909  42.161   7.953
 6043POPC   C4B16006  28.944  42.222   7.653
 6044POPC   NC316007  21.338  29.914   9.453
 6044POPC   PO416008  21.421  29.893   9.153
 6044POPC   GL116009  21.347  29.927   8.853
 6044POPC   GL216010  21.530  29.862   8.853
 6044POPC   C1A16011  21.375  29.920   8.553
 6044POPC   D2A16012  21.354  29.924   8.253
 6044POPC   C3A16013  21.376  29.898   7.953
 6044POPC   C4A16014  21.383  29.903   7.653
 6044POPC   C1B16015  21.611  29.880   8.553
 6044POPC   C2B16016  21.580  29.847   8.253
 6044POPC   C3B16017  21.574  29.857   7.953
 6044POPC   C4B16018  21.624  29.883   7.653
 6045POPC   NC316019   2.799  27.587   9.453
 6045POPC   PO416020   2.748  27.571   9.153
 6045POPC   GL116021   2.759  27.582   8.853
 6045POPC   GL216022   2.705  27.564   8.853
 6045POPC   C1A16023   2.764  27.598   8.553
 6045POPC   D2A16024   2.771  27.626   8.253
 6045POPC   C3A16025   2.795  27.627   7.953
 6045POPC   C4A16026   2.750  27.632   7.653
 6045POPC   C1B16027   2.539  27.451   8.553
 6045POPC   C2B16028   2.553  27.421   8.253
 6045POPC   C3B16029   2.528  27.429   7.953
 6045POPC   C4B16030   2.520  27.489   7.653
 6046POPC   NC316031  16.724  26.044   9.453
 6046POPC   PO416032  16.757  26.084   9.153
 6046POPC   GL116033  16.752  26.067   8.853
 6046POPC   GL216034  16.854  25.994   8.853
 6046POPC   C1A16035  16.709  26.073   8.553
 6046POPC   D2A16036  16.758  25.998   8.253
 6046POPC   C3A16037  16.725  26.083   7.953
 6046POPC   C4A16038  16.775  25.994   7.653
 6046POPC   C1B16039  17.015  26.048   8.553
 6046POPC   C2B16040  17.016  26.019   8.253
 6046POPC   C3B16041  16.963  26.057   7.953
 6046POPC   C4B16042  17.014  26.045   7.653
 6047POPC   NC316043  10.536  21.413   9.453
 6047POPC   PO416044  10.558  21.383   9.153
 6047POPC   GL116045  10.486  21.356   8.853
 6047POPC   GL216046  10.562  21.238   8.853
 6047POPC   C1A16047  10.483  21.351   8.553
 6047POPC   D2A16048  10.514  21.377   8.253
 6047POPC   C3A16049  10.495  21.382   7.953
 6047POPC   C4A16050  10.503  21.415   7.653
 6047POPC   C1B16051  10.669  21.156   8.553
 6047POPC   C2B16052  10.589  21.166   8.253
 6047POPC   C3B16053  10.581  21.110   7.953
 6047POPC   C4B16054  10.605  21.178   7.653
 6048POPC   NC316055   0.431  28.394   9.453
 6048POPC   PO416056   0.425  28.324   9.153
 6048POPC   GL116057   0.479  28.418   8.853
 6048POPC   GL216058   0.547  28.456   8.853
 6048POPC   C1A16059   0.437  28.342   8.553
 6048POPC   D2A16060   0.454  28.401   8.253
 6048POPC   C3A16061   0.448  28.324   7.953
 6048POPC   C4A16062   0.435  28.368   7.653
 6048POPC   C1B16063   0.696  28.483   8.553
 6048POPC   C2B16064   0.687  28.512   8.253
 6048POPC   C3B16065   0.670  28.507   7.953
 6048POPC   C4B16066   0.628  28.512   7.653
 6049POPC   NC316067  44.696  19.096   9.453
 6049POPC   PO416068  44.617  19.028   9.153
 6049POPC   GL116069  44.701  19.074   8.853
 6049POPC   GL216070  44.710  19.177   8.853
 6049POPC   C1A16071  44.653  19.083   8.553
 6049POPC   D2A16072  44.690  19.032   8.253
 6049POPC   C3A16073  44.625  19.013   7.953
 6049POPC   C4A16074  44.622  19.104   7.653
 6049POPC   C1B16075  44.745  19.333   8.553
 6049POPC   C2B16076  44.740  19.278   8.253
 6049POPC   C3B16077  44.654  19.342   7.953
 6049POPC   C4B16078  44.674  19.351   7.653
 6050POPC   NC316079  12.899  18.305   9.453
 6050POPC   PO416080  12.865  18.245   9.153
 6050POPC   GL116081  12.817  18.242   8.853
 6050POPC   GL216082  12.788  18.376   8.853
 6050POPC   C1A16083  12.895  18.303   8.553
 6050POPC   D2A16084  12.827  18.250   8.253
 6050POPC   C3A16085  12.889  18.291   7.953
 6050POPC   C4A16086  12.863  18.284   7.653
 6050POPC   C1B16087  12.744  18.479   8.553
 6050POPC   C2B16088  12.770  18.547   8.253
 6050POPC   C3B16089  12.796  18.562   7.953
 6050POPC   C4B16090  12.746  18.554   7.653
 6051POPC   NC316091   3.509  40.742   9.453
 6051POPC   PO416092   3.493  40.786   9.153
 6051POPC   GL116093   3.509  40.764   8.853
 6051POPC   GL216094   3.574  40.632   8.853
 6051POPC   C1A16095   3.559  40.760   8.553
 6051POPC   D2A16096   3.544  40.796   8.253
 6051POPC   C3A16097   3.531  40.737   7.953
 6051POPC   C4A16098   3.570  40.794   7.653
 6051POPC   C1B16099   3.494  40.486   8.553
 6051POPC   C2B16100   3.501  40.523   8.253
 6051POPC   C3B16101   3.562  40.521   7.953
 6051POPC   C4B16102   3.486  40.567   7.653
 6052POPC   NC316103  38.496  29.183   9.453
 6052POPC   PO416104  38.450  29.117   9.153
 6052POPC   GL116105  38.413  29.151   8.853
 6052POPC   GL216106  38.475  29.242   8.853
 6052POPC   C1A16107  38.407  29.146   8.553
 6052POPC   D2A16108  38.407  29.166   8.253
 6052POPC   C3A16109  38.504  29.169   7.953
 6052POPC   C4A16110  38.489  29.165   7.653
 6052POPC   C1B16111  38.382  29.383   8.553
 6052POPC   C2B16112  38.403  29.358   8.253
 6052POPC   C3B16113  38.385  29.351   7.953
 6052POPC   C4B16114  38.437  29.372   7.653
 6053POPC   NC316115  33.816  43.075   9.453
 6053POPC   PO416116  33.816  43.132   9.153
 6053POPC   GL116117  33.803  43.118   8.853
 6053POPC   GL216118  33.851  43.250   8.853
 6053POPC   C1A16119  33.791  43.123   8.553
 6053POPC   D2A16120  33.850  43.083   8.253
 6053POPC   C3A16121  33.826  43.134   7.953
 6053POPC   C4A16122  33.762  43.099   7.653
 6053POPC   C1B16123  33.883  43.362   8.553
 6053POPC   C2B16124  33.908  43.304   8.253
 6053POPC   C3B16125  33.874  43.314   7.953
 6053POPC   C4B16126  33.936  43.316   7.653
 6054POPC   NC316127  28.381  29.940   9.453
 6054POPC   PO416128  28.384  29.911   9.153
 6054POPC   GL116129  28.418  29.958   8.853
 6054POPC   GL216130  28.500  29.936   8.853
 6054POPC   C1A16131  28.326  29.879   8.553
 6054POPC   D2A16132  28.346  29.893   8.253
 6054POPC   C3A16133  28.335  29.914   7.953
 6054POPC   C4A16134  28.325  29.899   7.653
 6054POPC   C1B16135  28.594  30.058   8.553
 6054POPC   C2B16136  28.603  30.052   8.253
 6054POPC   C3B16137  28.556  29.975   7.953
 6054POPC   C4B16138  28.567  29.985   7.653
 6055POPC   NC316139  20.574   9.014   9.453
 6055POPC   PO416140  20.588   9.017   9.153
 6055POPC   GL116141  20.608   8.959   8.853
 6055POPC   GL216142  20.468   9.004   8.853
 6055POPC   C1A16143  20.654   8.937   8.553
 6055POPC   D2A16144  20.653   8.924   8.253
 6055POPC   C3A16145  20.607   8.958   7.953
 6055POPC   C4A16146  20.569   8.977   7.653
 6055POPC   C1B16147  20.382   9.027   8.553
 6055POPC   C2B16148  20.399   9.049   8.253
 6055POPC   C3B16149  20.344   9.058   7.953
 6055POPC   C4B16150  20.369   8.985   7.653
 6056POPC   NC316151  13.590  42.313   9.453
 6056POPC   PO416152  13.619  42.341   9.153
 6056POPC   GL116153  13.621  42.367   8.853
 6056POPC   GL216154  13.680  42.195   8.853
 6056POPC   C1A16155  13.637  42.314   8.553
 6056POPC   D2A16156  13.646  42.289   8.253
 6056POPC   C3A16157  13.626  42.294   7.953
 6056POPC   C4A16158  13.667  42.324   7.653
 6056POPC   C1B16159  13.770  42.146   8.553
 6056POPC   C2B16160  13.775  42.112   8.253
 6056POPC   C3B16161  13.774  42.106   7.953
 6056POPC   C4B16162  13.817  42.135   7.653
 6057POPC   NC316163   2.038  35.314   9.453
 6057POPC   PO416164   2.009  35.324   9.153
 6057POPC   GL116165   2.020  35.376   8.853
 6057POPC   GL216166   1.845  35.313   8.853
 6057POPC   C1A16167   2.027  35.365   8.553
 6057POPC   D2A16168   2.001  35.350   8.253
 6057POPC   C3A16169   1.982  35.313   7.953
 6057POPC   C4A16170   2.036  35.335   7.653
 6057POPC   C1B16171   1.729  35.247   8.553
 6057POPC   C2B16172   1.756  35.327   8.253
 6057POPC   C3B16173   1.707  35.305   7.953
 6057POPC   C4B16174   1.736  35.310   7.653
 6058POPC   NC316175  28.378   4.302   9.453
 6058POPC   PO416176  28.327   4.359   9.153
 6058POPC   GL116177  28.344   4.347   8.853
 6058POPC   GL216178  28.263   4.418   8.853
 6058POPC   C1A16179  28.321   4.362   8.553
 6058POPC   D2A16180  28.319   4.352   8.253
 6058POPC   C3A16181  28.395   4.341   7.953
 6058POPC   C4A16182  28.360   4.365   7.653
 6058POPC   C1B16183  28.188   4.475   8.553
 6058POPC   C2B16184  28.111   4.440   8.253
 6058POPC   C3B16185  28.150   4.413   7.953
 6058POPC   C4B16186  28.159   4.395   7.653
 6059POPC   NC316187  32.980   9.699   9.453
 6059POPC   PO416188  33.001   9.739   9.153
 6059POPC   GL116189  32.982   9.707   8.853
 6059POPC   GL216190  32.915   9.829   8.853
 6059POPC   C1A16191  33.065   9.705   8.553
 6059POPC   D2A16192  33.046   9.710   8.253
 6059POPC   C3A16193  33.014   9.791   7.953
 6059POPC   C4A16194  33.016   9.723   7.653
 6059POPC   C1B16195  32.772   9.932   8.553
 6059POPC   C2B16196  32.779   9.847   8.253
 6059POPC   C3B16197  32.823   9.884   7.953
 6059POPC   C4B16198  32.837   9.861   7.653
 6060POPC   NC316199   2.748  38.473   9.453
 6060POPC   PO416200   2.740  38.411   9.153
 6060POPC   GL116201   2.768  38.466   8.853
 6060POPC   GL216202   2.679  38.315   8.853
 6060POPC   C1A16203   2.738  38.434   8.553
 6060POPC   D2A16204   2.805  38.429   8.253
 6060POPC   C3A16205   2.744  38.413   7.953
 6060POPC   C4A16206   2.761  38.504   7.653
 6060POPC   C1B16207   2.680  38.269   8.553
 6060POPC   C2B16208   2.676  38.232   8.253
 6060POPC   C3B16209   2.627  38.203   7.953
 6060POPC   C4B16210   2.695  38.233   7.653
 6061POPC   NC316211  25.235   3.571   9.453
 6061POPC   PO416212  25.284   3.586   9.153
 6061POPC   GL116213  25.302   3.500   8.853
 6061POPC   GL216214  25.302   3.689   8.853
 6061POPC   C1A16215  25.243   3.549   8.553
 6061POPC   D2A16216  25.293   3.501   8.253
 6061POPC   C3A16217  25.234   3.555   7.953
 6061POPC   C4A16218  25.288   3.573   7.653
 6061POPC   C1B16219  25.311   3.803   8.553
 6061POPC   C2B16220  25.334   3.763   8.253
 6061POPC   C3B16221  25.315   3.744   7.953
 6061POPC   C4B16222  25.384   3.762   7.653
 6062POPC   NC316223   8.183  15.157   9.453
 6062POPC   PO416224   8.224  15.166   9.153
 6062POPC   GL116225   8.202  15.142   8.853
 6062POPC   GL216226   8.197  15.104   8.853
 6062POPC   C1A16227   8.222  15.180   8.553
 6062POPC   D2A16228   8.191  15.139   8.253
 6062POPC   C3A16229   8.169  15.149   7.953
 6062POPC   C4A16230   8.169  15.196   7.653
 6062POPC   C1B16231   8.234  14.930   8.553
 6062POPC   C2B16232   8.221  14.929   8.253
 6062POPC   C3B16233   8.286  14.910   7.953
 6062POPC   C4B16234   8.205  14.895   7.653
 6063POPC   NC316235  14.426  13.631   9.453
 6063POPC   PO416236  14.446  13.609   9.153
 6063POPC   GL116237  14.437  13.603   8.853
 6063POPC   GL216238  14.388  13.510   8.853
 6063POPC   C1A16239  14.383  13.591   8.553
 6063POPC   D2A16240  14.365  13.652   8.253
 6063POPC   C3A16241  14.363  13.654   7.953
 6063POPC   C4A16242  14.362  13.668   7.653
 6063POPC   C1B16243  14.373  13.427   8.553
 6063POPC   C2B16244  14.346  13.426   8.253
 6063POPC   C3B16245  14.426  13.348   7.953
 6063POPC   C4B16246  14.397  13.387   7.653
 6064POPC   NC316247  40.820   5.842   9.453
 6064POPC   PO416248  40.804   5.844   9.153
 6064POPC   GL116249  40.776   5.832   8.853
 6064POPC   GL216250  40.920   5.788   8.853
 6064POPC   C1A16251  40.816   5.905   8.553
 6064POPC   D2A16252  40.764   5.865   8.253
 6064POPC   C3A16253  40.733   5.918   7.953
 6064POPC   C4A16254  40.786   5.884   7.653
 6064POPC   C1B16255  40.928   5.704   8.553
 6064POPC   C2B16256  40.953   5.717   8.253
 6064POPC   C3B16257  40.959   5.748   7.953
 6064POPC   C4B16258  41.026   5.709   7.653
 6065POPC   NC316259  16.754  29.179   9.453
 6065POPC   PO416260  16.687  29.174   9.153
 6065POPC   GL116261  16.744  29.100   8.853
 6065POPC   GL216262  16.606  29.227   8.853
 6065POPC   C1A16263  16.780  29.161   8.553
 6065POPC   D2A16264  16.719  29.193   8.253
 6065POPC   C3A16265  16.753  29.168   7.953
 6065POPC   C4A16266  16.750  29.107   7.653
 6065POPC   C1B16267  16.513  29.296   8.553
 6065POPC   C2B16268  16.474  29.299   8.253
 6065POPC   C3B16269  16.518  29.237   7.953
 6065POPC   C4B16270  16.548  29.311   7.653
 6066POPC   NC316271   8.968   3.505   9.453
 6066POPC   PO416272   9.007   3.504   9.153
 6066POPC   GL116273   8.998   3.502   8.853
 6066POPC   GL216274   8.839   3.551   8.853
 6066POPC   C1A16275   8.924   3.586   8.553
 6066POPC   D2A16276   8.983   3.540   8.253
 6066POPC   C3A16277   8.968   3.514   7.953
 6066POPC   C4A16278   8.950   3.566   7.653
 6066POPC   C1B16279   8.717   3.592   8.553
 6066POPC   C2B16280   8.764   3.618   8.253
 6066POPC   C3B16281   8.770   3.653   7.953
 6066POPC   C4B16282   8.774   3.626   7.653
 6067POPC   NC316283  27.598  38.455   9.453
 6067POPC   PO416284  27.608  38.500   9.153
 6067POPC   GL116285  27.611  38.460   8.853
 6067POPC   GL216286  27.626  38.375   8.853
 6067POPC   C1A16287  27.555  38.428   8.553
 6067POPC   D2A16288  27.590  38.471   8.253
 6067POPC   C3A16289  27.594  38.488   7.953
 6067POPC   C4A16290  27.637  38.493   7.653
 6067POPC   C1B16291  27.632  38.188   8.553
 6067POPC   C2B16292  27.542  38.162   8.253
 6067POPC   C3B16293  27.544  38.210   7.953
 6067POPC   C4B16294  27.589  38.244   7.653
 6068POPC   NC316295  40.775   2.038   9.453
 6068POPC   PO416296  40.800   1.993   9.153
 6068POPC   GL116297  40.791   2.017   8.853
 6068POPC   GL216298  40.717   1.910   8.853
 6068POPC   C1A16299  40.769   1.991   8.553
 6068POPC   D2A16300  40.756   2.013   8.253
 6068POPC   C3A16301  40.808   2.030   7.953
 6068POPC   C4A16302  40.807   1.961   7.653
 6068POPC   C1B16303  40.705   1.716   8.553
 6068POPC   C2B16304  40.703   1.774   8.253
 6068POPC   C3B16305  40.679   1.782   7.953
 6068POPC   C4B16306  40.625   1.772   7.653
 6069POPC   NC316307  40.007  29.928   9.453
 6069POPC   PO416308  39.979  29.941   9.153
 6069POPC   GL116309  40.031  29.874   8.853
 6069POPC   GL216310  39.850  29.883   8.853
 6069POPC   C1A16311  40.016  29.885   8.553
 6069POPC   D2A16312  39.990  29.945   8.253
 6069POPC   C3A16313  40.032  29.925   7.953
 6069POPC   C4A16314  39.968  29.881   7.653
 6069POPC   C1B16315  39.800  29.819   8.553
 6069POPC   C2B16316  39.764  29.875   8.253
 6069POPC   C3B16317  39.813  29.885   7.953
 6069POPC   C4B16318  39.723  29.836   7.653
 6070POPC   NC316319   7.420   2.721   9.453
 6070POPC   PO416320   7.419   2.731   9.153
 6070POPC   GL116321   7.425   2.767   8.853
 6070POPC   GL216322   7.540   2.672   8.853
 6070POPC   C1A16323   7.384   2.732   8.553
 6070POPC   D2A16324   7.451   2.746   8.253
 6070POPC   C3A16325   7.387   2.806   7.953
 6070POPC   C4A16326   7.405   2.781   7.653
 6070POPC   C1B16327   7.680   2.633   8.553
 6070POPC   C2B16328   7.673   2.683   8.253
 6070POPC   C3B16329   7.644   2.684   7.953
 6070POPC   C4B16330   7.609   2.705   7.653
 6071POPC   NC316331  18.248  10.476   9.453
 6071POPC   PO416332  18.301  10.483   9.153
 6071POPC   GL116333  18.256  10.522   8.853
 6071POPC   GL216334  18.197  10.572   8.853
 6071POPC   C1A16335  18.279  10.506   8.553
 6071POPC   D2A16336  18.297  10.492   8.253
 6071POPC   C3A16337  18.250  10.523   7.953
 6071POPC   C4A16338  18.244  10.548   7.653
 6071POPC   C1B16339  18.008  10.545   8.553
 6071POPC   C2B16340  18.063  10.615   8.253
 6071POPC   C3B16341  18.044  10.585   7.953
 6071POPC   C4B16342  17.999  10.531   7.653
 6072POPC   NC316343  20.626  26.848   9.453
 6072POPC   PO416344  20.592  26.859   9.153
 6072POPC   GL116345  20.565  26.806   8.853
 6072POPC   GL216346  20.539  26.743   8.853
 6072POPC   C1A16347  20.562  26.786   8.553
 6072POPC   D2A16348  20.585  26.845   8.253
 6072POPC   C3A16349  20.601  26.781   7.953
 6072POPC   C4A16350  20.624  26.771   7.653
 6072POPC   C1B16351  20.493  26.609   8.553
 6072POPC   C2B16352  20.553  26.535   8.253
 6072POPC   C3B16353  20.531  26.579   7.953
 6072POPC   C4B16354  20.530  26.617   7.653
 6073POPC   NC316355  22.981   6.646   9.453
 6073POPC   PO416356  22.971   6.657   9.153
 6073POPC   GL116357  22.944   6.664   8.853
 6073POPC   GL216358  23.080   6.700   8.853
 6073POPC   C1A16359  22.927   6.630   8.553
 6073POPC   D2A16360  22.935   6.611   8.253
 6073POPC   C3A16361  22.962   6.679   7.953
 6073POPC   C4A16362  22.909   6.691   7.653
 6073POPC   C1B16363  23.146   6.767   8.553
 6073POPC   C2B16364  23.112   6.750   8.253
 6073POPC   C3B16365  23.143   6.800   7.953
 6073POPC   C4B16366  23.134   6.730   7.653
 6074POPC   NC316367  31.437  36.899   9.453
 6074POPC   PO416368  31.469  36.908   9.153
 6074POPC   GL116369  31.486  36.859   8.853
 6074POPC   GL216370  31.553  36.760   8.853
 6074POPC   C1A16371  31.450  36.876   8.553
 6074POPC   D2A16372  31.447  36.863   8.253
 6074POPC   C3A16373  31.442  36.901   7.953
 6074POPC   C4A16374  31.464  36.914   7.653
 6074POPC   C1B16375  31.626  36.745   8.553
 6074POPC   C2B16376  31.636  36.667   8.253
 6074POPC   C3B16377  31.628  36.722   7.953
 6074POPC   C4B16378  31.660  36.744   7.653
 6075POPC   NC316379  43.123  17.469   9.453
 6075POPC   PO416380  43.151  17.548   9.153
 6075POPC   GL116381  43.122  17.503   8.853
 6075POPC   GL216382  43.019  17.413   8.853
 6075POPC   C1A16383  43.139  17.522   8.553
 6075POPC   D2A16384  43.139  17.471   8.253
 6075POPC   C3A16385  43.119  17.484   7.953
 6075POPC   C4A16386  43.067  17.481   7.653
 6075POPC   C1B16387  42.865  17.404   8.553
 6075POPC   C2B16388  42.927  17.448   8.253
 6075POPC   C3B16389  42.897  17.370   7.953
 6075POPC   C4B16390  42.897  17.390   7.653
 6076POPC   NC316391  40.800  38.414   9.453
 6076POPC   PO416392  40.776  38.461   9.153
 6076POPC   GL116393  40.760  38.483   8.853
 6076POPC   GL216394  40.687  38.579   8.853
 6076POPC   C1A16395  40.737  38.479   8.553
 6076POPC   D2A16396  40.829  38.424   8.253
 6076POPC   C3A16397  40.754  38.469   7.953
 6076POPC   C4A16398  40.816  38.477   7.653
 6076POPC   C1B16399  40.539  38.600   8.553
 6076POPC   C2B16400  40.604  38.573   8.253
 6076POPC   C3B16401  40.535  38.586   7.953
 6076POPC   C4B16402  40.561  38.637   7.653
 6077POPC   NC316403  16.749  40.794   9.453
 6077POPC   PO416404  16.780  40.740   9.153
 6077POPC   GL116405  16.772  40.740   8.853
 6077POPC   GL216406  16.674  40.885   8.853
 6077POPC   C1A16407  16.729  40.823   8.553
 6077POPC   D2A16408  16.745  40.800   8.253
 6077POPC   C3A16409  16.705  40.827   7.953
 6077POPC   C4A16410  16.705  40.757   7.653
 6077POPC   C1B16411  16.521  40.907   8.553
 6077POPC   C2B16412  16.517  40.912   8.253
 6077POPC   C3B16413  16.516  40.937   7.953
 6077POPC   C4B16414  16.574  40.927   7.653
 6078POPC   NC316415  22.185  33.006   9.453
 6078POPC   PO416416  22.180  33.031   9.153
 6078POPC   GL116417  22.145  33.000   8.853
 6078POPC   GL216418  22.100  33.146   8.853
 6078POPC   C1A16419  22.165  33.004   8.553
 6078POPC   D2A16420  22.139  33.007   8.253
 6078POPC   C3A16421  22.112  33.045   7.953
 6078POPC   C4A16422  22.150  33.053   7.653
 6078POPC   C1B16423  22.039  33.177   8.553
 6078POPC   C2B16424  21.967  33.232   8.253
 6078POPC   C3B16425  22.013  33.176   7.953
 6078POPC   C4B16426  22.006  33.210   7.653
 6079POPC   NC316427  41.597  23.735   9.453
 6079POPC   PO416428  41.552  23.691   9.153
 6079POPC   GL116429  41.515  23.670   8.853
 6079POPC   GL216430  41.644  23.735   8.853
 6079POPC   C1A16431  41.528  23.755   8.553
 6079POPC   D2A16432  41.509  23.743   8.253
 6079POPC   C3A16433  41.580  23.668   7.953
 6079POPC   C4A16434  41.592  23.664   7.653
 6079POPC   C1B16435  41.801  23.772   8.553
 6079POPC   C2B16436  41.763  23.822   8.253
 6079POPC   C3B16437  41.808  23.824   7.953
 6079POPC   C4B16438  41.779  23.795   7.653
 6080POPC   NC316439  32.245  30.658   9.453
 6080POPC   PO416440  32.233  30.679   9.153
 6080POPC   GL116441  32.227  30.714   8.853
 6080POPC   GL216442  32.215  30.865   8.853
 6080POPC   C1A16443  32.253  30.740   8.553
 6080POPC   D2A16444  32.290  30.694   8.253
 6080POPC   C3A16445  32.251  30.725   7.953
 6080POPC   C4A16446  32.251  30.742   7.653
 6080POPC   C1B16447  32.177  30.893   8.553
 6080POPC   C2B16448  32.153  30.982   8.253
 6080POPC   C3B16449  32.175  30.953   7.953
 6080POPC   C4B16450  32.174  30.987   7.653
 6081POPC   NC316451   5.124  27.591   9.453
 6081POPC   PO416452   5.068  27.567   9.153
 6081POPC   GL116453   5.064  27.626   8.853
 6081POPC   GL216454   5.184  27.567   8.853
 6081POPC   C1A16455   5.099  27.567   8.553
 6081POPC   D2A16456   5.054  27.631   8.253
 6081POPC   C3A16457   5.106  27.551   7.953
 6081POPC   C4A16458   5.107  27.633   7.653
 6081POPC   C1B16459   5.377  27.596   8.553
 6081POPC   C2B16460   5.318  27.631   8.253
 6081POPC   C3B16461   5.347  27.570   7.953
 6081POPC   C4B16462   5.386  27.649   7.653
 6082POPC   NC316463  35.401  36.148   9.453
 6082POPC   PO416464  35.333  36.149   9.153
 6082POPC   GL116465  35.382  36.114   8.853
 6082POPC   GL216466  35.490  36.192   8.853
 6082POPC   C1A16467  35.381  36.084   8.553
 6082POPC   D2A16468  35.391  36.096   8.253
 6082POPC   C3A16469  35.349  36.097   7.953
 6082POPC   C4A16470  35.322  36.163   7.653
 6082POPC   C1B16471  35.600  36.231   8.553
 6082POPC   C2B16472  35.574  36.246   8.253
 6082POPC   C3B16473  35.564  36.285   7.953
 6082POPC   C4B16474  35.599  36.261   7.653
 6083POPC   NC316475  33.801  18.269   9.453
 6083POPC   PO416476  33.830  18.308   9.153
 6083POPC   GL116477  33.756  18.277   8.853
 6083POPC   GL216478  33.641  18.284   8.853
 6083POPC   C1A16479  33.761  18.296   8.553
 6083POPC   D2A16480  33.788  18.329   8.253
 6083POPC   C3A16481  33.808  18.273   7.953
 6083POPC   C4A16482  33.753  18.251   7.653
 6083POPC   C1B16483  33.564  18.223   8.553
 6083POPC   C2B16484  33.584  18.261   8.253
 6083POPC   C3B16485  33.519  18.255   7.953
 6083POPC   C4B16486  33.569  18.285   7.653
 6084POPC   NC316487   3.522  16.775   9.453
 6084POPC   PO416488   3.517  16.768   9.153
 6084POPC   GL116489   3.568  16.751   8.853
 6084POPC   GL216490   3.650  16.711   8.853
 6084POPC   C1A16491   3.548  16.763   8.553
 6084POPC   D2A16492   3.588  16.746   8.253
 6084POPC   C3A16493   3.583  16.753   7.953
 6084POPC   C4A16494   3.525  16.701   7.653
 6084POPC   C1B16495   3.823  16.669   8.553
 6084POPC   C2B16496   3.776  16.736   8.253
 6084POPC   C3B16497   3.835  16.650   7.953
 6084POPC   C4B16498   3.830  16.728   7.653
 6085POPC   NC316499  37.705   8.196   9.453
 6085POPC   PO416500  37.720   8.203   9.153
 6085POPC   GL116501  37.655   8.224   8.853
 6085POPC   GL216502  37.626   8.330   8.853
 6085POPC   C1A16503  37.682   8.187   8.553
 6085POPC   D2A16504  37.657   8.154   8.253
 6085POPC   C3A16505  37.729   8.178   7.953
 6085POPC   C4A16506  37.708   8.167   7.653
 6085POPC   C1B16507  37.507   8.407   8.553
 6085POPC   C2B16508  37.505   8.344   8.253
 6085POPC   C3B16509  37.500   8.380   7.953
 6085POPC   C4B16510  37.515   8.380   7.653
 6086POPC   NC316511   8.995   1.262   9.453
 6086POPC   PO416512   8.991   1.199   9.153
 6086POPC   GL116513   9.012   1.164   8.853
 6086POPC   GL216514   8.890   1.121   8.853
 6086POPC   C1A16515   8.960   1.187   8.553
 6086POPC   D2A16516   8.931   1.223   8.253
 6086POPC   C3A16517   8.923   1.227   7.953
 6086POPC   C4A16518   8.924   1.192   7.653
 6086POPC   C1B16519   8.767   1.110   8.553
 6086POPC   C2B16520   8.711   1.119   8.253
 6086POPC   C3B16521   8.695   1.108   7.953
 6086POPC   C4B16522   8.783   1.151   7.653
 6087POPC   NC316523  20.643  15.962   9.453
 6087POPC   PO416524  20.652  15.998   9.153
 6087POPC   GL116525  20.604  15.993   8.853
 6087POPC   GL216526  20.544  16.042   8.853
 6087POPC   C1A16527  20.613  15.943   8.553
 6087POPC   D2A16528  20.655  15.948   8.253
 6087POPC   C3A16529  20.628  15.941   7.953
 6087POPC   C4A16530  20.644  15.964   7.653
 6087POPC   C1B16531  20.495  16.203   8.553
 6087POPC   C2B16532  20.562  16.214   8.253
 6087POPC   C3B16533  20.523  16.244   7.953
 6087POPC   C4B16534  20.508  16.158   7.653
 6088POPC   NC316535   1.235  23.739   9.453
 6088POPC   PO416536   1.183  23.699   9.153
 6088POPC   GL116537   1.205  23.729   8.853
 6088POPC   GL216538   1.144  23.657   8.853
 6088POPC   C1A16539   1.211  23.668   8.553
 6088POPC   D2A16540   1.196  23.762   8.253
 6088POPC   C3A16541   1.184  23.729   7.953
 6088POPC   C4A16542   1.253  23.724   7.653
 6088POPC   C1B16543   1.001  23.646   8.553
 6088POPC   C2B16544   0.973  23.615   8.253
 6088POPC   C3B16545   1.011  23.587   7.953
 6088POPC   C4B16546   1.023  23.624   7.653
 6089POPC   NC316547  44.621  33.007   9.453
 6089POPC   PO416548  44.643  33.024   9.153
 6089POPC   GL116549  44.685  33.008   8.853
 6089POPC   GL216550  44.715  33.095   8.853
 6089POPC   C1A16551  44.651  33.024   8.553
 6089POPC   D2A16552  44.711  32.989   8.253
 6089POPC   C3A16553  44.612  33.042   7.953
 6089POPC   C4A16554  44.699  32.980   7.653
 6089POPC   C1B16555  44.897  33.169   8.553
 6089POPC   C2B16556  44.834  33.132   8.253
 6089POPC   C3B16557  44.822  33.218   7.953
 6089POPC   C4B16558  44.902  33.228   7.653
 6090POPC   NC316559   4.296  42.381   9.453
 6090POPC   PO416560   4.304  42.348   9.153
 6090POPC   GL116561   4.291  42.363   8.853
 6090POPC   GL216562   4.256  42.398   8.853
 6090POPC   C1A16563   4.350  42.371   8.553
 6090POPC   D2A16564   4.355  42.293   8.253
 6090POPC   C3A16565   4.346  42.329   7.953
 6090POPC   C4A16566   4.356  42.331   7.653
 6090POPC   C1B16567   4.177  42.511   8.553
 6090POPC   C2B16568   4.150  42.593   8.253
 6090POPC   C3B16569   4.159  42.561   7.953
 6090POPC   C4B16570   4.212  42.500   7.653
 6091POPC   NC316571  22.960  33.815   9.453
 6091POPC   PO416572  22.924  33.830   9.153
 6091POPC   GL116573  22.956  33.796   8.853
 6091POPC   GL216574  22.976  33.702   8.853
 6091POPC   C1A16575  22.946  33.756   8.553
 6091POPC   D2A16576  22.889  33.770   8.253
 6091POPC   C3A16577  22.987  33.769   7.953
 6091POPC   C4A16578  22.926  33.778   7.653
 6091POPC   C1B16579  23.036  33.560   8.553
 6091POPC   C2B16580  23.001  33.566   8.253
 6091POPC   C3B16581  22.962  33.579   7.953
 6091POPC   C4B16582  22.978  33.510   7.653
 6092POPC   NC316583  17.474  13.598   9.453
 6092POPC   PO416584  17.463  13.603   9.153
 6092POPC   GL116585  17.516  13.578   8.853
 6092POPC   GL216586  17.408  13.645   8.853
 6092POPC   C1A16587  17.539  13.627   8.553
 6092POPC   D2A16588  17.556  13.580   8.253
 6092POPC   C3A16589  17.499  13.602   7.953
 6092POPC   C4A16590  17.472  13.624   7.653
 6092POPC   C1B16591  17.281  13.656   8.553
 6092POPC   C2B16592  17.212  13.678   8.253
 6092POPC   C3B16593  17.276  13.623   7.953
 6092POPC   C4B16594  17.247  13.686   7.653
 6093POPC   NC316595  33.752  41.520   9.453
 6093POPC   PO416596  33.762  41.522   9.153
 6093POPC   GL116597  33.836  41.513   8.853
 6093POPC   GL216598  33.636  41.525   8.853
 6093POPC   C1A16599  33.823  41.584   8.553
 6093POPC   D2A16600  33.771  41.527   8.253
 6093POPC   C3A16601  33.833  41.561   7.953
 6093POPC   C4A16602  33.805  41.533   7.653
 6093POPC   C1B16603  33.525  41.539   8.553
 6093POPC   C2B16604  33.576  41.572   8.253
 6093POPC   C3B16605  33.599  41.548   7.953
 6093POPC   C4B16606  33.581  41.538   7.653
 6094POPC   NC316607  41.591   4.298   9.453
 6094POPC   PO416608  41.578   4.337   9.153
 6094POPC   GL116609  41.585   4.355   8.853
 6094POPC   GL216610  41.634   4.337   8.853
 6094POPC   C1A16611  41.605   4.336   8.553
 6094POPC   D2A16612  41.581   4.331   8.253
 6094POPC   C3A16613  41.607   4.295   7.953
 6094POPC   C4A16614  41.523   4.333   7.653
 6094POPC   C1B16615  41.752   4.399   8.553
 6094POPC   C2B16616  41.847   4.384   8.253
 6094POPC   C3B16617  41.846   4.371   7.953
 6094POPC   C4B16618  41.802   4.343   7.653
 6095POPC   NC316619  28.387  26.785   9.453
 6095POPC   PO416620  28.374  26.772   9.153
 6095POPC   GL116621  28.411  26.781   8.853
 6095POPC   GL216622  28.251  26.819   8.853
 6095POPC   C1A16623  28.385  26.829   8.553
 6095POPC   D2A16624  28.377  26.769   8.253
 6095POPC   C3A16625  28.378  26.779   7.953
 6095POPC   C4A16626  28.413  26.824   7.653
 6095POPC   C1B16627  28.113  26.815   8.553
 6095POPC   C2B16628  28.170  26.873   8.253
 6095POPC   C3B16629  28.111  26.829   7.953
 6095POPC   C4B16630  28.137  26.802   7.653
 6096POPC   NC316631  22.923   0.414   9.453
 6096POPC   PO416632  22.964   0.481   9.153
 6096POPC   GL116633  22.949   0.419   8.853
 6096POPC   GL216634  22.872   0.412   8.853
 6096POPC   C1A16635  22.924   0.408   8.553
 6096POPC   D2A16636  22.942   0.459   8.253
 6096POPC   C3A16637  22.927   0.408   7.953
 6096POPC   C4A16638  22.941   0.389   7.653
 6096POPC   C1B16639  22.745   0.313   8.553
 6096POPC   C2B16640  22.698   0.303   8.253
 6096POPC   C3B16641  22.715   0.343   7.953
 6096POPC   C4B16642  22.685   0.348   7.653
 6097POPC   NC316643  33.056  42.292   9.453
 6097POPC   PO416644  33.056  42.376   9.153
 6097POPC   GL116645  33.011  42.369   8.853
 6097POPC   GL216646  33.094  42.386   8.853
 6097POPC   C1A16647  32.978  42.353   8.553
 6097POPC   D2A16648  32.975  42.384   8.253
 6097POPC   C3A16649  33.005  42.375   7.953
 6097POPC   C4A16650  32.996  42.376   7.653
 6097POPC   C1B16651  33.226  42.526   8.553
 6097POPC   C2B16652  33.186  42.550   8.253
 6097POPC   C3B16653  33.203  42.483   7.953
 6097POPC   C4B16654  33.194  42.542   7.653
 6098POPC   NC316655  40.008  40.019   9.453
 6098POPC   PO416656  39.960  39.961   9.153
 6098POPC   GL116657  39.992  39.983   8.853
 6098POPC   GL216658  40.102  40.043   8.853
 6098POPC   C1A16659  39.982  40.042   8.553
 6098POPC   D2A16660  40.007  39.982   8.253
 6098POPC   C3A16661  39.990  39.978   7.953
 6098POPC   C4A16662  40.022  39.974   7.653
 6098POPC   C1B16663  40.280  39.955   8.553
 6098POPC   C2B16664  40.237  39.991   8.253
 6098POPC   C3B16665  40.230  39.971   7.953
 6098POPC   C4B16666  40.274  40.010   7.653
 6099POPC   NC316667  16.708   3.498   9.453
 6099POPC   PO416668  16.770   3.510   9.153
 6099POPC   GL116669  16.701   3.518   8.853
 6099POPC   GL216670  16.687   3.409   8.853
 6099POPC   C1A16671  16.781   3.579   8.553
 6099POPC   D2A16672  16.737   3.554   8.253
 6099POPC   C3A16673  16.736   3.501   7.953
 6099POPC   C4A16674  16.768   3.560   7.653
 6099POPC   C1B16675  16.700   3.281   8.553
 6099POPC   C2B16676  16.718   3.280   8.253
 6099POPC   C3B16677  16.761   3.245   7.953
 6099POPC   C4B16678  16.765   3.303   7.653
 6100POPC   NC316679   4.309   1.173   9.453
 6100POPC   PO416680   4.314   1.258   9.153
 6100POPC   GL116681   4.300   1.186   8.853
 6100POPC   GL216682   4.468   1.216   8.853
 6100POPC   C1A16683   4.352   1.250   8.553
 6100POPC   D2A16684   4.340   1.243   8.253
 6100POPC   C3A16685   4.309   1.187   7.953
 6100POPC   C4A16686   4.352   1.214   7.653
 6100POPC   C1B16687   4.523   1.179   8.553
 6100POPC   C2B16688   4.591   1.209   8.253
 6100POPC   C3B16689   4.564   1.145   7.953
 6100POPC   C4B16690   4.554   1.173   7.653
 6101POPC   NC316691   7.425  42.310   9.453
 6101POPC   PO416692   7.418  42.292   9.153
 6101POPC   GL116693   7.421  42.289   8.853
 6101POPC   GL216694   7.307  42.418   8.853
 6101POPC   C1A16695   7.443  42.376   8.553
 6101POPC   D2A16696   7.391  42.365   8.253
 6101POPC   C3A16697   7.432  42.350   7.953
 6101POPC   C4A16698   7.380  42.326   7.653
 6101POPC   C1B16699   7.162  42.419   8.553
 6101POPC   C2B16700   7.230  42.451   8.253
 6101POPC   C3B16701   7.228  42.445   7.953
 6101POPC   C4B16702   7.224  42.371   7.653
 6102POPC   NC316703  37.682  36.901   9.453
 6102POPC   PO416704  37.712  36.878   9.153
 6102POPC   GL116705  37.709  36.921   8.853
 6102POPC   GL216706  37.810  36.880   8.853
 6102POPC   C1A16707  37.643  36.926   8.553
 6102POPC   D2A16708  37.686  36.914   8.253
 6102POPC   C3A16709  37.641  36.878   7.953
 6102POPC   C4A16710  37.685  36.921   7.653
 6102POPC   C1B16711  37.886  36.765   8.553
 6102POPC   C2B16712  37.870  36.800   8.253
 6102POPC   C3B16713  37.875  36.738   7.953
 6102POPC   C4B16714  37.890  36.738   7.653
 6103POPC   NC316715  15.920  13.593   9.453
 6103POPC   PO416716  15.925  13.616   9.153
 6103POPC   GL116717  15.995  13.650   8.853
 6103POPC   GL216718  16.007  13.738   8.853
 6103POPC   C1A16719  15.971  13.592   8.553
 6103POPC   D2A16720  15.982  13.627   8.253
 6103POPC   C3A16721  15.990  13.617   7.953
 6103POPC   C4A16722  16.003  13.662   7.653
 6103POPC   C1B16723  16.144  13.774   8.553
 6103POPC   C2B16724  16.099  13.828   8.253
 6103POPC   C3B16725  16.164  13.781   7.953
 6103POPC   C4B16726  16.132  13.844   7.653
 6104POPC   NC316727   0.417  24.486   9.453
 6104POPC   PO416728   0.422  24.480   9.153
 6104POPC   GL116729   0.466  24.497   8.853
 6104POPC   GL216730   0.444  24.591   8.853
 6104POPC   C1A16731   0.475  24.515   8.553
 6104POPC   D2A16732   0.474  24.513   8.253
 6104POPC   C3A16733   0.439  24.538   7.953
 6104POPC   C4A16734   0.458  24.497   7.653
 6104POPC   C1B16735   0.450  24.718   8.553
 6104POPC   C2B16736   0.467  24.737   8.253
 6104POPC   C3B16737   0.387  24.784   7.953
 6104POPC   C4B16738   0.406  24.741   7.653
 6105POPC   NC316739   3.535  35.389   9.453
 6105POPC   PO416740   3.502  35.320   9.153
 6105POPC   GL116741   3.570  35.330   8.853
 6105POPC   GL216742   3.488  35.443   8.853
 6105POPC   C1A16743   3.527  35.381   8.553
 6105POPC   D2A16744   3.557  35.384   8.253
 6105POPC   C3A16745   3.543  35.356   7.953
 6105POPC   C4A16746   3.549  35.343   7.653
 6105POPC   C1B16747   3.555  35.627   8.553
 6105POPC   C2B16748   3.566  35.554   8.253
 6105POPC   C3B16749   3.567  35.646   7.953
 6105POPC   C4B16750   3.559  35.617   7.653
 6106POPC   NC316751  44.654  16.753   9.453
 6106POPC   PO416752  44.637  16.684   9.153
 6106POPC   GL116753  44.614  16.693   8.853
 6106POPC   GL216754  44.733  16.758   8.853
 6106POPC   C1A16755  44.625  16.779   8.553
 6106POPC   D2A16756  44.616  16.758   8.253
 6106POPC   C3A16757  44.636  16.699   7.953
 6106POPC   C4A16758  44.614  16.715   7.653
 6106POPC   C1B16759  44.937  16.810   8.553
 6106POPC   C2B16760  44.859  16.846   8.253
 6106POPC   C3B16761  44.929  16.803   7.953
 6106POPC   C4B16762  44.875  16.832   7.653
 6107POPC   NC316763  26.084  43.871   9.453
 6107POPC   PO416764  26.071  43.857   9.153
 6107POPC   GL116765  26.076  43.918   8.853
 6107POPC   GL216766  26.004  43.964   8.853
 6107POPC   C1A16767  26.040  43.874   8.553
 6107POPC   D2A16768  26.028  43.882   8.253
 6107POPC   C3A16769  26.057  43.908   7.953
 6107POPC   C4A16770  25.993  43.854   7.653
 6107POPC   C1B16771  25.969  44.125   8.553
 6107POPC   C2B16772  25.916  44.090   8.253
 6107POPC   C3B16773  25.930  44.072   7.953
 6107POPC   C4B16774  25.930  44.109   7.653
 6108POPC   NC316775  21.419  27.611   9.453
 6108POPC   PO416776  21.347  27.581   9.153
 6108POPC   GL116777  21.395  27.635   8.853
 6108POPC   GL216778  21.413  27.742   8.853
 6108POPC   C1A16779  21.401  27.636   8.553
 6108POPC   D2A16780  21.398  27.562   8.253
 6108POPC   C3A16781  21.399  27.589   7.953
 6108POPC   C4A16782  21.412  27.550   7.653
 6108POPC   C1B16783  21.340  27.798   8.553
 6108POPC   C2B16784  21.395  27.822   8.253
 6108POPC   C3B16785  21.311  27.844   7.953
 6108POPC   C4B16786  21.307  27.847   7.653
 6109POPC   NC316787  36.137   8.222   9.453
 6109POPC   PO416788  36.160   8.225   9.153
 6109POPC   GL116789  36.148   8.212   8.853
 6109POPC   GL216790  36.171   8.328   8.853
 6109POPC   C1A16791  36.114   8.176   8.553
 6109POPC   D2A16792  36.133   8.187   8.253
 6109POPC   C3A16793  36.080   8.222   7.953
 6109POPC   C4A16794  36.117   8.156   7.653
 6109POPC   C1B16795  36.236   8.405   8.553
 6109POPC   C2B16796  36.228   8.431   8.253
 6109POPC   C3B16797  36.222   8.466   7.953
 6109POPC   C4B16798  36.215   8.418   7.653
 6110POPC   NC316799  29.106  41.530   9.453
 6110POPC   PO416800  29.189  41.578   9.153
 6110POPC   GL116801  29.180  41.596   8.853
 6110POPC   GL216802  29.100  41.642   8.853
 6110POPC   C1A16803  29.191  41.599   8.553
 6110POPC   D2A16804  29.147  41.546   8.253
 6110POPC   C3A16805  29.191  41.534   7.953
 6110POPC   C4A16806  29.112  41.562   7.653
 6110POPC   C1B16807  29.091  41.826   8.553
 6110POPC   C2B16808  29.154  41.759   8.253
 6110POPC   C3B16809  29.136  41.832   7.953
 6110POPC   C4B16810  29.074  41.781   7.653
 6111POPC   NC316811  20.572  30.704   9.453
 6111POPC   PO416812  20.567  30.728   9.153
 6111POPC   GL116813  20.608  30.735   8.853
 6111POPC   GL216814  20.470  30.792   8.853
 6111POPC   C1A16815  20.600  30.652   8.553
 6111POPC   D2A16816  20.574  30.741   8.253
 6111POPC   C3A16817  20.563  30.745   7.953
 6111POPC   C4A16818  20.594  30.657   7.653
 6111POPC   C1B16819  20.429  30.778   8.553
 6111POPC   C2B16820  20.395  30.833   8.253
 6111POPC   C3B16821  20.393  30.838   7.953
 6111POPC   C4B16822  20.430  30.835   7.653
 6112POPC   NC316823  42.347  22.962   9.453
 6112POPC   PO416824  42.367  22.957   9.153
 6112POPC   GL116825  42.292  22.972   8.853
 6112POPC   GL216826  42.387  23.026   8.853
 6112POPC   C1A16827  42.305  22.964   8.553
 6112POPC   D2A16828  42.292  22.909   8.253
 6112POPC   C3A16829  42.353  22.981   7.953
 6112POPC   C4A16830  42.307  22.931   7.653
 6112POPC   C1B16831  42.440  23.170   8.553
 6112POPC   C2B16832  42.515  23.125   8.253
 6112POPC   C3B16833  42.443  23.155   7.953
 6112POPC   C4B16834  42.431  23.151   7.653
 6113POPC   NC316835   0.418  29.159   9.453
 6113POPC   PO416836   0.445  29.165   9.153
 6113POPC   GL116837   0.442  29.148   8.853
 6113POPC   GL216838   0.380  29.008   8.853
 6113POPC   C1A16839   0.446  29.185   8.553
 6113POPC   D2A16840   0.481  29.124   8.253
 6113POPC   C3A16841   0.467  29.124   7.953
 6113POPC   C4A16842   0.417  29.181   7.653
 6113POPC   C1B16843   0.346  28.882   8.553
 6113POPC   C2B16844   0.272  28.969   8.253
 6113POPC   C3B16845   0.287  28.971   7.953
 6113POPC   C4B16846   0.324  28.965   7.653
 6114POPC   NC316847  19.820  42.338   9.453
 6114POPC   PO416848  19.820  42.362   9.153
 6114POPC   GL116849  19.835  42.312   8.853
 6114POPC   GL216850  19.754  42.420   8.853
 6114POPC   C1A16851  19.786  42.298   8.553
 6114POPC   D2A16852  19.799  42.328   8.253
 6114POPC   C3A16853  19.849  42.310   7.953
 6114POPC   C4A16854  19.829  42.379   7.653
 6114POPC   C1B16855  19.670  42.477   8.553
 6114POPC   C2B16856  19.642  42.451   8.253
 6114POPC   C3B16857  19.676  42.487   7.953
 6114POPC   C4B16858  19.646  42.455   7.653
 6115POPC   NC316859   2.813  35.383   9.453
 6115POPC   PO416860   2.781  35.307   9.153
 6115POPC   GL116861   2.758  35.340   8.853
 6115POPC   GL216862   2.681  35.428   8.853
 6115POPC   C1A16863   2.791  35.303   8.553
 6115POPC   D2A16864   2.813  35.392   8.253
 6115POPC   C3A16865   2.737  35.346   7.953
 6115POPC   C4A16866   2.773  35.357   7.653
 6115POPC   C1B16867   2.598  35.583   8.553
 6115POPC   C2B16868   2.618  35.514   8.253
 6115POPC   C3B16869   2.655  35.566   7.953
 6115POPC   C4B16870   2.659  35.540   7.653
 6116POPC   NC316871  17.458   6.651   9.453
 6116POPC   PO416872  17.504   6.650   9.153
 6116POPC   GL116873  17.524   6.681   8.853
 6116POPC   GL216874  17.573   6.680   8.853
 6116POPC   C1A16875  17.486   6.610   8.553
 6116POPC   D2A16876  17.556   6.648   8.253
 6116POPC   C3A16877  17.463   6.635   7.953
 6116POPC   C4A16878  17.459   6.658   7.653
 6116POPC   C1B16879  17.725   6.764   8.553
 6116POPC   C2B16880  17.666   6.768   8.253
 6116POPC   C3B16881  17.713   6.827   7.953
 6116POPC   C4B16882  17.660   6.749   7.653
 6117POPC   NC316883  27.585  33.787   9.453
 6117POPC   PO416884  27.612  33.757   9.153
 6117POPC   GL116885  27.551  33.840   8.853
 6117POPC   GL216886  27.483  33.807   8.853
 6117POPC   C1A16887  27.609  33.814   8.553
 6117POPC   D2A16888  27.577  33.848   8.253
 6117POPC   C3A16889  27.622  33.813   7.953
 6117POPC   C4A16890  27.572  33.820   7.653
 6117POPC   C1B16891  27.314  33.778   8.553
 6117POPC   C2B16892  27.346  33.786   8.253
 6117POPC   C3B16893  27.351  33.789   7.953
 6117POPC   C4B16894  27.338  33.780   7.653
 6118POPC   NC316895  31.509  40.784   9.453
 6118POPC   PO416896  31.488  40.780   9.153
 6118POPC   GL116897  31.487  40.830   8.853
 6118POPC   GL216898  31.578  40.852   8.853
 6118POPC   C1A16899  31.488  40.790   8.553
 6118POPC   D2A16900  31.441  40.804   8.253
 6118POPC   C3A16901  31.440  40.827   7.953
 6118POPC   C4A16902  31.509  40.767   7.653
 6118POPC   C1B16903  31.585  40.990   8.553
 6118POPC   C2B16904  31.632  41.008   8.253
 6118POPC   C3B16905  31.572  40.983   7.953
 6118POPC   C4B16906  31.633  41.008   7.653
 6119POPC   NC316907  43.863  21.409   9.453
 6119POPC   PO416908  43.927  21.358   9.153
 6119POPC   GL116909  43.849  21.424   8.853
 6119POPC   GL216910  43.782  21.489   8.853
 6119POPC   C1A16911  43.921  21.404   8.553
 6119POPC   D2A16912  43.912  21.396   8.253
 6119POPC   C3A16913  43.851  21.340   7.953
 6119POPC   C4A16914  43.864  21.383   7.653
 6119POPC   C1B16915  43.676  21.602   8.553
 6119POPC   C2B16916  43.680  21.524   8.253
 6119POPC   C3B16917  43.764  21.520   7.953
 6119POPC   C4B16918  43.706  21.554   7.653
 6120POPC   NC316919   5.890  36.935   9.453
 6120POPC   PO416920   5.872  36.938   9.153
 6120POPC   GL116921   5.835  36.855   8.853
 6120POPC   GL216922   5.948  37.024   8.853
 6120POPC   C1A16923   5.902  36.869   8.553
 6120POPC   D2A16924   5.840  36.925   8.253
 6120POPC   C3A16925   5.913  36.873   7.953
 6120POPC   C4A16926   5.821  36.940   7.653
 6120POPC   C1B16927   6.099  37.033   8.553
 6120POPC   C2B16928   6.037  37.091   8.253
 6120POPC   C3B16929   6.071  37.022   7.953
 6120POPC   C4B16930   6.078  37.066   7.653
 6121POPC   NC316931  21.370  15.946   9.453
 6121POPC   PO416932  21.429  15.989   9.153
 6121POPC   GL116933  21.340  15.995   8.853
 6121POPC   GL216934  21.358  16.062   8.853
 6121POPC   C1A16935  21.406  15.963   8.553
 6121POPC   D2A16936  21.388  15.967   8.253
 6121POPC   C3A16937  21.371  15.990   7.953
 6121POPC   C4A16938  21.357  15.916   7.653
 6121POPC   C1B16939  21.439  16.215   8.553
 6121POPC   C2B16940  21.407  16.157   8.253
 6121POPC   C3B16941  21.422  16.166   7.953
 6121POPC   C4B16942  21.438  16.213   7.653
 6122POPC   NC316943  35.337  24.516   9.453
 6122POPC   PO416944  35.318  24.518   9.153
 6122POPC   GL116945  35.396  24.477   8.853
 6122POPC   GL216946  35.407  24.450   8.853
 6122POPC   C1A16947  35.371  24.498   8.553
 6122POPC   D2A16948  35.338  24.506   8.253
 6122POPC   C3A16949  35.393  24.512   7.953
 6122POPC   C4A16950  35.350  24.449   7.653
 6122POPC   C1B16951  35.546  24.303   8.553
 6122POPC   C2B16952  35.552  24.346   8.253
 6122POPC   C3B16953  35.488  24.340   7.953
 6122POPC   C4B16954  35.537  24.351   7.653
 6123POPC   NC316955  32.243  22.212   9.453
 6123POPC   PO416956  32.278  22.186   9.153
 6123POPC   GL116957  32.212  22.196   8.853
 6123POPC   GL216958  32.357  22.256   8.853
 6123POPC   C1A16959  32.209  22.162   8.553
 6123POPC   D2A16960  32.236  22.174   8.253
 6123POPC   C3A16961  32.227  22.173   7.953
 6123POPC   C4A16962  32.282  22.142   7.653
 6123POPC   C1B16963  32.397  22.357   8.553
 6123POPC   C2B16964  32.440  22.267   8.253
 6123POPC   C3B16965  32.444  22.352   7.953
 6123POPC   C4B16966  32.421  22.360   7.653
 6124POPC   NC316967  40.802  23.737   9.453
 6124POPC   PO416968  40.798  23.711   9.153
 6124POPC   GL116969  40.814  23.697   8.853
 6124POPC   GL216970  40.781  23.615   8.853
 6124POPC   C1A16971  40.811  23.717   8.553
 6124POPC   D2A16972  40.754  23.723   8.253
 6124POPC   C3A16973  40.821  23.676   7.953
 6124POPC   C4A16974  40.801  23.693   7.653
 6124POPC   C1B16975  40.873  23.452   8.553
 6124POPC   C2B16976  40.781  23.458   8.253
 6124POPC   C3B16977  40.852  23.432   7.953
 6124POPC   C4B16978  40.783  23.494   7.653
 6125POPC   NC316979  14.397   8.232   9.453
 6125POPC   PO416980  14.381   8.242   9.153
 6125POPC   GL116981  14.354   8.167   8.853
 6125POPC   GL216982  14.414   8.359   8.853
 6125POPC   C1A16983  14.424   8.204   8.553
 6125POPC   D2A16984  14.433   8.164   8.253
 6125POPC   C3A16985  14.369   8.157   7.953
 6125POPC   C4A16986  14.440   8.173   7.653
 6125POPC   C1B16987  14.312   8.407   8.553
 6125POPC   C2B16988  14.375   8.403   8.253
 6125POPC   C3B16989  14.316   8.400   7.953
 6125POPC   C4B16990  14.347   8.486   7.653
 6126POPC   NC316991   7.466  30.695   9.453
 6126POPC   PO416992   7.422  30.665   9.153
 6126POPC   GL116993   7.381  30.672   8.853
 6126POPC   GL216994   7.255  30.639   8.853
 6126POPC   C1A16995   7.422  30.692   8.553
 6126POPC   D2A16996   7.416  30.665   8.253
 6126POPC   C3A16997   7.403  30.658   7.953
 6126POPC   C4A16998   7.452  30.685   7.653
 6126POPC   C1B16999   7.225  30.590   8.553
 6126POPC   C2B17000   7.149  30.595   8.253
 6126POPC   C3B17001   7.225  30.626   7.953
 6126POPC   C4B17002   7.237  30.654   7.653
 6127POPC   NC317003  33.067  26.808   9.453
 6127POPC   PO417004  33.058  26.865   9.153
 6127POPC   GL117005  33.002  26.809   8.853
 6127POPC   GL217006  33.007  26.676   8.853
 6127POPC   C1A17007  33.025  26.855   8.553
 6127POPC   D2A17008  33.054  26.796   8.253
 6127POPC   C3A17009  33.044  26.821   7.953
 6127POPC   C4A17010  33.027  26.859   7.653
 6127POPC   C1B17011  32.979  26.600   8.553
 6127POPC   C2B17012  32.962  26.524   8.253
 6127POPC   C3B17013  32.968  26.530   7.953
 6127POPC   C4B17014  33.049  26.585   7.653
 6128POPC   NC317015  21.352   6.622   9.453
 6128POPC   PO417016  21.423   6.656   9.153
 6128POPC   GL117017  21.342   6.597   8.853
 6128POPC   GL217018  21.306   6.486   8.853
 6128POPC   C1A17019  21.386   6.645   8.553
 6128POPC   D2A17020  21.411   6.677   8.253
 6128POPC   C3A17021  21.390   6.670   7.953
 6128POPC   C4A17022  21.413   6.615   7.653
 6128POPC   C1B17023  21.334   6.357   8.553
 6128POPC   C2B17024  21.325   6.442   8.253
 6128POPC   C3B17025  21.325   6.367   7.953
 6128POPC   C4B17026  21.361   6.407   7.653
 6129POPC   NC317027  37.646  43.104   9.453
 6129POPC   PO417028  37.664  43.102   9.153
 6129POPC   GL117029  37.648  43.150   8.853
 6129POPC   GL217030  37.841  43.078   8.853
 6129POPC   C1A17031  37.653  43.114   8.553
 6129POPC   D2A17032  37.655  43.072   8.253
 6129POPC   C3A17033  37.664  43.080   7.953
 6129POPC   C4A17034  37.702  43.068   7.653
 6129POPC   C1B17035  37.964  43.135   8.553
 6129POPC   C2B17036  37.891  43.092   8.253
 6129POPC   C3B17037  37.905  43.070   7.953
 6129POPC   C4B17038  37.965  43.101   7.653
 6130POPC   NC317039  30.653  11.300   9.453
 6130POPC   PO417040  30.663  11.306   9.153
 6130POPC   GL117041  30.729  11.329   8.853
 6130POPC   GL217042  30.572  11.297   8.853
 6130POPC   C1A17043  30.687  11.330   8.553
 6130POPC   D2A17044  30.673  11.277   8.253
 6130POPC   C3A17045  30.672  11.261   7.953
 6130POPC   C4A17046  30.737  11.329   7.653
 6130POPC   C1B17047  30.502  11.161   8.553
 6130POPC   C2B17048  30.423  11.201   8.253
 6130POPC   C3B17049  30.416  11.167   7.953
 6130POPC   C4B17050  30.450  11.231   7.653
 6131POPC   NC317051   5.894  44.673   9.453
 6131POPC   PO417052   5.835  44.645   9.153
 6131POPC   GL117053   5.827  44.645   8.853
 6131POPC   GL217054   5.924  44.555   8.853
 6131POPC   C1A17055   5.876  44.680   8.553
 6131POPC   D2A17056   5.835  44.688   8.253
 6131POPC   C3A17057   5.829  44.630   7.953
 6131POPC   C4A17058   5.835  44.655   7.653
 6131POPC   C1B17059   5.979  44.395   8.553
 6131POPC   C2B17060   5.920  44.427   8.253
 6131POPC   C3B17061   5.921  44.387   7.953
 6131POPC   C4B17062   5.971  44.392   7.653
 6132POPC   NC317063  21.386  14.389   9.453
 6132POPC   PO417064  21.343  14.445   9.153
 6132POPC   GL117065  21.385  14.406   8.853
 6132POPC   GL217066  21.426  14.326   8.853
 6132POPC   C1A17067  21.432  14.446   8.553
 6132POPC   D2A17068  21.401  14.439   8.253
 6132POPC   C3A17069  21.341  14.390   7.953
 6132POPC   C4A17070  21.389  14.434   7.653
 6132POPC   C1B17071  21.408  14.196   8.553
 6132POPC   C2B17072  21.404  14.196   8.253
 6132POPC   C3B17073  21.374  14.199   7.953
 6132POPC   C4B17074  21.392  14.144   7.653
 6133POPC   NC317075  25.231  36.084   9.453
 6133POPC   PO417076  25.246  36.130   9.153
 6133POPC   GL117077  25.284  36.122   8.853
 6133POPC   GL217078  25.355  36.016   8.853
 6133POPC   C1A17079  25.308  36.110   8.553
 6133POPC   D2A17080  25.273  36.126   8.253
 6133POPC   C3A17081  25.306  36.147   7.953
 6133POPC   C4A17082  25.216  36.097   7.653
 6133POPC   C1B17083  25.372  35.932   8.553
 6133POPC   C2B17084  25.374  35.887   8.253
 6133POPC   C3B17085  25.450  35.960   7.953
 6133POPC   C4B17086  25.407  35.945   7.653
 6134POPC   NC317087   8.950  12.059   9.453
 6134POPC   PO417088   8.988  12.122   9.153
 6134POPC   GL117089   8.970  12.083   8.853
 6134POPC   GL217090   9.034  11.969   8.853
 6134POPC   C1A17091   8.949  12.097   8.553
 6134POPC   D2A17092   8.976  12.079   8.253
 6134POPC   C3A17093   8.971  12.121   7.953
 6134POPC   C4A17094   9.010  12.085   7.653
 6134POPC   C1B17095   9.083  11.849   8.553
 6134POPC   C2B17096   9.011  11.871   8.253
 6134POPC   C3B17097   9.079  11.791   7.953
 6134POPC   C4B17098   9.027  11.801   7.653
 6135POPC   NC317099   3.535  20.596   9.453
 6135POPC   PO417100   3.537  20.658   9.153
 6135POPC   GL117101   3.499  20.603   8.853
 6135POPC   GL217102   3.619  20.675   8.853
 6135POPC   C1A17103   3.514  20.653   8.553
 6135POPC   D2A17104   3.532  20.633   8.253
 6135POPC   C3A17105   3.589  20.617   7.953
 6135POPC   C4A17106   3.576  20.620   7.653
 6135POPC   C1B17107   3.799  20.769   8.553
 6135POPC   C2B17108   3.784  20.777   8.253
 6135POPC   C3B17109   3.726  20.772   7.953
 6135POPC   C4B17110   3.766  20.746   7.653
 6136POPC   NC317111   0.473   1.236   9.453
 6136POPC   PO417112   0.464   1.240   9.153
 6136POPC   GL117113   0.439   1.232   8.853
 6136POPC   GL217114   0.323   1.157   8.853
 6136POPC   C1A17115   0.447   1.249   8.553
 6136POPC   D2A17116   0.409   1.170   8.253
 6136POPC   C3A17117   0.475   1.206   7.953
 6136POPC   C4A17118   0.439   1.196   7.653
 6136POPC   C1B17119   0.215   1.033   8.553
 6136POPC   C2B17120   0.293   1.042   8.253
 6136POPC   C3B17121   0.212   1.063   7.953
 6136POPC   C4B17122   0.260   1.083   7.653
 6137POPC   NC317123   2.722   5.842   9.453
 6137POPC   PO417124   2.766   5.839   9.153
 6137POPC   GL117125   2.795   5.837   8.853
 6137POPC   GL217126   2.801   6.035   8.853
 6137POPC   C1A17127   2.721   5.875   8.553
 6137POPC   D2A17128   2.722   5.824   8.253
 6137POPC   C3A17129   2.748   5.859   7.953
 6137POPC   C4A17130   2.781   5.885   7.653
 6137POPC   C1B17131   2.847   6.151   8.553
 6137POPC   C2B17132   2.818   6.090   8.253
 6137POPC   C3B17133   2.829   6.117   7.953
 6137POPC   C4B17134   2.837   6.072   7.653
 6138POPC   NC317135  33.816  21.356   9.453
 6138POPC   PO417136  33.781  21.337   9.153
 6138POPC   GL117137  33.769  21.393   8.853
 6138POPC   GL217138  33.822  21.547   8.853
 6138POPC   C1A17139  33.798  21.394   8.553
 6138POPC   D2A17140  33.776  21.421   8.253
 6138POPC   C3A17141  33.841  21.349   7.953
 6138POPC   C4A17142  33.793  21.387   7.653
 6138POPC   C1B17143  33.809  21.677   8.553
 6138POPC   C2B17144  33.787  21.585   8.253
 6138POPC   C3B17145  33.788  21.621   7.953
 6138POPC   C4B17146  33.868  21.605   7.653
 6139POPC   NC317147  32.213   8.185   9.453
 6139POPC   PO417148  32.206   8.170   9.153
 6139POPC   GL117149  32.218   8.198   8.853
 6139POPC   GL217150  32.242   8.307   8.853
 6139POPC   C1A17151  32.213   8.172   8.553
 6139POPC   D2A17152  32.268   8.169   8.253
 6139POPC   C3A17153  32.239   8.173   7.953
 6139POPC   C4A17154  32.278   8.188   7.653
 6139POPC   C1B17155  32.343   8.463   8.553
 6139POPC   C2B17156  32.279   8.457   8.253
 6139POPC   C3B17157  32.287   8.483   7.953
 6139POPC   C4B17158  32.270   8.401   7.653
 6140POPC   NC317159  44.700  17.508   9.453
 6140POPC   PO417160  44.689  17.470   9.153
 6140POPC   GL117161  44.683  17.545   8.853
 6140POPC   GL217162  44.647  17.429   8.853
 6140POPC   C1A17163  44.657  17.460   8.553
 6140POPC   D2A17164  44.666  17.499   8.253
 6140POPC   C3A17165  44.631  17.525   7.953
 6140POPC   C4A17166  44.693  17.540   7.653
 6140POPC   C1B17167  44.636  17.244   8.553
 6140POPC   C2B17168  44.664  17.278   8.253
 6140POPC   C3B17169  44.607  17.227   7.953
 6140POPC   C4B17170  44.654  17.250   7.653
 6141POPC   NC317171  24.496  16.736   9.453
 6141POPC   PO417172  24.521  16.748   9.153
 6141POPC   GL117173  24.536  16.720   8.853
 6141POPC   GL217174  24.368  16.796   8.853
 6141POPC   C1A17175  24.446  16.731   8.553
 6141POPC   D2A17176  24.469  16.746   8.253
 6141POPC   C3A17177  24.510  16.694   7.953
 6141POPC   C4A17178  24.514  16.720   7.653
 6141POPC   C1B17179  24.246  16.927   8.553
 6141POPC   C2B17180  24.270  16.911   8.253
 6141POPC   C3B17181  24.288  16.879   7.953
 6141POPC   C4B17182  24.335  16.929   7.653
 6142POPC   NC317183  33.042  34.560   9.453
 6142POPC   PO417184  33.039  34.557   9.153
 6142POPC   GL117185  33.053  34.543   8.853
 6142POPC   GL217186  33.063  34.424   8.853
 6142POPC   C1A17187  33.012  34.605   8.553
 6142POPC   D2A17188  32.975  34.604   8.253
 6142POPC   C3A17189  33.004  34.606   7.953
 6142POPC   C4A17190  33.059  34.598   7.653
 6142POPC   C1B17191  33.108  34.324   8.553
 6142POPC   C2B17192  33.093  34.326   8.253
 6142POPC   C3B17193  33.135  34.345   7.953
 6142POPC   C4B17194  33.094  34.344   7.653
 6143POPC   NC317195   1.968  31.456   9.453
 6143POPC   PO417196   1.947  31.498   9.153
 6143POPC   GL117197   1.960  31.485   8.853
 6143POPC   GL217198   1.886  31.523   8.853
 6143POPC   C1A17199   1.975  31.498   8.553
 6143POPC   D2A17200   1.986  31.489   8.253
 6143POPC   C3A17201   2.033  31.436   7.953
 6143POPC   C4A17202   2.034  31.464   7.653
 6143POPC   C1B17203   1.761  31.532   8.553
 6143POPC   C2B17204   1.761  31.546   8.253
 6143POPC   C3B17205   1.741  31.539   7.953
 6143POPC   C4B17206   1.786  31.578   7.653
 6144POPC   NC317207  20.644   3.527   9.453
 6144POPC   PO417208  20.598   3.508   9.153
 6144POPC   GL117209  20.592   3.530   8.853
 6144POPC   GL217210  20.531   3.467   8.853
 6144POPC   C1A17211  20.637   3.572   8.553
 6144POPC   D2A17212  20.568   3.572   8.253
 6144POPC   C3A17213  20.566   3.548   7.953
 6144POPC   C4A17214  20.643   3.494   7.653
 6144POPC   C1B17215  20.352   3.429   8.553
 6144POPC   C2B17216  20.345   3.399   8.253
 6144POPC   C3B17217  20.380   3.469   7.953
 6144POPC   C4B17218  20.366   3.420   7.653
 6145POPC   NC317219  16.750  12.056   9.453
 6145POPC   PO417220  16.751  12.121   9.153
 6145POPC   GL117221  16.723  12.101   8.853
 6145POPC   GL217222  16.802  12.186   8.853
 6145POPC   C1A17223  16.685  12.109   8.553
 6145POPC   D2A17224  16.761  12.050   8.253
 6145POPC   C3A17225  16.716  12.102   7.953
 6145POPC   C4A17226  16.751  12.100   7.653
 6145POPC   C1B17227  16.891  12.297   8.553
 6145POPC   C2B17228  16.920  12.314   8.253
 6145POPC   C3B17229  16.915  12.320   7.953
 6145POPC   C4B17230  16.901  12.282   7.653
 6146POPC   NC317231  39.186  39.278   9.453
 6146POPC   PO417232  39.203  39.239   9.153
 6146POPC   GL117233  39.252  39.186   8.853
 6146POPC   GL217234  39.371  39.161   8.853
 6146POPC   C1A17235  39.258  39.271   8.553
 6146POPC   D2A17236  39.238  39.193   8.253
 6146POPC   C3A17237  39.215  39.185   7.953
 6146POPC   C4A17238  39.216  39.197   7.653
 6146POPC   C1B17239  39.470  39.055   8.553
 6146POPC   C2B17240  39.432  39.133   8.253
 6146POPC   C3B17241  39.443  39.036   7.953
 6146POPC   C4B17242  39.471  39.036   7.653
 6147POPC   NC317243  13.615   8.238   9.453
 6147POPC   PO417244  13.612   8.196   9.153
 6147POPC   GL117245  13.662   8.243   8.853
 6147POPC   GL217246  13.509   8.298   8.853
 6147POPC   C1A17247  13.655   8.184   8.553
 6147POPC   D2A17248  13.578   8.203   8.253
 6147POPC   C3A17249  13.624   8.238   7.953
 6147POPC   C4A17250  13.610   8.168   7.653
 6147POPC   C1B17251  13.501   8.424   8.553
 6147POPC   C2B17252  13.465   8.392   8.253
 6147POPC   C3B17253  13.521   8.373   7.953
 6147POPC   C4B17254  13.464   8.382   7.653
 6148POPC   NC317255  30.690  28.382   9.453
 6148POPC   PO417256  30.717  28.378   9.153
 6148POPC   GL117257  30.703  28.399   8.853
 6148POPC   GL217258  30.637  28.496   8.853
 6148POPC   C1A17259  30.682  28.328   8.553
 6148POPC   D2A17260  30.730  28.396   8.253
 6148POPC   C3A17261  30.650  28.332   7.953
 6148POPC   C4A17262  30.658  28.412   7.653
 6148POPC   C1B17263  30.584  28.547   8.553
 6148POPC   C2B17264  30.552  28.548   8.253
 6148POPC   C3B17265  30.534  28.525   7.953
 6148POPC   C4B17266  30.566  28.578   7.653
 6149POPC   NC317267  15.923   6.674   9.453
 6149POPC   PO417268  15.987   6.644   9.153
 6149POPC   GL117269  15.957   6.659   8.853
 6149POPC   GL217270  16.054   6.689   8.853
 6149POPC   C1A17271  15.976   6.643   8.553
 6149POPC   D2A17272  15.937   6.626   8.253
 6149POPC   C3A17273  15.927   6.645   7.953
 6149POPC   C4A17274  15.994   6.653   7.653
 6149POPC   C1B17275  16.099   6.855   8.553
 6149POPC   C2B17276  16.124   6.816   8.253
 6149POPC   C3B17277  16.087   6.800   7.953
 6149POPC   C4B17278  16.179   6.777   7.653
 6150POPC   NC317279   6.676  35.384   9.453
 6150POPC   PO417280   6.663  35.349   9.153
 6150POPC   GL117281   6.607  35.314   8.853
 6150POPC   GL217282   6.673  35.513   8.853
 6150POPC   C1A17283   6.633  35.370   8.553
 6150POPC   D2A17284   6.659  35.340   8.253
 6150POPC   C3A17285   6.684  35.380   7.953
 6150POPC   C4A17286   6.690  35.314   7.653
 6150POPC   C1B17287   6.619  35.572   8.553
 6150POPC   C2B17288   6.708  35.612   8.253
 6150POPC   C3B17289   6.657  35.642   7.953
 6150POPC   C4B17290   6.712  35.586   7.653
 6151POPC   NC317291  39.247  34.619   9.453
 6151POPC   PO417292  39.219  34.536   9.153
 6151POPC   GL117293  39.184  34.531   8.853
 6151POPC   GL217294  39.329  34.437   8.853
 6151POPC   C1A17295  39.226  34.533   8.553
 6151POPC   D2A17296  39.277  34.582   8.253
 6151POPC   C3A17297  39.200  34.603   7.953
 6151POPC   C4A17298  39.216  34.565   7.653
 6151POPC   C1B17299  39.359  34.401   8.553
 6151POPC   C2B17300  39.385  34.383   8.253
 6151POPC   C3B17301  39.369  34.383   7.953
 6151POPC   C4B17302  39.353  34.391   7.653
 6152POPC   NC317303  37.647  35.384   9.453
 6152POPC   PO417304  37.671  35.311   9.153
 6152POPC   GL117305  37.654  35.371   8.853
 6152POPC   GL217306  37.696  35.480   8.853
 6152POPC   C1A17307  37.707  35.303   8.553
 6152POPC   D2A17308  37.637  35.401   8.253
 6152POPC   C3A17309  37.681  35.382   7.953
 6152POPC   C4A17310  37.630  35.401   7.653
 6152POPC   C1B17311  37.698  35.637   8.553
 6152POPC   C2B17312  37.682  35.596   8.253
 6152POPC   C3B17313  37.742  35.561   7.953
 6152POPC   C4B17314  37.695  35.575   7.653
 6153POPC   NC317315  29.890  43.095   9.453
 6153POPC   PO417316  29.960  43.135   9.153
 6153POPC   GL117317  29.888  43.144   8.853
 6153POPC   GL217318  29.988  43.186   8.853
 6153POPC   C1A17319  29.915  43.067   8.553
 6153POPC   D2A17320  29.915  43.116   8.253
 6153POPC   C3A17321  29.904  43.135   7.953
 6153POPC   C4A17322  29.895  43.084   7.653
 6153POPC   C1B17323  30.080  43.275   8.553
 6153POPC   C2B17324  30.166  43.266   8.253
 6153POPC   C3B17325  30.151  43.267   7.953
 6153POPC   C4B17326  30.085  43.234   7.653
 6154POPC   NC317327  26.021  42.330   9.453
 6154POPC   PO417328  26.041  42.354   9.153
 6154POPC   GL117329  26.001  42.350   8.853
 6154POPC   GL217330  25.962  42.231   8.853
 6154POPC   C1A17331  26.033  42.349   8.553
 6154POPC   D2A17332  26.045  42.351   8.253
 6154POPC   C3A17333  25.997  42.375   7.953
 6154POPC   C4A17334  26.007  42.297   7.653
 6154POPC   C1B17335  25.895  42.165   8.553
 6154POPC   C2B17336  25.804  42.123   8.253
 6154POPC   C3B17337  25.889  42.199   7.953
 6154POPC   C4B17338  25.835  42.138   7.653
 6155POPC   NC317339  13.658  43.121   9.453
 6155POPC   PO417340  13.657  43.063   9.153
 6155POPC   GL117341  13.596  43.081   8.853
 6155POPC   GL217342  13.714  43.136   8.853
 6155POPC   C1A17343  13.596  43.085   8.553
 6155POPC   D2A17344  13.645  43.112   8.253
 6155POPC   C3A17345  13.641  43.122   7.953
 6155POPC   C4A17346  13.595  43.129   7.653
 6155POPC   C1B17347  13.895  43.093   8.553
 6155POPC   C2B17348  13.899  43.074   8.253
 6155POPC   C3B17349  13.919  43.095   7.953
 6155POPC   C4B17350  13.862  43.145   7.653
 6156POPC   NC317351  10.537  19.072   9.453
 6156POPC   PO417352  10.520  19.107   9.153
 6156POPC   GL117353  10.544  19.097   8.853
 6156POPC   GL217354  10.608  19.071   8.853
 6156POPC   C1A17355  10.476  19.088   8.553
 6156POPC   D2A17356  10.513  19.010   8.253
 6156POPC   C3A17357  10.518  19.095   7.953
 6156POPC   C4A17358  10.532  19.103   7.653
 6156POPC   C1B17359  10.728  19.137   8.553
 6156POPC   C2B17360  10.752  19.132   8.253
 6156POPC   C3B17361  10.776  19.195   7.953
 6156POPC   C4B17362  10.736  19.143   7.653
 6157POPC   NC317363  19.010  25.315   9.453
 6157POPC   PO417364  19.058  25.231   9.153
 6157POPC   GL117365  19.068  25.251   8.853
 6157POPC   GL217366  19.176  25.285   8.853
 6157POPC   C1A17367  19.036  25.308   8.553
 6157POPC   D2A17368  19.041  25.230   8.253
 6157POPC   C3A17369  19.043  25.228   7.953
 6157POPC   C4A17370  19.089  25.268   7.653
 6157POPC   C1B17371  19.283  25.376   8.553
 6157POPC   C2B17372  19.332  25.354   8.253
 6157POPC   C3B17373  19.253  25.389   7.953
 6157POPC   C4B17374  19.309  25.389   7.653
 6158POPC   NC317375   5.065  31.520   9.453
 6158POPC   PO417376   5.086  31.472   9.153
 6158POPC   GL117377   5.065  31.466   8.853
 6158POPC   GL217378   5.158  31.642   8.853
 6158POPC   C1A17379   5.058  31.507   8.553
 6158POPC   D2A17380   5.073  31.453   8.253
 6158POPC   C3A17381   5.122  31.493   7.953
 6158POPC   C4A17382   5.099  31.497   7.653
 6158POPC   C1B17383   5.163  31.676   8.553
 6158POPC   C2B17384   5.127  31.730   8.253
 6158POPC   C3B17385   5.126  31.761   7.953
 6158POPC   C4B17386   5.178  31.756   7.653
 6159POPC   NC317387   2.803  36.082   9.453
 6159POPC   PO417388   2.759  36.168   9.153
 6159POPC   GL117389   2.786  36.109   8.853
 6159POPC   GL217390   2.905  36.016   8.853
 6159POPC   C1A17391   2.755  36.177   8.553
 6159POPC   D2A17392   2.757  36.114   8.253
 6159POPC   C3A17393   2.738  36.112   7.953
 6159POPC   C4A17394   2.773  36.134   7.653
 6159POPC   C1B17395   3.029  35.977   8.553
 6159POPC   C2B17396   2.993  36.002   8.253
 6159POPC   C3B17397   2.968  36.028   7.953
 6159POPC   C4B17398   3.020  36.031   7.653
 6160POPC   NC317399  32.209  13.664   9.453
 6160POPC   PO417400  32.233  13.615   9.153
 6160POPC   GL117401  32.225  13.580   8.853
 6160POPC   GL217402  32.155  13.629   8.853
 6160POPC   C1A17403  32.244  13.625   8.553
 6160POPC   D2A17404  32.205  13.610   8.253
 6160POPC   C3A17405  32.254  13.595   7.953
 6160POPC   C4A17406  32.275  13.605   7.653
 6160POPC   C1B17407  32.033  13.730   8.553
 6160POPC   C2B17408  32.014  13.704   8.253
 6160POPC   C3B17409  31.977  13.699   7.953
 6160POPC   C4B17410  32.014  13.706   7.653
 6161POPC   NC317411  33.819  37.690   9.453
 6161POPC   PO417412  33.759  37.711   9.153
 6161POPC   GL117413  33.764  37.665   8.853
 6161POPC   GL217414  33.820  37.602   8.853
 6161POPC   C1A17415  33.790  37.673   8.553
 6161POPC   D2A17416  33.829  37.650   8.253
 6161POPC   C3A17417  33.833  37.672   7.953
 6161POPC   C4A17418  33.794  37.670   7.653
 6161POPC   C1B17419  33.907  37.433   8.553
 6161POPC   C2B17420  33.919  37.413   8.253
 6161POPC   C3B17421  33.922  37.469   7.953
 6161POPC   C4B17422  33.880  37.481   7.653
 6162POPC   NC317423   9.016  15.993   9.453
 6162POPC   PO417424   9.001  15.995   9.153
 6162POPC   GL117425   9.010  15.906   8.853
 6162POPC   GL217426   9.117  15.965   8.853
 6162POPC   C1A17427   8.965  15.941   8.553
 6162POPC   D2A17428   8.958  15.985   8.253
 6162POPC   C3A17429   8.977  15.980   7.953
 6162POPC   C4A17430   8.997  15.949   7.653
 6162POPC   C1B17431   9.270  15.950   8.553
 6162POPC   C2B17432   9.204  15.947   8.253
 6162POPC   C3B17433   9.252  15.997   7.953
 6162POPC   C4B17434   9.177  15.970   7.653
 6163POPC   NC317435  32.259  26.003   9.453
 6163POPC   PO417436  32.296  26.035   9.153
 6163POPC   GL117437  32.250  26.011   8.853
 6163POPC   GL217438  32.401  26.089   8.853
 6163POPC   C1A17439  32.252  26.058   8.553
 6163POPC   D2A17440  32.219  26.028   8.253
 6163POPC   C3A17441  32.240  26.057   7.953
 6163POPC   C4A17442  32.227  26.082   7.653
 6163POPC   C1B17443  32.481  26.038   8.553
 6163POPC   C2B17444  32.461  26.101   8.253
 6163POPC   C3B17445  32.446  26.066   7.953
 6163POPC   C4B17446  32.517  26.056   7.653
 6164POPC   NC317447  32.277  25.289   9.453
 6164POPC   PO417448  32.282  25.226   9.153
 6164POPC   GL117449  32.207  25.264   8.853
 6164POPC   GL217450  32.334  25.189   8.853
 6164POPC   C1A17451  32.261  25.262   8.553
 6164POPC   D2A17452  32.271  25.233   8.253
 6164POPC   C3A17453  32.282  25.286   7.953
 6164POPC   C4A17454  32.227  25.285   7.653
 6164POPC   C1B17455  32.489  25.127   8.553
 6164POPC   C2B17456  32.464  25.170   8.253
 6164POPC   C3B17457  32.487  25.119   7.953
 6164POPC   C4B17458  32.450  25.200   7.653
 6165POPC   NC317459  43.119  19.870   9.453
 6165POPC   PO417460  43.121  19.851   9.153
 6165POPC   GL117461  43.148  19.823   8.853
 6165POPC   GL217462  43.204  19.962   8.853
 6165POPC   C1A17463  43.121  19.785   8.553
 6165POPC   D2A17464  43.144  19.826   8.253
 6165POPC   C3A17465  43.140  19.858   7.953
 6165POPC   C4A17466  43.078  19.836   7.653
 6165POPC   C1B17467  43.209  20.080   8.553
 6165POPC   C2B17468  43.236  20.112   8.253
 6165POPC   C3B17469  43.191  20.038   7.953
 6165POPC   C4B17470  43.186  20.108   7.653
 6166POPC   NC317471   6.672   9.782   9.453
 6166POPC   PO417472   6.691   9.774   9.153
 6166POPC   GL117473   6.616   9.701   8.853
 6166POPC   GL217474   6.711   9.868   8.853
 6166POPC   C1A17475   6.615   9.742   8.553
 6166POPC   D2A17476   6.647   9.751   8.253
 6166POPC   C3A17477   6.663   9.788   7.953
 6166POPC   C4A17478   6.639   9.761   7.653
 6166POPC   C1B17479   6.687   9.954   8.553
 6166POPC   C2B17480   6.743   9.999   8.253
 6166POPC   C3B17481   6.705   9.974   7.953
 6166POPC   C4B17482   6.699   9.949   7.653
 6167POPC   NC317483  25.280  29.150   9.453
 6167POPC   PO417484  25.296  29.098   9.153
 6167POPC   GL117485  25.303  29.156   8.853
 6167POPC   GL217486  25.298  29.299   8.853
 6167POPC   C1A17487  25.282  29.137   8.553
 6167POPC   D2A17488  25.315  29.117   8.253
 6167POPC   C3A17489  25.242  29.134   7.953
 6167POPC   C4A17490  25.258  29.165   7.653
 6167POPC   C1B17491  25.250  29.352   8.553
 6167POPC   C2B17492  25.263  29.415   8.253
 6167POPC   C3B17493  25.327  29.421   7.953
 6167POPC   C4B17494  25.344  29.359   7.653
 6168POPC   NC317495   0.457  42.374   9.453
 6168POPC   PO417496   0.449  42.326   9.153
 6168POPC   GL117497   0.416  42.320   8.853
 6168POPC   GL217498   0.551  42.337   8.853
 6168POPC   C1A17499   0.404  42.358   8.553
 6168POPC   D2A17500   0.398  42.323   8.253
 6168POPC   C3A17501   0.487  42.361   7.953
 6168POPC   C4A17502   0.423  42.305   7.653
 6168POPC   C1B17503   0.661  42.469   8.553
 6168POPC   C2B17504   0.620  42.405   8.253
 6168POPC   C3B17505   0.649  42.405   7.953
 6168POPC   C4B17506   0.663  42.449   7.653
 6169POPC   NC317507  38.502   8.218   9.453
 6169POPC   PO417508  38.499   8.205   9.153
 6169POPC   GL117509  38.479   8.206   8.853
 6169POPC   GL217510  38.362   8.250   8.853
 6169POPC   C1A17511  38.479   8.157   8.553
 6169POPC   D2A17512  38.451   8.156   8.253
 6169POPC   C3A17513  38.416   8.169   7.953
 6169POPC   C4A17514  38.476   8.238   7.653
 6169POPC   C1B17515  38.281   8.358   8.553
 6169POPC   C2B17516  38.291   8.358   8.253
 6169POPC   C3B17517  38.321   8.354   7.953
 6169POPC   C4B17518  38.248   8.409   7.653
 6170POPC   NC317519  38.441  19.850   9.453
 6170POPC   PO417520  38.468  19.848   9.153
 6170POPC   GL117521  38.461  19.810   8.853
 6170POPC   GL217522  38.438  19.968   8.853
 6170POPC   C1A17523  38.417  19.872   8.553
 6170POPC   D2A17524  38.488  19.848   8.253
 6170POPC   C3A17525  38.421  19.870   7.953
 6170POPC   C4A17526  38.425  19.824   7.653
 6170POPC   C1B17527  38.553  20.105   8.553
 6170POPC   C2B17528  38.559  20.065   8.253
 6170POPC   C3B17529  38.536  20.097   7.953
 6170POPC   C4B17530  38.521  20.096   7.653
 6171POPC   NC317531  12.088  21.429   9.453
 6171POPC   PO417532  12.087  21.346   9.153
 6171POPC   GL117533  12.120  21.394   8.853
 6171POPC   GL217534  12.136  21.450   8.853
 6171POPC   C1A17535  12.031  21.402   8.553
 6171POPC   D2A17536  12.118  21.412   8.253
 6171POPC   C3A17537  12.095  21.369   7.953
 6171POPC   C4A17538  12.040  21.371   7.653
 6171POPC   C1B17539  12.150  21.638   8.553
 6171POPC   C2B17540  12.210  21.593   8.253
 6171POPC   C3B17541  12.199  21.651   7.953
 6171POPC   C4B17542  12.184  21.651   7.653
 6172POPC   NC317543  40.756  28.352   9.453
 6172POPC   PO417544  40.747  28.322   9.153
 6172POPC   GL117545  40.832  28.410   8.853
 6172POPC   GL217546  40.918  28.343   8.853
 6172POPC   C1A17547  40.800  28.339   8.553
 6172POPC   D2A17548  40.804  28.322   8.253
 6172POPC   C3A17549  40.761  28.371   7.953
 6172POPC   C4A17550  40.770  28.404   7.653
 6172POPC   C1B17551  41.071  28.364   8.553
 6172POPC   C2B17552  41.038  28.372   8.253
 6172POPC   C3B17553  41.035  28.381   7.953
 6172POPC   C4B17554  40.999  28.353   7.653
 6173POPC   NC317555  33.011  22.181   9.453
 6173POPC   PO417556  33.008  22.202   9.153
 6173POPC   GL117557  33.065  22.188   8.853
 6173POPC   GL217558  33.026  22.234   8.853
 6173POPC   C1A17559  33.019  22.174   8.553
 6173POPC   D2A17560  33.000  22.131   8.253
 6173POPC   C3A17561  32.981  22.201   7.953
 6173POPC   C4A17562  33.032  22.194   7.653
 6173POPC   C1B17563  33.112  22.421   8.553
 6173POPC   C2B17564  33.084  22.415   8.253
 6173POPC   C3B17565  33.076  22.392   7.953
 6173POPC   C4B17566  33.107  22.361   7.653
 6174POPC   NC317567  20.645   8.159   9.453
 6174POPC   PO417568  20.603   8.218   9.153
 6174POPC   GL117569  20.578   8.214   8.853
 6174POPC   GL217570  20.730   8.106   8.853
 6174POPC   C1A17571  20.568   8.200   8.553
 6174POPC   D2A17572  20.592   8.224   8.253
 6174POPC   C3A17573  20.658   8.244   7.953
 6174POPC   C4A17574  20.655   8.172   7.653
 6174POPC   C1B17575  20.797   8.052   8.553
 6174POPC   C2B17576  20.779   8.060   8.253
 6174POPC   C3B17577  20.847   8.047   7.953
 6174POPC   C4B17578  20.855   8.011   7.653
 6175POPC   NC317579  42.311  39.984   9.453
 6175POPC   PO417580  42.351  40.004   9.153
 6175POPC   GL117581  42.303  40.017   8.853
 6175POPC   GL217582  42.411  40.105   8.853
 6175POPC   C1A17583  42.363  39.968   8.553
 6175POPC   D2A17584  42.304  40.021   8.253
 6175POPC   C3A17585  42.351  39.970   7.953
 6175POPC   C4A17586  42.382  40.021   7.653
 6175POPC   C1B17587  42.509  40.270   8.553
 6175POPC   C2B17588  42.493  40.210   8.253
 6175POPC   C3B17589  42.477  40.184   7.953
 6175POPC   C4B17590  42.479  40.256   7.653
 6176POPC   NC317591  28.417  40.780   9.453
 6176POPC   PO417592  28.376  40.780   9.153
 6176POPC   GL117593  28.391  40.775   8.853
 6176POPC   GL217594  28.418  40.625   8.853
 6176POPC   C1A17595  28.418  40.770   8.553
 6176POPC   D2A17596  28.378  40.778   8.253
 6176POPC   C3A17597  28.328  40.806   7.953
 6176POPC   C4A17598  28.386  40.830   7.653
 6176POPC   C1B17599  28.481  40.555   8.553
 6176POPC   C2B17600  28.475  40.539   8.253
 6176POPC   C3B17601  28.413  40.566   7.953
 6176POPC   C4B17602  28.470  40.583   7.653
 6177POPC   NC317603   4.361  16.725   9.453
 6177POPC   PO417604   4.343  16.733   9.153
 6177POPC   GL117605   4.355  16.714   8.853
 6177POPC   GL217606   4.389  16.708   8.853
 6177POPC   C1A17607   4.315  16.687   8.553
 6177POPC   D2A17608   4.308  16.724   8.253
 6177POPC   C3A17609   4.315  16.690   7.953
 6177POPC   C4A17610   4.360  16.694   7.653
 6177POPC   C1B17611   4.484  16.594   8.553
 6177POPC   C2B17612   4.504  16.567   8.253
 6177POPC   C3B17613   4.534  16.640   7.953
 6177POPC   C4B17614   4.564  16.608   7.653
 6178POPC   NC317615  20.574  43.859   9.453
 6178POPC   PO417616  20.577  43.863   9.153
 6178POPC   GL117617  20.604  43.919   8.853
 6178POPC   GL217618  20.557  43.785   8.853
 6178POPC   C1A17619  20.596  43.861   8.553
 6178POPC   D2A17620  20.659  43.850   8.253
 6178POPC   C3A17621  20.599  43.922   7.953
 6178POPC   C4A17622  20.571  43.910   7.653
 6178POPC   C1B17623  20.415  43.736   8.553
 6178POPC   C2B17624  20.490  43.745   8.253
 6178POPC   C3B17625  20.442  43.727   7.953
 6178POPC   C4B17626  20.417  43.724   7.653
 6179POPC   NC317627  33.005  36.883   9.453
 6179POPC   PO417628  33.031  36.856   9.153
 6179POPC   GL117629  33.050  36.878   8.853
 6179POPC   GL217630  33.112  36.768   8.853
 6179POPC   C1A17631  33.045  36.874   8.553
 6179POPC   D2A17632  33.033  36.880   8.253
 6179POPC   C3A17633  33.039  36.904   7.953
 6179POPC   C4A17634  33.015  36.921   7.653
 6179POPC   C1B17635  33.207  36.681   8.553
 6179POPC   C2B17636  33.185  36.688   8.253
 6179POPC   C3B17637  33.179  36.677   7.953
 6179POPC   C4B17638  33.139  36.720   7.653
 6180POPC   NC317639  22.981  19.067   9.453
 6180POPC   PO417640  22.984  19.022   9.153
 6180POPC   GL117641  22.938  19.074   8.853
 6180POPC   GL217642  22.852  19.006   8.853
 6180POPC   C1A17643  22.979  19.069   8.553
 6180POPC   D2A17644  22.908  19.076   8.253
 6180POPC   C3A17645  22.895  19.065   7.953
 6180POPC   C4A17646  22.985  19.031   7.653
 6180POPC   C1B17647  22.772  18.829   8.553
 6180POPC   C2B17648  22.760  18.878   8.253
 6180POPC   C3B17649  22.756  18.878   7.953
 6180POPC   C4B17650  22.737  18.901   7.653
 6181POPC   NC317651   2.799  34.587   9.453
 6181POPC   PO417652   2.759  34.589   9.153
 6181POPC   GL117653   2.720  34.615   8.853
 6181POPC   GL217654   2.773  34.736   8.853
 6181POPC   C1A17655   2.733  34.603   8.553
 6181POPC   D2A17656   2.815  34.603   8.253
 6181POPC   C3A17657   2.795  34.544   7.953
 6181POPC   C4A17658   2.741  34.588   7.653
 6181POPC   C1B17659   2.771  34.800   8.553
 6181POPC   C2B17660   2.715  34.827   8.253
 6181POPC   C3B17661   2.741  34.787   7.953
 6181POPC   C4B17662   2.697  34.842   7.653
 6182POPC   NC317663  21.379  20.574   9.453
 6182POPC   PO417664  21.430  20.580   9.153
 6182POPC   GL117665  21.346  20.612   8.853
 6182POPC   GL217666  21.448  20.559   8.853
 6182POPC   C1A17667  21.339  20.654   8.553
 6182POPC   D2A17668  21.363  20.593   8.253
 6182POPC   C3A17669  21.430  20.619   7.953
 6182POPC   C4A17670  21.416  20.575   7.653
 6182POPC   C1B17671  21.555  20.459   8.553
 6182POPC   C2B17672  21.559  20.365   8.253
 6182POPC   C3B17673  21.559  20.413   7.953
 6182POPC   C4B17674  21.545  20.381   7.653
 6183POPC   NC317675  40.046  24.464   9.453
 6183POPC   PO417676  40.040  24.467   9.153
 6183POPC   GL117677  40.020  24.495   8.853
 6183POPC   GL217678  40.024  24.337   8.853
 6183POPC   C1A17679  40.021  24.511   8.553
 6183POPC   D2A17680  39.971  24.457   8.253
 6183POPC   C3A17681  39.959  24.453   7.953
 6183POPC   C4A17682  39.987  24.447   7.653
 6183POPC   C1B17683  40.133  24.265   8.553
 6183POPC   C2B17684  40.148  24.248   8.253
 6183POPC   C3B17685  40.105  24.277   7.953
 6183POPC   C4B17686  40.107  24.223   7.653
 6184POPC   NC317687  40.751   2.794   9.453
 6184POPC   PO417688  40.792   2.736   9.153
 6184POPC   GL117689  40.754   2.721   8.853
 6184POPC   GL217690  40.892   2.654   8.853
 6184POPC   C1A17691  40.747   2.807   8.553
 6184POPC   D2A17692  40.798   2.717   8.253
 6184POPC   C3A17693  40.814   2.794   7.953
 6184POPC   C4A17694  40.768   2.785   7.653
 6184POPC   C1B17695  40.864   2.572   8.553
 6184POPC   C2B17696  40.926   2.594   8.253
 6184POPC   C3B17697  40.867   2.585   7.953
 6184POPC   C4B17698  40.913   2.529   7.653
 6185POPC   NC317699  27.585  13.624   9.453
 6185POPC   PO417700  27.544  13.624   9.153
 6185POPC   GL117701  27.633  13.603   8.853
 6185POPC   GL217702  27.475  13.654   8.853
 6185POPC   C1A17703  27.616  13.610   8.553
 6185POPC   D2A17704  27.599  13.664   8.253
 6185POPC   C3A17705  27.558  13.582   7.953
 6185POPC   C4A17706  27.614  13.625   7.653
 6185POPC   C1B17707  27.379  13.569   8.553
 6185POPC   C2B17708  27.370  13.594   8.253
 6185POPC   C3B17709  27.330  13.603   7.953
 6185POPC   C4B17710  27.383  13.610   7.653
 6186POPC   NC317711  30.731  44.624   9.453
 6186POPC   PO417712  30.729  44.678   9.153
 6186POPC   GL117713  30.693  44.629   8.853
 6186POPC   GL217714  30.819  44.571   8.853
 6186POPC   C1A17715  30.746  44.703   8.553
 6186POPC   D2A17716  30.733  44.678   8.253
 6186POPC   C3A17717  30.707  44.652   7.953
 6186POPC   C4A17718  30.663  44.663   7.653
 6186POPC   C1B17719  30.937  44.558   8.553
 6186POPC   C2B17720  30.970  44.587   8.253
 6186POPC   C3B17721  30.964  44.541   7.953
 6186POPC   C4B17722  30.935  44.581   7.653
 6187POPC   NC317723  34.603  37.707   9.453
 6187POPC   PO417724  34.562  37.662   9.153
 6187POPC   GL117725  34.581  37.696   8.853
 6187POPC   GL217726  34.430  37.698   8.853
 6187POPC   C1A17727  34.603  37.707   8.553
 6187POPC   D2A17728  34.606  37.673   8.253
 6187POPC   C3A17729  34.528  37.717   7.953
 6187POPC   C4A17730  34.594  37.698   7.653
 6187POPC   C1B17731  34.370  37.769   8.553
 6187POPC   C2B17732  34.360  37.768   8.253
 6187POPC   C3B17733  34.339  37.826   7.953
 6187POPC   C4B17734  34.369  37.747   7.653
 6188POPC   NC317735  23.747  18.250   9.453
 6188POPC   PO417736  23.690  18.285   9.153
 6188POPC   GL117737  23.672  18.331   8.853
 6188POPC   GL217738  23.796  18.209   8.853
 6188POPC   C1A17739  23.686  18.322   8.553
 6188POPC   D2A17740  23.738  18.270   8.253
 6188POPC   C3A17741  23.676  18.292   7.953
 6188POPC   C4A17742  23.697  18.280   7.653
 6188POPC   C1B17743  23.757  18.060   8.553
 6188POPC   C2B17744  23.832  18.038   8.253
 6188POPC   C3B17745  23.766  18.024   7.953
 6188POPC   C4B17746  23.826  18.032   7.653
 6189POPC   NC317747  36.130   8.979   9.453
 6189POPC   PO417748  36.099   8.937   9.153
 6189POPC   GL117749  36.146   8.927   8.853
 6189POPC   GL217750  36.167   9.118   8.853
 6189POPC   C1A17751  36.162   9.005   8.553
 6189POPC   D2A17752  36.115   9.010   8.253
 6189POPC   C3A17753  36.143   9.020   7.953
 6189POPC   C4A17754  36.147   8.937   7.653
 6189POPC   C1B17755  36.145   9.233   8.553
 6189POPC   C2B17756  36.221   9.192   8.253
 6189POPC   C3B17757  36.215   9.165   7.953
 6189POPC   C4B17758  36.161   9.222   7.653
 6190POPC   NC317759  36.157   2.020   9.453
 6190POPC   PO417760  36.114   2.011   9.153
 6190POPC   GL117761  36.113   1.956   8.853
 6190POPC   GL217762  36.197   1.874   8.853
 6190POPC   C1A17763  36.131   1.988   8.553
 6190POPC   D2A17764  36.176   1.977   8.253
 6190POPC   C3A17765  36.118   2.037   7.953
 6190POPC   C4A17766  36.082   2.034   7.653
 6190POPC   C1B17767  36.315   1.789   8.553
 6190POPC   C2B17768  36.311   1.796   8.253
 6190POPC   C3B17769  36.298   1.811   7.953
 6190POPC   C4B17770  36.271   1.826   7.653
 6191POPC   NC317771   2.729  14.426   9.453
 6191POPC   PO417772   2.769  14.383   9.153
 6191POPC   GL117773   2.814  14.428   8.853
 6191POPC   GL217774   2.797  14.272   8.853
 6191POPC   C1A17775   2.775  14.441   8.553
 6191POPC   D2A17776   2.761  14.382   8.253
 6191POPC   C3A17777   2.767  14.408   7.953
 6191POPC   C4A17778   2.792  14.439   7.653
 6191POPC   C1B17779   2.791  14.142   8.553
 6191POPC   C2B17780   2.695  14.202   8.253
 6191POPC   C3B17781   2.731  14.161   7.953
 6191POPC   C4B17782   2.699  14.161   7.653
 6192POPC   NC317783  21.403  10.529   9.453
 6192POPC   PO417784  21.414  10.499   9.153
 6192POPC   GL117785  21.346  10.492   8.853
 6192POPC   GL217786  21.339  10.665   8.853
 6192POPC   C1A17787  21.419  10.494   8.553
 6192POPC   D2A17788  21.433  10.486   8.253
 6192POPC   C3A17789  21.420  10.543   7.953
 6192POPC   C4A17790  21.356  10.498   7.653
 6192POPC   C1B17791  21.238  10.680   8.553
 6192POPC   C2B17792  21.281  10.721   8.253
 6192POPC   C3B17793  21.212  10.721   7.953
 6192POPC   C4B17794  21.255  10.771   7.653
 6193POPC   NC317795  40.024  38.491   9.453
 6193POPC   PO417796  40.007  38.432   9.153
 6193POPC   GL117797  39.989  38.467   8.853
 6193POPC   GL217798  39.955  38.573   8.853
 6193POPC   C1A17799  39.972  38.448   8.553
 6193POPC   D2A17800  40.039  38.452   8.253
 6193POPC   C3A17801  40.013  38.485   7.953
 6193POPC   C4A17802  39.978  38.484   7.653
 6193POPC   C1B17803  39.930  38.679   8.553
 6193POPC   C2B17804  39.842  38.662   8.253
 6193POPC   C3B17805  39.922  38.626   7.953
 6193POPC   C4B17806  39.930  38.633   7.653
 6194POPC   NC317807  20.651  26.014   9.453
 6194POPC   PO417808  20.600  26.011   9.153
 6194POPC   GL117809  20.587  26.051   8.853
 6194POPC   GL217810  20.613  25.881   8.853
 6194POPC   C1A17811  20.572  25.995   8.553
 6194POPC   D2A17812  20.596  26.064   8.253
 6194POPC   C3A17813  20.631  26.068   7.953
 6194POPC   C4A17814  20.622  26.073   7.653
 6194POPC   C1B17815  20.593  25.793   8.553
 6194POPC   C2B17816  20.547  25.791   8.253
 6194POPC   C3B17817  20.539  25.789   7.953
 6194POPC   C4B17818  20.522  25.831   7.653
 6195POPC   NC317819   2.815  39.207   9.453
 6195POPC   PO417820   2.757  39.193   9.153
 6195POPC   GL117821   2.754  39.265   8.853
 6195POPC   GL217822   2.693  39.246   8.853
 6195POPC   C1A17823   2.719  39.204   8.553
 6195POPC   D2A17824   2.786  39.196   8.253
 6195POPC   C3A17825   2.802  39.248   7.953
 6195POPC   C4A17826   2.756  39.201   7.653
 6195POPC   C1B17827   2.506  39.320   8.553
 6195POPC   C2B17828   2.509  39.377   8.253
 6195POPC   C3B17829   2.500  39.329   7.953
 6195POPC   C4B17830   2.575  39.319   7.653
 6196POPC   NC317831  34.591  29.877   9.453
 6196POPC   PO417832  34.610  29.967   9.153
 6196POPC   GL117833  34.618  29.882   8.853
 6196POPC   GL217834  34.469  29.863   8.853
 6196POPC   C1A17835  34.574  29.952   8.553
 6196POPC   D2A17836  34.528  29.913   8.253
 6196POPC   C3A17837  34.558  29.921   7.953
 6196POPC   C4A17838  34.617  29.900   7.653
 6196POPC   C1B17839  34.360  29.869   8.553
 6196POPC   C2B17840  34.340  29.913   8.253
 6196POPC   C3B17841  34.318  29.911   7.953
 6196POPC   C4B17842  34.298  29.896   7.653
 6197POPC   NC317843  14.366  42.346   9.453
 6197POPC   PO417844  14.452  42.342   9.153
 6197POPC   GL117845  14.385  42.362   8.853
 6197POPC   GL217846  14.532  42.399   8.853
 6197POPC   C1A17847  14.419  42.366   8.553
 6197POPC   D2A17848  14.358  42.308   8.253
 6197POPC   C3A17849  14.438  42.293   7.953
 6197POPC   C4A17850  14.378  42.300   7.653
 6197POPC   C1B17851  14.605  42.396   8.553
 6197POPC   C2B17852  14.698  42.394   8.253
 6197POPC   C3B17853  14.679  42.326   7.953
 6197POPC   C4B17854  14.673  42.402   7.653
 6198POPC   NC317855  22.199  33.824   9.453
 6198POPC   PO417856  22.169  33.790   9.153
 6198POPC   GL117857  22.121  33.831   8.853
 6198POPC   GL217858  22.218  33.661   8.853
 6198POPC   C1A17859  22.117  33.827   8.553
 6198POPC   D2A17860  22.164  33.838   8.253
 6198POPC   C3A17861  22.164  33.843   7.953
 6198POPC   C4A17862  22.170  33.830   7.653
 6198POPC   C1B17863  22.211  33.507   8.553
 6198POPC   C2B17864  22.234  33.577   8.253
 6198POPC   C3B17865  22.256  33.603   7.953
 6198POPC   C4B17866  22.193  33.521   7.653
 6199POPC   NC317867  43.077   0.399   9.453
 6199POPC   PO417868  43.124   0.399   9.153
 6199POPC   GL117869  43.091   0.472   8.853
 6199POPC   GL217870  43.201   0.369   8.853
 6199POPC   C1A17871  43.151   0.428   8.553
 6199POPC   D2A17872  43.109   0.463   8.253
 6199POPC   C3A17873  43.144   0.486   7.953
 6199POPC   C4A17874  43.144   0.403   7.653
 6199POPC   C1B17875  43.243   0.236   8.553
 6199POPC   C2B17876  43.210   0.209   8.253
 6199POPC   C3B17877  43.272   0.216   7.953
 6199POPC   C4B17878  43.259   0.205   7.653
 6200POPC   NC317879  30.688  12.056   9.453
 6200POPC   PO417880  30.711  12.104   9.153
 6200POPC   GL117881  30.726  12.062   8.853
 6200POPC   GL217882  30.610  12.202   8.853
 6200POPC   C1A17883  30.698  12.059   8.553
 6200POPC   D2A17884  30.737  12.030   8.253
 6200POPC   C3A17885  30.651  12.121   7.953
 6200POPC   C4A17886  30.745  12.101   7.653
 6200POPC   C1B17887  30.527  12.249   8.553
 6200POPC   C2B17888  30.582  12.319   8.253
 6200POPC   C3B17889  30.578  12.321   7.953
 6200POPC   C4B17890  30.550  12.266   7.653
 6201POPC   NC317891  14.360  30.723   9.453
 6201POPC   PO417892  14.413  30.714   9.153
 6201POPC   GL117893  14.379  30.674   8.853
 6201POPC   GL217894  14.433  30.544   8.853
 6201POPC   C1A17895  14.389  30.697   8.553
 6201POPC   D2A17896  14.396  30.691   8.253
 6201POPC   C3A17897  14.380  30.714   7.953
 6201POPC   C4A17898  14.376  30.740   7.653
 6201POPC   C1B17899  14.430  30.485   8.553
 6201POPC   C2B17900  14.367  30.485   8.253
 6201POPC   C3B17901  14.401  30.468   7.953
 6201POPC   C4B17902  14.384  30.454   7.653
 6202POPC   NC317903  38.432  43.118   9.453
 6202POPC   PO417904  38.414  43.133   9.153
 6202POPC   GL117905  38.483  43.082   8.853
 6202POPC   GL217906  38.422  43.173   8.853
 6202POPC   C1A17907  38.487  43.061   8.553
 6202POPC   D2A17908  38.502  43.080   8.253
 6202POPC   C3A17909  38.460  43.153   7.953
 6202POPC   C4A17910  38.471  43.112   7.653
 6202POPC   C1B17911  38.297  43.336   8.553
 6202POPC   C2B17912  38.306  43.318   8.253
 6202POPC   C3B17913  38.309  43.348   7.953
 6202POPC   C4B17914  38.306  43.355   7.653
 6203POPC   NC317915  10.533  14.392   9.453
 6203POPC   PO417916  10.550  14.405   9.153
 6203POPC   GL117917  10.574  14.366   8.853
 6203POPC   GL217918  10.412  14.479   8.853
 6203POPC   C1A17919  10.564  14.441   8.553
 6203POPC   D2A17920  10.499  14.372   8.253
 6203POPC   C3A17921  10.496  14.439   7.953
 6203POPC   C4A17922  10.519  14.378   7.653
 6203POPC   C1B17923  10.295  14.546   8.553
 6203POPC   C2B17924  10.331  14.553   8.253
 6203POPC   C3B17925  10.296  14.578   7.953
 6203POPC   C4B17926  10.361  14.581   7.653
 6204POPC   NC317927  33.025  25.257   9.453
 6204POPC   PO417928  33.019  25.272   9.153
 6204POPC   GL117929  33.046  25.258   8.853
 6204POPC   GL217930  32.975  25.328   8.853
 6204POPC   C1A17931  33.004  25.294   8.553
 6204POPC   D2A17932  32.978  25.268   8.253
 6204POPC   C3A17933  33.061  25.243   7.953
 6204POPC   C4A17934  33.009  25.243   7.653
 6204POPC   C1B17935  32.914  25.512   8.553
 6204POPC   C2B17936  32.918  25.465   8.253
 6204POPC   C3B17937  32.856  25.415   7.953
 6204POPC   C4B17938  32.874  25.467   7.653
 6205POPC   NC317939  43.883  13.655   9.453
 6205POPC   PO417940  43.925  13.585   9.153
 6205POPC   GL117941  43.886  13.655   8.853
 6205POPC   GL217942  43.837  13.766   8.853
 6205POPC   C1A17943  43.911  13.637   8.553
 6205POPC   D2A17944  43.927  13.586   8.253
 6205POPC   C3A17945  43.859  13.580   7.953
 6205POPC   C4A17946  43.867  13.664   7.653
 6205POPC   C1B17947  43.744  13.781   8.553
 6205POPC   C2B17948  43.683  13.797   8.253
 6205POPC   C3B17949  43.749  13.777   7.953
 6205POPC   C4B17950  43.761  13.779   7.653
 6206POPC   NC317951  13.664  30.674   9.453
 6206POPC   PO417952  13.664  30.654   9.153
 6206POPC   GL117953  13.664  30.689   8.853
 6206POPC   GL217954  13.746  30.797   8.853
 6206POPC   C1A17955  13.607  30.740   8.553
 6206POPC   D2A17956  13.660  30.676   8.253
 6206POPC   C3A17957  13.580  30.704   7.953
 6206POPC   C4A17958  13.602  30.738   7.653
 6206POPC   C1B17959  13.815  30.890   8.553
 6206POPC   C2B17960  13.853  30.883   8.253
 6206POPC   C3B17961  13.833  30.895   7.953
 6206POPC   C4B17962  13.868  30.869   7.653
 6207POPC   NC317963  39.272   6.669   9.453
 6207POPC   PO417964  39.250   6.610   9.153
 6207POPC   GL117965  39.228   6.602   8.853
 6207POPC   GL217966  39.124   6.639   8.853
 6207POPC   C1A17967  39.248   6.677   8.553
 6207POPC   D2A17968  39.211   6.629   8.253
 6207POPC   C3A17969  39.198   6.628   7.953
 6207POPC   C4A17970  39.206   6.691   7.653
 6207POPC   C1B17971  38.999   6.550   8.553
 6207POPC   C2B17972  38.951   6.520   8.253
 6207POPC   C3B17973  38.979   6.583   7.953
 6207POPC   C4B17974  39.008   6.530   7.653
 6208POPC   NC317975   8.986   9.009   9.453
 6208POPC   PO417976   8.977   9.006   9.153
 6208POPC   GL117977   9.015   8.949   8.853
 6208POPC   GL217978   8.978   8.879   8.853
 6208POPC   C1A17979   9.022   8.953   8.553
 6208POPC   D2A17980   9.010   8.950   8.253
 6208POPC   C3A17981   8.931   8.930   7.953
 6208POPC   C4A17982   8.984   8.976   7.653
 6208POPC   C1B17983   9.018   8.695   8.553
 6208POPC   C2B17984   9.012   8.770   8.253
 6208POPC   C3B17985   8.955   8.713   7.953
 6208POPC   C4B17986   9.000   8.738   7.653
 6209POPC   NC317987  17.494  16.686   9.453
 6209POPC   PO417988  17.548  16.742   9.153
 6209POPC   GL117989  17.524  16.746   8.853
 6209POPC   GL217990  17.661  16.734   8.853
 6209POPC   C1A17991  17.555  16.763   8.553
 6209POPC   D2A17992  17.523  16.720   8.253
 6209POPC   C3A17993  17.539  16.752   7.953
 6209POPC   C4A17994  17.538  16.711   7.653
 6209POPC   C1B17995  17.753  16.644   8.553
 6209POPC   C2B17996  17.783  16.660   8.253
 6209POPC   C3B17997  17.759  16.613   7.953
 6209POPC   C4B17998  17.743  16.685   7.653
 6210POPC   NC317999   0.427  34.591   9.453
 6210POPC   PO418000   0.469  34.598   9.153
 6210POPC   GL118001   0.440  34.536   8.853
 6210POPC   GL218002   0.474  34.666   8.853
 6210POPC   C1A18003   0.480  34.527   8.553
 6210POPC   D2A18004   0.465  34.579   8.253
 6210POPC   C3A18005   0.470  34.557   7.953
 6210POPC   C4A18006   0.389  34.621   7.653
 6210POPC   C1B18007   0.585  34.778   8.553
 6210POPC   C2B18008   0.627  34.770   8.253
 6210POPC   C3B18009   0.561  34.759   7.953
 6210POPC   C4B18010   0.587  34.782   7.653
 6211POPC   NC318011  39.988  31.438   9.453
 6211POPC   PO418012  39.988  31.477   9.153
 6211POPC   GL118013  39.973  31.473   8.853
 6211POPC   GL218014  39.926  31.516   8.853
 6211POPC   C1A18015  40.041  31.517   8.553
 6211POPC   D2A18016  39.977  31.492   8.253
 6211POPC   C3A18017  39.986  31.493   7.953
 6211POPC   C4A18018  39.998  31.519   7.653
 6211POPC   C1B18019  39.776  31.624   8.553
 6211POPC   C2B18020  39.837  31.607   8.253
 6211POPC   C3B18021  39.800  31.588   7.953
 6211POPC   C4B18022  39.795  31.573   7.653
 6212POPC   NC318023  10.500  27.612   9.453
 6212POPC   PO418024  10.511  27.629   9.153
 6212POPC   GL118025  10.499  27.578   8.853
 6212POPC   GL218026  10.502  27.702   8.853
 6212POPC   C1A18027  10.484  27.587   8.553
 6212POPC   D2A18028  10.518  27.587   8.253
 6212POPC   C3A18029  10.506  27.592   7.953
 6212POPC   C4A18030  10.523  27.607   7.653
 6212POPC   C1B18031  10.441  27.876   8.553
 6212POPC   C2B18032  10.480  27.830   8.253
 6212POPC   C3B18033  10.518  27.814   7.953
 6212POPC   C4B18034  10.474  27.845   7.653
 6213POPC   NC318035  44.670  39.256   9.453
 6213POPC   PO418036  44.701  39.198   9.153
 6213POPC   GL118037  44.669  39.265   8.853
 6213POPC   GL218038  44.509  39.133   8.853
 6213POPC   C1A18039  44.638  39.212   8.553
 6213POPC   D2A18040  44.705  39.245   8.253
 6213POPC   C3A18041  44.705  39.189   7.953
 6213POPC   C4A18042  44.658  39.226   7.653
 6213POPC   C1B18043  44.448  39.109   8.553
 6213POPC   C2B18044  44.455  39.092   8.253
 6213POPC   C3B18045  44.385  39.097   7.953
 6213POPC   C4B18046  44.417  39.097   7.653
 6214POPC   NC318047  23.751  17.520   9.453
 6214POPC   PO418048  23.694  17.493   9.153
 6214POPC   GL118049  23.732  17.538   8.853
 6214POPC   GL218050  23.783  17.640   8.853
 6214POPC   C1A18051  23.672  17.483   8.553
 6214POPC   D2A18052  23.709  17.519   8.253
 6214POPC   C3A18053  23.672  17.461   7.953
 6214POPC   C4A18054  23.693  17.545   7.653
 6214POPC   C1B18055  23.834  17.649   8.553
 6214POPC   C2B18056  23.871  17.694   8.253
 6214POPC   C3B18057  23.837  17.735   7.953
 6214POPC   C4B18058  23.862  17.740   7.653
 6215POPC   NC318059   1.998  33.029   9.453
 6215POPC   PO418060   1.989  33.026   9.153
 6215POPC   GL118061   1.981  32.989   8.853
 6215POPC   GL218062   2.038  33.161   8.853
 6215POPC   C1A18063   2.008  32.996   8.553
 6215POPC   D2A18064   2.001  33.039   8.253
 6215POPC   C3A18065   1.983  32.981   7.953
 6215POPC   C4A18066   2.038  33.019   7.653
 6215POPC   C1B18067   1.973  33.290   8.553
 6215POPC   C2B18068   1.997  33.302   8.253
 6215POPC   C3B18069   2.016  33.296   7.953
 6215POPC   C4B18070   2.058  33.282   7.653
 6216POPC   NC318071  14.438  10.503   9.453
 6216POPC   PO418072  14.447  10.571   9.153
 6216POPC   GL118073  14.439  10.504   8.853
 6216POPC   GL218074  14.269  10.551   8.853
 6216POPC   C1A18075  14.395  10.526   8.553
 6216POPC   D2A18076  14.380  10.527   8.253
 6216POPC   C3A18077  14.415  10.536   7.953
 6216POPC   C4A18078  14.377  10.555   7.653
 6216POPC   C1B18079  14.236  10.636   8.553
 6216POPC   C2B18080  14.243  10.668   8.253
 6216POPC   C3B18081  14.207  10.628   7.953
 6216POPC   C4B18082  14.151  10.662   7.653
 6217POPC   NC318083   5.902   4.365   9.453
 6217POPC   PO418084   5.850   4.333   9.153
 6217POPC   GL118085   5.843   4.312   8.853
 6217POPC   GL218086   5.790   4.159   8.853
 6217POPC   C1A18087   5.907   4.324   8.553
 6217POPC   D2A18088   5.849   4.329   8.253
 6217POPC   C3A18089   5.847   4.346   7.953
 6217POPC   C4A18090   5.868   4.341   7.653
 6217POPC   C1B18091   5.758   4.081   8.553
 6217POPC   C2B18092   5.771   4.136   8.253
 6217POPC   C3B18093   5.750   4.062   7.953
 6217POPC   C4B18094   5.792   4.079   7.653
 6218POPC   NC318095  19.094  26.860   9.453
 6218POPC   PO418096  19.053  26.847   9.153
 6218POPC   GL118097  19.043  26.796   8.853
 6218POPC   GL218098  19.025  26.671   8.853
 6218POPC   C1A18099  19.088  26.776   8.553
 6218POPC   D2A18100  19.041  26.804   8.253
 6218POPC   C3A18101  19.013  26.839   7.953
 6218POPC   C4A18102  19.086  26.855   7.653
 6218POPC   C1B18103  19.086  26.611   8.553
 6218POPC   C2B18104  19.076  26.536   8.253
 6218POPC   C3B18105  19.071  26.525   7.953
 6218POPC   C4B18106  19.086  26.558   7.653
 6219POPC   NC318107   8.984   4.365   9.453
 6219POPC   PO418108   9.003   4.353   9.153
 6219POPC   GL118109   8.930   4.285   8.853
 6219POPC   GL218110   9.130   4.240   8.853
 6219POPC   C1A18111   8.957   4.267   8.553
 6219POPC   D2A18112   8.930   4.290   8.253
 6219POPC   C3A18113   9.011   4.364   7.953
 6219POPC   C4A18114   8.954   4.315   7.653
 6219POPC   C1B18115   9.212   4.165   8.553
 6219POPC   C2B18116   9.234   4.159   8.253
 6219POPC   C3B18117   9.240   4.210   7.953
 6219POPC   C4B18118   9.235   4.229   7.653
 6220POPC   NC318119  26.843  17.462   9.453
 6220POPC   PO418120  26.818  17.488   9.153
 6220POPC   GL118121  26.847  17.526   8.853
 6220POPC   GL218122  26.691  17.613   8.853
 6220POPC   C1A18123  26.824  17.474   8.553
 6220POPC   D2A18124  26.860  17.551   8.253
 6220POPC   C3A18125  26.817  17.484   7.953
 6220POPC   C4A18126  26.830  17.503   7.653
 6220POPC   C1B18127  26.674  17.649   8.553
 6220POPC   C2B18128  26.616  17.718   8.253
 6220POPC   C3B18129  26.655  17.659   7.953
 6220POPC   C4B18130  26.690  17.703   7.653
 6221POPC   NC318131  15.982  12.847   9.453
 6221POPC   PO418132  15.923  12.804   9.153
 6221POPC   GL118133  15.931  12.861   8.853
 6221POPC   GL218134  16.038  12.787   8.853
 6221POPC   C1A18135  15.947  12.857   8.553
 6221POPC   D2A18136  15.990  12.810   8.253
 6221POPC   C3A18137  15.911  12.876   7.953
 6221POPC   C4A18138  15.928  12.807   7.653
 6221POPC   C1B18139  16.082  12.629   8.553
 6221POPC   C2B18140  16.075  12.685   8.253
 6221POPC   C3B18141  16.106  12.680   7.953
 6221POPC   C4B18142  16.122  12.699   7.653
 6222POPC   NC318143  22.199   3.586   9.453
 6222POPC   PO418144  22.164   3.544   9.153
 6222POPC   GL118145  22.126   3.581   8.853
 6222POPC   GL218146  22.147   3.712   8.853
 6222POPC   C1A18147  22.175   3.524   8.553
 6222POPC   D2A18148  22.211   3.566   8.253
 6222POPC   C3A18149  22.143   3.505   7.953
 6222POPC   C4A18150  22.157   3.535   7.653
 6222POPC   C1B18151  22.187   3.794   8.553
 6222POPC   C2B18152  22.192   3.742   8.253
 6222POPC   C3B18153  22.212   3.832   7.953
 6222POPC   C4B18154  22.213   3.830   7.653
 6223POPC   NC318155  29.104   3.502   9.453
 6223POPC   PO418156  29.144   3.544   9.153
 6223POPC   GL118157  29.119   3.511   8.853
 6223POPC   GL218158  29.259   3.510   8.853
 6223POPC   C1A18159  29.182   3.590   8.553
 6223POPC   D2A18160  29.160   3.519   8.253
 6223POPC   C3A18161  29.121   3.564   7.953
 6223POPC   C4A18162  29.100   3.544   7.653
 6223POPC   C1B18163  29.361   3.500   8.553
 6223POPC   C2B18164  29.399   3.463   8.253
 6223POPC   C3B18165  29.363   3.454   7.953
 6223POPC   C4B18166  29.396   3.485   7.653
 6224POPC   NC318167  15.229  42.292   9.453
 6224POPC   PO418168  15.156  42.357   9.153
 6224POPC   GL118169  15.183  42.381   8.853
 6224POPC   GL218170  15.307  42.280   8.853
 6224POPC   C1A18171  15.203  42.373   8.553
 6224POPC   D2A18172  15.185  42.319   8.253
 6224POPC   C3A18173  15.190  42.364   7.953
 6224POPC   C4A18174  15.175  42.327   7.653
 6224POPC   C1B18175  15.383  42.322   8.553
 6224POPC   C2B18176  15.403  42.277   8.253
 6224POPC   C3B18177  15.410  42.321   7.953
 6224POPC   C4B18178  15.380  42.310   7.653
 6225POPC   NC318179  35.328  40.745   9.453
 6225POPC   PO418180  35.395  40.741   9.153
 6225POPC   GL118181  35.384  40.824   8.853
 6225POPC   GL218182  35.457  40.920   8.853
 6225POPC   C1A18183  35.323  40.747   8.553
 6225POPC   D2A18184  35.328  40.824   8.253
 6225POPC   C3A18185  35.393  40.824   7.953
 6225POPC   C4A18186  35.343  40.783   7.653
 6225POPC   C1B18187  35.446  41.005   8.553
 6225POPC   C2B18188  35.494  41.020   8.253
 6225POPC   C3B18189  35.500  41.034   7.953
 6225POPC   C4B18190  35.442  40.972   7.653
 6226POPC   NC318191  23.665   0.447   9.453
 6226POPC   PO418192  23.719   0.458   9.153
 6226POPC   GL118193  23.675   0.455   8.853
 6226POPC   GL218194  23.742   0.510   8.853
 6226POPC   C1A18195  23.729   0.435   8.553
 6226POPC   D2A18196  23.700   0.419   8.253
 6226POPC   C3A18197  23.674   0.422   7.953
 6226POPC   C4A18198  23.693   0.397   7.653
 6226POPC   C1B18199  23.798   0.661   8.553
 6226POPC   C2B18200  23.819   0.680   8.253
 6226POPC   C3B18201  23.763   0.641   7.953
 6226POPC   C4B18202  23.832   0.650   7.653
 6227POPC   NC318203   7.389  36.150   9.453
 6227POPC   PO418204   7.450  36.122   9.153
 6227POPC   GL118205   7.468  36.136   8.853
 6227POPC   GL218206   7.461  36.171   8.853
 6227POPC   C1A18207   7.413  36.115   8.553
 6227POPC   D2A18208   7.377  36.108   8.253
 6227POPC   C3A18209   7.418  36.108   7.953
 6227POPC   C4A18210   7.399  36.104   7.653
 6227POPC   C1B18211   7.549  36.273   8.553
 6227POPC   C2B18212   7.629  36.255   8.253
 6227POPC   C3B18213   7.622  36.281   7.953
 6227POPC   C4B18214   7.628  36.305   7.653
 6228POPC   NC318215  17.539   7.436   9.453
 6228POPC   PO418216  17.474   7.437   9.153
 6228POPC   GL118217  17.470   7.386   8.853
 6228POPC   GL218218  17.561   7.334   8.853
 6228POPC   C1A18219  17.545   7.433   8.553
 6228POPC   D2A18220  17.466   7.450   8.253
 6228POPC   C3A18221  17.466   7.467   7.953
 6228POPC   C4A18222  17.530   7.392   7.653
 6228POPC   C1B18223  17.485   7.165   8.553
 6228POPC   C2B18224  17.506   7.145   8.253
 6228POPC   C3B18225  17.536   7.197   7.953
 6228POPC   C4B18226  17.553   7.220   7.653
 6229POPC   NC318227  25.257  40.030   9.453
 6229POPC   PO418228  25.224  40.019   9.153
 6229POPC   GL118229  25.310  40.043   8.853
 6229POPC   GL218230  25.311  39.859   8.853
 6229POPC   C1A18231  25.260  39.976   8.553
 6229POPC   D2A18232  25.228  40.052   8.253
 6229POPC   C3A18233  25.302  40.043   7.953
 6229POPC   C4A18234  25.256  40.041   7.653
 6229POPC   C1B18235  25.341  39.807   8.553
 6229POPC   C2B18236  25.300  39.813   8.253
 6229POPC   C3B18237  25.299  39.780   7.953
 6229POPC   C4B18238  25.373  39.773   7.653
 6230POPC   NC318239  18.285  27.586   9.453
 6230POPC   PO418240  18.275  27.621   9.153
 6230POPC   GL118241  18.329  27.596   8.853
 6230POPC   GL218242  18.319  27.722   8.853
 6230POPC   C1A18243  18.268  27.544   8.553
 6230POPC   D2A18244  18.233  27.575   8.253
 6230POPC   C3A18245  18.275  27.620   7.953
 6230POPC   C4A18246  18.332  27.581   7.653
 6230POPC   C1B18247  18.446  27.806   8.553
 6230POPC   C2B18248  18.451  27.758   8.253
 6230POPC   C3B18249  18.409  27.795   7.953
 6230POPC   C4B18250  18.451  27.821   7.653
 6231POPC   NC318251  27.555   2.754   9.453
 6231POPC   PO418252  27.570   2.764   9.153
 6231POPC   GL118253  27.558   2.761   8.853
 6231POPC   GL218254  27.697   2.785   8.853
 6231POPC   C1A18255  27.633   2.764   8.553
 6231POPC   D2A18256  27.611   2.781   8.253
 6231POPC   C3A18257  27.595   2.733   7.953
 6231POPC   C4A18258  27.613   2.788   7.653
 6231POPC   C1B18259  27.806   2.866   8.553
 6231POPC   C2B18260  27.793   2.810   8.253
 6231POPC   C3B18261  27.795   2.790   7.953
 6231POPC   C4B18262  27.851   2.859   7.653
 6232POPC   NC318263   6.629  19.045   9.453
 6232POPC   PO418264   6.607  19.055   9.153
 6232POPC   GL118265   6.623  19.104   8.853
 6232POPC   GL218266   6.497  19.026   8.853
 6232POPC   C1A18267   6.602  19.041   8.553
 6232POPC   D2A18268   6.617  19.107   8.253
 6232POPC   C3A18269   6.620  19.105   7.953
 6232POPC   C4A18270   6.636  19.088   7.653
 6232POPC   C1B18271   6.435  18.996   8.553
 6232POPC   C2B18272   6.353  19.018   8.253
 6232POPC   C3B18273   6.383  19.017   7.953
 6232POPC   C4B18274   6.427  18.993   7.653
 6233POPC   NC318275  35.304  37.679   9.453
 6233POPC   PO418276  35.380  37.695   9.153
 6233POPC   GL118277  35.371  37.664   8.853
 6233POPC   GL218278  35.350  37.763   8.853
 6233POPC   C1A18279  35.335  37.705   8.553
 6233POPC   D2A18280  35.303  37.729   8.253
 6233POPC   C3A18281  35.366  37.682   7.953
 6233POPC   C4A18282  35.387  37.668   7.653
 6233POPC   C1B18283  35.468  37.869   8.553
 6233POPC   C2B18284  35.400  37.893   8.253
 6233POPC   C3B18285  35.414  37.876   7.953
 6233POPC   C4B18286  35.412  37.870   7.653
 6234POPC   NC318287  17.522   1.972   9.453
 6234POPC   PO418288  17.478   2.009   9.153
 6234POPC   GL118289  17.524   2.022   8.853
 6234POPC   GL218290  17.381   2.083   8.853
 6234POPC   C1A18291  17.472   1.997   8.553
 6234POPC   D2A18292  17.552   2.000   8.253
 6234POPC   C3A18293  17.515   2.028   7.953
 6234POPC   C4A18294  17.463   1.978   7.653
 6234POPC   C1B18295  17.324   2.166   8.553
 6234POPC   C2B18296  17.365   2.155   8.253
 6234POPC   C3B18297  17.322   2.129   7.953
 6234POPC   C4B18298  17.293   2.200   7.653
 6235POPC   NC318299  22.117  37.664   9.453
 6235POPC   PO418300  22.190  37.664   9.153
 6235POPC   GL118301  22.140  37.712   8.853
 6235POPC   GL218302  22.221  37.541   8.853
 6235POPC   C1A18303  22.167  37.727   8.553
 6235POPC   D2A18304  22.202  37.711   8.253
 6235POPC   C3A18305  22.128  37.670   7.953
 6235POPC   C4A18306  22.142  37.684   7.653
 6235POPC   C1B18307  22.294  37.493   8.553
 6235POPC   C2B18308  22.370  37.510   8.253
 6235POPC   C3B18309  22.371  37.537   7.953
 6235POPC   C4B18310  22.344  37.528   7.653
 6236POPC   NC318311   9.019  36.872   9.453
 6236POPC   PO418312   9.022  36.892   9.153
 6236POPC   GL118313   8.942  36.909   8.853
 6236POPC   GL218314   9.116  36.938   8.853
 6236POPC   C1A18315   9.004  36.936   8.553
 6236POPC   D2A18316   8.956  36.875   8.253
 6236POPC   C3A18317   9.009  36.880   7.953
 6236POPC   C4A18318   8.929  36.907   7.653
 6236POPC   C1B18319   9.196  37.009   8.553
 6236POPC   C2B18320   9.192  37.080   8.253
 6236POPC   C3B18321   9.180  37.055   7.953
 6236POPC   C4B18322   9.153  36.996   7.653
 6237POPC   NC318323  43.866   3.520   9.453
 6237POPC   PO418324  43.886   3.506   9.153
 6237POPC   GL118325  43.904   3.542   8.853
 6237POPC   GL218326  43.960   3.529   8.853
 6237POPC   C1A18327  43.872   3.515   8.553
 6237POPC   D2A18328  43.873   3.554   8.253
 6237POPC   C3A18329  43.850   3.581   7.953
 6237POPC   C4A18330  43.874   3.523   7.653
 6237POPC   C1B18331  44.170   3.580   8.553
 6237POPC   C2B18332  44.085   3.603   8.253
 6237POPC   C3B18333  44.171   3.597   7.953
 6237POPC   C4B18334  44.152   3.609   7.653
 6238POPC   NC318335  34.541  13.616   9.453
 6238POPC   PO418336  34.542  13.582   9.153
 6238POPC   GL118337  34.616  13.668   8.853
 6238POPC   GL218338  34.441  13.612   8.853
 6238POPC   C1A18339  34.568  13.649   8.553
 6238POPC   D2A18340  34.555  13.674   8.253
 6238POPC   C3A18341  34.574  13.596   7.953
 6238POPC   C4A18342  34.550  13.650   7.653
 6238POPC   C1B18343  34.352  13.643   8.553
 6238POPC   C2B18344  34.362  13.634   8.253
 6238POPC   C3B18345  34.320  13.730   7.953
 6238POPC   C4B18346  34.368  13.678   7.653
 6239POPC   NC318347  20.564  38.499   9.453
 6239POPC   PO418348  20.629  38.453   9.153
 6239POPC   GL118349  20.628  38.412   8.853
 6239POPC   GL218350  20.664  38.570   8.853
 6239POPC   C1A18351  20.576  38.458   8.553
 6239POPC   D2A18352  20.581  38.411   8.253
 6239POPC   C3A18353  20.590  38.409   7.953
 6239POPC   C4A18354  20.562  38.459   7.653
 6239POPC   C1B18355  20.763  38.641   8.553
 6239POPC   C2B18356  20.753  38.702   8.253
 6239POPC   C3B18357  20.730  38.718   7.953
 6239POPC   C4B18358  20.678  38.650   7.653
 6240POPC   NC318359  38.449   1.217   9.453
 6240POPC   PO418360  38.502   1.257   9.153
 6240POPC   GL118361  38.477   1.261   8.853
 6240POPC   GL218362  38.331   1.145   8.853
 6240POPC   C1A18363  38.485   1.221   8.553
 6240POPC   D2A18364  38.436   1.214   8.253
 6240POPC   C3A18365  38.419   1.234   7.953
 6240POPC   C4A18366  38.420   1.256   7.653
 6240POPC   C1B18367  38.183   1.108   8.553
 6240POPC   C2B18368  38.217   1.119   8.253
 6240POPC   C3B18369  38.228   1.146   7.953
 6240POPC   C4B18370  38.231   1.144   7.653
 6241POPC   NC318371   8.999  42.371   9.453
 6241POPC   PO418372   8.994  42.304   9.153
 6241POPC   GL118373   8.962  42.303   8.853
 6241POPC   GL218374   8.831  42.405   8.853
 6241POPC   C1A18375   8.999  42.314   8.553
 6241POPC   D2A18376   8.999  42.383   8.253
 6241POPC   C3A18377   8.991  42.311   7.953
 6241POPC   C4A18378   8.962  42.292   7.653
 6241POPC   C1B18379   8.754  42.452   8.553
 6241POPC   C2B18380   8.721  42.478   8.253
 6241POPC   C3B18381   8.718  42.437   7.953
 6241POPC   C4B18382   8.721  42.459   7.653
 6242POPC   NC318383   3.502  36.098   9.453
 6242POPC   PO418384   3.537  36.174   9.153
 6242POPC   GL118385   3.591  36.106   8.853
 6242POPC   GL218386   3.702  36.042   8.853
 6242POPC   C1A18387   3.515  36.152   8.553
 6242POPC   D2A18388   3.560  36.164   8.253
 6242POPC   C3A18389   3.525  36.103   7.953
 6242POPC   C4A18390   3.564  36.176   7.653
 6242POPC   C1B18391   3.771  36.078   8.553
 6242POPC   C2B18392   3.732  36.065   8.253
 6242POPC   C3B18393   3.749  36.095   7.953
 6242POPC   C4B18394   3.730  36.050   7.653
 6243POPC   NC318395   8.950   5.063   9.453
 6243POPC   PO418396   8.968   5.093   9.153
 6243POPC   GL118397   8.954   5.071   8.853
 6243POPC   GL218398   9.094   5.179   8.853
 6243POPC   C1A18399   9.020   5.068   8.553
 6243POPC   D2A18400   8.999   5.055   8.253
 6243POPC   C3A18401   8.982   5.115   7.953
 6243POPC   C4A18402   8.978   5.071   7.653
 6243POPC   C1B18403   9.171   5.288   8.553
 6243POPC   C2B18404   9.210   5.251   8.253
 6243POPC   C3B18405   9.178   5.286   7.953
 6243POPC   C4B18406   9.190   5.213   7.653
 6244POPC   NC318407  43.080  16.755   9.453
 6244POPC   PO418408  43.074  16.708   9.153
 6244POPC   GL118409  43.117  16.727   8.853
 6244POPC   GL218410  43.149  16.829   8.853
 6244POPC   C1A18411  43.105  16.701   8.553
 6244POPC   D2A18412  43.155  16.730   8.253
 6244POPC   C3A18413  43.109  16.780   7.953
 6244POPC   C4A18414  43.128  16.709   7.653
 6244POPC   C1B18415  43.113  16.964   8.553
 6244POPC   C2B18416  43.043  16.985   8.253
 6244POPC   C3B18417  43.121  16.943   7.953
 6244POPC   C4B18418  43.083  16.982   7.653
 6245POPC   NC318419  29.924  22.172   9.453
 6245POPC   PO418420  29.930  22.131   9.153
 6245POPC   GL118421  29.969  22.199   8.853
 6245POPC   GL218422  29.890  22.292   8.853
 6245POPC   C1A18423  29.944  22.119   8.553
 6245POPC   D2A18424  29.966  22.175   8.253
 6245POPC   C3A18425  29.889  22.175   7.953
 6245POPC   C4A18426  29.930  22.114   7.653
 6245POPC   C1B18427  29.798  22.369   8.553
 6245POPC   C2B18428  29.834  22.421   8.253
 6245POPC   C3B18429  29.813  22.373   7.953
 6245POPC   C4B18430  29.874  22.409   7.653
 6246POPC   NC318431   8.172  15.908   9.453
 6246POPC   PO418432   8.238  15.943   9.153
 6246POPC   GL118433   8.242  15.978   8.853
 6246POPC   GL218434   8.102  15.999   8.853
 6246POPC   C1A18435   8.235  15.928   8.553
 6246POPC   D2A18436   8.194  15.982   8.253
 6246POPC   C3A18437   8.205  15.992   7.953
 6246POPC   C4A18438   8.159  15.947   7.653
 6246POPC   C1B18439   7.931  16.006   8.553
 6246POPC   C2B18440   7.966  16.009   8.253
 6246POPC   C3B18441   7.968  15.984   7.953
 6246POPC   C4B18442   7.986  16.014   7.653
 6247POPC   NC318443  20.575  35.324   9.453
 6247POPC   PO418444  20.641  35.315   9.153
 6247POPC   GL118445  20.659  35.375   8.853
 6247POPC   GL218446  20.672  35.196   8.853
 6247POPC   C1A18447  20.615  35.312   8.553
 6247POPC   D2A18448  20.659  35.386   8.253
 6247POPC   C3A18449  20.591  35.326   7.953
 6247POPC   C4A18450  20.587  35.319   7.653
 6247POPC   C1B18451  20.706  35.162   8.553
 6247POPC   C2B18452  20.685  35.113   8.253
 6247POPC   C3B18453  20.674  35.166   7.953
 6247POPC   C4B18454  20.740  35.155   7.653
 6248POPC   NC318455  28.362  13.664   9.453
 6248POPC   PO418456  28.321  13.674   9.153
 6248POPC   GL118457  28.406  13.624   8.853
 6248POPC   GL218458  28.465  13.533   8.853
 6248POPC   C1A18459  28.350  13.650   8.553
 6248POPC   D2A18460  28.353  13.640   8.253
 6248POPC   C3A18461  28.384  13.619   7.953
 6248POPC   C4A18462  28.398  13.618   7.653
 6248POPC   C1B18463  28.477  13.425   8.553
 6248POPC   C2B18464  28.452  13.379   8.253
 6248POPC   C3B18465  28.454  13.441   7.953
 6248POPC   C4B18466  28.474  13.400   7.653
 6249POPC   NC318467   7.374  16.768   9.453
 6249POPC   PO418468   7.372  16.735   9.153
 6249POPC   GL118469   7.444  16.754   8.853
 6249POPC   GL218470   7.507  16.797   8.853
 6249POPC   C1A18471   7.439  16.709   8.553
 6249POPC   D2A18472   7.454  16.750   8.253
 6249POPC   C3A18473   7.391  16.770   7.953
 6249POPC   C4A18474   7.399  16.765   7.653
 6249POPC   C1B18475   7.573  16.935   8.553
 6249POPC   C2B18476   7.514  16.949   8.253
 6249POPC   C3B18477   7.555  16.986   7.953
 6249POPC   C4B18478   7.561  16.960   7.653
 6250POPC   NC318479  28.378  36.876   9.453
 6250POPC   PO418480  28.338  36.943   9.153
 6250POPC   GL118481  28.388  36.907   8.853
 6250POPC   GL218482  28.300  36.825   8.853
 6250POPC   C1A18483  28.352  36.930   8.553
 6250POPC   D2A18484  28.411  36.931   8.253
 6250POPC   C3A18485  28.419  36.878   7.953
 6250POPC   C4A18486  28.402  36.918   7.653
 6250POPC   C1B18487  28.163  36.777   8.553
 6250POPC   C2B18488  28.163  36.772   8.253
 6250POPC   C3B18489  28.146  36.837   7.953
 6250POPC   C4B18490  28.172  36.793   7.653
 6251POPC   NC318491   5.895  11.258   9.453
 6251POPC   PO418492   5.820  11.285   9.153
 6251POPC   GL118493   5.840  11.306   8.853
 6251POPC   GL218494   5.875  11.423   8.853
 6251POPC   C1A18495   5.848  11.294   8.553
 6251POPC   D2A18496   5.882  11.269   8.253
 6251POPC   C3A18497   5.827  11.284   7.953
 6251POPC   C4A18498   5.881  11.282   7.653
 6251POPC   C1B18499   5.917  11.574   8.553
 6251POPC   C2B18500   5.898  11.511   8.253
 6251POPC   C3B18501   5.924  11.534   7.953
 6251POPC   C4B18502   5.898  11.550   7.653
 6252POPC   NC318503  29.136  39.207   9.453
 6252POPC   PO418504  29.103  39.242   9.153
 6252POPC   GL118505  29.121  39.236   8.853
 6252POPC   GL218506  29.159  39.366   8.853
 6252POPC   C1A18507  29.175  39.208   8.553
 6252POPC   D2A18508  29.121  39.211   8.253
 6252POPC   C3A18509  29.157  39.270   7.953
 6252POPC   C4A18510  29.157  39.223   7.653
 6252POPC   C1B18511  29.182  39.499   8.553
 6252POPC   C2B18512  29.200  39.440   8.253
 6252POPC   C3B18513  29.121  39.494   7.953
 6252POPC   C4B18514  29.155  39.516   7.653
 6253POPC   NC318515  13.660   9.787   9.453
 6253POPC   PO418516  13.610   9.761   9.153
 6253POPC   GL118517  13.608   9.795   8.853
 6253POPC   GL218518  13.732   9.724   8.853
 6253POPC   C1A18519  13.658   9.747   8.553
 6253POPC   D2A18520  13.608   9.723   8.253
 6253POPC   C3A18521  13.651   9.730   7.953
 6253POPC   C4A18522  13.633   9.774   7.653
 6253POPC   C1B18523  13.806   9.644   8.553
 6253POPC   C2B18524  13.814   9.569   8.253
 6253POPC   C3B18525  13.844   9.600   7.953
 6253POPC   C4B18526  13.784   9.611   7.653
 6254POPC   NC318527  22.174  28.334   9.453
 6254POPC   PO418528  22.188  28.327   9.153
 6254POPC   GL118529  22.115  28.364   8.853
 6254POPC   GL218530  22.118  28.497   8.853
 6254POPC   C1A18531  22.150  28.351   8.553
 6254POPC   D2A18532  22.185  28.320   8.253
 6254POPC   C3A18533  22.152  28.365   7.953
 6254POPC   C4A18534  22.186  28.405   7.653
 6254POPC   C1B18535  22.010  28.601   8.553
 6254POPC   C2B18536  22.028  28.569   8.253
 6254POPC   C3B18537  22.071  28.562   7.953
 6254POPC   C4B18538  22.062  28.564   7.653
 6255POPC   NC318539  44.614  30.742   9.453
 6255POPC   PO418540  44.679  30.715   9.153
 6255POPC   GL118541  44.681  30.728   8.853
 6255POPC   GL218542  44.610  30.617   8.853
 6255POPC   C1A18543  44.685  30.735   8.553
 6255POPC   D2A18544  44.661  30.680   8.253
 6255POPC   C3A18545  44.659  30.712   7.953
 6255POPC   C4A18546  44.653  30.650   7.653
 6255POPC   C1B18547  44.534  30.438   8.553
 6255POPC   C2B18548  44.580  30.435   8.253
 6255POPC   C3B18549  44.533  30.463   7.953
 6255POPC   C4B18550  44.609  30.444   7.653
 6256POPC   NC318551  38.491  22.897   9.453
 6256POPC   PO418552  38.443  22.932   9.153
 6256POPC   GL118553  38.434  22.892   8.853
 6256POPC   GL218554  38.529  22.885   8.853
 6256POPC   C1A18555  38.473  22.940   8.553
 6256POPC   D2A18556  38.459  22.908   8.253
 6256POPC   C3A18557  38.420  22.905   7.953
 6256POPC   C4A18558  38.487  22.967   7.653
 6256POPC   C1B18559  38.668  22.892   8.553
 6256POPC   C2B18560  38.674  22.915   8.253
 6256POPC   C3B18561  38.732  22.870   7.953
 6256POPC   C4B18562  38.705  22.907   7.653
 6257POPC   NC318563  19.864  30.733   9.453
 6257POPC   PO418564  19.819  30.704   9.153
 6257POPC   GL118565  19.869  30.668   8.853
 6257POPC   GL218566  19.940  30.629   8.853
 6257POPC   C1A18567  19.828  30.740   8.553
 6257POPC   D2A18568  19.793  30.671   8.253
 6257POPC   C3A18569  19.879  30.659   7.953
 6257POPC   C4A18570  19.878  30.694   7.653
 6257POPC   C1B18571  20.046  30.599   8.553
 6257POPC   C2B18572  20.027  30.631   8.253
 6257POPC   C3B18573  20.090  30.597   7.953
 6257POPC   C4B18574  20.014  30.616   7.653
 6258POPC   NC318575  11.287  26.061   9.453
 6258POPC   PO418576  11.263  26.057   9.153
 6258POPC   GL118577  11.321  26.050   8.853
 6258POPC   GL218578  11.247  26.156   8.853
 6258POPC   C1A18579  11.312  26.043   8.553
 6258POPC   D2A18580  11.312  26.021   8.253
 6258POPC   C3A18581  11.311  25.993   7.953
 6258POPC   C4A18582  11.346  26.024   7.653
 6258POPC   C1B18583  11.293  26.270   8.553
 6258POPC   C2B18584  11.335  26.298   8.253
 6258POPC   C3B18585  11.299  26.334   7.953
 6258POPC   C4B18586  11.343  26.316   7.653
 6259POPC   NC318587  15.141  16.773   9.453
 6259POPC   PO418588  15.209  16.772   9.153
 6259POPC   GL118589  15.166  16.740   8.853
 6259POPC   GL218590  15.094  16.872   8.853
 6259POPC   C1A18591  15.216  16.694   8.553
 6259POPC   D2A18592  15.197  16.755   8.253
 6259POPC   C3A18593  15.151  16.731   7.953
 6259POPC   C4A18594  15.195  16.727   7.653
 6259POPC   C1B18595  15.029  16.962   8.553
 6259POPC   C2B18596  15.052  16.940   8.253
 6259POPC   C3B18597  15.102  16.949   7.953
 6259POPC   C4B18598  15.067  16.928   7.653
 6260POPC   NC318599  29.156   0.422   9.453
 6260POPC   PO418600  29.131   0.453   9.153
 6260POPC   GL118601  29.125   0.401   8.853
 6260POPC   GL218602  29.005   0.461   8.853
 6260POPC   C1A18603  29.103   0.429   8.553
 6260POPC   D2A18604  29.121   0.465   8.253
 6260POPC   C3A18605  29.146   0.389   7.953
 6260POPC   C4A18606  29.189   0.396   7.653
 6260POPC   C1B18607  28.890   0.433   8.553
 6260POPC   C2B18608  28.910   0.413   8.253
 6260POPC   C3B18609  28.900   0.410   7.953
 6260POPC   C4B18610  28.920   0.365   7.653
 6261POPC   NC318611  20.633   1.170   9.453
 6261POPC   PO418612  20.614   1.250   9.153
 6261POPC   GL118613  20.621   1.218   8.853
 6261POPC   GL218614  20.554   1.071   8.853
 6261POPC   C1A18615  20.614   1.178   8.553
 6261POPC   D2A18616  20.595   1.202   8.253
 6261POPC   C3A18617  20.605   1.204   7.953
 6261POPC   C4A18618  20.639   1.232   7.653
 6261POPC   C1B18619  20.609   0.978   8.553
 6261POPC   C2B18620  20.521   0.938   8.253
 6261POPC   C3B18621  20.533   0.961   7.953
 6261POPC   C4B18622  20.568   0.925   7.653
 6262POPC   NC318623  16.729  14.432   9.453
 6262POPC   PO418624  16.721  14.430   9.153
 6262POPC   GL118625  16.770  14.378   8.853
 6262POPC   GL218626  16.652  14.461   8.853
 6262POPC   C1A18627  16.740  14.445   8.553
 6262POPC   D2A18628  16.684  14.382   8.253
 6262POPC   C3A18629  16.766  14.436   7.953
 6262POPC   C4A18630  16.771  14.376   7.653
 6262POPC   C1B18631  16.567  14.575   8.553
 6262POPC   C2B18632  16.550  14.516   8.253
 6262POPC   C3B18633  16.548  14.588   7.953
 6262POPC   C4B18634  16.513  14.525   7.653
 6263POPC   NC318635  39.233   2.027   9.453
 6263POPC   PO418636  39.223   2.007   9.153
 6263POPC   GL118637  39.210   1.968   8.853
 6263POPC   GL218638  39.130   1.982   8.853
 6263POPC   C1A18639  39.238   1.949   8.553
 6263POPC   D2A18640  39.238   2.016   8.253
 6263POPC   C3A18641  39.204   1.964   7.953
 6263POPC   C4A18642  39.188   2.016   7.653
 6263POPC   C1B18643  39.000   1.981   8.553
 6263POPC   C2B18644  38.934   2.024   8.253
 6263POPC   C3B18645  39.030   2.015   7.953
 6263POPC   C4B18646  38.969   2.052   7.653
 6264POPC   NC318647   4.331  10.552   9.453
 6264POPC   PO418648   4.356  10.560   9.153
 6264POPC   GL118649   4.323  10.500   8.853
 6264POPC   GL218650   4.356  10.597   8.853
 6264POPC   C1A18651   4.281  10.547   8.553
 6264POPC   D2A18652   4.307  10.545   8.253
 6264POPC   C3A18653   4.307  10.484   7.953
 6264POPC   C4A18654   4.337  10.571   7.653
 6264POPC   C1B18655   4.457  10.689   8.553
 6264POPC   C2B18656   4.475  10.712   8.253
 6264POPC   C3B18657   4.421  10.722   7.953
 6264POPC   C4B18658   4.504  10.763   7.653
 6265POPC   NC318659  12.836  17.464   9.453
 6265POPC   PO418660  12.830  17.479   9.153
 6265POPC   GL118661  12.821  17.556   8.853
 6265POPC   GL218662  12.765  17.517   8.853
 6265POPC   C1A18663  12.882  17.471   8.553
 6265POPC   D2A18664  12.876  17.527   8.253
 6265POPC   C3A18665  12.901  17.470   7.953
 6265POPC   C4A18666  12.894  17.491   7.653
 6265POPC   C1B18667  12.565  17.516   8.553
 6265POPC   C2B18668  12.645  17.496   8.253
 6265POPC   C3B18669  12.620  17.536   7.953
 6265POPC   C4B18670  12.599  17.500   7.653
 6266POPC   NC318671  44.688   4.299   9.453
 6266POPC   PO418672  44.659   4.331   9.153
 6266POPC   GL118673  44.710   4.279   8.853
 6266POPC   GL218674  44.750   4.291   8.853
 6266POPC   C1A18675  44.639   4.341   8.553
 6266POPC   D2A18676  44.628   4.286   8.253
 6266POPC   C3A18677  44.648   4.294   7.953
 6266POPC   C4A18678  44.658   4.286   7.653
 6266POPC   C1B18679  44.875   4.289   8.553
 6266POPC   C2B18680  44.935   4.242   8.253
 6266POPC   C3B18681  44.948   4.218   7.953
 6266POPC   C4B18682  44.882   4.281   7.653
 6267POPC   NC318683   3.549  19.865   9.453
 6267POPC   PO418684   3.517  19.810   9.153
 6267POPC   GL118685   3.501  19.824   8.853
 6267POPC   GL218686   3.461  19.875   8.853
 6267POPC   C1A18687   3.511  19.870   8.553
 6267POPC   D2A18688   3.562  19.883   8.253
 6267POPC   C3A18689   3.591  19.848   7.953
 6267POPC   C4A18690   3.565  19.811   7.653
 6267POPC   C1B18691   3.266  19.804   8.553
 6267POPC   C2B18692   3.281  19.815   8.253
 6267POPC   C3B18693   3.338  19.786   7.953
 6267POPC   C4B18694   3.341  19.792   7.653
 6268POPC   NC318695  43.103  31.438   9.453
 6268POPC   PO418696  43.098  31.462   9.153
 6268POPC   GL118697  43.083  31.478   8.853
 6268POPC   GL218698  43.160  31.355   8.853
 6268POPC   C1A18699  43.149  31.456   8.553
 6268POPC   D2A18700  43.149  31.458   8.253
 6268POPC   C3A18701  43.133  31.467   7.953
 6268POPC   C4A18702  43.128  31.439   7.653
 6268POPC   C1B18703  43.122  31.179   8.553
 6268POPC   C2B18704  43.152  31.215   8.253
 6268POPC   C3B18705  43.105  31.252   7.953
 6268POPC   C4B18706  43.137  31.233   7.653
 6269POPC   NC318707  35.305  30.743   9.453
 6269POPC   PO418708  35.389  30.668   9.153
 6269POPC   GL118709  35.375  30.667   8.853
 6269POPC   GL218710  35.425  30.644   8.853
 6269POPC   C1A18711  35.368  30.686   8.553
 6269POPC   D2A18712  35.400  30.744   8.253
 6269POPC   C3A18713  35.360  30.740   7.953
 6269POPC   C4A18714  35.332  30.734   7.653
 6269POPC   C1B18715  35.495  30.482   8.553
 6269POPC   C2B18716  35.546  30.538   8.253
 6269POPC   C3B18717  35.544  30.516   7.953
 6269POPC   C4B18718  35.514  30.521   7.653
 6270POPC   NC318719  12.066   5.124   9.453
 6270POPC   PO418720  12.114   5.135   9.153
 6270POPC   GL118721  12.056   5.066   8.853
 6270POPC   GL218722  12.056   5.186   8.853
 6270POPC   C1A18723  12.034   5.117   8.553
 6270POPC   D2A18724  12.115   5.101   8.253
 6270POPC   C3A18725  12.072   5.078   7.953
 6270POPC   C4A18726  12.088   5.059   7.653
 6270POPC   C1B18727  11.979   5.307   8.553
 6270POPC   C2B18728  12.032   5.347   8.253
 6270POPC   C3B18729  11.997   5.311   7.953
 6270POPC   C4B18730  12.033   5.368   7.653
 6271POPC   NC318731  33.059  10.560   9.453
 6271POPC   PO418732  32.981  10.483   9.153
 6271POPC   GL118733  33.071  10.554   8.853
 6271POPC   GL218734  33.134  10.547   8.853
 6271POPC   C1A18735  32.982  10.558   8.553
 6271POPC   D2A18736  33.028  10.541   8.253
 6271POPC   C3A18737  33.014  10.560   7.953
 6271POPC   C4A18738  33.010  10.516   7.653
 6271POPC   C1B18739  33.263  10.533   8.553
 6271POPC   C2B18740  33.231  10.548   8.253
 6271POPC   C3B18741  33.236  10.525   7.953
 6271POPC   C4B18742  33.271  10.564   7.653
 6272POPC   NC318743  21.418  29.108   9.453
 6272POPC   PO418744  21.372  29.126   9.153
 6272POPC   GL118745  21.377  29.161   8.853
 6272POPC   GL218746  21.340  29.262   8.853
 6272POPC   C1A18747  21.371  29.098   8.553
 6272POPC   D2A18748  21.416  29.185   8.253
 6272POPC   C3A18749  21.410  29.148   7.953
 6272POPC   C4A18750  21.350  29.119   7.653
 6272POPC   C1B18751  21.357  29.411   8.553
 6272POPC   C2B18752  21.353  29.387   8.253
 6272POPC   C3B18753  21.351  29.433   7.953
 6272POPC   C4B18754  21.351  29.391   7.653
 6273POPC   NC318755  15.933  28.345   9.453
 6273POPC   PO418756  16.002  28.368   9.153
 6273POPC   GL118757  16.002  28.395   8.853
 6273POPC   GL218758  15.877  28.493   8.853
 6273POPC   C1A18759  15.924  28.413   8.553
 6273POPC   D2A18760  15.950  28.371   8.253
 6273POPC   C3A18761  15.933  28.349   7.953
 6273POPC   C4A18762  16.004  28.333   7.653
 6273POPC   C1B18763  15.821  28.633   8.553
 6273POPC   C2B18764  15.859  28.587   8.253
 6273POPC   C3B18765  15.882  28.569   7.953
 6273POPC   C4B18766  15.850  28.644   7.653
 6274POPC   NC318767  26.028   5.866   9.453
 6274POPC   PO418768  26.064   5.884   9.153
 6274POPC   GL118769  26.041   5.895   8.853
 6274POPC   GL218770  26.080   5.807   8.853
 6274POPC   C1A18771  26.064   5.875   8.553
 6274POPC   D2A18772  26.086   5.839   8.253
 6274POPC   C3A18773  26.015   5.904   7.953
 6274POPC   C4A18774  26.086   5.841   7.653
 6274POPC   C1B18775  26.165   5.700   8.553
 6274POPC   C2B18776  26.140   5.671   8.253
 6274POPC   C3B18777  26.151   5.623   7.953
 6274POPC   C4B18778  26.209   5.697   7.653
 6275POPC   NC318779  11.323   6.619   9.453
 6275POPC   PO418780  11.266   6.685   9.153
 6275POPC   GL118781  11.306   6.598   8.853
 6275POPC   GL218782  11.355   6.727   8.853
 6275POPC   C1A18783  11.307   6.685   8.553
 6275POPC   D2A18784  11.333   6.680   8.253
 6275POPC   C3A18785  11.277   6.617   7.953
 6275POPC   C4A18786  11.269   6.615   7.653
 6275POPC   C1B18787  11.442   6.832   8.553
 6275POPC   C2B18788  11.361   6.853   8.253
 6275POPC   C3B18789  11.353   6.854   7.953
 6275POPC   C4B18790  11.388   6.886   7.653
 6276POPC   NC318791  22.941  15.161   9.453
 6276POPC   PO418792  22.954  15.196   9.153
 6276POPC   GL118793  22.984  15.194   8.853
 6276POPC   GL218794  23.081  15.155   8.853
 6276POPC   C1A18795  22.977  15.181   8.553
 6276POPC   D2A18796  22.908  15.158   8.253
 6276POPC   C3A18797  22.975  15.156   7.953
 6276POPC   C4A18798  22.979  15.140   7.653
 6276POPC   C1B18799  23.233  15.117   8.553
 6276POPC   C2B18800  23.222  15.158   8.253
 6276POPC   C3B18801  23.186  15.210   7.953
 6276POPC   C4B18802  23.161  15.115   7.653
 6277POPC   NC318803  29.102  12.837   9.453
 6277POPC   PO418804  29.120  12.864   9.153
 6277POPC   GL118805  29.173  12.810   8.853
 6277POPC   GL218806  29.204  12.991   8.853
 6277POPC   C1A18807  29.151  12.806   8.553
 6277POPC   D2A18808  29.152  12.868   8.253
 6277POPC   C3A18809  29.142  12.886   7.953
 6277POPC   C4A18810  29.170  12.885   7.653
 6277POPC   C1B18811  29.298  13.107   8.553
 6277POPC   C2B18812  29.311  13.105   8.253
 6277POPC   C3B18813  29.268  13.087   7.953
 6277POPC   C4B18814  29.328  13.066   7.653
 6278POPC   NC318815  33.847  31.493   9.453
 6278POPC   PO418816  33.775  31.502   9.153
 6278POPC   GL118817  33.776  31.482   8.853
 6278POPC   GL218818  33.855  31.353   8.853
 6278POPC   C1A18819  33.848  31.484   8.553
 6278POPC   D2A18820  33.777  31.425   8.253
 6278POPC   C3A18821  33.847  31.495   7.953
 6278POPC   C4A18822  33.763  31.511   7.653
 6278POPC   C1B18823  33.946  31.193   8.553
 6278POPC   C2B18824  33.944  31.286   8.253
 6278POPC   C3B18825  33.932  31.204   7.953
 6278POPC   C4B18826  33.933  31.272   7.653
 6279POPC   NC318827   7.430  37.638   9.453
 6279POPC   PO418828   7.388  37.717   9.153
 6279POPC   GL118829   7.465  37.721   8.853
 6279POPC   GL218830   7.563  37.687   8.853
 6279POPC   C1A18831   7.398  37.646   8.553
 6279POPC   D2A18832   7.373  37.691   8.253
 6279POPC   C3A18833   7.383  37.690   7.953
 6279POPC   C4A18834   7.432  37.699   7.653
 6279POPC   C1B18835   7.670  37.768   8.553
 6279POPC   C2B18836   7.651  37.747   8.253
 6279POPC   C3B18837   7.700  37.781   7.953
 6279POPC   C4B18838   7.693  37.784   7.653
 6280POPC   NC318839   3.504  34.566   9.453
 6280POPC   PO418840   3.565  34.539   9.153
 6280POPC   GL118841   3.589  34.566   8.853
 6280POPC   GL218842   3.450  34.536   8.853
 6280POPC   C1A18843   3.582  34.615   8.553
 6280POPC   D2A18844   3.588  34.593   8.253
 6280POPC   C3A18845   3.538  34.624   7.953
 6280POPC   C4A18846   3.522  34.569   7.653
 6280POPC   C1B18847   3.313  34.383   8.553
 6280POPC   C2B18848   3.384  34.381   8.253
 6280POPC   C3B18849   3.385  34.382   7.953
 6280POPC   C4B18850   3.329  34.427   7.653
 6281POPC   NC318851  34.573  41.583   9.453
 6281POPC   PO418852  34.604  41.584   9.153
 6281POPC   GL118853  34.578  41.522   8.853
 6281POPC   GL218854  34.453  41.553   8.853
 6281POPC   C1A18855  34.585  41.596   8.553
 6281POPC   D2A18856  34.602  41.516   8.253
 6281POPC   C3A18857  34.540  41.521   7.953
 6281POPC   C4A18858  34.554  41.549   7.653
 6281POPC   C1B18859  34.381  41.607   8.553
 6281POPC   C2B18860  34.289  41.658   8.253
 6281POPC   C3B18861  34.339  41.580   7.953
 6281POPC   C4B18862  34.377  41.633   7.653
 6282POPC   NC318863  29.949  16.687   9.453
 6282POPC   PO418864  29.908  16.701   9.153
 6282POPC   GL118865  29.904  16.708   8.853
 6282POPC   GL218866  29.935  16.886   8.853
 6282POPC   C1A18867  29.931  16.773   8.553
 6282POPC   D2A18868  29.939  16.774   8.253
 6282POPC   C3A18869  29.906  16.724   7.953
 6282POPC   C4A18870  29.964  16.726   7.653
 6282POPC   C1B18871  29.874  16.972   8.553
 6282POPC   C2B18872  29.925  16.961   8.253
 6282POPC   C3B18873  29.937  17.025   7.953
 6282POPC   C4B18874  29.914  16.977   7.653
 6283POPC   NC318875  31.473  12.824   9.453
 6283POPC   PO418876  31.469  12.839   9.153
 6283POPC   GL118877  31.435  12.840   8.853
 6283POPC   GL218878  31.351  12.927   8.853
 6283POPC   C1A18879  31.445  12.853   8.553
 6283POPC   D2A18880  31.460  12.853   8.253
 6283POPC   C3A18881  31.501  12.892   7.953
 6283POPC   C4A18882  31.499  12.870   7.653
 6283POPC   C1B18883  31.266  13.010   8.553
 6283POPC   C2B18884  31.288  12.988   8.253
 6283POPC   C3B18885  31.260  13.014   7.953
 6283POPC   C4B18886  31.312  13.006   7.653
 6284POPC   NC318887  22.132  13.653   9.453
 6284POPC   PO418888  22.129  13.668   9.153
 6284POPC   GL118889  22.166  13.593   8.853
 6284POPC   GL218890  22.233  13.673   8.853
 6284POPC   C1A18891  22.160  13.645   8.553
 6284POPC   D2A18892  22.199  13.604   8.253
 6284POPC   C3A18893  22.182  13.662   7.953
 6284POPC   C4A18894  22.161  13.579   7.653
 6284POPC   C1B18895  22.367  13.755   8.553
 6284POPC   C2B18896  22.381  13.843   8.253
 6284POPC   C3B18897  22.293  13.826   7.953
 6284POPC   C4B18898  22.372  13.757   7.653
 6285POPC   NC318899  43.893  33.007   9.453
 6285POPC   PO418900  43.907  32.979   9.153
 6285POPC   GL118901  43.919  33.038   8.853
 6285POPC   GL218902  43.753  32.959   8.853
 6285POPC   C1A18903  43.867  33.068   8.553
 6285POPC   D2A18904  43.898  33.006   8.253
 6285POPC   C3A18905  43.878  33.035   7.953
 6285POPC   C4A18906  43.886  33.048   7.653
 6285POPC   C1B18907  43.613  32.994   8.553
 6285POPC   C2B18908  43.643  32.919   8.253
 6285POPC   C3B18909  43.668  32.906   7.953
 6285POPC   C4B18910  43.670  32.984   7.653
 6286POPC   NC318911  23.675  19.025   9.453
 6286POPC   PO418912  23.694  19.061   9.153
 6286POPC   GL118913  23.759  19.077   8.853
 6286POPC   GL218914  23.876  19.015   8.853
 6286POPC   C1A18915  23.745  19.022   8.553
 6286POPC   D2A18916  23.679  19.009   8.253
 6286POPC   C3A18917  23.715  19.105   7.953
 6286POPC   C4A18918  23.753  19.104   7.653
 6286POPC   C1B18919  23.970  18.928   8.553
 6286POPC   C2B18920  23.949  18.976   8.253
 6286POPC   C3B18921  23.950  18.993   7.953
 6286POPC   C4B18922  23.988  18.980   7.653
 6287POPC   NC318923   4.275  18.301   9.453
 6287POPC   PO418924   4.303  18.252   9.153
 6287POPC   GL118925   4.350  18.301   8.853
 6287POPC   GL218926   4.289  18.185   8.853
 6287POPC   C1A18927   4.321  18.271   8.553
 6287POPC   D2A18928   4.345  18.256   8.253
 6287POPC   C3A18929   4.299  18.299   7.953
 6287POPC   C4A18930   4.361  18.250   7.653
 6287POPC   C1B18931   4.256  18.086   8.553
 6287POPC   C2B18932   4.252  18.003   8.253
 6287POPC   C3B18933   4.248  18.031   7.953
 6287POPC   C4B18934   4.232  18.009   7.653
 6288POPC   NC318935  40.022  12.831   9.453
 6288POPC   PO418936  40.019  12.880   9.153
 6288POPC   GL118937  39.999  12.863   8.853
 6288POPC   GL218938  39.922  12.800   8.853
 6288POPC   C1A18939  39.979  12.808   8.553
 6288POPC   D2A18940  39.966  12.848   8.253
 6288POPC   C3A18941  39.962  12.880   7.953
 6288POPC   C4A18942  39.970  12.803   7.653
 6288POPC   C1B18943  39.764  12.766   8.553
 6288POPC   C2B18944  39.776  12.838   8.253
 6288POPC   C3B18945  39.805  12.837   7.953
 6288POPC   C4B18946  39.777  12.783   7.653
 6289POPC   NC318947  10.513   5.097   9.453
 6289POPC   PO418948  10.551   5.140   9.153
 6289POPC   GL118949  10.489   5.119   8.853
 6289POPC   GL218950  10.464   5.025   8.853
 6289POPC   C1A18951  10.500   5.102   8.553
 6289POPC   D2A18952  10.519   5.082   8.253
 6289POPC   C3A18953  10.570   5.102   7.953
 6289POPC   C4A18954  10.498   5.136   7.653
 6289POPC   C1B18955  10.367   4.921   8.553
 6289POPC   C2B18956  10.341   4.926   8.253
 6289POPC   C3B18957  10.314   4.958   7.953
 6289POPC   C4B18958  10.345   4.946   7.653
 6290POPC   NC318959  36.126  22.970   9.453
 6290POPC   PO418960  36.176  22.925   9.153
 6290POPC   GL118961  36.146  22.975   8.853
 6290POPC   GL218962  36.111  23.015   8.853
 6290POPC   C1A18963  36.118  22.982   8.553
 6290POPC   D2A18964  36.121  22.898   8.253
 6290POPC   C3A18965  36.079  22.983   7.953
 6290POPC   C4A18966  36.167  22.910   7.653
 6290POPC   C1B18967  36.124  23.170   8.553
 6290POPC   C2B18968  36.122  23.187   8.253
 6290POPC   C3B18969  36.055  23.184   7.953
 6290POPC   C4B18970  36.065  23.199   7.653
 6291POPC   NC318971  41.562  27.599   9.453
 6291POPC   PO418972  41.556  27.587   9.153
 6291POPC   GL118973  41.512  27.576   8.853
 6291POPC   GL218974  41.710  27.584   8.853
 6291POPC   C1A18975  41.524  27.591   8.553
 6291POPC   D2A18976  41.524  27.619   8.253
 6291POPC   C3A18977  41.516  27.559   7.953
 6291POPC   C4A18978  41.595  27.611   7.653
 6291POPC   C1B18979  41.818  27.605   8.553
 6291POPC   C2B18980  41.775  27.670   8.253
 6291POPC   C3B18981  41.838  27.662   7.953
 6291POPC   C4B18982  41.775  27.641   7.653
 6292POPC   NC318983   2.813  15.920   9.453
 6292POPC   PO418984   2.779  15.909   9.153
 6292POPC   GL118985   2.767  15.930   8.853
 6292POPC   GL218986   2.731  16.082   8.853
 6292POPC   C1A18987   2.770  15.954   8.553
 6292POPC   D2A18988   2.784  15.907   8.253
 6292POPC   C3A18989   2.742  15.989   7.953
 6292POPC   C4A18990   2.791  15.978   7.653
 6292POPC   C1B18991   2.801  16.177   8.553
 6292POPC   C2B18992   2.775  16.180   8.253
 6292POPC   C3B18993   2.738  16.195   7.953
 6292POPC   C4B18994   2.732  16.187   7.653
 6293POPC   NC318995  39.978  44.674   9.453
 6293POPC   PO418996  40.005  44.631   9.153
 6293POPC   GL118997  39.991  44.683   8.853
 6293POPC   GL218998  40.011  44.580   8.853
 6293POPC   C1A18999  39.961  44.647   8.553
 6293POPC   D2A19000  40.029  44.659   8.253
 6293POPC   C3A19001  39.988  44.652   7.953
 6293POPC   C4A19002  40.008  44.659   7.653
 6293POPC   C1B19003  40.065  44.417   8.553
 6293POPC   C2B19004  40.081  44.438   8.253
 6293POPC   C3B19005  40.080  44.438   7.953
 6293POPC   C4B19006  40.035  44.406   7.653
 6294POPC   NC319007  31.442  43.902   9.453
 6294POPC   PO419008  31.474  43.844   9.153
 6294POPC   GL119009  31.495  43.854   8.853
 6294POPC   GL219010  31.474  43.785   8.853
 6294POPC   C1A19011  31.517  43.844   8.553
 6294POPC   D2A19012  31.476  43.923   8.253
 6294POPC   C3A19013  31.467  43.868   7.953
 6294POPC   C4A19014  31.461  43.924   7.653
 6294POPC   C1B19015  31.440  43.620   8.553
 6294POPC   C2B19016  31.390  43.693   8.253
 6294POPC   C3B19017  31.447  43.692   7.953
 6294POPC   C4B19018  31.375  43.603   7.653
 6295POPC   NC319019  34.568  21.366   9.453
 6295POPC   PO419020  34.545  21.377   9.153
 6295POPC   GL119021  34.610  21.349   8.853
 6295POPC   GL219022  34.651  21.285   8.853
 6295POPC   C1A19023  34.557  21.421   8.553
 6295POPC   D2A19024  34.590  21.373   8.253
 6295POPC   C3A19025  34.610  21.410   7.953
 6295POPC   C4A19026  34.621  21.364   7.653
 6295POPC   C1B19027  34.701  21.235   8.553
 6295POPC   C2B19028  34.725  21.237   8.253
 6295POPC   C3B19029  34.694  21.186   7.953
 6295POPC   C4B19030  34.777  21.211   7.653
 6296POPC   NC319031  44.685  38.487   9.453
 6296POPC   PO419032  44.700  38.458   9.153
 6296POPC   GL119033  44.616  38.475   8.853
 6296POPC   GL219034  44.768  38.508   8.853
 6296POPC   C1A19035  44.623  38.502   8.553
 6296POPC   D2A19036  44.703  38.445   8.253
 6296POPC   C3A19037  44.637  38.427   7.953
 6296POPC   C4A19038  44.635  38.429   7.653
 6296POPC   C1B19039  44.818  38.622   8.553
 6296POPC   C2B19040  44.906  38.589   8.253
 6296POPC   C3B19041  44.881  38.600   7.953
 6296POPC   C4B19042  44.853  38.564   7.653
 6297POPC   NC319043  41.521   0.475   9.453
 6297POPC   PO419044  41.536   0.443   9.153
 6297POPC   GL119045  41.604   0.441   8.853
 6297POPC   GL219046  41.686   0.422   8.853
 6297POPC   C1A19047  41.529   0.480   8.553
 6297POPC   D2A19048  41.567   0.484   8.253
 6297POPC   C3A19049  41.535   0.391   7.953
 6297POPC   C4A19050  41.594   0.406   7.653
 6297POPC   C1B19051  41.822   0.545   8.553
 6297POPC   C2B19052  41.757   0.516   8.253
 6297POPC   C3B19053  41.850   0.508   7.953
 6297POPC   C4B19054  41.775   0.473   7.653
 6298POPC   NC319055  26.821  40.795   9.453
 6298POPC   PO419056  26.809  40.773   9.153
 6298POPC   GL119057  26.835  40.826   8.853
 6298POPC   GL219058  26.817  40.859   8.853
 6298POPC   C1A19059  26.797  40.833   8.553
 6298POPC   D2A19060  26.826  40.817   8.253
 6298POPC   C3A19061  26.768  40.823   7.953
 6298POPC   C4A19062  26.801  40.825   7.653
 6298POPC   C1B19063  26.765  41.010   8.553
 6298POPC   C2B19064  26.817  41.070   8.253
 6298POPC   C3B19065  26.808  41.026   7.953
 6298POPC   C4B19066  26.788  41.011   7.653
 6299POPC   NC319067  38.448  36.176   9.453
 6299POPC   PO419068  38.465  36.138   9.153
 6299POPC   GL119069  38.442  36.168   8.853
 6299POPC   GL219070  38.564  36.075   8.853
 6299POPC   C1A19071  38.419  36.136   8.553
 6299POPC   D2A19072  38.505  36.165   8.253
 6299POPC   C3A19073  38.414  36.165   7.953
 6299POPC   C4A19074  38.442  36.172   7.653
 6299POPC   C1B19075  38.632  35.966   8.553
 6299POPC   C2B19076  38.632  35.934   8.253
 6299POPC   C3B19077  38.654  35.991   7.953
 6299POPC   C4B19078  38.595  35.935   7.653
 6300POPC   NC319079  15.219  32.998   9.453
 6300POPC   PO419080  15.163  33.020   9.153
 6300POPC   GL119081  15.164  32.978   8.853
 6300POPC   GL219082  15.215  32.937   8.853
 6300POPC   C1A19083  15.138  33.033   8.553
 6300POPC   D2A19084  15.175  33.056   8.253
 6300POPC   C3A19085  15.209  33.042   7.953
 6300POPC   C4A19086  15.160  33.067   7.653
 6300POPC   C1B19087  15.226  32.768   8.553
 6300POPC   C2B19088  15.301  32.840   8.253
 6300POPC   C3B19089  15.313  32.838   7.953
 6300POPC   C4B19090  15.288  32.748   7.653
 6301POPC   NC319091  44.664  27.605   9.453
 6301POPC   PO419092  44.709  27.582   9.153
 6301POPC   GL119093  44.645  27.620   8.853
 6301POPC   GL219094  44.611  27.714   8.853
 6301POPC   C1A19095  44.710  27.590   8.553
 6301POPC   D2A19096  44.637  27.596   8.253
 6301POPC   C3A19097  44.628  27.552   7.953
 6301POPC   C4A19098  44.622  27.586   7.653
 6301POPC   C1B19099  44.628  27.823   8.553
 6301POPC   C2B19100  44.557  27.826   8.253
 6301POPC   C3B19101  44.559  27.849   7.953
 6301POPC   C4B19102  44.600  27.796   7.653
 6302POPC   NC319103  10.558   7.426   9.453
 6302POPC   PO419104  10.494   7.376   9.153
 6302POPC   GL119105  10.566   7.374   8.853
 6302POPC   GL219106  10.374   7.496   8.853
 6302POPC   C1A19107  10.546   7.402   8.553
 6302POPC   D2A19108  10.517   7.459   8.253
 6302POPC   C3A19109  10.523   7.389   7.953
 6302POPC   C4A19110  10.554   7.416   7.653
 6302POPC   C1B19111  10.348   7.574   8.553
 6302POPC   C2B19112  10.351   7.521   8.253
 6302POPC   C3B19113  10.283   7.577   7.953
 6302POPC   C4B19114  10.270   7.567   7.653
 6303POPC   NC319115   1.947  22.127   9.453
 6303POPC   PO419116   2.034  22.129   9.153
 6303POPC   GL119117   1.991  22.172   8.853
 6303POPC   GL219118   2.047  22.054   8.853
 6303POPC   C1A19119   2.021  22.199   8.553
 6303POPC   D2A19120   2.026  22.113   8.253
 6303POPC   C3A19121   1.969  22.113   7.953
 6303POPC   C4A19122   1.995  22.192   7.653
 6303POPC   C1B19123   2.139  21.963   8.553
 6303POPC   C2B19124   2.171  21.967   8.253
 6303POPC   C3B19125   2.151  21.927   7.953
 6303POPC   C4B19126   2.130  21.979   7.653
 6304POPC   NC319127  30.650  26.002   9.453
 6304POPC   PO419128  30.682  26.043   9.153
 6304POPC   GL119129  30.718  26.038   8.853
 6304POPC   GL219130  30.753  26.110   8.853
 6304POPC   C1A19131  30.688  26.001   8.553
 6304POPC   D2A19132  30.696  26.076   8.253
 6304POPC   C3A19133  30.719  26.015   7.953
 6304POPC   C4A19134  30.676  26.071   7.653
 6304POPC   C1B19135  30.889  26.196   8.553
 6304POPC   C2B19136  30.867  26.156   8.253
 6304POPC   C3B19137  30.927  26.210   7.953
 6304POPC   C4B19138  30.938  26.188   7.653
 6305POPC   NC319139  38.492  30.675   9.453
 6305POPC   PO419140  38.410  30.704   9.153
 6305POPC   GL119141  38.495  30.681   8.853
 6305POPC   GL219142  38.591  30.799   8.853
 6305POPC   C1A19143  38.409  30.721   8.553
 6305POPC   D2A19144  38.490  30.721   8.253
 6305POPC   C3A19145  38.478  30.708   7.953
 6305POPC   C4A19146  38.468  30.727   7.653
 6305POPC   C1B19147  38.659  30.861   8.553
 6305POPC   C2B19148  38.613  30.905   8.253
 6305POPC   C3B19149  38.631  30.876   7.953
 6305POPC   C4B19150  38.609  30.828   7.653
 6306POPC   NC319151  38.459   0.419   9.453
 6306POPC   PO419152  38.439   0.406   9.153
 6306POPC   GL119153  38.442   0.399   8.853
 6306POPC   GL219154  38.375   0.345   8.853
 6306POPC   C1A19155  38.405   0.394   8.553
 6306POPC   D2A19156  38.436   0.430   8.253
 6306POPC   C3A19157  38.447   0.477   7.953
 6306POPC   C4A19158  38.454   0.437   7.653
 6306POPC   C1B19159  38.303   0.273   8.553
 6306POPC   C2B19160  38.324   0.262   8.253
 6306POPC   C3B19161  38.340   0.246   7.953
 6306POPC   C4B19162  38.373   0.267   7.653
 6307POPC   NC319163  26.792  27.615   9.453
 6307POPC   PO419164  26.791  27.567   9.153
 6307POPC   GL119165  26.867  27.631   8.853
 6307POPC   GL219166  26.759  27.758   8.853
 6307POPC   C1A19167  26.775  27.581   8.553
 6307POPC   D2A19168  26.794  27.547   8.253
 6307POPC   C3A19169  26.804  27.634   7.953
 6307POPC   C4A19170  26.795  27.551   7.653
 6307POPC   C1B19171  26.758  27.825   8.553
 6307POPC   C2B19172  26.749  27.805   8.253
 6307POPC   C3B19173  26.744  27.888   7.953
 6307POPC   C4B19174  26.756  27.873   7.653
 6308POPC   NC319175  21.343   0.450   9.453
 6308POPC   PO419176  21.421   0.392   9.153
 6308POPC   GL119177  21.354   0.460   8.853
 6308POPC   GL219178  21.280   0.339   8.853
 6308POPC   C1A19179  21.371   0.420   8.553
 6308POPC   D2A19180  21.375   0.484   8.253
 6308POPC   C3A19181  21.374   0.454   7.953
 6308POPC   C4A19182  21.338   0.450   7.653
 6308POPC   C1B19183  21.255   0.210   8.553
 6308POPC   C2B19184  21.233   0.203   8.253
 6308POPC   C3B19185  21.222   0.213   7.953
 6308POPC   C4B19186  21.259   0.284   7.653
 6309POPC   NC319187  24.498   1.228   9.453
 6309POPC   PO419188  24.535   1.259   9.153
 6309POPC   GL119189  24.539   1.183   8.853
 6309POPC   GL219190  24.369   1.223   8.853
 6309POPC   C1A19191  24.443   1.240   8.553
 6309POPC   D2A19192  24.518   1.250   8.253
 6309POPC   C3A19193  24.442   1.171   7.953
 6309POPC   C4A19194  24.530   1.237   7.653
 6309POPC   C1B19195  24.239   1.266   8.553
 6309POPC   C2B19196  24.286   1.262   8.253
 6309POPC   C3B19197  24.225   1.234   7.953
 6309POPC   C4B19198  24.230   1.246   7.653
 6310POPC   NC319199  25.238  29.910   9.453
 6310POPC   PO419200  25.280  29.896   9.153
 6310POPC   GL119201  25.272  29.968   8.853
 6310POPC   GL219202  25.253  29.806   8.853
 6310POPC   C1A19203  25.234  29.939   8.553
 6310POPC   D2A19204  25.217  29.888   8.253
 6310POPC   C3A19205  25.232  29.962   7.953
 6310POPC   C4A19206  25.248  29.964   7.653
 6310POPC   C1B19207  25.200  29.707   8.553
 6310POPC   C2B19208  25.170  29.720   8.253
 6310POPC   C3B19209  25.201  29.638   7.953
 6310POPC   C4B19210  25.236  29.731   7.653
 6311POPC   NC319211  36.876   0.453   9.453
 6311POPC   PO419212  36.902   0.424   9.153
 6311POPC   GL119213  36.929   0.405   8.853
 6311POPC   GL219214  37.072   0.455   8.853
 6311POPC   C1A19215  36.869   0.426   8.553
 6311POPC   D2A19216  36.869   0.414   8.253
 6311POPC   C3A19217  36.950   0.410   7.953
 6311POPC   C4A19218  36.919   0.421   7.653
 6311POPC   C1B19219  37.139   0.435   8.553
 6311POPC   C2B19220  37.149   0.456   8.253
 6311POPC   C3B19221  37.148   0.433   7.953
 6311POPC   C4B19222  37.186   0.505   7.653
 6312POPC   NC319223  26.035  26.851   9.453
 6312POPC   PO419224  26.060  26.807   9.153
 6312POPC   GL119225  25.998  26.811   8.853
 6312POPC   GL219226  26.187  26.812   8.853
 6312POPC   C1A19227  26.082  26.811   8.553
 6312POPC   D2A19228  26.053  26.812   8.253
 6312POPC   C3A19229  26.046  26.794   7.953
 6312POPC   C4A19230  26.055  26.824   7.653
 6312POPC   C1B19231  26.229  26.701   8.553
 6312POPC   C2B19232  26.325  26.715   8.253
 6312POPC   C3B19233  26.254  26.746   7.953
 6312POPC   C4B19234  26.324  26.696   7.653
 6313POPC   NC319235  40.749  36.142   9.453
 6313POPC   PO419236  40.792  36.161   9.153
 6313POPC   GL119237  40.832  36.100   8.853
 6313POPC   GL219238  40.802  36.047   8.853
 6313POPC   C1A19239  40.754  36.124   8.553
 6313POPC   D2A19240  40.735  36.121   8.253
 6313POPC   C3A19241  40.778  36.160   7.953
 6313POPC   C4A19242  40.762  36.080   7.653
 6313POPC   C1B19243  40.740  35.864   8.553
 6313POPC   C2B19244  40.764  35.924   8.253
 6313POPC   C3B19245  40.710  35.843   7.953
 6313POPC   C4B19246  40.776  35.855   7.653
 6314POPC   NC319247   7.404  12.824   9.453
 6314POPC   PO419248   7.382  12.833   9.153
 6314POPC   GL119249   7.444  12.848   8.853
 6314POPC   GL219250   7.421  12.757   8.853
 6314POPC   C1A19251   7.439  12.880   8.553
 6314POPC   D2A19252   7.448  12.827   8.253
 6314POPC   C3A19253   7.382  12.842   7.953
 6314POPC   C4A19254   7.409  12.897   7.653
 6314POPC   C1B19255   7.437  12.640   8.553
 6314POPC   C2B19256   7.451  12.573   8.253
 6314POPC   C3B19257   7.506  12.614   7.953
 6314POPC   C4B19258   7.484  12.570   7.653
 6315POPC   NC319259   6.620  33.018   9.453
 6315POPC   PO419260   6.670  33.043   9.153
 6315POPC   GL119261   6.666  33.005   8.853
 6315POPC   GL219262   6.602  32.951   8.853
 6315POPC   C1A19263   6.683  33.041   8.553
 6315POPC   D2A19264   6.671  33.022   8.253
 6315POPC   C3A19265   6.652  33.063   7.953
 6315POPC   C4A19266   6.654  32.985   7.653
 6315POPC   C1B19267   6.626  32.785   8.553
 6315POPC   C2B19268   6.555  32.810   8.253
 6315POPC   C3B19269   6.622  32.743   7.953
 6315POPC   C4B19270   6.617  32.758   7.653
 6316POPC   NC319271  18.307   8.968   9.453
 6316POPC   PO419272  18.250   9.005   9.153
 6316POPC   GL119273  18.306   8.990   8.853
 6316POPC   GL219274  18.340   8.918   8.853
 6316POPC   C1A19275  18.290   8.936   8.553
 6316POPC   D2A19276  18.237   8.936   8.253
 6316POPC   C3A19277  18.273   8.983   7.953
 6316POPC   C4A19278  18.252   8.983   7.653
 6316POPC   C1B19279  18.502   8.791   8.553
 6316POPC   C2B19280  18.502   8.827   8.253
 6316POPC   C3B19281  18.502   8.873   7.953
 6316POPC   C4B19282  18.455   8.849   7.653
 6317POPC   NC319283  43.906  43.848   9.453
 6317POPC   PO419284  43.843  43.840   9.153
 6317POPC   GL119285  43.892  43.856   8.853
 6317POPC   GL219286  43.949  43.957   8.853
 6317POPC   C1A19287  43.917  43.927   8.553
 6317POPC   D2A19288  43.902  43.871   8.253
 6317POPC   C3A19289  43.863  43.886   7.953
 6317POPC   C4A19290  43.919  43.896   7.653
 6317POPC   C1B19291  44.004  44.103   8.553
 6317POPC   C2B19292  44.071  44.088   8.253
 6317POPC   C3B19293  44.062  44.091   7.953
 6317POPC   C4B19294  44.023  44.134   7.653
 6318POPC   NC319295  26.782   0.420   9.453
 6318POPC   PO419296  26.789   0.410   9.153
 6318POPC   GL119297  26.827   0.428   8.853
 6318POPC   GL219298  26.919   0.352   8.853
 6318POPC   C1A19299  26.823   0.396   8.553
 6318POPC   D2A19300  26.796   0.394   8.253
 6318POPC   C3A19301  26.806   0.444   7.953
 6318POPC   C4A19302  26.865   0.448   7.653
 6318POPC   C1B19303  26.965   0.178   8.553
 6318POPC   C2B19304  26.937   0.176   8.253
 6318POPC   C3B19305  26.909   0.185   7.953
 6318POPC   C4B19306  26.905   0.184   7.653
 6319POPC   NC319307   7.372  43.121   9.453
 6319POPC   PO419308   7.466  43.065   9.153
 6319POPC   GL119309   7.436  43.065   8.853
 6319POPC   GL219310   7.531  43.015   8.853
 6319POPC   C1A19311   7.465  43.141   8.553
 6319POPC   D2A19312   7.449  43.071   8.253
 6319POPC   C3A19313   7.428  43.150   7.953
 6319POPC   C4A19314   7.413  43.081   7.653
 6319POPC   C1B19315   7.611  43.017   8.553
 6319POPC   C2B19316   7.666  42.973   8.253
 6319POPC   C3B19317   7.628  43.065   7.953
 6319POPC   C4B19318   7.646  42.968   7.653
 6320POPC   NC319319  19.057  12.036   9.453
 6320POPC   PO419320  19.020  12.114   9.153
 6320POPC   GL119321  19.096  12.027   8.853
 6320POPC   GL219322  19.170  12.054   8.853
 6320POPC   C1A19323  19.092  12.043   8.553
 6320POPC   D2A19324  19.107  12.115   8.253
 6320POPC   C3A19325  19.106  12.035   7.953
 6320POPC   C4A19326  19.035  12.085   7.653
 6320POPC   C1B19327  19.351  12.068   8.553
 6320POPC   C2B19328  19.304  12.021   8.253
 6320POPC   C3B19329  19.271  12.105   7.953
 6320POPC   C4B19330  19.284  12.031   7.653
 6321POPC   NC319331  26.052  13.635   9.453
 6321POPC   PO419332  26.035  13.660   9.153
 6321POPC   GL119333  26.056  13.667   8.853
 6321POPC   GL219334  26.121  13.753   8.853
 6321POPC   C1A19335  26.089  13.673   8.553
 6321POPC   D2A19336  26.050  13.598   8.253
 6321POPC   C3A19337  25.995  13.633   7.953
 6321POPC   C4A19338  26.029  13.585   7.653
 6321POPC   C1B19339  26.156  13.813   8.553
 6321POPC   C2B19340  26.128  13.826   8.253
 6321POPC   C3B19341  26.133  13.905   7.953
 6321POPC   C4B19342  26.098  13.872   7.653
 6322POPC   NC319343  16.004  16.767   9.453
 6322POPC   PO419344  15.929  16.724   9.153
 6322POPC   GL119345  16.005  16.737   8.853
 6322POPC   GL219346  15.797  16.672   8.853
 6322POPC   C1A19347  15.945  16.704   8.553
 6322POPC   D2A19348  15.986  16.708   8.253
 6322POPC   C3A19349  15.958  16.708   7.953
 6322POPC   C4A19350  15.910  16.697   7.653
 6322POPC   C1B19351  15.729  16.642   8.553
 6322POPC   C2B19352  15.754  16.564   8.253
 6322POPC   C3B19353  15.776  16.628   7.953
 6322POPC   C4B19354  15.782  16.644   7.653
 6323POPC   NC319355  31.436  25.301   9.453
 6323POPC   PO419356  31.440  25.303   9.153
 6323POPC   GL119357  31.439  25.230   8.853
 6323POPC   GL219358  31.503  25.362   8.853
 6323POPC   C1A19359  31.438  25.308   8.553
 6323POPC   D2A19360  31.425  25.219   8.253
 6323POPC   C3A19361  31.440  25.265   7.953
 6323POPC   C4A19362  31.520  25.258   7.653
 6323POPC   C1B19363  31.577  25.486   8.553
 6323POPC   C2B19364  31.592  25.487   8.253
 6323POPC   C3B19365  31.647  25.507   7.953
 6323POPC   C4B19366  31.612  25.415   7.653
 6324POPC   NC319367  15.911   9.769   9.453
 6324POPC   PO419368  15.914   9.749   9.153
 6324POPC   GL119369  15.983   9.780   8.853
 6324POPC   GL219370  15.898   9.883   8.853
 6324POPC   C1A19371  15.956   9.741   8.553
 6324POPC   D2A19372  15.907   9.765   8.253
 6324POPC   C3A19373  15.938   9.773   7.953
 6324POPC   C4A19374  16.004   9.785   7.653
 6324POPC   C1B19375  15.905   9.970   8.553
 6324POPC   C2B19376  15.826   9.968   8.253
 6324POPC   C3B19377  15.896   9.981   7.953
 6324POPC   C4B19378  15.853   9.959   7.653
 6325POPC   NC319379  22.181  39.183   9.453
 6325POPC   PO419380  22.115  39.248   9.153
 6325POPC   GL119381  22.129  39.257   8.853
 6325POPC   GL219382  22.246  39.382   8.853
 6325POPC   C1A19383  22.122  39.181   8.553
 6325POPC   D2A19384  22.176  39.223   8.253
 6325POPC   C3A19385  22.158  39.229   7.953
 6325POPC   C4A19386  22.161  39.267   7.653
 6325POPC   C1B19387  22.283  39.497   8.553
 6325POPC   C2B19388  22.291  39.513   8.253
 6325POPC   C3B19389  22.269  39.502   7.953
 6325POPC   C4B19390  22.273  39.424   7.653
 6326POPC   NC319391   3.577  21.420   9.453
 6326POPC   PO419392   3.576  21.356   9.153
 6326POPC   GL119393   3.550  21.386   8.853
 6326POPC   GL219394   3.636  21.508   8.853
 6326POPC   C1A19395   3.501  21.393   8.553
 6326POPC   D2A19396   3.533  21.407   8.253
 6326POPC   C3A19397   3.533  21.413   7.953
 6326POPC   C4A19398   3.492  21.339   7.653
 6326POPC   C1B19399   3.701  21.555   8.553
 6326POPC   C2B19400   3.643  21.635   8.253
 6326POPC   C3B19401   3.688  21.581   7.953
 6326POPC   C4B19402   3.717  21.590   7.653
 6327POPC   NC319403   2.721  42.318   9.453
 6327POPC   PO419404   2.792  42.324   9.153
 6327POPC   GL119405   2.769  42.305   8.853
 6327POPC   GL219406   2.885  42.342   8.853
 6327POPC   C1A19407   2.809  42.345   8.553
 6327POPC   D2A19408   2.807  42.288   8.253
 6327POPC   C3A19409   2.729  42.381   7.953
 6327POPC   C4A19410   2.795  42.325   7.653
 6327POPC   C1B19411   2.998  42.340   8.553
 6327POPC   C2B19412   3.054  42.300   8.253
 6327POPC   C3B19413   3.008  42.294   7.953
 6327POPC   C4B19414   2.984  42.347   7.653
 6328POPC   NC319415  38.471  35.342   9.453
 6328POPC   PO419416  38.444  35.321   9.153
 6328POPC   GL119417  38.461  35.396   8.853
 6328POPC   GL219418  38.323  35.334   8.853
 6328POPC   C1A19419  38.488  35.373   8.553
 6328POPC   D2A19420  38.436  35.356   8.253
 6328POPC   C3A19421  38.485  35.313   7.953
 6328POPC   C4A19422  38.476  35.316   7.653
 6328POPC   C1B19423  38.185  35.323   8.553
 6328POPC   C2B19424  38.225  35.368   8.253
 6328POPC   C3B19425  38.245  35.416   7.953
 6328POPC   C4B19426  38.177  35.349   7.653
 6329POPC   NC319427  13.618  35.386   9.453
 6329POPC   PO419428  13.652  35.390   9.153
 6329POPC   GL119429  13.615  35.377   8.853
 6329POPC   GL219430  13.698  35.304   8.853
 6329POPC   C1A19431  13.638  35.401   8.553
 6329POPC   D2A19432  13.665  35.339   8.253
 6329POPC   C3A19433  13.591  35.334   7.953
 6329POPC   C4A19434  13.623  35.341   7.653
 6329POPC   C1B19435  13.842  35.226   8.553
 6329POPC   C2B19436  13.838  35.238   8.253
 6329POPC   C3B19437  13.886  35.299   7.953
 6329POPC   C4B19438  13.829  35.227   7.653
 6330POPC   NC319439  33.038  24.441   9.453
 6330POPC   PO419440  33.009  24.470   9.153
 6330POPC   GL119441  32.982  24.467   8.853
 6330POPC   GL219442  33.006  24.390   8.853
 6330POPC   C1A19443  33.063  24.494   8.553
 6330POPC   D2A19444  33.058  24.507   8.253
 6330POPC   C3A19445  33.028  24.497   7.953
 6330POPC   C4A19446  33.006  24.459   7.653
 6330POPC   C1B19447  32.939  24.255   8.553
 6330POPC   C2B19448  32.853  24.262   8.253
 6330POPC   C3B19449  32.891  24.314   7.953
 6330POPC   C4B19450  32.875  24.240   7.653
 6331POPC   NC319451  10.495  15.178   9.453
 6331POPC   PO419452  10.511  15.134   9.153
 6331POPC   GL119453  10.487  15.147   8.853
 6331POPC   GL219454  10.427  15.248   8.853
 6331POPC   C1A19455  10.542  15.135   8.553
 6331POPC   D2A19456  10.502  15.209   8.253
 6331POPC   C3A19457  10.498  15.194   7.953
 6331POPC   C4A19458  10.531  15.199   7.653
 6331POPC   C1B19459  10.411  15.388   8.553
 6331POPC   C2B19460  10.436  15.440   8.253
 6331POPC   C3B19461  10.433  15.421   7.953
 6331POPC   C4B19462  10.385  15.356   7.653
 6332POPC   NC319463  39.183  22.154   9.453
 6332POPC   PO419464  39.268  22.208   9.153
 6332POPC   GL119465  39.275  22.208   8.853
 6332POPC   GL219466  39.405  22.131   8.853
 6332POPC   C1A19467  39.249  22.148   8.553
 6332POPC   D2A19468  39.231  22.195   8.253
 6332POPC   C3A19469  39.207  22.142   7.953
 6332POPC   C4A19470  39.240  22.129   7.653
 6332POPC   C1B19471  39.472  22.220   8.553
 6332POPC   C2B19472  39.462  22.201   8.253
 6332POPC   C3B19473  39.488  22.224   7.953
 6332POPC   C4B19474  39.463  22.216   7.653
 6333POPC   NC319475  40.760  36.898   9.453
 6333POPC   PO419476  40.822  36.899   9.153
 6333POPC   GL119477  40.737  36.858   8.853
 6333POPC   GL219478  40.804  36.990   8.853
 6333POPC   C1A19479  40.747  36.889   8.553
 6333POPC   D2A19480  40.793  36.871   8.253
 6333POPC   C3A19481  40.736  36.950   7.953
 6333POPC   C4A19482  40.795  36.950   7.653
 6333POPC   C1B19483  40.795  37.143   8.553
 6333POPC   C2B19484  40.819  37.183   8.253
 6333POPC   C3B19485  40.821  37.195   7.953
 6333POPC   C4B19486  40.780  37.183   7.653
 6334POPC   NC319487  36.156  39.987   9.453
 6334POPC   PO419488  36.154  40.020   9.153
 6334POPC   GL119489  36.167  40.035   8.853
 6334POPC   GL219490  36.013  40.022   8.853
 6334POPC   C1A19491  36.090  39.971   8.553
 6334POPC   D2A19492  36.091  40.028   8.253
 6334POPC   C3A19493  36.106  40.015   7.953
 6334POPC   C4A19494  36.157  40.044   7.653
 6334POPC   C1B19495  35.835  40.026   8.553
 6334POPC   C2B19496  35.862  40.043   8.253
 6334POPC   C3B19497  35.874  39.979   7.953
 6334POPC   C4B19498  35.839  39.969   7.653
 6335POPC   NC319499   3.583  31.492   9.453
 6335POPC   PO419500   3.575  31.492   9.153
 6335POPC   GL119501   3.548  31.471   8.853
 6335POPC   GL219502   3.471  31.548   8.853
 6335POPC   C1A19503   3.521  31.493   8.553
 6335POPC   D2A19504   3.509  31.512   8.253
 6335POPC   C3A19505   3.563  31.456   7.953
 6335POPC   C4A19506   3.554  31.503   7.653
 6335POPC   C1B19507   3.401  31.686   8.553
 6335POPC   C2B19508   3.418  31.664   8.253
 6335POPC   C3B19509   3.409  31.662   7.953
 6335POPC   C4B19510   3.415  31.648   7.653
 6336POPC   NC319511  13.611  25.261   9.453
 6336POPC   PO419512  13.583  25.233   9.153
 6336POPC   GL119513  13.657  25.266   8.853
 6336POPC   GL219514  13.483  25.276   8.853
 6336POPC   C1A19515  13.642  25.277   8.553
 6336POPC   D2A19516  13.595  25.228   8.253
 6336POPC   C3A19517  13.582  25.299   7.953
 6336POPC   C4A19518  13.632  25.227   7.653
 6336POPC   C1B19519  13.428  25.320   8.553
 6336POPC   C2B19520  13.339  25.259   8.253
 6336POPC   C3B19521  13.421  25.290   7.953
 6336POPC   C4B19522  13.367  25.303   7.653
 6337POPC   NC319523  17.526  29.164   9.453
 6337POPC   PO419524  17.458  29.101   9.153
 6337POPC   GL119525  17.490  29.143   8.853
 6337POPC   GL219526  17.399  29.044   8.853
 6337POPC   C1A19527  17.553  29.118   8.553
 6337POPC   D2A19528  17.471  29.119   8.253
 6337POPC   C3A19529  17.523  29.134   7.953
 6337POPC   C4A19530  17.525  29.156   7.653
 6337POPC   C1B19531  17.312  29.042   8.553
 6337POPC   C2B19532  17.324  29.071   8.253
 6337POPC   C3B19533  17.258  29.048   7.953
 6337POPC   C4B19534  17.290  29.049   7.653
 6338POPC   NC319535  37.711   5.054   9.453
 6338POPC   PO419536  37.675   5.063   9.153
 6338POPC   GL119537  37.679   5.083   8.853
 6338POPC   GL219538  37.693   5.212   8.853
 6338POPC   C1A19539  37.643   5.096   8.553
 6338POPC   D2A19540  37.673   5.142   8.253
 6338POPC   C3A19541  37.675   5.084   7.953
 6338POPC   C4A19542  37.696   5.122   7.653
 6338POPC   C1B19543  37.737   5.323   8.553
 6338POPC   C2B19544  37.749   5.310   8.253
 6338POPC   C3B19545  37.728   5.316   7.953
 6338POPC   C4B19546  37.723   5.312   7.653
 6339POPC   NC319547  43.935   5.832   9.453
 6339POPC   PO419548  43.914   5.906   9.153
 6339POPC   GL119549  43.913   5.916   8.853
 6339POPC   GL219550  43.895   6.016   8.853
 6339POPC   C1A19551  43.916   5.823   8.553
 6339POPC   D2A19552  43.901   5.894   8.253
 6339POPC   C3A19553  43.914   5.851   7.953
 6339POPC   C4A19554  43.850   5.861   7.653
 6339POPC   C1B19555  43.972   6.138   8.553
 6339POPC   C2B19556  44.017   6.047   8.253
 6339POPC   C3B19557  43.979   6.146   7.953
 6339POPC   C4B19558  44.012   6.105   7.653
 6340POPC   NC319559  21.434  25.279   9.453
 6340POPC   PO419560  21.365  25.306   9.153
 6340POPC   GL119561  21.344  25.304   8.853
 6340POPC   GL219562  21.494  25.348   8.853
 6340POPC   C1A19563  21.372  25.297   8.553
 6340POPC   D2A19564  21.409  25.222   8.253
 6340POPC   C3A19565  21.419  25.293   7.953
 6340POPC   C4A19566  21.371  25.278   7.653
 6340POPC   C1B19567  21.609  25.428   8.553
 6340POPC   C2B19568  21.567  25.425   8.253
 6340POPC   C3B19569  21.612  25.434   7.953
 6340POPC   C4B19570  21.536  25.416   7.653
 6341POPC   NC319571  42.316  23.720   9.453
 6341POPC   PO419572  42.365  23.764   9.153
 6341POPC   GL119573  42.330  23.756   8.853
 6341POPC   GL219574  42.377  23.642   8.853
 6341POPC   C1A19575  42.335  23.731   8.553
 6341POPC   D2A19576  42.336  23.685   8.253
 6341POPC   C3A19577  42.378  23.754   7.953
 6341POPC   C4A19578  42.306  23.673   7.653
 6341POPC   C1B19579  42.387  23.431   8.553
 6341POPC   C2B19580  42.397  23.521   8.253
 6341POPC   C3B19581  42.373  23.518   7.953
 6341POPC   C4B19582  42.396  23.510   7.653
 6342POPC   NC319583  41.592  22.158   9.453
 6342POPC   PO419584  41.558  22.152   9.153
 6342POPC   GL119585  41.553  22.150   8.853
 6342POPC   GL219586  41.616  22.054   8.853
 6342POPC   C1A19587  41.599  22.171   8.553
 6342POPC   D2A19588  41.514  22.177   8.253
 6342POPC   C3A19589  41.579  22.203   7.953
 6342POPC   C4A19590  41.509  22.171   7.653
 6342POPC   C1B19591  41.667  21.948   8.553
 6342POPC   C2B19592  41.693  21.912   8.253
 6342POPC   C3B19593  41.656  21.934   7.953
 6342POPC   C4B19594  41.731  21.986   7.653
 6343POPC   NC319595   9.782   1.223   9.453
 6343POPC   PO419596   9.735   1.223   9.153
 6343POPC   GL119597   9.797   1.193   8.853
 6343POPC   GL219598   9.663   1.319   8.853
 6343POPC   C1A19599   9.793   1.241   8.553
 6343POPC   D2A19600   9.701   1.226   8.253
 6343POPC   C3A19601   9.707   1.186   7.953
 6343POPC   C4A19602   9.717   1.197   7.653
 6343POPC   C1B19603   9.670   1.475   8.553
 6343POPC   C2B19604   9.680   1.436   8.253
 6343POPC   C3B19605   9.590   1.447   7.953
 6343POPC   C4B19606   9.631   1.434   7.653
 6344POPC   NC319607  18.315  35.395   9.453
 6344POPC   PO419608  18.263  35.305   9.153
 6344POPC   GL119609  18.233  35.306   8.853
 6344POPC   GL219610  18.348  35.310   8.853
 6344POPC   C1A19611  18.268  35.374   8.553
 6344POPC   D2A19612  18.284  35.340   8.253
 6344POPC   C3A19613  18.313  35.358   7.953
 6344POPC   C4A19614  18.261  35.386   7.653
 6344POPC   C1B19615  18.439  35.206   8.553
 6344POPC   C2B19616  18.530  35.167   8.253
 6344POPC   C3B19617  18.440  35.249   7.953
 6344POPC   C4B19618  18.519  35.183   7.653
 6345POPC   NC319619  43.838  26.811   9.453
 6345POPC   PO419620  43.921  26.862   9.153
 6345POPC   GL119621  43.885  26.848   8.853
 6345POPC   GL219622  44.007  26.819   8.853
 6345POPC   C1A19623  43.881  26.862   8.553
 6345POPC   D2A19624  43.875  26.855   8.253
 6345POPC   C3A19625  43.852  26.810   7.953
 6345POPC   C4A19626  43.890  26.861   7.653
 6345POPC   C1B19627  44.180  26.827   8.553
 6345POPC   C2B19628  44.122  26.839   8.253
 6345POPC   C3B19629  44.101  26.802   7.953
 6345POPC   C4B19630  44.180  26.830   7.653
 6346POPC   NC319631  30.656  36.942   9.453
 6346POPC   PO419632  30.701  36.882   9.153
 6346POPC   GL119633  30.669  36.940   8.853
 6346POPC   GL219634  30.563  36.790   8.853
 6346POPC   C1A19635  30.736  36.914   8.553
 6346POPC   D2A19636  30.690  36.891   8.253
 6346POPC   C3A19637  30.667  36.897   7.953
 6346POPC   C4A19638  30.668  36.886   7.653
 6346POPC   C1B19639  30.532  36.745   8.553
 6346POPC   C2B19640  30.481  36.749   8.253
 6346POPC   C3B19641  30.512  36.763   7.953
 6346POPC   C4B19642  30.532  36.754   7.653
 6347POPC   NC319643  39.268  36.113   9.453
 6347POPC   PO419644  39.266  36.141   9.153
 6347POPC   GL119645  39.231  36.145   8.853
 6347POPC   GL219646  39.310  36.279   8.853
 6347POPC   C1A19647  39.272  36.078   8.553
 6347POPC   D2A19648  39.190  36.141   8.253
 6347POPC   C3A19649  39.240  36.081   7.953
 6347POPC   C4A19650  39.230  36.158   7.653
 6347POPC   C1B19651  39.289  36.350   8.553
 6347POPC   C2B19652  39.356  36.329   8.253
 6347POPC   C3B19653  39.301  36.402   7.953
 6347POPC   C4B19654  39.343  36.323   7.653
 6348POPC   NC319655  10.481  20.572   9.453
 6348POPC   PO419656  10.499  20.594   9.153
 6348POPC   GL119657  10.527  20.573   8.853
 6348POPC   GL219658  10.668  20.583   8.853
 6348POPC   C1A19659  10.478  20.578   8.553
 6348POPC   D2A19660  10.556  20.619   8.253
 6348POPC   C3A19661  10.545  20.648   7.953
 6348POPC   C4A19662  10.561  20.586   7.653
 6348POPC   C1B19663  10.763  20.687   8.553
 6348POPC   C2B19664  10.764  20.671   8.253
 6348POPC   C3B19665  10.726  20.691   7.953
 6348POPC   C4B19666  10.772  20.595   7.653
 6349POPC   NC319667  36.916  38.501   9.453
 6349POPC   PO419668  36.921  38.442   9.153
 6349POPC   GL119669  36.872  38.471   8.853
 6349POPC   GL219670  36.836  38.471   8.853
 6349POPC   C1A19671  36.879  38.431   8.553
 6349POPC   D2A19672  36.932  38.491   8.253
 6349POPC   C3A19673  36.907  38.475   7.953
 6349POPC   C4A19674  36.933  38.458   7.653
 6349POPC   C1B19675  36.720  38.545   8.553
 6349POPC   C2B19676  36.656  38.611   8.253
 6349POPC   C3B19677  36.676  38.577   7.953
 6349POPC   C4B19678  36.664  38.622   7.653
 6350POPC   NC319679  19.021  36.933   9.453
 6350POPC   PO419680  19.009  36.883   9.153
 6350POPC   GL119681  19.099  36.859   8.853
 6350POPC   GL219682  19.136  37.062   8.853
 6350POPC   C1A19683  19.092  36.943   8.553
 6350POPC   D2A19684  19.030  36.863   8.253
 6350POPC   C3A19685  19.009  36.882   7.953
 6350POPC   C4A19686  19.089  36.857   7.653
 6350POPC   C1B19687  19.166  37.144   8.553
 6350POPC   C2B19688  19.169  37.107   8.253
 6350POPC   C3B19689  19.174  37.148   7.953
 6350POPC   C4B19690  19.203  37.101   7.653
 6351POPC   NC319691   6.598  19.858   9.453
 6351POPC   PO419692   6.602  19.819   9.153
 6351POPC   GL119693   6.595  19.884   8.853
 6351POPC   GL219694   6.793  19.849   8.853
 6351POPC   C1A19695   6.631  19.793   8.553
 6351POPC   D2A19696   6.653  19.851   8.253
 6351POPC   C3A19697   6.626  19.792   7.953
 6351POPC   C4A19698   6.657  19.881   7.653
 6351POPC   C1B19699   6.920  19.857   8.553
 6351POPC   C2B19700   6.888  19.859   8.253
 6351POPC   C3B19701   6.912  19.870   7.953
 6351POPC   C4B19702   6.841  19.846   7.653
 6352POPC   NC319703  15.970   8.176   9.453
 6352POPC   PO419704  15.987   8.241   9.153
 6352POPC   GL119705  15.956   8.209   8.853
 6352POPC   GL219706  15.808   8.195   8.853
 6352POPC   C1A19707  15.960   8.170   8.553
 6352POPC   D2A19708  15.946   8.177   8.253
 6352POPC   C3A19709  15.986   8.221   7.953
 6352POPC   C4A19710  16.001   8.151   7.653
 6352POPC   C1B19711  15.735   8.134   8.553
 6352POPC   C2B19712  15.675   8.205   8.253
 6352POPC   C3B19713  15.740   8.157   7.953
 6352POPC   C4B19714  15.723   8.217   7.653
 6353POPC   NC319715   5.832  38.478   9.453
 6353POPC   PO419716   5.840  38.432   9.153
 6353POPC   GL119717   5.888  38.413   8.853
 6353POPC   GL219718   5.949  38.584   8.853
 6353POPC   C1A19719   5.891  38.504   8.553
 6353POPC   D2A19720   5.822  38.431   8.253
 6353POPC   C3A19721   5.894  38.493   7.953
 6353POPC   C4A19722   5.858  38.465   7.653
 6353POPC   C1B19723   5.957  38.685   8.553
 6353POPC   C2B19724   5.996  38.697   8.253
 6353POPC   C3B19725   5.920  38.711   7.953
 6353POPC   C4B19726   5.938  38.657   7.653
 6354POPC   NC319727  17.499  29.927   9.453
 6354POPC   PO419728  17.472  29.957   9.153
 6354POPC   GL119729  17.506  29.904   8.853
 6354POPC   GL219730  17.515  29.851   8.853
 6354POPC   C1A19731  17.529  29.908   8.553
 6354POPC   D2A19732  17.493  29.929   8.253
 6354POPC   C3A19733  17.487  29.890   7.953
 6354POPC   C4A19734  17.488  29.950   7.653
 6354POPC   C1B19735  17.569  29.664   8.553
 6354POPC   C2B19736  17.650  29.683   8.253
 6354POPC   C3B19737  17.574  29.672   7.953
 6354POPC   C4B19738  17.608  29.658   7.653
 6355POPC   NC319739  37.710  23.686   9.453
 6355POPC   PO419740  37.645  23.685   9.153
 6355POPC   GL119741  37.673  23.733   8.853
 6355POPC   GL219742  37.637  23.626   8.853
 6355POPC   C1A19743  37.636  23.760   8.553
 6355POPC   D2A19744  37.703  23.710   8.253
 6355POPC   C3A19745  37.718  23.674   7.953
 6355POPC   C4A19746  37.722  23.690   7.653
 6355POPC   C1B19747  37.610  23.509   8.553
 6355POPC   C2B19748  37.648  23.511   8.253
 6355POPC   C3B19749  37.654  23.468   7.953
 6355POPC   C4B19750  37.584  23.496   7.653
 6356POPC   NC319751   9.730  12.882   9.453
 6356POPC   PO419752   9.766  12.823   9.153
 6356POPC   GL119753   9.788  12.891   8.853
 6356POPC   GL219754   9.753  12.718   8.853
 6356POPC   C1A19755   9.743  12.826   8.553
 6356POPC   D2A19756   9.732  12.851   8.253
 6356POPC   C3A19757   9.775  12.814   7.953
 6356POPC   C4A19758   9.770  12.863   7.653
 6356POPC   C1B19759   9.729  12.558   8.553
 6356POPC   C2B19760   9.689  12.642   8.253
 6356POPC   C3B19761   9.677  12.596   7.953
 6356POPC   C4B19762   9.679  12.554   7.653
 6357POPC   NC319763   0.436  41.544   9.453
 6357POPC   PO419764   0.458  41.545   9.153
 6357POPC   GL119765   0.405  41.512   8.853
 6357POPC   GL219766   0.503  41.694   8.853
 6357POPC   C1A19767   0.434  41.567   8.553
 6357POPC   D2A19768   0.391  41.536   8.253
 6357POPC   C3A19769   0.403  41.521   7.953
 6357POPC   C4A19770   0.448  41.606   7.653
 6357POPC   C1B19771   0.575  41.714   8.553
 6357POPC   C2B19772   0.649  41.699   8.253
 6357POPC   C3B19773   0.573  41.760   7.953
 6357POPC   C4B19774   0.645  41.730   7.653
 6358POPC   NC319775  37.652  40.792   9.453
 6358POPC   PO419776  37.726  40.828   9.153
 6358POPC   GL119777  37.633  40.740   8.853
 6358POPC   GL219778  37.786  40.854   8.853
 6358POPC   C1A19779  37.658  40.809   8.553
 6358POPC   D2A19780  37.687  40.778   8.253
 6358POPC   C3A19781  37.681  40.762   7.953
 6358POPC   C4A19782  37.715  40.745   7.653
 6358POPC   C1B19783  37.876  40.871   8.553
 6358POPC   C2B19784  37.900  40.868   8.253
 6358POPC   C3B19785  37.858  40.946   7.953
 6358POPC   C4B19786  37.858  40.876   7.653
 6359POPC   NC319787  37.690   8.948   9.453
 6359POPC   PO419788  37.685   8.989   9.153
 6359POPC   GL119789  37.648   8.983   8.853
 6359POPC   GL219790  37.833   8.938   8.853
 6359POPC   C1A19791  37.632   8.969   8.553
 6359POPC   D2A19792  37.686   9.001   8.253
 6359POPC   C3A19793  37.710   9.007   7.953
 6359POPC   C4A19794  37.661   8.934   7.653
 6359POPC   C1B19795  37.920   8.873   8.553
 6359POPC   C2B19796  37.929   8.835   8.253
 6359POPC   C3B19797  37.878   8.840   7.953
 6359POPC   C4B19798  37.877   8.875   7.653
 6360POPC   NC319799  21.352  41.558   9.453
 6360POPC   PO419800  21.381  41.512   9.153
 6360POPC   GL119801  21.434  41.529   8.853
 6360POPC   GL219802  21.480  41.501   8.853
 6360POPC   C1A19803  21.428  41.517   8.553
 6360POPC   D2A19804  21.363  41.566   8.253
 6360POPC   C3A19805  21.419  41.518   7.953
 6360POPC   C4A19806  21.431  41.528   7.653
 6360POPC   C1B19807  21.604  41.382   8.553
 6360POPC   C2B19808  21.535  41.424   8.253
 6360POPC   C3B19809  21.550  41.354   7.953
 6360POPC   C4B19810  21.561  41.390   7.653
 6361POPC   NC319811   3.578  33.021   9.453
 6361POPC   PO419812   3.549  33.062   9.153
 6361POPC   GL119813   3.578  33.011   8.853
 6361POPC   GL219814   3.670  33.051   8.853
 6361POPC   C1A19815   3.559  32.975   8.553
 6361POPC   D2A19816   3.518  33.032   8.253
 6361POPC   C3A19817   3.559  33.004   7.953
 6361POPC   C4A19818   3.509  33.029   7.653
 6361POPC   C1B19819   3.785  33.057   8.553
 6361POPC   C2B19820   3.836  33.064   8.253
 6361POPC   C3B19821   3.744  33.077   7.953
 6361POPC   C4B19822   3.834  33.036   7.653
 6362POPC   NC319823   3.582  41.587   9.453
 6362POPC   PO419824   3.587  41.599   9.153
 6362POPC   GL119825   3.579  41.554   8.853
 6362POPC   GL219826   3.424  41.665   8.853
 6362POPC   C1A19827   3.534  41.560   8.553
 6362POPC   D2A19828   3.559  41.588   8.253
 6362POPC   C3A19829   3.590  41.556   7.953
 6362POPC   C4A19830   3.519  41.553   7.653
 6362POPC   C1B19831   3.377  41.736   8.553
 6362POPC   C2B19832   3.374  41.715   8.253
 6362POPC   C3B19833   3.333  41.650   7.953
 6362POPC   C4B19834   3.291  41.731   7.653
 6363POPC   NC319835   5.820  13.667   9.453
 6363POPC   PO419836   5.902  13.593   9.153
 6363POPC   GL119837   5.907  13.664   8.853
 6363POPC   GL219838   5.943  13.648   8.853
 6363POPC   C1A19839   5.900  13.613   8.553
 6363POPC   D2A19840   5.895  13.653   8.253
 6363POPC   C3A19841   5.913  13.589   7.953
 6363POPC   C4A19842   5.861  13.650   7.653
 6363POPC   C1B19843   6.063  13.692   8.553
 6363POPC   C2B19844   6.121  13.708   8.253
 6363POPC   C3B19845   6.081  13.682   7.953
 6363POPC   C4B19846   6.089  13.718   7.653
 6364POPC   NC319847   9.767  39.989   9.453
 6364POPC   PO419848   9.783  39.988   9.153
 6364POPC   GL119849   9.785  40.022   8.853
 6364POPC   GL219850   9.906  40.031   8.853
 6364POPC   C1A19851   9.772  39.964   8.553
 6364POPC   D2A19852   9.798  39.975   8.253
 6364POPC   C3A19853   9.763  40.052   7.953
 6364POPC   C4A19854   9.750  39.957   7.653
 6364POPC   C1B19855   9.989  40.096   8.553
 6364POPC   C2B19856  10.043  40.018   8.253
 6364POPC   C3B19857   9.995  40.088   7.953
 6364POPC   C4B19858  10.005  40.014   7.653
 6365POPC   NC319859  22.170  17.510   9.453
 6365POPC   PO419860  22.148  17.517   9.153
 6365POPC   GL119861  22.142  17.521   8.853
 6365POPC   GL219862  22.223  17.355   8.853
 6365POPC   C1A19863  22.179  17.465   8.553
 6365POPC   D2A19864  22.154  17.477   8.253
 6365POPC   C3A19865  22.167  17.493   7.953
 6365POPC   C4A19866  22.194  17.546   7.653
 6365POPC   C1B19867  22.202  17.241   8.553
 6365POPC   C2B19868  22.199  17.287   8.253
 6365POPC   C3B19869  22.226  17.262   7.953
 6365POPC   C4B19870  22.214  17.275   7.653
 6366POPC   NC319871  21.428   5.868   9.453
 6366POPC   PO419872  21.402   5.826   9.153
 6366POPC   GL119873  21.410   5.834   8.853
 6366POPC   GL219874  21.365   5.950   8.853
 6366POPC   C1A19875  21.348   5.867   8.553
 6366POPC   D2A19876  21.377   5.891   8.253
 6366POPC   C3A19877  21.360   5.851   7.953
 6366POPC   C4A19878  21.362   5.820   7.653
 6366POPC   C1B19879  21.371   6.158   8.553
 6366POPC   C2B19880  21.365   6.117   8.253
 6366POPC   C3B19881  21.426   6.145   7.953
 6366POPC   C4B19882  21.380   6.150   7.653
 6367POPC   NC319883  26.038  36.924   9.453
 6367POPC   PO419884  26.030  36.916   9.153
 6367POPC   GL119885  26.017  36.907   8.853
 6367POPC   GL219886  25.991  37.040   8.853
 6367POPC   C1A19887  26.021  36.881   8.553
 6367POPC   D2A19888  26.050  36.944   8.253
 6367POPC   C3A19889  26.018  36.869   7.953
 6367POPC   C4A19890  26.056  36.868   7.653
 6367POPC   C1B19891  25.922  37.127   8.553
 6367POPC   C2B19892  25.889  37.046   8.253
 6367POPC   C3B19893  25.898  37.086   7.953
 6367POPC   C4B19894  25.890  37.059   7.653
 6368POPC   NC319895  12.854  15.158   9.453
 6368POPC   PO419896  12.877  15.156   9.153
 6368POPC   GL119897  12.848  15.201   8.853
 6368POPC   GL219898  12.804  15.333   8.853
 6368POPC   C1A19899  12.831  15.213   8.553
 6368POPC   D2A19900  12.832  15.184   8.253
 6368POPC   C3A19901  12.856  15.187   7.953
 6368POPC   C4A19902  12.829  15.186   7.653
 6368POPC   C1B19903  12.872  15.459   8.553
 6368POPC   C2B19904  12.809  15.457   8.253
 6368POPC   C3B19905  12.860  15.449   7.953
 6368POPC   C4B19906  12.829  15.407   7.653
 6369POPC   NC319907  36.927  26.046   9.453
 6369POPC   PO419908  36.886  26.045   9.153
 6369POPC   GL119909  36.901  26.042   8.853
 6369POPC   GL219910  36.781  26.030   8.853
 6369POPC   C1A19911  36.953  26.056   8.553
 6369POPC   D2A19912  36.883  25.992   8.253
 6369POPC   C3A19913  36.952  26.046   7.953
 6369POPC   C4A19914  36.933  26.062   7.653
 6369POPC   C1B19915  36.625  26.110   8.553
 6369POPC   C2B19916  36.612  26.049   8.253
 6369POPC   C3B19917  36.705  26.106   7.953
 6369POPC   C4B19918  36.637  26.113   7.653
 6370POPC   NC319919  35.394  36.933   9.453
 6370POPC   PO419920  35.345  36.858   9.153
 6370POPC   GL119921  35.369  36.869   8.853
 6370POPC   GL219922  35.198  36.917   8.853
 6370POPC   C1A19923  35.370  36.906   8.553
 6370POPC   D2A19924  35.378  36.913   8.253
 6370POPC   C3A19925  35.348  36.858   7.953
 6370POPC   C4A19926  35.397  36.950   7.653
 6370POPC   C1B19927  35.083  36.958   8.553
 6370POPC   C2B19928  35.136  36.956   8.253
 6370POPC   C3B19929  35.120  36.993   7.953
 6370POPC   C4B19930  35.107  36.912   7.653
 6371POPC   NC319931  19.877   7.443   9.453
 6371POPC   PO419932  19.875   7.438   9.153
 6371POPC   GL119933  19.800   7.375   8.853
 6371POPC   GL219934  19.980   7.502   8.853
 6371POPC   C1A19935  19.828   7.444   8.553
 6371POPC   D2A19936  19.865   7.413   8.253
 6371POPC   C3A19937  19.790   7.445   7.953
 6371POPC   C4A19938  19.832   7.469   7.653
 6371POPC   C1B19939  20.116   7.461   8.553
 6371POPC   C2B19940  20.047   7.443   8.253
 6371POPC   C3B19941  20.034   7.530   7.953
 6371POPC   C4B19942  20.035   7.454   7.653
 6372POPC   NC319943  36.924  32.286   9.453
 6372POPC   PO419944  36.941  32.271   9.153
 6372POPC   GL119945  36.874  32.258   8.853
 6372POPC   GL219946  37.046  32.218   8.853
 6372POPC   C1A19947  36.900  32.212   8.553
 6372POPC   D2A19948  36.908  32.285   8.253
 6372POPC   C3A19949  36.922  32.276   7.953
 6372POPC   C4A19950  36.946  32.219   7.653
 6372POPC   C1B19951  37.113  32.152   8.553
 6372POPC   C2B19952  37.162  32.167   8.253
 6372POPC   C3B19953  37.166  32.157   7.953
 6372POPC   C4B19954  37.190  32.208   7.653
 6373POPC   NC319955  22.135  35.331   9.453
 6373POPC   PO419956  22.172  35.324   9.153
 6373POPC   GL119957  22.155  35.306   8.853
 6373POPC   GL219958  22.109  35.446   8.853
 6373POPC   C1A19959  22.114  35.318   8.553
 6373POPC   D2A19960  22.185  35.314   8.253
 6373POPC   C3A19961  22.113  35.357   7.953
 6373POPC   C4A19962  22.194  35.358   7.653
 6373POPC   C1B19963  21.987  35.461   8.553
 6373POPC   C2B19964  21.951  35.522   8.253
 6373POPC   C3B19965  21.936  35.537   7.953
 6373POPC   C4B19966  21.944  35.475   7.653
 6374POPC   NC319967  30.720   6.666   9.453
 6374POPC   PO419968  30.711   6.651   9.153
 6374POPC   GL119969  30.724   6.614   8.853
 6374POPC   GL219970  30.631   6.547   8.853
 6374POPC   C1A19971  30.713   6.596   8.553
 6374POPC   D2A19972  30.721   6.629   8.253
 6374POPC   C3A19973  30.746   6.619   7.953
 6374POPC   C4A19974  30.714   6.622   7.653
 6374POPC   C1B19975  30.445   6.591   8.553
 6374POPC   C2B19976  30.430   6.555   8.253
 6374POPC   C3B19977  30.451   6.535   7.953
 6374POPC   C4B19978  30.423   6.536   7.653
 6375POPC   NC319979   1.202  41.535   9.453
 6375POPC   PO419980   1.211  41.512   9.153
 6375POPC   GL119981   1.213  41.531   8.853
 6375POPC   GL219982   1.188  41.675   8.853
 6375POPC   C1A19983   1.238  41.531   8.553
 6375POPC   D2A19984   1.198  41.547   8.253
 6375POPC   C3A19985   1.176  41.571   7.953
 6375POPC   C4A19986   1.165  41.548   7.653
 6375POPC   C1B19987   1.201  41.832   8.553
 6375POPC   C2B19988   1.231  41.772   8.253
 6375POPC   C3B19989   1.207  41.835   7.953
 6375POPC   C4B19990   1.198  41.836   7.653
 6376POPC   NC319991  31.504  38.445   9.453
 6376POPC   PO419992  31.451  38.476   9.153
 6376POPC   GL119993  31.470  38.500   8.853
 6376POPC   GL219994  31.457  38.371   8.853
 6376POPC   C1A19995  31.450  38.494   8.553
 6376POPC   D2A19996  31.507  38.427   8.253
 6376POPC   C3A19997  31.430  38.486   7.953
 6376POPC   C4A19998  31.444  38.460   7.653
 6376POPC   C1B19999  31.455  38.200   8.553
 6376POPC   C2B20000  31.493  38.185   8.253
 6376POPC   C3B20001  31.499  38.168   7.953
 6376POPC   C4B20002  31.505  38.185   7.653
 6377POPC   NC320003  12.053  42.376   9.453
 6377POPC   PO420004  12.109  42.326   9.153
 6377POPC   GL120005  12.086  42.322   8.853
 6377POPC   GL220006  12.147  42.296   8.853
 6377POPC   C1A20007  12.050  42.329   8.553
 6377POPC   D2A20008  12.038  42.313   8.253
 6377POPC   C3A20009  12.123  42.305   7.953
 6377POPC   C4A20010  12.089  42.361   7.653
 6377POPC   C1B20011  12.271  42.154   8.553
 6377POPC   C2B20012  12.300  42.190   8.253
 6377POPC   C3B20013  12.257  42.216   7.953
 6377POPC   C4B20014  12.246  42.192   7.653
 6378POPC   NC320015   1.245   0.428   9.453
 6378POPC   PO420016   1.180   0.398   9.153
 6378POPC   GL120017   1.226   0.462   8.853
 6378POPC   GL220018   1.092   0.387   8.853
 6378POPC   C1A20019   1.229   0.437   8.553
 6378POPC   D2A20020   1.252   0.461   8.253
 6378POPC   C3A20021   1.173   0.451   7.953
 6378POPC   C4A20022   1.201   0.405   7.653
 6378POPC   C1B20023   0.963   0.352   8.553
 6378POPC   C2B20024   1.005   0.409   8.253
 6378POPC   C3B20025   0.919   0.431   7.953
 6378POPC   C4B20026   0.918   0.394   7.653
 6379POPC   NC320027   4.349  36.937   9.453
 6379POPC   PO420028   4.299  36.855   9.153
 6379POPC   GL120029   4.336  36.869   8.853
 6379POPC   GL220030   4.316  36.778   8.853
 6379POPC   C1A20031   4.291  36.864   8.553
 6379POPC   D2A20032   4.349  36.855   8.253
 6379POPC   C3A20033   4.325  36.882   7.953
 6379POPC   C4A20034   4.350  36.930   7.653
 6379POPC   C1B20035   4.394  36.706   8.553
 6379POPC   C2B20036   4.350  36.652   8.253
 6379POPC   C3B20037   4.421  36.622   7.953
 6379POPC   C4B20038   4.353  36.633   7.653
 6380POPC   NC320039  22.939  13.640   9.453
 6380POPC   PO420040  22.979  13.623   9.153
 6380POPC   GL120041  22.912  13.598   8.853
 6380POPC   GL220042  23.055  13.516   8.853
 6380POPC   C1A20043  22.944  13.672   8.553
 6380POPC   D2A20044  22.979  13.617   8.253
 6380POPC   C3A20045  22.912  13.609   7.953
 6380POPC   C4A20046  22.915  13.659   7.653
 6380POPC   C1B20047  23.173  13.456   8.553
 6380POPC   C2B20048  23.166  13.471   8.253
 6380POPC   C3B20049  23.164  13.524   7.953
 6380POPC   C4B20050  23.189  13.535   7.653
 6381POPC   NC320051  24.529  43.837   9.453
 6381POPC   PO420052  24.466  43.935   9.153
 6381POPC   GL120053  24.472  43.913   8.853
 6381POPC   GL220054  24.552  44.019   8.853
 6381POPC   C1A20055  24.490  43.921   8.553
 6381POPC   D2A20056  24.457  43.866   8.253
 6381POPC   C3A20057  24.539  43.918   7.953
 6381POPC   C4A20058  24.447  43.852   7.653
 6381POPC   C1B20059  24.581  44.180   8.553
 6381POPC   C2B20060  24.560  44.106   8.253
 6381POPC   C3B20061  24.510  44.157   7.953
 6381POPC   C4B20062  24.500  44.166   7.653
 6382POPC   NC320063  44.647   0.480   9.453
 6382POPC   PO420064  44.682   0.419   9.153
 6382POPC   GL120065  44.628   0.458   8.853
 6382POPC   GL220066  44.598   0.312   8.853
 6382POPC   C1A20067  44.662   0.428   8.553
 6382POPC   D2A20068  44.646   0.465   8.253
 6382POPC   C3A20069  44.688   0.394   7.953
 6382POPC   C4A20070  44.643   0.482   7.653
 6382POPC   C1B20071  44.639   0.243   8.553
 6382POPC   C2B20072  44.565   0.226   8.253
 6382POPC   C3B20073  44.612   0.153   7.953
 6382POPC   C4B20074  44.554   0.164   7.653
 6383POPC   NC320075  14.391  15.165   9.453
 6383POPC   PO420076  14.433  15.217   9.153
 6383POPC   GL120077  14.404  15.161   8.853
 6383POPC   GL220078  14.524  15.215   8.853
 6383POPC   C1A20079  14.432  15.180   8.553
 6383POPC   D2A20080  14.418  15.226   8.253
 6383POPC   C3A20081  14.412  15.162   7.953
 6383POPC   C4A20082  14.444  15.211   7.653
 6383POPC   C1B20083  14.637  15.233   8.553
 6383POPC   C2B20084  14.620  15.291   8.253
 6383POPC   C3B20085  14.666  15.270   7.953
 6383POPC   C4B20086  14.610  15.280   7.653
 6384POPC   NC320087  17.541  25.999   9.453
 6384POPC   PO420088  17.499  26.026   9.153
 6384POPC   GL120089  17.490  26.060   8.853
 6384POPC   GL220090  17.466  25.903   8.853
 6384POPC   C1A20091  17.531  25.999   8.553
 6384POPC   D2A20092  17.497  26.016   8.253
 6384POPC   C3A20093  17.534  26.032   7.953
 6384POPC   C4A20094  17.464  26.038   7.653
 6384POPC   C1B20095  17.428  25.790   8.553
 6384POPC   C2B20096  17.438  25.837   8.253
 6384POPC   C3B20097  17.394  25.779   7.953
 6384POPC   C4B20098  17.438  25.839   7.653
 6385POPC   NC320099  17.507   0.439   9.453
 6385POPC   PO420100  17.458   0.421   9.153
 6385POPC   GL120101  17.478   0.426   8.853
 6385POPC   GL220102  17.336   0.453   8.853
 6385POPC   C1A20103  17.496   0.420   8.553
 6385POPC   D2A20104  17.522   0.425   8.253
 6385POPC   C3A20105  17.465   0.478   7.953
 6385POPC   C4A20106  17.463   0.484   7.653
 6385POPC   C1B20107  17.288   0.461   8.553
 6385POPC   C2B20108  17.256   0.454   8.253
 6385POPC   C3B20109  17.248   0.465   7.953
 6385POPC   C4B20110  17.236   0.536   7.653
 6386POPC   NC320111  37.653  38.483   9.453
 6386POPC   PO420112  37.722  38.491   9.153
 6386POPC   GL120113  37.685  38.466   8.853
 6386POPC   GL220114  37.581  38.399   8.853
 6386POPC   C1A20115  37.728  38.494   8.553
 6386POPC   D2A20116  37.709  38.473   8.253
 6386POPC   C3A20117  37.712  38.408   7.953
 6386POPC   C4A20118  37.649  38.454   7.653
 6386POPC   C1B20119  37.484  38.258   8.553
 6386POPC   C2B20120  37.499  38.354   8.253
 6386POPC   C3B20121  37.466  38.287   7.953
 6386POPC   C4B20122  37.522  38.321   7.653
 6387POPC   NC320123   4.283  41.538   9.453
 6387POPC   PO420124   4.365  41.567   9.153
 6387POPC   GL120125   4.271  41.554   8.853
 6387POPC   GL220126   4.375  41.460   8.853
 6387POPC   C1A20127   4.336  41.573   8.553
 6387POPC   D2A20128   4.288  41.589   8.253
 6387POPC   C3A20129   4.350  41.556   7.953
 6387POPC   C4A20130   4.355  41.571   7.653
 6387POPC   C1B20131   4.567  41.385   8.553
 6387POPC   C2B20132   4.507  41.436   8.253
 6387POPC   C3B20133   4.494  41.464   7.953
 6387POPC   C4B20134   4.511  41.440   7.653
 6388POPC   NC320135  26.033  19.827   9.453
 6388POPC   PO420136  26.071  19.833   9.153
 6388POPC   GL120137  26.051  19.801   8.853
 6388POPC   GL220138  26.003  20.001   8.853
 6388POPC   C1A20139  26.050  19.860   8.553
 6388POPC   D2A20140  26.011  19.876   8.253
 6388POPC   C3A20141  26.041  19.839   7.953
 6388POPC   C4A20142  26.083  19.825   7.653
 6388POPC   C1B20143  25.989  20.125   8.553
 6388POPC   C2B20144  26.029  20.063   8.253
 6388POPC   C3B20145  25.952  20.100   7.953
 6388POPC   C4B20146  26.005  20.108   7.653
 6389POPC   NC320147  40.011  29.099   9.453
 6389POPC   PO420148  40.024  29.125   9.153
 6389POPC   GL120149  39.995  29.110   8.853
 6389POPC   GL220150  39.850  29.040   8.853
 6389POPC   C1A20151  40.046  29.179   8.553
 6389POPC   D2A20152  39.995  29.116   8.253
 6389POPC   C3A20153  40.026  29.183   7.953
 6389POPC   C4A20154  39.960  29.122   7.653
 6389POPC   C1B20155  39.754  29.079   8.553
 6389POPC   C2B20156  39.754  29.034   8.253
 6389POPC   C3B20157  39.735  29.027   7.953
 6389POPC   C4B20158  39.804  29.018   7.653
 6390POPC   NC320159  13.605  12.065   9.453
 6390POPC   PO420160  13.674  12.081   9.153
 6390POPC   GL120161  13.584  12.031   8.853
 6390POPC   GL220162  13.752  12.156   8.853
 6390POPC   C1A20163  13.582  12.042   8.553
 6390POPC   D2A20164  13.646  12.061   8.253
 6390POPC   C3A20165  13.633  12.028   7.953
 6390POPC   C4A20166  13.673  12.054   7.653
 6390POPC   C1B20167  13.850  12.206   8.553
 6390POPC   C2B20168  13.778  12.270   8.253
 6390POPC   C3B20169  13.814  12.247   7.953
 6390POPC   C4B20170  13.793  12.240   7.653
 6391POPC   NC320171  19.853  18.312   9.453
 6391POPC   PO420172  19.785  18.251   9.153
 6391POPC   GL120173  19.840  18.241   8.853
 6391POPC   GL220174  19.962  18.326   8.853
 6391POPC   C1A20175  19.854  18.327   8.553
 6391POPC   D2A20176  19.864  18.285   8.253
 6391POPC   C3A20177  19.799  18.329   7.953
 6391POPC   C4A20178  19.820  18.328   7.653
 6391POPC   C1B20179  20.077  18.324   8.553
 6391POPC   C2B20180  20.083  18.335   8.253
 6391POPC   C3B20181  20.041  18.313   7.953
 6391POPC   C4B20182  20.093  18.319   7.653
 6392POPC   NC320183  29.928  31.469   9.453
 6392POPC   PO420184  29.901  31.505   9.153
 6392POPC   GL120185  29.888  31.453   8.853
 6392POPC   GL220186  29.890  31.591   8.853
 6392POPC   C1A20187  29.957  31.455   8.553
 6392POPC   D2A20188  29.914  31.509   8.253
 6392POPC   C3A20189  29.948  31.447   7.953
 6392POPC   C4A20190  29.903  31.497   7.653
 6392POPC   C1B20191  29.868  31.710   8.553
 6392POPC   C2B20192  29.827  31.662   8.253
 6392POPC   C3B20193  29.868  31.668   7.953
 6392POPC   C4B20194  29.827  31.735   7.653
 6393POPC   NC320195  33.843  14.390   9.453
 6393POPC   PO420196  33.819  14.380   9.153
 6393POPC   GL120197  33.803  14.417   8.853
 6393POPC   GL220198  33.699  14.350   8.853
 6393POPC   C1A20199  33.847  14.369   8.553
 6393POPC   D2A20200  33.783  14.450   8.253
 6393POPC   C3A20201  33.831  14.366   7.953
 6393POPC   C4A20202  33.779  14.354   7.653
 6393POPC   C1B20203  33.639  14.172   8.553
 6393POPC   C2B20204  33.684  14.228   8.253
 6393POPC   C3B20205  33.650  14.246   7.953
 6393POPC   C4B20206  33.652  14.181   7.653
 6394POPC   NC320207  29.166  17.509   9.453
 6394POPC   PO420208  29.159  17.499   9.153
 6394POPC   GL120209  29.129  17.554   8.853
 6394POPC   GL220210  29.205  17.637   8.853
 6394POPC   C1A20211  29.107  17.515   8.553
 6394POPC   D2A20212  29.127  17.467   8.253
 6394POPC   C3A20213  29.141  17.494   7.953
 6394POPC   C4A20214  29.172  17.525   7.653
 6394POPC   C1B20215  29.327  17.735   8.553
 6394POPC   C2B20216  29.362  17.706   8.253
 6394POPC   C3B20217  29.324  17.698   7.953
 6394POPC   C4B20218  29.317  17.651   7.653
 6395POPC   NC320219  38.493  39.200   9.453
 6395POPC   PO420220  38.477  39.254   9.153
 6395POPC   GL120221  38.449  39.228   8.853
 6395POPC   GL220222  38.475  39.133   8.853
 6395POPC   C1A20223  38.452  39.275   8.553
 6395POPC   D2A20224  38.488  39.214   8.253
 6395POPC   C3A20225  38.502  39.272   7.953
 6395POPC   C4A20226  38.504  39.272   7.653
 6395POPC   C1B20227  38.393  38.946   8.553
 6395POPC   C2B20228  38.432  38.987   8.253
 6395POPC   C3B20229  38.420  39.026   7.953
 6395POPC   C4B20230  38.358  38.957   7.653
 6396POPC   NC320231   4.366  44.637   9.453
 6396POPC   PO420232   4.334  44.658   9.153
 6396POPC   GL120233   4.367  44.642   8.853
 6396POPC   GL220234   4.416  44.654   8.853
 6396POPC   C1A20235   4.308  44.657   8.553
 6396POPC   D2A20236   4.322  44.652   8.253
 6396POPC   C3A20237   4.299  44.623   7.953
 6396POPC   C4A20238   4.357  44.678   7.653
 6396POPC   C1B20239   4.591  44.636   8.553
 6396POPC   C2B20240   4.577  44.657   8.253
 6396POPC   C3B20241   4.554  44.674   7.953
 6396POPC   C4B20242   4.600  44.658   7.653
 6397POPC   NC320243  25.256  14.381   9.453
 6397POPC   PO420244  25.262  14.363   9.153
 6397POPC   GL120245  25.308  14.368   8.853
 6397POPC   GL220246  25.299  14.336   8.853
 6397POPC   C1A20247  25.261  14.383   8.553
 6397POPC   D2A20248  25.264  14.413   8.253
 6397POPC   C3A20249  25.305  14.388   7.953
 6397POPC   C4A20250  25.310  14.410   7.653
 6397POPC   C1B20251  25.372  14.204   8.553
 6397POPC   C2B20252  25.345  14.234   8.253
 6397POPC   C3B20253  25.361  14.171   7.953
 6397POPC   C4B20254  25.421  14.200   7.653
 6398POPC   NC320255  11.339  11.310   9.453
 6398POPC   PO420256  11.293  11.260   9.153
 6398POPC   GL120257  11.350  11.323   8.853
 6398POPC   GL220258  11.424  11.251   8.853
 6398POPC   C1A20259  11.292  11.253   8.553
 6398POPC   D2A20260  11.268  11.329   8.253
 6398POPC   C3A20261  11.291  11.275   7.953
 6398POPC   C4A20262  11.263  11.312   7.653
 6398POPC   C1B20263  11.558  11.245   8.553
 6398POPC   C2B20264  11.545  11.241   8.253
 6398POPC   C3B20265  11.586  11.225   7.953
 6398POPC   C4B20266  11.587  11.312   7.653
 6399POPC   NC320267  39.245   8.997   9.453
 6399POPC   PO420268  39.212   8.967   9.153
 6399POPC   GL120269  39.256   8.957   8.853
 6399POPC   GL220270  39.075   8.956   8.853
 6399POPC   C1A20271  39.243   8.964   8.553
 6399POPC   D2A20272  39.258   8.934   8.253
 6399POPC   C3A20273  39.217   8.981   7.953
 6399POPC   C4A20274  39.192   8.987   7.653
 6399POPC   C1B20275  39.033   8.855   8.553
 6399POPC   C2B20276  38.971   8.888   8.253
 6399POPC   C3B20277  38.955   8.875   7.953
 6399POPC   C4B20278  38.980   8.913   7.653
 6400POPC   NC320279   3.562   6.595   9.453
 6400POPC   PO420280   3.575   6.663   9.153
 6400POPC   GL120281   3.517   6.691   8.853
 6400POPC   GL220282   3.493   6.718   8.853
 6400POPC   C1A20283   3.533   6.613   8.553
 6400POPC   D2A20284   3.589   6.617   8.253
 6400POPC   C3A20285   3.528   6.655   7.953
 6400POPC   C4A20286   3.528   6.616   7.653
 6400POPC   C1B20287   3.432   6.871   8.553
 6400POPC   C2B20288   3.423   6.905   8.253
 6400POPC   C3B20289   3.500   6.854   7.953
 6400POPC   C4B20290   3.477   6.870   7.653
 6401POPC   NC320291  23.763  37.633   9.453
 6401POPC   PO420292  23.683  37.633   9.153
 6401POPC   GL120293  23.721  37.722   8.853
 6401POPC   GL220294  23.673  37.628   8.853
 6401POPC   C1A20295  23.697  37.721   8.553
 6401POPC   D2A20296  23.718  37.696   8.253
 6401POPC   C3A20297  23.764  37.640   7.953
 6401POPC   C4A20298  23.756  37.685   7.653
 6401POPC   C1B20299  23.531  37.526   8.553
 6401POPC   C2B20300  23.572  37.460   8.253
 6401POPC   C3B20301  23.535  37.513   7.953
 6401POPC   C4B20302  23.571  37.483   7.653
 6402POPC   NC320303  19.810   8.192   9.453
 6402POPC   PO420304  19.789   8.243   9.153
 6402POPC   GL120305  19.803   8.158   8.853
 6402POPC   GL220306  19.857   8.130   8.853
 6402POPC   C1A20307  19.840   8.217   8.553
 6402POPC   D2A20308  19.824   8.224   8.253
 6402POPC   C3A20309  19.795   8.211   7.953
 6402POPC   C4A20310  19.873   8.193   7.653
 6402POPC   C1B20311  19.944   7.983   8.553
 6402POPC   C2B20312  19.941   8.007   8.253
 6402POPC   C3B20313  19.978   7.949   7.953
 6402POPC   C4B20314  19.941   7.958   7.653
 6403POPC   NC320315  33.066  15.927   9.453
 6403POPC   PO420316  33.043  16.002   9.153
 6403POPC   GL120317  32.995  15.955   8.853
 6403POPC   GL220318  33.010  16.067   8.853
 6403POPC   C1A20319  33.002  15.905   8.553
 6403POPC   D2A20320  33.009  15.990   8.253
 6403POPC   C3A20321  33.010  15.946   7.953
 6403POPC   C4A20322  32.981  15.935   7.653
 6403POPC   C1B20323  33.014  16.184   8.553
 6403POPC   C2B20324  32.981  16.225   8.253
 6403POPC   C3B20325  33.027  16.226   7.953
 6403POPC   C4B20326  33.015  16.175   7.653
 6404POPC   NC320327  16.700  29.906   9.453
 6404POPC   PO420328  16.778  29.889   9.153
 6404POPC   GL120329  16.688  29.920   8.853
 6404POPC   GL220330  16.750  29.781   8.853
 6404POPC   C1A20331  16.690  29.936   8.553
 6404POPC   D2A20332  16.716  29.909   8.253
 6404POPC   C3A20333  16.762  29.906   7.953
 6404POPC   C4A20334  16.725  29.930   7.653
 6404POPC   C1B20335  16.699  29.688   8.553
 6404POPC   C2B20336  16.718  29.653   8.253
 6404POPC   C3B20337  16.656  29.665   7.953
 6404POPC   C4B20338  16.659  29.681   7.653
 6405POPC   NC320339  14.403   4.325   9.453
 6405POPC   PO420340  14.431   4.350   9.153
 6405POPC   GL120341  14.398   4.341   8.853
 6405POPC   GL220342  14.398   4.399   8.853
 6405POPC   C1A20343  14.382   4.330   8.553
 6405POPC   D2A20344  14.388   4.327   8.253
 6405POPC   C3A20345  14.444   4.335   7.953
 6405POPC   C4A20346  14.449   4.321   7.653
 6405POPC   C1B20347  14.323   4.605   8.553
 6405POPC   C2B20348  14.289   4.605   8.253
 6405POPC   C3B20349  14.313   4.564   7.953
 6405POPC   C4B20350  14.325   4.578   7.653
 6406POPC   NC320351  21.414  18.308   9.453
 6406POPC   PO420352  21.414  18.259   9.153
 6406POPC   GL120353  21.398  18.309   8.853
 6406POPC   GL220354  21.333  18.416   8.853
 6406POPC   C1A20355  21.434  18.283   8.553
 6406POPC   D2A20356  21.353  18.257   8.253
 6406POPC   C3A20357  21.405  18.289   7.953
 6406POPC   C4A20358  21.413  18.252   7.653
 6406POPC   C1B20359  21.233  18.496   8.553
 6406POPC   C2B20360  21.327  18.521   8.253
 6406POPC   C3B20361  21.313  18.469   7.953
 6406POPC   C4B20362  21.259  18.479   7.653
 6407POPC   NC320363  24.524   6.670   9.453
 6407POPC   PO420364  24.464   6.676   9.153
 6407POPC   GL120365  24.514   6.628   8.853
 6407POPC   GL220366  24.524   6.797   8.853
 6407POPC   C1A20367  24.532   6.597   8.553
 6407POPC   D2A20368  24.445   6.628   8.253
 6407POPC   C3A20369  24.536   6.670   7.953
 6407POPC   C4A20370  24.493   6.633   7.653
 6407POPC   C1B20371  24.561   6.895   8.553
 6407POPC   C2B20372  24.610   6.820   8.253
 6407POPC   C3B20373  24.639   6.830   7.953
 6407POPC   C4B20374  24.638   6.866   7.653
 6408POPC   NC320375  43.844  29.904   9.453
 6408POPC   PO420376  43.879  29.954   9.153
 6408POPC   GL120377  43.935  29.925   8.853
 6408POPC   GL220378  43.778  30.016   8.853
 6408POPC   C1A20379  43.913  29.896   8.553
 6408POPC   D2A20380  43.888  29.919   8.253
 6408POPC   C3A20381  43.920  29.944   7.953
 6408POPC   C4A20382  43.922  29.954   7.653
 6408POPC   C1B20383  43.779  30.070   8.553
 6408POPC   C2B20384  43.763  30.067   8.253
 6408POPC   C3B20385  43.696  30.086   7.953
 6408POPC   C4B20386  43.740  30.124   7.653
 6409POPC   NC320387  14.364  32.288   9.453
 6409POPC   PO420388  14.395  32.230   9.153
 6409POPC   GL120389  14.412  32.220   8.853
 6409POPC   GL220390  14.483  32.132   8.853
 6409POPC   C1A20391  14.378  32.297   8.553
 6409POPC   D2A20392  14.395  32.259   8.253
 6409POPC   C3A20393  14.449  32.237   7.953
 6409POPC   C4A20394  14.446  32.242   7.653
 6409POPC   C1B20395  14.611  32.107   8.553
 6409POPC   C2B20396  14.651  32.091   8.253
 6409POPC   C3B20397  14.655  32.078   7.953
 6409POPC   C4B20398  14.578  32.116   7.653
 6410POPC   NC320399  19.830   3.567   9.453
 6410POPC   PO420400  19.835   3.524   9.153
 6410POPC   GL120401  19.838   3.558   8.853
 6410POPC   GL220402  19.678   3.455   8.853
 6410POPC   C1A20403  19.787   3.492   8.553
 6410POPC   D2A20404  19.863   3.531   8.253
 6410POPC   C3A20405  19.841   3.523   7.953
 6410POPC   C4A20406  19.806   3.520   7.653
 6410POPC   C1B20407  19.629   3.453   8.553
 6410POPC   C2B20408  19.638   3.388   8.253
 6410POPC   C3B20409  19.627   3.403   7.953
 6410POPC   C4B20410  19.563   3.422   7.653
 6411POPC   NC320411  18.237  12.818   9.453
 6411POPC   PO420412  18.245  12.833   9.153
 6411POPC   GL120413  18.315  12.878   8.853
 6411POPC   GL220414  18.361  12.762   8.853
 6411POPC   C1A20415  18.300  12.831   8.553
 6411POPC   D2A20416  18.276  12.891   8.253
 6411POPC   C3A20417  18.269  12.826   7.953
 6411POPC   C4A20418  18.290  12.802   7.653
 6411POPC   C1B20419  18.383  12.615   8.553
 6411POPC   C2B20420  18.378  12.641   8.253
 6411POPC   C3B20421  18.328  12.611   7.953
 6411POPC   C4B20422  18.369  12.577   7.653
 6412POPC   NC320423  19.020   3.591   9.453
 6412POPC   PO420424  19.068   3.523   9.153
 6412POPC   GL120425  19.023   3.555   8.853
 6412POPC   GL220426  18.923   3.589   8.853
 6412POPC   C1A20427  19.084   3.500   8.553
 6412POPC   D2A20428  19.067   3.509   8.253
 6412POPC   C3A20429  19.011   3.569   7.953
 6412POPC   C4A20430  19.056   3.549   7.653
 6412POPC   C1B20431  18.844   3.599   8.553
 6412POPC   C2B20432  18.851   3.574   8.253
 6412POPC   C3B20433  18.850   3.594   7.953
 6412POPC   C4B20434  18.766   3.567   7.653
 6413POPC   NC320435  13.608  19.076   9.453
 6413POPC   PO420436  13.613  19.063   9.153
 6413POPC   GL120437  13.608  19.051   8.853
 6413POPC   GL220438  13.701  19.151   8.853
 6413POPC   C1A20439  13.579  19.074   8.553
 6413POPC   D2A20440  13.634  19.037   8.253
 6413POPC   C3A20441  13.598  19.095   7.953
 6413POPC   C4A20442  13.613  19.106   7.653
 6413POPC   C1B20443  13.851  19.169   8.553
 6413POPC   C2B20444  13.861  19.241   8.253
 6413POPC   C3B20445  13.857  19.258   7.953
 6413POPC   C4B20446  13.784  19.212   7.653
 6414POPC   NC320447   4.293  32.284   9.453
 6414POPC   PO420448   4.271  32.200   9.153
 6414POPC   GL120449   4.288  32.289   8.853
 6414POPC   GL220450   4.207  32.261   8.853
 6414POPC   C1A20451   4.296  32.278   8.553
 6414POPC   D2A20452   4.278  32.266   8.253
 6414POPC   C3A20453   4.313  32.236   7.953
 6414POPC   C4A20454   4.291  32.246   7.653
 6414POPC   C1B20455   4.072  32.239   8.553
 6414POPC   C2B20456   4.094  32.224   8.253
 6414POPC   C3B20457   4.030  32.208   7.953
 6414POPC   C4B20458   4.042  32.264   7.653
 6415POPC   NC320459  19.070   6.693   9.453
 6415POPC   PO420460  19.018   6.601   9.153
 6415POPC   GL120461  19.099   6.609   8.853
 6415POPC   GL220462  18.918   6.654   8.853
 6415POPC   C1A20463  19.083   6.635   8.553
 6415POPC   D2A20464  19.033   6.614   8.253
 6415POPC   C3A20465  19.040   6.617   7.953
 6415POPC   C4A20466  19.021   6.613   7.653
 6415POPC   C1B20467  18.841   6.780   8.553
 6415POPC   C2B20468  18.826   6.783   8.253
 6415POPC   C3B20469  18.849   6.691   7.953
 6415POPC   C4B20470  18.810   6.778   7.653
 6416POPC   NC320471  22.926   4.318   9.453
 6416POPC   PO420472  22.950   4.320   9.153
 6416POPC   GL120473  22.937   4.355   8.853
 6416POPC   GL220474  22.807   4.403   8.853
 6416POPC   C1A20475  22.919   4.306   8.553
 6416POPC   D2A20476  22.979   4.325   8.253
 6416POPC   C3A20477  22.916   4.279   7.953
 6416POPC   C4A20478  22.907   4.277   7.653
 6416POPC   C1B20479  22.748   4.496   8.553
 6416POPC   C2B20480  22.736   4.489   8.253
 6416POPC   C3B20481  22.720   4.455   7.953
 6416POPC   C4B20482  22.762   4.444   7.653
 6417POPC   NC320483   5.917  19.060   9.453
 6417POPC   PO420484   5.824  19.010   9.153
 6417POPC   GL120485   5.865  19.106   8.853
 6417POPC   GL220486   5.835  18.911   8.853
 6417POPC   C1A20487   5.913  19.040   8.553
 6417POPC   D2A20488   5.863  19.073   8.253
 6417POPC   C3A20489   5.907  19.071   7.953
 6417POPC   C4A20490   5.840  19.070   7.653
 6417POPC   C1B20491   5.912  18.787   8.553
 6417POPC   C2B20492   5.884  18.779   8.253
 6417POPC   C3B20493   5.853  18.845   7.953
 6417POPC   C4B20494   5.902  18.841   7.653
 6418POPC   NC320495  14.365  29.876   9.453
 6418POPC   PO420496  14.396  29.960   9.153
 6418POPC   GL120497  14.412  29.897   8.853
 6418POPC   GL220498  14.464  30.067   8.853
 6418POPC   C1A20499  14.420  29.949   8.553
 6418POPC   D2A20500  14.367  29.878   8.253
 6418POPC   C3A20501  14.414  29.964   7.953
 6418POPC   C4A20502  14.415  29.923   7.653
 6418POPC   C1B20503  14.529  30.118   8.553
 6418POPC   C2B20504  14.517  30.174   8.253
 6418POPC   C3B20505  14.542  30.169   7.953
 6418POPC   C4B20506  14.506  30.185   7.653
 6419POPC   NC320507  29.099  34.604   9.453
 6419POPC   PO420508  29.100  34.583   9.153
 6419POPC   GL120509  29.168  34.622   8.853
 6419POPC   GL220510  29.178  34.681   8.853
 6419POPC   C1A20511  29.159  34.538   8.553
 6419POPC   D2A20512  29.195  34.606   8.253
 6419POPC   C3A20513  29.127  34.591   7.953
 6419POPC   C4A20514  29.147  34.596   7.653
 6419POPC   C1B20515  29.247  34.767   8.553
 6419POPC   C2B20516  29.272  34.775   8.253
 6419POPC   C3B20517  29.294  34.824   7.953
 6419POPC   C4B20518  29.329  34.751   7.653
 6420POPC   NC320519  21.345  40.006   9.453
 6420POPC   PO420520  21.433  40.011   9.153
 6420POPC   GL120521  21.348  40.052   8.853
 6420POPC   GL220522  21.379  40.132   8.853
 6420POPC   C1A20523  21.391  40.026   8.553
 6420POPC   D2A20524  21.412  40.036   8.253
 6420POPC   C3A20525  21.428  39.958   7.953
 6420POPC   C4A20526  21.395  39.981   7.653
 6420POPC   C1B20527  21.378  40.272   8.553
 6420POPC   C2B20528  21.414  40.226   8.253
 6420POPC   C3B20529  21.363  40.243   7.953
 6420POPC   C4B20530  21.447  40.298   7.653
 6421POPC   NC320531  24.496  29.127   9.453
 6421POPC   PO420532  24.451  29.162   9.153
 6421POPC   GL120533  24.498  29.104   8.853
 6421POPC   GL220534  24.565  29.225   8.853
 6421POPC   C1A20535  24.471  29.177   8.553
 6421POPC   D2A20536  24.537  29.138   8.253
 6421POPC   C3A20537  24.480  29.116   7.953
 6421POPC   C4A20538  24.522  29.136   7.653
 6421POPC   C1B20539  24.686  29.280   8.553
 6421POPC   C2B20540  24.720  29.280   8.253
 6421POPC   C3B20541  24.694  29.274   7.953
 6421POPC   C4B20542  24.649  29.336   7.653
 6422POPC   NC320543  22.968  18.236   9.453
 6422POPC   PO420544  22.923  18.306   9.153
 6422POPC   GL120545  22.901  18.306   8.853
 6422POPC   GL220546  22.972  18.354   8.853
 6422POPC   C1A20547  22.982  18.295   8.553
 6422POPC   D2A20548  22.972  18.257   8.253
 6422POPC   C3A20549  22.895  18.288   7.953
 6422POPC   C4A20550  22.940  18.255   7.653
 6422POPC   C1B20551  23.106  18.489   8.553
 6422POPC   C2B20552  23.070  18.426   8.253
 6422POPC   C3B20553  23.130  18.453   7.953
 6422POPC   C4B20554  23.130  18.517   7.653
 6423POPC   NC320555  26.798  15.140   9.453
 6423POPC   PO420556  26.839  15.178   9.153
 6423POPC   GL120557  26.806  15.169   8.853
 6423POPC   GL220558  26.695  15.226   8.853
 6423POPC   C1A20559  26.853  15.163   8.553
 6423POPC   D2A20560  26.806  15.170   8.253
 6423POPC   C3A20561  26.865  15.189   7.953
 6423POPC   C4A20562  26.775  15.141   7.653
 6423POPC   C1B20563  26.598  15.181   8.553
 6423POPC   C2B20564  26.597  15.195   8.253
 6423POPC   C3B20565  26.576  15.256   7.953
 6423POPC   C4B20566  26.540  15.181   7.653
 6424POPC   NC320567  19.805  41.575   9.453
 6424POPC   PO420568  19.855  41.597   9.153
 6424POPC   GL120569  19.855  41.549   8.853
 6424POPC   GL220570  20.006  41.589   8.853
 6424POPC   C1A20571  19.802  41.556   8.553
 6424POPC   D2A20572  19.847  41.510   8.253
 6424POPC   C3A20573  19.802  41.585   7.953
 6424POPC   C4A20574  19.797  41.558   7.653
 6424POPC   C1B20575  20.117  41.550   8.553
 6424POPC   C2B20576  20.063  41.546   8.253
 6424POPC   C3B20577  20.051  41.570   7.953
 6424POPC   C4B20578  20.116  41.538   7.653
 6425POPC   NC320579  22.889  44.675   9.453
 6425POPC   PO420580  22.916  44.631   9.153
 6425POPC   GL120581  22.965  44.627   8.853
 6425POPC   GL220582  22.893  44.606   8.853
 6425POPC   C1A20583  22.933  44.639   8.553
 6425POPC   D2A20584  22.944  44.662   8.253
 6425POPC   C3A20585  22.957  44.661   7.953
 6425POPC   C4A20586  22.958  44.658   7.653
 6425POPC   C1B20587  22.737  44.516   8.553
 6425POPC   C2B20588  22.814  44.458   8.253
 6425POPC   C3B20589  22.760  44.438   7.953
 6425POPC   C4B20590  22.813  44.447   7.653
 6426POPC   NC320591  36.125  40.795   9.453
 6426POPC   PO420592  36.110  40.786   9.153
 6426POPC   GL120593  36.170  40.817   8.853
 6426POPC   GL220594  36.213  40.937   8.853
 6426POPC   C1A20595  36.087  40.754   8.553
 6426POPC   D2A20596  36.140  40.771   8.253
 6426POPC   C3A20597  36.078  40.748   7.953
 6426POPC   C4A20598  36.087  40.775   7.653
 6426POPC   C1B20599  36.200  41.036   8.553
 6426POPC   C2B20600  36.231  41.024   8.253
 6426POPC   C3B20601  36.274  40.989   7.953
 6426POPC   C4B20602  36.248  41.026   7.653
 6427POPC   NC320603  18.331   9.724   9.453
 6427POPC   PO420604  18.291   9.795   9.153
 6427POPC   GL120605  18.299   9.716   8.853
 6427POPC   GL220606  18.162   9.689   8.853
 6427POPC   C1A20607  18.243   9.761   8.553
 6427POPC   D2A20608  18.328   9.747   8.253
 6427POPC   C3A20609  18.305   9.703   7.953
 6427POPC   C4A20610  18.237   9.720   7.653
 6427POPC   C1B20611  18.144   9.554   8.553
 6427POPC   C2B20612  18.175   9.571   8.253
 6427POPC   C3B20613  18.112   9.590   7.953
 6427POPC   C4B20614  18.095   9.525   7.653
 6428POPC   NC320615  19.042  29.138   9.453
 6428POPC   PO420616  19.085  29.168   9.153
 6428POPC   GL120617  19.010  29.171   8.853
 6428POPC   GL220618  19.036  29.038   8.853
 6428POPC   C1A20619  19.066  29.174   8.553
 6428POPC   D2A20620  19.076  29.188   8.253
 6428POPC   C3A20621  19.042  29.165   7.953
 6428POPC   C4A20622  19.043  29.154   7.653
 6428POPC   C1B20623  18.957  28.954   8.553
 6428POPC   C2B20624  18.902  28.890   8.253
 6428POPC   C3B20625  18.885  28.976   7.953
 6428POPC   C4B20626  18.970  28.982   7.653
 6429POPC   NC320627   3.513   5.079   9.453
 6429POPC   PO420628   3.521   5.065   9.153
 6429POPC   GL120629   3.568   5.109   8.853
 6429POPC   GL220630   3.680   4.984   8.853
 6429POPC   C1A20631   3.491   5.102   8.553
 6429POPC   D2A20632   3.583   5.111   8.253
 6429POPC   C3A20633   3.497   5.141   7.953
 6429POPC   C4A20634   3.583   5.068   7.653
 6429POPC   C1B20635   3.774   4.949   8.553
 6429POPC   C2B20636   3.712   4.922   8.253
 6429POPC   C3B20637   3.760   4.999   7.953
 6429POPC   C4B20638   3.714   4.970   7.653
 6430POPC   NC320639   0.462  36.116   9.453
 6430POPC   PO420640   0.439  36.145   9.153
 6430POPC   GL120641   0.388  36.083   8.853
 6430POPC   GL220642   0.500  36.040   8.853
 6430POPC   C1A20643   0.475  36.112   8.553
 6430POPC   D2A20644   0.391  36.171   8.253
 6430POPC   C3A20645   0.405  36.094   7.953
 6430POPC   C4A20646   0.400  36.150   7.653
 6430POPC   C1B20647   0.575  35.918   8.553
 6430POPC   C2B20648   0.581  35.922   8.253
 6430POPC   C3B20649   0.521  35.930   7.953
 6430POPC   C4B20650   0.542  35.884   7.653
 6431POPC   NC320651  18.266  30.727   9.453
 6431POPC   PO420652  18.330  30.742   9.153
 6431POPC   GL120653  18.316  30.698   8.853
 6431POPC   GL220654  18.206  30.797   8.853
 6431POPC   C1A20655  18.237  30.649   8.553
 6431POPC   D2A20656  18.279  30.675   8.253
 6431POPC   C3A20657  18.283  30.724   7.953
 6431POPC   C4A20658  18.309  30.654   7.653
 6431POPC   C1B20659  18.103  30.912   8.553
 6431POPC   C2B20660  18.164  30.870   8.253
 6431POPC   C3B20661  18.197  30.936   7.953
 6431POPC   C4B20662  18.162  30.957   7.653
 6432POPC   NC320663  43.869  35.383   9.453
 6432POPC   PO420664  43.850  35.376   9.153
 6432POPC   GL120665  43.928  35.328   8.853
 6432POPC   GL220666  43.973  35.431   8.853
 6432POPC   C1A20667  43.917  35.385   8.553
 6432POPC   D2A20668  43.909  35.378   8.253
 6432POPC   C3A20669  43.890  35.321   7.953
 6432POPC   C4A20670  43.886  35.339   7.653
 6432POPC   C1B20671  44.154  35.427   8.553
 6432POPC   C2B20672  44.106  35.421   8.253
 6432POPC   C3B20673  44.126  35.389   7.953
 6432POPC   C4B20674  44.148  35.447   7.653
 6433POPC   NC320675   0.443   0.455   9.453
 6433POPC   PO420676   0.421   0.462   9.153
 6433POPC   GL120677   0.443   0.442   8.853
 6433POPC   GL220678   0.463   0.296   8.853
 6433POPC   C1A20679   0.461   0.452   8.553
 6433POPC   D2A20680   0.433   0.422   8.253
 6433POPC   C3A20681   0.411   0.406   7.953
 6433POPC   C4A20682   0.408   0.455   7.653
 6433POPC   C1B20683   0.523   0.159   8.553
 6433POPC   C2B20684   0.520   0.200   8.253
 6433POPC   C3B20685   0.487   0.223   7.953
 6433POPC   C4B20686   0.569   0.172   7.653
 6434POPC   NC320687   9.769  13.655   9.453
 6434POPC   PO420688   9.793  13.662   9.153
 6434POPC   GL120689   9.701  13.605   8.853
 6434POPC   GL220690   9.703  13.752   8.853
 6434POPC   C1A20691   9.782  13.658   8.553
 6434POPC   D2A20692   9.712  13.674   8.253
 6434POPC   C3A20693   9.797  13.660   7.953
 6434POPC   C4A20694   9.783  13.640   7.653
 6434POPC   C1B20695   9.755  13.908   8.553
 6434POPC   C2B20696   9.765  13.864   8.253
 6434POPC   C3B20697   9.741  13.903   7.953
 6434POPC   C4B20698   9.764  13.879   7.653
 6435POPC   NC320699   7.387  36.940   9.453
 6435POPC   PO420700   7.421  36.904   9.153
 6435POPC   GL120701   7.411  36.915   8.853
 6435POPC   GL220702   7.470  36.837   8.853
 6435POPC   C1A20703   7.432  36.877   8.553
 6435POPC   D2A20704   7.409  36.931   8.253
 6435POPC   C3A20705   7.437  36.911   7.953
 6435POPC   C4A20706   7.375  36.899   7.653
 6435POPC   C1B20707   7.521  36.678   8.553
 6435POPC   C2B20708   7.586  36.706   8.253
 6435POPC   C3B20709   7.571  36.714   7.953
 6435POPC   C4B20710   7.575  36.645   7.653
 6436POPC   NC320711  32.993  39.999   9.453
 6436POPC   PO420712  33.044  39.989   9.153
 6436POPC   GL120713  33.063  40.022   8.853
 6436POPC   GL220714  32.950  39.892   8.853
 6436POPC   C1A20715  33.072  39.991   8.553
 6436POPC   D2A20716  33.066  40.055   8.253
 6436POPC   C3A20717  33.072  40.013   7.953
 6436POPC   C4A20718  33.061  40.008   7.653
 6436POPC   C1B20719  32.869  39.823   8.553
 6436POPC   C2B20720  32.819  39.847   8.253
 6436POPC   C3B20721  32.851  39.894   7.953
 6436POPC   C4B20722  32.859  39.850   7.653
 6437POPC   NC320723   3.495  14.365   9.453
 6437POPC   PO420724   3.550  14.384   9.153
 6437POPC   GL120725   3.583  14.440   8.853
 6437POPC   GL220726   3.669  14.307   8.853
 6437POPC   C1A20727   3.508  14.448   8.553
 6437POPC   D2A20728   3.583  14.434   8.253
 6437POPC   C3A20729   3.566  14.394   7.953
 6437POPC   C4A20730   3.584  14.447   7.653
 6437POPC   C1B20731   3.712  14.320   8.553
 6437POPC   C2B20732   3.761  14.329   8.253
 6437POPC   C3B20733   3.719  14.239   7.953
 6437POPC   C4B20734   3.798  14.265   7.653
 6438POPC   NC320735  36.168  28.337   9.453
 6438POPC   PO420736  36.090  28.334   9.153
 6438POPC   GL120737  36.115  28.369   8.853
 6438POPC   GL220738  36.291  28.370   8.853
 6438POPC   C1A20739  36.169  28.387   8.553
 6438POPC   D2A20740  36.092  28.407   8.253
 6438POPC   C3A20741  36.167  28.381   7.953
 6438POPC   C4A20742  36.122  28.368   7.653
 6438POPC   C1B20743  36.407  28.285   8.553
 6438POPC   C2B20744  36.345  28.327   8.253
 6438POPC   C3B20745  36.385  28.338   7.953
 6438POPC   C4B20746  36.364  28.366   7.653
 6439POPC   NC320747   1.185  19.799   9.453
 6439POPC   PO420748   1.200  19.790   9.153
 6439POPC   GL120749   1.233  19.808   8.853
 6439POPC   GL220750   1.087  19.782   8.853
 6439POPC   C1A20751   1.199  19.811   8.553
 6439POPC   D2A20752   1.247  19.815   8.253
 6439POPC   C3A20753   1.184  19.840   7.953
 6439POPC   C4A20754   1.214  19.864   7.653
 6439POPC   C1B20755   0.920  19.780   8.553
 6439POPC   C2B20756   0.922  19.820   8.253
 6439POPC   C3B20757   0.960  19.796   7.953
 6439POPC   C4B20758   0.964  19.830   7.653
 6440POPC   NC320759  13.643  28.415   9.453
 6440POPC   PO420760  13.587  28.323   9.153
 6440POPC   GL120761  13.624  28.375   8.853
 6440POPC   GL220762  13.566  28.301   8.853
 6440POPC   C1A20763  13.613  28.370   8.553
 6440POPC   D2A20764  13.657  28.378   8.253
 6440POPC   C3A20765  13.646  28.393   7.953
 6440POPC   C4A20766  13.626  28.419   7.653
 6440POPC   C1B20767  13.429  28.171   8.553
 6440POPC   C2B20768  13.474  28.193   8.253
 6440POPC   C3B20769  13.461  28.183   7.953
 6440POPC   C4B20770  13.467  28.203   7.653
 6441POPC   NC320771   1.219   1.227   9.453
 6441POPC   PO420772   1.191   1.248   9.153
 6441POPC   GL120773   1.249   1.205   8.853
 6441POPC   GL220774   1.065   1.220   8.853
 6441POPC   C1A20775   1.243   1.207   8.553
 6441POPC   D2A20776   1.170   1.213   8.253
 6441POPC   C3A20777   1.208   1.211   7.953
 6441POPC   C4A20778   1.214   1.201   7.653
 6441POPC   C1B20779   0.971   1.184   8.553
 6441POPC   C2B20780   0.953   1.229   8.253
 6441POPC   C3B20781   0.966   1.151   7.953
 6441POPC   C4B20782   0.933   1.203   7.653
 6442POPC   NC320783   1.205  29.112   9.453
 6442POPC   PO420784   1.170  29.180   9.153
 6442POPC   GL120785   1.212  29.124   8.853
 6442POPC   GL220786   1.073  29.093   8.853
 6442POPC   C1A20787   1.255  29.152   8.553
 6442POPC   D2A20788   1.247  29.108   8.253
 6442POPC   C3A20789   1.186  29.146   7.953
 6442POPC   C4A20790   1.199  29.131   7.653
 6442POPC   C1B20791   0.996  29.016   8.553
 6442POPC   C2B20792   1.034  29.005   8.253
 6442POPC   C3B20793   0.984  28.954   7.953
 6442POPC   C4B20794   1.005  28.976   7.653
 6443POPC   NC320795   9.743   6.639   9.453
 6443POPC   PO420796   9.779   6.690   9.153
 6443POPC   GL120797   9.724   6.609   8.853
 6443POPC   GL220798   9.732   6.568   8.853
 6443POPC   C1A20799   9.705   6.659   8.553
 6443POPC   D2A20800   9.718   6.599   8.253
 6443POPC   C3A20801   9.767   6.663   7.953
 6443POPC   C4A20802   9.766   6.619   7.653
 6443POPC   C1B20803   9.765   6.355   8.553
 6443POPC   C2B20804   9.775   6.431   8.253
 6443POPC   C3B20805   9.696   6.423   7.953
 6443POPC   C4B20806   9.744   6.384   7.653
 6444POPC   NC320807  33.830  33.783   9.453
 6444POPC   PO420808  33.801  33.825   9.153
 6444POPC   GL120809  33.770  33.771   8.853
 6444POPC   GL220810  33.865  33.725   8.853
 6444POPC   C1A20811  33.813  33.837   8.553
 6444POPC   D2A20812  33.771  33.837   8.253
 6444POPC   C3A20813  33.802  33.802   7.953
 6444POPC   C4A20814  33.767  33.819   7.653
 6444POPC   C1B20815  33.876  33.558   8.553
 6444POPC   C2B20816  33.834  33.597   8.253
 6444POPC   C3B20817  33.842  33.522   7.953
 6444POPC   C4B20818  33.799  33.561   7.653
 6445POPC   NC320819  24.506  39.241   9.453
 6445POPC   PO420820  24.500  39.222   9.153
 6445POPC   GL120821  24.455  39.274   8.853
 6445POPC   GL220822  24.453  39.086   8.853
 6445POPC   C1A20823  24.485  39.208   8.553
 6445POPC   D2A20824  24.462  39.182   8.253
 6445POPC   C3A20825  24.475  39.271   7.953
 6445POPC   C4A20826  24.473  39.182   7.653
 6445POPC   C1B20827  24.414  39.046   8.553
 6445POPC   C2B20828  24.333  39.019   8.253
 6445POPC   C3B20829  24.375  39.048   7.953
 6445POPC   C4B20830  24.368  38.996   7.653
 6446POPC   NC320831  15.978  12.103   9.453
 6446POPC   PO420832  15.947  12.074   9.153
 6446POPC   GL120833  15.910  12.094   8.853
 6446POPC   GL220834  16.035  12.229   8.853
 6446POPC   C1A20835  15.934  12.087   8.553
 6446POPC   D2A20836  15.960  12.119   8.253
 6446POPC   C3A20837  15.924  12.047   7.953
 6446POPC   C4A20838  15.972  12.036   7.653
 6446POPC   C1B20839  16.080  12.322   8.553
 6446POPC   C2B20840  16.048  12.273   8.253
 6446POPC   C3B20841  16.007  12.279   7.953
 6446POPC   C4B20842  16.025  12.322   7.653
 6447POPC   NC320843  30.701   8.973   9.453
 6447POPC   PO420844  30.673   9.007   9.153
 6447POPC   GL120845  30.689   9.022   8.853
 6447POPC   GL220846  30.777   8.998   8.853
 6447POPC   C1A20847  30.739   8.930   8.553
 6447POPC   D2A20848  30.713   8.991   8.253
 6447POPC   C3A20849  30.719   9.020   7.953
 6447POPC   C4A20850  30.716   8.955   7.653
 6447POPC   C1B20851  30.898   9.089   8.553
 6447POPC   C2B20852  30.944   9.043   8.253
 6447POPC   C3B20853  30.900   9.124   7.953
 6447POPC   C4B20854  30.903   9.096   7.653
 6448POPC   NC320855  21.387   2.021   9.453
 6448POPC   PO420856  21.349   2.020   9.153
 6448POPC   GL120857  21.418   1.963   8.853
 6448POPC   GL220858  21.304   2.129   8.853
 6448POPC   C1A20859  21.376   1.976   8.553
 6448POPC   D2A20860  21.383   2.002   8.253
 6448POPC   C3A20861  21.419   1.985   7.953
 6448POPC   C4A20862  21.339   2.039   7.653
 6448POPC   C1B20863  21.247   2.165   8.553
 6448POPC   C2B20864  21.260   2.208   8.253
 6448POPC   C3B20865  21.238   2.184   7.953
 6448POPC   C4B20866  21.276   2.233   7.653
 6449POPC   NC320867   5.091  20.590   9.453
 6449POPC   PO420868   5.142  20.602   9.153
 6449POPC   GL120869   5.101  20.616   8.853
 6449POPC   GL220870   5.013  20.497   8.853
 6449POPC   C1A20871   5.130  20.561   8.553
 6449POPC   D2A20872   5.112  20.604   8.253
 6449POPC   C3A20873   5.053  20.647   7.953
 6449POPC   C4A20874   5.077  20.609   7.653
 6449POPC   C1B20875   4.936  20.373   8.553
 6449POPC   C2B20876   4.968  20.407   8.253
 6449POPC   C3B20877   4.955  20.389   7.953
 6449POPC   C4B20878   4.972  20.400   7.653
 6450POPC   NC320879  29.910  25.259   9.453
 6450POPC   PO420880  29.935  25.224   9.153
 6450POPC   GL120881  29.873  25.238   8.853
 6450POPC   GL220882  30.010  25.397   8.853
 6450POPC   C1A20883  29.910  25.311   8.553
 6450POPC   D2A20884  29.885  25.296   8.253
 6450POPC   C3A20885  29.886  25.309   7.953
 6450POPC   C4A20886  29.940  25.218   7.653
 6450POPC   C1B20887  30.112  25.418   8.553
 6450POPC   C2B20888  30.120  25.491   8.253
 6450POPC   C3B20889  30.075  25.468   7.953
 6450POPC   C4B20890  30.057  25.423   7.653
 6451POPC   NC320891  22.939  36.138   9.453
 6451POPC   PO420892  22.980  36.080   9.153
 6451POPC   GL120893  22.911  36.121   8.853
 6451POPC   GL220894  22.794  36.125   8.853
 6451POPC   C1A20895  22.942  36.149   8.553
 6451POPC   D2A20896  22.900  36.079   8.253
 6451POPC   C3A20897  22.916  36.130   7.953
 6451POPC   C4A20898  22.914  36.102   7.653
 6451POPC   C1B20899  22.649  36.087   8.553
 6451POPC   C2B20900  22.708  36.101   8.253
 6451POPC   C3B20901  22.746  36.063   7.953
 6451POPC   C4B20902  22.705  36.021   7.653
 6452POPC   NC320903  36.857  34.543   9.453
 6452POPC   PO420904  36.916  34.567   9.153
 6452POPC   GL120905  36.873  34.612   8.853
 6452POPC   GL220906  36.887  34.458   8.853
 6452POPC   C1A20907  36.938  34.608   8.553
 6452POPC   D2A20908  36.944  34.594   8.253
 6452POPC   C3A20909  36.905  34.618   7.953
 6452POPC   C4A20910  36.902  34.528   7.653
 6452POPC   C1B20911  36.929  34.349   8.553
 6452POPC   C2B20912  36.962  34.306   8.253
 6452POPC   C3B20913  36.941  34.359   7.953
 6452POPC   C4B20914  36.897  34.292   7.653
 6453POPC   NC320915  20.566  12.086   9.453
 6453POPC   PO420916  20.624  12.067   9.153
 6453POPC   GL120917  20.600  12.062   8.853
 6453POPC   GL220918  20.588  12.209   8.853
 6453POPC   C1A20919  20.641  12.094   8.553
 6453POPC   D2A20920  20.603  12.075   8.253
 6453POPC   C3A20921  20.626  12.058   7.953
 6453POPC   C4A20922  20.605  12.100   7.653
 6453POPC   C1B20923  20.455  12.292   8.553
 6453POPC   C2B20924  20.548  12.299   8.253
 6453POPC   C3B20925  20.528  12.282   7.953
 6453POPC   C4B20926  20.459  12.281   7.653
 6454POPC   NC320927   3.536   5.916   9.453
 6454POPC   PO420928   3.576   5.834   9.153
 6454POPC   GL120929   3.556   5.890   8.853
 6454POPC   GL220930   3.558   5.774   8.853
 6454POPC   C1A20931   3.500   5.903   8.553
 6454POPC   D2A20932   3.526   5.881   8.253
 6454POPC   C3A20933   3.499   5.850   7.953
 6454POPC   C4A20934   3.539   5.902   7.653
 6454POPC   C1B20935   3.552   5.626   8.553
 6454POPC   C2B20936   3.564   5.572   8.253
 6454POPC   C3B20937   3.524   5.665   7.953
 6454POPC   C4B20938   3.513   5.618   7.653
 6455POPC   NC320939  19.046  37.687   9.453
 6455POPC   PO420940  19.056  37.701   9.153
 6455POPC   GL120941  19.079  37.723   8.853
 6455POPC   GL220942  19.203  37.733   8.853
 6455POPC   C1A20943  19.026  37.633   8.553
 6455POPC   D2A20944  19.093  37.683   8.253
 6455POPC   C3A20945  19.085  37.643   7.953
 6455POPC   C4A20946  19.068  37.660   7.653
 6455POPC   C1B20947  19.343  37.722   8.553
 6455POPC   C2B20948  19.272  37.741   8.253
 6455POPC   C3B20949  19.340  37.665   7.953
 6455POPC   C4B20950  19.292  37.690   7.653
 6456POPC   NC320951  19.849  21.401   9.453
 6456POPC   PO420952  19.878  21.351   9.153
 6456POPC   GL120953  19.810  21.408   8.853
 6456POPC   GL220954  19.922  21.448   8.853
 6456POPC   C1A20955  19.860  21.343   8.553
 6456POPC   D2A20956  19.786  21.348   8.253
 6456POPC   C3A20957  19.805  21.351   7.953
 6456POPC   C4A20958  19.791  21.415   7.653
 6456POPC   C1B20959  20.096  21.498   8.553
 6456POPC   C2B20960  20.082  21.487   8.253
 6456POPC   C3B20961  20.071  21.469   7.953
 6456POPC   C4B20962  20.038  21.496   7.653
 6457POPC   NC320963  26.776  43.844   9.453
 6457POPC   PO420964  26.786  43.846   9.153
 6457POPC   GL120965  26.779  43.908   8.853
 6457POPC   GL220966  26.810  43.740   8.853
 6457POPC   C1A20967  26.814  43.892   8.553
 6457POPC   D2A20968  26.774  43.881   8.253
 6457POPC   C3A20969  26.796  43.865   7.953
 6457POPC   C4A20970  26.855  43.840   7.653
 6457POPC   C1B20971  26.759  43.660   8.553
 6457POPC   C2B20972  26.738  43.646   8.253
 6457POPC   C3B20973  26.666  43.706   7.953
 6457POPC   C4B20974  26.664  43.694   7.653
 6458POPC   NC320975  28.328  14.360   9.453
 6458POPC   PO420976  28.336  14.363   9.153
 6458POPC   GL120977  28.331  14.361   8.853
 6458POPC   GL220978  28.404  14.263   8.853
 6458POPC   C1A20979  28.329  14.448   8.553
 6458POPC   D2A20980  28.389  14.364   8.253
 6458POPC   C3A20981  28.321  14.416   7.953
 6458POPC   C4A20982  28.407  14.354   7.653
 6458POPC   C1B20983  28.511  14.175   8.553
 6458POPC   C2B20984  28.541  14.230   8.253
 6458POPC   C3B20985  28.570  14.196   7.953
 6458POPC   C4B20986  28.558  14.169   7.653
 6459POPC   NC320987  19.843  43.869   9.453
 6459POPC   PO420988  19.869  43.913   9.153
 6459POPC   GL120989  19.806  43.916   8.853
 6459POPC   GL220990  19.842  44.017   8.853
 6459POPC   C1A20991  19.822  43.915   8.553
 6459POPC   D2A20992  19.858  43.921   8.253
 6459POPC   C3A20993  19.856  43.863   7.953
 6459POPC   C4A20994  19.824  43.909   7.653
 6459POPC   C1B20995  19.884  44.098   8.553
 6459POPC   C2B20996  19.964  44.146   8.253
 6459POPC   C3B20997  19.907  44.161   7.953
 6459POPC   C4B20998  19.938  44.133   7.653
 6460POPC   NC320999  23.730  31.428   9.453
 6460POPC   PO421000  23.689  31.498   9.153
 6460POPC   GL121001  23.680  31.507   8.853
 6460POPC   GL221002  23.818  31.403   8.853
 6460POPC   C1A21003  23.677  31.425   8.553
 6460POPC   D2A21004  23.667  31.495   8.253
 6460POPC   C3A21005  23.746  31.444   7.953
 6460POPC   C4A21006  23.717  31.453   7.653
 6460POPC   C1B21007  23.946  31.322   8.553
 6460POPC   C2B21008  23.901  31.378   8.253
 6460POPC   C3B21009  23.953  31.325   7.953
 6460POPC   C4B21010  23.953  31.379   7.653
 6461POPC   NC321011   1.970  26.769   9.453
 6461POPC   PO421012   1.962  26.853   9.153
 6461POPC   GL121013   1.995  26.794   8.853
 6461POPC   GL221014   1.943  26.751   8.853
 6461POPC   C1A21015   2.009  26.852   8.553
 6461POPC   D2A21016   1.976  26.809   8.253
 6461POPC   C3A21017   1.975  26.776   7.953
 6461POPC   C4A21018   2.010  26.858   7.653
 6461POPC   C1B21019   1.854  26.667   8.553
 6461POPC   C2B21020   1.825  26.584   8.253
 6461POPC   C3B21021   1.850  26.646   7.953
 6461POPC   C4B21022   1.839  26.655   7.653
 6462POPC   NC321023  24.472  40.032   9.453
 6462POPC   PO421024  24.481  39.966   9.153
 6462POPC   GL121025  24.490  39.972   8.853
 6462POPC   GL221026  24.455  39.882   8.853
 6462POPC   C1A21027  24.480  39.988   8.553
 6462POPC   D2A21028  24.472  40.045   8.253
 6462POPC   C3A21029  24.530  39.967   7.953
 6462POPC   C4A21030  24.523  40.013   7.653
 6462POPC   C1B21031  24.472  39.736   8.553
 6462POPC   C2B21032  24.485  39.790   8.253
 6462POPC   C3B21033  24.530  39.781   7.953
 6462POPC   C4B21034  24.529  39.788   7.653
 6463POPC   NC321035  34.611  32.990   9.453
 6463POPC   PO421036  34.557  33.058   9.153
 6463POPC   GL121037  34.537  33.041   8.853
 6463POPC   GL221038  34.633  33.136   8.853
 6463POPC   C1A21039  34.578  33.037   8.553
 6463POPC   D2A21040  34.609  33.008   8.253
 6463POPC   C3A21041  34.575  33.054   7.953
 6463POPC   C4A21042  34.547  33.005   7.653
 6463POPC   C1B21043  34.684  33.258   8.553
 6463POPC   C2B21044  34.732  33.224   8.253
 6463POPC   C3B21045  34.712  33.251   7.953
 6463POPC   C4B21046  34.772  33.216   7.653
 6464POPC   NC321047  19.785  38.460   9.453
 6464POPC   PO421048  19.865  38.491   9.153
 6464POPC   GL121049  19.856  38.434   8.853
 6464POPC   GL221050  19.818  38.319   8.853
 6464POPC   C1A21051  19.879  38.426   8.553
 6464POPC   D2A21052  19.786  38.414   8.253
 6464POPC   C3A21053  19.830  38.428   7.953
 6464POPC   C4A21054  19.807  38.500   7.653
 6464POPC   C1B21055  19.683  38.231   8.553
 6464POPC   C2B21056  19.681  38.199   8.253
 6464POPC   C3B21057  19.716  38.275   7.953
 6464POPC   C4B21058  19.707  38.202   7.653
 6465POPC   NC321059  36.857  40.056   9.453
 6465POPC   PO421060  36.872  40.038   9.153
 6465POPC   GL121061  36.952  39.981   8.853
 6465POPC   GL221062  36.824  39.984   8.853
 6465POPC   C1A21063  36.883  39.997   8.553
 6465POPC   D2A21064  36.914  39.958   8.253
 6465POPC   C3A21065  36.930  40.004   7.953
 6465POPC   C4A21066  36.932  39.992   7.653
 6465POPC   C1B21067  36.630  39.966   8.553
 6465POPC   C2B21068  36.664  39.944   8.253
 6465POPC   C3B21069  36.621  39.963   7.953
 6465POPC   C4B21070  36.701  39.898   7.653
 6466POPC   NC321071   0.441  18.323   9.453
 6466POPC   PO421072   0.453  18.272   9.153
 6466POPC   GL121073   0.399  18.323   8.853
 6466POPC   GL221074   0.560  18.299   8.853
 6466POPC   C1A21075   0.404  18.329   8.553
 6466POPC   D2A21076   0.468  18.236   8.253
 6466POPC   C3A21077   0.471  18.262   7.953
 6466POPC   C4A21078   0.409  18.243   7.653
 6466POPC   C1B21079   0.644  18.247   8.553
 6466POPC   C2B21080   0.683  18.245   8.253
 6466POPC   C3B21081   0.666  18.265   7.953
 6466POPC   C4B21082   0.725  18.236   7.653
 6467POPC   NC321083   0.445  25.256   9.453
 6467POPC   PO421084   0.399  25.269   9.153
 6467POPC   GL121085   0.401  25.289   8.853
 6467POPC   GL221086   0.364  25.209   8.853
 6467POPC   C1A21087   0.399  25.217   8.553
 6467POPC   D2A21088   0.424  25.248   8.253
 6467POPC   C3A21089   0.465  25.238   7.953
 6467POPC   C4A21090   0.455  25.266   7.653
 6467POPC   C1B21091   0.240  25.125   8.553
 6467POPC   C2B21092   0.224  25.155   8.253
 6467POPC   C3B21093   0.216  25.195   7.953
 6467POPC   C4B21094   0.178  25.126   7.653
 6468POPC   NC321095  21.376  19.063   9.453
 6468POPC   PO421096  21.383  19.044   9.153
 6468POPC   GL121097  21.393  19.044   8.853
 6468POPC   GL221098  21.517  19.090   8.853
 6468POPC   C1A21099  21.372  19.050   8.553
 6468POPC   D2A21100  21.403  19.094   8.253
 6468POPC   C3A21101  21.374  19.096   7.953
 6468POPC   C4A21102  21.398  19.078   7.653
 6468POPC   C1B21103  21.613  19.084   8.553
 6468POPC   C2B21104  21.654  19.050   8.253
 6468POPC   C3B21105  21.596  19.099   7.953
 6468POPC   C4B21106  21.647  19.074   7.653
 6469POPC   NC321107  26.085   1.194   9.453
 6469POPC   PO421108  26.067   1.234   9.153
 6469POPC   GL121109  26.022   1.179   8.853
 6469POPC   GL221110  26.110   1.355   8.853
 6469POPC   C1A21111  26.089   1.212   8.553
 6469POPC   D2A21112  26.079   1.204   8.253
 6469POPC   C3A21113  26.089   1.233   7.953
 6469POPC   C4A21114  26.051   1.246   7.653
 6469POPC   C1B21115  26.168   1.393   8.553
 6469POPC   C2B21116  26.129   1.428   8.253
 6469POPC   C3B21117  26.108   1.481   7.953
 6469POPC   C4B21118  26.186   1.398   7.653
 6470POPC   NC321119  43.922  34.561   9.453
 6470POPC   PO421120  43.926  34.613   9.153
 6470POPC   GL121121  43.882  34.593   8.853
 6470POPC   GL221122  43.995  34.621   8.853
 6470POPC   C1A21123  43.933  34.575   8.553
 6470POPC   D2A21124  43.882  34.536   8.253
 6470POPC   C3A21125  43.919  34.574   7.953
 6470POPC   C4A21126  43.885  34.613   7.653
 6470POPC   C1B21127  44.157  34.561   8.553
 6470POPC   C2B21128  44.151  34.620   8.253
 6470POPC   C3B21129  44.166  34.591   7.953
 6470POPC   C4B21130  44.125  34.569   7.653
 6471POPC   NC321131  32.284  43.926   9.453
 6471POPC   PO421132  32.222  43.867   9.153
 6471POPC   GL121133  32.296  43.846   8.853
 6471POPC   GL221134  32.359  43.831   8.853
 6471POPC   C1A21135  32.277  43.864   8.553
 6471POPC   D2A21136  32.268  43.871   8.253
 6471POPC   C3A21137  32.255  43.839   7.953
 6471POPC   C4A21138  32.267  43.921   7.653
 6471POPC   C1B21139  32.431  43.738   8.553
 6471POPC   C2B21140  32.421  43.731   8.253
 6471POPC   C3B21141  32.485  43.738   7.953
 6471POPC   C4B21142  32.477  43.713   7.653
 6472POPC   NC321143  10.523  37.663   9.453
 6472POPC   PO421144  10.557  37.646   9.153
 6472POPC   GL121145  10.498  37.634   8.853
 6472POPC   GL221146  10.414  37.741   8.853
 6472POPC   C1A21147  10.524  37.697   8.553
 6472POPC   D2A21148  10.510  37.641   8.253
 6472POPC   C3A21149  10.514  37.688   7.953
 6472POPC   C4A21150  10.568  37.679   7.653
 6472POPC   C1B21151  10.349  37.893   8.553
 6472POPC   C2B21152  10.401  37.942   8.253
 6472POPC   C3B21153  10.439  37.853   7.953
 6472POPC   C4B21154  10.360  37.850   7.653
 6473POPC   NC321155  15.905   3.574   9.453
 6473POPC   PO421156  15.960   3.572   9.153
 6473POPC   GL121157  15.970   3.568   8.853
 6473POPC   GL221158  15.840   3.566   8.853
 6473POPC   C1A21159  15.974   3.553   8.553
 6473POPC   D2A21160  15.975   3.529   8.253
 6473POPC   C3A21161  15.976   3.528   7.953
 6473POPC   C4A21162  15.912   3.509   7.653
 6473POPC   C1B21163  15.676   3.532   8.553
 6473POPC   C2B21164  15.673   3.513   8.253
 6473POPC   C3B21165  15.719   3.603   7.953
 6473POPC   C4B21166  15.718   3.577   7.653
 6474POPC   NC321167  12.857  12.852   9.453
 6474POPC   PO421168  12.818  12.817   9.153
 6474POPC   GL121169  12.862  12.838   8.853
 6474POPC   GL221170  12.796  12.742   8.853
 6474POPC   C1A21171  12.802  12.840   8.553
 6474POPC   D2A21172  12.884  12.846   8.253
 6474POPC   C3A21173  12.893  12.866   7.953
 6474POPC   C4A21174  12.815  12.840   7.653
 6474POPC   C1B21175  12.729  12.641   8.553
 6474POPC   C2B21176  12.695  12.641   8.253
 6474POPC   C3B21177  12.700  12.662   7.953
 6474POPC   C4B21178  12.668  12.674   7.653
 6475POPC   NC321179  16.747  16.000   9.453
 6475POPC   PO421180  16.778  15.969   9.153
 6475POPC   GL121181  16.759  16.001   8.853
 6475POPC   GL221182  16.845  16.033   8.853
 6475POPC   C1A21183  16.683  15.995   8.553
 6475POPC   D2A21184  16.746  15.976   8.253
 6475POPC   C3A21185  16.683  15.931   7.953
 6475POPC   C4A21186  16.700  15.954   7.653
 6475POPC   C1B21187  16.958  16.161   8.553
 6475POPC   C2B21188  16.881  16.122   8.253
 6475POPC   C3B21189  16.862  16.124   7.953
 6475POPC   C4B21190  16.931  16.168   7.653
 6476POPC   NC321191  43.109   5.137   9.453
 6476POPC   PO421192  43.076   5.142   9.153
 6476POPC   GL121193  43.160   5.059   8.853
 6476POPC   GL221194  43.232   5.090   8.853
 6476POPC   C1A21195  43.121   5.060   8.553
 6476POPC   D2A21196  43.063   5.101   8.253
 6476POPC   C3A21197  43.159   5.138   7.953
 6476POPC   C4A21198  43.079   5.124   7.653
 6476POPC   C1B21199  43.326   5.138   8.553
 6476POPC   C2B21200  43.339   5.133   8.253
 6476POPC   C3B21201  43.385   5.167   7.953
 6476POPC   C4B21202  43.348   5.153   7.653
 6477POPC   NC321203   9.740  41.586   9.453
 6477POPC   PO421204   9.772  41.538   9.153
 6477POPC   GL121205   9.796  41.575   8.853
 6477POPC   GL221206   9.838  41.464   8.853
 6477POPC   C1A21207   9.724  41.591   8.553
 6477POPC   D2A21208   9.787  41.554   8.253
 6477POPC   C3A21209   9.746  41.548   7.953
 6477POPC   C4A21210   9.699  41.533   7.653
 6477POPC   C1B21211   9.850  41.315   8.553
 6477POPC   C2B21212   9.811  41.347   8.253
 6477POPC   C3B21213   9.873  41.280   7.953
 6477POPC   C4B21214   9.839  41.370   7.653
 6478POPC   NC321215  44.693  26.828   9.453
 6478POPC   PO421216  44.699  26.827   9.153
 6478POPC   GL121217  44.691  26.846   8.853
 6478POPC   GL221218  44.670  26.682   8.853
 6478POPC   C1A21219  44.658  26.826   8.553
 6478POPC   D2A21220  44.673  26.783   8.253
 6478POPC   C3A21221  44.670  26.814   7.953
 6478POPC   C4A21222  44.668  26.800   7.653
 6478POPC   C1B21223  44.618  26.536   8.553
 6478POPC   C2B21224  44.638  26.584   8.253
 6478POPC   C3B21225  44.569  26.599   7.953
 6478POPC   C4B21226  44.625  26.600   7.653
 6479POPC   NC321227  28.349  15.212   9.453
 6479POPC   PO421228  28.382  15.135   9.153
 6479POPC   GL121229  28.388  15.185   8.853
 6479POPC   GL221230  28.424  15.047   8.853
 6479POPC   C1A21231  28.377  15.194   8.553
 6479POPC   D2A21232  28.380  15.227   8.253
 6479POPC   C3A21233  28.376  15.130   7.953
 6479POPC   C4A21234  28.345  15.144   7.653
 6479POPC   C1B21235  28.488  15.018   8.553
 6479POPC   C2B21236  28.494  15.020   8.253
 6479POPC   C3B21237  28.535  14.993   7.953
 6479POPC   C4B21238  28.544  14.987   7.653
 6480POPC   NC321239  15.183  17.531   9.453
 6480POPC   PO421240  15.139  17.506   9.153
 6480POPC   GL121241  15.207  17.541   8.853
 6480POPC   GL221242  15.147  17.401   8.853
 6480POPC   C1A21243  15.172  17.467   8.553
 6480POPC   D2A21244  15.173  17.497   8.253
 6480POPC   C3A21245  15.210  17.503   7.953
 6480POPC   C4A21246  15.144  17.488   7.653
 6480POPC   C1B21247  15.053  17.329   8.553
 6480POPC   C2B21248  15.048  17.263   8.253
 6480POPC   C3B21249  14.994  17.285   7.953
 6480POPC   C4B21250  15.014  17.300   7.653
 6481POPC   NC321251  21.389  39.275   9.453
 6481POPC   PO421252  21.436  39.217   9.153
 6481POPC   GL121253  21.361  39.195   8.853
 6481POPC   GL221254  21.441  39.126   8.853
 6481POPC   C1A21255  21.428  39.183   8.553
 6481POPC   D2A21256  21.342  39.210   8.253
 6481POPC   C3A21257  21.365  39.202   7.953
 6481POPC   C4A21258  21.431  39.243   7.653
 6481POPC   C1B21259  21.554  39.065   8.553
 6481POPC   C2B21260  21.562  39.102   8.253
 6481POPC   C3B21261  21.631  39.105   7.953
 6481POPC   C4B21262  21.586  39.110   7.653
 6482POPC   NC321263   5.848  20.644   9.453
 6482POPC   PO421264   5.911  20.590   9.153
 6482POPC   GL121265   5.916  20.580   8.853
 6482POPC   GL221266   5.813  20.689   8.853
 6482POPC   C1A21267   5.825  20.658   8.553
 6482POPC   D2A21268   5.825  20.598   8.253
 6482POPC   C3A21269   5.833  20.567   7.953
 6482POPC   C4A21270   5.851  20.590   7.653
 6482POPC   C1B21271   5.671  20.749   8.553
 6482POPC   C2B21272   5.702  20.703   8.253
 6482POPC   C3B21273   5.641  20.758   7.953
 6482POPC   C4B21274   5.645  20.795   7.653
 6483POPC   NC321275  39.193  33.005   9.453
 6483POPC   PO421276  39.185  33.062   9.153
 6483POPC   GL121277  39.183  33.038   8.853
 6483POPC   GL221278  39.350  33.065   8.853
 6483POPC   C1A21279  39.215  33.019   8.553
 6483POPC   D2A21280  39.273  32.983   8.253
 6483POPC   C3A21281  39.198  33.011   7.953
 6483POPC   C4A21282  39.270  33.058   7.653
 6483POPC   C1B21283  39.393  33.235   8.553
 6483POPC   C2B21284  39.389  33.145   8.253
 6483POPC   C3B21285  39.423  33.222   7.953
 6483POPC   C4B21286  39.448  33.193   7.653
 6484POPC   NC321287  10.487  11.309   9.453
 6484POPC   PO421288  10.516  11.334   9.153
 6484POPC   GL121289  10.485  11.277   8.853
 6484POPC   GL221290  10.544  11.374   8.853
 6484POPC   C1A21291  10.511  11.318   8.553
 6484POPC   D2A21292  10.493  11.255   8.253
 6484POPC   C3A21293  10.514  11.289   7.953
 6484POPC   C4A21294  10.520  11.258   7.653
 6484POPC   C1B21295  10.656  11.542   8.553
 6484POPC   C2B21296  10.653  11.582   8.253
 6484POPC   C3B21297  10.590  11.514   7.953
 6484POPC   C4B21298  10.613  11.578   7.653
 6485POPC   NC321299  34.549  15.184   9.453
 6485POPC   PO421300  34.548  15.229   9.153
 6485POPC   GL121301  34.575  15.199   8.853
 6485POPC   GL221302  34.669  15.160   8.853
 6485POPC   C1A21303  34.535  15.144   8.553
 6485POPC   D2A21304  34.623  15.141   8.253
 6485POPC   C3A21305  34.576  15.190   7.953
 6485POPC   C4A21306  34.531  15.158   7.653
 6485POPC   C1B21307  34.852  15.183   8.553
 6485POPC   C2B21308  34.823  15.223   8.253
 6485POPC   C3B21309  34.847  15.242   7.953
 6485POPC   C4B21310  34.812  15.189   7.653
 6486POPC   NC321311  21.421  30.741   9.453
 6486POPC   PO421312  21.425  30.720   9.153
 6486POPC   GL121313  21.379  30.706   8.853
 6486POPC   GL221314  21.301  30.599   8.853
 6486POPC   C1A21315  21.343  30.717   8.553
 6486POPC   D2A21316  21.354  30.675   8.253
 6486POPC   C3A21317  21.359  30.722   7.953
 6486POPC   C4A21318  21.420  30.653   7.653
 6486POPC   C1B21319  21.323  30.469   8.553
 6486POPC   C2B21320  21.290  30.446   8.253
 6486POPC   C3B21321  21.328  30.431   7.953
 6486POPC   C4B21322  21.293  30.483   7.653
 6487POPC   NC321323   8.197  20.614   9.453
 6487POPC   PO421324   8.214  20.617   9.153
 6487POPC   GL121325   8.164  20.624   8.853
 6487POPC   GL221326   8.315  20.710   8.853
 6487POPC   C1A21327   8.170  20.571   8.553
 6487POPC   D2A21328   8.180  20.590   8.253
 6487POPC   C3A21329   8.234  20.600   7.953
 6487POPC   C4A21330   8.156  20.590   7.653
 6487POPC   C1B21331   8.426  20.799   8.553
 6487POPC   C2B21332   8.446  20.708   8.253
 6487POPC   C3B21333   8.355  20.756   7.953
 6487POPC   C4B21334   8.433  20.743   7.653
 6488POPC   NC321335  40.781  22.922   9.453
 6488POPC   PO421336  40.743  22.891   9.153
 6488POPC   GL121337  40.761  22.932   8.853
 6488POPC   GL221338  40.920  22.921   8.853
 6488POPC   C1A21339  40.756  22.972   8.553
 6488POPC   D2A21340  40.778  22.908   8.253
 6488POPC   C3A21341  40.740  22.986   7.953
 6488POPC   C4A21342  40.818  22.898   7.653
 6488POPC   C1B21343  41.012  22.899   8.553
 6488POPC   C2B21344  41.051  22.813   8.253
 6488POPC   C3B21345  41.002  22.836   7.953
 6488POPC   C4B21346  40.991  22.886   7.653
 6489POPC   NC321347  35.379  29.955   9.453
 6489POPC   PO421348  35.380  29.885   9.153
 6489POPC   GL121349  35.376  29.914   8.853
 6489POPC   GL221350  35.303  29.842   8.853
 6489POPC   C1A21351  35.306  29.945   8.553
 6489POPC   D2A21352  35.326  29.876   8.253
 6489POPC   C3A21353  35.376  29.914   7.953
 6489POPC   C4A21354  35.365  29.916   7.653
 6489POPC   C1B21355  35.115  29.752   8.553
 6489POPC   C2B21356  35.188  29.731   8.253
 6489POPC   C3B21357  35.179  29.790   7.953
 6489POPC   C4B21358  35.144  29.800   7.653
 6490POPC   NC321359  13.628  16.696   9.453
 6490POPC   PO421360  13.650  16.723   9.153
 6490POPC   GL121361  13.675  16.766   8.853
 6490POPC   GL221362  13.502  16.708   8.853
 6490POPC   C1A21363  13.621  16.754   8.553
 6490POPC   D2A21364  13.615  16.727   8.253
 6490POPC   C3A21365  13.654  16.721   7.953
 6490POPC   C4A21366  13.674  16.726   7.653
 6490POPC   C1B21367  13.431  16.563   8.553
 6490POPC   C2B21368  13.455  16.643   8.253
 6490POPC   C3B21369  13.460  16.562   7.953
 6490POPC   C4B21370  13.394  16.644   7.653
 6491POPC   NC321371  44.638  14.408   9.453
 6491POPC   PO421372  44.681  14.379   9.153
 6491POPC   GL121373  44.621  14.394   8.853
 6491POPC   GL221374  44.679  14.298   8.853
 6491POPC   C1A21375  44.669  14.402   8.553
 6491POPC   D2A21376  44.635  14.410   8.253
 6491POPC   C3A21377  44.709  14.444   7.953
 6491POPC   C4A21378  44.619  14.381   7.653
 6491POPC   C1B21379  44.714  14.164   8.553
 6491POPC   C2B21380  44.719  14.149   8.253
 6491POPC   C3B21381  44.707  14.198   7.953
 6491POPC   C4B21382  44.709  14.198   7.653
 6492POPC   NC321383   8.179  13.580   9.453
 6492POPC   PO421384   8.188  13.671   9.153
 6492POPC   GL121385   8.192  13.642   8.853
 6492POPC   GL221386   8.272  13.554   8.853
 6492POPC   C1A21387   8.147  13.649   8.553
 6492POPC   D2A21388   8.201  13.589   8.253
 6492POPC   C3A21389   8.195  13.650   7.953
 6492POPC   C4A21390   8.201  13.664   7.653
 6492POPC   C1B21391   8.331  13.386   8.553
 6492POPC   C2B21392   8.334  13.363   8.253
 6492POPC   C3B21393   8.345  13.371   7.953
 6492POPC   C4B21394   8.355  13.354   7.653
 6493POPC   NC321395  12.861  26.858   9.453
 6493POPC   PO421396  12.879  26.780   9.153
 6493POPC   GL121397  12.818  26.862   8.853
 6493POPC   GL221398  12.990  26.811   8.853
 6493POPC   C1A21399  12.877  26.806   8.553
 6493POPC   D2A21400  12.810  26.818   8.253
 6493POPC   C3A21401  12.817  26.809   7.953
 6493POPC   C4A21402  12.827  26.807   7.653
 6493POPC   C1B21403  13.059  26.811   8.553
 6493POPC   C2B21404  13.092  26.858   8.253
 6493POPC   C3B21405  13.058  26.834   7.953
 6493POPC   C4B21406  13.127  26.806   7.653
 6494POPC   NC321407   8.963  28.361   9.453
 6494POPC   PO421408   8.996  28.384   9.153
 6494POPC   GL121409   8.978  28.324   8.853
 6494POPC   GL221410   8.949  28.476   8.853
 6494POPC   C1A21411   8.965  28.372   8.553
 6494POPC   D2A21412   8.985  28.407   8.253
 6494POPC   C3A21413   9.016  28.351   7.953
 6494POPC   C4A21414   9.008  28.321   7.653
 6494POPC   C1B21415   9.013  28.577   8.553
 6494POPC   C2B21416   8.970  28.619   8.253
 6494POPC   C3B21417   8.955  28.638   7.953
 6494POPC   C4B21418   8.940  28.604   7.653
 6495POPC   NC321419  12.881   7.384   9.453
 6495POPC   PO421420  12.892   7.405   9.153
 6495POPC   GL121421  12.877   7.392   8.853
 6495POPC   GL221422  12.806   7.352   8.853
 6495POPC   C1A21423  12.844   7.430   8.553
 6495POPC   D2A21424  12.885   7.467   8.253
 6495POPC   C3A21425  12.864   7.465   7.953
 6495POPC   C4A21426  12.804   7.391   7.653
 6495POPC   C1B21427  12.689   7.203   8.553
 6495POPC   C2B21428  12.668   7.297   8.253
 6495POPC   C3B21429  12.684   7.202   7.953
 6495POPC   C4B21430  12.631   7.216   7.653
 6496POPC   NC321431  36.864  36.873   9.453
 6496POPC   PO421432  36.930  36.856   9.153
 6496POPC   GL121433  36.916  36.874   8.853
 6496POPC   GL221434  36.864  37.068   8.853
 6496POPC   C1A21435  36.902  36.873   8.553
 6496POPC   D2A21436  36.912  36.952   8.253
 6496POPC   C3A21437  36.922  36.931   7.953
 6496POPC   C4A21438  36.909  36.944   7.653
 6496POPC   C1B21439  36.822  37.124   8.553
 6496POPC   C2B21440  36.882  37.126   8.253
 6496POPC   C3B21441  36.821  37.155   7.953
 6496POPC   C4B21442  36.845  37.143   7.653
 6497POPC   NC321443  19.099  27.584   9.453
 6497POPC   PO421444  19.044  27.575   9.153
 6497POPC   GL121445  19.050  27.557   8.853
 6497POPC   GL221446  18.983  27.602   8.853
 6497POPC   C1A21447  19.090  27.594   8.553
 6497POPC   D2A21448  19.038  27.615   8.253
 6497POPC   C3A21449  19.041  27.609   7.953
 6497POPC   C4A21450  19.093  27.549   7.653
 6497POPC   C1B21451  18.798  27.640   8.553
 6497POPC   C2B21452  18.773  27.596   8.253
 6497POPC   C3B21453  18.841  27.590   7.953
 6497POPC   C4B21454  18.782  27.631   7.653
 6498POPC   NC321455  36.081  44.626   9.453
 6498POPC   PO421456  36.149  44.699   9.153
 6498POPC   GL121457  36.162  44.703   8.853
 6498POPC   GL221458  36.096  44.510   8.853
 6498POPC   C1A21459  36.099  44.647   8.553
 6498POPC   D2A21460  36.132  44.702   8.253
 6498POPC   C3A21461  36.151  44.708   7.953
 6498POPC   C4A21462  36.147  44.676   7.653
 6498POPC   C1B21463  36.064  44.472   8.553
 6498POPC   C2B21464  36.037  44.422   8.253
 6498POPC   C3B21465  36.057  44.415   7.953
 6498POPC   C4B21466  36.004  44.413   7.653
 6499POPC   NC321467  37.678  22.125   9.453
 6499POPC   PO421468  37.702  22.129   9.153
 6499POPC   GL121469  37.708  22.141   8.853
 6499POPC   GL221470  37.615  22.210   8.853
 6499POPC   C1A21471  37.688  22.142   8.553
 6499POPC   D2A21472  37.678  22.148   8.253
 6499POPC   C3A21473  37.636  22.162   7.953
 6499POPC   C4A21474  37.662  22.192   7.653
 6499POPC   C1B21475  37.470  22.354   8.553
 6499POPC   C2B21476  37.482  22.384   8.253
 6499POPC   C3B21477  37.551  22.344   7.953
 6499POPC   C4B21478  37.552  22.303   7.653
 6500POPC   NC321479   3.538  38.476   9.453
 6500POPC   PO421480   3.558  38.437   9.153
 6500POPC   GL121481   3.588  38.470   8.853
 6500POPC   GL221482   3.640  38.487   8.853
 6500POPC   C1A21483   3.501  38.422   8.553
 6500POPC   D2A21484   3.515  38.469   8.253
 6500POPC   C3A21485   3.577  38.453   7.953
 6500POPC   C4A21486   3.493  38.479   7.653
 6500POPC   C1B21487   3.773  38.512   8.553
 6500POPC   C2B21488   3.745  38.535   8.253
 6500POPC   C3B21489   3.810  38.500   7.953
 6500POPC   C4B21490   3.812  38.558   7.653
 6501POPC   NC321491  30.671  43.858   9.453
 6501POPC   PO421492  30.697  43.914   9.153
 6501POPC   GL121493  30.692  43.883   8.853
 6501POPC   GL221494  30.570  43.829   8.853
 6501POPC   C1A21495  30.647  43.911   8.553
 6501POPC   D2A21496  30.650  43.890   8.253
 6501POPC   C3A21497  30.709  43.861   7.953
 6501POPC   C4A21498  30.724  43.887   7.653
 6501POPC   C1B21499  30.429  43.875   8.553
 6501POPC   C2B21500  30.434  43.859   8.253
 6501POPC   C3B21501  30.482  43.851   7.953
 6501POPC   C4B21502  30.404  43.806   7.653
 6502POPC   NC321503  40.050  28.349   9.453
 6502POPC   PO421504  40.014  28.346   9.153
 6502POPC   GL121505  40.055  28.353   8.853
 6502POPC   GL221506  40.028  28.531   8.853
 6502POPC   C1A21507  39.969  28.377   8.553
 6502POPC   D2A21508  40.011  28.368   8.253
 6502POPC   C3A21509  40.056  28.388   7.953
 6502POPC   C4A21510  40.006  28.380   7.653
 6502POPC   C1B21511  40.014  28.654   8.553
 6502POPC   C2B21512  39.992  28.653   8.253
 6502POPC   C3B21513  39.975  28.582   7.953
 6502POPC   C4B21514  39.962  28.602   7.653
 6503POPC   NC321515  15.995  17.508   9.453
 6503POPC   PO421516  15.932  17.490   9.153
 6503POPC   GL121517  15.928  17.472   8.853
 6503POPC   GL221518  15.920  17.599   8.853
 6503POPC   C1A21519  15.975  17.540   8.553
 6503POPC   D2A21520  15.971  17.498   8.253
 6503POPC   C3A21521  15.993  17.487   7.953
 6503POPC   C4A21522  15.914  17.537   7.653
 6503POPC   C1B21523  15.810  17.682   8.553
 6503POPC   C2B21524  15.771  17.741   8.253
 6503POPC   C3B21525  15.753  17.709   7.953
 6503POPC   C4B21526  15.745  17.705   7.653
 6504POPC   NC321527  33.057  38.422   9.453
 6504POPC   PO421528  33.063  38.428   9.153
 6504POPC   GL121529  33.021  38.449   8.853
 6504POPC   GL221530  32.934  38.322   8.853
 6504POPC   C1A21531  33.037  38.443   8.553
 6504POPC   D2A21532  33.038  38.452   8.253
 6504POPC   C3A21533  33.072  38.442   7.953
 6504POPC   C4A21534  33.029  38.433   7.653
 6504POPC   C1B21535  32.908  38.213   8.553
 6504POPC   C2B21536  32.880  38.278   8.253
 6504POPC   C3B21537  32.864  38.197   7.953
 6504POPC   C4B21538  32.911  38.275   7.653
 6505POPC   NC321539  30.722  33.845   9.453
 6505POPC   PO421540  30.712  33.824   9.153
 6505POPC   GL121541  30.688  33.846   8.853
 6505POPC   GL221542  30.602  33.787   8.853
 6505POPC   C1A21543  30.664  33.754   8.553
 6505POPC   D2A21544  30.671  33.791   8.253
 6505POPC   C3A21545  30.683  33.814   7.953
 6505POPC   C4A21546  30.708  33.795   7.653
 6505POPC   C1B21547  30.469  33.798   8.553
 6505POPC   C2B21548  30.492  33.818   8.253
 6505POPC   C3B21549  30.465  33.730   7.953
 6505POPC   C4B21550  30.400  33.728   7.653
 6506POPC   NC321551  42.310  44.638   9.453
 6506POPC   PO421552  42.337  44.627   9.153
 6506POPC   GL121553  42.377  44.634   8.853
 6506POPC   GL221554  42.316  44.771   8.853
 6506POPC   C1A21555  42.377  44.661   8.553
 6506POPC   D2A21556  42.362  44.699   8.253
 6506POPC   C3A21557  42.352  44.698   7.953
 6506POPC   C4A21558  42.294  44.648   7.653
 6506POPC   C1B21559  42.278  44.933   8.553
 6506POPC   C2B21560  42.223  44.851   8.253
 6506POPC   C3B21561  42.236  44.932   7.953
 6506POPC   C4B21562  42.284  44.920   7.653
 6507POPC   NC321563  40.806   0.412   9.453
 6507POPC   PO421564  40.739   0.460   9.153
 6507POPC   GL121565  40.815   0.477   8.853
 6507POPC   GL221566  40.901   0.383   8.853
 6507POPC   C1A21567  40.790   0.429   8.553
 6507POPC   D2A21568  40.820   0.484   8.253
 6507POPC   C3A21569  40.806   0.475   7.953
 6507POPC   C4A21570  40.817   0.485   7.653
 6507POPC   C1B21571  40.996   0.413   8.553
 6507POPC   C2B21572  41.003   0.399   8.253
 6507POPC   C3B21573  41.018   0.463   7.953
 6507POPC   C4B21574  41.055   0.377   7.653
 6508POPC   NC321575  12.802  42.347   9.453
 6508POPC   PO421576  12.864  42.368   9.153
 6508POPC   GL121577  12.824  42.302   8.853
 6508POPC   GL221578  12.736  42.350   8.853
 6508POPC   C1A21579  12.896  42.357   8.553
 6508POPC   D2A21580  12.852  42.335   8.253
 6508POPC   C3A21581  12.821  42.348   7.953
 6508POPC   C4A21582  12.882  42.329   7.653
 6508POPC   C1B21583  12.659  42.460   8.553
 6508POPC   C2B21584  12.646  42.486   8.253
 6508POPC   C3B21585  12.674  42.490   7.953
 6508POPC   C4B21586  12.608  42.467   7.653
 6509POPC   NC321587  16.722   9.731   9.453
 6509POPC   PO421588  16.759   9.773   9.153
 6509POPC   GL121589  16.741   9.708   8.853
 6509POPC   GL221590  16.654   9.621   8.853
 6509POPC   C1A21591  16.699   9.729   8.553
 6509POPC   D2A21592  16.703   9.778   8.253
 6509POPC   C3A21593  16.684   9.744   7.953
 6509POPC   C4A21594  16.694   9.709   7.653
 6509POPC   C1B21595  16.585   9.507   8.553
 6509POPC   C2B21596  16.610   9.546   8.253
 6509POPC   C3B21597  16.560   9.601   7.953
 6509POPC   C4B21598  16.527   9.582   7.653
 6510POPC   NC321599  22.180   1.961   9.453
 6510POPC   PO421600  22.182   2.005   9.153
 6510POPC   GL121601  22.190   2.022   8.853
 6510POPC   GL221602  22.074   2.071   8.853
 6510POPC   C1A21603  22.134   1.972   8.553
 6510POPC   D2A21604  22.174   2.005   8.253
 6510POPC   C3A21605  22.180   1.982   7.953
 6510POPC   C4A21606  22.171   1.990   7.653
 6510POPC   C1B21607  22.066   2.187   8.553
 6510POPC   C2B21608  22.078   2.238   8.253
 6510POPC   C3B21609  22.004   2.176   7.953
 6510POPC   C4B21610  22.039   2.225   7.653
 6511POPC   NC321611  43.859  27.590   9.453
 6511POPC   PO421612  43.855  27.559   9.153
 6511POPC   GL121613  43.847  27.599   8.853
 6511POPC   GL221614  43.987  27.730   8.853
 6511POPC   C1A21615  43.890  27.560   8.553
 6511POPC   D2A21616  43.845  27.555   8.253
 6511POPC   C3A21617  43.924  27.639   7.953
 6511POPC   C4A21618  43.898  27.596   7.653
 6511POPC   C1B21619  44.060  27.797   8.553
 6511POPC   C2B21620  44.081  27.787   8.253
 6511POPC   C3B21621  44.083  27.754   7.953
 6511POPC   C4B21622  44.011  27.784   7.653
 6512POPC   NC321623   4.367  27.596   9.453
 6512POPC   PO421624   4.271  27.614   9.153
 6512POPC   GL121625   4.336  27.643   8.853
 6512POPC   GL221626   4.192  27.675   8.853
 6512POPC   C1A21627   4.352  27.616   8.553
 6512POPC   D2A21628   4.302  27.575   8.253
 6512POPC   C3A21629   4.330  27.560   7.953
 6512POPC   C4A21630   4.326  27.624   7.653
 6512POPC   C1B21631   4.145  27.736   8.553
 6512POPC   C2B21632   4.188  27.770   8.253
 6512POPC   C3B21633   4.179  27.825   7.953
 6512POPC   C4B21634   4.190  27.827   7.653
 6513POPC   NC321635  32.287   9.727   9.453
 6513POPC   PO421636  32.291   9.743   9.153
 6513POPC   GL121637  32.290   9.731   8.853
 6513POPC   GL221638  32.211   9.895   8.853
 6513POPC   C1A21639  32.261   9.769   8.553
 6513POPC   D2A21640  32.216   9.713   8.253
 6513POPC   C3A21641  32.268   9.699   7.953
 6513POPC   C4A21642  32.266   9.723   7.653
 6513POPC   C1B21643  32.263   9.961   8.553
 6513POPC   C2B21644  32.224   9.971   8.253
 6513POPC   C3B21645  32.280  10.012   7.953
 6513POPC   C4B21646  32.261  10.002   7.653
 6514POPC   NC321647  39.248   5.892   9.453
 6514POPC   PO421648  39.194   5.895   9.153
 6514POPC   GL121649  39.210   5.837   8.853
 6514POPC   GL221650  39.076   5.944   8.853
 6514POPC   C1A21651  39.261   5.911   8.553
 6514POPC   D2A21652  39.280   5.858   8.253
 6514POPC   C3A21653  39.268   5.886   7.953
 6514POPC   C4A21654  39.188   5.915   7.653
 6514POPC   C1B21655  39.016   5.886   8.553
 6514POPC   C2B21656  39.011   5.950   8.253
 6514POPC   C3B21657  38.976   5.963   7.953
 6514POPC   C4B21658  38.992   5.882   7.653
 6515POPC   NC321659   1.246  42.384   9.453
 6515POPC   PO421660   1.204  42.301   9.153
 6515POPC   GL121661   1.250  42.290   8.853
 6515POPC   GL221662   1.112  42.221   8.853
 6515POPC   C1A21663   1.194  42.329   8.553
 6515POPC   D2A21664   1.202  42.290   8.253
 6515POPC   C3A21665   1.168  42.344   7.953
 6515POPC   C4A21666   1.187  42.309   7.653
 6515POPC   C1B21667   1.070  42.119   8.553
 6515POPC   C2B21668   1.101  42.098   8.253
 6515POPC   C3B21669   1.109  42.126   7.953
 6515POPC   C4B21670   1.044  42.158   7.653
 6516POPC   NC321671  29.930  43.922   9.453
 6516POPC   PO421672  29.904  43.925   9.153
 6516POPC   GL121673  29.885  43.880   8.853
 6516POPC   GL221674  29.932  44.047   8.853
 6516POPC   C1A21675  29.964  43.862   8.553
 6516POPC   D2A21676  29.970  43.897   8.253
 6516POPC   C3A21677  29.957  43.921   7.953
 6516POPC   C4A21678  29.948  43.920   7.653
 6516POPC   C1B21679  29.995  44.152   8.553
 6516POPC   C2B21680  30.043  44.097   8.253
 6516POPC   C3B21681  29.956  44.159   7.953
 6516POPC   C4B21682  30.012  44.099   7.653
 6517POPC   NC321683  33.801   6.691   9.453
 6517POPC   PO421684  33.843   6.650   9.153
 6517POPC   GL121685  33.772   6.654   8.853
 6517POPC   GL221686  33.812   6.730   8.853
 6517POPC   C1A21687  33.849   6.600   8.553
 6517POPC   D2A21688  33.770   6.647   8.253
 6517POPC   C3A21689  33.764   6.691   7.953
 6517POPC   C4A21690  33.766   6.624   7.653
 6517POPC   C1B21691  33.863   6.862   8.553
 6517POPC   C2B21692  33.793   6.855   8.253
 6517POPC   C3B21693  33.816   6.931   7.953
 6517POPC   C4B21694  33.846   6.853   7.653
 6518POPC   NC321695  13.607   4.348   9.453
 6518POPC   PO421696  13.590   4.316   9.153
 6518POPC   GL121697  13.641   4.331   8.853
 6518POPC   GL221698  13.491   4.294   8.853
 6518POPC   C1A21699  13.589   4.293   8.553
 6518POPC   D2A21700  13.671   4.317   8.253
 6518POPC   C3A21701  13.648   4.293   7.953
 6518POPC   C4A21702  13.627   4.272   7.653
 6518POPC   C1B21703  13.413   4.298   8.553
 6518POPC   C2B21704  13.371   4.306   8.253
 6518POPC   C3B21705  13.425   4.314   7.953
 6518POPC   C4B21706  13.409   4.337   7.653
 6519POPC   NC321707  18.271  32.211   9.453
 6519POPC   PO421708  18.251  32.275   9.153
 6519POPC   GL121709  18.300  32.297   8.853
 6519POPC   GL221710  18.115  32.287   8.853
 6519POPC   C1A21711  18.307  32.290   8.553
 6519POPC   D2A21712  18.254  32.258   8.253
 6519POPC   C3A21713  18.310  32.219   7.953
 6519POPC   C4A21714  18.323  32.272   7.653
 6519POPC   C1B21715  18.008  32.237   8.553
 6519POPC   C2B21716  18.021  32.235   8.253
 6519POPC   C3B21717  18.052  32.265   7.953
 6519POPC   C4B21718  17.999  32.232   7.653
 6520POPC   NC321719   8.214  12.041   9.453
 6520POPC   PO421720   8.230  12.030   9.153
 6520POPC   GL121721   8.245  12.044   8.853
 6520POPC   GL221722   8.230  12.183   8.853
 6520POPC   C1A21723   8.183  12.077   8.553
 6520POPC   D2A21724   8.214  12.028   8.253
 6520POPC   C3A21725   8.192  12.045   7.953
 6520POPC   C4A21726   8.246  12.086   7.653
 6520POPC   C1B21727   8.327  12.267   8.553
 6520POPC   C2B21728   8.320  12.330   8.253
 6520POPC   C3B21729   8.364  12.292   7.953
 6520POPC   C4B21730   8.318  12.261   7.653
 6521POPC   NC321731   9.796  26.031   9.453
 6521POPC   PO421732   9.767  26.023   9.153
 6521POPC   GL121733   9.791  26.036   8.853
 6521POPC   GL221734   9.608  26.004   8.853
 6521POPC   C1A21735   9.708  26.012   8.553
 6521POPC   D2A21736   9.769  26.056   8.253
 6521POPC   C3A21737   9.792  26.063   7.953
 6521POPC   C4A21738   9.779  26.068   7.653
 6521POPC   C1B21739   9.483  25.897   8.553
 6521POPC   C2B21740   9.539  25.918   8.253
 6521POPC   C3B21741   9.495  25.940   7.953
 6521POPC   C4B21742   9.501  25.906   7.653
 6522POPC   NC321743  42.317  36.085   9.453
 6522POPC   PO421744  42.307  36.139   9.153
 6522POPC   GL121745  42.302  36.080   8.853
 6522POPC   GL221746  42.215  36.114   8.853
 6522POPC   C1A21747  42.295  36.097   8.553
 6522POPC   D2A21748  42.343  36.089   8.253
 6522POPC   C3A21749  42.317  36.096   7.953
 6522POPC   C4A21750  42.374  36.124   7.653
 6522POPC   C1B21751  42.058  36.117   8.553
 6522POPC   C2B21752  42.115  36.054   8.253
 6522POPC   C3B21753  42.048  36.117   7.953
 6522POPC   C4B21754  42.075  36.081   7.653
 6523POPC   NC321755   8.969  19.049   9.453
 6523POPC   PO421756   8.994  19.089   9.153
 6523POPC   GL121757   8.989  19.050   8.853
 6523POPC   GL221758   9.076  19.145   8.853
 6523POPC   C1A21759   8.979  19.074   8.553
 6523POPC   D2A21760   8.928  19.025   8.253
 6523POPC   C3A21761   9.012  19.077   7.953
 6523POPC   C4A21762   8.964  19.025   7.653
 6523POPC   C1B21763   9.111  19.280   8.553
 6523POPC   C2B21764   9.134  19.285   8.253
 6523POPC   C3B21765   9.089  19.309   7.953
 6523POPC   C4B21766   9.160  19.243   7.653
 6524POPC   NC321767   8.205  29.160   9.453
 6524POPC   PO421768   8.205  29.147   9.153
 6524POPC   GL121769   8.196  29.176   8.853
 6524POPC   GL221770   8.068  29.216   8.853
 6524POPC   C1A21771   8.201  29.129   8.553
 6524POPC   D2A21772   8.177  29.164   8.253
 6524POPC   C3A21773   8.222  29.128   7.953
 6524POPC   C4A21774   8.150  29.145   7.653
 6524POPC   C1B21775   7.987  29.197   8.553
 6524POPC   C2B21776   7.947  29.158   8.253
 6524POPC   C3B21777   7.965  29.142   7.953
 6524POPC   C4B21778   7.988  29.169   7.653
 6525POPC   NC321779  22.148  42.292   9.453
 6525POPC   PO421780  22.207  42.330   9.153
 6525POPC   GL121781  22.168  42.328   8.853
 6525POPC   GL221782  22.075  42.224   8.853
 6525POPC   C1A21783  22.200  42.287   8.553
 6525POPC   D2A21784  22.158  42.359   8.253
 6525POPC   C3A21785  22.182  42.333   7.953
 6525POPC   C4A21786  22.158  42.335   7.653
 6525POPC   C1B21787  21.917  42.226   8.553
 6525POPC   C2B21788  21.911  42.223   8.253
 6525POPC   C3B21789  21.993  42.169   7.953
 6525POPC   C4B21790  21.900  42.256   7.653
 6526POPC   NC321791  26.801   3.565   9.453
 6526POPC   PO421792  26.770   3.511   9.153
 6526POPC   GL121793  26.817   3.526   8.853
 6526POPC   GL221794  26.747   3.614   8.853
 6526POPC   C1A21795  26.788   3.496   8.553
 6526POPC   D2A21796  26.827   3.570   8.253
 6526POPC   C3A21797  26.791   3.505   7.953
 6526POPC   C4A21798  26.804   3.519   7.653
 6526POPC   C1B21799  26.651   3.702   8.553
 6526POPC   C2B21800  26.676   3.766   8.253
 6526POPC   C3B21801  26.706   3.709   7.953
 6526POPC   C4B21802  26.636   3.787   7.653
 6527POPC   NC321803  22.945   5.825   9.453
 6527POPC   PO421804  22.984   5.899   9.153
 6527POPC   GL121805  22.893   5.865   8.853
 6527POPC   GL221806  23.038   5.910   8.853
 6527POPC   C1A21807  22.960   5.915   8.553
 6527POPC   D2A21808  22.962   5.890   8.253
 6527POPC   C3A21809  22.936   5.824   7.953
 6527POPC   C4A21810  22.986   5.849   7.653
 6527POPC   C1B21811  23.196   5.902   8.553
 6527POPC   C2B21812  23.230   5.885   8.253
 6527POPC   C3B21813  23.152   5.872   7.953
 6527POPC   C4B21814  23.213   5.812   7.653
 6528POPC   NC321815  31.445  41.544   9.453
 6528POPC   PO421816  31.505  41.600   9.153
 6528POPC   GL121817  31.466  41.546   8.853
 6528POPC   GL221818  31.493  41.719   8.853
 6528POPC   C1A21819  31.504  41.556   8.553
 6528POPC   D2A21820  31.427  41.555   8.253
 6528POPC   C3A21821  31.460  41.516   7.953
 6528POPC   C4A21822  31.505  41.549   7.653
 6528POPC   C1B21823  31.516  41.811   8.553
 6528POPC   C2B21824  31.536  41.815   8.253
 6528POPC   C3B21825  31.502  41.778   7.953
 6528POPC   C4B21826  31.510  41.752   7.653
 6529POPC   NC321827   8.940   9.739   9.453
 6529POPC   PO421828   8.953   9.779   9.153
 6529POPC   GL121829   8.940   9.729   8.853
 6529POPC   GL221830   8.912   9.832   8.853
 6529POPC   C1A21831   8.953   9.720   8.553
 6529POPC   D2A21832   8.949   9.755   8.253
 6529POPC   C3A21833   8.958   9.780   7.953
 6529POPC   C4A21834   8.997   9.738   7.653
 6529POPC   C1B21835   8.820   9.905   8.553
 6529POPC   C2B21836   8.778   9.938   8.253
 6529POPC   C3B21837   8.801   9.894   7.953
 6529POPC   C4B21838   8.739   9.862   7.653
 6530POPC   NC321839  14.442  43.071   9.453
 6530POPC   PO421840  14.394  43.100   9.153
 6530POPC   GL121841  14.444  43.078   8.853
 6530POPC   GL221842  14.380  43.275   8.853
 6530POPC   C1A21843  14.406  43.142   8.553
 6530POPC   D2A21844  14.411  43.138   8.253
 6530POPC   C3A21845  14.450  43.069   7.953
 6530POPC   C4A21846  14.434  43.084   7.653
 6530POPC   C1B21847  14.417  43.329   8.553
 6530POPC   C2B21848  14.430  43.398   8.253
 6530POPC   C3B21849  14.467  43.341   7.953
 6530POPC   C4B21850  14.451  43.319   7.653
 6531POPC   NC321851  22.922   9.013   9.453
 6531POPC   PO421852  22.947   8.950   9.153
 6531POPC   GL121853  22.890   8.952   8.853
 6531POPC   GL221854  22.891   9.070   8.853
 6531POPC   C1A21855  22.938   8.970   8.553
 6531POPC   D2A21856  22.949   8.953   8.253
 6531POPC   C3A21857  22.926   8.981   7.953
 6531POPC   C4A21858  22.915   8.971   7.653
 6531POPC   C1B21859  22.883   9.224   8.553
 6531POPC   C2B21860  22.873   9.224   8.253
 6531POPC   C3B21861  22.935   9.216   7.953
 6531POPC   C4B21862  22.925   9.177   7.653
 6532POPC   NC321863  12.070  13.608   9.453
 6532POPC   PO421864  12.033  13.622   9.153
 6532POPC   GL121865  12.125  13.628   8.853
 6532POPC   GL221866  11.955  13.671   8.853
 6532POPC   C1A21867  12.096  13.677   8.553
 6532POPC   D2A21868  12.032  13.602   8.253
 6532POPC   C3A21869  12.083  13.623   7.953
 6532POPC   C4A21870  12.074  13.602   7.653
 6532POPC   C1B21871  11.825  13.719   8.553
 6532POPC   C2B21872  11.889  13.736   8.253
 6532POPC   C3B21873  11.834  13.724   7.953
 6532POPC   C4B21874  11.876  13.773   7.653
 6533POPC   NC321875  42.308  22.152   9.453
 6533POPC   PO421876  42.302  22.172   9.153
 6533POPC   GL121877  42.355  22.145   8.853
 6533POPC   GL221878  42.320  22.240   8.853
 6533POPC   C1A21879  42.341  22.165   8.553
 6533POPC   D2A21880  42.342  22.168   8.253
 6533POPC   C3A21881  42.293  22.167   7.953
 6533POPC   C4A21882  42.361  22.194   7.653
 6533POPC   C1B21883  42.355  22.455   8.553
 6533POPC   C2B21884  42.292  22.393   8.253
 6533POPC   C3B21885  42.360  22.386   7.953
 6533POPC   C4B21886  42.330  22.424   7.653
 6534POPC   NC321887  25.218  13.665   9.453
 6534POPC   PO421888  25.225  13.614   9.153
 6534POPC   GL121889  25.293  13.587   8.853
 6534POPC   GL221890  25.280  13.515   8.853
 6534POPC   C1A21891  25.312  13.612   8.553
 6534POPC   D2A21892  25.314  13.647   8.253
 6534POPC   C3A21893  25.308  13.588   7.953
 6534POPC   C4A21894  25.298  13.635   7.653
 6534POPC   C1B21895  25.259  13.395   8.553
 6534POPC   C2B21896  25.248  13.346   8.253
 6534POPC   C3B21897  25.300  13.406   7.953
 6534POPC   C4B21898  25.239  13.340   7.653
 6535POPC   NC321899   8.201   1.998   9.453
 6535POPC   PO421900   8.152   2.036   9.153
 6535POPC   GL121901   8.157   2.039   8.853
 6535POPC   GL221902   8.148   1.897   8.853
 6535POPC   C1A21903   8.229   1.953   8.553
 6535POPC   D2A21904   8.241   1.941   8.253
 6535POPC   C3A21905   8.162   1.989   7.953
 6535POPC   C4A21906   8.216   2.029   7.653
 6535POPC   C1B21907   8.047   1.821   8.553
 6535POPC   C2B21908   8.005   1.764   8.253
 6535POPC   C3B21909   8.099   1.798   7.953
 6535POPC   C4B21910   8.080   1.829   7.653
 6536POPC   NC321911  27.546  35.320   9.453
 6536POPC   PO421912  27.618  35.314   9.153
 6536POPC   GL121913  27.629  35.348   8.853
 6536POPC   GL221914  27.517  35.266   8.853
 6536POPC   C1A21915  27.546  35.342   8.553
 6536POPC   D2A21916  27.627  35.386   8.253
 6536POPC   C3A21917  27.609  35.356   7.953
 6536POPC   C4A21918  27.566  35.351   7.653
 6536POPC   C1B21919  27.365  35.306   8.553
 6536POPC   C2B21920  27.368  35.222   8.253
 6536POPC   C3B21921  27.327  35.248   7.953
 6536POPC   C4B21922  27.371  35.224   7.653
 6537POPC   NC321923  36.091  27.622   9.453
 6537POPC   PO421924  36.135  27.553   9.153
 6537POPC   GL121925  36.101  27.623   8.853
 6537POPC   GL221926  36.010  27.587   8.853
 6537POPC   C1A21927  36.146  27.605   8.553
 6537POPC   D2A21928  36.087  27.615   8.253
 6537POPC   C3A21929  36.117  27.545   7.953
 6537POPC   C4A21930  36.176  27.631   7.653
 6537POPC   C1B21931  35.855  27.622   8.553
 6537POPC   C2B21932  35.936  27.648   8.253
 6537POPC   C3B21933  35.888  27.679   7.953
 6537POPC   C4B21934  35.914  27.650   7.653
 6538POPC   NC321935  24.474   3.580   9.453
 6538POPC   PO421936  24.453   3.589   9.153
 6538POPC   GL121937  24.440   3.534   8.853
 6538POPC   GL221938  24.378   3.459   8.853
 6538POPC   C1A21939  24.477   3.543   8.553
 6538POPC   D2A21940  24.464   3.494   8.253
 6538POPC   C3A21941  24.497   3.584   7.953
 6538POPC   C4A21942  24.454   3.507   7.653
 6538POPC   C1B21943  24.249   3.401   8.553
 6538POPC   C2B21944  24.287   3.382   8.253
 6538POPC   C3B21945  24.276   3.397   7.953
 6538POPC   C4B21946  24.280   3.426   7.653
 6539POPC   NC321947  41.522  30.692   9.453
 6539POPC   PO421948  41.591  30.707   9.153
 6539POPC   GL121949  41.585  30.716   8.853
 6539POPC   GL221950  41.579  30.579   8.853
 6539POPC   C1A21951  41.536  30.675   8.553
 6539POPC   D2A21952  41.563  30.722   8.253
 6539POPC   C3A21953  41.591  30.687   7.953
 6539POPC   C4A21954  41.548  30.665   7.653
 6539POPC   C1B21955  41.531  30.478   8.553
 6539POPC   C2B21956  41.519  30.488   8.253
 6539POPC   C3B21957  41.580  30.478   7.953
 6539POPC   C4B21958  41.546  30.451   7.653
 6540POPC   NC321959  40.822  43.849   9.453
 6540POPC   PO421960  40.760  43.846   9.153
 6540POPC   GL121961  40.780  43.874   8.853
 6540POPC   GL221962  40.843  43.826   8.853
 6540POPC   C1A21963  40.800  43.889   8.553
 6540POPC   D2A21964  40.785  43.886   8.253
 6540POPC   C3A21965  40.820  43.856   7.953
 6540POPC   C4A21966  40.741  43.870   7.653
 6540POPC   C1B21967  40.958  43.732   8.553
 6540POPC   C2B21968  40.921  43.685   8.253
 6540POPC   C3B21969  40.951  43.741   7.953
 6540POPC   C4B21970  40.939  43.657   7.653
 6541POPC   NC321971  41.522  28.340   9.453
 6541POPC   PO421972  41.596  28.378   9.153
 6541POPC   GL121973  41.566  28.399   8.853
 6541POPC   GL221974  41.481  28.457   8.853
 6541POPC   C1A21975  41.545  28.371   8.553
 6541POPC   D2A21976  41.561  28.368   8.253
 6541POPC   C3A21977  41.574  28.390   7.953
 6541POPC   C4A21978  41.514  28.358   7.653
 6541POPC   C1B21979  41.419  28.611   8.553
 6541POPC   C2B21980  41.458  28.618   8.253
 6541POPC   C3B21981  41.469  28.567   7.953
 6541POPC   C4B21982  41.406  28.563   7.653
 6542POPC   NC321983  36.914  11.277   9.453
 6542POPC   PO421984  36.945  11.340   9.153
 6542POPC   GL121985  36.861  11.349   8.853
 6542POPC   GL221986  37.008  11.288   8.853
 6542POPC   C1A21987  36.928  11.312   8.553
 6542POPC   D2A21988  36.867  11.318   8.253
 6542POPC   C3A21989  36.879  11.280   7.953
 6542POPC   C4A21990  36.928  11.338   7.653
 6542POPC   C1B21991  37.124  11.226   8.553
 6542POPC   C2B21992  37.124  11.207   8.253
 6542POPC   C3B21993  37.156  11.261   7.953
 6542POPC   C4B21994  37.184  11.252   7.653
 6543POPC   NC321995  29.146  25.998   9.453
 6543POPC   PO421996  29.178  26.081   9.153
 6543POPC   GL121997  29.110  26.010   8.853
 6543POPC   GL221998  29.289  25.980   8.853
 6543POPC   C1A21999  29.177  26.043   8.553
 6543POPC   D2A22000  29.168  26.025   8.253
 6543POPC   C3A22001  29.135  26.038   7.953
 6543POPC   C4A22002  29.100  26.074   7.653
 6543POPC   C1B22003  29.321  25.867   8.553
 6543POPC   C2B22004  29.394  25.905   8.253
 6543POPC   C3B22005  29.339  25.871   7.953
 6543POPC   C4B22006  29.329  25.929   7.653
 6544POPC   NC322007  28.418  26.040   9.453
 6544POPC   PO422008  28.359  26.034   9.153
 6544POPC   GL122009  28.408  26.016   8.853
 6544POPC   GL222010  28.309  25.882   8.853
 6544POPC   C1A22011  28.334  26.003   8.553
 6544POPC   D2A22012  28.383  26.000   8.253
 6544POPC   C3A22013  28.381  26.035   7.953
 6544POPC   C4A22014  28.331  26.012   7.653
 6544POPC   C1B22015  28.317  25.786   8.553
 6544POPC   C2B22016  28.339  25.801   8.253
 6544POPC   C3B22017  28.345  25.747   7.953
 6544POPC   C4B22018  28.386  25.806   7.653
 6545POPC   NC322019  34.582  11.330   9.453
 6545POPC   PO422020  34.569  11.257   9.153
 6545POPC   GL122021  34.569  11.318   8.853
 6545POPC   GL222022  34.606  11.431   8.853
 6545POPC   C1A22023  34.555  11.308   8.553
 6545POPC   D2A22024  34.544  11.261   8.253
 6545POPC   C3A22025  34.540  11.300   7.953
 6545POPC   C4A22026  34.528  11.252   7.653
 6545POPC   C1B22027  34.668  11.542   8.553
 6545POPC   C2B22028  34.691  11.532   8.253
 6545POPC   C3B22029  34.668  11.535   7.953
 6545POPC   C4B22030  34.717  11.543   7.653
 6546POPC   NC322031  43.110  33.824   9.453
 6546POPC   PO422032  43.070  33.810   9.153
 6546POPC   GL122033  43.124  33.826   8.853
 6546POPC   GL222034  43.241  33.768   8.853
 6546POPC   C1A22035  43.146  33.840   8.553
 6546POPC   D2A22036  43.075  33.848   8.253
 6546POPC   C3A22037  43.151  33.792   7.953
 6546POPC   C4A22038  43.109  33.779   7.653
 6546POPC   C1B22039  43.384  33.856   8.553
 6546POPC   C2B22040  43.351  33.777   8.253
 6546POPC   C3B22041  43.365  33.824   7.953
 6546POPC   C4B22042  43.315  33.813   7.653
 6547POPC   NC322043   3.579  43.104   9.453
 6547POPC   PO422044   3.549  43.093   9.153
 6547POPC   GL122045   3.587  43.121   8.853
 6547POPC   GL222046   3.629  43.222   8.853
 6547POPC   C1A22047   3.524  43.092   8.553
 6547POPC   D2A22048   3.497  43.070   8.253
 6547POPC   C3A22049   3.512  43.076   7.953
 6547POPC   C4A22050   3.495  43.142   7.653
 6547POPC   C1B22051   3.673  43.341   8.553
 6547POPC   C2B22052   3.676  43.380   8.253
 6547POPC   C3B22053   3.678  43.386   7.953
 6547POPC   C4B22054   3.639  43.332   7.653
 6548POPC   NC322055  26.776   1.223   9.453
 6548POPC   PO422056  26.790   1.225   9.153
 6548POPC   GL122057  26.821   1.219   8.853
 6548POPC   GL222058  26.800   1.054   8.853
 6548POPC   C1A22059  26.813   1.172   8.553
 6548POPC   D2A22060  26.826   1.197   8.253
 6548POPC   C3A22061  26.785   1.166   7.953
 6548POPC   C4A22062  26.826   1.241   7.653
 6548POPC   C1B22063  26.708   1.024   8.553
 6548POPC   C2B22064  26.682   1.016   8.253
 6548POPC   C3B22065  26.703   0.991   7.953
 6548POPC   C4B22066  26.738   0.981   7.653
 6549POPC   NC322067  15.183   8.156   9.453
 6549POPC   PO422068  15.183   8.177   9.153
 6549POPC   GL122069  15.176   8.209   8.853
 6549POPC   GL222070  15.227   8.123   8.853
 6549POPC   C1A22071  15.133   8.245   8.553
 6549POPC   D2A22072  15.208   8.236   8.253
 6549POPC   C3A22073  15.164   8.208   7.953
 6549POPC   C4A22074  15.195   8.218   7.653
 6549POPC   C1B22075  15.283   8.015   8.553
 6549POPC   C2B22076  15.350   7.992   8.253
 6549POPC   C3B22077  15.366   8.026   7.953
 6549POPC   C4B22078  15.366   7.966   7.653
 6550POPC   NC322079  16.683   1.182   9.453
 6550POPC   PO422080  16.697   1.262   9.153
 6550POPC   GL122081  16.700   1.246   8.853
 6550POPC   GL222082  16.803   1.063   8.853
 6550POPC   C1A22083  16.709   1.179   8.553
 6550POPC   D2A22084  16.766   1.218   8.253
 6550POPC   C3A22085  16.709   1.174   7.953
 6550POPC   C4A22086  16.774   1.191   7.653
 6550POPC   C1B22087  16.821   1.014   8.553
 6550POPC   C2B22088  16.751   0.962   8.253
 6550POPC   C3B22089  16.828   0.945   7.953
 6550POPC   C4B22090  16.836   0.946   7.653
 6551POPC   NC322091   7.372  39.996   9.453
 6551POPC   PO422092   7.382  40.034   9.153
 6551POPC   GL122093   7.419  39.958   8.853
 6551POPC   GL222094   7.462  39.904   8.853
 6551POPC   C1A22095   7.457  39.967   8.553
 6551POPC   D2A22096   7.377  39.960   8.253
 6551POPC   C3A22097   7.432  40.046   7.953
 6551POPC   C4A22098   7.470  40.012   7.653
 6551POPC   C1B22099   7.533  39.801   8.553
 6551POPC   C2B22100   7.564  39.842   8.253
 6551POPC   C3B22101   7.606  39.831   7.953
 6551POPC   C4B22102   7.561  39.859   7.653
 6552POPC   NC322103  16.701   5.839   9.453
 6552POPC   PO422104  16.700   5.909   9.153
 6552POPC   GL122105  16.720   5.861   8.853
 6552POPC   GL222106  16.780   5.745   8.853
 6552POPC   C1A22107  16.724   5.819   8.553
 6552POPC   D2A22108  16.709   5.854   8.253
 6552POPC   C3A22109  16.734   5.870   7.953
 6552POPC   C4A22110  16.718   5.883   7.653
 6552POPC   C1B22111  16.865   5.610   8.553
 6552POPC   C2B22112  16.839   5.635   8.253
 6552POPC   C3B22113  16.833   5.611   7.953
 6552POPC   C4B22114  16.868   5.687   7.653
 6553POPC   NC322115   2.017   0.403   9.453
 6553POPC   PO422116   2.000   0.419   9.153
 6553POPC   GL122117   2.022   0.434   8.853
 6553POPC   GL222118   2.046   0.348   8.853
 6553POPC   C1A22119   2.023   0.415   8.553
 6553POPC   D2A22120   2.024   0.404   8.253
 6553POPC   C3A22121   1.966   0.487   7.953
 6553POPC   C4A22122   2.002   0.405   7.653
 6553POPC   C1B22123   2.103   0.253   8.553
 6553POPC   C2B22124   2.086   0.243   8.253
 6553POPC   C3B22125   2.084   0.192   7.953
 6553POPC   C4B22126   2.156   0.210   7.653
 6554POPC   NC322127  28.409  20.567   9.453
 6554POPC   PO422128  28.390  20.638   9.153
 6554POPC   GL122129  28.389  20.626   8.853
 6554POPC   GL222130  28.467  20.522   8.853
 6554POPC   C1A22131  28.331  20.589   8.553
 6554POPC   D2A22132  28.347  20.584   8.253
 6554POPC   C3A22133  28.384  20.637   7.953
 6554POPC   C4A22134  28.391  20.614   7.653
 6554POPC   C1B22135  28.599  20.521   8.553
 6554POPC   C2B22136  28.571  20.434   8.253
 6554POPC   C3B22137  28.628  20.494   7.953
 6554POPC   C4B22138  28.605  20.517   7.653
 6555POPC   NC322139  32.996  15.135   9.453
 6555POPC   PO422140  33.041  15.170   9.153
 6555POPC   GL122141  33.038  15.184   8.853
 6555POPC   GL222142  32.992  15.038   8.853
 6555POPC   C1A22143  33.024  15.198   8.553
 6555POPC   D2A22144  32.992  15.158   8.253
 6555POPC   C3A22145  33.046  15.209   7.953
 6555POPC   C4A22146  33.024  15.169   7.653
 6555POPC   C1B22147  32.855  14.934   8.553
 6555POPC   C2B22148  32.935  15.002   8.253
 6555POPC   C3B22149  32.919  15.010   7.953
 6555POPC   C4B22150  32.872  14.945   7.653
 6556POPC   NC322151  30.656  31.520   9.453
 6556POPC   PO422152  30.693  31.507   9.153
 6556POPC   GL122153  30.700  31.447   8.853
 6556POPC   GL222154  30.759  31.399   8.853
 6556POPC   C1A22155  30.697  31.481   8.553
 6556POPC   D2A22156  30.692  31.457   8.253
 6556POPC   C3A22157  30.732  31.462   7.953
 6556POPC   C4A22158  30.693  31.473   7.653
 6556POPC   C1B22159  30.832  31.222   8.553
 6556POPC   C2B22160  30.811  31.229   8.253
 6556POPC   C3B22161  30.795  31.205   7.953
 6556POPC   C4B22162  30.806  31.254   7.653
 6557POPC   NC322163   5.888  35.313   9.453
 6557POPC   PO422164   5.854  35.348   9.153
 6557POPC   GL122165   5.897  35.319   8.853
 6557POPC   GL222166   5.977  35.362   8.853
 6557POPC   C1A22167   5.903  35.326   8.553
 6557POPC   D2A22168   5.847  35.379   8.253
 6557POPC   C3A22169   5.856  35.342   7.953
 6557POPC   C4A22170   5.873  35.384   7.653
 6557POPC   C1B22171   6.098  35.472   8.553
 6557POPC   C2B22172   6.071  35.493   8.253
 6557POPC   C3B22173   6.084  35.438   7.953
 6557POPC   C4B22174   6.147  35.403   7.653
 6558POPC   NC322175  42.289  26.077   9.453
 6558POPC   PO422176  42.293  26.073   9.153
 6558POPC   GL122177  42.303  26.041   8.853
 6558POPC   GL222178  42.321  26.196   8.853
 6558POPC   C1A22179  42.296  26.081   8.553
 6558POPC   D2A22180  42.383  26.057   8.253
 6558POPC   C3A22181  42.298  26.059   7.953
 6558POPC   C4A22182  42.376  26.065   7.653
 6558POPC   C1B22183  42.312  26.251   8.553
 6558POPC   C2B22184  42.292  26.252   8.253
 6558POPC   C3B22185  42.310  26.328   7.953
 6558POPC   C4B22186  42.312  26.333   7.653
 6559POPC   NC322187   1.943   8.148   9.453
 6559POPC   PO422188   2.011   8.185   9.153
 6559POPC   GL122189   1.984   8.149   8.853
 6559POPC   GL222190   2.094   8.144   8.853
 6559POPC   C1A22191   2.004   8.246   8.553
 6559POPC   D2A22192   2.029   8.246   8.253
 6559POPC   C3A22193   1.965   8.154   7.953
 6559POPC   C4A22194   2.035   8.239   7.653
 6559POPC   C1B22195   2.185   8.181   8.553
 6559POPC   C2B22196   2.185   8.087   8.253
 6559POPC   C3B22197   2.216   8.159   7.953
 6559POPC   C4B22198   2.192   8.152   7.653
 6560POPC   NC322199   9.776   9.710   9.453
 6560POPC   PO422200   9.732   9.789   9.153
 6560POPC   GL122201   9.703   9.741   8.853
 6560POPC   GL222202   9.820   9.830   8.853
 6560POPC   C1A22203   9.701   9.760   8.553
 6560POPC   D2A22204   9.710   9.797   8.253
 6560POPC   C3A22205   9.763   9.755   7.953
 6560POPC   C4A22206   9.763   9.750   7.653
 6560POPC   C1B22207   9.930   9.934   8.553
 6560POPC   C2B22208   9.851   9.989   8.253
 6560POPC   C3B22209   9.906   9.953   7.953
 6560POPC   C4B22210   9.858   9.976   7.653
 6561POPC   NC322211  42.291  25.255   9.453
 6561POPC   PO422212  42.311  25.267   9.153
 6561POPC   GL122213  42.347  25.295   8.853
 6561POPC   GL222214  42.300  25.350   8.853
 6561POPC   C1A22215  42.310  25.283   8.553
 6561POPC   D2A22216  42.335  25.279   8.253
 6561POPC   C3A22217  42.316  25.263   7.953
 6561POPC   C4A22218  42.363  25.276   7.653
 6561POPC   C1B22219  42.231  25.524   8.553
 6561POPC   C2B22220  42.270  25.526   8.253
 6561POPC   C3B22221  42.215  25.502   7.953
 6561POPC   C4B22222  42.217  25.503   7.653
 6562POPC   NC322223  21.359   9.004   9.453
 6562POPC   PO422224  21.348   8.978   9.153
 6562POPC   GL122225  21.382   8.996   8.853
 6562POPC   GL222226  21.464   8.918   8.853
 6562POPC   C1A22227  21.393   9.000   8.553
 6562POPC   D2A22228  21.356   8.995   8.253
 6562POPC   C3A22229  21.371   8.925   7.953
 6562POPC   C4A22230  21.368   9.015   7.653
 6562POPC   C1B22231  21.588   8.773   8.553
 6562POPC   C2B22232  21.530   8.794   8.253
 6562POPC   C3B22233  21.601   8.770   7.953
 6562POPC   C4B22234  21.586   8.785   7.653
 6563POPC   NC322235  43.864  36.878   9.453
 6563POPC   PO422236  43.875  36.881   9.153
 6563POPC   GL122237  43.893  36.923   8.853
 6563POPC   GL222238  43.866  36.966   8.853
 6563POPC   C1A22239  43.856  36.878   8.553
 6563POPC   D2A22240  43.932  36.872   8.253
 6563POPC   C3A22241  43.873  36.899   7.953
 6563POPC   C4A22242  43.900  36.878   7.653
 6563POPC   C1B22243  43.736  37.169   8.553
 6563POPC   C2B22244  43.735  37.167   8.253
 6563POPC   C3B22245  43.725  37.111   7.953
 6563POPC   C4B22246  43.777  37.088   7.653
 6564POPC   NC322247  25.246  41.581   9.453
 6564POPC   PO422248  25.278  41.513   9.153
 6564POPC   GL122249  25.238  41.550   8.853
 6564POPC   GL222250  25.379  41.611   8.853
 6564POPC   C1A22251  25.234  41.573   8.553
 6564POPC   D2A22252  25.300  41.555   8.253
 6564POPC   C3A22253  25.311  41.531   7.953
 6564POPC   C4A22254  25.258  41.581   7.653
 6564POPC   C1B22255  25.480  41.640   8.553
 6564POPC   C2B22256  25.448  41.650   8.253
 6564POPC   C3B22257  25.527  41.683   7.953
 6564POPC   C4B22258  25.498  41.659   7.653
 6565POPC   NC322259  22.932  42.355   9.453
 6565POPC   PO422260  22.961  42.336   9.153
 6565POPC   GL122261  22.960  42.339   8.853
 6565POPC   GL222262  22.793  42.295   8.853
 6565POPC   C1A22263  22.904  42.309   8.553
 6565POPC   D2A22264  22.958  42.366   8.253
 6565POPC   C3A22265  22.960  42.341   7.953
 6565POPC   C4A22266  22.890  42.384   7.653
 6565POPC   C1B22267  22.717  42.194   8.553
 6565POPC   C2B22268  22.691  42.246   8.253
 6565POPC   C3B22269  22.741  42.250   7.953
 6565POPC   C4B22270  22.748  42.199   7.653
 6566POPC   NC322271  11.330  35.360   9.453
 6566POPC   PO422272  11.302  35.312   9.153
 6566POPC   GL122273  11.290  35.366   8.853
 6566POPC   GL222274  11.212  35.331   8.853
 6566POPC   C1A22275  11.255  35.351   8.553
 6566POPC   D2A22276  11.336  35.307   8.253
 6566POPC   C3A22277  11.297  35.302   7.953
 6566POPC   C4A22278  11.254  35.319   7.653
 6566POPC   C1B22279  11.029  35.271   8.553
 6566POPC   C2B22280  11.029  35.247   8.253
 6566POPC   C3B22281  11.065  35.312   7.953
 6566POPC   C4B22282  11.093  35.289   7.653
 6567POPC   NC322283  33.017   7.450   9.453
 6567POPC   PO422284  33.018   7.378   9.153
 6567POPC   GL122285  33.008   7.460   8.853
 6567POPC   GL222286  32.992   7.306   8.853
 6567POPC   C1A22287  33.001   7.398   8.553
 6567POPC   D2A22288  33.026   7.400   8.253
 6567POPC   C3A22289  33.073   7.424   7.953
 6567POPC   C4A22290  33.053   7.378   7.653
 6567POPC   C1B22291  33.015   7.127   8.553
 6567POPC   C2B22292  32.968   7.160   8.253
 6567POPC   C3B22293  33.040   7.181   7.953
 6567POPC   C4B22294  33.027   7.218   7.653
 6568POPC   NC322295  20.635  19.070   9.453
 6568POPC   PO422296  20.584  19.088   9.153
 6568POPC   GL122297  20.603  19.091   8.853
 6568POPC   GL222298  20.545  18.983   8.853
 6568POPC   C1A22299  20.576  19.089   8.553
 6568POPC   D2A22300  20.594  19.013   8.253
 6568POPC   C3A22301  20.617  19.070   7.953
 6568POPC   C4A22302  20.569  19.087   7.653
 6568POPC   C1B22303  20.414  18.859   8.553
 6568POPC   C2B22304  20.391  18.918   8.253
 6568POPC   C3B22305  20.393  18.892   7.953
 6568POPC   C4B22306  20.443  18.846   7.653
 6569POPC   NC322307  43.848  44.687   9.453
 6569POPC   PO422308  43.903  44.637   9.153
 6569POPC   GL122309  43.906  44.658   8.853
 6569POPC   GL222310  44.011  44.556   8.853
 6569POPC   C1A22311  43.908  44.635   8.553
 6569POPC   D2A22312  43.895  44.702   8.253
 6569POPC   C3A22313  43.902  44.670   7.953
 6569POPC   C4A22314  43.912  44.695   7.653
 6569POPC   C1B22315  44.053  44.491   8.553
 6569POPC   C2B22316  44.107  44.456   8.253
 6569POPC   C3B22317  44.079  44.484   7.953
 6569POPC   C4B22318  44.040  44.527   7.653
 6570POPC   NC322319   9.716  43.150   9.453
 6570POPC   PO422320   9.774  43.129   9.153
 6570POPC   GL122321   9.784  43.133   8.853
 6570POPC   GL222322   9.731  43.015   8.853
 6570POPC   C1A22323   9.757  43.150   8.553
 6570POPC   D2A22324   9.787  43.061   8.253
 6570POPC   C3A22325   9.784  43.135   7.953
 6570POPC   C4A22326   9.719  43.106   7.653
 6570POPC   C1B22327   9.723  42.856   8.553
 6570POPC   C2B22328   9.762  42.849   8.253
 6570POPC   C3B22329   9.760  42.859   7.953
 6570POPC   C4B22330   9.750  42.854   7.653
 6571POPC   NC322331  28.364  12.891   9.453
 6571POPC   PO422332  28.369  12.830   9.153
 6571POPC   GL122333  28.417  12.859   8.853
 6571POPC   GL222334  28.287  12.799   8.853
 6571POPC   C1A22335  28.321  12.895   8.553
 6571POPC   D2A22336  28.321  12.816   8.253
 6571POPC   C3A22337  28.377  12.854   7.953
 6571POPC   C4A22338  28.418  12.892   7.653
 6571POPC   C1B22339  28.114  12.714   8.553
 6571POPC   C2B22340  28.119  12.737   8.253
 6571POPC   C3B22341  28.120  12.678   7.953
 6571POPC   C4B22342  28.186  12.662   7.653
 6572POPC   NC322343  40.830  33.756   9.453
 6572POPC   PO422344  40.808  33.763   9.153
 6572POPC   GL122345  40.815  33.797   8.853
 6572POPC   GL222346  40.637  33.760   8.853
 6572POPC   C1A22347  40.741  33.763   8.553
 6572POPC   D2A22348  40.825  33.770   8.253
 6572POPC   C3A22349  40.772  33.823   7.953
 6572POPC   C4A22350  40.829  33.819   7.653
 6572POPC   C1B22351  40.588  33.733   8.553
 6572POPC   C2B22352  40.533  33.726   8.253
 6572POPC   C3B22353  40.508  33.712   7.953
 6572POPC   C4B22354  40.514  33.774   7.653
 6573POPC   NC322355  16.695  43.148   9.453
 6573POPC   PO422356  16.726  43.086   9.153
 6573POPC   GL122357  16.724  43.084   8.853
 6573POPC   GL222358  16.864  43.066   8.853
 6573POPC   C1A22359  16.727  43.066   8.553
 6573POPC   D2A22360  16.748  43.099   8.253
 6573POPC   C3A22361  16.730  43.068   7.953
 6573POPC   C4A22362  16.761  43.123   7.653
 6573POPC   C1B22363  16.902  42.964   8.553
 6573POPC   C2B22364  16.943  42.968   8.253
 6573POPC   C3B22365  16.917  42.975   7.953
 6573POPC   C4B22366  16.950  42.903   7.653
 6574POPC   NC322367  36.111  10.478   9.453
 6574POPC   PO422368  36.167  10.518   9.153
 6574POPC   GL122369  36.175  10.503   8.853
 6574POPC   GL222370  36.198  10.392   8.853
 6574POPC   C1A22371  36.157  10.504   8.553
 6574POPC   D2A22372  36.126  10.484   8.253
 6574POPC   C3A22373  36.147  10.502   7.953
 6574POPC   C4A22374  36.175  10.497   7.653
 6574POPC   C1B22375  36.234  10.256   8.553
 6574POPC   C2B22376  36.237  10.329   8.253
 6574POPC   C3B22377  36.257  10.288   7.953
 6574POPC   C4B22378  36.212  10.325   7.653
 6575POPC   NC322379   2.805  32.987   9.453
 6575POPC   PO422380   2.761  33.026   9.153
 6575POPC   GL122381   2.802  33.033   8.853
 6575POPC   GL222382   2.814  32.932   8.853
 6575POPC   C1A22383   2.797  33.067   8.553
 6575POPC   D2A22384   2.747  32.988   8.253
 6575POPC   C3A22385   2.778  33.005   7.953
 6575POPC   C4A22386   2.805  32.988   7.653
 6575POPC   C1B22387   2.892  32.842   8.553
 6575POPC   C2B22388   2.926  32.782   8.253
 6575POPC   C3B22389   2.912  32.834   7.953
 6575POPC   C4B22390   2.840  32.795   7.653
 6576POPC   NC322391  26.031  15.983   9.453
 6576POPC   PO422392  26.038  15.915   9.153
 6576POPC   GL122393  26.083  15.988   8.853
 6576POPC   GL222394  26.085  16.058   8.853
 6576POPC   C1A22395  26.090  15.920   8.553
 6576POPC   D2A22396  26.009  15.936   8.253
 6576POPC   C3A22397  26.071  15.944   7.953
 6576POPC   C4A22398  26.046  15.972   7.653
 6576POPC   C1B22399  26.116  16.146   8.553
 6576POPC   C2B22400  26.166  16.142   8.253
 6576POPC   C3B22401  26.169  16.145   7.953
 6576POPC   C4B22402  26.170  16.131   7.653
 6577POPC   NC322403  44.679   2.794   9.453
 6577POPC   PO422404  44.612   2.720   9.153
 6577POPC   GL122405  44.639   2.755   8.853
 6577POPC   GL222406  44.601   2.709   8.853
 6577POPC   C1A22407  44.683   2.762   8.553
 6577POPC   D2A22408  44.676   2.743   8.253
 6577POPC   C3A22409  44.643   2.776   7.953
 6577POPC   C4A22410  44.658   2.736   7.653
 6577POPC   C1B22411  44.479   2.602   8.553
 6577POPC   C2B22412  44.520   2.531   8.253
 6577POPC   C3B22413  44.553   2.578   7.953
 6577POPC   C4B22414  44.494   2.602   7.653
 6578POPC   NC322415  19.016   7.459   9.453
 6578POPC   PO422416  19.052   7.400   9.153
 6578POPC   GL122417  19.024   7.459   8.853
 6578POPC   GL222418  19.054   7.331   8.853
 6578POPC   C1A22419  19.106   7.371   8.553
 6578POPC   D2A22420  19.027   7.405   8.253
 6578POPC   C3A22421  19.108   7.391   7.953
 6578POPC   C4A22422  19.070   7.433   7.653
 6578POPC   C1B22423  18.997   7.159   8.553
 6578POPC   C2B22424  19.071   7.179   8.253
 6578POPC   C3B22425  19.043   7.213   7.953
 6578POPC   C4B22426  19.058   7.149   7.653
 6579POPC   NC322427  17.479  40.783   9.453
 6579POPC   PO422428  17.521  40.807   9.153
 6579POPC   GL122429  17.542  40.758   8.853
 6579POPC   GL222430  17.604  40.895   8.853
 6579POPC   C1A22431  17.506  40.804   8.553
 6579POPC   D2A22432  17.511  40.778   8.253
 6579POPC   C3A22433  17.463  40.770   7.953
 6579POPC   C4A22434  17.544  40.817   7.653
 6579POPC   C1B22435  17.764  40.901   8.553
 6579POPC   C2B22436  17.731  40.946   8.253
 6579POPC   C3B22437  17.763  40.860   7.953
 6579POPC   C4B22438  17.759  40.921   7.653
 6580POPC   NC322439   8.988  22.191   9.453
 6580POPC   PO422440   8.996  22.158   9.153
 6580POPC   GL122441   8.973  22.172   8.853
 6580POPC   GL222442   9.052  22.243   8.853
 6580POPC   C1A22443   8.956  22.164   8.553
 6580POPC   D2A22444   8.947  22.140   8.253
 6580POPC   C3A22445   9.022  22.196   7.953
 6580POPC   C4A22446   9.015  22.176   7.653
 6580POPC   C1B22447   9.205  22.334   8.553
 6580POPC   C2B22448   9.202  22.301   8.253
 6580POPC   C3B22449   9.192  22.334   7.953
 6580POPC   C4B22450   9.217  22.317   7.653
 6581POPC   NC322451  27.558   0.422   9.453
 6581POPC   PO422452  27.543   0.428   9.153
 6581POPC   GL122453  27.570   0.462   8.853
 6581POPC   GL222454  27.427   0.455   8.853
 6581POPC   C1A22455  27.568   0.448   8.553
 6581POPC   D2A22456  27.564   0.402   8.253
 6581POPC   C3A22457  27.597   0.448   7.953
 6581POPC   C4A22458  27.633   0.414   7.653
 6581POPC   C1B22459  27.387   0.482   8.553
 6581POPC   C2B22460  27.402   0.533   8.253
 6581POPC   C3B22461  27.387   0.487   7.953
 6581POPC   C4B22462  27.363   0.501   7.653
 6582POPC   NC322463  36.904   8.971   9.453
 6582POPC   PO422464  36.949   8.952   9.153
 6582POPC   GL122465  36.913   8.932   8.853
 6582POPC   GL222466  36.993   9.014   8.853
 6582POPC   C1A22467  36.924   8.943   8.553
 6582POPC   D2A22468  36.872   9.013   8.253
 6582POPC   C3A22469  36.891   8.926   7.953
 6582POPC   C4A22470  36.925   8.925   7.653
 6582POPC   C1B22471  37.129   9.028   8.553
 6582POPC   C2B22472  37.123   9.035   8.253
 6582POPC   C3B22473  37.181   8.950   7.953
 6582POPC   C4B22474  37.191   9.043   7.653
 6583POPC   NC322475  40.805  20.653   9.453
 6583POPC   PO422476  40.739  20.595   9.153
 6583POPC   GL122477  40.781  20.653   8.853
 6583POPC   GL222478  40.876  20.770   8.853
 6583POPC   C1A22479  40.811  20.602   8.553
 6583POPC   D2A22480  40.790  20.596   8.253
 6583POPC   C3A22481  40.806  20.624   7.953
 6583POPC   C4A22482  40.747  20.606   7.653
 6583POPC   C1B22483  40.854  20.833   8.553
 6583POPC   C2B22484  40.880  20.829   8.253
 6583POPC   C3B22485  40.888  20.858   7.953
 6583POPC   C4B22486  40.947  20.838   7.653
 6584POPC   NC322487  26.780  42.297   9.453
 6584POPC   PO422488  26.828  42.378   9.153
 6584POPC   GL122489  26.819  42.306   8.853
 6584POPC   GL222490  26.770  42.207   8.853
 6584POPC   C1A22491  26.811  42.306   8.553
 6584POPC   D2A22492  26.815  42.345   8.253
 6584POPC   C3A22493  26.793  42.348   7.953
 6584POPC   C4A22494  26.779  42.294   7.653
 6584POPC   C1B22495  26.629  42.099   8.553
 6584POPC   C2B22496  26.652  42.165   8.253
 6584POPC   C3B22497  26.699  42.106   7.953
 6584POPC   C4B22498  26.682  42.163   7.653
 6585POPC   NC322499  19.105  21.416   9.453
 6585POPC   PO422500  19.088  21.418   9.153
 6585POPC   GL122501  19.042  21.360   8.853
 6585POPC   GL222502  19.216  21.465   8.853
 6585POPC   C1A22503  19.009  21.431   8.553
 6585POPC   D2A22504  19.035  21.366   8.253
 6585POPC   C3A22505  19.062  21.422   7.953
 6585POPC   C4A22506  19.041  21.408   7.653
 6585POPC   C1B22507  19.278  21.435   8.553
 6585POPC   C2B22508  19.336  21.412   8.253
 6585POPC   C3B22509  19.277  21.432   7.953
 6585POPC   C4B22510  19.263  21.417   7.653
 6586POPC   NC322511  29.103  43.892   9.453
 6586POPC   PO422512  29.171  43.864   9.153
 6586POPC   GL122513  29.164  43.912   8.853
 6586POPC   GL222514  29.253  44.025   8.853
 6586POPC   C1A22515  29.110  43.866   8.553
 6586POPC   D2A22516  29.163  43.879   8.253
 6586POPC   C3A22517  29.157  43.896   7.953
 6586POPC   C4A22518  29.101  43.914   7.653
 6586POPC   C1B22519  29.329  44.037   8.553
 6586POPC   C2B22520  29.306  44.080   8.253
 6586POPC   C3B22521  29.304  44.099   7.953
 6586POPC   C4B22522  29.335  44.120   7.653
 6587POPC   NC322523  40.738  44.658   9.453
 6587POPC   PO422524  40.762  44.640   9.153
 6587POPC   GL122525  40.802  44.678   8.853
 6587POPC   GL222526  40.939  44.569   8.853
 6587POPC   C1A22527  40.805  44.699   8.553
 6587POPC   D2A22528  40.799  44.709   8.253
 6587POPC   C3A22529  40.756  44.642   7.953
 6587POPC   C4A22530  40.737  44.653   7.653
 6587POPC   C1B22531  41.029  44.552   8.553
 6587POPC   C2B22532  41.001  44.516   8.253
 6587POPC   C3B22533  41.060  44.521   7.953
 6587POPC   C4B22534  40.990  44.568   7.653
 6588POPC   NC322535  10.525  22.986   9.453
 6588POPC   PO422536  10.539  22.936   9.153
 6588POPC   GL122537  10.484  22.921   8.853
 6588POPC   GL222538  10.524  23.025   8.853
 6588POPC   C1A22539  10.541  22.895   8.553
 6588POPC   D2A22540  10.527  22.967   8.253
 6588POPC   C3A22541  10.540  22.987   7.953
 6588POPC   C4A22542  10.531  22.917   7.653
 6588POPC   C1B22543  10.465  23.173   8.553
 6588POPC   C2B22544  10.495  23.223   8.253
 6588POPC   C3B22545  10.477  23.205   7.953
 6588POPC   C4B22546  10.413  23.160   7.653
 6589POPC   NC322547  28.398  36.155   9.453
 6589POPC   PO422548  28.393  36.121   9.153
 6589POPC   GL122549  28.330  36.098   8.853
 6589POPC   GL222550  28.307  36.042   8.853
 6589POPC   C1A22551  28.383  36.105   8.553
 6589POPC   D2A22552  28.357  36.167   8.253
 6589POPC   C3A22553  28.320  36.153   7.953
 6589POPC   C4A22554  28.346  36.102   7.653
 6589POPC   C1B22555  28.286  35.857   8.553
 6589POPC   C2B22556  28.247  35.880   8.253
 6589POPC   C3B22557  28.246  35.934   7.953
 6589POPC   C4B22558  28.308  35.929   7.653
 6590POPC   NC322559  43.885  28.330   9.453
 6590POPC   PO422560  43.887  28.369   9.153
 6590POPC   GL122561  43.901  28.402   8.853
 6590POPC   GL222562  44.048  28.328   8.853
 6590POPC   C1A22563  43.859  28.395   8.553
 6590POPC   D2A22564  43.860  28.341   8.253
 6590POPC   C3A22565  43.867  28.340   7.953
 6590POPC   C4A22566  43.902  28.341   7.653
 6590POPC   C1B22567  44.133  28.243   8.553
 6590POPC   C2B22568  44.149  28.282   8.253
 6590POPC   C3B22569  44.096  28.329   7.953
 6590POPC   C4B22570  44.160  28.249   7.653
 6591POPC   NC322571  26.031  33.068   9.453
 6591POPC   PO422572  26.051  33.069   9.153
 6591POPC   GL122573  26.035  32.992   8.853
 6591POPC   GL222574  26.127  32.963   8.853
 6591POPC   C1A22575  26.048  33.024   8.553
 6591POPC   D2A22576  26.082  33.042   8.253
 6591POPC   C3A22577  26.021  32.992   7.953
 6591POPC   C4A22578  26.082  33.036   7.653
 6591POPC   C1B22579  26.238  32.934   8.553
 6591POPC   C2B22580  26.272  32.920   8.253
 6591POPC   C3B22581  26.310  32.899   7.953
 6591POPC   C4B22582  26.247  32.863   7.653
 6592POPC   NC322583  38.464   3.553   9.453
 6592POPC   PO422584  38.459   3.507   9.153
 6592POPC   GL122585  38.462   3.588   8.853
 6592POPC   GL222586  38.319   3.447   8.853
 6592POPC   C1A22587  38.460   3.559   8.553
 6592POPC   D2A22588  38.497   3.542   8.253
 6592POPC   C3A22589  38.457   3.555   7.953
 6592POPC   C4A22590  38.416   3.567   7.653
 6592POPC   C1B22591  38.221   3.382   8.553
 6592POPC   C2B22592  38.242   3.337   8.253
 6592POPC   C3B22593  38.259   3.374   7.953
 6592POPC   C4B22594  38.237   3.386   7.653
 6593POPC   NC322595   3.572   8.933   9.453
 6593POPC   PO422596   3.566   9.016   9.153
 6593POPC   GL122597   3.576   9.003   8.853
 6593POPC   GL222598   3.687   8.984   8.853
 6593POPC   C1A22599   3.519   8.946   8.553
 6593POPC   D2A22600   3.497   8.928   8.253
 6593POPC   C3A22601   3.496   9.013   7.953
 6593POPC   C4A22602   3.554   8.993   7.653
 6593POPC   C1B22603   3.808   9.021   8.553
 6593POPC   C2B22604   3.813   9.063   8.253
 6593POPC   C3B22605   3.801   9.031   7.953
 6593POPC   C4B22606   3.746   9.049   7.653
 6594POPC   NC322607  12.821  12.111   9.453
 6594POPC   PO422608  12.853  12.106   9.153
 6594POPC   GL122609  12.826  12.080   8.853
 6594POPC   GL222610  12.895  12.138   8.853
 6594POPC   C1A22611  12.890  12.046   8.553
 6594POPC   D2A22612  12.811  12.106   8.253
 6594POPC   C3A22613  12.817  12.031   7.953
 6594POPC   C4A22614  12.873  12.086   7.653
 6594POPC   C1B22615  12.956  12.331   8.553
 6594POPC   C2B22616  13.004  12.282   8.253
 6594POPC   C3B22617  12.977  12.302   7.953
 6594POPC   C4B22618  12.985  12.241   7.653
 6595POPC   NC322619  11.340  24.440   9.453
 6595POPC   PO422620  11.251  24.527   9.153
 6595POPC   GL122621  11.284  24.531   8.853
 6595POPC   GL222622  11.270  24.329   8.853
 6595POPC   C1A22623  11.302  24.450   8.553
 6595POPC   D2A22624  11.327  24.449   8.253
 6595POPC   C3A22625  11.275  24.461   7.953
 6595POPC   C4A22626  11.284  24.537   7.653
 6595POPC   C1B22627  11.325  24.237   8.553
 6595POPC   C2B22628  11.354  24.289   8.253
 6595POPC   C3B22629  11.323  24.276   7.953
 6595POPC   C4B22630  11.291  24.253   7.653
 6596POPC   NC322631  22.921  29.885   9.453
 6596POPC   PO422632  22.975  29.944   9.153
 6596POPC   GL122633  22.963  29.949   8.853
 6596POPC   GL222634  22.945  29.771   8.853
 6596POPC   C1A22635  22.946  29.953   8.553
 6596POPC   D2A22636  22.911  29.901   8.253
 6596POPC   C3A22637  22.919  29.957   7.953
 6596POPC   C4A22638  22.978  29.909   7.653
 6596POPC   C1B22639  22.969  29.711   8.553
 6596POPC   C2B22640  22.970  29.661   8.253
 6596POPC   C3B22641  23.002  29.668   7.953
 6596POPC   C4B22642  23.033  29.655   7.653
 6597POPC   NC322643  34.589  36.932   9.453
 6597POPC   PO422644  34.615  36.886   9.153
 6597POPC   GL122645  34.564  36.941   8.853
 6597POPC   GL222646  34.453  36.798   8.853
 6597POPC   C1A22647  34.610  36.890   8.553
 6597POPC   D2A22648  34.564  36.857   8.253
 6597POPC   C3A22649  34.566  36.900   7.953
 6597POPC   C4A22650  34.528  36.886   7.653
 6597POPC   C1B22651  34.391  36.748   8.553
 6597POPC   C2B22652  34.372  36.738   8.253
 6597POPC   C3B22653  34.424  36.668   7.953
 6597POPC   C4B22654  34.405  36.741   7.653
 6598POPC   NC322655  30.690  42.373   9.453
 6598POPC   PO422656  30.709  42.320   9.153
 6598POPC   GL122657  30.721  42.378   8.853
 6598POPC   GL222658  30.572  42.436   8.853
 6598POPC   C1A22659  30.658  42.369   8.553
 6598POPC   D2A22660  30.670  42.315   8.253
 6598POPC   C3A22661  30.706  42.375   7.953
 6598POPC   C4A22662  30.691  42.362   7.653
 6598POPC   C1B22663  30.544  42.515   8.553
 6598POPC   C2B22664  30.517  42.492   8.253
 6598POPC   C3B22665  30.532  42.525   7.953
 6598POPC   C4B22666  30.576  42.557   7.653
 6599POPC   NC322667   6.690  17.463   9.453
 6599POPC   PO422668   6.613  17.533   9.153
 6599POPC   GL122669   6.646  17.529   8.853
 6599POPC   GL222670   6.690  17.449   8.853
 6599POPC   C1A22671   6.688  17.510   8.553
 6599POPC   D2A22672   6.646  17.476   8.253
 6599POPC   C3A22673   6.614  17.492   7.953
 6599POPC   C4A22674   6.682  17.506   7.653
 6599POPC   C1B22675   6.777  17.264   8.553
 6599POPC   C2B22676   6.796  17.257   8.253
 6599POPC   C3B22677   6.840  17.337   7.953
 6599POPC   C4B22678   6.804  17.347   7.653
 6600POPC   NC322679  11.271  18.299   9.453
 6600POPC   PO422680  11.252  18.309   9.153
 6600POPC   GL122681  11.287  18.295   8.853
 6600POPC   GL222682  11.409  18.400   8.853
 6600POPC   C1A22683  11.285  18.296   8.553
 6600POPC   D2A22684  11.293  18.307   8.253
 6600POPC   C3A22685  11.326  18.292   7.953
 6600POPC   C4A22686  11.295  18.235   7.653
 6600POPC   C1B22687  11.513  18.438   8.553
 6600POPC   C2B22688  11.475  18.454   8.253
 6600POPC   C3B22689  11.475  18.474   7.953
 6600POPC   C4B22690  11.549  18.424   7.653
 6601POPC   NC322691  33.042  28.369   9.453
 6601POPC   PO422692  33.053  28.382   9.153
 6601POPC   GL122693  33.033  28.410   8.853
 6601POPC   GL222694  33.104  28.273   8.853
 6601POPC   C1A22695  33.056  28.405   8.553
 6601POPC   D2A22696  33.058  28.370   8.253
 6601POPC   C3A22697  33.067  28.405   7.953
 6601POPC   C4A22698  33.018  28.332   7.653
 6601POPC   C1B22699  33.281  28.294   8.553
 6601POPC   C2B22700  33.207  28.275   8.253
 6601POPC   C3B22701  33.232  28.216   7.953
 6601POPC   C4B22702  33.242  28.262   7.653
 6602POPC   NC322703   1.965  10.526   9.453
 6602POPC   PO422704   2.004  10.481   9.153
 6602POPC   GL122705   1.955  10.558   8.853
 6602POPC   GL222706   1.858  10.442   8.853
 6602POPC   C1A22707   1.947  10.559   8.553
 6602POPC   D2A22708   2.030  10.536   8.253
 6602POPC   C3A22709   1.985  10.548   7.953
 6602POPC   C4A22710   2.017  10.517   7.653
 6602POPC   C1B22711   1.811  10.362   8.553
 6602POPC   C2B22712   1.846  10.308   8.253
 6602POPC   C3B22713   1.774  10.301   7.953
 6602POPC   C4B22714   1.806  10.329   7.653
 6603POPC   NC322715  40.033  42.326   9.453
 6603POPC   PO422716  40.001  42.324   9.153
 6603POPC   GL122717  40.039  42.358   8.853
 6603POPC   GL222718  39.834  42.316   8.853
 6603POPC   C1A22719  40.039  42.345   8.553
 6603POPC   D2A22720  40.007  42.366   8.253
 6603POPC   C3A22721  39.975  42.326   7.953
 6603POPC   C4A22722  40.013  42.301   7.653
 6603POPC   C1B22723  39.779  42.310   8.553
 6603POPC   C2B22724  39.714  42.306   8.253
 6603POPC   C3B22725  39.712  42.308   7.953
 6603POPC   C4B22726  39.765  42.303   7.653
 6604POPC   NC322727  10.529  39.992   9.453
 6604POPC   PO422728  10.573  40.030   9.153
 6604POPC   GL122729  10.516  39.969   8.853
 6604POPC   GL222730  10.544  40.093   8.853
 6604POPC   C1A22731  10.478  40.048   8.553
 6604POPC   D2A22732  10.493  40.027   8.253
 6604POPC   C3A22733  10.567  39.966   7.953
 6604POPC   C4A22734  10.558  40.040   7.653
 6604POPC   C1B22735  10.499  40.242   8.553
 6604POPC   C2B22736  10.483  40.216   8.253
 6604POPC   C3B22737  10.448  40.249   7.953
 6604POPC   C4B22738  10.522  40.302   7.653
 6605POPC   NC322739  23.732  27.600   9.453
 6605POPC   PO422740  23.736  27.569   9.153
 6605POPC   GL122741  23.682  27.603   8.853
 6605POPC   GL222742  23.791  27.725   8.853
 6605POPC   C1A22743  23.685  27.554   8.553
 6605POPC   D2A22744  23.732  27.629   8.253
 6605POPC   C3A22745  23.745  27.556   7.953
 6605POPC   C4A22746  23.736  27.579   7.653
 6605POPC   C1B22747  23.881  27.756   8.553
 6605POPC   C2B22748  23.886  27.821   8.253
 6605POPC   C3B22749  23.852  27.791   7.953
 6605POPC   C4B22750  23.853  27.767   7.653
 6606POPC   NC322751  34.541  10.536   9.453
 6606POPC   PO422752  34.582  10.571   9.153
 6606POPC   GL122753  34.615  10.521   8.853
 6606POPC   GL222754  34.475  10.676   8.853
 6606POPC   C1A22755  34.622  10.490   8.553
 6606POPC   D2A22756  34.602  10.499   8.253
 6606POPC   C3A22757  34.597  10.573   7.953
 6606POPC   C4A22758  34.602  10.484   7.653
 6606POPC   C1B22759  34.452  10.711   8.553
 6606POPC   C2B22760  34.439  10.767   8.253
 6606POPC   C3B22761  34.422  10.734   7.953
 6606POPC   C4B22762  34.465  10.746   7.653
 6607POPC   NC322763  20.620  17.468   9.453
 6607POPC   PO422764  20.585  17.512   9.153
 6607POPC   GL122765  20.589  17.540   8.853
 6607POPC   GL222766  20.499  17.512   8.853
 6607POPC   C1A22767  20.573  17.484   8.553
 6607POPC   D2A22768  20.655  17.530   8.253
 6607POPC   C3A22769  20.601  17.485   7.953
 6607POPC   C4A22770  20.654  17.551   7.653
 6607POPC   C1B22771  20.335  17.568   8.553
 6607POPC   C2B22772  20.376  17.588   8.253
 6607POPC   C3B22773  20.330  17.574   7.953
 6607POPC   C4B22774  20.408  17.609   7.653
 6608POPC   NC322775  30.696  19.085   9.453
 6608POPC   PO422776  30.688  19.018   9.153
 6608POPC   GL122777  30.725  19.057   8.853
 6608POPC   GL222778  30.662  19.219   8.853
 6608POPC   C1A22779  30.722  19.075   8.553
 6608POPC   D2A22780  30.699  19.102   8.253
 6608POPC   C3A22781  30.736  19.018   7.953
 6608POPC   C4A22782  30.683  19.033   7.653
 6608POPC   C1B22783  30.566  19.269   8.553
 6608POPC   C2B22784  30.620  19.318   8.253
 6608POPC   C3B22785  30.586  19.240   7.953
 6608POPC   C4B22786  30.588  19.311   7.653
 6609POPC   NC322787  11.342  19.826   9.453
 6609POPC   PO422788  11.252  19.849   9.153
 6609POPC   GL122789  11.338  19.819   8.853
 6609POPC   GL222790  11.387  19.925   8.853
 6609POPC   C1A22791  11.270  19.859   8.553
 6609POPC   D2A22792  11.282  19.846   8.253
 6609POPC   C3A22793  11.310  19.807   7.953
 6609POPC   C4A22794  11.310  19.877   7.653
 6609POPC   C1B22795  11.522  19.982   8.553
 6609POPC   C2B22796  11.492  20.006   8.253
 6609POPC   C3B22797  11.455  19.965   7.953
 6609POPC   C4B22798  11.502  20.027   7.653
 6610POPC   NC322799   1.971  43.914   9.453
 6610POPC   PO422800   1.975  43.869   9.153
 6610POPC   GL122801   1.978  43.862   8.853
 6610POPC   GL222802   2.066  43.830   8.853
 6610POPC   C1A22803   1.963  43.878   8.553
 6610POPC   D2A22804   1.982  43.862   8.253
 6610POPC   C3A22805   1.999  43.908   7.953
 6610POPC   C4A22806   1.945  43.858   7.653
 6610POPC   C1B22807   2.124  43.661   8.553
 6610POPC   C2B22808   2.146  43.684   8.253
 6610POPC   C3B22809   2.163  43.687   7.953
 6610POPC   C4B22810   2.147  43.658   7.653
 6611POPC   NC322811  32.200  40.808   9.453
 6611POPC   PO422812  32.292  40.740   9.153
 6611POPC   GL122813  32.262  40.797   8.853
 6611POPC   GL222814  32.360  40.907   8.853
 6611POPC   C1A22815  32.204  40.820   8.553
 6611POPC   D2A22816  32.240  40.780   8.253
 6611POPC   C3A22817  32.288  40.784   7.953
 6611POPC   C4A22818  32.271  40.772   7.653
 6611POPC   C1B22819  32.423  41.019   8.553
 6611POPC   C2B22820  32.430  40.944   8.253
 6611POPC   C3B22821  32.430  40.986   7.953
 6611POPC   C4B22822  32.419  40.946   7.653
 6612POPC   NC322823  27.599  37.682   9.453
 6612POPC   PO422824  27.585  37.678   9.153
 6612POPC   GL122825  27.598  37.645   8.853
 6612POPC   GL222826  27.605  37.811   8.853
 6612POPC   C1A22827  27.559  37.639   8.553
 6612POPC   D2A22828  27.567  37.688   8.253
 6612POPC   C3A22829  27.604  37.679   7.953
 6612POPC   C4A22830  27.621  37.631   7.653
 6612POPC   C1B22831  27.681  37.910   8.553
 6612POPC   C2B22832  27.691  37.964   8.253
 6612POPC   C3B22833  27.634  37.945   7.953
 6612POPC   C4B22834  27.691  37.894   7.653
 6613POPC   NC322835   2.737  24.510   9.453
 6613POPC   PO422836   2.730  24.498   9.153
 6613POPC   GL122837   2.765  24.498   8.853
 6613POPC   GL222838   2.696  24.581   8.853
 6613POPC   C1A22839   2.792  24.494   8.553
 6613POPC   D2A22840   2.734  24.501   8.253
 6613POPC   C3A22841   2.808  24.509   7.953
 6613POPC   C4A22842   2.792  24.528   7.653
 6613POPC   C1B22843   2.695  24.743   8.553
 6613POPC   C2B22844   2.698  24.736   8.253
 6613POPC   C3B22845   2.686  24.744   7.953
 6613POPC   C4B22846   2.711  24.771   7.653
 6614POPC   NC322847  29.888  32.233   9.453
 6614POPC   PO422848  29.943  32.218   9.153
 6614POPC   GL122849  29.933  32.288   8.853
 6614POPC   GL222850  29.757  32.241   8.853
 6614POPC   C1A22851  29.971  32.274   8.553
 6614POPC   D2A22852  29.928  32.229   8.253
 6614POPC   C3A22853  29.916  32.256   7.953
 6614POPC   C4A22854  29.928  32.259   7.653
 6614POPC   C1B22855  29.709  32.239   8.553
 6614POPC   C2B22856  29.717  32.265   8.253
 6614POPC   C3B22857  29.683  32.292   7.953
 6614POPC   C4B22858  29.692  32.315   7.653
 6615POPC   NC322859  42.353  33.813   9.453
 6615POPC   PO422860  42.314  33.769   9.153
 6615POPC   GL122861  42.315  33.765   8.853
 6615POPC   GL222862  42.467  33.776   8.853
 6615POPC   C1A22863  42.304  33.846   8.553
 6615POPC   D2A22864  42.317  33.770   8.253
 6615POPC   C3A22865  42.344  33.842   7.953
 6615POPC   C4A22866  42.359  33.777   7.653
 6615POPC   C1B22867  42.538  33.734   8.553
 6615POPC   C2B22868  42.620  33.731   8.253
 6615POPC   C3B22869  42.543  33.733   7.953
 6615POPC   C4B22870  42.583  33.754   7.653
 6616POPC   NC322871  29.933  36.157   9.453
 6616POPC   PO422872  29.918  36.079   9.153
 6616POPC   GL122873  29.943  36.135   8.853
 6616POPC   GL222874  29.803  36.072   8.853
 6616POPC   C1A22875  29.967  36.147   8.553
 6616POPC   D2A22876  29.898  36.081   8.253
 6616POPC   C3A22877  29.906  36.111   7.953
 6616POPC   C4A22878  29.902  36.144   7.653
 6616POPC   C1B22879  29.723  35.983   8.553
 6616POPC   C2B22880  29.688  35.982   8.253
 6616POPC   C3B22881  29.739  35.989   7.953
 6616POPC   C4B22882  29.656  36.053   7.653
 6617POPC   NC322883  12.103  29.949   9.453
 6617POPC   PO422884  12.110  29.898   9.153
 6617POPC   GL122885  12.107  29.871   8.853
 6617POPC   GL222886  11.965  29.995   8.853
 6617POPC   C1A22887  12.047  29.946   8.553
 6617POPC   D2A22888  12.083  29.955   8.253
 6617POPC   C3A22889  12.116  29.968   7.953
 6617POPC   C4A22890  12.042  29.908   7.653
 6617POPC   C1B22891  11.886  30.091   8.553
 6617POPC   C2B22892  11.898  30.136   8.253
 6617POPC   C3B22893  11.947  30.104   7.953
 6617POPC   C4B22894  11.929  30.098   7.653
 6618POPC   NC322895  38.490  40.748   9.453
 6618POPC   PO422896  38.463  40.789   9.153
 6618POPC   GL122897  38.407  40.791   8.853
 6618POPC   GL222898  38.457  40.614   8.853
 6618POPC   C1A22899  38.448  40.816   8.553
 6618POPC   D2A22900  38.429  40.795   8.253
 6618POPC   C3A22901  38.476  40.827   7.953
 6618POPC   C4A22902  38.482  40.759   7.653
 6618POPC   C1B22903  38.506  40.510   8.553
 6618POPC   C2B22904  38.479  40.541   8.253
 6618POPC   C3B22905  38.498  40.584   7.953
 6618POPC   C4B22906  38.506  40.558   7.653
 6619POPC   NC322907  17.462  35.323   9.453
 6619POPC   PO422908  17.503  35.306   9.153
 6619POPC   GL122909  17.546  35.346   8.853
 6619POPC   GL222910  17.384  35.297   8.853
 6619POPC   C1A22911  17.461  35.370   8.553
 6619POPC   D2A22912  17.541  35.358   8.253
 6619POPC   C3A22913  17.517  35.382   7.953
 6619POPC   C4A22914  17.516  35.351   7.653
 6619POPC   C1B22915  17.265  35.343   8.553
 6619POPC   C2B22916  17.308  35.297   8.253
 6619POPC   C3B22917  17.296  35.329   7.953
 6619POPC   C4B22918  17.291  35.348   7.653
 6620POPC   NC322919  12.030   7.381   9.453
 6620POPC   PO422920  12.117   7.405   9.153
 6620POPC   GL122921  12.077   7.390   8.853
 6620POPC   GL222922  12.144   7.316   8.853
 6620POPC   C1A22923  12.053   7.466   8.553
 6620POPC   D2A22924  12.082   7.451   8.253
 6620POPC   C3A22925  12.113   7.400   7.953
 6620POPC   C4A22926  12.082   7.372   7.653
 6620POPC   C1B22927  12.134   7.194   8.553
 6620POPC   C2B22928  12.101   7.134   8.253
 6620POPC   C3B22929  12.180   7.212   7.953
 6620POPC   C4B22930  12.165   7.224   7.653
 6621POPC   NC322931  38.490  26.817   9.453
 6621POPC   PO422932  38.435  26.820   9.153
 6621POPC   GL122933  38.479  26.792   8.853
 6621POPC   GL222934  38.388  26.906   8.853
 6621POPC   C1A22935  38.467  26.865   8.553
 6621POPC   D2A22936  38.418  26.845   8.253
 6621POPC   C3A22937  38.440  26.794   7.953
 6621POPC   C4A22938  38.477  26.773   7.653
 6621POPC   C1B22939  38.309  26.991   8.553
 6621POPC   C2B22940  38.315  27.002   8.253
 6621POPC   C3B22941  38.383  27.064   7.953
 6621POPC   C4B22942  38.358  27.075   7.653
 6622POPC   NC322943  15.957  33.072   9.453
 6622POPC   PO422944  15.908  33.043   9.153
 6622POPC   GL122945  15.983  33.048   8.853
 6622POPC   GL222946  15.958  33.168   8.853
 6622POPC   C1A22947  15.925  33.066   8.553
 6622POPC   D2A22948  15.996  33.067   8.253
 6622POPC   C3A22949  15.993  33.045   7.953
 6622POPC   C4A22950  15.967  33.007   7.653
 6622POPC   C1B22951  15.889  33.280   8.553
 6622POPC   C2B22952  15.885  33.256   8.253
 6622POPC   C3B22953  15.871  33.289   7.953
 6622POPC   C4B22954  15.893  33.226   7.653
 6623POPC   NC322955   4.342  31.494   9.453
 6623POPC   PO422956   4.343  31.467   9.153
 6623POPC   GL122957   4.282  31.451   8.853
 6623POPC   GL222958   4.251  31.568   8.853
 6623POPC   C1A22959   4.269  31.424   8.553
 6623POPC   D2A22960   4.325  31.425   8.253
 6623POPC   C3A22961   4.296  31.495   7.953
 6623POPC   C4A22962   4.268  31.485   7.653
 6623POPC   C1B22963   4.193  31.658   8.553
 6623POPC   C2B22964   4.177  31.686   8.253
 6623POPC   C3B22965   4.162  31.720   7.953
 6623POPC   C4B22966   4.221  31.669   7.653
 6624POPC   NC322967  11.270  13.653   9.453
 6624POPC   PO422968  11.261  13.636   9.153
 6624POPC   GL122969  11.278  13.648   8.853
 6624POPC   GL222970  11.272  13.485   8.853
 6624POPC   C1A22971  11.347  13.594   8.553
 6624POPC   D2A22972  11.348  13.586   8.253
 6624POPC   C3A22973  11.344  13.632   7.953
 6624POPC   C4A22974  11.323  13.642   7.653
 6624POPC   C1B22975  11.106  13.479   8.553
 6624POPC   C2B22976  11.171  13.383   8.253
 6624POPC   C3B22977  11.107  13.469   7.953
 6624POPC   C4B22978  11.152  13.460   7.653
 6625POPC   NC322979  37.655  36.136   9.453
 6625POPC   PO422980  37.717  36.127   9.153
 6625POPC   GL122981  37.704  36.158   8.853
 6625POPC   GL222982  37.747  36.230   8.853
 6625POPC   C1A22983  37.649  36.177   8.553
 6625POPC   D2A22984  37.644  36.140   8.253
 6625POPC   C3A22985  37.716  36.125   7.953
 6625POPC   C4A22986  37.679  36.140   7.653
 6625POPC   C1B22987  37.832  36.263   8.553
 6625POPC   C2B22988  37.844  36.253   8.253
 6625POPC   C3B22989  37.869  36.320   7.953
 6625POPC   C4B22990  37.859  36.337   7.653
 6626POPC   NC322991  23.722  43.879   9.453
 6626POPC   PO422992  23.678  43.888   9.153
 6626POPC   GL122993  23.683  43.855   8.853
 6626POPC   GL222994  23.838  43.951   8.853
 6626POPC   C1A22995  23.674  43.872   8.553
 6626POPC   D2A22996  23.721  43.883   8.253
 6626POPC   C3A22997  23.723  43.929   7.953
 6626POPC   C4A22998  23.729  43.914   7.653
 6626POPC   C1B22999  23.988  43.937   8.553
 6626POPC   C2B23000  23.965  43.974   8.253
 6626POPC   C3B23001  23.918  43.933   7.953
 6626POPC   C4B23002  23.989  43.946   7.653
 6627POPC   NC323003  39.190   7.456   9.453
 6627POPC   PO423004  39.230   7.400   9.153
 6627POPC   GL123005  39.216   7.389   8.853
 6627POPC   GL223006  39.128   7.316   8.853
 6627POPC   C1A23007  39.254   7.464   8.553
 6627POPC   D2A23008  39.224   7.405   8.253
 6627POPC   C3A23009  39.185   7.421   7.953
 6627POPC   C4A23010  39.251   7.443   7.653
 6627POPC   C1B23011  39.074   7.195   8.553
 6627POPC   C2B23012  39.082   7.222   8.253
 6627POPC   C3B23013  39.089   7.242   7.953
 6627POPC   C4B23014  39.129   7.198   7.653
 6628POPC   NC323015  18.287  16.692   9.453
 6628POPC   PO423016  18.250  16.776   9.153
 6628POPC   GL123017  18.277  16.730   8.853
 6628POPC   GL223018  18.200  16.846   8.853
 6628POPC   C1A23019  18.258  16.737   8.553
 6628POPC   D2A23020  18.270  16.718   8.253
 6628POPC   C3A23021  18.245  16.722   7.953
 6628POPC   C4A23022  18.320  16.716   7.653
 6628POPC   C1B23023  18.134  16.954   8.553
 6628POPC   C2B23024  18.077  16.925   8.253
 6628POPC   C3B23025  18.141  16.936   7.953
 6628POPC   C4B23026  18.121  16.870   7.653
 6629POPC   NC323027  21.399  26.023   9.453
 6629POPC   PO423028  21.424  26.049   9.153
 6629POPC   GL123029  21.394  26.022   8.853
 6629POPC   GL223030  21.553  26.112   8.853
 6629POPC   C1A23031  21.376  26.021   8.553
 6629POPC   D2A23032  21.406  26.065   8.253
 6629POPC   C3A23033  21.397  26.073   7.953
 6629POPC   C4A23034  21.389  26.057   7.653
 6629POPC   C1B23035  21.618  26.107   8.553
 6629POPC   C2B23036  21.598  26.160   8.253
 6629POPC   C3B23037  21.592  26.153   7.953
 6629POPC   C4B23038  21.587  26.103   7.653
 6630POPC   NC323039   4.340  29.940   9.453
 6630POPC   PO423040   4.316  29.873   9.153
 6630POPC   GL123041   4.286  29.900   8.853
 6630POPC   GL223042   4.284  30.001   8.853
 6630POPC   C1A23043   4.293  29.896   8.553
 6630POPC   D2A23044   4.294  29.905   8.253
 6630POPC   C3A23045   4.308  29.908   7.953
 6630POPC   C4A23046   4.315  29.911   7.653
 6630POPC   C1B23047   4.222  30.170   8.553
 6630POPC   C2B23048   4.240  30.156   8.253
 6630POPC   C3B23049   4.282  30.123   7.953
 6630POPC   C4B23050   4.245  30.124   7.653
 6631POPC   NC323051  33.839  29.185   9.453
 6631POPC   PO423052  33.836  29.161   9.153
 6631POPC   GL123053  33.789  29.106   8.853
 6631POPC   GL223054  33.966  29.203   8.853
 6631POPC   C1A23055  33.771  29.159   8.553
 6631POPC   D2A23056  33.837  29.147   8.253
 6631POPC   C3A23057  33.800  29.113   7.953
 6631POPC   C4A23058  33.803  29.138   7.653
 6631POPC   C1B23059  34.067  29.240   8.553
 6631POPC   C2B23060  34.068  29.173   8.253
 6631POPC   C3B23061  34.029  29.236   7.953
 6631POPC   C4B23062  34.066  29.232   7.653
 6632POPC   NC323063   2.799  11.266   9.453
 6632POPC   PO423064   2.767  11.336   9.153
 6632POPC   GL123065   2.778  11.273   8.853
 6632POPC   GL223066   2.854  11.369   8.853
 6632POPC   C1A23067   2.774  11.297   8.553
 6632POPC   D2A23068   2.790  11.349   8.253
 6632POPC   C3A23069   2.767  11.342   7.953
 6632POPC   C4A23070   2.740  11.347   7.653
 6632POPC   C1B23071   2.876  11.522   8.553
 6632POPC   C2B23072   2.890  11.501   8.253
 6632POPC   C3B23073   2.937  11.530   7.953
 6632POPC   C4B23074   2.893  11.498   7.653
 6633POPC   NC323075  43.133   4.307   9.453
 6633POPC   PO423076  43.121   4.323   9.153
 6633POPC   GL123077  43.087   4.290   8.853
 6633POPC   GL223078  43.190   4.299   8.853
 6633POPC   C1A23079  43.115   4.340   8.553
 6633POPC   D2A23080  43.061   4.357   8.253
 6633POPC   C3A23081  43.133   4.345   7.953
 6633POPC   C4A23082  43.119   4.301   7.653
 6633POPC   C1B23083  43.336   4.341   8.553
 6633POPC   C2B23084  43.385   4.338   8.253
 6633POPC   C3B23085  43.380   4.280   7.953
 6633POPC   C4B23086  43.317   4.289   7.653
 6634POPC   NC323087  34.600  43.103   9.453
 6634POPC   PO423088  34.615  43.125   9.153
 6634POPC   GL123089  34.601  43.101   8.853
 6634POPC   GL223090  34.721  43.148   8.853
 6634POPC   C1A23091  34.621  43.153   8.553
 6634POPC   D2A23092  34.594  43.118   8.253
 6634POPC   C3A23093  34.572  43.074   7.953
 6634POPC   C4A23094  34.603  43.143   7.653
 6634POPC   C1B23095  34.792  43.227   8.553
 6634POPC   C2B23096  34.752  43.279   8.253
 6634POPC   C3B23097  34.797  43.319   7.953
 6634POPC   C4B23098  34.741  43.258   7.653
 6635POPC   NC323099  36.876  40.831   9.453
 6635POPC   PO423100  36.881  40.745   9.153
 6635POPC   GL123101  36.942  40.823   8.853
 6635POPC   GL223102  36.977  40.946   8.853
 6635POPC   C1A23103  36.911  40.749   8.553
 6635POPC   D2A23104  36.888  40.829   8.253
 6635POPC   C3A23105  36.870  40.799   7.953
 6635POPC   C4A23106  36.918  40.810   7.653
 6635POPC   C1B23107  37.003  41.064   8.553
 6635POPC   C2B23108  36.994  40.991   8.253
 6635POPC   C3B23109  37.003  40.985   7.953
 6635POPC   C4B23110  36.977  41.010   7.653
 6636POPC   NC323111  25.289  36.873   9.453
 6636POPC   PO423112  25.240  36.902   9.153
 6636POPC   GL123113  25.304  36.857   8.853
 6636POPC   GL223114  25.357  36.916   8.853
 6636POPC   C1A23115  25.218  36.867   8.553
 6636POPC   D2A23116  25.227  36.868   8.253
 6636POPC   C3A23117  25.298  36.876   7.953
 6636POPC   C4A23118  25.221  36.942   7.653
 6636POPC   C1B23119  25.467  36.999   8.553
 6636POPC   C2B23120  25.447  37.006   8.253
 6636POPC   C3B23121  25.457  37.054   7.953
 6636POPC   C4B23122  25.519  37.009   7.653
 6637POPC   NC323123   8.993   5.875   9.453
 6637POPC   PO423124   8.929   5.821   9.153
 6637POPC   GL123125   8.937   5.827   8.853
 6637POPC   GL223126   8.808   5.894   8.853
 6637POPC   C1A23127   8.941   5.855   8.553
 6637POPC   D2A23128   8.937   5.913   8.253
 6637POPC   C3A23129   8.966   5.842   7.953
 6637POPC   C4A23130   9.002   5.858   7.653
 6637POPC   C1B23131   8.772   5.871   8.553
 6637POPC   C2B23132   8.713   5.913   8.253
 6637POPC   C3B23133   8.756   5.904   7.953
 6637POPC   C4B23134   8.676   5.926   7.653
 6638POPC   NC323135  29.935  29.881   9.453
 6638POPC   PO423136  29.954  29.916   9.153
 6638POPC   GL123137  29.914  29.890   8.853
 6638POPC   GL223138  29.854  30.040   8.853
 6638POPC   C1A23139  29.888  29.876   8.553
 6638POPC   D2A23140  29.881  29.949   8.253
 6638POPC   C3A23141  29.872  29.882   7.953
 6638POPC   C4A23142  29.933  29.906   7.653
 6638POPC   C1B23143  29.752  30.055   8.553
 6638POPC   C2B23144  29.750  30.114   8.253
 6638POPC   C3B23145  29.711  30.094   7.953
 6638POPC   C4B23146  29.719  30.129   7.653
 6639POPC   NC323147  38.475   6.686   9.453
 6639POPC   PO423148  38.434   6.691   9.153
 6639POPC   GL123149  38.445   6.650   8.853
 6639POPC   GL223150  38.329   6.589   8.853
 6639POPC   C1A23151  38.476   6.643   8.553
 6639POPC   D2A23152  38.458   6.615   8.253
 6639POPC   C3A23153  38.490   6.622   7.953
 6639POPC   C4A23154  38.443   6.653   7.653
 6639POPC   C1B23155  38.272   6.454   8.553
 6639POPC   C2B23156  38.208   6.528   8.253
 6639POPC   C3B23157  38.220   6.484   7.953
 6639POPC   C4B23158  38.270   6.543   7.653
 6640POPC   NC323159  25.313  28.415   9.453
 6640POPC   PO423160  25.237  28.334   9.153
 6640POPC   GL123161  25.290  28.362   8.853
 6640POPC   GL223162  25.325  28.311   8.853
 6640POPC   C1A23163  25.255  28.353   8.553
 6640POPC   D2A23164  25.311  28.387   8.253
 6640POPC   C3A23165  25.310  28.350   7.953
 6640POPC   C4A23166  25.302  28.371   7.653
 6640POPC   C1B23167  25.423  28.171   8.553
 6640POPC   C2B23168  25.402  28.173   8.253
 6640POPC   C3B23169  25.417  28.158   7.953
 6640POPC   C4B23170  25.419  28.218   7.653
 6641POPC   NC323171  28.358  19.086   9.453
 6641POPC   PO423172  28.387  19.044   9.153
 6641POPC   GL123173  28.400  19.086   8.853
 6641POPC   GL223174  28.251  18.950   8.853
 6641POPC   C1A23175  28.375  19.105   8.553
 6641POPC   D2A23176  28.375  19.020   8.253
 6641POPC   C3A23177  28.332  19.059   7.953
 6641POPC   C4A23178  28.384  19.071   7.653
 6641POPC   C1B23179  28.224  18.844   8.553
 6641POPC   C2B23180  28.197  18.911   8.253
 6641POPC   C3B23181  28.165  18.903   7.953
 6641POPC   C4B23182  28.192  18.856   7.653
 6642POPC   NC323183  17.521  37.729   9.453
 6642POPC   PO423184  17.503  37.635   9.153
 6642POPC   GL123185  17.522  37.642   8.853
 6642POPC   GL223186  17.476  37.798   8.853
 6642POPC   C1A23187  17.486  37.726   8.553
 6642POPC   D2A23188  17.463  37.728   8.253
 6642POPC   C3A23189  17.494  37.640   7.953
 6642POPC   C4A23190  17.553  37.648   7.653
 6642POPC   C1B23191  17.482  37.937   8.553
 6642POPC   C2B23192  17.504  37.945   8.253
 6642POPC   C3B23193  17.538  37.915   7.953
 6642POPC   C4B23194  17.452  37.891   7.653
 6643POPC   NC323195  25.295  15.944   9.453
 6643POPC   PO423196  25.234  15.917   9.153
 6643POPC   GL123197  25.236  15.929   8.853
 6643POPC   GL223198  25.271  16.104   8.853
 6643POPC   C1A23199  25.286  15.914   8.553
 6643POPC   D2A23200  25.277  15.909   8.253
 6643POPC   C3A23201  25.306  15.980   7.953
 6643POPC   C4A23202  25.298  15.960   7.653
 6643POPC   C1B23203  25.193  16.159   8.553
 6643POPC   C2B23204  25.183  16.142   8.253
 6643POPC   C3B23205  25.211  16.213   7.953
 6643POPC   C4B23206  25.232  16.208   7.653
 6644POPC   NC323207  30.685  22.948   9.453
 6644POPC   PO423208  30.715  22.924   9.153
 6644POPC   GL123209  30.728  22.956   8.853
 6644POPC   GL223210  30.793  22.821   8.853
 6644POPC   C1A23211  30.725  22.919   8.553
 6644POPC   D2A23212  30.693  22.943   8.253
 6644POPC   C3A23213  30.720  22.982   7.953
 6644POPC   C4A23214  30.666  22.908   7.653
 6644POPC   C1B23215  30.880  22.796   8.553
 6644POPC   C2B23216  30.951  22.801   8.253
 6644POPC   C3B23217  30.915  22.754   7.953
 6644POPC   C4B23218  30.914  22.775   7.653
 6645POPC   NC323219  39.240  29.899   9.453
 6645POPC   PO423220  39.186  29.914   9.153
 6645POPC   GL123221  39.272  29.898   8.853
 6645POPC   GL223222  39.367  29.942   8.853
 6645POPC   C1A23223  39.204  29.948   8.553
 6645POPC   D2A23224  39.202  29.962   8.253
 6645POPC   C3A23225  39.205  29.964   7.953
 6645POPC   C4A23226  39.254  29.875   7.653
 6645POPC   C1B23227  39.506  29.917   8.553
 6645POPC   C2B23228  39.488  29.900   8.253
 6645POPC   C3B23229  39.456  29.921   7.953
 6645POPC   C4B23230  39.504  29.975   7.653
 6646POPC   NC323231   5.133  42.349   9.453
 6646POPC   PO423232   5.055  42.358   9.153
 6646POPC   GL123233   5.059  42.312   8.853
 6646POPC   GL223234   4.954  42.408   8.853
 6646POPC   C1A23235   5.117  42.293   8.553
 6646POPC   D2A23236   5.055  42.300   8.253
 6646POPC   C3A23237   5.104  42.378   7.953
 6646POPC   C4A23238   5.060  42.317   7.653
 6646POPC   C1B23239   4.837  42.489   8.553
 6646POPC   C2B23240   4.838  42.465   8.253
 6646POPC   C3B23241   4.911  42.428   7.953
 6646POPC   C4B23242   4.885  42.518   7.653
 6647POPC   NC323243  25.283  42.311   9.453
 6647POPC   PO423244  25.299  42.360   9.153
 6647POPC   GL123245  25.258  42.287   8.853
 6647POPC   GL223246  25.139  42.246   8.853
 6647POPC   C1A23247  25.293  42.293   8.553
 6647POPC   D2A23248  25.284  42.341   8.253
 6647POPC   C3A23249  25.299  42.350   7.953
 6647POPC   C4A23250  25.230  42.349   7.653
 6647POPC   C1B23251  25.052  42.235   8.553
 6647POPC   C2B23252  25.080  42.176   8.253
 6647POPC   C3B23253  25.032  42.245   7.953
 6647POPC   C4B23254  24.998  42.227   7.653
 6648POPC   NC323255  36.943  27.549   9.453
 6648POPC   PO423256  36.863  27.562   9.153
 6648POPC   GL123257  36.856  27.568   8.853
 6648POPC   GL223258  36.995  27.536   8.853
 6648POPC   C1A23259  36.856  27.594   8.553
 6648POPC   D2A23260  36.911  27.586   8.253
 6648POPC   C3A23261  36.953  27.610   7.953
 6648POPC   C4A23262  36.886  27.589   7.653
 6648POPC   C1B23263  37.137  27.516   8.553
 6648POPC   C2B23264  37.113  27.557   8.253
 6648POPC   C3B23265  37.174  27.563   7.953
 6648POPC   C4B23266  37.102  27.514   7.653
 6649POPC   NC323267  19.815  39.215   9.453
 6649POPC   PO423268  19.823  39.191   9.153
 6649POPC   GL123269  19.873  39.244   8.853
 6649POPC   GL223270  19.908  39.103   8.853
 6649POPC   C1A23271  19.805  39.212   8.553
 6649POPC   D2A23272  19.833  39.241   8.253
 6649POPC   C3A23273  19.866  39.219   7.953
 6649POPC   C4A23274  19.820  39.231   7.653
 6649POPC   C1B23275  20.041  39.020   8.553
 6649POPC   C2B23276  20.040  39.056   8.253
 6649POPC   C3B23277  19.956  39.042   7.953
 6649POPC   C4B23278  19.998  39.041   7.653
 6650POPC   NC323279  24.480  38.418   9.453
 6650POPC   PO423280  24.458  38.503   9.153
 6650POPC   GL123281  24.473  38.431   8.853
 6650POPC   GL223282  24.419  38.372   8.853
 6650POPC   C1A23283  24.471  38.429   8.553
 6650POPC   D2A23284  24.498  38.437   8.253
 6650POPC   C3A23285  24.511  38.494   7.953
 6650POPC   C4A23286  24.475  38.473   7.653
 6650POPC   C1B23287  24.245  38.379   8.553
 6650POPC   C2B23288  24.307  38.363   8.253
 6650POPC   C3B23289  24.221  38.347   7.953
 6650POPC   C4B23290  24.237  38.308   7.653
 6651POPC   NC323291   6.647  36.176   9.453
 6651POPC   PO423292   6.639  36.078   9.153
 6651POPC   GL123293   6.625  36.081   8.853
 6651POPC   GL223294   6.749  36.017   8.853
 6651POPC   C1A23295   6.657  36.139   8.553
 6651POPC   D2A23296   6.651  36.115   8.253
 6651POPC   C3A23297   6.638  36.096   7.953
 6651POPC   C4A23298   6.644  36.152   7.653
 6651POPC   C1B23299   6.870  35.964   8.553
 6651POPC   C2B23300   6.901  36.021   8.253
 6651POPC   C3B23301   6.874  35.972   7.953
 6651POPC   C4B23302   6.907  36.022   7.653
 6652POPC   NC323303   9.700  18.265   9.453
 6652POPC   PO423304   9.760  18.310   9.153
 6652POPC   GL123305   9.797  18.295   8.853
 6652POPC   GL223306   9.769  18.444   8.853
 6652POPC   C1A23307   9.737  18.263   8.553
 6652POPC   D2A23308   9.704  18.278   8.253
 6652POPC   C3A23309   9.791  18.326   7.953
 6652POPC   C4A23310   9.798  18.272   7.653
 6652POPC   C1B23311   9.808  18.548   8.553
 6652POPC   C2B23312   9.794  18.489   8.253
 6652POPC   C3B23313   9.768  18.557   7.953
 6652POPC   C4B23314   9.843  18.487   7.653
 6653POPC   NC323315   1.204   1.998   9.453
 6653POPC   PO423316   1.231   1.958   9.153
 6653POPC   GL123317   1.217   1.990   8.853
 6653POPC   GL223318   1.101   2.033   8.853
 6653POPC   C1A23319   1.243   1.974   8.553
 6653POPC   D2A23320   1.231   1.967   8.253
 6653POPC   C3A23321   1.246   1.957   7.953
 6653POPC   C4A23322   1.198   1.971   7.653
 6653POPC   C1B23323   0.950   2.094   8.553
 6653POPC   C2B23324   1.005   2.160   8.253
 6653POPC   C3B23325   0.961   2.157   7.953
 6653POPC   C4B23326   1.046   2.089   7.653
 6654POPC   NC323327  21.401   9.727   9.453
 6654POPC   PO423328  21.419   9.773   9.153
 6654POPC   GL123329  21.340   9.767   8.853
 6654POPC   GL223330  21.264   9.727   8.853
 6654POPC   C1A23331  21.427   9.752   8.553
 6654POPC   D2A23332  21.337   9.760   8.253
 6654POPC   C3A23333  21.416   9.730   7.953
 6654POPC   C4A23334  21.429   9.762   7.653
 6654POPC   C1B23335  21.167   9.778   8.553
 6654POPC   C2B23336  21.162   9.813   8.253
 6654POPC   C3B23337  21.111   9.788   7.953
 6654POPC   C4B23338  21.099   9.759   7.653
 6655POPC   NC323339  22.174  11.268   9.453
 6655POPC   PO423340  22.159  11.277   9.153
 6655POPC   GL123341  22.122  11.274   8.853
 6655POPC   GL223342  22.065  11.364   8.853
 6655POPC   C1A23343  22.162  11.302   8.553
 6655POPC   D2A23344  22.151  11.324   8.253
 6655POPC   C3A23345  22.184  11.323   7.953
 6655POPC   C4A23346  22.158  11.315   7.653
 6655POPC   C1B23347  22.033  11.528   8.553
 6655POPC   C2B23348  22.066  11.557   8.253
 6655POPC   C3B23349  22.086  11.531   7.953
 6655POPC   C4B23350  22.029  11.500   7.653
 6656POPC   NC323351  29.935  19.040   9.453
 6656POPC   PO423352  29.968  19.040   9.153
 6656POPC   GL123353  29.935  19.012   8.853
 6656POPC   GL223354  30.052  19.009   8.853
 6656POPC   C1A23355  29.942  19.088   8.553
 6656POPC   D2A23356  29.928  19.024   8.253
 6656POPC   C3A23357  29.923  19.097   7.953
 6656POPC   C4A23358  29.912  19.060   7.653
 6656POPC   C1B23359  30.159  18.925   8.553
 6656POPC   C2B23360  30.147  18.915   8.253
 6656POPC   C3B23361  30.159  18.901   7.953
 6656POPC   C4B23362  30.120  18.883   7.653
 6657POPC   NC323363   9.779  15.953   9.453
 6657POPC   PO423364   9.779  16.003   9.153
 6657POPC   GL123365   9.709  15.931   8.853
 6657POPC   GL223366   9.834  15.902   8.853
 6657POPC   C1A23367   9.721  15.918   8.553
 6657POPC   D2A23368   9.722  15.985   8.253
 6657POPC   C3A23369   9.704  15.912   7.953
 6657POPC   C4A23370   9.768  15.964   7.653
 6657POPC   C1B23371   9.922  15.741   8.553
 6657POPC   C2B23372   9.867  15.754   8.253
 6657POPC   C3B23373   9.876  15.783   7.953
 6657POPC   C4B23374   9.885  15.766   7.653
 6658POPC   NC323375  21.426  11.266   9.453
 6658POPC   PO423376  21.404  11.284   9.153
 6658POPC   GL123377  21.362  11.297   8.853
 6658POPC   GL223378  21.294  11.265   8.853
 6658POPC   C1A23379  21.410  11.328   8.553
 6658POPC   D2A23380  21.394  11.317   8.253
 6658POPC   C3A23381  21.405  11.320   7.953
 6658POPC   C4A23382  21.382  11.325   7.653
 6658POPC   C1B23383  21.162  11.165   8.553
 6658POPC   C2B23384  21.166  11.194   8.253
 6658POPC   C3B23385  21.178  11.162   7.953
 6658POPC   C4B23386  21.211  11.145   7.653
 6659POPC   NC323387  44.681  21.417   9.453
 6659POPC   PO423388  44.684  21.379   9.153
 6659POPC   GL123389  44.617  21.372   8.853
 6659POPC   GL223390  44.753  21.310   8.853
 6659POPC   C1A23391  44.614  21.375   8.553
 6659POPC   D2A23392  44.643  21.407   8.253
 6659POPC   C3A23393  44.710  21.422   7.953
 6659POPC   C4A23394  44.633  21.391   7.653
 6659POPC   C1B23395  44.860  21.290   8.553
 6659POPC   C2B23396  44.915  21.267   8.253
 6659POPC   C3B23397  44.854  21.206   7.953
 6659POPC   C4B23398  44.852  21.218   7.653
 6660POPC   NC323399  33.021  40.798   9.453
 6660POPC   PO423400  33.003  40.819   9.153
 6660POPC   GL123401  33.004  40.782   8.853
 6660POPC   GL223402  33.096  40.833   8.853
 6660POPC   C1A23403  32.994  40.762   8.553
 6660POPC   D2A23404  33.043  40.794   8.253
 6660POPC   C3A23405  33.023  40.800   7.953
 6660POPC   C4A23406  33.037  40.821   7.653
 6660POPC   C1B23407  33.224  40.901   8.553
 6660POPC   C2B23408  33.209  40.932   8.253
 6660POPC   C3B23409  33.240  40.895   7.953
 6660POPC   C4B23410  33.283  40.894   7.653
 6661POPC   NC323411   8.164   7.453   9.453
 6661POPC   PO423412   8.172   7.455   9.153
 6661POPC   GL123413   8.183   7.399   8.853
 6661POPC   GL223414   8.094   7.364   8.853
 6661POPC   C1A23415   8.237   7.412   8.553
 6661POPC   D2A23416   8.221   7.423   8.253
 6661POPC   C3A23417   8.149   7.460   7.953
 6661POPC   C4A23418   8.194   7.460   7.653
 6661POPC   C1B23419   7.997   7.313   8.553
 6661POPC   C2B23420   7.976   7.381   8.253
 6661POPC   C3B23421   7.911   7.318   7.953
 6661POPC   C4B23422   7.988   7.310   7.653
 6662POPC   NC323423  15.939   2.022   9.453
 6662POPC   PO423424  15.944   2.032   9.153
 6662POPC   GL123425  15.953   1.956   8.853
 6662POPC   GL223426  15.828   1.872   8.853
 6662POPC   C1A23427  15.997   1.994   8.553
 6662POPC   D2A23428  15.919   1.942   8.253
 6662POPC   C3A23429  15.982   2.038   7.953
 6662POPC   C4A23430  15.960   1.983   7.653
 6662POPC   C1B23431  15.771   1.901   8.553
 6662POPC   C2B23432  15.702   1.858   8.253
 6662POPC   C3B23433  15.764   1.808   7.953
 6662POPC   C4B23434  15.734   1.867   7.653
 6663POPC   NC323435   5.874  14.376   9.453
 6663POPC   PO423436   5.840  14.403   9.153
 6663POPC   GL123437   5.834  14.386   8.853
 6663POPC   GL223438   5.943  14.394   8.853
 6663POPC   C1A23439   5.871  14.414   8.553
 6663POPC   D2A23440   5.852  14.391   8.253
 6663POPC   C3A23441   5.842  14.388   7.953
 6663POPC   C4A23442   5.877  14.356   7.653
 6663POPC   C1B23443   6.111  14.329   8.553
 6663POPC   C2B23444   6.132  14.396   8.253
 6663POPC   C3B23445   6.154  14.415   7.953
 6663POPC   C4B23446   6.130  14.374   7.653
 6664POPC   NC323447   5.075   1.206   9.453
 6664POPC   PO423448   5.065   1.234   9.153
 6664POPC   GL123449   5.096   1.237   8.853
 6664POPC   GL223450   4.946   1.190   8.853
 6664POPC   C1A23451   5.057   1.253   8.553
 6664POPC   D2A23452   5.092   1.242   8.253
 6664POPC   C3A23453   5.046   1.216   7.953
 6664POPC   C4A23454   5.100   1.182   7.653
 6664POPC   C1B23455   4.832   1.105   8.553
 6664POPC   C2B23456   4.826   1.108   8.253
 6664POPC   C3B23457   4.856   1.089   7.953
 6664POPC   C4B23458   4.911   1.141   7.653
 6665POPC   NC323459   6.634   3.551   9.453
 6665POPC   PO423460   6.693   3.583   9.153
 6665POPC   GL123461   6.630   3.555   8.853
 6665POPC   GL223462   6.731   3.520   8.853
 6665POPC   C1A23463   6.601   3.552   8.553
 6665POPC   D2A23464   6.610   3.496   8.253
 6665POPC   C3A23465   6.602   3.569   7.953
 6665POPC   C4A23466   6.647   3.541   7.653
 6665POPC   C1B23467   6.898   3.493   8.553
 6665POPC   C2B23468   6.917   3.533   8.253
 6665POPC   C3B23469   6.930   3.468   7.953
 6665POPC   C4B23470   6.917   3.497   7.653
 6666POPC   NC323471  15.993  43.134   9.453
 6666POPC   PO423472  15.939  43.153   9.153
 6666POPC   GL123473  15.971  43.093   8.853
 6666POPC   GL223474  16.034  43.158   8.853
 6666POPC   C1A23475  15.978  43.110   8.553
 6666POPC   D2A23476  15.968  43.076   8.253
 6666POPC   C3A23477  15.909  43.097   7.953
 6666POPC   C4A23478  15.969  43.145   7.653
 6666POPC   C1B23479  16.147  43.267   8.553
 6666POPC   C2B23480  16.159  43.236   8.253
 6666POPC   C3B23481  16.153  43.242   7.953
 6666POPC   C4B23482  16.180  43.277   7.653
 6667POPC   NC323483  23.723  40.745   9.453
 6667POPC   PO423484  23.730  40.747   9.153
 6667POPC   GL123485  23.763  40.827   8.853
 6667POPC   GL223486  23.696  40.855   8.853
 6667POPC   C1A23487  23.685  40.813   8.553
 6667POPC   D2A23488  23.754  40.774   8.253
 6667POPC   C3A23489  23.715  40.759   7.953
 6667POPC   C4A23490  23.683  40.738   7.653
 6667POPC   C1B23491  23.593  41.034   8.553
 6667POPC   C2B23492  23.621  40.974   8.253
 6667POPC   C3B23493  23.600  41.017   7.953
 6667POPC   C4B23494  23.615  40.974   7.653
 6668POPC   NC323495   8.152   8.217   9.453
 6668POPC   PO423496   8.152   8.226   9.153
 6668POPC   GL123497   8.220   8.235   8.853
 6668POPC   GL223498   8.039   8.252   8.853
 6668POPC   C1A23499   8.172   8.183   8.553
 6668POPC   D2A23500   8.189   8.171   8.253
 6668POPC   C3A23501   8.182   8.212   7.953
 6668POPC   C4A23502   8.189   8.215   7.653
 6668POPC   C1B23503   7.961   8.326   8.553
 6668POPC   C2B23504   7.980   8.320   8.253
 6668POPC   C3B23505   8.020   8.306   7.953
 6668POPC   C4B23506   7.955   8.260   7.653
 6669POPC   NC323507   1.229  18.323   9.453
 6669POPC   PO423508   1.226  18.286   9.153
 6669POPC   GL123509   1.180  18.272   8.853
 6669POPC   GL223510   1.147  18.306   8.853
 6669POPC   C1A23511   1.219  18.279   8.553
 6669POPC   D2A23512   1.263  18.325   8.253
 6669POPC   C3A23513   1.186  18.246   7.953
 6669POPC   C4A23514   1.261  18.326   7.653
 6669POPC   C1B23515   0.962  18.382   8.553
 6669POPC   C2B23516   0.966  18.439   8.253
 6669POPC   C3B23517   0.957  18.411   7.953
 6669POPC   C4B23518   0.970  18.378   7.653
 6670POPC   NC323519  39.239  27.607   9.453
 6670POPC   PO423520  39.182  27.595   9.153
 6670POPC   GL123521  39.201  27.559   8.853
 6670POPC   GL223522  39.121  27.482   8.853
 6670POPC   C1A23523  39.181  27.543   8.553
 6670POPC   D2A23524  39.251  27.634   8.253
 6670POPC   C3A23525  39.251  27.547   7.953
 6670POPC   C4A23526  39.278  27.624   7.653
 6670POPC   C1B23527  39.036  27.381   8.553
 6670POPC   C2B23528  39.059  27.398   8.253
 6670POPC   C3B23529  39.097  27.375   7.953
 6670POPC   C4B23530  39.080  27.443   7.653
 6671POPC   NC323531  43.882  42.321   9.453
 6671POPC   PO423532  43.843  42.378   9.153
 6671POPC   GL123533  43.845  42.354   8.853
 6671POPC   GL223534  43.955  42.188   8.853
 6671POPC   C1A23535  43.885  42.287   8.553
 6671POPC   D2A23536  43.843  42.367   8.253
 6671POPC   C3A23537  43.837  42.354   7.953
 6671POPC   C4A23538  43.906  42.370   7.653
 6671POPC   C1B23539  43.974  42.078   8.553
 6671POPC   C2B23540  43.972  42.080   8.253
 6671POPC   C3B23541  44.013  42.091   7.953
 6671POPC   C4B23542  43.946  42.101   7.653
 6672POPC   NC323543  22.148  18.308   9.453
 6672POPC   PO423544  22.119  18.331   9.153
 6672POPC   GL123545  22.177  18.291   8.853
 6672POPC   GL223546  22.243  18.283   8.853
 6672POPC   C1A23547  22.191  18.291   8.553
 6672POPC   D2A23548  22.207  18.329   8.253
 6672POPC   C3A23549  22.162  18.292   7.953
 6672POPC   C4A23550  22.147  18.284   7.653
 6672POPC   C1B23551  22.436  18.374   8.553
 6672POPC   C2B23552  22.442  18.374   8.253
 6672POPC   C3B23553  22.383  18.375   7.953
 6672POPC   C4B23554  22.447  18.356   7.653
 6673POPC   NC323555  39.211  37.664   9.453
 6673POPC   PO423556  39.206  37.660   9.153
 6673POPC   GL123557  39.275  37.702   8.853
 6673POPC   GL223558  39.166  37.746   8.853
 6673POPC   C1A23559  39.244  37.700   8.553
 6673POPC   D2A23560  39.191  37.640   8.253
 6673POPC   C3A23561  39.218  37.665   7.953
 6673POPC   C4A23562  39.231  37.704   7.653
 6673POPC   C1B23563  39.100  37.911   8.553
 6673POPC   C2B23564  39.088  37.897   8.253
 6673POPC   C3B23565  39.043  37.846   7.953
 6673POPC   C4B23566  39.059  37.829   7.653
 6674POPC   NC323567  36.912  33.036   9.453
 6674POPC   PO423568  36.857  33.038   9.153
 6674POPC   GL123569  36.857  33.064   8.853
 6674POPC   GL223570  36.977  33.126   8.853
 6674POPC   C1A23571  36.936  33.010   8.553
 6674POPC   D2A23572  36.909  33.017   8.253
 6674POPC   C3A23573  36.936  32.986   7.953
 6674POPC   C4A23574  36.929  33.014   7.653
 6674POPC   C1B23575  37.029  33.233   8.553
 6674POPC   C2B23576  37.067  33.216   8.253
 6674POPC   C3B23577  37.082  33.183   7.953
 6674POPC   C4B23578  37.085  33.240   7.653
 6675POPC   NC323579  41.533  37.673   9.453
 6675POPC   PO423580  41.567  37.674   9.153
 6675POPC   GL123581  41.563  37.634   8.853
 6675POPC   GL223582  41.707  37.780   8.853
 6675POPC   C1A23583  41.583  37.726   8.553
 6675POPC   D2A23584  41.522  37.651   8.253
 6675POPC   C3A23585  41.607  37.669   7.953
 6675POPC   C4A23586  41.597  37.717   7.653
 6675POPC   C1B23587  41.800  37.853   8.553
 6675POPC   C2B23588  41.737  37.811   8.253
 6675POPC   C3B23589  41.739  37.788   7.953
 6675POPC   C4B23590  41.794  37.853   7.653
 6676POPC   NC323591   7.409   5.867   9.453
 6676POPC   PO423592   7.466   5.854   9.153
 6676POPC   GL123593   7.373   5.841   8.853
 6676POPC   GL223594   7.388   5.980   8.853
 6676POPC   C1A23595   7.432   5.847   8.553
 6676POPC   D2A23596   7.437   5.901   8.253
 6676POPC   C3A23597   7.435   5.836   7.953
 6676POPC   C4A23598   7.433   5.846   7.653
 6676POPC   C1B23599   7.366   6.118   8.553
 6676POPC   C2B23600   7.371   6.135   8.253
 6676POPC   C3B23601   7.414   6.068   7.953
 6676POPC   C4B23602   7.401   6.116   7.653
 6677POPC   NC323603  36.096  29.905   9.453
 6677POPC   PO423604  36.141  29.911   9.153
 6677POPC   GL123605  36.159  29.950   8.853
 6677POPC   GL223606  36.226  29.989   8.853
 6677POPC   C1A23607  36.140  29.930   8.553
 6677POPC   D2A23608  36.149  29.939   8.253
 6677POPC   C3A23609  36.163  29.917   7.953
 6677POPC   C4A23610  36.110  29.947   7.653
 6677POPC   C1B23611  36.329  29.976   8.553
 6677POPC   C2B23612  36.317  30.027   8.253
 6677POPC   C3B23613  36.405  30.050   7.953
 6677POPC   C4B23614  36.397  30.048   7.653
 6678POPC   NC323615   1.964  29.886   9.453
 6678POPC   PO423616   1.947  29.953   9.153
 6678POPC   GL123617   2.032  29.878   8.853
 6678POPC   GL223618   2.056  30.018   8.853
 6678POPC   C1A23619   1.941  29.911   8.553
 6678POPC   D2A23620   1.971  29.935   8.253
 6678POPC   C3A23621   1.987  29.918   7.953
 6678POPC   C4A23622   1.986  29.959   7.653
 6678POPC   C1B23623   2.151  30.070   8.553
 6678POPC   C2B23624   2.223  30.081   8.253
 6678POPC   C3B23625   2.165  30.113   7.953
 6678POPC   C4B23626   2.175  30.114   7.653
 6679POPC   NC323627  13.610  15.152   9.453
 6679POPC   PO423628  13.646  15.189   9.153
 6679POPC   GL123629  13.579  15.166   8.853
 6679POPC   GL223630  13.781  15.191   8.853
 6679POPC   C1A23631  13.597  15.223   8.553
 6679POPC   D2A23632  13.624  15.216   8.253
 6679POPC   C3A23633  13.662  15.167   7.953
 6679POPC   C4A23634  13.620  15.150   7.653
 6679POPC   C1B23635  13.830  15.264   8.553
 6679POPC   C2B23636  13.864  15.195   8.253
 6679POPC   C3B23637  13.876  15.173   7.953
 6679POPC   C4B23638  13.849  15.255   7.653
 6680POPC   NC323639  32.270  24.512   9.453
 6680POPC   PO423640  32.221  24.450   9.153
 6680POPC   GL123641  32.229  24.529   8.853
 6680POPC   GL223642  32.102  24.495   8.853
 6680POPC   C1A23643  32.201  24.536   8.553
 6680POPC   D2A23644  32.289  24.483   8.253
 6680POPC   C3A23645  32.206  24.530   7.953
 6680POPC   C4A23646  32.207  24.445   7.653
 6680POPC   C1B23647  32.021  24.408   8.553
 6680POPC   C2B23648  31.997  24.410   8.253
 6680POPC   C3B23649  32.017  24.417   7.953
 6680POPC   C4B23650  32.022  24.401   7.653
 6681POPC   NC323651   6.671  29.969   9.453
 6681POPC   PO423652   6.682  29.970   9.153
 6681POPC   GL123653   6.666  29.872   8.853
 6681POPC   GL223654   6.545  29.846   8.853
 6681POPC   C1A23655   6.625  29.950   8.553
 6681POPC   D2A23656   6.694  29.904   8.253
 6681POPC   C3A23657   6.638  29.901   7.953
 6681POPC   C4A23658   6.600  29.920   7.653
 6681POPC   C1B23659   6.435  29.734   8.553
 6681POPC   C2B23660   6.432  29.771   8.253
 6681POPC   C3B23661   6.435  29.714   7.953
 6681POPC   C4B23662   6.470  29.742   7.653
 6682POPC   NC323663  34.587   7.377   9.453
 6682POPC   PO423664  34.587   7.385   9.153
 6682POPC   GL123665  34.584   7.421   8.853
 6682POPC   GL223666  34.540   7.325   8.853
 6682POPC   C1A23667  34.539   7.390   8.553
 6682POPC   D2A23668  34.622   7.401   8.253
 6682POPC   C3A23669  34.550   7.445   7.953
 6682POPC   C4A23670  34.573   7.435   7.653
 6682POPC   C1B23671  34.561   7.215   8.553
 6682POPC   C2B23672  34.493   7.224   8.253
 6682POPC   C3B23673  34.558   7.220   7.953
 6682POPC   C4B23674  34.554   7.158   7.653
 6683POPC   NC323675  26.063  41.571   9.453
 6683POPC   PO423676  26.020  41.555   9.153
 6683POPC   GL123677  26.082  41.519   8.853
 6683POPC   GL223678  25.941  41.594   8.853
 6683POPC   C1A23679  26.069  41.598   8.553
 6683POPC   D2A23680  26.068  41.549   8.253
 6683POPC   C3A23681  26.057  41.562   7.953
 6683POPC   C4A23682  26.089  41.579   7.653
 6683POPC   C1B23683  25.752  41.583   8.553
 6683POPC   C2B23684  25.790  41.585   8.253
 6683POPC   C3B23685  25.796  41.619   7.953
 6683POPC   C4B23686  25.783  41.615   7.653
 6684POPC   NC323687  36.862  25.239   9.453
 6684POPC   PO423688  36.948  25.257   9.153
 6684POPC   GL123689  36.893  25.251   8.853
 6684POPC   GL223690  36.997  25.217   8.853
 6684POPC   C1A23691  36.932  25.227   8.553
 6684POPC   D2A23692  36.925  25.239   8.253
 6684POPC   C3A23693  36.887  25.251   7.953
 6684POPC   C4A23694  36.897  25.291   7.653
 6684POPC   C1B23695  37.179  25.184   8.553
 6684POPC   C2B23696  37.169  25.224   8.253
 6684POPC   C3B23697  37.132  25.200   7.953
 6684POPC   C4B23698  37.110  25.211   7.653
 6685POPC   NC323699  41.540   1.969   9.453
 6685POPC   PO423700  41.553   1.962   9.153
 6685POPC   GL123701  41.594   1.943   8.853
 6685POPC   GL223702  41.491   2.120   8.853
 6685POPC   C1A23703  41.525   1.948   8.553
 6685POPC   D2A23704  41.559   1.945   8.253
 6685POPC   C3A23705  41.513   1.969   7.953
 6685POPC   C4A23706  41.556   2.001   7.653
 6685POPC   C1B23707  41.353   2.153   8.553
 6685POPC   C2B23708  41.351   2.183   8.253
 6685POPC   C3B23709  41.419   2.161   7.953
 6685POPC   C4B23710  41.349   2.181   7.653
 6686POPC   NC323711  42.317  19.785   9.453
 6686POPC   PO423712  42.297  19.828   9.153
 6686POPC   GL123713  42.376  19.823   8.853
 6686POPC   GL223714  42.366  19.682   8.853
 6686POPC   C1A23715  42.358  19.818   8.553
 6686POPC   D2A23716  42.303  19.845   8.253
 6686POPC   C3A23717  42.368  19.802   7.953
 6686POPC   C4A23718  42.375  19.816   7.653
 6686POPC   C1B23719  42.341  19.558   8.553
 6686POPC   C2B23720  42.367  19.586   8.253
 6686POPC   C3B23721  42.349  19.542   7.953
 6686POPC   C4B23722  42.397  19.554   7.653
 6687POPC   NC323723   4.299  12.900   9.453
 6687POPC   PO423724   4.274  12.819   9.153
 6687POPC   GL123725   4.333  12.836   8.853
 6687POPC   GL223726   4.364  12.760   8.853
 6687POPC   C1A23727   4.292  12.875   8.553
 6687POPC   D2A23728   4.325  12.827   8.253
 6687POPC   C3A23729   4.278  12.828   7.953
 6687POPC   C4A23730   4.292  12.839   7.653
 6687POPC   C1B23731   4.349  12.585   8.553
 6687POPC   C2B23732   4.325  12.629   8.253
 6687POPC   C3B23733   4.360  12.605   7.953
 6687POPC   C4B23734   4.354  12.556   7.653
 6688POPC   NC323735  22.170  22.968   9.453
 6688POPC   PO423736  22.138  22.900   9.153
 6688POPC   GL123737  22.171  22.978   8.853
 6688POPC   GL223738  22.310  22.954   8.853
 6688POPC   C1A23739  22.135  22.954   8.553
 6688POPC   D2A23740  22.112  22.979   8.253
 6688POPC   C3A23741  22.198  22.938   7.953
 6688POPC   C4A23742  22.128  22.959   7.653
 6688POPC   C1B23743  22.438  22.964   8.553
 6688POPC   C2B23744  22.379  22.903   8.253
 6688POPC   C3B23745  22.414  22.896   7.953
 6688POPC   C4B23746  22.371  22.984   7.653
 6689POPC   NC323747  34.552   8.992   9.453
 6689POPC   PO423748  34.547   8.984   9.153
 6689POPC   GL123749  34.569   8.948   8.853
 6689POPC   GL223750  34.446   8.969   8.853
 6689POPC   C1A23751  34.599   9.007   8.553
 6689POPC   D2A23752  34.588   9.006   8.253
 6689POPC   C3A23753  34.559   9.002   7.953
 6689POPC   C4A23754  34.576   9.012   7.653
 6689POPC   C1B23755  34.313   8.860   8.553
 6689POPC   C2B23756  34.318   8.847   8.253
 6689POPC   C3B23757  34.329   8.922   7.953
 6689POPC   C4B23758  34.375   8.844   7.653
 6690POPC   NC323759  29.188  24.540   9.453
 6690POPC   PO423760  29.195  24.443   9.153
 6690POPC   GL123761  29.180  24.449   8.853
 6690POPC   GL223762  29.240  24.602   8.853
 6690POPC   C1A23763  29.115  24.532   8.553
 6690POPC   D2A23764  29.186  24.444   8.253
 6690POPC   C3A23765  29.147  24.516   7.953
 6690POPC   C4A23766  29.175  24.491   7.653
 6690POPC   C1B23767  29.316  24.632   8.553
 6690POPC   C2B23768  29.297  24.629   8.253
 6690POPC   C3B23769  29.334  24.690   7.953
 6690POPC   C4B23770  29.315  24.700   7.653
 6691POPC   NC323771  39.278  42.317   9.453
 6691POPC   PO423772  39.192  42.360   9.153
 6691POPC   GL123773  39.186  42.319   8.853
 6691POPC   GL223774  39.241  42.248   8.853
 6691POPC   C1A23775  39.239  42.312   8.553
 6691POPC   D2A23776  39.243  42.351   8.253
 6691POPC   C3A23777  39.229  42.334   7.953
 6691POPC   C4A23778  39.252  42.346   7.653
 6691POPC   C1B23779  39.319  42.080   8.553
 6691POPC   C2B23780  39.332  42.121   8.253
 6691POPC   C3B23781  39.310  42.108   7.953
 6691POPC   C4B23782  39.325  42.111   7.653
 6692POPC   NC323783  43.856  41.526   9.453
 6692POPC   PO423784  43.842  41.529   9.153
 6692POPC   GL123785  43.889  41.537   8.853
 6692POPC   GL223786  43.810  41.451   8.853
 6692POPC   C1A23787  43.904  41.557   8.553
 6692POPC   D2A23788  43.888  41.603   8.253
 6692POPC   C3A23789  43.915  41.550   7.953
 6692POPC   C4A23790  43.867  41.550   7.653
 6692POPC   C1B23791  43.687  41.466   8.553
 6692POPC   C2B23792  43.650  41.408   8.253
 6692POPC   C3B23793  43.717  41.446   7.953
 6692POPC   C4B23794  43.669  41.433   7.653
 6693POPC   NC323795  36.951  31.450   9.453
 6693POPC   PO423796  36.886  31.441   9.153
 6693POPC   GL123797  36.896  31.455   8.853
 6693POPC   GL223798  36.761  31.502   8.853
 6693POPC   C1A23799  36.918  31.507   8.553
 6693POPC   D2A23800  36.920  31.478   8.253
 6693POPC   C3A23801  36.859  31.439   7.953
 6693POPC   C4A23802  36.893  31.453   7.653
 6693POPC   C1B23803  36.654  31.408   8.553
 6693POPC   C2B23804  36.646  31.477   8.253
 6693POPC   C3B23805  36.647  31.450   7.953
 6693POPC   C4B23806  36.698  31.465   7.653
 6694POPC   NC323807  22.186  10.507   9.453
 6694POPC   PO423808  22.118  10.510   9.153
 6694POPC   GL123809  22.129  10.557   8.853
 6694POPC   GL223810  22.051  10.459   8.853
 6694POPC   C1A23811  22.210  10.499   8.553
 6694POPC   D2A23812  22.152  10.564   8.253
 6694POPC   C3A23813  22.112  10.546   7.953
 6694POPC   C4A23814  22.207  10.495   7.653
 6694POPC   C1B23815  22.008  10.311   8.553
 6694POPC   C2B23816  21.953  10.309   8.253
 6694POPC   C3B23817  21.982  10.335   7.953
 6694POPC   C4B23818  22.016  10.377   7.653
 6695POPC   NC323819   5.910  34.542   9.453
 6695POPC   PO423820   5.859  34.536   9.153
 6695POPC   GL123821   5.896  34.606   8.853
 6695POPC   GL223822   5.986  34.473   8.853
 6695POPC   C1A23823   5.820  34.601   8.553
 6695POPC   D2A23824   5.908  34.557   8.253
 6695POPC   C3A23825   5.898  34.607   7.953
 6695POPC   C4A23826   5.848  34.549   7.653
 6695POPC   C1B23827   6.040  34.504   8.553
 6695POPC   C2B23828   6.084  34.452   8.253
 6695POPC   C3B23829   6.083  34.453   7.953
 6695POPC   C4B23830   6.041  34.417   7.653
 6696POPC   NC323831  27.589  22.204   9.453
 6696POPC   PO423832  27.633  22.170   9.153
 6696POPC   GL123833  27.586  22.159   8.853
 6696POPC   GL223834  27.519  22.171   8.853
 6696POPC   C1A23835  27.608  22.163   8.553
 6696POPC   D2A23836  27.570  22.119   8.253
 6696POPC   C3A23837  27.615  22.195   7.953
 6696POPC   C4A23838  27.580  22.151   7.653
 6696POPC   C1B23839  27.388  22.164   8.553
 6696POPC   C2B23840  27.344  22.151   8.253
 6696POPC   C3B23841  27.356  22.101   7.953
 6696POPC   C4B23842  27.372  22.072   7.653
 6697POPC   NC323843   4.309  40.803   9.453
 6697POPC   PO423844   4.298  40.743   9.153
 6697POPC   GL123845   4.335  40.766   8.853
 6697POPC   GL223846   4.385  40.685   8.853
 6697POPC   C1A23847   4.327  40.815   8.553
 6697POPC   D2A23848   4.363  40.739   8.253
 6697POPC   C3A23849   4.352  40.771   7.953
 6697POPC   C4A23850   4.327  40.819   7.653
 6697POPC   C1B23851   4.345  40.544   8.553
 6697POPC   C2B23852   4.360  40.591   8.253
 6697POPC   C3B23853   4.407  40.583   7.953
 6697POPC   C4B23854   4.380  40.539   7.653
 6698POPC   NC323855  22.174  36.138   9.453
 6698POPC   PO423856  22.181  36.080   9.153
 6698POPC   GL123857  22.122  36.079   8.853
 6698POPC   GL223858  22.023  36.039   8.853
 6698POPC   C1A23859  22.134  36.116   8.553
 6698POPC   D2A23860  22.175  36.148   8.253
 6698POPC   C3A23861  22.114  36.150   7.953
 6698POPC   C4A23862  22.140  36.171   7.653
 6698POPC   C1B23863  21.935  36.003   8.553
 6698POPC   C2B23864  21.900  35.981   8.253
 6698POPC   C3B23865  21.946  36.048   7.953
 6698POPC   C4B23866  21.902  35.967   7.653
 6699POPC   NC323867  21.345  35.324   9.453
 6699POPC   PO423868  21.394  35.389   9.153
 6699POPC   GL123869  21.363  35.395   8.853
 6699POPC   GL223870  21.299  35.259   8.853
 6699POPC   C1A23871  21.351  35.387   8.553
 6699POPC   D2A23872  21.386  35.369   8.253
 6699POPC   C3A23873  21.393  35.374   7.953
 6699POPC   C4A23874  21.432  35.328   7.653
 6699POPC   C1B23875  21.145  35.243   8.553
 6699POPC   C2B23876  21.187  35.253   8.253
 6699POPC   C3B23877  21.186  35.182   7.953
 6699POPC   C4B23878  21.184  35.253   7.653
 6700POPC   NC323879   8.992  27.593   9.453
 6700POPC   PO423880   8.944  27.579   9.153
 6700POPC   GL123881   8.944  27.615   8.853
 6700POPC   GL223882   9.033  27.528   8.853
 6700POPC   C1A23883   8.990  27.621   8.553
 6700POPC   D2A23884   8.944  27.610   8.253
 6700POPC   C3A23885   8.974  27.640   7.953
 6700POPC   C4A23886   9.021  27.631   7.653
 6700POPC   C1B23887   9.107  27.392   8.553
 6700POPC   C2B23888   9.078  27.352   8.253
 6700POPC   C3B23889   9.065  27.379   7.953
 6700POPC   C4B23890   9.045  27.411   7.653
 6701POPC   NC323891  14.391  26.859   9.453
 6701POPC   PO423892  14.433  26.768   9.153
 6701POPC   GL123893  14.394  26.809   8.853
 6701POPC   GL223894  14.371  26.737   8.853
 6701POPC   C1A23895  14.428  26.814   8.553
 6701POPC   D2A23896  14.396  26.851   8.253
 6701POPC   C3A23897  14.441  26.826   7.953
 6701POPC   C4A23898  14.433  26.800   7.653
 6701POPC   C1B23899  14.278  26.616   8.553
 6701POPC   C2B23900  14.277  26.592   8.253
 6701POPC   C3B23901  14.321  26.633   7.953
 6701POPC   C4B23902  14.329  26.582   7.653
 6702POPC   NC323903  16.682  12.896   9.453
 6702POPC   PO423904  16.735  12.804   9.153
 6702POPC   GL123905  16.721  12.880   8.853
 6702POPC   GL223906  16.729  12.744   8.853
 6702POPC   C1A23907  16.779  12.812   8.553
 6702POPC   D2A23908  16.752  12.819   8.253
 6702POPC   C3A23909  16.778  12.889   7.953
 6702POPC   C4A23910  16.710  12.841   7.653
 6702POPC   C1B23911  16.715  12.632   8.553
 6702POPC   C2B23912  16.743  12.561   8.253
 6702POPC   C3B23913  16.690  12.628   7.953
 6702POPC   C4B23914  16.659  12.627   7.653
 6703POPC   NC323915  16.724  17.544   9.453
 6703POPC   PO423916  16.758  17.537   9.153
 6703POPC   GL123917  16.767  17.527   8.853
 6703POPC   GL223918  16.829  17.526   8.853
 6703POPC   C1A23919  16.743  17.510   8.553
 6703POPC   D2A23920  16.726  17.504   8.253
 6703POPC   C3A23921  16.731  17.491   7.953
 6703POPC   C4A23922  16.738  17.513   7.653
 6703POPC   C1B23923  16.935  17.475   8.553
 6703POPC   C2B23924  16.984  17.442   8.253
 6703POPC   C3B23925  16.971  17.503   7.953
 6703POPC   C4B23926  16.993  17.435   7.653
 6704POPC   NC323927  26.787  18.286   9.453
 6704POPC   PO423928  26.855  18.239   9.153
 6704POPC   GL123929  26.780  18.274   8.853
 6704POPC   GL223930  26.745  18.345   8.853
 6704POPC   C1A23931  26.789  18.306   8.553
 6704POPC   D2A23932  26.778  18.243   8.253
 6704POPC   C3A23933  26.817  18.303   7.953
 6704POPC   C4A23934  26.808  18.291   7.653
 6704POPC   C1B23935  26.629  18.454   8.553
 6704POPC   C2B23936  26.662  18.449   8.253
 6704POPC   C3B23937  26.614  18.509   7.953
 6704POPC   C4B23938  26.671  18.509   7.653
 6705POPC   NC323939  15.194  29.098   9.453
 6705POPC   PO423940  15.139  29.152   9.153
 6705POPC   GL123941  15.135  29.191   8.853
 6705POPC   GL223942  15.093  29.041   8.853
 6705POPC   C1A23943  15.193  29.160   8.553
 6705POPC   D2A23944  15.222  29.134   8.253
 6705POPC   C3A23945  15.149  29.158   7.953
 6705POPC   C4A23946  15.205  29.106   7.653
 6705POPC   C1B23947  15.052  28.951   8.553
 6705POPC   C2B23948  15.065  28.930   8.253
 6705POPC   C3B23949  15.051  28.985   7.953
 6705POPC   C4B23950  14.985  28.997   7.653
 6706POPC   NC323951  20.616  22.896   9.453
 6706POPC   PO423952  20.622  22.957   9.153
 6706POPC   GL123953  20.620  22.924   8.853
 6706POPC   GL223954  20.502  22.849   8.853
 6706POPC   C1A23955  20.657  22.906   8.553
 6706POPC   D2A23956  20.632  22.932   8.253
 6706POPC   C3A23957  20.658  22.923   7.953
 6706POPC   C4A23958  20.565  22.901   7.653
 6706POPC   C1B23959  20.355  22.801   8.553
 6706POPC   C2B23960  20.356  22.778   8.253
 6706POPC   C3B23961  20.450  22.795   7.953
 6706POPC   C4B23962  20.365  22.836   7.653
 6707POPC   NC323963   5.909  15.940   9.453
 6707POPC   PO423964   5.825  15.916   9.153
 6707POPC   GL123965   5.838  15.932   8.853
 6707POPC   GL223966   5.937  15.884   8.853
 6707POPC   C1A23967   5.896  15.956   8.553
 6707POPC   D2A23968   5.829  15.948   8.253
 6707POPC   C3A23969   5.819  15.906   7.953
 6707POPC   C4A23970   5.888  15.936   7.653
 6707POPC   C1B23971   6.002  15.771   8.553
 6707POPC   C2B23972   6.064  15.746   8.253
 6707POPC   C3B23973   6.068  15.778   7.953
 6707POPC   C4B23974   6.076  15.793   7.653
 6708POPC   NC323975   8.954  21.373   9.453
 6708POPC   PO423976   8.957  21.419   9.153
 6708POPC   GL123977   8.994  21.343   8.853
 6708POPC   GL223978   8.924  21.304   8.853
 6708POPC   C1A23979   8.934  21.393   8.553
 6708POPC   D2A23980   8.976  21.403   8.253
 6708POPC   C3A23981   8.932  21.426   7.953
 6708POPC   C4A23982   8.925  21.342   7.653
 6708POPC   C1B23983   8.860  21.149   8.553
 6708POPC   C2B23984   8.864  21.238   8.253
 6708POPC   C3B23985   8.849  21.199   7.953
 6708POPC   C4B23986   8.809  21.222   7.653
 6709POPC   NC323987  34.607  24.512   9.453
 6709POPC   PO423988  34.564  24.440   9.153
 6709POPC   GL123989  34.592  24.457   8.853
 6709POPC   GL223990  34.584  24.387   8.853
 6709POPC   C1A23991  34.587  24.513   8.553
 6709POPC   D2A23992  34.609  24.531   8.253
 6709POPC   C3A23993  34.584  24.483   7.953
 6709POPC   C4A23994  34.577  24.462   7.653
 6709POPC   C1B23995  34.703  24.250   8.553
 6709POPC   C2B23996  34.691  24.270   8.253
 6709POPC   C3B23997  34.714  24.281   7.953
 6709POPC   C4B23998  34.665  24.227   7.653
 6710POPC   NC323999   1.259  25.263   9.453
 6710POPC   PO424000   1.178  25.289   9.153
 6710POPC   GL124001   1.211  25.288   8.853
 6710POPC   GL224002   1.092  25.291   8.853
 6710POPC   C1A24003   1.250  25.296   8.553
 6710POPC   D2A24004   1.255  25.227   8.253
 6710POPC   C3A24005   1.243  25.220   7.953
 6710POPC   C4A24006   1.245  25.244   7.653
 6710POPC   C1B24007   1.005  25.195   8.553
 6710POPC   C2B24008   0.938  25.238   8.253
 6710POPC   C3B24009   0.974  25.198   7.953
 6710POPC   C4B24010   0.950  25.239   7.653
 6711POPC   NC324011   6.618   1.956   9.453
 6711POPC   PO424012   6.687   1.995   9.153
 6711POPC   GL124013   6.605   1.951   8.853
 6711POPC   GL224014   6.659   1.892   8.853
 6711POPC   C1A24015   6.607   1.984   8.553
 6711POPC   D2A24016   6.688   1.962   8.253
 6711POPC   C3A24017   6.672   1.973   7.953
 6711POPC   C4A24018   6.597   1.949   7.653
 6711POPC   C1B24019   6.626   1.700   8.553
 6711POPC   C2B24020   6.700   1.774   8.253
 6711POPC   C3B24021   6.685   1.703   7.953
 6711POPC   C4B24022   6.606   1.737   7.653
 6712POPC   NC324023  14.386  17.552   9.453
 6712POPC   PO424024  14.442  17.492   9.153
 6712POPC   GL124025  14.449  17.462   8.853
 6712POPC   GL224026  14.445  17.404   8.853
 6712POPC   C1A24027  14.437  17.499   8.553
 6712POPC   D2A24028  14.442  17.520   8.253
 6712POPC   C3A24029  14.383  17.503   7.953
 6712POPC   C4A24030  14.446  17.471   7.653
 6712POPC   C1B24031  14.511  17.307   8.553
 6712POPC   C2B24032  14.564  17.320   8.253
 6712POPC   C3B24033  14.580  17.290   7.953
 6712POPC   C4B24034  14.561  17.297   7.653
 6713POPC   NC324035  42.321   4.284   9.453
 6713POPC   PO424036  42.317   4.305   9.153
 6713POPC   GL124037  42.340   4.309   8.853
 6713POPC   GL224038  42.431   4.373   8.853
 6713POPC   C1A24039  42.373   4.295   8.553
 6713POPC   D2A24040  42.284   4.296   8.253
 6713POPC   C3A24041  42.382   4.293   7.953
 6713POPC   C4A24042  42.325   4.353   7.653
 6713POPC   C1B24043  42.567   4.423   8.553
 6713POPC   C2B24044  42.564   4.451   8.253
 6713POPC   C3B24045  42.557   4.421   7.953
 6713POPC   C4B24046  42.571   4.425   7.653
 6714POPC   NC324047  40.802  32.975   9.453
 6714POPC   PO424048  40.754  33.074   9.153
 6714POPC   GL124049  40.816  33.049   8.853
 6714POPC   GL224050  40.639  32.993   8.853
 6714POPC   C1A24051  40.813  33.008   8.553
 6714POPC   D2A24052  40.749  33.066   8.253
 6714POPC   C3A24053  40.772  33.063   7.953
 6714POPC   C4A24054  40.821  32.980   7.653
 6714POPC   C1B24055  40.528  32.999   8.553
 6714POPC   C2B24056  40.562  32.970   8.253
 6714POPC   C3B24057  40.565  32.964   7.953
 6714POPC   C4B24058  40.566  32.928   7.653
 6715POPC   NC324059  42.369  30.726   9.453
 6715POPC   PO424060  42.375  30.686   9.153
 6715POPC   GL124061  42.306  30.707   8.853
 6715POPC   GL224062  42.415  30.582   8.853
 6715POPC   C1A24063  42.318  30.687   8.553
 6715POPC   D2A24064  42.380  30.719   8.253
 6715POPC   C3A24065  42.342  30.728   7.953
 6715POPC   C4A24066  42.346  30.675   7.653
 6715POPC   C1B24067  42.509  30.490   8.553
 6715POPC   C2B24068  42.514  30.560   8.253
 6715POPC   C3B24069  42.501  30.495   7.953
 6715POPC   C4B24070  42.540  30.554   7.653
 6716POPC   NC324071  26.794  37.717   9.453
 6716POPC   PO424072  26.819  37.719   9.153
 6716POPC   GL124073  26.830  37.709   8.853
 6716POPC   GL224074  26.712  37.615   8.853
 6716POPC   C1A24075  26.817  37.689   8.553
 6716POPC   D2A24076  26.832  37.683   8.253
 6716POPC   C3A24077  26.812  37.635   7.953
 6716POPC   C4A24078  26.780  37.671   7.653
 6716POPC   C1B24079  26.695  37.461   8.553
 6716POPC   C2B24080  26.598  37.518   8.253
 6716POPC   C3B24081  26.680  37.520   7.953
 6716POPC   C4B24082  26.695  37.469   7.653
 6717POPC   NC324083  33.846  12.096   9.453
 6717POPC   PO424084  33.827  12.050   9.153
 6717POPC   GL124085  33.799  12.055   8.853
 6717POPC   GL224086  33.942  12.047   8.853
 6717POPC   C1A24087  33.821  12.046   8.553
 6717POPC   D2A24088  33.786  12.061   8.253
 6717POPC   C3A24089  33.777  12.071   7.953
 6717POPC   C4A24090  33.847  12.052   7.653
 6717POPC   C1B24091  34.040  11.995   8.553
 6717POPC   C2B24092  34.030  12.009   8.253
 6717POPC   C3B24093  34.005  12.028   7.953
 6717POPC   C4B24094  34.012  11.962   7.653
 6718POPC   NC324095  43.061  32.217   9.453
 6718POPC   PO424096  43.120  32.281   9.153
 6718POPC   GL124097  43.128  32.252   8.853
 6718POPC   GL224098  42.981  32.235   8.853
 6718POPC   C1A24099  43.128  32.284   8.553
 6718POPC   D2A24100  43.088  32.198   8.253
 6718POPC   C3A24101  43.071  32.208   7.953
 6718POPC   C4A24102  43.121  32.214   7.653
 6718POPC   C1B24103  42.911  32.305   8.553
 6718POPC   C2B24104  42.845  32.363   8.253
 6718POPC   C3B24105  42.857  32.339   7.953
 6718POPC   C4B24106  42.840  32.329   7.653
 6719POPC   NC324107  26.803  11.275   9.453
 6719POPC   PO424108  26.858  11.281   9.153
 6719POPC   GL124109  26.840  11.334   8.853
 6719POPC   GL224110  26.911  11.432   8.853
 6719POPC   C1A24111  26.769  11.300   8.553
 6719POPC   D2A24112  26.837  11.313   8.253
 6719POPC   C3A24113  26.803  11.341   7.953
 6719POPC   C4A24114  26.791  11.296   7.653
 6719POPC   C1B24115  27.000  11.517   8.553
 6719POPC   C2B24116  26.975  11.556   8.253
 6719POPC   C3B24117  26.975  11.518   7.953
 6719POPC   C4B24118  26.970  11.469   7.653
 6720POPC   NC324119  19.793  43.111   9.453
 6720POPC   PO424120  19.810  43.099   9.153
 6720POPC   GL124121  19.804  43.100   8.853
 6720POPC   GL224122  19.960  43.124   8.853
 6720POPC   C1A24123  19.881  43.135   8.553
 6720POPC   D2A24124  19.841  43.126   8.253
 6720POPC   C3A24125  19.793  43.148   7.953
 6720POPC   C4A24126  19.884  43.089   7.653
 6720POPC   C1B24127  20.120  43.144   8.553
 6720POPC   C2B24128  20.076  43.122   8.253
 6720POPC   C3B24129  20.110  43.106   7.953
 6720POPC   C4B24130  20.117  43.074   7.653
 6721POPC   NC324131  14.426  24.487   9.453
 6721POPC   PO424132  14.354  24.531   9.153
 6721POPC   GL124133  14.433  24.463   8.853
 6721POPC   GL224134  14.322  24.505   8.853
 6721POPC   C1A24135  14.441  24.524   8.553
 6721POPC   D2A24136  14.374  24.506   8.253
 6721POPC   C3A24137  14.386  24.538   7.953
 6721POPC   C4A24138  14.387  24.460   7.653
 6721POPC   C1B24139  14.122  24.491   8.553
 6721POPC   C2B24140  14.138  24.462   8.253
 6721POPC   C3B24141  14.192  24.504   7.953
 6721POPC   C4B24142  14.111  24.484   7.653
 6722POPC   NC324143   9.718  42.343   9.453
 6722POPC   PO424144   9.775  42.319   9.153
 6722POPC   GL124145   9.745  42.384   8.853
 6722POPC   GL224146   9.635  42.263   8.853
 6722POPC   C1A24147   9.754  42.344   8.553
 6722POPC   D2A24148   9.791  42.314   8.253
 6722POPC   C3A24149   9.721  42.362   7.953
 6722POPC   C4A24150   9.733  42.312   7.653
 6722POPC   C1B24151   9.537  42.108   8.553
 6722POPC   C2B24152   9.603  42.136   8.253
 6722POPC   C3B24153   9.591  42.157   7.953
 6722POPC   C4B24154   9.563  42.191   7.653
 6723POPC   NC324155  19.815   0.460   9.453
 6723POPC   PO424156  19.841   0.402   9.153
 6723POPC   GL124157  19.835   0.396   8.853
 6723POPC   GL224158  19.816   0.329   8.853
 6723POPC   C1A24159  19.860   0.391   8.553
 6723POPC   D2A24160  19.879   0.395   8.253
 6723POPC   C3A24161  19.864   0.461   7.953
 6723POPC   C4A24162  19.800   0.469   7.653
 6723POPC   C1B24163  19.792   0.186   8.553
 6723POPC   C2B24164  19.802   0.139   8.253
 6723POPC   C3B24165  19.875   0.195   7.953
 6723POPC   C4B24166  19.841   0.182   7.653
 6724POPC   NC324167   7.433  13.673   9.453
 6724POPC   PO424168   7.452  13.665   9.153
 6724POPC   GL124169   7.383  13.663   8.853
 6724POPC   GL224170   7.496  13.672   8.853
 6724POPC   C1A24171   7.429  13.646   8.553
 6724POPC   D2A24172   7.440  13.652   8.253
 6724POPC   C3A24173   7.377  13.657   7.953
 6724POPC   C4A24174   7.440  13.651   7.653
 6724POPC   C1B24175   7.707  13.651   8.553
 6724POPC   C2B24176   7.667  13.634   8.253
 6724POPC   C3B24177   7.647  13.671   7.953
 6724POPC   C4B24178   7.624  13.633   7.653
 6725POPC   NC324179  26.791  44.647   9.453
 6725POPC   PO424180  26.784  44.710   9.153
 6725POPC   GL124181  26.824  44.695   8.853
 6725POPC   GL224182  26.879  44.543   8.853
 6725POPC   C1A24183  26.774  44.700   8.553
 6725POPC   D2A24184  26.858  44.671   8.253
 6725POPC   C3A24185  26.843  44.685   7.953
 6725POPC   C4A24186  26.791  44.699   7.653
 6725POPC   C1B24187  26.928  44.458   8.553
 6725POPC   C2B24188  26.994  44.466   8.253
 6725POPC   C3B24189  26.979  44.479   7.953
 6725POPC   C4B24190  26.986  44.455   7.653
 6726POPC   NC324191  38.420  28.362   9.453
 6726POPC   PO424192  38.419  28.387   9.153
 6726POPC   GL124193  38.492  28.364   8.853
 6726POPC   GL224194  38.307  28.309   8.853
 6726POPC   C1A24195  38.410  28.365   8.553
 6726POPC   D2A24196  38.445  28.342   8.253
 6726POPC   C3A24197  38.498  28.320   7.953
 6726POPC   C4A24198  38.451  28.364   7.653
 6726POPC   C1B24199  38.278  28.255   8.553
 6726POPC   C2B24200  38.242  28.285   8.253
 6726POPC   C3B24201  38.218  28.259   7.953
 6726POPC   C4B24202  38.187  28.272   7.653
 6727POPC   NC324203  11.289  26.815   9.453
 6727POPC   PO424204  11.307  26.794   9.153
 6727POPC   GL124205  11.300  26.804   8.853
 6727POPC   GL224206  11.165  26.791   8.853
 6727POPC   C1A24207  11.282  26.860   8.553
 6727POPC   D2A24208  11.322  26.830   8.253
 6727POPC   C3A24209  11.276  26.854   7.953
 6727POPC   C4A24210  11.253  26.839   7.653
 6727POPC   C1B24211  11.056  26.800   8.553
 6727POPC   C2B24212  11.023  26.780   8.253
 6727POPC   C3B24213  11.066  26.749   7.953
 6727POPC   C4B24214  11.090  26.788   7.653
 6728POPC   NC324215   6.616  18.325   9.453
 6728POPC   PO424216   6.627  18.279   9.153
 6728POPC   GL124217   6.601  18.327   8.853
 6728POPC   GL224218   6.773  18.245   8.853
 6728POPC   C1A24219   6.621  18.264   8.553
 6728POPC   D2A24220   6.612  18.275   8.253
 6728POPC   C3A24221   6.635  18.332   7.953
 6728POPC   C4A24222   6.675  18.289   7.653
 6728POPC   C1B24223   6.887  18.332   8.553
 6728POPC   C2B24224   6.941  18.311   8.253
 6728POPC   C3B24225   6.925  18.338   7.953
 6728POPC   C4B24226   6.937  18.286   7.653
 6729POPC   NC324227   4.361  15.993   9.453
 6729POPC   PO424228   4.276  15.985   9.153
 6729POPC   GL124229   4.294  15.965   8.853
 6729POPC   GL224230   4.231  15.998   8.853
 6729POPC   C1A24231   4.303  15.998   8.553
 6729POPC   D2A24232   4.360  15.968   8.253
 6729POPC   C3A24233   4.326  15.956   7.953
 6729POPC   C4A24234   4.306  15.944   7.653
 6729POPC   C1B24235   4.138  16.079   8.553
 6729POPC   C2B24236   4.078  16.077   8.253
 6729POPC   C3B24237   4.094  16.089   7.953
 6729POPC   C4B24238   4.062  16.040   7.653
 6730POPC   NC324239   8.172  44.621   9.453
 6730POPC   PO424240   8.231  44.705   9.153
 6730POPC   GL124241   8.232  44.688   8.853
 6730POPC   GL224242   8.314  44.627   8.853
 6730POPC   C1A24243   8.173  44.679   8.553
 6730POPC   D2A24244   8.182  44.695   8.253
 6730POPC   C3A24245   8.238  44.696   7.953
 6730POPC   C4A24246   8.243  44.660   7.653
 6730POPC   C1B24247   8.394  44.475   8.553
 6730POPC   C2B24248   8.393  44.476   8.253
 6730POPC   C3B24249   8.383  44.524   7.953
 6730POPC   C4B24250   8.437  44.525   7.653
 6731POPC   NC324251  36.909  43.857   9.453
 6731POPC   PO424252  36.948  43.921   9.153
 6731POPC   GL124253  36.921  43.852   8.853
 6731POPC   GL224254  36.950  43.804   8.853
 6731POPC   C1A24255  36.887  43.907   8.553
 6731POPC   D2A24256  36.911  43.839   8.253
 6731POPC   C3A24257  36.916  43.933   7.953
 6731POPC   C4A24258  36.879  43.862   7.653
 6731POPC   C1B24259  36.962  43.691   8.553
 6731POPC   C2B24260  36.946  43.678   8.253
 6731POPC   C3B24261  36.902  43.640   7.953
 6731POPC   C4B24262  36.933  43.670   7.653
 6732POPC   NC324263  43.114  37.678   9.453
 6732POPC   PO424264  43.079  37.653   9.153
 6732POPC   GL124265  43.116  37.690   8.853
 6732POPC   GL224266  43.246  37.694   8.853
 6732POPC   C1A24267  43.107  37.692   8.553
 6732POPC   D2A24268  43.087  37.724   8.253
 6732POPC   C3A24269  43.081  37.721   7.953
 6732POPC   C4A24270  43.087  37.709   7.653
 6732POPC   C1B24271  43.319  37.762   8.553
 6732POPC   C2B24272  43.344  37.783   8.253
 6732POPC   C3B24273  43.341  37.818   7.953
 6732POPC   C4B24274  43.301  37.823   7.653
 6733POPC   NC324275   8.235   2.728   9.453
 6733POPC   PO424276   8.155   2.773   9.153
 6733POPC   GL124277   8.240   2.769   8.853
 6733POPC   GL224278   8.110   2.814   8.853
 6733POPC   C1A24279   8.189   2.763   8.553
 6733POPC   D2A24280   8.197   2.760   8.253
 6733POPC   C3A24281   8.181   2.772   7.953
 6733POPC   C4A24282   8.240   2.782   7.653
 6733POPC   C1B24283   8.073   2.960   8.553
 6733POPC   C2B24284   7.997   2.979   8.253
 6733POPC   C3B24285   8.031   2.913   7.953
 6733POPC   C4B24286   8.009   2.994   7.653
 6734POPC   NC324287  26.807  31.515   9.453
 6734POPC   PO424288  26.823  31.513   9.153
 6734POPC   GL124289  26.852  31.498   8.853
 6734POPC   GL224290  26.952  31.496   8.853
 6734POPC   C1A24291  26.839  31.466   8.553
 6734POPC   D2A24292  26.828  31.465   8.253
 6734POPC   C3A24293  26.788  31.499   7.953
 6734POPC   C4A24294  26.799  31.497   7.653
 6734POPC   C1B24295  27.046  31.579   8.553
 6734POPC   C2B24296  27.080  31.542   8.253
 6734POPC   C3B24297  27.062  31.599   7.953
 6734POPC   C4B24298  27.074  31.631   7.653
 6735POPC   NC324299  21.431  43.884   9.453
 6735POPC   PO424300  21.352  43.856   9.153
 6735POPC   GL124301  21.421  43.892   8.853
 6735POPC   GL224302  21.315  43.864   8.853
 6735POPC   C1A24303  21.358  43.936   8.553
 6735POPC   D2A24304  21.377  43.928   8.253
 6735POPC   C3A24305  21.410  43.924   7.953
 6735POPC   C4A24306  21.348  43.858   7.653
 6735POPC   C1B24307  21.182  43.733   8.553
 6735POPC   C2B24308  21.212  43.765   8.253
 6735POPC   C3B24309  21.185  43.789   7.953
 6735POPC   C4B24310  21.223  43.756   7.653
 6736POPC   NC324311   9.752  39.280   9.453
 6736POPC   PO424312   9.723  39.191   9.153
 6736POPC   GL124313   9.791  39.246   8.853
 6736POPC   GL224314   9.619  39.182   8.853
 6736POPC   C1A24315   9.771  39.223   8.553
 6736POPC   D2A24316   9.719  39.238   8.253
 6736POPC   C3A24317   9.778  39.251   7.953
 6736POPC   C4A24318   9.768  39.245   7.653
 6736POPC   C1B24319   9.541  39.137   8.553
 6736POPC   C2B24320   9.471  39.182   8.253
 6736POPC   C3B24321   9.474  39.192   7.953
 6736POPC   C4B24322   9.529  39.131   7.653
 6737POPC   NC324323  22.169   1.183   9.453
 6737POPC   PO424324  22.129   1.181   9.153
 6737POPC   GL124325  22.202   1.169   8.853
 6737POPC   GL224326  21.999   1.207   8.853
 6737POPC   C1A24327  22.202   1.214   8.553
 6737POPC   D2A24328  22.178   1.214   8.253
 6737POPC   C3A24329  22.202   1.218   7.953
 6737POPC   C4A24330  22.211   1.214   7.653
 6737POPC   C1B24331  21.874   1.229   8.553
 6737POPC   C2B24332  21.915   1.285   8.253
 6737POPC   C3B24333  21.904   1.230   7.953
 6737POPC   C4B24334  21.944   1.260   7.653
 6738POPC   NC324335  38.474  10.574   9.453
 6738POPC   PO424336  38.440  10.520   9.153
 6738POPC   GL124337  38.424  10.480   8.853
 6738POPC   GL224338  38.324  10.479   8.853
 6738POPC   C1A24339  38.445  10.559   8.553
 6738POPC   D2A24340  38.484  10.519   8.253
 6738POPC   C3A24341  38.493  10.524   7.953
 6738POPC   C4A24342  38.434  10.540   7.653
 6738POPC   C1B24343  38.197  10.366   8.553
 6738POPC   C2B24344  38.222  10.410   8.253
 6738POPC   C3B24345  38.189  10.386   7.953
 6738POPC   C4B24346  38.195  10.362   7.653
 6739POPC   NC324347  10.505  22.172   9.453
 6739POPC   PO424348  10.531  22.186   9.153
 6739POPC   GL124349  10.544  22.199   8.853
 6739POPC   GL224350  10.674  22.233   8.853
 6739POPC   C1A24351  10.530  22.132   8.553
 6739POPC   D2A24352  10.561  22.146   8.253
 6739POPC   C3A24353  10.555  22.201   7.953
 6739POPC   C4A24354  10.527  22.136   7.653
 6739POPC   C1B24355  10.713  22.226   8.553
 6739POPC   C2B24356  10.802  22.242   8.253
 6739POPC   C3B24357  10.783  22.283   7.953
 6739POPC   C4B24358  10.717  22.250   7.653
 6740POPC   NC324359  27.617  15.227   9.453
 6740POPC   PO424360  27.555  15.184   9.153
 6740POPC   GL124361  27.634  15.227   8.853
 6740POPC   GL224362  27.605  15.256   8.853
 6740POPC   C1A24363  27.631  15.160   8.553
 6740POPC   D2A24364  27.563  15.139   8.253
 6740POPC   C3A24365  27.602  15.198   7.953
 6740POPC   C4A24366  27.638  15.168   7.653
 6740POPC   C1B24367  27.596  15.414   8.553
 6740POPC   C2B24368  27.620  15.453   8.253
 6740POPC   C3B24369  27.640  15.427   7.953
 6740POPC   C4B24370  27.644  15.381   7.653
 6741POPC   NC324371  28.394  17.509   9.453
 6741POPC   PO424372  28.384  17.463   9.153
 6741POPC   GL124373  28.364  17.505   8.853
 6741POPC   GL224374  28.359  17.374   8.853
 6741POPC   C1A24375  28.319  17.472   8.553
 6741POPC   D2A24376  28.326  17.509   8.253
 6741POPC   C3A24377  28.354  17.473   7.953
 6741POPC   C4A24378  28.369  17.487   7.653
 6741POPC   C1B24379  28.300  17.284   8.553
 6741POPC   C2B24380  28.347  17.254   8.253
 6741POPC   C3B24381  28.317  17.272   7.953
 6741POPC   C4B24382  28.311  17.312   7.653
 6742POPC   NC324383  22.968  36.925   9.453
 6742POPC   PO424384  22.899  36.949   9.153
 6742POPC   GL124385  22.945  36.892   8.853
 6742POPC   GL224386  22.981  37.034   8.853
 6742POPC   C1A24387  22.926  36.919   8.553
 6742POPC   D2A24388  22.937  36.935   8.253
 6742POPC   C3A24389  22.901  36.940   7.953
 6742POPC   C4A24390  22.987  36.883   7.653
 6742POPC   C1B24391  23.109  37.127   8.553
 6742POPC   C2B24392  23.083  37.066   8.253
 6742POPC   C3B24393  23.101  37.077   7.953
 6742POPC   C4B24394  23.103  37.121   7.653
 6743POPC   NC324395   5.840   9.783   9.453
 6743POPC   PO424396   5.888   9.731   9.153
 6743POPC   GL124397   5.844   9.707   8.853
 6743POPC   GL224398   6.038   9.750   8.853
 6743POPC   C1A24399   5.848   9.775   8.553
 6743POPC   D2A24400   5.848   9.727   8.253
 6743POPC   C3A24401   5.839   9.743   7.953
 6743POPC   C4A24402   5.888   9.776   7.653
 6743POPC   C1B24403   6.079   9.766   8.553
 6743POPC   C2B24404   6.154   9.708   8.253
 6743POPC   C3B24405   6.141   9.727   7.953
 6743POPC   C4B24406   6.147   9.689   7.653
 6744POPC   NC324407   5.893  16.774   9.453
 6744POPC   PO424408   5.834  16.738   9.153
 6744POPC   GL124409   5.896  16.720   8.853
 6744POPC   GL224410   5.837  16.849   8.853
 6744POPC   C1A24411   5.864  16.757   8.553
 6744POPC   D2A24412   5.875  16.688   8.253
 6744POPC   C3A24413   5.826  16.765   7.953
 6744POPC   C4A24414   5.907  16.698   7.653
 6744POPC   C1B24415   5.819  17.012   8.553
 6744POPC   C2B24416   5.798  16.945   8.253
 6744POPC   C3B24417   5.835  16.958   7.953
 6744POPC   C4B24418   5.773  16.966   7.653
 6745POPC   NC324419  19.058  41.546   9.453
 6745POPC   PO424420  19.010  41.563   9.153
 6745POPC   GL124421  19.105  41.561   8.853
 6745POPC   GL224422  19.003  41.677   8.853
 6745POPC   C1A24423  19.040  41.577   8.553
 6745POPC   D2A24424  19.088  41.543   8.253
 6745POPC   C3A24425  19.064  41.551   7.953
 6745POPC   C4A24426  19.048  41.527   7.653
 6745POPC   C1B24427  18.866  41.724   8.553
 6745POPC   C2B24428  18.912  41.797   8.253
 6745POPC   C3B24429  18.856  41.736   7.953
 6745POPC   C4B24430  18.879  41.726   7.653
 6746POPC   NC324431  24.539  37.638   9.453
 6746POPC   PO424432  24.534  37.659   9.153
 6746POPC   GL124433  24.488  37.677   8.853
 6746POPC   GL224434  24.559  37.555   8.853
 6746POPC   C1A24435  24.462  37.673   8.553
 6746POPC   D2A24436  24.493  37.644   8.253
 6746POPC   C3A24437  24.532  37.682   7.953
 6746POPC   C4A24438  24.515  37.685   7.653
 6746POPC   C1B24439  24.599  37.464   8.553
 6746POPC   C2B24440  24.668  37.438   8.253
 6746POPC   C3B24441  24.593  37.461   7.953
 6746POPC   C4B24442  24.599  37.444   7.653
 6747POPC   NC324443  16.733   6.693   9.453
 6747POPC   PO424444  16.712   6.622   9.153
 6747POPC   GL124445  16.764   6.667   8.853
 6747POPC   GL224446  16.824   6.805   8.853
 6747POPC   C1A24447  16.768   6.623   8.553
 6747POPC   D2A24448  16.736   6.604   8.253
 6747POPC   C3A24449  16.763   6.655   7.953
 6747POPC   C4A24450  16.703   6.641   7.653
 6747POPC   C1B24451  16.822   6.889   8.553
 6747POPC   C2B24452  16.870   6.886   8.253
 6747POPC   C3B24453  16.875   6.913   7.953
 6747POPC   C4B24454  16.874   6.882   7.653
 6748POPC   NC324455   1.955  15.192   9.453
 6748POPC   PO424456   1.998  15.219   9.153
 6748POPC   GL124457   1.966  15.198   8.853
 6748POPC   GL224458   1.974  15.008   8.853
 6748POPC   C1A24459   1.999  15.183   8.553
 6748POPC   D2A24460   1.978  15.170   8.253
 6748POPC   C3A24461   1.982  15.134   7.953
 6748POPC   C4A24462   1.973  15.190   7.653
 6748POPC   C1B24463   1.965  14.944   8.553
 6748POPC   C2B24464   2.006  14.898   8.253
 6748POPC   C3B24465   1.940  14.887   7.953
 6748POPC   C4B24466   1.955  14.935   7.653
 6749POPC   NC324467  33.819  15.911   9.453
 6749POPC   PO424468  33.781  15.983   9.153
 6749POPC   GL124469  33.839  15.984   8.853
 6749POPC   GL224470  33.793  15.851   8.853
 6749POPC   C1A24471  33.756  16.002   8.553
 6749POPC   D2A24472  33.836  15.954   8.253
 6749POPC   C3A24473  33.804  15.986   7.953
 6749POPC   C4A24474  33.782  15.908   7.653
 6749POPC   C1B24475  33.773  15.715   8.553
 6749POPC   C2B24476  33.808  15.704   8.253
 6749POPC   C3B24477  33.767  15.755   7.953
 6749POPC   C4B24478  33.747  15.701   7.653
 6750POPC   NC324479   6.664  43.112   9.453
 6750POPC   PO424480   6.658  43.108   9.153
 6750POPC   GL124481   6.599  43.072   8.853
 6750POPC   GL224482   6.621  43.013   8.853
 6750POPC   C1A24483   6.635  43.102   8.553
 6750POPC   D2A24484   6.632  43.130   8.253
 6750POPC   C3A24485   6.682  43.150   7.953
 6750POPC   C4A24486   6.624  43.088   7.653
 6750POPC   C1B24487   6.537  42.844   8.553
 6750POPC   C2B24488   6.564  42.851   8.253
 6750POPC   C3B24489   6.512  42.842   7.953
 6750POPC   C4B24490   6.520  42.883   7.653
 6751POPC   NC324491  43.843  26.078   9.453
 6751POPC   PO424492  43.841  26.058   9.153
 6751POPC   GL124493  43.922  26.019   8.853
 6751POPC   GL224494  43.943  25.936   8.853
 6751POPC   C1A24495  43.902  26.002   8.553
 6751POPC   D2A24496  43.867  26.073   8.253
 6751POPC   C3A24497  43.890  26.047   7.953
 6751POPC   C4A24498  43.837  26.026   7.653
 6751POPC   C1B24499  44.091  25.875   8.553
 6751POPC   C2B24500  44.106  25.860   8.253
 6751POPC   C3B24501  44.055  25.905   7.953
 6751POPC   C4B24502  44.071  25.873   7.653
 6752POPC   NC324503   1.213  34.533   9.453
 6752POPC   PO424504   1.233  34.570   9.153
 6752POPC   GL124505   1.221  34.561   8.853
 6752POPC   GL224506   1.116  34.494   8.853
 6752POPC   C1A24507   1.201  34.619   8.553
 6752POPC   D2A24508   1.259  34.612   8.253
 6752POPC   C3A24509   1.189  34.593   7.953
 6752POPC   C4A24510   1.205  34.587   7.653
 6752POPC   C1B24511   0.991  34.512   8.553
 6752POPC   C2B24512   0.955  34.509   8.253
 6752POPC   C3B24513   1.005  34.503   7.953
 6752POPC   C4B24514   0.997  34.543   7.653
 6753POPC   NC324515  30.660   7.391   9.453
 6753POPC   PO424516  30.685   7.395   9.153
 6753POPC   GL124517  30.742   7.418   8.853
 6753POPC   GL224518  30.733   7.546   8.853
 6753POPC   C1A24519  30.674   7.434   8.553
 6753POPC   D2A24520  30.740   7.432   8.253
 6753POPC   C3A24521  30.732   7.460   7.953
 6753POPC   C4A24522  30.678   7.436   7.653
 6753POPC   C1B24523  30.710   7.702   8.553
 6753POPC   C2B24524  30.749   7.683   8.253
 6753POPC   C3B24525  30.738   7.703   7.953
 6753POPC   C4B24526  30.751   7.678   7.653
 6754POPC   NC324527  13.643   5.097   9.453
 6754POPC   PO424528  13.637   5.105   9.153
 6754POPC   GL124529  13.598   5.049   8.853
 6754POPC   GL224530  13.798   5.143   8.853
 6754POPC   C1A24531  13.661   5.047   8.553
 6754POPC   D2A24532  13.609   5.097   8.253
 6754POPC   C3A24533  13.623   5.089   7.953
 6754POPC   C4A24534  13.652   5.090   7.653
 6754POPC   C1B24535  13.882   5.078   8.553
 6754POPC   C2B24536  13.881   5.136   8.253
 6754POPC   C3B24537  13.839   5.093   7.953
 6754POPC   C4B24538  13.832   5.065   7.653
 6755POPC   NC324539  27.596  44.636   9.453
 6755POPC   PO424540  27.556  44.684   9.153
 6755POPC   GL124541  27.590  44.660   8.853
 6755POPC   GL224542  27.719  44.574   8.853
 6755POPC   C1A24543  27.642  44.623   8.553
 6755POPC   D2A24544  27.561  44.680   8.253
 6755POPC   C3A24545  27.544  44.697   7.953
 6755POPC   C4A24546  27.584  44.635   7.653
 6755POPC   C1B24547  27.852  44.563   8.553
 6755POPC   C2B24548  27.827  44.548   8.253
 6755POPC   C3B24549  27.870  44.557   7.953
 6755POPC   C4B24550  27.846  44.605   7.653
 6756POPC   NC324551  21.376  24.529   9.453
 6756POPC   PO424552  21.404  24.511   9.153
 6756POPC   GL124553  21.402  24.522   8.853
 6756POPC   GL224554  21.493  24.413   8.853
 6756POPC   C1A24555  21.392  24.532   8.553
 6756POPC   D2A24556  21.424  24.479   8.253
 6756POPC   C3A24557  21.401  24.457   7.953
 6756POPC   C4A24558  21.430  24.502   7.653
 6756POPC   C1B24559  21.673  24.416   8.553
 6756POPC   C2B24560  21.642  24.420   8.253
 6756POPC   C3B24561  21.584  24.393   7.953
 6756POPC   C4B24562  21.675  24.454   7.653
 6757POPC   NC324563  43.865  40.046   9.453
 6757POPC   PO424564  43.874  40.006   9.153
 6757POPC   GL124565  43.893  40.027   8.853
 6757POPC   GL224566  43.975  39.890   8.853
 6757POPC   C1A24567  43.871  39.986   8.553
 6757POPC   D2A24568  43.934  39.977   8.253
 6757POPC   C3A24569  43.880  39.992   7.953
 6757POPC   C4A24570  43.922  39.978   7.653
 6757POPC   C1B24571  44.077  39.803   8.553
 6757POPC   C2B24572  44.077  39.814   8.253
 6757POPC   C3B24573  44.053  39.855   7.953
 6757POPC   C4B24574  44.102  39.778   7.653
 6758POPC   NC324575   9.755  12.111   9.453
 6758POPC   PO424576   9.736  12.111   9.153
 6758POPC   GL124577   9.711  12.037   8.853
 6758POPC   GL224578   9.757  12.240   8.853
 6758POPC   C1A24579   9.713  12.104   8.553
 6758POPC   D2A24580   9.762  12.077   8.253
 6758POPC   C3A24581   9.754  12.115   7.953
 6758POPC   C4A24582   9.704  12.071   7.653
 6758POPC   C1B24583   9.838  12.351   8.553
 6758POPC   C2B24584   9.857  12.346   8.253
 6758POPC   C3B24585   9.834  12.323   7.953
 6758POPC   C4B24586   9.815  12.339   7.653
 6759POPC   NC324587  17.517   8.212   9.453
 6759POPC   PO424588  17.489   8.194   9.153
 6759POPC   GL124589  17.469   8.163   8.853
 6759POPC   GL224590  17.637   8.193   8.853
 6759POPC   C1A24591  17.509   8.228   8.553
 6759POPC   D2A24592  17.500   8.177   8.253
 6759POPC   C3A24593  17.543   8.191   7.953
 6759POPC   C4A24594  17.460   8.168   7.653
 6759POPC   C1B24595  17.696   8.163   8.553
 6759POPC   C2B24596  17.729   8.095   8.253
 6759POPC   C3B24597  17.711   8.163   7.953
 6759POPC   C4B24598  17.714   8.123   7.653
 6760POPC   NC324599  39.261  23.694   9.453
 6760POPC   PO424600  39.277  23.726   9.153
 6760POPC   GL124601  39.233  23.710   8.853
 6760POPC   GL224602  39.067  23.678   8.853
 6760POPC   C1A24603  39.225  23.742   8.553
 6760POPC   D2A24604  39.264  23.753   8.253
 6760POPC   C3A24605  39.198  23.731   7.953
 6760POPC   C4A24606  39.220  23.728   7.653
 6760POPC   C1B24607  39.006  23.710   8.553
 6760POPC   C2B24608  39.018  23.713   8.253
 6760POPC   C3B24609  38.934  23.730   7.953
 6760POPC   C4B24610  39.014  23.679   7.653
 6761POPC   NC324611  44.636  33.817   9.453
 6761POPC   PO424612  44.691  33.833   9.153
 6761POPC   GL124613  44.679  33.758   8.853
 6761POPC   GL224614  44.572  33.708   8.853
 6761POPC   C1A24615  44.710  33.776   8.553
 6761POPC   D2A24616  44.647  33.758   8.253
 6761POPC   C3A24617  44.678  33.801   7.953
 6761POPC   C4A24618  44.632  33.813   7.653
 6761POPC   C1B24619  44.498  33.615   8.553
 6761POPC   C2B24620  44.483  33.613   8.253
 6761POPC   C3B24621  44.433  33.645   7.953
 6761POPC   C4B24622  44.462  33.633   7.653
 6762POPC   NC324623   4.326  43.077   9.453
 6762POPC   PO424624   4.335  43.145   9.153
 6762POPC   GL124625   4.292  43.106   8.853
 6762POPC   GL224626   4.442  43.028   8.853
 6762POPC   C1A24627   4.322  43.147   8.553
 6762POPC   D2A24628   4.356  43.148   8.253
 6762POPC   C3A24629   4.321  43.109   7.953
 6762POPC   C4A24630   4.335  43.084   7.653
 6762POPC   C1B24631   4.537  43.033   8.553
 6762POPC   C2B24632   4.545  42.958   8.253
 6762POPC   C3B24633   4.507  43.020   7.953
 6762POPC   C4B24634   4.569  42.981   7.653
 6763POPC   NC324635  23.731  26.070   9.453
 6763POPC   PO424636  23.755  25.998   9.153
 6763POPC   GL124637  23.718  26.004   8.853
 6763POPC   GL224638  23.646  25.933   8.853
 6763POPC   C1A24639  23.755  26.087   8.553
 6763POPC   D2A24640  23.676  26.006   8.253
 6763POPC   C3A24641  23.672  26.015   7.953
 6763POPC   C4A24642  23.705  26.023   7.653
 6763POPC   C1B24643  23.545  25.898   8.553
 6763POPC   C2B24644  23.546  25.830   8.253
 6763POPC   C3B24645  23.516  25.829   7.953
 6763POPC   C4B24646  23.514  25.851   7.653
 6764POPC   NC324647  32.211  19.836   9.453
 6764POPC   PO424648  32.289  19.789   9.153
 6764POPC   GL124649  32.268  19.855   8.853
 6764POPC   GL224650  32.376  19.880   8.853
 6764POPC   C1A24651  32.265  19.811   8.553
 6764POPC   D2A24652  32.272  19.828   8.253
 6764POPC   C3A24653  32.217  19.792   7.953
 6764POPC   C4A24654  32.209  19.877   7.653
 6764POPC   C1B24655  32.429  20.070   8.553
 6764POPC   C2B24656  32.419  20.002   8.253
 6764POPC   C3B24657  32.416  20.034   7.953
 6764POPC   C4B24658  32.440  20.014   7.653
 6765POPC   NC324659  36.145  25.286   9.453
 6765POPC   PO424660  36.132  25.271   9.153
 6765POPC   GL124661  36.147  25.226   8.853
 6765POPC   GL224662  36.156  25.187   8.853
 6765POPC   C1A24663  36.124  25.298   8.553
 6765POPC   D2A24664  36.111  25.237   8.253
 6765POPC   C3A24665  36.119  25.244   7.953
 6765POPC   C4A24666  36.161  25.220   7.653
 6765POPC   C1B24667  36.204  25.010   8.553
 6765POPC   C2B24668  36.222  24.997   8.253
 6765POPC   C3B24669  36.157  24.999   7.953
 6765POPC   C4B24670  36.141  25.045   7.653
 6766POPC   NC324671  11.291  16.689   9.453
 6766POPC   PO424672  11.293  16.689   9.153
 6766POPC   GL124673  11.332  16.732   8.853
 6766POPC   GL224674  11.194  16.799   8.853
 6766POPC   C1A24675  11.286  16.750   8.553
 6766POPC   D2A24676  11.330  16.745   8.253
 6766POPC   C3A24677  11.315  16.749   7.953
 6766POPC   C4A24678  11.296  16.691   7.653
 6766POPC   C1B24679  11.043  16.780   8.553
 6766POPC   C2B24680  11.040  16.732   8.253
 6766POPC   C3B24681  11.017  16.795   7.953
 6766POPC   C4B24682  11.053  16.773   7.653
 6767POPC   NC324683   4.278   6.639   9.453
 6767POPC   PO424684   4.323   6.621   9.153
 6767POPC   GL124685   4.290   6.686   8.853
 6767POPC   GL224686   4.251   6.730   8.853
 6767POPC   C1A24687   4.352   6.690   8.553
 6767POPC   D2A24688   4.350   6.657   8.253
 6767POPC   C3A24689   4.322   6.600   7.953
 6767POPC   C4A24690   4.273   6.605   7.653
 6767POPC   C1B24691   4.219   6.860   8.553
 6767POPC   C2B24692   4.221   6.928   8.253
 6767POPC   C3B24693   4.285   6.853   7.953
 6767POPC   C4B24694   4.306   6.891   7.653
 6768POPC   NC324695  43.140  36.086   9.453
 6768POPC   PO424696  43.069  36.105   9.153
 6768POPC   GL124697  43.080  36.151   8.853
 6768POPC   GL224698  43.148  36.254   8.853
 6768POPC   C1A24699  43.149  36.126   8.553
 6768POPC   D2A24700  43.068  36.159   8.253
 6768POPC   C3A24701  43.079  36.141   7.953
 6768POPC   C4A24702  43.139  36.113   7.653
 6768POPC   C1B24703  43.120  36.424   8.553
 6768POPC   C2B24704  43.138  36.333   8.253
 6768POPC   C3B24705  43.066  36.336   7.953
 6768POPC   C4B24706  43.112  36.349   7.653
 6769POPC   NC324707  37.631  25.995   9.453
 6769POPC   PO424708  37.656  26.041   9.153
 6769POPC   GL124709  37.644  26.057   8.853
 6769POPC   GL224710  37.780  26.118   8.853
 6769POPC   C1A24711  37.722  25.996   8.553
 6769POPC   D2A24712  37.708  26.074   8.253
 6769POPC   C3A24713  37.722  26.085   7.953
 6769POPC   C4A24714  37.644  26.021   7.653
 6769POPC   C1B24715  37.920  26.099   8.553
 6769POPC   C2B24716  37.947  26.108   8.253
 6769POPC   C3B24717  37.884  26.132   7.953
 6769POPC   C4B24718  37.875  26.120   7.653
 6770POPC   NC324719  42.335   1.170   9.453
 6770POPC   PO424720  42.371   1.244   9.153
 6770POPC   GL124721  42.310   1.224   8.853
 6770POPC   GL224722  42.214   1.126   8.853
 6770POPC   C1A24723  42.311   1.213   8.553
 6770POPC   D2A24724  42.371   1.177   8.253
 6770POPC   C3A24725  42.320   1.168   7.953
 6770POPC   C4A24726  42.331   1.261   7.653
 6770POPC   C1B24727  42.206   1.005   8.553
 6770POPC   C2B24728  42.135   1.019   8.253
 6770POPC   C3B24729  42.191   1.016   7.953
 6770POPC   C4B24730  42.186   1.066   7.653
 6771POPC   NC324731  37.725  25.257   9.453
 6771POPC   PO424732  37.723  25.299   9.153
 6771POPC   GL124733  37.638  25.220   8.853
 6771POPC   GL224734  37.651  25.189   8.853
 6771POPC   C1A24735  37.659  25.277   8.553
 6771POPC   D2A24736  37.687  25.234   8.253
 6771POPC   C3A24737  37.670  25.261   7.953
 6771POPC   C4A24738  37.708  25.242   7.653
 6771POPC   C1B24739  37.523  25.084   8.553
 6771POPC   C2B24740  37.538  25.002   8.253
 6771POPC   C3B24741  37.581  25.022   7.953
 6771POPC   C4B24742  37.538  25.010   7.653
 6772POPC   NC324743   6.598  12.844   9.453
 6772POPC   PO424744   6.652  12.841   9.153
 6772POPC   GL124745   6.685  12.827   8.853
 6772POPC   GL224746   6.680  12.686   8.853
 6772POPC   C1A24747   6.628  12.866   8.553
 6772POPC   D2A24748   6.685  12.823   8.253
 6772POPC   C3A24749   6.630  12.822   7.953
 6772POPC   C4A24750   6.617  12.901   7.653
 6772POPC   C1B24751   6.620  12.611   8.553
 6772POPC   C2B24752   6.666  12.631   8.253
 6772POPC   C3B24753   6.654  12.588   7.953
 6772POPC   C4B24754   6.660  12.564   7.653
 6773POPC   NC324755   5.831   6.613   9.453
 6773POPC   PO424756   5.893   6.624   9.153
 6773POPC   GL124757   5.913   6.671   8.853
 6773POPC   GL224758   5.819   6.492   8.853
 6773POPC   C1A24759   5.859   6.657   8.553
 6773POPC   D2A24760   5.895   6.631   8.253
 6773POPC   C3A24761   5.824   6.626   7.953
 6773POPC   C4A24762   5.905   6.607   7.653
 6773POPC   C1B24763   5.688   6.483   8.553
 6773POPC   C2B24764   5.704   6.408   8.253
 6773POPC   C3B24765   5.686   6.460   7.953
 6773POPC   C4B24766   5.711   6.433   7.653
 6774POPC   NC324767   9.739  28.325   9.453
 6774POPC   PO424768   9.699  28.338   9.153
 6774POPC   GL124769   9.790  28.402   8.853
 6774POPC   GL224770   9.634  28.310   8.853
 6774POPC   C1A24771   9.767  28.415   8.553
 6774POPC   D2A24772   9.708  28.374   8.253
 6774POPC   C3A24773   9.711  28.329   7.953
 6774POPC   C4A24774   9.751  28.377   7.653
 6774POPC   C1B24775   9.535  28.147   8.553
 6774POPC   C2B24776   9.619  28.218   8.253
 6774POPC   C3B24777   9.545  28.196   7.953
 6774POPC   C4B24778   9.535  28.146   7.653
 6775POPC   NC324779   4.278   5.899   9.453
 6775POPC   PO424780   4.356   5.893   9.153
 6775POPC   GL124781   4.359   5.890   8.853
 6775POPC   GL224782   4.355   5.695   8.853
 6775POPC   C1A24783   4.330   5.875   8.553
 6775POPC   D2A24784   4.315   5.892   8.253
 6775POPC   C3A24785   4.361   5.851   7.953
 6775POPC   C4A24786   4.341   5.885   7.653
 6775POPC   C1B24787   4.316   5.581   8.553
 6775POPC   C2B24788   4.300   5.666   8.253
 6775POPC   C3B24789   4.375   5.664   7.953
 6775POPC   C4B24790   4.280   5.626   7.653
 6776POPC   NC324791  19.877  31.505   9.453
 6776POPC   PO424792  19.825  31.516   9.153
 6776POPC   GL124793  19.828  31.432   8.853
 6776POPC   GL224794  19.982  31.596   8.853
 6776POPC   C1A24795  19.848  31.467   8.553
 6776POPC   D2A24796  19.826  31.495   8.253
 6776POPC   C3A24797  19.798  31.456   7.953
 6776POPC   C4A24798  19.853  31.435   7.653
 6776POPC   C1B24799  20.019  31.579   8.553
 6776POPC   C2B24800  20.015  31.605   8.253
 6776POPC   C3B24801  20.026  31.665   7.953
 6776POPC   C4B24802  19.980  31.676   7.653
 6777POPC   NC324803  43.080  44.638   9.453
 6777POPC   PO424804  43.099  44.683   9.153
 6777POPC   GL124805  43.145  44.683   8.853
 6777POPC   GL224806  43.212  44.592   8.853
 6777POPC   C1A24807  43.075  44.675   8.553
 6777POPC   D2A24808  43.159  44.681   8.253
 6777POPC   C3A24809  43.087  44.666   7.953
 6777POPC   C4A24810  43.156  44.678   7.653
 6777POPC   C1B24811  43.201  44.500   8.553
 6777POPC   C2B24812  43.203  44.433   8.253
 6777POPC   C3B24813  43.214  44.485   7.953
 6777POPC   C4B24814  43.273  44.408   7.653
 6778POPC   NC324815   2.724   4.341   9.453
 6778POPC   PO424816   2.794   4.316   9.153
 6778POPC   GL124817   2.781   4.308   8.853
 6778POPC   GL224818   2.819   4.379   8.853
 6778POPC   C1A24819   2.804   4.334   8.553
 6778POPC   D2A24820   2.788   4.281   8.253
 6778POPC   C3A24821   2.809   4.336   7.953
 6778POPC   C4A24822   2.795   4.308   7.653
 6778POPC   C1B24823   2.994   4.447   8.553
 6778POPC   C2B24824   2.981   4.453   8.253
 6778POPC   C3B24825   2.973   4.472   7.953
 6778POPC   C4B24826   3.000   4.408   7.653
 6779POPC   NC324827   0.476  40.745   9.453
 6779POPC   PO424828   0.441  40.787   9.153
 6779POPC   GL124829   0.433  40.786   8.853
 6779POPC   GL224830   0.579  40.798   8.853
 6779POPC   C1A24831   0.450  40.781   8.553
 6779POPC   D2A24832   0.393  40.789   8.253
 6779POPC   C3A24833   0.443  40.785   7.953
 6779POPC   C4A24834   0.391  40.743   7.653
 6779POPC   C1B24835   0.697  40.813   8.553
 6779POPC   C2B24836   0.687  40.819   8.253
 6779POPC   C3B24837   0.731  40.820   7.953
 6779POPC   C4B24838   0.711  40.820   7.653
 6780POPC   NC324839  18.294   1.962   9.453
 6780POPC   PO424840  18.289   2.002   9.153
 6780POPC   GL124841  18.254   2.013   8.853
 6780POPC   GL224842  18.304   2.115   8.853
 6780POPC   C1A24843  18.284   2.038   8.553
 6780POPC   D2A24844  18.289   1.995   8.253
 6780POPC   C3A24845  18.286   1.984   7.953
 6780POPC   C4A24846  18.329   2.026   7.653
 6780POPC   C1B24847  18.458   2.206   8.553
 6780POPC   C2B24848  18.429   2.151   8.253
 6780POPC   C3B24849  18.443   2.238   7.953
 6780POPC   C4B24850  18.452   2.159   7.653
 6781POPC   NC324851   1.986  11.262   9.453
 6781POPC   PO424852   1.945  11.257   9.153
 6781POPC   GL124853   1.963  11.274   8.853
 6781POPC   GL224854   2.116  11.320   8.853
 6781POPC   C1A24855   2.008  11.294   8.553
 6781POPC   D2A24856   1.945  11.262   8.253
 6781POPC   C3A24857   1.984  11.276   7.953
 6781POPC   C4A24858   2.014  11.326   7.653
 6781POPC   C1B24859   2.281  11.290   8.553
 6781POPC   C2B24860   2.203  11.227   8.253
 6781POPC   C3B24861   2.245  11.275   7.953
 6781POPC   C4B24862   2.251  11.241   7.653
 6782POPC   NC324863  44.675  22.201   9.453
 6782POPC   PO424864  44.637  22.184   9.153
 6782POPC   GL124865  44.672  22.203   8.853
 6782POPC   GL224866  44.659  22.085   8.853
 6782POPC   C1A24867  44.706  22.153   8.553
 6782POPC   D2A24868  44.622  22.203   8.253
 6782POPC   C3A24869  44.641  22.135   7.953
 6782POPC   C4A24870  44.651  22.191   7.653
 6782POPC   C1B24871  44.526  21.899   8.553
 6782POPC   C2B24872  44.578  21.980   8.253
 6782POPC   C3B24873  44.586  21.909   7.953
 6782POPC   C4B24874  44.586  21.972   7.653
 6783POPC   NC324875   5.121  29.173   9.453
 6783POPC   PO424876   5.076  29.182   9.153
 6783POPC   GL124877   5.064  29.140   8.853
 6783POPC   GL224878   4.982  29.117   8.853
 6783POPC   C1A24879   5.117  29.111   8.553
 6783POPC   D2A24880   5.094  29.161   8.253
 6783POPC   C3A24881   5.062  29.098   7.953
 6783POPC   C4A24882   5.118  29.123   7.653
 6783POPC   C1B24883   4.858  28.971   8.553
 6783POPC   C2B24884   4.912  28.976   8.253
 6783POPC   C3B24885   4.919  28.952   7.953
 6783POPC   C4B24886   4.888  29.038   7.653
 6784POPC   NC324887   7.387   0.472   9.453
 6784POPC   PO424888   7.464   0.434   9.153
 6784POPC   GL124889   7.464   0.398   8.853
 6784POPC   GL224890   7.492   0.481   8.853
 6784POPC   C1A24891   7.393   0.413   8.553
 6784POPC   D2A24892   7.383   0.439   8.253
 6784POPC   C3A24893   7.425   0.395   7.953
 6784POPC   C4A24894   7.394   0.403   7.653
 6784POPC   C1B24895   7.591   0.633   8.553
 6784POPC   C2B24896   7.576   0.594   8.253
 6784POPC   C3B24897   7.649   0.636   7.953
 6784POPC   C4B24898   7.570   0.545   7.653
 6785POPC   NC324899  18.332  42.307   9.453
 6785POPC   PO424900  18.315  42.305   9.153
 6785POPC   GL124901  18.302  42.326   8.853
 6785POPC   GL224902  18.438  42.381   8.853
 6785POPC   C1A24903  18.283  42.301   8.553
 6785POPC   D2A24904  18.321  42.300   8.253
 6785POPC   C3A24905  18.233  42.381   7.953
 6785POPC   C4A24906  18.301  42.333   7.653
 6785POPC   C1B24907  18.507  42.311   8.553
 6785POPC   C2B24908  18.509  42.367   8.253
 6785POPC   C3B24909  18.551  42.350   7.953
 6785POPC   C4B24910  18.575  42.343   7.653
 6786POPC   NC324911  17.466  17.520   9.453
 6786POPC   PO424912  17.524  17.531   9.153
 6786POPC   GL124913  17.498  17.484   8.853
 6786POPC   GL224914  17.578  17.558   8.853
 6786POPC   C1A24915  17.551  17.490   8.553
 6786POPC   D2A24916  17.470  17.509   8.253
 6786POPC   C3A24917  17.475  17.540   7.953
 6786POPC   C4A24918  17.530  17.537   7.653
 6786POPC   C1B24919  17.659  17.736   8.553
 6786POPC   C2B24920  17.632  17.693   8.253
 6786POPC   C3B24921  17.639  17.699   7.953
 6786POPC   C4B24922  17.643  17.701   7.653
 6787POPC   NC324923  33.834  32.271   9.453
 6787POPC   PO424924  33.832  32.240   9.153
 6787POPC   GL124925  33.754  32.200   8.853
 6787POPC   GL224926  33.945  32.339   8.853
 6787POPC   C1A24927  33.772  32.241   8.553
 6787POPC   D2A24928  33.807  32.277   8.253
 6787POPC   C3A24929  33.793  32.241   7.953
 6787POPC   C4A24930  33.750  32.227   7.653
 6787POPC   C1B24931  33.982  32.374   8.553
 6787POPC   C2B24932  34.023  32.377   8.253
 6787POPC   C3B24933  34.017  32.415   7.953
 6787POPC   C4B24934  33.982  32.431   7.653
 6788POPC   NC324935  11.272  12.069   9.453
 6788POPC   PO424936  11.268  12.080   9.153
 6788POPC   GL124937  11.312  12.096   8.853
 6788POPC   GL224938  11.410  12.218   8.853
 6788POPC   C1A24939  11.288  12.117   8.553
 6788POPC   D2A24940  11.294  12.030   8.253
 6788POPC   C3A24941  11.267  12.096   7.953
 6788POPC   C4A24942  11.291  12.092   7.653
 6788POPC   C1B24943  11.424  12.312   8.553
 6788POPC   C2B24944  11.400  12.266   8.253
 6788POPC   C3B24945  11.434  12.284   7.953
 6788POPC   C4B24946  11.423  12.274   7.653
 6789POPC   NC324947  10.571   9.787   9.453
 6789POPC   PO424948  10.514   9.716   9.153
 6789POPC   GL124949  10.565   9.781   8.853
 6789POPC   GL224950  10.620   9.693   8.853
 6789POPC   C1A24951  10.476   9.728   8.553
 6789POPC   D2A24952  10.475   9.755   8.253
 6789POPC   C3A24953  10.487   9.702   7.953
 6789POPC   C4A24954  10.546   9.716   7.653
 6789POPC   C1B24955  10.688   9.643   8.553
 6789POPC   C2B24956  10.692   9.612   8.253
 6789POPC   C3B24957  10.735   9.634   7.953
 6789POPC   C4B24958  10.715   9.596   7.653
 6790POPC   NC324959  18.250  29.122   9.453
 6790POPC   PO424960  18.248  29.180   9.153
 6790POPC   GL124961  18.331  29.160   8.853
 6790POPC   GL224962  18.330  29.022   8.853
 6790POPC   C1A24963  18.241  29.161   8.553
 6790POPC   D2A24964  18.279  29.171   8.253
 6790POPC   C3A24965  18.312  29.142   7.953
 6790POPC   C4A24966  18.295  29.194   7.653
 6790POPC   C1B24967  18.432  28.932   8.553
 6790POPC   C2B24968  18.377  28.926   8.253
 6790POPC   C3B24969  18.344  28.957   7.953
 6790POPC   C4B24970  18.355  28.935   7.653
 6791POPC   NC324971  21.419  15.176   9.453
 6791POPC   PO424972  21.340  15.132   9.153
 6791POPC   GL124973  21.360  15.186   8.853
 6791POPC   GL224974  21.316  15.079   8.853
 6791POPC   C1A24975  21.412  15.222   8.553
 6791POPC   D2A24976  21.401  15.216   8.253
 6791POPC   C3A24977  21.396  15.223   7.953
 6791POPC   C4A24978  21.426  15.145   7.653
 6791POPC   C1B24979  21.197  15.010   8.553
 6791POPC   C2B24980  21.225  15.010   8.253
 6791POPC   C3B24981  21.233  14.966   7.953
 6791POPC   C4B24982  21.200  14.969   7.653
 6792POPC   NC324983   1.966  17.470   9.453
 6792POPC   PO424984   2.039  17.491   9.153
 6792POPC   GL124985   1.955  17.535   8.853
 6792POPC   GL224986   1.920  17.400   8.853
 6792POPC   C1A24987   1.977  17.509   8.553
 6792POPC   D2A24988   2.008  17.484   8.253
 6792POPC   C3A24989   1.946  17.515   7.953
 6792POPC   C4A24990   2.012  17.492   7.653
 6792POPC   C1B24991   1.859  17.261   8.553
 6792POPC   C2B24992   1.831  17.304   8.253
 6792POPC   C3B24993   1.837  17.277   7.953
 6792POPC   C4B24994   1.861  17.300   7.653
 6793POPC   NC324995   6.647  42.327   9.453
 6793POPC   PO424996   6.614  42.330   9.153
 6793POPC   GL124997   6.681  42.326   8.853
 6793POPC   GL224998   6.628  42.253   8.853
 6793POPC   C1A24999   6.665  42.286   8.553
 6793POPC   D2A25000   6.671  42.340   8.253
 6793POPC   C3A25001   6.634  42.311   7.953
 6793POPC   C4A25002   6.682  42.365   7.653
 6793POPC   C1B25003   6.552  42.115   8.553
 6793POPC   C2B25004   6.514  42.083   8.253
 6793POPC   C3B25005   6.544  42.067   7.953
 6793POPC   C4B25006   6.554  42.079   7.653
 6794POPC   NC325007   1.193   9.776   9.453
 6794POPC   PO425008   1.260   9.793   9.153
 6794POPC   GL125009   1.222   9.789   8.853
 6794POPC   GL225010   1.201   9.662   8.853
 6794POPC   C1A25011   1.240   9.755   8.553
 6794POPC   D2A25012   1.170   9.781   8.253
 6794POPC   C3A25013   1.253   9.751   7.953
 6794POPC   C4A25014   1.213   9.721   7.653
 6794POPC   C1B25015   1.232   9.484   8.553
 6794POPC   C2B25016   1.250   9.524   8.253
 6794POPC   C3B25017   1.233   9.525   7.953
 6794POPC   C4B25018   1.173   9.484   7.653
 6795POPC   NC325019  13.587  40.734   9.453
 6795POPC   PO425020  13.668  40.757   9.153
 6795POPC   GL125021  13.668  40.733   8.853
 6795POPC   GL225022  13.624  40.896   8.853
 6795POPC   C1A25023  13.618  40.826   8.553
 6795POPC   D2A25024  13.658  40.742   8.253
 6795POPC   C3A25025  13.643  40.757   7.953
 6795POPC   C4A25026  13.652  40.780   7.653
 6795POPC   C1B25027  13.573  40.989   8.553
 6795POPC   C2B25028  13.548  41.036   8.253
 6795POPC   C3B25029  13.540  41.055   7.953
 6795POPC   C4B25030  13.565  41.029   7.653
 6796POPC   NC325031  17.549  15.954   9.453
 6796POPC   PO425032  17.555  15.910   9.153
 6796POPC   GL125033  17.488  15.991   8.853
 6796POPC   GL225034  17.463  15.795   8.853
 6796POPC   C1A25035  17.541  15.990   8.553
 6796POPC   D2A25036  17.502  15.981   8.253
 6796POPC   C3A25037  17.507  15.923   7.953
 6796POPC   C4A25038  17.491  15.997   7.653
 6796POPC   C1B25039  17.465  15.744   8.553
 6796POPC   C2B25040  17.424  15.704   8.253
 6796POPC   C3B25041  17.440  15.669   7.953
 6796POPC   C4B25042  17.412  15.705   7.653
 6797POPC   NC325043  40.779  21.391   9.453
 6797POPC   PO425044  40.741  21.351   9.153
 6797POPC   GL125045  40.794  21.375   8.853
 6797POPC   GL225046  40.864  21.383   8.853
 6797POPC   C1A25047  40.746  21.425   8.553
 6797POPC   D2A25048  40.736  21.435   8.253
 6797POPC   C3A25049  40.788  21.436   7.953
 6797POPC   C4A25050  40.820  21.359   7.653
 6797POPC   C1B25051  41.017  21.320   8.553
 6797POPC   C2B25052  41.046  21.300   8.253
 6797POPC   C3B25053  41.037  21.352   7.953
 6797POPC   C4B25054  41.013  21.354   7.653
 6798POPC   NC325055  42.358  20.613   9.453
 6798POPC   PO425056  42.333  20.595   9.153
 6798POPC   GL125057  42.357  20.654   8.853
 6798POPC   GL225058  42.256  20.636   8.853
 6798POPC   C1A25059  42.293  20.654   8.553
 6798POPC   D2A25060  42.300  20.591   8.253
 6798POPC   C3A25061  42.351  20.607   7.953
 6798POPC   C4A25062  42.296  20.639   7.653
 6798POPC   C1B25063  42.121  20.710   8.553
 6798POPC   C2B25064  42.055  20.638   8.253
 6798POPC   C3B25065  42.042  20.710   7.953
 6798POPC   C4B25066  42.068  20.697   7.653
 6799POPC   NC325067  39.242  43.925   9.453
 6799POPC   PO425068  39.184  43.927   9.153
 6799POPC   GL125069  39.250  43.923   8.853
 6799POPC   GL225070  39.197  44.009   8.853
 6799POPC   C1A25071  39.260  43.893   8.553
 6799POPC   D2A25072  39.276  43.842   8.253
 6799POPC   C3A25073  39.187  43.910   7.953
 6799POPC   C4A25074  39.278  43.928   7.653
 6799POPC   C1B25075  39.133  44.097   8.553
 6799POPC   C2B25076  39.125  44.164   8.253
 6799POPC   C3B25077  39.117  44.137   7.953
 6799POPC   C4B25078  39.157  44.098   7.653
 6800POPC   NC325079   5.096  22.120   9.453
 6800POPC   PO425080   5.093  22.120   9.153
 6800POPC   GL125081   5.080  22.180   8.853
 6800POPC   GL225082   5.145  22.248   8.853
 6800POPC   C1A25083   5.095  22.189   8.553
 6800POPC   D2A25084   5.123  22.148   8.253
 6800POPC   C3A25085   5.055  22.143   7.953
 6800POPC   C4A25086   5.120  22.191   7.653
 6800POPC   C1B25087   5.278  22.287   8.553
 6800POPC   C2B25088   5.297  22.366   8.253
 6800POPC   C3B25089   5.256  22.296   7.953
 6800POPC   C4B25090   5.266  22.297   7.653
 6801POPC   NC325091  26.048  30.703   9.453
 6801POPC   PO425092  26.023  30.664   9.153
 6801POPC   GL125093  26.008  30.648   8.853
 6801POPC   GL225094  25.934  30.782   8.853
 6801POPC   C1A25095  26.050  30.700   8.553
 6801POPC   D2A25096  26.066  30.687   8.253
 6801POPC   C3A25097  26.061  30.704   7.953
 6801POPC   C4A25098  26.017  30.687   7.653
 6801POPC   C1B25099  25.812  30.793   8.553
 6801POPC   C2B25100  25.843  30.799   8.253
 6801POPC   C3B25101  25.824  30.780   7.953
 6801POPC   C4B25102  25.854  30.846   7.653
 6802POPC   NC325103  32.291  36.897   9.453
 6802POPC   PO425104  32.206  36.908   9.153
 6802POPC   GL125105  32.250  36.885   8.853
 6802POPC   GL225106  32.221  36.748   8.853
 6802POPC   C1A25107  32.268  36.938   8.553
 6802POPC   D2A25108  32.238  36.864   8.253
 6802POPC   C3A25109  32.219  36.871   7.953
 6802POPC   C4A25110  32.297  36.862   7.653
 6802POPC   C1B25111  32.259  36.651   8.553
 6802POPC   C2B25112  32.180  36.678   8.253
 6802POPC   C3B25113  32.241  36.607   7.953
 6802POPC   C4B25114  32.234  36.681   7.653
 6803POPC   NC325115  32.986  29.901   9.453
 6803POPC   PO425116  33.023  29.877   9.153
 6803POPC   GL125117  32.992  29.902   8.853
 6803POPC   GL225118  33.116  29.917   8.853
 6803POPC   C1A25119  33.021  29.930   8.553
 6803POPC   D2A25120  33.062  29.929   8.253
 6803POPC   C3A25121  33.006  29.932   7.953
 6803POPC   C4A25122  33.020  29.935   7.653
 6803POPC   C1B25123  33.289  29.819   8.553
 6803POPC   C2B25124  33.263  29.856   8.253
 6803POPC   C3B25125  33.250  29.805   7.953
 6803POPC   C4B25126  33.224  29.828   7.653
 6804POPC   NC325127  17.519  15.134   9.453
 6804POPC   PO425128  17.498  15.205   9.153
 6804POPC   GL125129  17.486  15.131   8.853
 6804POPC   GL225130  17.432  15.318   8.853
 6804POPC   C1A25131  17.550  15.187   8.553
 6804POPC   D2A25132  17.458  15.173   8.253
 6804POPC   C3A25133  17.542  15.193   7.953
 6804POPC   C4A25134  17.482  15.186   7.653
 6804POPC   C1B25135  17.365  15.328   8.553
 6804POPC   C2B25136  17.290  15.353   8.253
 6804POPC   C3B25137  17.323  15.378   7.953
 6804POPC   C4B25138  17.313  15.411   7.653
 6805POPC   NC325139  24.530  35.381   9.453
 6805POPC   PO425140  24.538  35.321   9.153
 6805POPC   GL125141  24.470  35.350   8.853
 6805POPC   GL225142  24.510  35.513   8.853
 6805POPC   C1A25143  24.446  35.308   8.553
 6805POPC   D2A25144  24.468  35.399   8.253
 6805POPC   C3A25145  24.481  35.330   7.953
 6805POPC   C4A25146  24.505  35.399   7.653
 6805POPC   C1B25147  24.553  35.531   8.553
 6805POPC   C2B25148  24.585  35.619   8.253
 6805POPC   C3B25149  24.561  35.575   7.953
 6805POPC   C4B25150  24.561  35.578   7.653
 6806POPC   NC325151  40.809  43.110   9.453
 6806POPC   PO425152  40.765  43.065   9.153
 6806POPC   GL125153  40.824  43.075   8.853
 6806POPC   GL225154  40.904  43.211   8.853
 6806POPC   C1A25155  40.759  43.116   8.553
 6806POPC   D2A25156  40.738  43.104   8.253
 6806POPC   C3A25157  40.744  43.155   7.953
 6806POPC   C4A25158  40.736  43.088   7.653
 6806POPC   C1B25159  40.997  43.270   8.553
 6806POPC   C2B25160  41.043  43.256   8.253
 6806POPC   C3B25161  40.978  43.267   7.953
 6806POPC   C4B25162  40.965  43.276   7.653
 6807POPC   NC325163   1.973   7.392   9.453
 6807POPC   PO425164   1.987   7.389   9.153
 6807POPC   GL125165   1.995   7.402   8.853
 6807POPC   GL225166   1.914   7.559   8.853
 6807POPC   C1A25167   1.944   7.404   8.553
 6807POPC   D2A25168   1.962   7.416   8.253
 6807POPC   C3A25169   2.002   7.414   7.953
 6807POPC   C4A25170   2.029   7.414   7.653
 6807POPC   C1B25171   1.816   7.632   8.553
 6807POPC   C2B25172   1.825   7.616   8.253
 6807POPC   C3B25173   1.861   7.589   7.953
 6807POPC   C4B25174   1.868   7.615   7.653
 6808POPC   NC325175  39.220  32.232   9.453
 6808POPC   PO425176  39.209  32.223   9.153
 6808POPC   GL125177  39.190  32.237   8.853
 6808POPC   GL225178  39.148  32.117   8.853
 6808POPC   C1A25179  39.198  32.260   8.553
 6808POPC   D2A25180  39.211  32.204   8.253
 6808POPC   C3A25181  39.187  32.203   7.953
 6808POPC   C4A25182  39.217  32.218   7.653
 6808POPC   C1B25183  39.053  32.032   8.553
 6808POPC   C2B25184  39.028  32.051   8.253
 6808POPC   C3B25185  39.039  32.054   7.953
 6808POPC   C4B25186  39.054  32.040   7.653
 6809POPC   NC325187  36.937  22.185   9.453
 6809POPC   PO425188  36.889  22.133   9.153
 6809POPC   GL125189  36.913  22.196   8.853
 6809POPC   GL225190  36.788  22.185   8.853
 6809POPC   C1A25191  36.863  22.206   8.553
 6809POPC   D2A25192  36.854  22.148   8.253
 6809POPC   C3A25193  36.898  22.136   7.953
 6809POPC   C4A25194  36.928  22.161   7.653
 6809POPC   C1B25195  36.645  22.261   8.553
 6809POPC   C2B25196  36.666  22.273   8.253
 6809POPC   C3B25197  36.663  22.275   7.953
 6809POPC   C4B25198  36.649  22.237   7.653
 6810POPC   NC325199   5.904  32.253   9.453
 6810POPC   PO425200   5.891  32.236   9.153
 6810POPC   GL125201   5.868  32.204   8.853
 6810POPC   GL225202   5.884  32.117   8.853
 6810POPC   C1A25203   5.834  32.218   8.553
 6810POPC   D2A25204   5.824  32.248   8.253
 6810POPC   C3A25205   5.886  32.261   7.953
 6810POPC   C4A25206   5.847  32.203   7.653
 6810POPC   C1B25207   5.874  32.001   8.553
 6810POPC   C2B25208   5.829  32.041   8.253
 6810POPC   C3B25209   5.843  32.045   7.953
 6810POPC   C4B25210   5.836  32.036   7.653
 6811POPC   NC325211  41.567   5.848   9.453
 6811POPC   PO425212  41.522   5.831   9.153
 6811POPC   GL125213  41.590   5.848   8.853
 6811POPC   GL225214  41.588   5.725   8.853
 6811POPC   C1A25215  41.588   5.909   8.553
 6811POPC   D2A25216  41.550   5.869   8.253
 6811POPC   C3A25217  41.576   5.840   7.953
 6811POPC   C4A25218  41.514   5.844   7.653
 6811POPC   C1B25219  41.704   5.608   8.553
 6811POPC   C2B25220  41.680   5.648   8.253
 6811POPC   C3B25221  41.666   5.602   7.953
 6811POPC   C4B25222  41.695   5.669   7.653
 6812POPC   NC325223  37.715  27.596   9.453
 6812POPC   PO425224  37.722  27.640   9.153
 6812POPC   GL125225  37.709  27.639   8.853
 6812POPC   GL225226  37.748  27.677   8.853
 6812POPC   C1A25227  37.696  27.600   8.553
 6812POPC   D2A25228  37.716  27.610   8.253
 6812POPC   C3A25229  37.719  27.556   7.953
 6812POPC   C4A25230  37.726  27.629   7.653
 6812POPC   C1B25231  37.885  27.748   8.553
 6812POPC   C2B25232  37.836  27.740   8.253
 6812POPC   C3B25233  37.908  27.739   7.953
 6812POPC   C4B25234  37.816  27.787   7.653
 6813POPC   NC325235  36.875   3.566   9.453
 6813POPC   PO425236  36.876   3.545   9.153
 6813POPC   GL125237  36.891   3.541   8.853
 6813POPC   GL225238  36.998   3.536   8.853
 6813POPC   C1A25239  36.932   3.495   8.553
 6813POPC   D2A25240  36.919   3.548   8.253
 6813POPC   C3A25241  36.899   3.578   7.953
 6813POPC   C4A25242  36.948   3.522   7.653
 6813POPC   C1B25243  37.188   3.649   8.553
 6813POPC   C2B25244  37.176   3.567   8.253
 6813POPC   C3B25245  37.144   3.596   7.953
 6813POPC   C4B25246  37.134   3.600   7.653
 6814POPC   NC325247  40.742  27.604   9.453
 6814POPC   PO425248  40.774  27.546   9.153
 6814POPC   GL125249  40.800  27.641   8.853
 6814POPC   GL225250  40.708  27.522   8.853
 6814POPC   C1A25251  40.783  27.587   8.553
 6814POPC   D2A25252  40.768  27.547   8.253
 6814POPC   C3A25253  40.781  27.556   7.953
 6814POPC   C4A25254  40.753  27.614   7.653
 6814POPC   C1B25255  40.588  27.531   8.553
 6814POPC   C2B25256  40.591  27.507   8.253
 6814POPC   C3B25257  40.580  27.549   7.953
 6814POPC   C4B25258  40.592  27.511   7.653
 6815POPC   NC325259  41.523  44.705   9.453
 6815POPC   PO425260  41.593  44.642   9.153
 6815POPC   GL125261  41.510  44.711   8.853
 6815POPC   GL225262  41.471  44.521   8.853
 6815POPC   C1A25263  41.567  44.612   8.553
 6815POPC   D2A25264  41.552  44.712   8.253
 6815POPC   C3A25265  41.584  44.697   7.953
 6815POPC   C4A25266  41.533  44.647   7.653
 6815POPC   C1B25267  41.457  44.384   8.553
 6815POPC   C2B25268  41.492  44.379   8.253
 6815POPC   C3B25269  41.508  44.428   7.953
 6815POPC   C4B25270  41.458  44.411   7.653
 6816POPC   NC325271  32.988  33.068   9.453
 6816POPC   PO425272  33.029  33.048   9.153
 6816POPC   GL125273  33.023  32.979   8.853
 6816POPC   GL225274  33.144  32.978   8.853
 6816POPC   C1A25275  32.984  33.030   8.553
 6816POPC   D2A25276  33.018  32.976   8.253
 6816POPC   C3A25277  33.005  32.983   7.953
 6816POPC   C4A25278  33.044  33.001   7.653
 6816POPC   C1B25279  33.268  32.980   8.553
 6816POPC   C2B25280  33.310  33.011   8.253
 6816POPC   C3B25281  33.242  33.016   7.953
 6816POPC   C4B25282  33.265  32.992   7.653
 6817POPC   NC325283  29.178  33.776   9.453
 6817POPC   PO425284  29.107  33.752   9.153
 6817POPC   GL125285  29.114  33.788   8.853
 6817POPC   GL225286  29.187  33.666   8.853
 6817POPC   C1A25287  29.101  33.821   8.553
 6817POPC   D2A25288  29.098  33.824   8.253
 6817POPC   C3A25289  29.146  33.785   7.953
 6817POPC   C4A25290  29.115  33.792   7.653
 6817POPC   C1B25291  29.327  33.653   8.553
 6817POPC   C2B25292  29.289  33.588   8.253
 6817POPC   C3B25293  29.301  33.566   7.953
 6817POPC   C4B25294  29.320  33.659   7.653
 6818POPC   NC325295   1.245  30.716   9.453
 6818POPC   PO425296   1.174  30.655   9.153
 6818POPC   GL125297   1.252  30.704   8.853
 6818POPC   GL225298   1.178  30.602   8.853
 6818POPC   C1A25299   1.188  30.695   8.553
 6818POPC   D2A25300   1.165  30.697   8.253
 6818POPC   C3A25301   1.212  30.676   7.953
 6818POPC   C4A25302   1.191  30.722   7.653
 6818POPC   C1B25303   1.050  30.527   8.553
 6818POPC   C2B25304   1.023  30.529   8.253
 6818POPC   C3B25305   1.057  30.545   7.953
 6818POPC   C4B25306   1.058  30.538   7.653
 6819POPC   NC325307  24.471  31.518   9.453
 6819POPC   PO425308  24.474  31.505   9.153
 6819POPC   GL125309  24.457  31.456   8.853
 6819POPC   GL225310  24.401  31.409   8.853
 6819POPC   C1A25311  24.482  31.502   8.553
 6819POPC   D2A25312  24.468  31.508   8.253
 6819POPC   C3A25313  24.528  31.476   7.953
 6819POPC   C4A25314  24.474  31.448   7.653
 6819POPC   C1B25315  24.403  31.266   8.553
 6819POPC   C2B25316  24.329  31.221   8.253
 6819POPC   C3B25317  24.345  31.261   7.953
 6819POPC   C4B25318  24.317  31.232   7.653
 6820POPC   NC325319   0.427   2.782   9.453
 6820POPC   PO425320   0.459   2.740   9.153
 6820POPC   GL125321   0.463   2.800   8.853
 6820POPC   GL225322   0.563   2.712   8.853
 6820POPC   C1A25323   0.397   2.746   8.553
 6820POPC   D2A25324   0.478   2.758   8.253
 6820POPC   C3A25325   0.470   2.814   7.953
 6820POPC   C4A25326   0.389   2.744   7.653
 6820POPC   C1B25327   0.689   2.782   8.553
 6820POPC   C2B25328   0.647   2.715   8.253
 6820POPC   C3B25329   0.690   2.730   7.953
 6820POPC   C4B25330   0.706   2.693   7.653
 6821POPC   NC325331   5.083  16.748   9.453
 6821POPC   PO425332   5.067  16.764   9.153
 6821POPC   GL125333   5.135  16.681   8.853
 6821POPC   GL225334   5.149  16.828   8.853
 6821POPC   C1A25335   5.063  16.728   8.553
 6821POPC   D2A25336   5.106  16.694   8.253
 6821POPC   C3A25337   5.086  16.747   7.953
 6821POPC   C4A25338   5.099  16.695   7.653
 6821POPC   C1B25339   5.204  16.924   8.553
 6821POPC   C2B25340   5.207  16.977   8.253
 6821POPC   C3B25341   5.194  16.929   7.953
 6821POPC   C4B25342   5.281  16.941   7.653
 6822POPC   NC325343  39.260  44.669   9.453
 6822POPC   PO425344  39.219  44.657   9.153
 6822POPC   GL125345  39.258  44.643   8.853
 6822POPC   GL225346  39.206  44.584   8.853
 6822POPC   C1A25347  39.216  44.668   8.553
 6822POPC   D2A25348  39.275  44.659   8.253
 6822POPC   C3A25349  39.244  44.711   7.953
 6822POPC   C4A25350  39.188  44.644   7.653
 6822POPC   C1B25351  39.172  44.388   8.553
 6822POPC   C2B25352  39.135  44.454   8.253
 6822POPC   C3B25353  39.169  44.433   7.953
 6822POPC   C4B25354  39.128  44.374   7.653
 6823POPC   NC325355  19.099  26.044   9.453
 6823POPC   PO425356  19.102  26.019   9.153
 6823POPC   GL125357  19.069  26.086   8.853
 6823POPC   GL225358  19.072  26.106   8.853
 6823POPC   C1A25359  19.023  25.993   8.553
 6823POPC   D2A25360  19.064  26.017   8.253
 6823POPC   C3A25361  19.088  26.013   7.953
 6823POPC   C4A25362  19.072  26.048   7.653
 6823POPC   C1B25363  19.178  26.293   8.553
 6823POPC   C2B25364  19.156  26.244   8.253
 6823POPC   C3B25365  19.125  26.304   7.953
 6823POPC   C4B25366  19.207  26.243   7.653
 6824POPC   NC325367   2.792  21.419   9.453
 6824POPC   PO425368   2.803  21.358   9.153
 6824POPC   GL125369   2.732  21.403   8.853
 6824POPC   GL225370   2.749  21.550   8.853
 6824POPC   C1A25371   2.763  21.360   8.553
 6824POPC   D2A25372   2.802  21.369   8.253
 6824POPC   C3A25373   2.762  21.425   7.953
 6824POPC   C4A25374   2.725  21.340   7.653
 6824POPC   C1B25375   2.715  21.682   8.553
 6824POPC   C2B25376   2.736  21.651   8.253
 6824POPC   C3B25377   2.753  21.648   7.953
 6824POPC   C4B25378   2.767  21.676   7.653
 6825POPC   NC325379  26.837  26.815   9.453
 6825POPC   PO425380  26.858  26.844   9.153
 6825POPC   GL125381  26.867  26.816   8.853
 6825POPC   GL225382  26.843  26.708   8.853
 6825POPC   C1A25383  26.778  26.849   8.553
 6825POPC   D2A25384  26.799  26.852   8.253
 6825POPC   C3A25385  26.863  26.805   7.953
 6825POPC   C4A25386  26.844  26.770   7.653
 6825POPC   C1B25387  26.842  26.531   8.553
 6825POPC   C2B25388  26.845  26.609   8.253
 6825POPC   C3B25389  26.909  26.551   7.953
 6825POPC   C4B25390  26.930  26.545   7.653
 6826POPC   NC325391  19.825   4.303   9.453
 6826POPC   PO425392  19.858   4.317   9.153
 6826POPC   GL125393  19.846   4.283   8.853
 6826POPC   GL225394  19.692   4.288   8.853
 6826POPC   C1A25395  19.808   4.296   8.553
 6826POPC   D2A25396  19.882   4.342   8.253
 6826POPC   C3A25397  19.827   4.327   7.953
 6826POPC   C4A25398  19.797   4.323   7.653
 6826POPC   C1B25399  19.559   4.278   8.553
 6826POPC   C2B25400  19.629   4.272   8.253
 6826POPC   C3B25401  19.607   4.265   7.953
 6826POPC   C4B25402  19.628   4.237   7.653
 6827POPC   NC325403  28.395  16.713   9.453
 6827POPC   PO425404  28.419  16.773   9.153
 6827POPC   GL125405  28.346  16.694   8.853
 6827POPC   GL225406  28.325  16.597   8.853
 6827POPC   C1A25407  28.371  16.706   8.553
 6827POPC   D2A25408  28.408  16.780   8.253
 6827POPC   C3A25409  28.399  16.687   7.953
 6827POPC   C4A25410  28.357  16.743   7.653
 6827POPC   C1B25411  28.215  16.565   8.553
 6827POPC   C2B25412  28.256  16.554   8.253
 6827POPC   C3B25413  28.200  16.520   7.953
 6827POPC   C4B25414  28.278  16.545   7.653
 6828POPC   NC325415   5.093  12.074   9.453
 6828POPC   PO425416   5.074  12.076   9.153
 6828POPC   GL125417   5.084  12.053   8.853
 6828POPC   GL225418   5.243  12.132   8.853
 6828POPC   C1A25419   5.103  12.027   8.553
 6828POPC   D2A25420   5.047  12.053   8.253
 6828POPC   C3A25421   5.098  12.041   7.953
 6828POPC   C4A25422   5.077  12.106   7.653
 6828POPC   C1B25423   5.314  12.186   8.553
 6828POPC   C2B25424   5.295  12.220   8.253
 6828POPC   C3B25425   5.337  12.271   7.953
 6828POPC   C4B25426   5.334  12.189   7.653
 6829POPC   NC325427  33.812  27.629   9.453
 6829POPC   PO425428  33.828  27.609   9.153
 6829POPC   GL125429  33.786  27.620   8.853
 6829POPC   GL225430  33.824  27.519   8.853
 6829POPC   C1A25431  33.847  27.614   8.553
 6829POPC   D2A25432  33.765  27.579   8.253
 6829POPC   C3A25433  33.771  27.639   7.953
 6829POPC   C4A25434  33.758  27.591   7.653
 6829POPC   C1B25435  33.886  27.311   8.553
 6829POPC   C2B25436  33.890  27.397   8.253
 6829POPC   C3B25437  33.849  27.348   7.953
 6829POPC   C4B25438  33.860  27.335   7.653
 6830POPC   NC325439  28.355   1.199   9.453
 6830POPC   PO425440  28.384   1.246   9.153
 6830POPC   GL125441  28.332   1.180   8.853
 6830POPC   GL225442  28.476   1.330   8.853
 6830POPC   C1A25443  28.411   1.258   8.553
 6830POPC   D2A25444  28.358   1.236   8.253
 6830POPC   C3A25445  28.384   1.188   7.953
 6830POPC   C4A25446  28.364   1.198   7.653
 6830POPC   C1B25447  28.500   1.396   8.553
 6830POPC   C2B25448  28.542   1.378   8.253
 6830POPC   C3B25449  28.508   1.371   7.953
 6830POPC   C4B25450  28.512   1.451   7.653
 6831POPC   NC325451  22.907  26.859   9.453
 6831POPC   PO425452  22.942  26.772   9.153
 6831POPC   GL125453  22.943  26.837   8.853
 6831POPC   GL225454  22.948  26.917   8.853
 6831POPC   C1A25455  22.905  26.842   8.553
 6831POPC   D2A25456  22.939  26.851   8.253
 6831POPC   C3A25457  22.914  26.841   7.953
 6831POPC   C4A25458  22.894  26.820   7.653
 6831POPC   C1B25459  22.956  27.051   8.553
 6831POPC   C2B25460  23.001  27.061   8.253
 6831POPC   C3B25461  23.000  27.049   7.953
 6831POPC   C4B25462  22.983  27.031   7.653
 6832POPC   NC325463  20.616  34.540   9.453
 6832POPC   PO425464  20.588  34.569   9.153
 6832POPC   GL125465  20.615  34.550   8.853
 6832POPC   GL225466  20.734  34.624   8.853
 6832POPC   C1A25467  20.610  34.545   8.553
 6832POPC   D2A25468  20.618  34.536   8.253
 6832POPC   C3A25469  20.569  34.569   7.953
 6832POPC   C4A25470  20.589  34.594   7.653
 6832POPC   C1B25471  20.811  34.563   8.553
 6832POPC   C2B25472  20.816  34.588   8.253
 6832POPC   C3B25473  20.853  34.618   7.953
 6832POPC   C4B25474  20.812  34.618   7.653
 6833POPC   NC325475  40.027  37.724   9.453
 6833POPC   PO425476  39.961  37.648   9.153
 6833POPC   GL125477  39.969  37.631   8.853
 6833POPC   GL225478  40.060  37.843   8.853
 6833POPC   C1A25479  39.977  37.712   8.553
 6833POPC   D2A25480  39.975  37.674   8.253
 6833POPC   C3A25481  40.052  37.700   7.953
 6833POPC   C4A25482  39.996  37.646   7.653
 6833POPC   C1B25483  40.017  37.893   8.553
 6833POPC   C2B25484  40.018  37.892   8.253
 6833POPC   C3B25485  39.986  37.906   7.953
 6833POPC   C4B25486  39.982  37.894   7.653
 6834POPC   NC325487   5.125  33.770   9.453
 6834POPC   PO425488   5.076  33.834   9.153
 6834POPC   GL125489   5.082  33.789   8.853
 6834POPC   GL225490   5.014  33.924   8.853
 6834POPC   C1A25491   5.132  33.798   8.553
 6834POPC   D2A25492   5.095  33.772   8.253
 6834POPC   C3A25493   5.120  33.827   7.953
 6834POPC   C4A25494   5.119  33.843   7.653
 6834POPC   C1B25495   4.946  33.975   8.553
 6834POPC   C2B25496   4.938  33.960   8.253
 6834POPC   C3B25497   4.948  34.017   7.953
 6834POPC   C4B25498   4.908  33.977   7.653
 6835POPC   NC325499  36.872  35.382   9.453
 6835POPC   PO425500  36.864  35.324   9.153
 6835POPC   GL125501  36.879  35.316   8.853
 6835POPC   GL225502  36.965  35.461   8.853
 6835POPC   C1A25503  36.948  35.318   8.553
 6835POPC   D2A25504  36.947  35.384   8.253
 6835POPC   C3A25505  36.945  35.304   7.953
 6835POPC   C4A25506  36.856  35.303   7.653
 6835POPC   C1B25507  37.026  35.602   8.553
 6835POPC   C2B25508  37.039  35.608   8.253
 6835POPC   C3B25509  36.988  35.558   7.953
 6835POPC   C4B25510  36.968  35.544   7.653
 6836POPC   NC325511  22.930   1.235   9.453
 6836POPC   PO425512  22.931   1.229   9.153
 6836POPC   GL125513  22.904   1.218   8.853
 6836POPC   GL225514  22.962   1.074   8.853
 6836POPC   C1A25515  22.964   1.248   8.553
 6836POPC   D2A25516  22.971   1.199   8.253
 6836POPC   C3A25517  22.924   1.203   7.953
 6836POPC   C4A25518  22.905   1.222   7.653
 6836POPC   C1B25519  22.946   1.007   8.553
 6836POPC   C2B25520  22.971   0.930   8.253
 6836POPC   C3B25521  22.896   0.983   7.953
 6836POPC   C4B25522  22.959   0.992   7.653
 6837POPC   NC325523  15.947  27.576   9.453
 6837POPC   PO425524  15.983  27.590   9.153
 6837POPC   GL125525  15.933  27.566   8.853
 6837POPC   GL225526  15.787  27.556   8.853
 6837POPC   C1A25527  15.908  27.634   8.553
 6837POPC   D2A25528  16.001  27.548   8.253
 6837POPC   C3A25529  15.972  27.573   7.953
 6837POPC   C4A25530  15.923  27.625   7.653
 6837POPC   C1B25531  15.715  27.509   8.553
 6837POPC   C2B25532  15.718  27.480   8.253
 6837POPC   C3B25533  15.700  27.567   7.953
 6837POPC   C4B25534  15.753  27.528   7.653
 6838POPC   NC325535  19.830  44.677   9.453
 6838POPC   PO425536  19.809  44.617   9.153
 6838POPC   GL125537  19.875  44.628   8.853
 6838POPC   GL225538  19.704  44.696   8.853
 6838POPC   C1A25539  19.807  44.683   8.553
 6838POPC   D2A25540  19.808  44.642   8.253
 6838POPC   C3A25541  19.810  44.688   7.953
 6838POPC   C4A25542  19.827  44.700   7.653
 6838POPC   C1B25543  19.641  44.832   8.553
 6838POPC   C2B25544  19.591  44.781   8.253
 6838POPC   C3B25545  19.597  44.837   7.953
 6838POPC   C4B25546  19.598  44.789   7.653
 6839POPC   NC325547  34.563  36.170   9.453
 6839POPC   PO425548  34.563  36.081   9.153
 6839POPC   GL125549  34.541  36.140   8.853
 6839POPC   GL225550  34.609  35.978   8.853
 6839POPC   C1A25551  34.600  36.137   8.553
 6839POPC   D2A25552  34.535  36.080   8.253
 6839POPC   C3A25553  34.537  36.095   7.953
 6839POPC   C4A25554  34.529  36.167   7.653
 6839POPC   C1B25555  34.553  35.875   8.553
 6839POPC   C2B25556  34.615  35.870   8.253
 6839POPC   C3B25557  34.619  35.894   7.953
 6839POPC   C4B25558  34.590  35.919   7.653
 6840POPC   NC325559  25.230  18.320   9.453
 6840POPC   PO425560  25.278  18.265   9.153
 6840POPC   GL125561  25.281  18.331   8.853
 6840POPC   GL225562  25.185  18.401   8.853
 6840POPC   C1A25563  25.268  18.251   8.553
 6840POPC   D2A25564  25.224  18.288   8.253
 6840POPC   C3A25565  25.267  18.246   7.953
 6840POPC   C4A25566  25.263  18.325   7.653
 6840POPC   C1B25567  25.076  18.406   8.553
 6840POPC   C2B25568  25.071  18.464   8.253
 6840POPC   C3B25569  25.097  18.464   7.953
 6840POPC   C4B25570  25.016  18.463   7.653
 6841POPC   NC325571  30.726   0.432   9.453
 6841POPC   PO425572  30.647   0.420   9.153
 6841POPC   GL125573  30.705   0.407   8.853
 6841POPC   GL225574  30.541   0.454   8.853
 6841POPC   C1A25575  30.671   0.399   8.553
 6841POPC   D2A25576  30.670   0.428   8.253
 6841POPC   C3A25577  30.720   0.425   7.953
 6841POPC   C4A25578  30.731   0.457   7.653
 6841POPC   C1B25579  30.496   0.424   8.553
 6841POPC   C2B25580  30.486   0.444   8.253
 6841POPC   C3B25581  30.416   0.463   7.953
 6841POPC   C4B25582  30.434   0.470   7.653
 6842POPC   NC325583  37.644  41.557   9.453
 6842POPC   PO425584  37.654  41.566   9.153
 6842POPC   GL125585  37.682  41.542   8.853
 6842POPC   GL225586  37.785  41.439   8.853
 6842POPC   C1A25587  37.723  41.602   8.553
 6842POPC   D2A25588  37.664  41.542   8.253
 6842POPC   C3A25589  37.642  41.595   7.953
 6842POPC   C4A25590  37.685  41.515   7.653
 6842POPC   C1B25591  37.829  41.360   8.553
 6842POPC   C2B25592  37.819  41.387   8.253
 6842POPC   C3B25593  37.869  41.359   7.953
 6842POPC   C4B25594  37.873  41.370   7.653
 6843POPC   NC325595  41.551  39.964   9.453
 6843POPC   PO425596  41.553  40.048   9.153
 6843POPC   GL125597  41.509  40.005   8.853
 6843POPC   GL225598  41.449  39.930   8.853
 6843POPC   C1A25599  41.580  40.043   8.553
 6843POPC   D2A25600  41.537  39.973   8.253
 6843POPC   C3A25601  41.554  40.017   7.953
 6843POPC   C4A25602  41.512  39.977   7.653
 6843POPC   C1B25603  41.319  39.836   8.553
 6843POPC   C2B25604  41.390  39.884   8.253
 6843POPC   C3B25605  41.316  39.895   7.953
 6843POPC   C4B25606  41.343  39.862   7.653
 6844POPC   NC325607  27.632  40.751   9.453
 6844POPC   PO425608  27.617  40.784   9.153
 6844POPC   GL125609  27.574  40.819   8.853
 6844POPC   GL225610  27.602  40.913   8.853
 6844POPC   C1A25611  27.579  40.768   8.553
 6844POPC   D2A25612  27.595  40.771   8.253
 6844POPC   C3A25613  27.633  40.786   7.953
 6844POPC   C4A25614  27.625  40.745   7.653
 6844POPC   C1B25615  27.520  41.013   8.553
 6844POPC   C2B25616  27.514  41.078   8.253
 6844POPC   C3B25617  27.542  41.002   7.953
 6844POPC   C4B25618  27.512  41.072   7.653
 6845POPC   NC325619  32.996  37.655   9.453
 6845POPC   PO425620  33.000  37.679   9.153
 6845POPC   GL125621  33.035  37.663   8.853
 6845POPC   GL225622  32.922  37.650   8.853
 6845POPC   C1A25623  33.017  37.691   8.553
 6845POPC   D2A25624  33.059  37.711   8.253
 6845POPC   C3A25625  33.004  37.700   7.953
 6845POPC   C4A25626  33.070  37.631   7.653
 6845POPC   C1B25627  32.834  37.526   8.553
 6845POPC   C2B25628  32.837  37.582   8.253
 6845POPC   C3B25629  32.802  37.590   7.953
 6845POPC   C4B25630  32.779  37.603   7.653
 6846POPC   NC325631  42.384  17.527   9.453
 6846POPC   PO425632  42.300  17.494   9.153
 6846POPC   GL125633  42.305  17.513   8.853
 6846POPC   GL225634  42.424  17.452   8.853
 6846POPC   C1A25635  42.332  17.490   8.553
 6846POPC   D2A25636  42.373  17.534   8.253
 6846POPC   C3A25637  42.368  17.483   7.953
 6846POPC   C4A25638  42.296  17.511   7.653
 6846POPC   C1B25639  42.553  17.523   8.553
 6846POPC   C2B25640  42.575  17.479   8.253
 6846POPC   C3B25641  42.587  17.478   7.953
 6846POPC   C4B25642  42.570  17.525   7.653
 6847POPC   NC325643  44.680  20.643   9.453
 6847POPC   PO425644  44.670  20.626   9.153
 6847POPC   GL125645  44.665  20.595   8.853
 6847POPC   GL225646  44.561  20.667   8.853
 6847POPC   C1A25647  44.628  20.562   8.553
 6847POPC   D2A25648  44.625  20.640   8.253
 6847POPC   C3A25649  44.643  20.596   7.953
 6847POPC   C4A25650  44.658  20.605   7.653
 6847POPC   C1B25651  44.446  20.730   8.553
 6847POPC   C2B25652  44.460  20.777   8.253
 6847POPC   C3B25653  44.471  20.739   7.953
 6847POPC   C4B25654  44.431  20.794   7.653
 6848POPC   NC325655  35.387  25.246   9.453
 6848POPC   PO425656  35.333  25.307   9.153
 6848POPC   GL125657  35.400  25.246   8.853
 6848POPC   GL225658  35.392  25.363   8.853
 6848POPC   C1A25659  35.381  25.306   8.553
 6848POPC   D2A25660  35.310  25.295   8.253
 6848POPC   C3A25661  35.382  25.237   7.953
 6848POPC   C4A25662  35.367  25.221   7.653
 6848POPC   C1B25663  35.338  25.551   8.553
 6848POPC   C2B25664  35.370  25.560   8.253
 6848POPC   C3B25665  35.366  25.472   7.953
 6848POPC   C4B25666  35.354  25.479   7.653
 6849POPC   NC325667  10.570  19.876   9.453
 6849POPC   PO425668  10.512  19.785   9.153
 6849POPC   GL125669  10.531  19.849   8.853
 6849POPC   GL225670  10.563  19.947   8.853
 6849POPC   C1A25671  10.490  19.864   8.553
 6849POPC   D2A25672  10.521  19.880   8.253
 6849POPC   C3A25673  10.558  19.849   7.953
 6849POPC   C4A25674  10.501  19.789   7.653
 6849POPC   C1B25675  10.665  20.056   8.553
 6849POPC   C2B25676  10.708  20.021   8.253
 6849POPC   C3B25677  10.701  20.034   7.953
 6849POPC   C4B25678  10.670  20.013   7.653
 6850POPC   NC325679   0.427  15.966   9.453
 6850POPC   PO425680   0.426  15.956   9.153
 6850POPC   GL125681   0.428  15.993   8.853
 6850POPC   GL225682   0.341  16.028   8.853
 6850POPC   C1A25683   0.426  15.961   8.553
 6850POPC   D2A25684   0.395  15.914   8.253
 6850POPC   C3A25685   0.390  15.913   7.953
 6850POPC   C4A25686   0.477  15.971   7.653
 6850POPC   C1B25687   0.291  16.098   8.553
 6850POPC   C2B25688   0.200  16.116   8.253
 6850POPC   C3B25689   0.269  16.159   7.953
 6850POPC   C4B25690   0.240  16.111   7.653
 6851POPC   NC325691  30.675  18.262   9.453
 6851POPC   PO425692  30.692  18.273   9.153
 6851POPC   GL125693  30.668  18.320   8.853
 6851POPC   GL225694  30.784  18.378   8.853
 6851POPC   C1A25695  30.726  18.253   8.553
 6851POPC   D2A25696  30.698  18.281   8.253
 6851POPC   C3A25697  30.727  18.289   7.953
 6851POPC   C4A25698  30.689  18.276   7.653
 6851POPC   C1B25699  30.801  18.502   8.553
 6851POPC   C2B25700  30.846  18.477   8.253
 6851POPC   C3B25701  30.859  18.491   7.953
 6851POPC   C4B25702  30.806  18.452   7.653
 6852POPC   NC325703  23.718   5.848   9.453
 6852POPC   PO425704  23.722   5.917   9.153
 6852POPC   GL125705  23.705   5.842   8.853
 6852POPC   GL225706  23.761   5.960   8.853
 6852POPC   C1A25707  23.738   5.868   8.553
 6852POPC   D2A25708  23.758   5.849   8.253
 6852POPC   C3A25709  23.679   5.871   7.953
 6852POPC   C4A25710  23.759   5.916   7.653
 6852POPC   C1B25711  23.758   6.161   8.553
 6852POPC   C2B25712  23.738   6.101   8.253
 6852POPC   C3B25713  23.808   6.075   7.953
 6852POPC   C4B25714  23.766   6.143   7.653
 6853POPC   NC325715   8.234   8.959   9.453
 6853POPC   PO425716   8.227   8.933   9.153
 6853POPC   GL125717   8.211   8.926   8.853
 6853POPC   GL225718   8.329   8.913   8.853
 6853POPC   C1A25719   8.167   8.964   8.553
 6853POPC   D2A25720   8.223   8.995   8.253
 6853POPC   C3A25721   8.238   9.004   7.953
 6853POPC   C4A25722   8.195   8.979   7.653
 6853POPC   C1B25723   8.463   8.937   8.553
 6853POPC   C2B25724   8.434   8.884   8.253
 6853POPC   C3B25725   8.452   8.941   7.953
 6853POPC   C4B25726   8.471   8.901   7.653
 6854POPC   NC325727  22.145  44.691   9.453
 6854POPC   PO425728  22.167  44.617   9.153
 6854POPC   GL125729  22.162  44.669   8.853
 6854POPC   GL225730  22.065  44.652   8.853
 6854POPC   C1A25731  22.116  44.657   8.553
 6854POPC   D2A25732  22.162  44.617   8.253
 6854POPC   C3A25733  22.191  44.657   7.953
 6854POPC   C4A25734  22.207  44.687   7.653
 6854POPC   C1B25735  21.901  44.604   8.553
 6854POPC   C2B25736  21.923  44.580   8.253
 6854POPC   C3B25737  21.966  44.568   7.953
 6854POPC   C4B25738  21.939  44.573   7.653
 6855POPC   NC325739  16.752  34.533   9.453
 6855POPC   PO425740  16.685  34.527   9.153
 6855POPC   GL125741  16.774  34.542   8.853
 6855POPC   GL225742  16.704  34.655   8.853
 6855POPC   C1A25743  16.705  34.559   8.553
 6855POPC   D2A25744  16.697  34.558   8.253
 6855POPC   C3A25745  16.687  34.550   7.953
 6855POPC   C4A25746  16.709  34.594   7.653
 6855POPC   C1B25747  16.767  34.775   8.553
 6855POPC   C2B25748  16.729  34.823   8.253
 6855POPC   C3B25749  16.740  34.843   7.953
 6855POPC   C4B25750  16.757  34.815   7.653
 6856POPC   NC325751  31.428  11.315   9.453
 6856POPC   PO425752  31.448  11.269   9.153
 6856POPC   GL125753  31.474  11.327   8.853
 6856POPC   GL225754  31.588  11.324   8.853
 6856POPC   C1A25755  31.472  11.283   8.553
 6856POPC   D2A25756  31.469  11.269   8.253
 6856POPC   C3A25757  31.467  11.256   7.953
 6856POPC   C4A25758  31.496  11.332   7.653
 6856POPC   C1B25759  31.679  11.253   8.553
 6856POPC   C2B25760  31.735  11.265   8.253
 6856POPC   C3B25761  31.730  11.316   7.953
 6856POPC   C4B25762  31.747  11.276   7.653
 6857POPC   NC325763  22.177  16.767   9.453
 6857POPC   PO425764  22.130  16.770   9.153
 6857POPC   GL125765  22.137  16.682   8.853
 6857POPC   GL225766  22.257  16.715   8.853
 6857POPC   C1A25767  22.122  16.722   8.553
 6857POPC   D2A25768  22.143  16.695   8.253
 6857POPC   C3A25769  22.118  16.741   7.953
 6857POPC   C4A25770  22.143  16.750   7.653
 6857POPC   C1B25771  22.393  16.829   8.553
 6857POPC   C2B25772  22.400  16.746   8.253
 6857POPC   C3B25773  22.359  16.791   7.953
 6857POPC   C4B25774  22.399  16.821   7.653
 6858POPC   NC325775  12.809   5.871   9.453
 6858POPC   PO425776  12.899   5.844   9.153
 6858POPC   GL125777  12.852   5.820   8.853
 6858POPC   GL225778  12.940   5.797   8.853
 6858POPC   C1A25779  12.847   5.848   8.553
 6858POPC   D2A25780  12.859   5.847   8.253
 6858POPC   C3A25781  12.822   5.878   7.953
 6858POPC   C4A25782  12.861   5.839   7.653
 6858POPC   C1B25783  12.914   5.592   8.553
 6858POPC   C2B25784  12.981   5.660   8.253
 6858POPC   C3B25785  12.884   5.612   7.953
 6858POPC   C4B25786  12.978   5.615   7.653
 6859POPC   NC325787  31.464  19.864   9.453
 6859POPC   PO425788  31.437  19.821   9.153
 6859POPC   GL125789  31.432  19.844   8.853
 6859POPC   GL225790  31.453  19.945   8.853
 6859POPC   C1A25791  31.447  19.863   8.553
 6859POPC   D2A25792  31.484  19.832   8.253
 6859POPC   C3A25793  31.490  19.855   7.953
 6859POPC   C4A25794  31.454  19.867   7.653
 6859POPC   C1B25795  31.424  20.069   8.553
 6859POPC   C2B25796  31.403  20.075   8.253
 6859POPC   C3B25797  31.411  20.041   7.953
 6859POPC   C4B25798  31.460  20.127   7.653
 6860POPC   NC325799  30.695  30.701   9.453
 6860POPC   PO425800  30.658  30.699   9.153
 6860POPC   GL125801  30.666  30.743   8.853
 6860POPC   GL225802  30.816  30.611   8.853
 6860POPC   C1A25803  30.657  30.708   8.553
 6860POPC   D2A25804  30.660  30.738   8.253
 6860POPC   C3A25805  30.746  30.675   7.953
 6860POPC   C4A25806  30.651  30.715   7.653
 6860POPC   C1B25807  30.902  30.568   8.553
 6860POPC   C2B25808  30.878  30.588   8.253
 6860POPC   C3B25809  30.945  30.550   7.953
 6860POPC   C4B25810  30.858  30.570   7.653
 6861POPC   NC325811  31.497  14.452   9.453
 6861POPC   PO425812  31.474  14.434   9.153
 6861POPC   GL125813  31.504  14.435   8.853
 6861POPC   GL225814  31.313  14.377   8.853
 6861POPC   C1A25815  31.477  14.369   8.553
 6861POPC   D2A25816  31.497  14.376   8.253
 6861POPC   C3A25817  31.515  14.450   7.953
 6861POPC   C4A25818  31.491  14.407   7.653
 6861POPC   C1B25819  31.282  14.315   8.553
 6861POPC   C2B25820  31.254  14.297   8.253
 6861POPC   C3B25821  31.217  14.331   7.953
 6861POPC   C4B25822  31.297  14.273   7.653
 6862POPC   NC325823  15.920  29.879   9.453
 6862POPC   PO425824  15.949  29.954   9.153
 6862POPC   GL125825  15.909  29.892   8.853
 6862POPC   GL225826  16.087  29.838   8.853
 6862POPC   C1A25827  15.983  29.918   8.553
 6862POPC   D2A25828  15.919  29.874   8.253
 6862POPC   C3A25829  15.952  29.916   7.953
 6862POPC   C4A25830  15.934  29.874   7.653
 6862POPC   C1B25831  16.111  29.757   8.553
 6862POPC   C2B25832  16.144  29.704   8.253
 6862POPC   C3B25833  16.162  29.701   7.953
 6862POPC   C4B25834  16.143  29.749   7.653
 6863POPC   NC325835  35.337   8.205   9.453
 6863POPC   PO425836  35.307   8.169   9.153
 6863POPC   GL125837  35.376   8.198   8.853
 6863POPC   GL225838  35.414   8.134   8.853
 6863POPC   C1A25839  35.323   8.202   8.553
 6863POPC   D2A25840  35.346   8.225   8.253
 6863POPC   C3A25841  35.332   8.150   7.953
 6863POPC   C4A25842  35.401   8.193   7.653
 6863POPC   C1B25843  35.536   8.017   8.553
 6863POPC   C2B25844  35.466   7.986   8.253
 6863POPC   C3B25845  35.476   8.021   7.953
 6863POPC   C4B25846  35.480   7.984   7.653
 6864POPC   NC325847  15.978   8.995   9.453
 6864POPC   PO425848  15.925   8.972   9.153
 6864POPC   GL125849  15.950   8.935   8.853
 6864POPC   GL225850  15.793   8.892   8.853
 6864POPC   C1A25851  15.958   8.950   8.553
 6864POPC   D2A25852  15.925   8.982   8.253
 6864POPC   C3A25853  15.925   8.941   7.953
 6864POPC   C4A25854  15.916   8.996   7.653
 6864POPC   C1B25855  15.705   8.862   8.553
 6864POPC   C2B25856  15.721   8.857   8.253
 6864POPC   C3B25857  15.699   8.901   7.953
 6864POPC   C4B25858  15.729   8.889   7.653
 6865POPC   NC325859  25.293  43.876   9.453
 6865POPC   PO425860  25.314  43.881   9.153
 6865POPC   GL125861  25.263  43.859   8.853
 6865POPC   GL225862  25.339  43.990   8.853
 6865POPC   C1A25863  25.290  43.891   8.553
 6865POPC   D2A25864  25.247  43.893   8.253
 6865POPC   C3A25865  25.269  43.884   7.953
 6865POPC   C4A25866  25.308  43.884   7.653
 6865POPC   C1B25867  25.379  44.159   8.553
 6865POPC   C2B25868  25.348  44.080   8.253
 6865POPC   C3B25869  25.317  44.149   7.953
 6865POPC   C4B25870  25.383  44.174   7.653
 6866POPC   NC325871  40.828   1.255   9.453
 6866POPC   PO425872  40.805   1.215   9.153
 6866POPC   GL125873  40.824   1.196   8.853
 6866POPC   GL225874  40.666   1.311   8.853
 6866POPC   C1A25875  40.800   1.258   8.553
 6866POPC   D2A25876  40.821   1.225   8.253
 6866POPC   C3A25877  40.802   1.222   7.953
 6866POPC   C4A25878  40.741   1.259   7.653
 6866POPC   C1B25879  40.540   1.297   8.553
 6866POPC   C2B25880  40.580   1.333   8.253
 6866POPC   C3B25881  40.526   1.308   7.953
 6866POPC   C4B25882  40.582   1.354   7.653
 6867POPC   NC325883  19.073  13.588   9.453
 6867POPC   PO425884  19.089  13.617   9.153
 6867POPC   GL125885  19.082  13.665   8.853
 6867POPC   GL225886  18.960  13.554   8.853
 6867POPC   C1A25887  19.045  13.609   8.553
 6867POPC   D2A25888  19.071  13.580   8.253
 6867POPC   C3A25889  19.026  13.643   7.953
 6867POPC   C4A25890  19.098  13.656   7.653
 6867POPC   C1B25891  18.792  13.531   8.553
 6867POPC   C2B25892  18.867  13.498   8.253
 6867POPC   C3B25893  18.833  13.504   7.953
 6867POPC   C4B25894  18.832  13.577   7.653
 6868POPC   NC325895  34.613  15.912   9.453
 6868POPC   PO425896  34.602  15.960   9.153
 6868POPC   GL125897  34.596  15.935   8.853
 6868POPC   GL225898  34.725  15.893   8.853
 6868POPC   C1A25899  34.530  15.929   8.553
 6868POPC   D2A25900  34.553  15.994   8.253
 6868POPC   C3A25901  34.600  15.908   7.953
 6868POPC   C4A25902  34.618  16.004   7.653
 6868POPC   C1B25903  34.745  15.863   8.553
 6868POPC   C2B25904  34.761  15.865   8.253
 6868POPC   C3B25905  34.737  15.848   7.953
 6868POPC   C4B25906  34.794  15.803   7.653
 6869POPC   NC325907  29.097  29.137   9.453
 6869POPC   PO425908  29.186  29.109   9.153
 6869POPC   GL125909  29.169  29.177   8.853
 6869POPC   GL225910  29.186  29.226   8.853
 6869POPC   C1A25911  29.116  29.168   8.553
 6869POPC   D2A25912  29.123  29.136   8.253
 6869POPC   C3A25913  29.118  29.130   7.953
 6869POPC   C4A25914  29.095  29.100   7.653
 6869POPC   C1B25915  29.194  29.424   8.553
 6869POPC   C2B25916  29.175  29.363   8.253
 6869POPC   C3B25917  29.196  29.357   7.953
 6869POPC   C4B25918  29.210  29.380   7.653
 6870POPC   NC325919  21.432   8.163   9.453
 6870POPC   PO425920  21.343   8.198   9.153
 6870POPC   GL125921  21.401   8.203   8.853
 6870POPC   GL225922  21.458   8.287   8.853
 6870POPC   C1A25923  21.431   8.169   8.553
 6870POPC   D2A25924  21.370   8.205   8.253
 6870POPC   C3A25925  21.434   8.186   7.953
 6870POPC   C4A25926  21.416   8.202   7.653
 6870POPC   C1B25927  21.580   8.350   8.553
 6870POPC   C2B25928  21.531   8.322   8.253
 6870POPC   C3B25929  21.584   8.392   7.953
 6870POPC   C4B25930  21.610   8.340   7.653
 6871POPC   NC325931   4.320  14.370   9.453
 6871POPC   PO425932   4.281  14.354   9.153
 6871POPC   GL125933   4.338  14.362   8.853
 6871POPC   GL225934   4.208  14.411   8.853
 6871POPC   C1A25935   4.367  14.413   8.553
 6871POPC   D2A25936   4.289  14.428   8.253
 6871POPC   C3A25937   4.342  14.436   7.953
 6871POPC   C4A25938   4.278  14.394   7.653
 6871POPC   C1B25939   4.091  14.302   8.553
 6871POPC   C2B25940   4.062  14.349   8.253
 6871POPC   C3B25941   4.085  14.310   7.953
 6871POPC   C4B25942   4.077  14.351   7.653
 6872POPC   NC325943  22.198   6.685   9.453
 6872POPC   PO425944  22.182   6.606   9.153
 6872POPC   GL125945  22.208   6.611   8.853
 6872POPC   GL225946  22.287   6.521   8.853
 6872POPC   C1A25947  22.114   6.634   8.553
 6872POPC   D2A25948  22.147   6.687   8.253
 6872POPC   C3A25949  22.134   6.637   7.953
 6872POPC   C4A25950  22.197   6.635   7.653
 6872POPC   C1B25951  22.325   6.462   8.553
 6872POPC   C2B25952  22.308   6.446   8.253
 6872POPC   C3B25953  22.315   6.409   7.953
 6872POPC   C4B25954  22.368   6.459   7.653
 6873POPC   NC325955  40.055  39.196   9.453
 6873POPC   PO425956  40.027  39.242   9.153
 6873POPC   GL125957  40.018  39.238   8.853
 6873POPC   GL225958  40.126  39.284   8.853
 6873POPC   C1A25959  39.986  39.208   8.553
 6873POPC   D2A25960  40.037  39.184   8.253
 6873POPC   C3A25961  39.992  39.221   7.953
 6873POPC   C4A25962  39.999  39.182   7.653
 6873POPC   C1B25963  40.216  39.375   8.553
 6873POPC   C2B25964  40.258  39.357   8.253
 6873POPC   C3B25965  40.177  39.324   7.953
 6873POPC   C4B25966  40.199  39.335   7.653
 6874POPC   NC325967  43.934   0.464   9.453
 6874POPC   PO425968  43.918   0.419   9.153
 6874POPC   GL125969  43.903   0.420   8.853
 6874POPC   GL225970  43.749   0.357   8.853
 6874POPC   C1A25971  43.913   0.462   8.553
 6874POPC   D2A25972  43.917   0.466   8.253
 6874POPC   C3A25973  43.871   0.475   7.953
 6874POPC   C4A25974  43.863   0.397   7.653
 6874POPC   C1B25975  43.723   0.321   8.553
 6874POPC   C2B25976  43.678   0.296   8.253
 6874POPC   C3B25977  43.666   0.254   7.953
 6874POPC   C4B25978  43.698   0.293   7.653
 6875POPC   NC325979  28.380  38.455   9.453
 6875POPC   PO425980  28.329  38.455   9.153
 6875POPC   GL125981  28.379  38.409   8.853
 6875POPC   GL225982  28.254  38.549   8.853
 6875POPC   C1A25983  28.361  38.456   8.553
 6875POPC   D2A25984  28.351  38.497   8.253
 6875POPC   C3A25985  28.326  38.485   7.953
 6875POPC   C4A25986  28.330  38.485   7.653
 6875POPC   C1B25987  28.112  38.600   8.553
 6875POPC   C2B25988  28.191  38.580   8.253
 6875POPC   C3B25989  28.148  38.528   7.953
 6875POPC   C4B25990  28.149  38.598   7.653
 6876POPC   NC325991  29.921  24.496   9.453
 6876POPC   PO425992  29.943  24.450   9.153
 6876POPC   GL125993  29.951  24.488   8.853
 6876POPC   GL225994  29.974  24.387   8.853
 6876POPC   C1A25995  29.967  24.456   8.553
 6876POPC   D2A25996  29.924  24.479   8.253
 6876POPC   C3A25997  29.895  24.445   7.953
 6876POPC   C4A25998  29.908  24.482   7.653
 6876POPC   C1B25999  30.129  24.369   8.553
 6876POPC   C2B26000  30.146  24.362   8.253
 6876POPC   C3B26001  30.127  24.365   7.953
 6876POPC   C4B26002  30.100  24.346   7.653
 6877POPC   NC326003   1.197  12.036   9.453
 6877POPC   PO426004   1.168  12.099   9.153
 6877POPC   GL126005   1.232  12.124   8.853
 6877POPC   GL226006   1.271  12.211   8.853
 6877POPC   C1A26007   1.185  12.040   8.553
 6877POPC   D2A26008   1.166  12.084   8.253
 6877POPC   C3A26009   1.166  12.035   7.953
 6877POPC   C4A26010   1.243  12.075   7.653
 6877POPC   C1B26011   1.347  12.253   8.553
 6877POPC   C2B26012   1.352  12.207   8.253
 6877POPC   C3B26013   1.375  12.219   7.953
 6877POPC   C4B26014   1.425  12.262   7.653
 6878POPC   NC326015  44.623  22.902   9.453
 6878POPC   PO426016  44.645  22.916   9.153
 6878POPC   GL126017  44.636  22.955   8.853
 6878POPC   GL226018  44.737  22.808   8.853
 6878POPC   C1A26019  44.679  22.889   8.553
 6878POPC   D2A26020  44.686  22.924   8.253
 6878POPC   C3A26021  44.645  22.891   7.953
 6878POPC   C4A26022  44.685  22.910   7.653
 6878POPC   C1B26023  44.781  22.778   8.553
 6878POPC   C2B26024  44.835  22.749   8.253
 6878POPC   C3B26025  44.860  22.742   7.953
 6878POPC   C4B26026  44.800  22.715   7.653
 6879POPC   NC326027  22.115  25.222   9.453
 6879POPC   PO426028  22.123  25.265   9.153
 6879POPC   GL126029  22.156  25.260   8.853
 6879POPC   GL226030  21.990  25.251   8.853
 6879POPC   C1A26031  22.206  25.245   8.553
 6879POPC   D2A26032  22.189  25.255   8.253
 6879POPC   C3A26033  22.137  25.233   7.953
 6879POPC   C4A26034  22.142  25.234   7.653
 6879POPC   C1B26035  21.888  25.269   8.553
 6879POPC   C2B26036  21.951  25.303   8.253
 6879POPC   C3B26037  21.951  25.300   7.953
 6879POPC   C4B26038  21.956  25.353   7.653
 6880POPC   NC326039  26.074   0.420   9.453
 6880POPC   PO426040  26.003   0.423   9.153
 6880POPC   GL126041  26.081   0.455   8.853
 6880POPC   GL226042  25.950   0.506   8.853
 6880POPC   C1A26043  26.082   0.409   8.553
 6880POPC   D2A26044  26.037   0.409   8.253
 6880POPC   C3A26045  26.012   0.465   7.953
 6880POPC   C4A26046  26.069   0.407   7.653
 6880POPC   C1B26047  25.830   0.523   8.553
 6880POPC   C2B26048  25.769   0.529   8.253
 6880POPC   C3B26049  25.799   0.528   7.953
 6880POPC   C4B26050  25.814   0.527   7.653
 6881POPC   NC326051   4.353  40.041   9.453
 6881POPC   PO426052   4.299  40.047   9.153
 6881POPC   GL126053   4.341  39.984   8.853
 6881POPC   GL226054   4.302  39.900   8.853
 6881POPC   C1A26055   4.311  40.049   8.553
 6881POPC   D2A26056   4.273  40.002   8.253
 6881POPC   C3A26057   4.355  39.978   7.953
 6881POPC   C4A26058   4.353  40.049   7.653
 6881POPC   C1B26059   4.169  39.805   8.553
 6881POPC   C2B26060   4.162  39.748   8.253
 6881POPC   C3B26061   4.161  39.746   7.953
 6881POPC   C4B26062   4.209  39.820   7.653
 6882POPC   NC326063   8.168   5.077   9.453
 6882POPC   PO426064   8.158   5.098   9.153
 6882POPC   GL126065   8.167   5.052   8.853
 6882POPC   GL226066   8.267   4.957   8.853
 6882POPC   C1A26067   8.231   5.105   8.553
 6882POPC   D2A26068   8.162   5.115   8.253
 6882POPC   C3A26069   8.221   5.114   7.953
 6882POPC   C4A26070   8.152   5.096   7.653
 6882POPC   C1B26071   8.365   4.902   8.553
 6882POPC   C2B26072   8.333   4.887   8.253
 6882POPC   C3B26073   8.284   4.921   7.953
 6882POPC   C4B26074   8.366   4.840   7.653
 6883POPC   NC326075  30.656  20.567   9.453
 6883POPC   PO426076  30.728  20.592   9.153
 6883POPC   GL126077  30.679  20.601   8.853
 6883POPC   GL226078  30.825  20.511   8.853
 6883POPC   C1A26079  30.733  20.567   8.553
 6883POPC   D2A26080  30.702  20.611   8.253
 6883POPC   C3A26081  30.718  20.641   7.953
 6883POPC   C4A26082  30.725  20.642   7.653
 6883POPC   C1B26083  30.910  20.536   8.553
 6883POPC   C2B26084  30.968  20.525   8.253
 6883POPC   C3B26085  30.964  20.467   7.953
 6883POPC   C4B26086  30.910  20.541   7.653
 6884POPC   NC326087   4.353  32.996   9.453
 6884POPC   PO426088   4.326  32.980   9.153
 6884POPC   GL126089   4.339  33.068   8.853
 6884POPC   GL226090   4.340  33.165   8.853
 6884POPC   C1A26091   4.343  32.993   8.553
 6884POPC   D2A26092   4.294  33.021   8.253
 6884POPC   C3A26093   4.345  33.056   7.953
 6884POPC   C4A26094   4.288  33.010   7.653
 6884POPC   C1B26095   4.411  33.215   8.553
 6884POPC   C2B26096   4.412  33.277   8.253
 6884POPC   C3B26097   4.403  33.306   7.953
 6884POPC   C4B26098   4.425  33.295   7.653
 6885POPC   NC326099  13.611  18.261   9.453
 6885POPC   PO426100  13.632  18.275   9.153
 6885POPC   GL126101  13.579  18.291   8.853
 6885POPC   GL226102  13.753  18.239   8.853
 6885POPC   C1A26103  13.657  18.308   8.553
 6885POPC   D2A26104  13.630  18.275   8.253
 6885POPC   C3A26105  13.673  18.290   7.953
 6885POPC   C4A26106  13.601  18.280   7.653
 6885POPC   C1B26107  13.821  18.083   8.553
 6885POPC   C2B26108  13.788  18.069   8.253
 6885POPC   C3B26109  13.746  18.111   7.953
 6885POPC   C4B26110  13.744  18.049   7.653
 6886POPC   NC326111  32.291  18.328   9.453
 6886POPC   PO426112  32.209  18.293   9.153
 6886POPC   GL126113  32.199  18.256   8.853
 6886POPC   GL226114  32.184  18.175   8.853
 6886POPC   C1A26115  32.209  18.293   8.553
 6886POPC   D2A26116  32.228  18.333   8.253
 6886POPC   C3A26117  32.226  18.274   7.953
 6886POPC   C4A26118  32.200  18.320   7.653
 6886POPC   C1B26119  32.136  18.050   8.553
 6886POPC   C2B26120  32.075  18.065   8.253
 6886POPC   C3B26121  32.097  18.105   7.953
 6886POPC   C4B26122  32.130  18.078   7.653
 6887POPC   NC326123  36.088  41.579   9.453
 6887POPC   PO426124  36.133  41.511   9.153
 6887POPC   GL126125  36.141  41.548   8.853
 6887POPC   GL226126  36.065  41.544   8.853
 6887POPC   C1A26127  36.175  41.584   8.553
 6887POPC   D2A26128  36.080  41.517   8.253
 6887POPC   C3A26129  36.153  41.534   7.953
 6887POPC   C4A26130  36.148  41.551   7.653
 6887POPC   C1B26131  35.928  41.423   8.553
 6887POPC   C2B26132  35.891  41.416   8.253
 6887POPC   C3B26133  35.884  41.411   7.953
 6887POPC   C4B26134  35.937  41.470   7.653
 6888POPC   NC326135  19.027  22.961   9.453
 6888POPC   PO426136  19.033  22.948   9.153
 6888POPC   GL126137  19.082  22.937   8.853
 6888POPC   GL226138  19.125  22.997   8.853
 6888POPC   C1A26139  19.077  22.919   8.553
 6888POPC   D2A26140  19.034  22.967   8.253
 6888POPC   C3A26141  19.067  22.977   7.953
 6888POPC   C4A26142  19.072  22.897   7.653
 6888POPC   C1B26143  19.279  23.092   8.553
 6888POPC   C2B26144  19.276  23.112   8.253
 6888POPC   C3B26145  19.281  23.165   7.953
 6888POPC   C4B26146  19.280  23.069   7.653
 6889POPC   NC326147  43.915   1.990   9.453
 6889POPC   PO426148  43.904   2.013   9.153
 6889POPC   GL126149  43.868   2.008   8.853
 6889POPC   GL226150  43.813   2.076   8.853
 6889POPC   C1A26151  43.901   1.984   8.553
 6889POPC   D2A26152  43.849   1.944   8.253
 6889POPC   C3A26153  43.866   1.984   7.953
 6889POPC   C4A26154  43.891   2.006   7.653
 6889POPC   C1B26155  43.770   2.198   8.553
 6889POPC   C2B26156  43.783   2.275   8.253
 6889POPC   C3B26157  43.827   2.240   7.953
 6889POPC   C4B26158  43.795   2.194   7.653
 6890POPC   NC326159  35.358  40.030   9.453
 6890POPC   PO426160  35.310  40.057   9.153
 6890POPC   GL126161  35.393  40.037   8.853
 6890POPC   GL226162  35.319  39.849   8.853
 6890POPC   C1A26163  35.330  40.003   8.553
 6890POPC   D2A26164  35.402  40.049   8.253
 6890POPC   C3A26165  35.386  39.965   7.953
 6890POPC   C4A26166  35.347  40.002   7.653
 6890POPC   C1B26167  35.249  39.804   8.553
 6890POPC   C2B26168  35.231  39.776   8.253
 6890POPC   C3B26169  35.257  39.749   7.953
 6890POPC   C4B26170  35.207  39.775   7.653
 6891POPC   NC326171  37.637  31.519   9.453
 6891POPC   PO426172  37.649  31.481   9.153
 6891POPC   GL126173  37.711  31.479   8.853
 6891POPC   GL226174  37.740  31.611   8.853
 6891POPC   C1A26175  37.639  31.478   8.553
 6891POPC   D2A26176  37.724  31.460   8.253
 6891POPC   C3A26177  37.677  31.497   7.953
 6891POPC   C4A26178  37.659  31.480   7.653
 6891POPC   C1B26179  37.697  31.728   8.553
 6891POPC   C2B26180  37.744  31.735   8.253
 6891POPC   C3B26181  37.670  31.751   7.953
 6891POPC   C4B26182  37.698  31.693   7.653
 6892POPC   NC326183   2.039   8.960   9.453
 6892POPC   PO426184   1.989   8.964   9.153
 6892POPC   GL126185   2.022   9.000   8.853
 6892POPC   GL226186   1.899   8.984   8.853
 6892POPC   C1A26187   1.969   8.970   8.553
 6892POPC   D2A26188   1.941   9.008   8.253
 6892POPC   C3A26189   1.951   8.940   7.953
 6892POPC   C4A26190   1.984   9.006   7.653
 6892POPC   C1B26191   1.743   8.973   8.553
 6892POPC   C2B26192   1.738   9.036   8.253
 6892POPC   C3B26193   1.770   9.042   7.953
 6892POPC   C4B26194   1.781   9.005   7.653
 6893POPC   NC326195  42.352   1.968   9.453
 6893POPC   PO426196  42.374   1.942   9.153
 6893POPC   GL126197  42.303   1.979   8.853
 6893POPC   GL226198  42.346   1.819   8.853
 6893POPC   C1A26199  42.326   1.944   8.553
 6893POPC   D2A26200  42.304   1.976   8.253
 6893POPC   C3A26201  42.285   1.992   7.953
 6893POPC   C4A26202  42.310   1.974   7.653
 6893POPC   C1B26203  42.300   1.742   8.553
 6893POPC   C2B26204  42.281   1.711   8.253
 6893POPC   C3B26205  42.250   1.782   7.953
 6893POPC   C4B26206  42.321   1.775   7.653
 6894POPC   NC326207  12.059  41.564   9.453
 6894POPC   PO426208  12.088  41.538   9.153
 6894POPC   GL126209  12.032  41.573   8.853
 6894POPC   GL226210  12.022  41.501   8.853
 6894POPC   C1A26211  12.031  41.558   8.553
 6894POPC   D2A26212  12.088  41.509   8.253
 6894POPC   C3A26213  12.080  41.528   7.953
 6894POPC   C4A26214  12.067  41.597   7.653
 6894POPC   C1B26215  11.892  41.404   8.553
 6894POPC   C2B26216  11.867  41.335   8.253
 6894POPC   C3B26217  11.954  41.395   7.953
 6894POPC   C4B26218  11.891  41.388   7.653
 6895POPC   NC326219  22.950  34.597   9.453
 6895POPC   PO426220  22.896  34.561   9.153
 6895POPC   GL126221  22.933  34.566   8.853
 6895POPC   GL226222  22.872  34.547   8.853
 6895POPC   C1A26223  22.926  34.609   8.553
 6895POPC   D2A26224  22.980  34.530   8.253
 6895POPC   C3A26225  22.943  34.553   7.953
 6895POPC   C4A26226  22.947  34.604   7.653
 6895POPC   C1B26227  22.724  34.482   8.553
 6895POPC   C2B26228  22.739  34.442   8.253
 6895POPC   C3B26229  22.736  34.439   7.953
 6895POPC   C4B26230  22.747  34.441   7.653
 6896POPC   NC326231  26.850  22.140   9.453
 6896POPC   PO426232  26.772  22.113   9.153
 6896POPC   GL126233  26.827  22.155   8.853
 6896POPC   GL226234  26.711  22.108   8.853
 6896POPC   C1A26235  26.836  22.210   8.553
 6896POPC   D2A26236  26.839  22.208   8.253
 6896POPC   C3A26237  26.811  22.163   7.953
 6896POPC   C4A26238  26.772  22.129   7.653
 6896POPC   C1B26239  26.574  22.144   8.553
 6896POPC   C2B26240  26.527  22.094   8.253
 6896POPC   C3B26241  26.539  22.098   7.953
 6896POPC   C4B26242  26.591  22.143   7.653
 6897POPC   NC326243  15.158  15.146   9.453
 6897POPC   PO426244  15.145  15.131   9.153
 6897POPC   GL126245  15.187  15.135   8.853
 6897POPC   GL226246  15.272  15.131   8.853
 6897POPC   C1A26247  15.173  15.174   8.553
 6897POPC   D2A26248  15.136  15.154   8.253
 6897POPC   C3A26249  15.142  15.136   7.953
 6897POPC   C4A26250  15.130  15.187   7.653
 6897POPC   C1B26251  15.453  15.045   8.553
 6897POPC   C2B26252  15.412  15.036   8.253
 6897POPC   C3B26253  15.453  15.122   7.953
 6897POPC   C4B26254  15.372  15.063   7.653
 6898POPC   NC326255   3.545  22.129   9.453
 6898POPC   PO426256   3.571  22.181   9.153
 6898POPC   GL126257   3.496  22.167   8.853
 6898POPC   GL226258   3.559  22.043   8.853
 6898POPC   C1A26259   3.534  22.115   8.553
 6898POPC   D2A26260   3.496  22.169   8.253
 6898POPC   C3A26261   3.529  22.173   7.953
 6898POPC   C4A26262   3.549  22.113   7.653
 6898POPC   C1B26263   3.562  21.909   8.553
 6898POPC   C2B26264   3.570  21.885   8.253
 6898POPC   C3B26265   3.620  21.963   7.953
 6898POPC   C4B26266   3.595  21.921   7.653
 6899POPC   NC326267   6.629  29.103   9.453
 6899POPC   PO426268   6.635  29.192   9.153
 6899POPC   GL126269   6.675  29.171   8.853
 6899POPC   GL226270   6.507  29.176   8.853
 6899POPC   C1A26271   6.617  29.106   8.553
 6899POPC   D2A26272   6.652  29.103   8.253
 6899POPC   C3A26273   6.644  29.143   7.953
 6899POPC   C4A26274   6.640  29.121   7.653
 6899POPC   C1B26275   6.431  29.073   8.553
 6899POPC   C2B26276   6.441  29.095   8.253
 6899POPC   C3B26277   6.408  29.111   7.953
 6899POPC   C4B26278   6.417  29.113   7.653
 6900POPC   NC326279  43.896  38.444   9.453
 6900POPC   PO426280  43.851  38.434   9.153
 6900POPC   GL126281  43.912  38.451   8.853
 6900POPC   GL226282  43.955  38.519   8.853
 6900POPC   C1A26283  43.912  38.433   8.553
 6900POPC   D2A26284  43.863  38.487   8.253
 6900POPC   C3A26285  43.889  38.442   7.953
 6900POPC   C4A26286  43.893  38.502   7.653
 6900POPC   C1B26287  44.084  38.575   8.553
 6900POPC   C2B26288  44.037  38.610   8.253
 6900POPC   C3B26289  44.125  38.594   7.953
 6900POPC   C4B26290  44.041  38.585   7.653
 6901POPC   NC326291  10.477  29.193   9.453
 6901POPC   PO426292  10.542  29.116   9.153
 6901POPC   GL126293  10.535  29.155   8.853
 6901POPC   GL226294  10.361  29.175   8.853
 6901POPC   C1A26295  10.554  29.134   8.553
 6901POPC   D2A26296  10.570  29.119   8.253
 6901POPC   C3A26297  10.523  29.116   7.953
 6901POPC   C4A26298  10.524  29.111   7.653
 6901POPC   C1B26299  10.324  29.147   8.553
 6901POPC   C2B26300  10.280  29.147   8.253
 6901POPC   C3B26301  10.295  29.194   7.953
 6901POPC   C4B26302  10.264  29.212   7.653
 6902POPC   NC326303  19.096  28.341   9.453
 6902POPC   PO426304  19.050  28.354   9.153
 6902POPC   GL126305  19.097  28.327   8.853
 6902POPC   GL226306  19.147  28.508   8.853
 6902POPC   C1A26307  19.028  28.366   8.553
 6902POPC   D2A26308  19.014  28.334   8.253
 6902POPC   C3A26309  19.061  28.368   7.953
 6902POPC   C4A26310  19.058  28.408   7.653
 6902POPC   C1B26311  19.247  28.543   8.553
 6902POPC   C2B26312  19.235  28.518   8.253
 6902POPC   C3B26313  19.187  28.604   7.953
 6902POPC   C4B26314  19.209  28.592   7.653
 6903POPC   NC326315  41.541  26.055   9.453
 6903POPC   PO426316  41.549  26.086   9.153
 6903POPC   GL126317  41.599  26.065   8.853
 6903POPC   GL226318  41.548  26.199   8.853
 6903POPC   C1A26319  41.573  26.013   8.553
 6903POPC   D2A26320  41.595  26.045   8.253
 6903POPC   C3A26321  41.589  26.045   7.953
 6903POPC   C4A26322  41.536  26.043   7.653
 6903POPC   C1B26323  41.627  26.319   8.553
 6903POPC   C2B26324  41.595  26.259   8.253
 6903POPC   C3B26325  41.637  26.315   7.953
 6903POPC   C4B26326  41.609  26.328   7.653
 6904POPC   NC326327  40.827  24.480   9.453
 6904POPC   PO426328  40.757  24.464   9.153
 6904POPC   GL126329  40.741  24.470   8.853
 6904POPC   GL226330  40.741  24.659   8.853
 6904POPC   C1A26331  40.818  24.491   8.553
 6904POPC   D2A26332  40.735  24.505   8.253
 6904POPC   C3A26333  40.749  24.500   7.953
 6904POPC   C4A26334  40.782  24.454   7.653
 6904POPC   C1B26335  40.767  24.715   8.553
 6904POPC   C2B26336  40.736  24.689   8.253
 6904POPC   C3B26337  40.708  24.700   7.953
 6904POPC   C4B26338  40.750  24.738   7.653
 6905POPC   NC326339   4.286  21.364   9.453
 6905POPC   PO426340   4.284  21.366   9.153
 6905POPC   GL126341   4.268  21.364   8.853
 6905POPC   GL226342   4.247  21.515   8.853
 6905POPC   C1A26343   4.366  21.345   8.553
 6905POPC   D2A26344   4.309  21.380   8.253
 6905POPC   C3A26345   4.289  21.404   7.953
 6905POPC   C4A26346   4.295  21.348   7.653
 6905POPC   C1B26347   4.268  21.614   8.553
 6905POPC   C2B26348   4.300  21.600   8.253
 6905POPC   C3B26349   4.274  21.592   7.953
 6905POPC   C4B26350   4.284  21.628   7.653
 6906POPC   NC326351   3.571  30.739   9.453
 6906POPC   PO426352   3.511  30.708   9.153
 6906POPC   GL126353   3.548  30.699   8.853
 6906POPC   GL226354   3.458  30.695   8.853
 6906POPC   C1A26355   3.504  30.709   8.553
 6906POPC   D2A26356   3.532  30.724   8.253
 6906POPC   C3A26357   3.550  30.740   7.953
 6906POPC   C4A26358   3.585  30.717   7.653
 6906POPC   C1B26359   3.274  30.797   8.553
 6906POPC   C2B26360   3.304  30.767   8.253
 6906POPC   C3B26361   3.305  30.762   7.953
 6906POPC   C4B26362   3.277  30.796   7.653
 6907POPC   NC326363  20.594  12.839   9.453
 6907POPC   PO426364  20.639  12.847   9.153
 6907POPC   GL126365  20.649  12.884   8.853
 6907POPC   GL226366  20.520  12.804   8.853
 6907POPC   C1A26367  20.626  12.892   8.553
 6907POPC   D2A26368  20.598  12.807   8.253
 6907POPC   C3A26369  20.652  12.838   7.953
 6907POPC   C4A26370  20.577  12.851   7.653
 6907POPC   C1B26371  20.408  12.646   8.553
 6907POPC   C2B26372  20.407  12.683   8.253
 6907POPC   C3B26373  20.437  12.622   7.953
 6907POPC   C4B26374  20.428  12.702   7.653
 6908POPC   NC326375  26.783  25.276   9.453
 6908POPC   PO426376  26.791  25.220   9.153
 6908POPC   GL126377  26.831  25.224   8.853
 6908POPC   GL226378  26.949  25.174   8.853
 6908POPC   C1A26379  26.785  25.292   8.553
 6908POPC   D2A26380  26.865  25.280   8.253
 6908POPC   C3A26381  26.778  25.312   7.953
 6908POPC   C4A26382  26.814  25.252   7.653
 6908POPC   C1B26383  27.014  25.142   8.553
 6908POPC   C2B26384  27.052  25.071   8.253
 6908POPC   C3B26385  26.982  25.142   7.953
 6908POPC   C4B26386  27.051  25.138   7.653
 6909POPC   NC326387  39.974   6.610   9.453
 6909POPC   PO426388  39.992   6.649   9.153
 6909POPC   GL126389  40.014   6.595   8.853
 6909POPC   GL226390  39.986   6.562   8.853
 6909POPC   C1A26391  39.961   6.645   8.553
 6909POPC   D2A26392  39.968   6.619   8.253
 6909POPC   C3A26393  40.022   6.634   7.953
 6909POPC   C4A26394  39.980   6.665   7.653
 6909POPC   C1B26395  39.906   6.454   8.553
 6909POPC   C2B26396  39.896   6.372   8.253
 6909POPC   C3B26397  39.970   6.404   7.953
 6909POPC   C4B26398  39.891   6.374   7.653
 6910POPC   NC326399  36.167  26.815   9.453
 6910POPC   PO426400  36.142  26.801   9.153
 6910POPC   GL126401  36.109  26.813   8.853
 6910POPC   GL226402  36.144  26.689   8.853
 6910POPC   C1A26403  36.174  26.811   8.553
 6910POPC   D2A26404  36.145  26.798   8.253
 6910POPC   C3A26405  36.090  26.780   7.953
 6910POPC   C4A26406  36.089  26.793   7.653
 6910POPC   C1B26407  36.087  26.568   8.553
 6910POPC   C2B26408  36.038  26.604   8.253
 6910POPC   C3B26409  36.113  26.553   7.953
 6910POPC   C4B26410  36.038  26.599   7.653
 6911POPC   NC326411  21.396  26.863   9.453
 6911POPC   PO426412  21.410  26.804   9.153
 6911POPC   GL126413  21.363  26.847   8.853
 6911POPC   GL226414  21.496  26.882   8.853
 6911POPC   C1A26415  21.412  26.786   8.553
 6911POPC   D2A26416  21.414  26.861   8.253
 6911POPC   C3A26417  21.420  26.852   7.953
 6911POPC   C4A26418  21.383  26.828   7.653
 6911POPC   C1B26419  21.619  26.909   8.553
 6911POPC   C2B26420  21.612  26.917   8.253
 6911POPC   C3B26421  21.649  26.864   7.953
 6911POPC   C4B26422  21.652  26.881   7.653
 6912POPC   NC326423   2.020  29.189   9.453
 6912POPC   PO426424   2.030  29.192   9.153
 6912POPC   GL126425   1.979  29.173   8.853
 6912POPC   GL226426   2.145  29.154   8.853
 6912POPC   C1A26427   1.997  29.108   8.553
 6912POPC   D2A26428   1.989  29.160   8.253
 6912POPC   C3A26429   1.942  29.151   7.953
 6912POPC   C4A26430   2.010  29.175   7.653
 6912POPC   C1B26431   2.288  29.185   8.553
 6912POPC   C2B26432   2.249  29.162   8.253
 6912POPC   C3B26433   2.205  29.123   7.953
 6912POPC   C4B26434   2.195  29.137   7.653
 6913POPC   NC326435   2.739   2.805   9.453
 6913POPC   PO426436   2.744   2.746   9.153
 6913POPC   GL126437   2.771   2.734   8.853
 6913POPC   GL226438   2.829   2.901   8.853
 6913POPC   C1A26439   2.736   2.790   8.553
 6913POPC   D2A26440   2.814   2.765   8.253
 6913POPC   C3A26441   2.779   2.803   7.953
 6913POPC   C4A26442   2.803   2.755   7.653
 6913POPC   C1B26443   2.872   2.925   8.553
 6913POPC   C2B26444   2.889   2.955   8.253
 6913POPC   C3B26445   2.932   3.002   7.953
 6913POPC   C4B26446   2.889   3.003   7.653
 6914POPC   NC326447  13.673   5.907   9.453
 6914POPC   PO426448  13.618   5.823   9.153
 6914POPC   GL126449  13.596   5.823   8.853
 6914POPC   GL226450  13.749   5.797   8.853
 6914POPC   C1A26451  13.633   5.855   8.553
 6914POPC   D2A26452  13.641   5.904   8.253
 6914POPC   C3A26453  13.587   5.833   7.953
 6914POPC   C4A26454  13.652   5.883   7.653
 6914POPC   C1B26455  13.834   5.757   8.553
 6914POPC   C2B26456  13.839   5.807   8.253
 6914POPC   C3B26457  13.854   5.782   7.953
 6914POPC   C4B26458  13.887   5.764   7.653
 6915POPC   NC326459  33.016  39.244   9.453
 6915POPC   PO426460  33.063  39.203   9.153
 6915POPC   GL126461  33.012  39.275   8.853
 6915POPC   GL226462  32.946  39.197   8.853
 6915POPC   C1A26463  33.032  39.198   8.553
 6915POPC   D2A26464  33.037  39.258   8.253
 6915POPC   C3A26465  33.023  39.210   7.953
 6915POPC   C4A26466  33.042  39.224   7.653
 6915POPC   C1B26467  32.801  39.265   8.553
 6915POPC   C2B26468  32.817  39.264   8.253
 6915POPC   C3B26469  32.783  39.230   7.953
 6915POPC   C4B26470  32.779  39.253   7.653
 6916POPC   NC326471   8.151  38.498   9.453
 6916POPC   PO426472   8.156  38.451   9.153
 6916POPC   GL126473   8.228  38.464   8.853
 6916POPC   GL226474   8.287  38.496   8.853
 6916POPC   C1A26475   8.192  38.480   8.553
 6916POPC   D2A26476   8.152  38.416   8.253
 6916POPC   C3A26477   8.148  38.449   7.953
 6916POPC   C4A26478   8.172  38.478   7.653
 6916POPC   C1B26479   8.378  38.643   8.553
 6916POPC   C2B26480   8.420  38.564   8.253
 6916POPC   C3B26481   8.378  38.553   7.953
 6916POPC   C4B26482   8.375  38.620   7.653
 6917POPC   NC326483   0.429  33.003   9.453
 6917POPC   PO426484   0.407  33.017   9.153
 6917POPC   GL126485   0.448  33.032   8.853
 6917POPC   GL226486   0.554  32.983   8.853
 6917POPC   C1A26487   0.468  33.019   8.553
 6917POPC   D2A26488   0.467  33.046   8.253
 6917POPC   C3A26489   0.407  33.027   7.953
 6917POPC   C4A26490   0.400  33.019   7.653
 6917POPC   C1B26491   0.687  32.937   8.553
 6917POPC   C2B26492   0.723  32.942   8.253
 6917POPC   C3B26493   0.648  32.977   7.953
 6917POPC   C4B26494   0.644  32.964   7.653
 6918POPC   NC326495   5.918   3.576   9.453
 6918POPC   PO426496   5.851   3.519   9.153
 6918POPC   GL126497   5.904   3.590   8.853
 6918POPC   GL226498   5.809   3.648   8.853
 6918POPC   C1A26499   5.880   3.504   8.553
 6918POPC   D2A26500   5.836   3.502   8.253
 6918POPC   C3A26501   5.863   3.531   7.953
 6918POPC   C4A26502   5.821   3.542   7.653
 6918POPC   C1B26503   5.836   3.748   8.553
 6918POPC   C2B26504   5.830   3.805   8.253
 6918POPC   C3B26505   5.802   3.821   7.953
 6918POPC   C4B26506   5.841   3.750   7.653
 6919POPC   NC326507  40.037  32.201   9.453
 6919POPC   PO426508  40.040  32.285   9.153
 6919POPC   GL126509  40.012  32.253   8.853
 6919POPC   GL226510  39.999  32.125   8.853
 6919POPC   C1A26511  39.995  32.245   8.553
 6919POPC   D2A26512  40.024  32.253   8.253
 6919POPC   C3A26513  40.010  32.257   7.953
 6919POPC   C4A26514  40.053  32.254   7.653
 6919POPC   C1B26515  39.951  32.022   8.553
 6919POPC   C2B26516  39.966  32.028   8.253
 6919POPC   C3B26517  39.931  31.965   7.953
 6919POPC   C4B26518  39.901  32.007   7.653
 6920POPC   NC326519   8.165   6.641   9.453
 6920POPC   PO426520   8.232   6.613   9.153
 6920POPC   GL126521   8.235   6.618   8.853
 6920POPC   GL226522   8.188   6.513   8.853
 6920POPC   C1A26523   8.196   6.632   8.553
 6920POPC   D2A26524   8.245   6.601   8.253
 6920POPC   C3A26525   8.167   6.662   7.953
 6920POPC   C4A26526   8.202   6.667   7.653
 6920POPC   C1B26527   8.083   6.467   8.553
 6920POPC   C2B26528   8.090   6.380   8.253
 6920POPC   C3B26529   8.085   6.453   7.953
 6920POPC   C4B26530   8.083   6.469   7.653
 6921POPC   NC326531  29.908  35.370   9.453
 6921POPC   PO426532  29.953  35.388   9.153
 6921POPC   GL126533  29.943  35.341   8.853
 6921POPC   GL226534  29.984  35.316   8.853
 6921POPC   C1A26535  29.943  35.371   8.553
 6921POPC   D2A26536  29.911  35.309   8.253
 6921POPC   C3A26537  29.937  35.328   7.953
 6921POPC   C4A26538  29.926  35.351   7.653
 6921POPC   C1B26539  30.155  35.216   8.553
 6921POPC   C2B26540  30.107  35.218   8.253
 6921POPC   C3B26541  30.177  35.200   7.953
 6921POPC   C4B26542  30.164  35.235   7.653
 6922POPC   NC326543  32.209  12.840   9.453
 6922POPC   PO426544  32.284  12.817   9.153
 6922POPC   GL126545  32.236  12.820   8.853
 6922POPC   GL226546  32.349  12.982   8.853
 6922POPC   C1A26547  32.267  12.874   8.553
 6922POPC   D2A26548  32.296  12.894   8.253
 6922POPC   C3A26549  32.225  12.876   7.953
 6922POPC   C4A26550  32.276  12.880   7.653
 6922POPC   C1B26551  32.414  13.060   8.553
 6922POPC   C2B26552  32.439  13.088   8.253
 6922POPC   C3B26553  32.394  13.060   7.953
 6922POPC   C4B26554  32.345  13.018   7.653
 6923POPC   NC326555   3.567  15.906   9.453
 6923POPC   PO426556   3.575  15.959   9.153
 6923POPC   GL126557   3.546  15.912   8.853
 6923POPC   GL226558   3.389  16.044   8.853
 6923POPC   C1A26559   3.544  15.997   8.553
 6923POPC   D2A26560   3.587  15.905   8.253
 6923POPC   C3A26561   3.492  15.914   7.953
 6923POPC   C4A26562   3.579  15.922   7.653
 6923POPC   C1B26563   3.288  16.110   8.553
 6923POPC   C2B26564   3.357  16.104   8.253
 6923POPC   C3B26565   3.352  16.035   7.953
 6923POPC   C4B26566   3.338  16.108   7.653
 6924POPC   NC326567  26.088  27.633   9.453
 6924POPC   PO426568  26.068  27.619   9.153
 6924POPC   GL126569  26.008  27.636   8.853
 6924POPC   GL226570  26.126  27.501   8.853
 6924POPC   C1A26571  26.066  27.572   8.553
 6924POPC   D2A26572  26.040  27.578   8.253
 6924POPC   C3A26573  26.073  27.624   7.953
 6924POPC   C4A26574  25.992  27.558   7.653
 6924POPC   C1B26575  26.166  27.407   8.553
 6924POPC   C2B26576  26.145  27.405   8.253
 6924POPC   C3B26577  26.148  27.325   7.953
 6924POPC   C4B26578  26.173  27.395   7.653
 6925POPC   NC326579  43.848  36.135   9.453
 6925POPC   PO426580  43.844  36.086   9.153
 6925POPC   GL126581  43.911  36.106   8.853
 6925POPC   GL226582  43.992  36.194   8.853
 6925POPC   C1A26583  43.841  36.080   8.553
 6925POPC   D2A26584  43.863  36.140   8.253
 6925POPC   C3A26585  43.838  36.085   7.953
 6925POPC   C4A26586  43.848  36.103   7.653
 6925POPC   C1B26587  44.160  36.188   8.553
 6925POPC   C2B26588  44.158  36.178   8.253
 6925POPC   C3B26589  44.094  36.148   7.953
 6925POPC   C4B26590  44.104  36.185   7.653
 6926POPC   NC326591  41.592  12.889   9.453
 6926POPC   PO426592  41.523  12.834   9.153
 6926POPC   GL126593  41.510  12.891   8.853
 6926POPC   GL226594  41.464  12.797   8.853
 6926POPC   C1A26595  41.585  12.825   8.553
 6926POPC   D2A26596  41.515  12.807   8.253
 6926POPC   C3A26597  41.529  12.860   7.953
 6926POPC   C4A26598  41.591  12.810   7.653
 6926POPC   C1B26599  41.308  12.729   8.553
 6926POPC   C2B26600  41.374  12.741   8.253
 6926POPC   C3B26601  41.352  12.758   7.953
 6926POPC   C4B26602  41.340  12.727   7.653
 6927POPC   NC326603   7.435  26.011   9.453
 6927POPC   PO426604   7.424  26.086   9.153
 6927POPC   GL126605   7.468  25.995   8.853
 6927POPC   GL226606   7.295  25.961   8.853
 6927POPC   C1A26607   7.427  26.017   8.553
 6927POPC   D2A26608   7.449  25.996   8.253
 6927POPC   C3A26609   7.436  26.016   7.953
 6927POPC   C4A26610   7.436  26.015   7.653
 6927POPC   C1B26611   7.221  25.927   8.553
 6927POPC   C2B26612   7.210  25.832   8.253
 6927POPC   C3B26613   7.235  25.871   7.953
 6927POPC   C4B26614   7.210  25.907   7.653
 6928POPC   NC326615  40.829   6.637   9.453
 6928POPC   PO426616  40.776   6.673   9.153
 6928POPC   GL126617  40.753   6.601   8.853
 6928POPC   GL226618  40.872   6.550   8.853
 6928POPC   C1A26619  40.799   6.684   8.553
 6928POPC   D2A26620  40.810   6.612   8.253
 6928POPC   C3A26621  40.794   6.645   7.953
 6928POPC   C4A26622  40.814   6.623   7.653
 6928POPC   C1B26623  40.937   6.455   8.553
 6928POPC   C2B26624  40.968   6.468   8.253
 6928POPC   C3B26625  41.021   6.530   7.953
 6928POPC   C4B26626  40.997   6.530   7.653
 6929POPC   NC326627   3.572  32.235   9.453
 6929POPC   PO426628   3.581  32.203   9.153
 6929POPC   GL126629   3.552  32.269   8.853
 6929POPC   GL226630   3.468  32.135   8.853
 6929POPC   C1A26631   3.535  32.261   8.553
 6929POPC   D2A26632   3.513  32.254   8.253
 6929POPC   C3A26633   3.514  32.222   7.953
 6929POPC   C4A26634   3.524  32.224   7.653
 6929POPC   C1B26635   3.334  32.050   8.553
 6929POPC   C2B26636   3.373  32.046   8.253
 6929POPC   C3B26637   3.357  32.062   7.953
 6929POPC   C4B26638   3.403  32.064   7.653
 6930POPC   NC326639   1.250  40.040   9.453
 6930POPC   PO426640   1.207  40.027   9.153
 6930POPC   GL126641   1.185  39.967   8.853
 6930POPC   GL226642   1.110  39.938   8.853
 6930POPC   C1A26643   1.176  40.017   8.553
 6930POPC   D2A26644   1.168  40.055   8.253
 6930POPC   C3A26645   1.254  39.980   7.953
 6930POPC   C4A26646   1.201  40.054   7.653
 6930POPC   C1B26647   0.992  39.826   8.553
 6930POPC   C2B26648   1.065  39.864   8.253
 6930POPC   C3B26649   1.014  39.891   7.953
 6930POPC   C4B26650   1.057  39.873   7.653
 6931POPC   NC326651  15.177  32.294   9.453
 6931POPC   PO426652  15.136  32.211   9.153
 6931POPC   GL126653  15.216  32.232   8.853
 6931POPC   GL226654  15.062  32.227   8.853
 6931POPC   C1A26655  15.149  32.280   8.553
 6931POPC   D2A26656  15.181  32.200   8.253
 6931POPC   C3A26657  15.229  32.273   7.953
 6931POPC   C4A26658  15.197  32.297   7.653
 6931POPC   C1B26659  14.961  32.215   8.553
 6931POPC   C2B26660  14.962  32.232   8.253
 6931POPC   C3B26661  14.922  32.172   7.953
 6931POPC   C4B26662  14.979  32.213   7.653
 6932POPC   NC326663   8.153  40.776   9.453
 6932POPC   PO426664   8.217  40.789   9.153
 6932POPC   GL126665   8.171  40.764   8.853
 6932POPC   GL226666   8.120  40.882   8.853
 6932POPC   C1A26667   8.216  40.800   8.553
 6932POPC   D2A26668   8.205  40.784   8.253
 6932POPC   C3A26669   8.170  40.752   7.953
 6932POPC   C4A26670   8.195  40.788   7.653
 6932POPC   C1B26671   8.019  40.934   8.553
 6932POPC   C2B26672   7.941  40.903   8.253
 6932POPC   C3B26673   7.962  40.932   7.953
 6932POPC   C4B26674   7.945  40.887   7.653
 6933POPC   NC326675  37.691   2.722   9.453
 6933POPC   PO426676  37.703   2.767   9.153
 6933POPC   GL126677  37.699   2.809   8.853
 6933POPC   GL226678  37.848   2.825   8.853
 6933POPC   C1A26679  37.701   2.747   8.553
 6933POPC   D2A26680  37.675   2.752   8.253
 6933POPC   C3A26681  37.637   2.781   7.953
 6933POPC   C4A26682  37.684   2.731   7.653
 6933POPC   C1B26683  37.924   2.871   8.553
 6933POPC   C2B26684  37.928   2.796   8.253
 6933POPC   C3B26685  37.873   2.830   7.953
 6933POPC   C4B26686  37.900   2.853   7.653
 6934POPC   NC326687  42.363  26.844   9.453
 6934POPC   PO426688  42.333  26.842   9.153
 6934POPC   GL126689  42.326  26.836   8.853
 6934POPC   GL226690  42.281  26.687   8.853
 6934POPC   C1A26691  42.312  26.843   8.553
 6934POPC   D2A26692  42.378  26.774   8.253
 6934POPC   C3A26693  42.304  26.840   7.953
 6934POPC   C4A26694  42.372  26.840   7.653
 6934POPC   C1B26695  42.171  26.585   8.553
 6934POPC   C2B26696  42.201  26.580   8.253
 6934POPC   C3B26697  42.176  26.598   7.953
 6934POPC   C4B26698  42.212  26.635   7.653
 6935POPC   NC326699  32.245  42.379   9.453
 6935POPC   PO426700  32.258  42.355   9.153
 6935POPC   GL126701  32.216  42.323   8.853
 6935POPC   GL226702  32.233  42.259   8.853
 6935POPC   C1A26703  32.213  42.319   8.553
 6935POPC   D2A26704  32.263  42.373   8.253
 6935POPC   C3A26705  32.267  42.365   7.953
 6935POPC   C4A26706  32.248  42.318   7.653
 6935POPC   C1B26707  32.213  42.056   8.553
 6935POPC   C2B26708  32.138  42.058   8.253
 6935POPC   C3B26709  32.174  42.134   7.953
 6935POPC   C4B26710  32.156  42.138   7.653
 6936POPC   NC326711  27.636   1.203   9.453
 6936POPC   PO426712  27.611   1.207   9.153
 6936POPC   GL126713  27.592   1.209   8.853
 6936POPC   GL226714  27.753   1.252   8.853
 6936POPC   C1A26715  27.582   1.244   8.553
 6936POPC   D2A26716  27.638   1.231   8.253
 6936POPC   C3A26717  27.604   1.167   7.953
 6936POPC   C4A26718  27.614   1.201   7.653
 6936POPC   C1B26719  27.832   1.266   8.553
 6936POPC   C2B26720  27.865   1.241   8.253
 6936POPC   C3B26721  27.798   1.248   7.953
 6936POPC   C4B26722  27.875   1.243   7.653
 6937POPC   NC326723  41.541   3.567   9.453
 6937POPC   PO426724  41.555   3.580   9.153
 6937POPC   GL126725  41.587   3.562   8.853
 6937POPC   GL226726  41.466   3.587   8.853
 6937POPC   C1A26727  41.604   3.589   8.553
 6937POPC   D2A26728  41.603   3.504   8.253
 6937POPC   C3A26729  41.586   3.528   7.953
 6937POPC   C4A26730  41.599   3.530   7.653
 6937POPC   C1B26731  41.334   3.643   8.553
 6937POPC   C2B26732  41.361   3.573   8.253
 6937POPC   C3B26733  41.360   3.630   7.953
 6937POPC   C4B26734  41.290   3.648   7.653
 6938POPC   NC326735  36.947  14.403   9.453
 6938POPC   PO426736  36.913  14.430   9.153
 6938POPC   GL126737  36.872  14.412   8.853
 6938POPC   GL226738  36.884  14.250   8.853
 6938POPC   C1A26739  36.883  14.374   8.553
 6938POPC   D2A26740  36.885  14.384   8.253
 6938POPC   C3A26741  36.911  14.432   7.953
 6938POPC   C4A26742  36.917  14.377   7.653
 6938POPC   C1B26743  36.831  14.126   8.553
 6938POPC   C2B26744  36.877  14.114   8.253
 6938POPC   C3B26745  36.864  14.173   7.953
 6938POPC   C4B26746  36.831  14.125   7.653
 6939POPC   NC326747   1.236  15.139   9.453
 6939POPC   PO426748   1.214  15.147   9.153
 6939POPC   GL126749   1.191  15.167   8.853
 6939POPC   GL226750   1.192  15.276   8.853
 6939POPC   C1A26751   1.219  15.191   8.553
 6939POPC   D2A26752   1.174  15.136   8.253
 6939POPC   C3A26753   1.167  15.182   7.953
 6939POPC   C4A26754   1.195  15.194   7.653
 6939POPC   C1B26755   1.051  15.441   8.553
 6939POPC   C2B26756   1.109  15.400   8.253
 6939POPC   C3B26757   1.102  15.384   7.953
 6939POPC   C4B26758   1.114  15.409   7.653
 6940POPC   NC326759  29.100  16.684   9.453
 6940POPC   PO426760  29.160  16.688   9.153
 6940POPC   GL126761  29.189  16.764   8.853
 6940POPC   GL226762  29.298  16.727   8.853
 6940POPC   C1A26763  29.126  16.687   8.553
 6940POPC   D2A26764  29.189  16.721   8.253
 6940POPC   C3A26765  29.166  16.705   7.953
 6940POPC   C4A26766  29.112  16.688   7.653
 6940POPC   C1B26767  29.362  16.786   8.553
 6940POPC   C2B26768  29.427  16.795   8.253
 6940POPC   C3B26769  29.400  16.779   7.953
 6940POPC   C4B26770  29.420  16.761   7.653
 6941POPC   NC326771  43.077  26.004   9.453
 6941POPC   PO426772  43.137  25.999   9.153
 6941POPC   GL126773  43.065  26.040   8.853
 6941POPC   GL226774  42.964  25.935   8.853
 6941POPC   C1A26775  43.129  26.074   8.553
 6941POPC   D2A26776  43.128  26.061   8.253
 6941POPC   C3A26777  43.156  26.083   7.953
 6941POPC   C4A26778  43.132  26.057   7.653
 6941POPC   C1B26779  42.949  25.943   8.553
 6941POPC   C2B26780  42.944  25.861   8.253
 6941POPC   C3B26781  42.940  25.894   7.953
 6941POPC   C4B26782  42.893  25.856   7.653
 6942POPC   NC326783   4.359   7.470   9.453
 6942POPC   PO426784   4.267   7.422   9.153
 6942POPC   GL126785   4.300   7.372   8.853
 6942POPC   GL226786   4.345   7.499   8.853
 6942POPC   C1A26787   4.336   7.428   8.553
 6942POPC   D2A26788   4.300   7.412   8.253
 6942POPC   C3A26789   4.353   7.460   7.953
 6942POPC   C4A26790   4.309   7.421   7.653
 6942POPC   C1B26791   4.252   7.710   8.553
 6942POPC   C2B26792   4.228   7.679   8.253
 6942POPC   C3B26793   4.281   7.676   7.953
 6942POPC   C4B26794   4.243   7.623   7.653
 6943POPC   NC326795   5.083  19.085   9.453
 6943POPC   PO426796   5.114  19.104   9.153
 6943POPC   GL126797   5.055  19.060   8.853
 6943POPC   GL226798   5.062  18.898   8.853
 6943POPC   C1A26799   5.120  19.083   8.553
 6943POPC   D2A26800   5.048  19.054   8.253
 6943POPC   C3A26801   5.060  19.025   7.953
 6943POPC   C4A26802   5.142  19.080   7.653
 6943POPC   C1B26803   5.065  18.793   8.553
 6943POPC   C2B26804   5.116  18.791   8.253
 6943POPC   C3B26805   5.062  18.784   7.953
 6943POPC   C4B26806   5.143  18.832   7.653
 6944POPC   NC326807  18.278  15.940   9.453
 6944POPC   PO426808  18.266  15.911   9.153
 6944POPC   GL126809  18.252  15.973   8.853
 6944POPC   GL226810  18.270  16.118   8.853
 6944POPC   C1A26811  18.245  15.922   8.553
 6944POPC   D2A26812  18.293  15.939   8.253
 6944POPC   C3A26813  18.262  15.952   7.953
 6944POPC   C4A26814  18.275  15.918   7.653
 6944POPC   C1B26815  18.275  16.162   8.553
 6944POPC   C2B26816  18.304  16.218   8.253
 6944POPC   C3B26817  18.259  16.188   7.953
 6944POPC   C4B26818  18.298  16.159   7.653
 6945POPC   NC326819  17.460   8.940   9.453
 6945POPC   PO426820  17.461   8.970   9.153
 6945POPC   GL126821  17.527   9.010   8.853
 6945POPC   GL226822  17.639   9.004   8.853
 6945POPC   C1A26823  17.543   9.014   8.553
 6945POPC   D2A26824  17.532   9.022   8.253
 6945POPC   C3A26825  17.486   8.977   7.953
 6945POPC   C4A26826  17.530   8.959   7.653
 6945POPC   C1B26827  17.734   9.036   8.553
 6945POPC   C2B26828  17.760   8.997   8.253
 6945POPC   C3B26829  17.774   9.000   7.953
 6945POPC   C4B26830  17.740   9.039   7.653
 6946POPC   NC326831  19.879  16.739   9.453
 6946POPC   PO426832  19.833  16.774   9.153
 6946POPC   GL126833  19.822  16.749   8.853
 6946POPC   GL226834  19.718  16.675   8.853
 6946POPC   C1A26835  19.786  16.734   8.553
 6946POPC   D2A26836  19.813  16.708   8.253
 6946POPC   C3A26837  19.856  16.746   7.953
 6946POPC   C4A26838  19.861  16.720   7.653
 6946POPC   C1B26839  19.609  16.671   8.553
 6946POPC   C2B26840  19.557  16.681   8.253
 6946POPC   C3B26841  19.611  16.729   7.953
 6946POPC   C4B26842  19.549  16.701   7.653
 6947POPC   NC326843  13.623  24.522   9.453
 6947POPC   PO426844  13.586  24.440   9.153
 6947POPC   GL126845  13.657  24.452   8.853
 6947POPC   GL226846  13.537  24.345   8.853
 6947POPC   C1A26847  13.578  24.448   8.553
 6947POPC   D2A26848  13.644  24.519   8.253
 6947POPC   C3A26849  13.657  24.511   7.953
 6947POPC   C4A26850  13.582  24.493   7.653
 6947POPC   C1B26851  13.524  24.270   8.553
 6947POPC   C2B26852  13.458  24.251   8.253
 6947POPC   C3B26853  13.454  24.303   7.953
 6947POPC   C4B26854  13.442  24.334   7.653
 6948POPC   NC326855   4.292   9.755   9.453
 6948POPC   PO426856   4.358   9.740   9.153
 6948POPC   GL126857   4.352   9.728   8.853
 6948POPC   GL226858   4.183   9.648   8.853
 6948POPC   C1A26859   4.289   9.774   8.553
 6948POPC   D2A26860   4.327   9.719   8.253
 6948POPC   C3A26861   4.334   9.719   7.953
 6948POPC   C4A26862   4.330   9.763   7.653
 6948POPC   C1B26863   4.077   9.623   8.553
 6948POPC   C2B26864   4.139   9.603   8.253
 6948POPC   C3B26865   4.147   9.632   7.953
 6948POPC   C4B26866   4.108   9.563   7.653
 6949POPC   NC326867  29.106  12.038   9.453
 6949POPC   PO426868  29.194  12.101   9.153
 6949POPC   GL126869  29.168  12.092   8.853
 6949POPC   GL226870  29.258  12.002   8.853
 6949POPC   C1A26871  29.133  12.090   8.553
 6949POPC   D2A26872  29.115  12.103   8.253
 6949POPC   C3A26873  29.168  12.098   7.953
 6949POPC   C4A26874  29.108  12.098   7.653
 6949POPC   C1B26875  29.268  11.844   8.553
 6949POPC   C2B26876  29.236  11.826   8.253
 6949POPC   C3B26877  29.255  11.912   7.953
 6949POPC   C4B26878  29.287  11.901   7.653
 6950POPC   NC326879  40.008  23.672   9.453
 6950POPC   PO426880  39.978  23.728   9.153
 6950POPC   GL126881  39.958  23.714   8.853
 6950POPC   GL226882  40.129  23.634   8.853
 6950POPC   C1A26883  39.986  23.748   8.553
 6950POPC   D2A26884  39.961  23.732   8.253
 6950POPC   C3A26885  40.052  23.695   7.953
 6950POPC   C4A26886  40.033  23.734   7.653
 6950POPC   C1B26887  40.251  23.627   8.553
 6950POPC   C2B26888  40.179  23.573   8.253
 6950POPC   C3B26889  40.245  23.571   7.953
 6950POPC   C4B26890  40.255  23.598   7.653
 6951POPC   NC326891  11.290  15.936   9.453
 6951POPC   PO426892  11.272  15.949   9.153
 6951POPC   GL126893  11.310  15.972   8.853
 6951POPC   GL226894  11.393  15.976   8.853
 6951POPC   C1A26895  11.327  15.928   8.553
 6951POPC   D2A26896  11.263  15.931   8.253
 6951POPC   C3A26897  11.283  15.981   7.953
 6951POPC   C4A26898  11.304  15.939   7.653
 6951POPC   C1B26899  11.500  15.921   8.553
 6951POPC   C2B26900  11.570  15.871   8.253
 6951POPC   C3B26901  11.586  15.929   7.953
 6951POPC   C4B26902  11.559  15.899   7.653
 6952POPC   NC326903  10.547  17.479   9.453
 6952POPC   PO426904  10.532  17.478   9.153
 6952POPC   GL126905  10.502  17.555   8.853
 6952POPC   GL226906  10.559  17.369   8.853
 6952POPC   C1A26907  10.497  17.540   8.553
 6952POPC   D2A26908  10.541  17.483   8.253
 6952POPC   C3A26909  10.509  17.470   7.953
 6952POPC   C4A26910  10.492  17.458   7.653
 6952POPC   C1B26911  10.621  17.300   8.553
 6952POPC   C2B26912  10.644  17.283   8.253
 6952POPC   C3B26913  10.646  17.283   7.953
 6952POPC   C4B26914  10.608  17.319   7.653
 6953POPC   NC326915  24.535  43.072   9.453
 6953POPC   PO426916  24.449  43.124   9.153
 6953POPC   GL126917  24.481  43.142   8.853
 6953POPC   GL226918  24.454  43.044   8.853
 6953POPC   C1A26919  24.488  43.126   8.553
 6953POPC   D2A26920  24.447  43.128   8.253
 6953POPC   C3A26921  24.539  43.126   7.953
 6953POPC   C4A26922  24.476  43.138   7.653
 6953POPC   C1B26923  24.330  42.852   8.553
 6953POPC   C2B26924  24.364  42.914   8.253
 6953POPC   C3B26925  24.360  42.850   7.953
 6953POPC   C4B26926  24.406  42.918   7.653
 6954POPC   NC326927  39.980   4.322   9.453
 6954POPC   PO426928  40.015   4.307   9.153
 6954POPC   GL126929  39.995   4.330   8.853
 6954POPC   GL226930  39.913   4.324   8.853
 6954POPC   C1A26931  40.006   4.325   8.553
 6954POPC   D2A26932  40.031   4.358   8.253
 6954POPC   C3A26933  39.964   4.338   7.953
 6954POPC   C4A26934  40.011   4.339   7.653
 6954POPC   C1B26935  39.741   4.445   8.553
 6954POPC   C2B26936  39.733   4.378   8.253
 6954POPC   C3B26937  39.792   4.462   7.953
 6954POPC   C4B26938  39.813   4.387   7.653
 6955POPC   NC326939  17.489  24.487   9.453
 6955POPC   PO426940  17.514  24.448   9.153
 6955POPC   GL126941  17.542  24.464   8.853
 6955POPC   GL226942  17.673  24.476   8.853
 6955POPC   C1A26943  17.526  24.459   8.553
 6955POPC   D2A26944  17.520  24.532   8.253
 6955POPC   C3A26945  17.543  24.444   7.953
 6955POPC   C4A26946  17.509  24.476   7.653
 6955POPC   C1B26947  17.793  24.392   8.553
 6955POPC   C2B26948  17.783  24.461   8.253
 6955POPC   C3B26949  17.770  24.441   7.953
 6955POPC   C4B26950  17.730  24.402   7.653
 6956POPC   NC326951  31.485  19.096   9.453
 6956POPC   PO426952  31.431  19.085   9.153
 6956POPC   GL126953  31.452  19.038   8.853
 6956POPC   GL226954  31.538  19.008   8.853
 6956POPC   C1A26955  31.512  19.079   8.553
 6956POPC   D2A26956  31.469  19.078   8.253
 6956POPC   C3A26957  31.428  19.040   7.953
 6956POPC   C4A26958  31.516  19.062   7.653
 6956POPC   C1B26959  31.709  18.929   8.553
 6956POPC   C2B26960  31.664  18.943   8.253
 6956POPC   C3B26961  31.728  18.940   7.953
 6956POPC   C4B26962  31.724  18.906   7.653
 6957POPC   NC326963  38.459  12.849   9.453
 6957POPC   PO426964  38.500  12.831   9.153
 6957POPC   GL126965  38.436  12.851   8.853
 6957POPC   GL226966  38.395  12.827   8.853
 6957POPC   C1A26967  38.468  12.886   8.553
 6957POPC   D2A26968  38.449  12.851   8.253
 6957POPC   C3A26969  38.451  12.826   7.953
 6957POPC   C4A26970  38.475  12.812   7.653
 6957POPC   C1B26971  38.199  12.701   8.553
 6957POPC   C2B26972  38.260  12.774   8.253
 6957POPC   C3B26973  38.256  12.725   7.953
 6957POPC   C4B26974  38.241  12.757   7.653
 6958POPC   NC326975   7.391  14.356   9.453
 6958POPC   PO426976   7.436  14.431   9.153
 6958POPC   GL126977   7.454  14.440   8.853
 6958POPC   GL226978   7.407  14.574   8.853
 6958POPC   C1A26979   7.466  14.421   8.553
 6958POPC   D2A26980   7.454  14.383   8.253
 6958POPC   C3A26981   7.458  14.433   7.953
 6958POPC   C4A26982   7.422  14.383   7.653
 6958POPC   C1B26983   7.417  14.688   8.553
 6958POPC   C2B26984   7.441  14.694   8.253
 6958POPC   C3B26985   7.446  14.623   7.953
 6958POPC   C4B26986   7.472  14.688   7.653
 6959POPC   NC326987   0.409  40.026   9.453
 6959POPC   PO426988   0.451  40.041   9.153
 6959POPC   GL126989   0.389  40.004   8.853
 6959POPC   GL226990   0.483  40.071   8.853
 6959POPC   C1A26991   0.427  40.051   8.553
 6959POPC   D2A26992   0.444  40.038   8.253
 6959POPC   C3A26993   0.480  39.998   7.953
 6959POPC   C4A26994   0.403  40.030   7.653
 6959POPC   C1B26995   0.653  40.159   8.553
 6959POPC   C2B26996   0.583  40.181   8.253
 6959POPC   C3B26997   0.607  40.176   7.953
 6959POPC   C4B26998   0.630  40.131   7.653
 6960POPC   NC326999  23.668  28.320   9.453
 6960POPC   PO427000  23.694  28.350   9.153
 6960POPC   GL127001  23.716  28.338   8.853
 6960POPC   GL227002  23.752  28.451   8.853
 6960POPC   C1A27003  23.724  28.395   8.553
 6960POPC   D2A27004  23.757  28.398   8.253
 6960POPC   C3A27005  23.676  28.349   7.953
 6960POPC   C4A27006  23.757  28.352   7.653
 6960POPC   C1B27007  23.872  28.579   8.553
 6960POPC   C2B27008  23.830  28.549   8.253
 6960POPC   C3B27009  23.900  28.561   7.953
 6960POPC   C4B27010  23.830  28.560   7.653
 6961POPC   NC327011  25.238  37.715   9.453
 6961POPC   PO427012  25.298  37.696   9.153
 6961POPC   GL127013  25.300  37.630   8.853
 6961POPC   GL227014  25.386  37.671   8.853
 6961POPC   C1A27015  25.244  37.682   8.553
 6961POPC   D2A27016  25.315  37.729   8.253
 6961POPC   C3A27017  25.297  37.707   7.953
 6961POPC   C4A27018  25.232  37.723   7.653
 6961POPC   C1B27019  25.476  37.645   8.553
 6961POPC   C2B27020  25.515  37.638   8.253
 6961POPC   C3B27021  25.491  37.564   7.953
 6961POPC   C4B27022  25.505  37.602   7.653
 6962POPC   NC327023  36.122  26.015   9.453
 6962POPC   PO427024  36.169  25.999   9.153
 6962POPC   GL127025  36.168  26.041   8.853
 6962POPC   GL227026  36.067  26.122   8.853
 6962POPC   C1A27027  36.144  26.064   8.553
 6962POPC   D2A27028  36.090  26.052   8.253
 6962POPC   C3A27029  36.100  26.016   7.953
 6962POPC   C4A27030  36.101  26.061   7.653
 6962POPC   C1B27031  36.149  26.284   8.553
 6962POPC   C2B27032  36.067  26.340   8.253
 6962POPC   C3B27033  36.085  26.303   7.953
 6962POPC   C4B27034  36.141  26.264   7.653
 6963POPC   NC327035  20.584  37.677   9.453
 6963POPC   PO427036  20.587  37.666   9.153
 6963POPC   GL127037  20.651  37.685   8.853
 6963POPC   GL227038  20.456  37.698   8.853
 6963POPC   C1A27039  20.641  37.635   8.553
 6963POPC   D2A27040  20.615  37.651   8.253
 6963POPC   C3A27041  20.604  37.653   7.953
 6963POPC   C4A27042  20.604  37.671   7.653
 6963POPC   C1B27043  20.337  37.617   8.553
 6963POPC   C2B27044  20.409  37.705   8.253
 6963POPC   C3B27045  20.397  37.638   7.953
 6963POPC   C4B27046  20.390  37.661   7.653
 6964POPC   NC327047  39.982   7.420   9.453
 6964POPC   PO427048  39.999   7.397   9.153
 6964POPC   GL127049  39.968   7.414   8.853
 6964POPC   GL227050  40.067   7.321   8.853
 6964POPC   C1A27051  39.992   7.375   8.553
 6964POPC   D2A27052  40.029   7.469   8.253
 6964POPC   C3A27053  40.029   7.408   7.953
 6964POPC   C4A27054  40.017   7.461   7.653
 6964POPC   C1B27055  40.213   7.260   8.553
 6964POPC   C2B27056  40.181   7.260   8.253
 6964POPC   C3B27057  40.227   7.244   7.953
 6964POPC   C4B27058  40.221   7.229   7.653
 6965POPC   NC327059  20.615   2.726   9.453
 6965POPC   PO427060  20.562   2.724   9.153
 6965POPC   GL127061  20.606   2.717   8.853
 6965POPC   GL227062  20.530   2.769   8.853
 6965POPC   C1A27063  20.603   2.789   8.553
 6965POPC   D2A27064  20.563   2.763   8.253
 6965POPC   C3A27065  20.630   2.765   7.953
 6965POPC   C4A27066  20.602   2.766   7.653
 6965POPC   C1B27067  20.389   2.873   8.553
 6965POPC   C2B27068  20.351   2.854   8.253
 6965POPC   C3B27069  20.390   2.878   7.953
 6965POPC   C4B27070  20.344   2.902   7.653
 6966POPC   NC327071   2.773  18.246   9.453
 6966POPC   PO427072   2.765  18.233   9.153
 6966POPC   GL127073   2.732  18.287   8.853
 6966POPC   GL227074   2.901  18.355   8.853
 6966POPC   C1A27075   2.736  18.265   8.553
 6966POPC   D2A27076   2.791  18.316   8.253
 6966POPC   C3A27077   2.786  18.276   7.953
 6966POPC   C4A27078   2.718  18.328   7.653
 6966POPC   C1B27079   2.985  18.435   8.553
 6966POPC   C2B27080   2.971  18.449   8.253
 6966POPC   C3B27081   2.969  18.392   7.953
 6966POPC   C4B27082   3.031  18.402   7.653
 6967POPC   NC327083  26.010  40.764   9.453
 6967POPC   PO427084  26.080  40.783   9.153
 6967POPC   GL127085  26.034  40.818   8.853
 6967POPC   GL227086  25.959  40.895   8.853
 6967POPC   C1A27087  26.090  40.760   8.553
 6967POPC   D2A27088  26.070  40.819   8.253
 6967POPC   C3A27089  26.052  40.765   7.953
 6967POPC   C4A27090  26.066  40.799   7.653
 6967POPC   C1B27091  25.811  40.937   8.553
 6967POPC   C2B27092  25.863  40.959   8.253
 6967POPC   C3B27093  25.806  40.885   7.953
 6967POPC   C4B27094  25.851  40.958   7.653
 6968POPC   NC327095  43.844   4.284   9.453
 6968POPC   PO427096  43.865   4.268   9.153
 6968POPC   GL127097  43.934   4.351   8.853
 6968POPC   GL227098  43.754   4.284   8.853
 6968POPC   C1A27099  43.863   4.362   8.553
 6968POPC   D2A27100  43.852   4.292   8.253
 6968POPC   C3A27101  43.904   4.357   7.953
 6968POPC   C4A27102  43.868   4.356   7.653
 6968POPC   C1B27103  43.691   4.170   8.553
 6968POPC   C2B27104  43.718   4.140   8.253
 6968POPC   C3B27105  43.716   4.116   7.953
 6968POPC   C4B27106  43.727   4.202   7.653
 6969POPC   NC327107  40.787   3.540   9.453
 6969POPC   PO427108  40.812   3.500   9.153
 6969POPC   GL127109  40.776   3.564   8.853
 6969POPC   GL227110  40.870   3.390   8.853
 6969POPC   C1A27111  40.823   3.527   8.553
 6969POPC   D2A27112  40.772   3.561   8.253
 6969POPC   C3A27113  40.781   3.520   7.953
 6969POPC   C4A27114  40.765   3.563   7.653
 6969POPC   C1B27115  40.908   3.335   8.553
 6969POPC   C2B27116  40.876   3.354   8.253
 6969POPC   C3B27117  40.899   3.321   7.953
 6969POPC   C4B27118  40.940   3.309   7.653
 6970POPC   NC327119  44.711  43.106   9.453
 6970POPC   PO427120  44.627  43.156   9.153
 6970POPC   GL127121  44.619  43.098   8.853
 6970POPC   GL227122  44.722  42.975   8.853
 6970POPC   C1A27123  44.630  43.139   8.553
 6970POPC   D2A27124  44.685  43.143   8.253
 6970POPC   C3A27125  44.621  43.089   7.953
 6970POPC   C4A27126  44.701  43.115   7.653
 6970POPC   C1B27127  44.766  42.867   8.553
 6970POPC   C2B27128  44.804  42.877   8.253
 6970POPC   C3B27129  44.816  42.878   7.953
 6970POPC   C4B27130  44.838  42.890   7.653
 6971POPC   NC327131  23.752   1.948   9.453
 6971POPC   PO427132  23.759   2.034   9.153
 6971POPC   GL127133  23.665   2.022   8.853
 6971POPC   GL227134  23.750   1.890   8.853
 6971POPC   C1A27135  23.700   1.998   8.553
 6971POPC   D2A27136  23.698   1.976   8.253
 6971POPC   C3A27137  23.750   2.014   7.953
 6971POPC   C4A27138  23.755   1.998   7.653
 6971POPC   C1B27139  23.731   1.715   8.553
 6971POPC   C2B27140  23.775   1.703   8.253
 6971POPC   C3B27141  23.729   1.791   7.953
 6971POPC   C4B27142  23.801   1.696   7.653
 6972POPC   NC327143   7.429   1.949   9.453
 6972POPC   PO427144   7.419   1.959   9.153
 6972POPC   GL127145   7.448   1.984   8.853
 6972POPC   GL227146   7.472   2.076   8.853
 6972POPC   C1A27147   7.444   1.980   8.553
 6972POPC   D2A27148   7.440   1.950   8.253
 6972POPC   C3A27149   7.437   1.948   7.953
 6972POPC   C4A27150   7.460   2.001   7.653
 6972POPC   C1B27151   7.571   2.209   8.553
 6972POPC   C2B27152   7.535   2.198   8.253
 6972POPC   C3B27153   7.544   2.213   7.953
 6972POPC   C4B27154   7.579   2.233   7.653
 6973POPC   NC327155   5.836   5.120   9.453
 6973POPC   PO427156   5.850   5.128   9.153
 6973POPC   GL127157   5.890   5.083   8.853
 6973POPC   GL227158   5.915   5.180   8.853
 6973POPC   C1A27159   5.836   5.141   8.553
 6973POPC   D2A27160   5.851   5.129   8.253
 6973POPC   C3A27161   5.902   5.098   7.953
 6973POPC   C4A27162   5.819   5.085   7.653
 6973POPC   C1B27163   5.946   5.337   8.553
 6973POPC   C2B27164   5.909   5.358   8.253
 6973POPC   C3B27165   5.962   5.330   7.953
 6973POPC   C4B27166   5.882   5.335   7.653
 6974POPC   NC327167  29.151  27.637   9.453
 6974POPC   PO427168  29.141  27.635   9.153
 6974POPC   GL127169  29.184  27.613   8.853
 6974POPC   GL227170  29.133  27.449   8.853
 6974POPC   C1A27171  29.115  27.601   8.553
 6974POPC   D2A27172  29.155  27.609   8.253
 6974POPC   C3A27173  29.176  27.551   7.953
 6974POPC   C4A27174  29.152  27.574   7.653
 6974POPC   C1B27175  29.196  27.334   8.553
 6974POPC   C2B27176  29.222  27.333   8.253
 6974POPC   C3B27177  29.268  27.323   7.953
 6974POPC   C4B27178  29.234  27.349   7.653
 6975POPC   NC327179  33.850  40.828   9.453
 6975POPC   PO427180  33.785  40.779   9.153
 6975POPC   GL127181  33.847  40.830   8.853
 6975POPC   GL227182  33.779  40.632   8.853
 6975POPC   C1A27183  33.750  40.811   8.553
 6975POPC   D2A27184  33.810  40.781   8.253
 6975POPC   C3A27185  33.763  40.800   7.953
 6975POPC   C4A27186  33.774  40.811   7.653
 6975POPC   C1B27187  33.798  40.519   8.553
 6975POPC   C2B27188  33.803  40.501   8.253
 6975POPC   C3B27189  33.854  40.562   7.953
 6975POPC   C4B27190  33.833  40.501   7.653
 6976POPC   NC327191  43.898  19.789   9.453
 6976POPC   PO427192  43.897  19.856   9.153
 6976POPC   GL127193  43.850  19.817   8.853
 6976POPC   GL227194  43.748  19.785   8.853
 6976POPC   C1A27195  43.892  19.836   8.553
 6976POPC   D2A27196  43.884  19.843   8.253
 6976POPC   C3A27197  43.876  19.832   7.953
 6976POPC   C4A27198  43.925  19.832   7.653
 6976POPC   C1B27199  43.672  19.679   8.553
 6976POPC   C2B27200  43.671  19.623   8.253
 6976POPC   C3B27201  43.704  19.709   7.953
 6976POPC   C4B27202  43.740  19.706   7.653
 6977POPC   NC327203   1.231  39.185   9.453
 6977POPC   PO427204   1.186  39.183   9.153
 6977POPC   GL127205   1.196  39.275   8.853
 6977POPC   GL227206   1.268  39.126   8.853
 6977POPC   C1A27207   1.254  39.260   8.553
 6977POPC   D2A27208   1.258  39.268   8.253
 6977POPC   C3A27209   1.221  39.280   7.953
 6977POPC   C4A27210   1.222  39.200   7.653
 6977POPC   C1B27211   1.412  38.998   8.553
 6977POPC   C2B27212   1.347  38.998   8.253
 6977POPC   C3B27213   1.378  39.006   7.953
 6977POPC   C4B27214   1.367  38.998   7.653
 6978POPC   NC327215  31.465  44.655   9.453
 6978POPC   PO427216  31.508  44.705   9.153
 6978POPC   GL127217  31.441  44.669   8.853
 6978POPC   GL227218  31.362  44.661   8.853
 6978POPC   C1A27219  31.451  44.665   8.553
 6978POPC   D2A27220  31.463  44.653   8.253
 6978POPC   C3A27221  31.460  44.621   7.953
 6978POPC   C4A27222  31.432  44.691   7.653
 6978POPC   C1B27223  31.205  44.616   8.553
 6978POPC   C2B27224  31.260  44.654   8.253
 6978POPC   C3B27225  31.256  44.633   7.953
 6978POPC   C4B27226  31.198  44.655   7.653
 6979POPC   NC327227  12.093  12.056   9.453
 6979POPC   PO427228  12.039  12.054   9.153
 6979POPC   GL127229  12.040  12.080   8.853
 6979POPC   GL227230  12.080  11.978   8.853
 6979POPC   C1A27231  12.050  12.122   8.553
 6979POPC   D2A27232  12.111  12.080   8.253
 6979POPC   C3A27233  12.057  12.062   7.953
 6979POPC   C4A27234  12.110  12.032   7.653
 6979POPC   C1B27235  12.000  11.790   8.553
 6979POPC   C2B27236  11.995  11.807   8.253
 6979POPC   C3B27237  12.032  11.822   7.953
 6979POPC   C4B27238  12.010  11.787   7.653
 6980POPC   NC327239  38.421  43.878   9.453
 6980POPC   PO427240  38.412  43.852   9.153
 6980POPC   GL127241  38.472  43.876   8.853
 6980POPC   GL227242  38.497  43.943   8.853
 6980POPC   C1A27243  38.426  43.849   8.553
 6980POPC   D2A27244  38.446  43.847   8.253
 6980POPC   C3A27245  38.440  43.899   7.953
 6980POPC   C4A27246  38.468  43.888   7.653
 6980POPC   C1B27247  38.592  44.131   8.553
 6980POPC   C2B27248  38.602  44.116   8.253
 6980POPC   C3B27249  38.630  44.119   7.953
 6980POPC   C4B27250  38.555  44.081   7.653
 6981POPC   NC327251  16.755  32.284   9.453
 6981POPC   PO427252  16.683  32.268   9.153
 6981POPC   GL127253  16.727  32.212   8.853
 6981POPC   GL227254  16.827  32.210   8.853
 6981POPC   C1A27255  16.738  32.207   8.553
 6981POPC   D2A27256  16.696  32.284   8.253
 6981POPC   C3A27257  16.743  32.212   7.953
 6981POPC   C4A27258  16.720  32.223   7.653
 6981POPC   C1B27259  17.005  32.213   8.553
 6981POPC   C2B27260  17.016  32.228   8.253
 6981POPC   C3B27261  17.000  32.238   7.953
 6981POPC   C4B27262  16.979  32.200   7.653
 6982POPC   NC327263  33.759  24.500   9.453
 6982POPC   PO427264  33.848  24.510   9.153
 6982POPC   GL127265  33.804  24.510   8.853
 6982POPC   GL227266  33.855  24.321   8.853
 6982POPC   C1A27267  33.757  24.464   8.553
 6982POPC   D2A27268  33.767  24.500   8.253
 6982POPC   C3A27269  33.781  24.529   7.953
 6982POPC   C4A27270  33.808  24.460   7.653
 6982POPC   C1B27271  33.865  24.233   8.553
 6982POPC   C2B27272  33.818  24.285   8.253
 6982POPC   C3B27273  33.861  24.282   7.953
 6982POPC   C4B27274  33.867  24.210   7.653
 6983POPC   NC327275  35.342  23.725   9.453
 6983POPC   PO427276  35.362  23.759   9.153
 6983POPC   GL127277  35.364  23.688   8.853
 6983POPC   GL227278  35.427  23.663   8.853
 6983POPC   C1A27279  35.372  23.762   8.553
 6983POPC   D2A27280  35.379  23.737   8.253
 6983POPC   C3A27281  35.309  23.686   7.953
 6983POPC   C4A27282  35.343  23.733   7.653
 6983POPC   C1B27283  35.648  23.706   8.553
 6983POPC   C2B27284  35.562  23.651   8.253
 6983POPC   C3B27285  35.585  23.679   7.953
 6983POPC   C4B27286  35.587  23.686   7.653
 6984POPC   NC327287  15.205  41.548   9.453
 6984POPC   PO427288  15.185  41.582   9.153
 6984POPC   GL127289  15.198  41.530   8.853
 6984POPC   GL227290  15.124  41.441   8.853
 6984POPC   C1A27291  15.201  41.551   8.553
 6984POPC   D2A27292  15.170  41.562   8.253
 6984POPC   C3A27293  15.172  41.555   7.953
 6984POPC   C4A27294  15.228  41.552   7.653
 6984POPC   C1B27295  15.103  41.321   8.553
 6984POPC   C2B27296  15.077  41.338   8.253
 6984POPC   C3B27297  15.135  41.308   7.953
 6984POPC   C4B27298  15.111  41.280   7.653
 6985POPC   NC327299  38.419   5.901   9.453
 6985POPC   PO427300  38.449   5.886   9.153
 6985POPC   GL127301  38.465   5.916   8.853
 6985POPC   GL227302  38.472   5.781   8.853
 6985POPC   C1A27303  38.497   5.869   8.553
 6985POPC   D2A27304  38.420   5.857   8.253
 6985POPC   C3A27305  38.411   5.856   7.953
 6985POPC   C4A27306  38.489   5.880   7.653
 6985POPC   C1B27307  38.484   5.600   8.553
 6985POPC   C2B27308  38.477   5.601   8.253
 6985POPC   C3B27309  38.433   5.664   7.953
 6985POPC   C4B27310  38.456   5.666   7.653
 6986POPC   NC327311   0.459  44.710   9.453
 6986POPC   PO427312   0.448  44.644   9.153
 6986POPC   GL127313   0.443  44.670   8.853
 6986POPC   GL227314   0.549  44.617   8.853
 6986POPC   C1A27315   0.461  44.704   8.553
 6986POPC   D2A27316   0.447  44.618   8.253
 6986POPC   C3A27317   0.390  44.631   7.953
 6986POPC   C4A27318   0.394  44.689   7.653
 6986POPC   C1B27319   0.702  44.579   8.553
 6986POPC   C2B27320   0.716  44.601   8.253
 6986POPC   C3B27321   0.656  44.542   7.953
 6986POPC   C4B27322   0.647  44.524   7.653
 6987POPC   NC327323  12.112  26.039   9.453
 6987POPC   PO427324  12.110  26.064   9.153
 6987POPC   GL127325  12.045  26.078   8.853
 6987POPC   GL227326  11.940  25.954   8.853
 6987POPC   C1A27327  12.039  26.086   8.553
 6987POPC   D2A27328  12.089  25.992   8.253
 6987POPC   C3A27329  12.075  26.076   7.953
 6987POPC   C4A27330  12.106  26.091   7.653
 6987POPC   C1B27331  11.889  25.879   8.553
 6987POPC   C2B27332  11.827  25.885   8.253
 6987POPC   C3B27333  11.921  25.882   7.953
 6987POPC   C4B27334  11.858  25.937   7.653
 6988POPC   NC327335   1.177  27.568   9.453
 6988POPC   PO427336   1.180  27.632   9.153
 6988POPC   GL127337   1.222  27.627   8.853
 6988POPC   GL227338   1.229  27.442   8.853
 6988POPC   C1A27339   1.182  27.611   8.553
 6988POPC   D2A27340   1.219  27.641   8.253
 6988POPC   C3A27341   1.191  27.549   7.953
 6988POPC   C4A27342   1.166  27.623   7.653
 6988POPC   C1B27343   1.276  27.369   8.553
 6988POPC   C2B27344   1.341  27.340   8.253
 6988POPC   C3B27345   1.268  27.347   7.953
 6988POPC   C4B27346   1.336  27.402   7.653
 6989POPC   NC327347  31.480  40.007   9.453
 6989POPC   PO427348  31.426  39.972   9.153
 6989POPC   GL127349  31.469  39.959   8.853
 6989POPC   GL227350  31.334  40.009   8.853
 6989POPC   C1A27351  31.429  39.999   8.553
 6989POPC   D2A27352  31.474  39.990   8.253
 6989POPC   C3A27353  31.457  40.042   7.953
 6989POPC   C4A27354  31.456  40.038   7.653
 6989POPC   C1B27355  31.228  39.922   8.553
 6989POPC   C2B27356  31.181  39.942   8.253
 6989POPC   C3B27357  31.186  39.936   7.953
 6989POPC   C4B27358  31.191  39.922   7.653
 6990POPC   NC327359  33.835  26.841   9.453
 6990POPC   PO427360  33.776  26.854   9.153
 6990POPC   GL127361  33.783  26.801   8.853
 6990POPC   GL227362  33.787  26.708   8.853
 6990POPC   C1A27363  33.824  26.819   8.553
 6990POPC   D2A27364  33.792  26.838   8.253
 6990POPC   C3A27365  33.790  26.825   7.953
 6990POPC   C4A27366  33.788  26.789   7.653
 6990POPC   C1B27367  33.707  26.586   8.553
 6990POPC   C2B27368  33.793  26.596   8.253
 6990POPC   C3B27369  33.750  26.584   7.953
 6990POPC   C4B27370  33.709  26.590   7.653
 6991POPC   NC327371   4.283  30.740   9.453
 6991POPC   PO427372   4.315  30.744   9.153
 6991POPC   GL127373   4.324  30.733   8.853
 6991POPC   GL227374   4.225  30.692   8.853
 6991POPC   C1A27375   4.329  30.697   8.553
 6991POPC   D2A27376   4.304  30.667   8.253
 6991POPC   C3A27377   4.269  30.736   7.953
 6991POPC   C4A27378   4.278  30.661   7.653
 6991POPC   C1B27379   4.062  30.634   8.553
 6991POPC   C2B27380   4.102  30.668   8.253
 6991POPC   C3B27381   4.057  30.617   7.953
 6991POPC   C4B27382   4.098  30.682   7.653
 6992POPC   NC327383  34.614  20.617   9.453
 6992POPC   PO427384  34.539  20.563   9.153
 6992POPC   GL127385  34.561  20.635   8.853
 6992POPC   GL227386  34.549  20.683   8.853
 6992POPC   C1A27387  34.596  20.583   8.553
 6992POPC   D2A27388  34.592  20.586   8.253
 6992POPC   C3A27389  34.580  20.611   7.953
 6992POPC   C4A27390  34.620  20.600   7.653
 6992POPC   C1B27391  34.515  20.843   8.553
 6992POPC   C2B27392  34.557  20.851   8.253
 6992POPC   C3B27393  34.489  20.880   7.953
 6992POPC   C4B27394  34.552  20.860   7.653
 6993POPC   NC327395  22.180  43.919   9.453
 6993POPC   PO427396  22.138  43.875   9.153
 6993POPC   GL127397  22.165  43.837   8.853
 6993POPC   GL227398  22.262  43.773   8.853
 6993POPC   C1A27399  22.115  43.865   8.553
 6993POPC   D2A27400  22.165  43.837   8.253
 6993POPC   C3A27401  22.188  43.912   7.953
 6993POPC   C4A27402  22.136  43.931   7.653
 6993POPC   C1B27403  22.353  43.760   8.553
 6993POPC   C2B27404  22.414  43.792   8.253
 6993POPC   C3B27405  22.410  43.773   7.953
 6993POPC   C4B27406  22.383  43.752   7.653
 6994POPC   NC327407  32.206  28.342   9.453
 6994POPC   PO427408  32.291  28.332   9.153
 6994POPC   GL127409  32.244  28.404   8.853
 6994POPC   GL227410  32.178  28.286   8.853
 6994POPC   C1A27411  32.242  28.376   8.553
 6994POPC   D2A27412  32.292  28.341   8.253
 6994POPC   C3A27413  32.221  28.346   7.953
 6994POPC   C4A27414  32.263  28.374   7.653
 6994POPC   C1B27415  31.966  28.287   8.553
 6994POPC   C2B27416  31.969  28.278   8.253
 6994POPC   C3B27417  32.059  28.339   7.953
 6994POPC   C4B27418  32.012  28.273   7.653
 6995POPC   NC327419   4.320  39.264   9.453
 6995POPC   PO427420   4.347  39.235   9.153
 6995POPC   GL127421   4.363  39.244   8.853
 6995POPC   GL227422   4.396  39.101   8.853
 6995POPC   C1A27423   4.301  39.259   8.553
 6995POPC   D2A27424   4.294  39.264   8.253
 6995POPC   C3A27425   4.330  39.255   7.953
 6995POPC   C4A27426   4.325  39.230   7.653
 6995POPC   C1B27427   4.501  39.023   8.553
 6995POPC   C2B27428   4.504  39.071   8.253
 6995POPC   C3B27429   4.461  39.112   7.953
 6995POPC   C4B27430   4.482  39.064   7.653
 6996POPC   NC327431  34.619   8.236   9.453
 6996POPC   PO427432  34.617   8.168   9.153
 6996POPC   GL127433  34.560   8.246   8.853
 6996POPC   GL227434  34.414   8.276   8.853
 6996POPC   C1A27435  34.586   8.245   8.553
 6996POPC   D2A27436  34.603   8.147   8.253
 6996POPC   C3A27437  34.564   8.204   7.953
 6996POPC   C4A27438  34.601   8.150   7.653
 6996POPC   C1B27439  34.385   8.336   8.553
 6996POPC   C2B27440  34.354   8.255   8.253
 6996POPC   C3B27441  34.335   8.266   7.953
 6996POPC   C4B27442  34.377   8.335   7.653
 6997POPC   NC327443   8.959   6.672   9.453
 6997POPC   PO427444   9.015   6.662   9.153
 6997POPC   GL127445   8.931   6.596   8.853
 6997POPC   GL227446   9.033   6.480   8.853
 6997POPC   C1A27447   8.998   6.675   8.553
 6997POPC   D2A27448   8.927   6.657   8.253
 6997POPC   C3A27449   8.952   6.612   7.953
 6997POPC   C4A27450   8.975   6.644   7.653
 6997POPC   C1B27451   9.037   6.390   8.553
 6997POPC   C2B27452   9.051   6.418   8.253
 6997POPC   C3B27453   9.024   6.407   7.953
 6997POPC   C4B27454   8.957   6.433   7.653
 6998POPC   NC327455  39.225  15.930   9.453
 6998POPC   PO427456  39.221  16.001   9.153
 6998POPC   GL127457  39.260  15.937   8.853
 6998POPC   GL227458  39.245  16.127   8.853
 6998POPC   C1A27459  39.201  15.988   8.553
 6998POPC   D2A27460  39.245  15.943   8.253
 6998POPC   C3A27461  39.243  15.977   7.953
 6998POPC   C4A27462  39.197  16.001   7.653
 6998POPC   C1B27463  39.215  16.192   8.553
 6998POPC   C2B27464  39.224  16.187   8.253
 6998POPC   C3B27465  39.245  16.204   7.953
 6998POPC   C4B27466  39.209  16.175   7.653
 6999POPC   NC327467  37.700   1.971   9.453
 6999POPC   PO427468  37.664   2.010   9.153
 6999POPC   GL127469  37.635   1.976   8.853
 6999POPC   GL227470  37.610   2.113   8.853
 6999POPC   C1A27471  37.655   1.961   8.553
 6999POPC   D2A27472  37.653   1.962   8.253
 6999POPC   C3A27473  37.637   1.965   7.953
 6999POPC   C4A27474  37.727   1.991   7.653
 6999POPC   C1B27475  37.479   2.152   8.553
 6999POPC   C2B27476  37.479   2.104   8.253
 6999POPC   C3B27477  37.502   2.136   7.953
 6999POPC   C4B27478  37.443   2.130   7.653
 7000POPC   NC327479  19.099  35.347   9.453
 7000POPC   PO427480  19.106  35.357   9.153
 7000POPC   GL127481  19.077  35.344   8.853
 7000POPC   GL227482  19.202  35.388   8.853
 7000POPC   C1A27483  19.102  35.341   8.553
 7000POPC   D2A27484  19.079  35.400   8.253
 7000POPC   C3A27485  19.032  35.325   7.953
 7000POPC   C4A27486  19.096  35.338   7.653
 7000POPC   C1B27487  19.296  35.374   8.553
 7000POPC   C2B27488  19.298  35.435   8.253
 7000POPC   C3B27489  19.263  35.424   7.953
 7000POPC   C4B27490  19.292  35.395   7.653
 7001POPC   NC327491  29.876  20.641   9.453
 7001POPC   PO427492  29.892  20.624   9.153
 7001POPC   GL127493  29.878  20.565   8.853
 7001POPC   GL227494  29.860  20.703   8.853
 7001POPC   C1A27495  29.908  20.605   8.553
 7001POPC   D2A27496  29.932  20.612   8.253
 7001POPC   C3A27497  29.897  20.587   7.953
 7001POPC   C4A27498  29.898  20.643   7.653
 7001POPC   C1B27499  29.749  20.723   8.553
 7001POPC   C2B27500  29.759  20.721   8.253
 7001POPC   C3B27501  29.755  20.782   7.953
 7001POPC   C4B27502  29.731  20.714   7.653
 7002POPC   NC327503  19.100  44.647   9.453
 7002POPC   PO427504  19.040  44.645   9.153
 7002POPC   GL127505  19.085  44.669   8.853
 7002POPC   GL227506  18.972  44.527   8.853
 7002POPC   C1A27507  19.074  44.698   8.553
 7002POPC   D2A27508  19.094  44.623   8.253
 7002POPC   C3A27509  19.057  44.698   7.953
 7002POPC   C4A27510  19.031  44.671   7.653
 7002POPC   C1B27511  18.882  44.499   8.553
 7002POPC   C2B27512  18.877  44.432   8.253
 7002POPC   C3B27513  18.862  44.491   7.953
 7002POPC   C4B27514  18.883  44.491   7.653
 7003POPC   NC327515  21.416  19.836   9.453
 7003POPC   PO427516  21.394  19.859   9.153
 7003POPC   GL127517  21.387  19.844   8.853
 7003POPC   GL227518  21.465  19.666   8.853
 7003POPC   C1A27519  21.354  19.849   8.553
 7003POPC   D2A27520  21.397  19.803   8.253
 7003POPC   C3A27521  21.364  19.851   7.953
 7003POPC   C4A27522  21.410  19.817   7.653
 7003POPC   C1B27523  21.474  19.545   8.553
 7003POPC   C2B27524  21.451  19.612   8.253
 7003POPC   C3B27525  21.489  19.604   7.953
 7003POPC   C4B27526  21.480  19.631   7.653
 7004POPC   NC327527  13.643  26.865   9.453
 7004POPC   PO427528  13.642  26.795   9.153
 7004POPC   GL127529  13.607  26.848   8.853
 7004POPC   GL227530  13.602  26.954   8.853
 7004POPC   C1A27531  13.649  26.776   8.553
 7004POPC   D2A27532  13.602  26.779   8.253
 7004POPC   C3A27533  13.603  26.796   7.953
 7004POPC   C4A27534  13.600  26.794   7.653
 7004POPC   C1B27535  13.496  27.077   8.553
 7004POPC   C2B27536  13.526  27.020   8.253
 7004POPC   C3B27537  13.464  27.014   7.953
 7004POPC   C4B27538  13.534  27.020   7.653
 7005POPC   NC327539  43.077  43.916   9.453
 7005POPC   PO427540  43.088  43.908   9.153
 7005POPC   GL127541  43.087  43.913   8.853
 7005POPC   GL227542  43.039  43.830   8.853
 7005POPC   C1A27543  43.155  43.843   8.553
 7005POPC   D2A27544  43.079  43.893   8.253
 7005POPC   C3A27545  43.102  43.888   7.953
 7005POPC   C4A27546  43.065  43.890   7.653
 7005POPC   C1B27547  42.879  43.818   8.553
 7005POPC   C2B27548  42.848  43.803   8.253
 7005POPC   C3B27549  42.923  43.771   7.953
 7005POPC   C4B27550  42.853  43.771   7.653
 7006POPC   NC327551  28.406  30.701   9.453
 7006POPC   PO427552  28.360  30.650   9.153
 7006POPC   GL127553  28.336  30.719   8.853
 7006POPC   GL227554  28.503  30.734   8.853
 7006POPC   C1A27555  28.352  30.738   8.553
 7006POPC   D2A27556  28.330  30.733   8.253
 7006POPC   C3A27557  28.410  30.703   7.953
 7006POPC   C4A27558  28.329  30.721   7.653
 7006POPC   C1B27559  28.585  30.874   8.553
 7006POPC   C2B27560  28.554  30.826   8.253
 7006POPC   C3B27561  28.529  30.814   7.953
 7006POPC   C4B27562  28.570  30.876   7.653
 7007POPC   NC327563  19.101  30.718   9.453
 7007POPC   PO427564  19.052  30.698   9.153
 7007POPC   GL127565  19.023  30.721   8.853
 7007POPC   GL227566  18.977  30.669   8.853
 7007POPC   C1A27567  19.012  30.666   8.553
 7007POPC   D2A27568  19.061  30.744   8.253
 7007POPC   C3A27569  19.055  30.744   7.953
 7007POPC   C4A27570  19.096  30.680   7.653
 7007POPC   C1B27571  18.766  30.672   8.553
 7007POPC   C2B27572  18.827  30.700   8.253
 7007POPC   C3B27573  18.762  30.655   7.953
 7007POPC   C4B27574  18.796  30.714   7.653
 7008POPC   NC327575  29.945  13.638   9.453
 7008POPC   PO427576  29.906  13.663   9.153
 7008POPC   GL127577  29.930  13.672   8.853
 7008POPC   GL227578  29.992  13.556   8.853
 7008POPC   C1A27579  29.908  13.584   8.553
 7008POPC   D2A27580  29.895  13.631   8.253
 7008POPC   C3A27581  29.942  13.625   7.953
 7008POPC   C4A27582  29.906  13.676   7.653
 7008POPC   C1B27583  30.087  13.427   8.553
 7008POPC   C2B27584  30.124  13.498   8.253
 7008POPC   C3B27585  30.092  13.483   7.953
 7008POPC   C4B27586  30.134  13.480   7.653
 7009POPC   NC327587  18.291  43.083   9.453
 7009POPC   PO427588  18.245  43.127   9.153
 7009POPC   GL127589  18.329  43.159   8.853
 7009POPC   GL227590  18.366  43.033   8.853
 7009POPC   C1A27591  18.320  43.074   8.553
 7009POPC   D2A27592  18.294  43.120   8.253
 7009POPC   C3A27593  18.239  43.129   7.953
 7009POPC   C4A27594  18.295  43.079   7.653
 7009POPC   C1B27595  18.411  42.917   8.553
 7009POPC   C2B27596  18.438  42.854   8.253
 7009POPC   C3B27597  18.429  42.850   7.953
 7009POPC   C4B27598  18.373  42.900   7.653
 7010POPC   NC327599  37.653  29.099   9.453
 7010POPC   PO427600  37.711  29.143   9.153
 7010POPC   GL127601  37.705  29.164   8.853
 7010POPC   GL227602  37.671  29.228   8.853
 7010POPC   C1A27603  37.696  29.098   8.553
 7010POPC   D2A27604  37.635  29.134   8.253
 7010POPC   C3A27605  37.662  29.143   7.953
 7010POPC   C4A27606  37.727  29.121   7.653
 7010POPC   C1B27607  37.606  29.352   8.553
 7010POPC   C2B27608  37.575  29.354   8.253
 7010POPC   C3B27609  37.592  29.367   7.953
 7010POPC   C4B27610  37.657  29.354   7.653
 7011POPC   NC327611   2.775  31.479   9.453
 7011POPC   PO427612   2.802  31.475   9.153
 7011POPC   GL127613   2.753  31.433   8.853
 7011POPC   GL227614   2.634  31.427   8.853
 7011POPC   C1A27615   2.815  31.501   8.553
 7011POPC   D2A27616   2.798  31.491   8.253
 7011POPC   C3A27617   2.720  31.456   7.953
 7011POPC   C4A27618   2.796  31.492   7.653
 7011POPC   C1B27619   2.596  31.358   8.553
 7011POPC   C2B27620   2.563  31.363   8.253
 7011POPC   C3B27621   2.591  31.315   7.953
 7011POPC   C4B27622   2.531  31.289   7.653
 7012POPC   NC327623  44.683  24.468   9.453
 7012POPC   PO427624  44.684  24.475   9.153
 7012POPC   GL127625  44.637  24.533   8.853
 7012POPC   GL227626  44.583  24.416   8.853
 7012POPC   C1A27627  44.674  24.446   8.553
 7012POPC   D2A27628  44.616  24.457   8.253
 7012POPC   C3A27629  44.657  24.526   7.953
 7012POPC   C4A27630  44.705  24.499   7.653
 7012POPC   C1B27631  44.455  24.417   8.553
 7012POPC   C2B27632  44.386  24.401   8.253
 7012POPC   C3B27633  44.444  24.386   7.953
 7012POPC   C4B27634  44.376  24.470   7.653
 7013POPC   NC327635  22.182   8.166   9.453
 7013POPC   PO427636  22.139   8.197   9.153
 7013POPC   GL127637  22.136   8.160   8.853
 7013POPC   GL227638  22.232   8.284   8.853
 7013POPC   C1A27639  22.132   8.219   8.553
 7013POPC   D2A27640  22.131   8.163   8.253
 7013POPC   C3A27641  22.172   8.237   7.953
 7013POPC   C4A27642  22.174   8.154   7.653
 7013POPC   C1B27643  22.363   8.327   8.553
 7013POPC   C2B27644  22.346   8.362   8.253
 7013POPC   C3B27645  22.396   8.352   7.953
 7013POPC   C4B27646  22.339   8.292   7.653
 7014POPC   NC327647  22.982   3.520   9.453
 7014POPC   PO427648  22.919   3.580   9.153
 7014POPC   GL127649  22.907   3.496   8.853
 7014POPC   GL227650  22.828   3.605   8.853
 7014POPC   C1A27651  22.931   3.582   8.553
 7014POPC   D2A27652  22.980   3.577   8.253
 7014POPC   C3A27653  22.971   3.550   7.953
 7014POPC   C4A27654  22.928   3.512   7.653
 7014POPC   C1B27655  22.819   3.708   8.553
 7014POPC   C2B27656  22.849   3.745   8.253
 7014POPC   C3B27657  22.773   3.748   7.953
 7014POPC   C4B27658  22.845   3.741   7.653
 7015POPC   NC327659   2.798   5.088   9.453
 7015POPC   PO427660   2.774   5.085   9.153
 7015POPC   GL127661   2.805   5.059   8.853
 7015POPC   GL227662   2.649   4.977   8.853
 7015POPC   C1A27663   2.726   5.125   8.553
 7015POPC   D2A27664   2.807   5.067   8.253
 7015POPC   C3A27665   2.814   5.125   7.953
 7015POPC   C4A27666   2.725   5.131   7.653
 7015POPC   C1B27667   2.546   4.925   8.553
 7015POPC   C2B27668   2.559   4.939   8.253
 7015POPC   C3B27669   2.597   4.896   7.953
 7015POPC   C4B27670   2.532   4.928   7.653
 7016POPC   NC327671  14.438  27.561   9.453
 7016POPC   PO427672  14.363  27.593   9.153
 7016POPC   GL127673  14.423  27.622   8.853
 7016POPC   GL227674  14.537  27.649   8.853
 7016POPC   C1A27675  14.395  27.602   8.553
 7016POPC   D2A27676  14.449  27.640   8.253
 7016POPC   C3A27677  14.380  27.563   7.953
 7016POPC   C4A27678  14.440  27.593   7.653
 7016POPC   C1B27679  14.564  27.717   8.553
 7016POPC   C2B27680  14.624  27.754   8.253
 7016POPC   C3B27681  14.655  27.760   7.953
 7016POPC   C4B27682  14.645  27.708   7.653
 7017POPC   NC327683  18.264  25.994   9.453
 7017POPC   PO427684  18.246  26.052   9.153
 7017POPC   GL127685  18.243  26.075   8.853
 7017POPC   GL227686  18.222  26.143   8.853
 7017POPC   C1A27687  18.245  26.071   8.553
 7017POPC   D2A27688  18.302  26.013   8.253
 7017POPC   C3A27689  18.260  26.061   7.953
 7017POPC   C4A27690  18.242  26.022   7.653
 7017POPC   C1B27691  18.248  26.313   8.553
 7017POPC   C2B27692  18.219  26.323   8.253
 7017POPC   C3B27693  18.224  26.248   7.953
 7017POPC   C4B27694  18.216  26.305   7.653
 7018POPC   NC327695  35.310  16.002   9.453
 7018POPC   PO427696  35.315  15.943   9.153
 7018POPC   GL127697  35.340  15.973   8.853
 7018POPC   GL227698  35.413  15.875   8.853
 7018POPC   C1A27699  35.331  15.997   8.553
 7018POPC   D2A27700  35.336  15.968   8.253
 7018POPC   C3A27701  35.325  15.968   7.953
 7018POPC   C4A27702  35.350  15.960   7.653
 7018POPC   C1B27703  35.530  15.765   8.553
 7018POPC   C2B27704  35.472  15.705   8.253
 7018POPC   C3B27705  35.507  15.701   7.953
 7018POPC   C4B27706  35.512  15.733   7.653
 7019POPC   NC327707  42.340  14.372   9.453
 7019POPC   PO427708  42.313  14.448   9.153
 7019POPC   GL127709  42.346  14.374   8.853
 7019POPC   GL227710  42.312  14.513   8.853
 7019POPC   C1A27711  42.332  14.368   8.553
 7019POPC   D2A27712  42.345  14.389   8.253
 7019POPC   C3A27713  42.310  14.433   7.953
 7019POPC   C4A27714  42.376  14.439   7.653
 7019POPC   C1B27715  42.310  14.640   8.553
 7019POPC   C2B27716  42.266  14.692   8.253
 7019POPC   C3B27717  42.264  14.656   7.953
 7019POPC   C4B27718  42.339  14.668   7.653
 7020POPC   NC327719  17.464  10.475   9.453
 7020POPC   PO427720  17.494  10.558   9.153
 7020POPC   GL127721  17.490  10.508   8.853
 7020POPC   GL227722  17.638  10.478   8.853
 7020POPC   C1A27723  17.484  10.508   8.553
 7020POPC   D2A27724  17.551  10.538   8.253
 7020POPC   C3A27725  17.549  10.571   7.953
 7020POPC   C4A27726  17.475  10.529   7.653
 7020POPC   C1B27727  17.715  10.360   8.553
 7020POPC   C2B27728  17.710  10.332   8.253
 7020POPC   C3B27729  17.714  10.378   7.953
 7020POPC   C4B27730  17.701  10.346   7.653
 7021POPC   NC327731  19.793  13.657   9.453
 7021POPC   PO427732  19.802  13.615   9.153
 7021POPC   GL127733  19.869  13.656   8.853
 7021POPC   GL227734  19.751  13.521   8.853
 7021POPC   C1A27735  19.881  13.658   8.553
 7021POPC   D2A27736  19.828  13.634   8.253
 7021POPC   C3A27737  19.874  13.648   7.953
 7021POPC   C4A27738  19.837  13.653   7.653
 7021POPC   C1B27739  19.691  13.449   8.553
 7021POPC   C2B27740  19.693  13.472   8.253
 7021POPC   C3B27741  19.619  13.504   7.953
 7021POPC   C4B27742  19.638  13.486   7.653
 7022POPC   NC327743   1.240  33.039   9.453
 7022POPC   PO427744   1.195  33.071   9.153
 7022POPC   GL127745   1.262  33.070   8.853
 7022POPC   GL227746   1.294  33.062   8.853
 7022POPC   C1A27747   1.204  32.978   8.553
 7022POPC   D2A27748   1.192  33.043   8.253
 7022POPC   C3A27749   1.196  33.037   7.953
 7022POPC   C4A27750   1.219  33.043   7.653
 7022POPC   C1B27751   1.512  33.060   8.553
 7022POPC   C2B27752   1.426  33.062   8.253
 7022POPC   C3B27753   1.512  33.076   7.953
 7022POPC   C4B27754   1.473  33.052   7.653
 7023POPC   NC327755   7.438  15.997   9.453
 7023POPC   PO427756   7.383  15.918   9.153
 7023POPC   GL127757   7.423  15.916   8.853
 7023POPC   GL227758   7.518  16.058   8.853
 7023POPC   C1A27759   7.427  15.973   8.553
 7023POPC   D2A27760   7.471  15.931   8.253
 7023POPC   C3A27761   7.423  15.971   7.953
 7023POPC   C4A27762   7.425  15.936   7.653
 7023POPC   C1B27763   7.635  16.117   8.553
 7023POPC   C2B27764   7.557  16.082   8.253
 7023POPC   C3B27765   7.566  16.098   7.953
 7023POPC   C4B27766   7.643  16.115   7.653
 7024POPC   NC327767  29.935  34.571   9.453
 7024POPC   PO427768  29.950  34.608   9.153
 7024POPC   GL127769  29.943  34.626   8.853
 7024POPC   GL227770  29.844  34.562   8.853
 7024POPC   C1A27771  29.946  34.548   8.553
 7024POPC   D2A27772  29.901  34.530   8.253
 7024POPC   C3A27773  29.895  34.532   7.953
 7024POPC   C4A27774  29.917  34.530   7.653
 7024POPC   C1B27775  29.632  34.633   8.553
 7024POPC   C2B27776  29.690  34.610   8.253
 7024POPC   C3B27777  29.707  34.635   7.953
 7024POPC   C4B27778  29.629  34.593   7.653
 7025POPC   NC327779  29.188  22.135   9.453
 7025POPC   PO427780  29.122  22.129   9.153
 7025POPC   GL127781  29.181  22.178   8.853
 7025POPC   GL227782  29.108  22.075   8.853
 7025POPC   C1A27783  29.193  22.115   8.553
 7025POPC   D2A27784  29.135  22.143   8.253
 7025POPC   C3A27785  29.145  22.205   7.953
 7025POPC   C4A27786  29.172  22.196   7.653
 7025POPC   C1B27787  29.109  21.944   8.553
 7025POPC   C2B27788  29.117  21.943   8.253
 7025POPC   C3B27789  29.130  21.894   7.953
 7025POPC   C4B27790  29.122  21.920   7.653
 7026POPC   NC327791  19.032  15.220   9.453
 7026POPC   PO427792  19.052  15.201   9.153
 7026POPC   GL127793  19.057  15.229   8.853
 7026POPC   GL227794  19.047  15.329   8.853
 7026POPC   C1A27795  19.070  15.204   8.553
 7026POPC   D2A27796  19.055  15.136   8.253
 7026POPC   C3A27797  19.040  15.182   7.953
 7026POPC   C4A27798  19.101  15.142   7.653
 7026POPC   C1B27799  18.996  15.457   8.553
 7026POPC   C2B27800  19.008  15.382   8.253
 7026POPC   C3B27801  19.035  15.435   7.953
 7026POPC   C4B27802  18.974  15.446   7.653
 7027POPC   NC327803  38.438  41.592   9.453
 7027POPC   PO427804  38.430  41.531   9.153
 7027POPC   GL127805  38.428  41.545   8.853
 7027POPC   GL227806  38.362  41.554   8.853
 7027POPC   C1A27807  38.459  41.559   8.553
 7027POPC   D2A27808  38.446  41.585   8.253
 7027POPC   C3A27809  38.433  41.543   7.953
 7027POPC   C4A27810  38.463  41.606   7.653
 7027POPC   C1B27811  38.167  41.533   8.553
 7027POPC   C2B27812  38.239  41.488   8.253
 7027POPC   C3B27813  38.229  41.514   7.953
 7027POPC   C4B27814  38.217  41.548   7.653
 7028POPC   NC327815  34.554  19.051   9.453
 7028POPC   PO427816  34.563  19.088   9.153
 7028POPC   GL127817  34.623  19.044   8.853
 7028POPC   GL227818  34.461  19.046   8.853
 7028POPC   C1A27819  34.564  19.072   8.553
 7028POPC   D2A27820  34.586  19.020   8.253
 7028POPC   C3A27821  34.544  19.095   7.953
 7028POPC   C4A27822  34.573  19.088   7.653
 7028POPC   C1B27823  34.306  18.970   8.553
 7028POPC   C2B27824  34.344  18.979   8.253
 7028POPC   C3B27825  34.375  19.004   7.953
 7028POPC   C4B27826  34.373  18.944   7.653
 7029POPC   NC327827  34.601  43.898   9.453
 7029POPC   PO427828  34.606  43.843   9.153
 7029POPC   GL127829  34.546  43.882   8.853
 7029POPC   GL227830  34.483  43.778   8.853
 7029POPC   C1A27831  34.531  43.926   8.553
 7029POPC   D2A27832  34.553  43.880   8.253
 7029POPC   C3A27833  34.532  43.932   7.953
 7029POPC   C4A27834  34.563  43.881   7.653
 7029POPC   C1B27835  34.323  43.779   8.553
 7029POPC   C2B27836  34.355  43.757   8.253
 7029POPC   C3B27837  34.403  43.786   7.953
 7029POPC   C4B27838  34.397  43.789   7.653
 7030POPC   NC327839  41.544  33.759   9.453
 7030POPC   PO427840  41.600  33.805   9.153
 7030POPC   GL127841  41.512  33.808   8.853
 7030POPC   GL227842  41.654  33.866   8.853
 7030POPC   C1A27843  41.513  33.832   8.553
 7030POPC   D2A27844  41.542  33.764   8.253
 7030POPC   C3A27845  41.590  33.760   7.953
 7030POPC   C4A27846  41.534  33.754   7.653
 7030POPC   C1B27847  41.746  33.918   8.553
 7030POPC   C2B27848  41.824  33.893   8.253
 7030POPC   C3B27849  41.747  33.923   7.953
 7030POPC   C4B27850  41.802  33.905   7.653
 7031POPC   NC327851   1.959  30.706   9.453
 7031POPC   PO427852   2.036  30.692   9.153
 7031POPC   GL127853   1.987  30.674   8.853
 7031POPC   GL227854   1.861  30.802   8.853
 7031POPC   C1A27855   2.005  30.742   8.553
 7031POPC   D2A27856   1.948  30.740   8.253
 7031POPC   C3A27857   1.994  30.735   7.953
 7031POPC   C4A27858   1.940  30.691   7.653
 7031POPC   C1B27859   1.740  30.845   8.553
 7031POPC   C2B27860   1.781  30.816   8.253
 7031POPC   C3B27861   1.807  30.841   7.953
 7031POPC   C4B27862   1.750  30.823   7.653
 7032POPC   NC327863  33.842  22.978   9.453
 7032POPC   PO427864  33.790  22.926   9.153
 7032POPC   GL127865  33.837  22.914   8.853
 7032POPC   GL227866  33.734  22.917   8.853
 7032POPC   C1A27867  33.803  22.918   8.553
 7032POPC   D2A27868  33.772  22.965   8.253
 7032POPC   C3A27869  33.823  22.924   7.953
 7032POPC   C4A27870  33.757  22.946   7.653
 7032POPC   C1B27871  33.574  22.765   8.553
 7032POPC   C2B27872  33.617  22.848   8.253
 7032POPC   C3B27873  33.554  22.851   7.953
 7032POPC   C4B27874  33.576  22.789   7.653
 7033POPC   NC327875  23.675  30.705   9.453
 7033POPC   PO427876  23.745  30.649   9.153
 7033POPC   GL127877  23.747  30.734   8.853
 7033POPC   GL227878  23.812  30.727   8.853
 7033POPC   C1A27879  23.753  30.682   8.553
 7033POPC   D2A27880  23.724  30.665   8.253
 7033POPC   C3A27881  23.736  30.696   7.953
 7033POPC   C4A27882  23.724  30.732   7.653
 7033POPC   C1B27883  23.903  30.781   8.553
 7033POPC   C2B27884  23.969  30.831   8.253
 7033POPC   C3B27885  23.934  30.786   7.953
 7033POPC   C4B27886  23.894  30.804   7.653
 7034POPC   NC327887  41.532  33.011   9.453
 7034POPC   PO427888  41.602  33.024   9.153
 7034POPC   GL127889  41.511  33.073   8.853
 7034POPC   GL227890  41.650  33.172   8.853
 7034POPC   C1A27891  41.524  33.062   8.553
 7034POPC   D2A27892  41.523  33.017   8.253
 7034POPC   C3A27893  41.518  33.049   7.953
 7034POPC   C4A27894  41.551  32.986   7.653
 7034POPC   C1B27895  41.614  33.208   8.553
 7034POPC   C2B27896  41.613  33.284   8.253
 7034POPC   C3B27897  41.648  33.236   7.953
 7034POPC   C4B27898  41.652  33.274   7.653
 7035POPC   NC327899  16.740  24.517   9.453
 7035POPC   PO427900  16.767  24.485   9.153
 7035POPC   GL127901  16.773  24.482   8.853
 7035POPC   GL227902  16.834  24.390   8.853
 7035POPC   C1A27903  16.712  24.513   8.553
 7035POPC   D2A27904  16.766  24.492   8.253
 7035POPC   C3A27905  16.691  24.507   7.953
 7035POPC   C4A27906  16.742  24.508   7.653
 7035POPC   C1B27907  16.853  24.313   8.553
 7035POPC   C2B27908  16.905  24.312   8.253
 7035POPC   C3B27909  16.889  24.339   7.953
 7035POPC   C4B27910  16.884  24.311   7.653
 7036POPC   NC327911  42.327  29.875   9.453
 7036POPC   PO427912  42.301  29.918   9.153
 7036POPC   GL127913  42.335  29.955   8.853
 7036POPC   GL227914  42.448  29.955   8.853
 7036POPC   C1A27915  42.328  29.909   8.553
 7036POPC   D2A27916  42.306  29.878   8.253
 7036POPC   C3A27917  42.361  29.893   7.953
 7036POPC   C4A27918  42.382  29.939   7.653
 7036POPC   C1B27919  42.528  30.032   8.553
 7036POPC   C2B27920  42.526  29.980   8.253
 7036POPC   C3B27921  42.541  30.002   7.953
 7036POPC   C4B27922  42.549  30.029   7.653
 7037POPC   NC327923   3.503   8.222   9.453
 7037POPC   PO427924   3.581   8.241   9.153
 7037POPC   GL127925   3.523   8.151   8.853
 7037POPC   GL227926   3.643   8.111   8.853
 7037POPC   C1A27927   3.581   8.186   8.553
 7037POPC   D2A27928   3.588   8.225   8.253
 7037POPC   C3A27929   3.497   8.207   7.953
 7037POPC   C4A27930   3.538   8.159   7.653
 7037POPC   C1B27931   3.675   7.991   8.553
 7037POPC   C2B27932   3.719   8.046   8.253
 7037POPC   C3B27933   3.656   8.021   7.953
 7037POPC   C4B27934   3.687   7.991   7.653
 7038POPC   NC327935   2.718  22.897   9.453
 7038POPC   PO427936   2.738  22.913   9.153
 7038POPC   GL127937   2.757  22.901   8.853
 7038POPC   GL227938   2.801  22.806   8.853
 7038POPC   C1A27939   2.745  22.899   8.553
 7038POPC   D2A27940   2.781  22.901   8.253
 7038POPC   C3A27941   2.728  22.980   7.953
 7038POPC   C4A27942   2.751  22.911   7.653
 7038POPC   C1B27943   2.779  22.707   8.553
 7038POPC   C2B27944   2.854  22.664   8.253
 7038POPC   C3B27945   2.856  22.700   7.953
 7038POPC   C4B27946   2.796  22.714   7.653
 7039POPC   NC327947  26.086   4.347   9.453
 7039POPC   PO427948  26.062   4.291   9.153
 7039POPC   GL127949  26.007   4.270   8.853
 7039POPC   GL227950  26.121   4.366   8.853
 7039POPC   C1A27951  26.019   4.340   8.553
 7039POPC   D2A27952  26.050   4.323   8.253
 7039POPC   C3A27953  26.052   4.286   7.953
 7039POPC   C4A27954  26.060   4.350   7.653
 7039POPC   C1B27955  26.272   4.478   8.553
 7039POPC   C2B27956  26.221   4.417   8.253
 7039POPC   C3B27957  26.292   4.466   7.953
 7039POPC   C4B27958  26.241   4.427   7.653
 7040POPC   NC327959  23.705  33.753   9.453
 7040POPC   PO427960  23.687  33.848   9.153
 7040POPC   GL127961  23.733  33.758   8.853
 7040POPC   GL227962  23.639  33.956   8.853
 7040POPC   C1A27963  23.748  33.779   8.553
 7040POPC   D2A27964  23.734  33.751   8.253
 7040POPC   C3A27965  23.749  33.836   7.953
 7040POPC   C4A27966  23.741  33.808   7.653
 7040POPC   C1B27967  23.593  33.981   8.553
 7040POPC   C2B27968  23.553  34.055   8.253
 7040POPC   C3B27969  23.632  34.019   7.953
 7040POPC   C4B27970  23.587  33.980   7.653
 7041POPC   NC327971  23.677  12.043   9.453
 7041POPC   PO427972  23.719  12.056   9.153
 7041POPC   GL127973  23.750  12.049   8.853
 7041POPC   GL227974  23.585  12.024   8.853
 7041POPC   C1A27975  23.754  12.053   8.553
 7041POPC   D2A27976  23.759  12.070   8.253
 7041POPC   C3A27977  23.716  12.094   7.953
 7041POPC   C4A27978  23.732  12.081   7.653
 7041POPC   C1B27979  23.507  11.940   8.553
 7041POPC   C2B27980  23.499  11.991   8.253
 7041POPC   C3B27981  23.492  11.927   7.953
 7041POPC   C4B27982  23.475  11.983   7.653
 7042POPC   NC327983   9.725  38.458   9.453
 7042POPC   PO427984   9.767  38.456   9.153
 7042POPC   GL127985   9.737  38.443   8.853
 7042POPC   GL227986   9.719  38.568   8.853
 7042POPC   C1A27987   9.792  38.428   8.553
 7042POPC   D2A27988   9.719  38.432   8.253
 7042POPC   C3A27989   9.716  38.501   7.953
 7042POPC   C4A27990   9.734  38.423   7.653
 7042POPC   C1B27991   9.667  38.703   8.553
 7042POPC   C2B27992   9.630  38.678   8.253
 7042POPC   C3B27993   9.585  38.648   7.953
 7042POPC   C4B27994   9.611  38.714   7.653
 7043POPC   NC327995  11.325  10.541   9.453
 7043POPC   PO427996  11.308  10.476   9.153
 7043POPC   GL127997  11.269  10.574   8.853
 7043POPC   GL227998  11.351  10.660   8.853
 7043POPC   C1A27999  11.312  10.530   8.553
 7043POPC   D2A28000  11.263  10.542   8.253
 7043POPC   C3A28001  11.268  10.509   7.953
 7043POPC   C4A28002  11.310  10.521   7.653
 7043POPC   C1B28003  11.324  10.779   8.553
 7043POPC   C2B28004  11.305  10.723   8.253
 7043POPC   C3B28005  11.343  10.737   7.953
 7043POPC   C4B28006  11.295  10.758   7.653
 7044POPC   NC328007  26.786  33.062   9.453
 7044POPC   PO428008  26.824  32.980   9.153
 7044POPC   GL128009  26.862  33.037   8.853
 7044POPC   GL228010  26.862  33.105   8.853
 7044POPC   C1A28011  26.802  33.021   8.553
 7044POPC   D2A28012  26.775  32.991   8.253
 7044POPC   C3A28013  26.800  32.992   7.953
 7044POPC   C4A28014  26.828  33.002   7.653
 7044POPC   C1B28015  27.033  33.164   8.553
 7044POPC   C2B28016  27.024  33.154   8.253
 7044POPC   C3B28017  27.017  33.210   7.953
 7044POPC   C4B28018  27.001  33.239   7.653
 7045POPC   NC328019  15.967  26.005   9.453
 7045POPC   PO428020  15.910  26.036   9.153
 7045POPC   GL128021  15.944  26.042   8.853
 7045POPC   GL228022  15.830  25.906   8.853
 7045POPC   C1A28023  15.991  26.004   8.553
 7045POPC   D2A28024  15.909  26.051   8.253
 7045POPC   C3A28025  15.965  26.047   7.953
 7045POPC   C4A28026  15.973  26.082   7.653
 7045POPC   C1B28027  15.802  25.838   8.553
 7045POPC   C2B28028  15.785  25.869   8.253
 7045POPC   C3B28029  15.755  25.860   7.953
 7045POPC   C4B28030  15.765  25.841   7.653
 7046POPC   NC328031  25.265  15.174   9.453
 7046POPC   PO428032  25.315  15.153   9.153
 7046POPC   GL128033  25.240  15.212   8.853
 7046POPC   GL228034  25.250  15.324   8.853
 7046POPC   C1A28035  25.246  15.157   8.553
 7046POPC   D2A28036  25.221  15.226   8.253
 7046POPC   C3A28037  25.228  15.170   7.953
 7046POPC   C4A28038  25.311  15.219   7.653
 7046POPC   C1B28039  25.263  15.448   8.553
 7046POPC   C2B28040  25.268  15.413   8.253
 7046POPC   C3B28041  25.228  15.469   7.953
 7046POPC   C4B28042  25.233  15.472   7.653
 7047POPC   NC328043   5.846   5.828   9.453
 7047POPC   PO428044   5.893   5.908   9.153
 7047POPC   GL128045   5.879   5.860   8.853
 7047POPC   GL228046   5.794   5.785   8.853
 7047POPC   C1A28047   5.888   5.906   8.553
 7047POPC   D2A28048   5.841   5.889   8.253
 7047POPC   C3A28049   5.841   5.858   7.953
 7047POPC   C4A28050   5.886   5.834   7.653
 7047POPC   C1B28051   5.837   5.619   8.553
 7047POPC   C2B28052   5.792   5.647   8.253
 7047POPC   C3B28053   5.859   5.621   7.953
 7047POPC   C4B28054   5.858   5.675   7.653
 7048POPC   NC328055   1.993  13.602   9.453
 7048POPC   PO428056   1.990  13.632   9.153
 7048POPC   GL128057   1.964  13.623   8.853
 7048POPC   GL228058   1.888  13.782   8.853
 7048POPC   C1A28059   1.985  13.592   8.553
 7048POPC   D2A28060   2.029  13.638   8.253
 7048POPC   C3A28061   1.974  13.639   7.953
 7048POPC   C4A28062   1.952  13.619   7.653
 7048POPC   C1B28063   1.890  13.821   8.553
 7048POPC   C2B28064   1.902  13.805   8.253
 7048POPC   C3B28065   1.929  13.886   7.953
 7048POPC   C4B28066   1.902  13.841   7.653
 7049POPC   NC328067  42.325  19.054   9.453
 7049POPC   PO428068  42.305  19.011   9.153
 7049POPC   GL128069  42.317  19.072   8.853
 7049POPC   GL228070  42.472  19.033   8.853
 7049POPC   C1A28071  42.327  19.045   8.553
 7049POPC   D2A28072  42.341  19.108   8.253
 7049POPC   C3A28073  42.301  19.010   7.953
 7049POPC   C4A28074  42.369  19.104   7.653
 7049POPC   C1B28075  42.566  19.020   8.553
 7049POPC   C2B28076  42.621  19.087   8.253
 7049POPC   C3B28077  42.593  19.062   7.953
 7049POPC   C4B28078  42.575  19.064   7.653
 7050POPC   NC328079  33.784  39.985   9.453
 7050POPC   PO428080  33.832  39.992   9.153
 7050POPC   GL128081  33.847  39.976   8.853
 7050POPC   GL228082  33.843  40.167   8.853
 7050POPC   C1A28083  33.755  40.009   8.553
 7050POPC   D2A28084  33.813  40.006   8.253
 7050POPC   C3A28085  33.821  39.980   7.953
 7050POPC   C4A28086  33.763  39.968   7.653
 7050POPC   C1B28087  33.893  40.206   8.553
 7050POPC   C2B28088  33.956  40.242   8.253
 7050POPC   C3B28089  33.916  40.179   7.953
 7050POPC   C4B28090  33.933  40.202   7.653
 7051POPC   NC328091  16.701   1.956   9.453
 7051POPC   PO428092  16.748   2.030   9.153
 7051POPC   GL128093  16.759   1.962   8.853
 7051POPC   GL228094  16.786   1.895   8.853
 7051POPC   C1A28095  16.714   1.973   8.553
 7051POPC   D2A28096  16.697   1.961   8.253
 7051POPC   C3A28097  16.707   1.949   7.953
 7051POPC   C4A28098  16.736   2.038   7.653
 7051POPC   C1B28099  16.895   1.887   8.553
 7051POPC   C2B28100  16.920   1.796   8.253
 7051POPC   C3B28101  16.942   1.799   7.953
 7051POPC   C4B28102  16.921   1.812   7.653
 7052POPC   NC328103  38.480   8.942   9.453
 7052POPC   PO428104  38.417   8.977   9.153
 7052POPC   GL128105  38.503   8.969   8.853
 7052POPC   GL228106  38.458   8.818   8.853
 7052POPC   C1A28107  38.423   9.018   8.553
 7052POPC   D2A28108  38.479   8.964   8.253
 7052POPC   C3A28109  38.499   8.991   7.953
 7052POPC   C4A28110  38.496   8.996   7.653
 7052POPC   C1B28111  38.434   8.708   8.553
 7052POPC   C2B28112  38.431   8.728   8.253
 7052POPC   C3B28113  38.474   8.731   7.953
 7052POPC   C4B28114  38.438   8.718   7.653
 7053POPC   NC328115   8.188  19.049   9.453
 7053POPC   PO428116   8.227  19.087   9.153
 7053POPC   GL128117   8.203  19.040   8.853
 7053POPC   GL228118   8.330  19.114   8.853
 7053POPC   C1A28119   8.174  19.037   8.553
 7053POPC   D2A28120   8.230  19.064   8.253
 7053POPC   C3A28121   8.172  19.100   7.953
 7053POPC   C4A28122   8.157  19.103   7.653
 7053POPC   C1B28123   8.463  19.144   8.553
 7053POPC   C2B28124   8.392  19.164   8.253
 7053POPC   C3B28125   8.433  19.116   7.953
 7053POPC   C4B28126   8.445  19.171   7.653
 7054POPC   NC328127  31.511   8.957   9.453
 7054POPC   PO428128  31.496   8.990   9.153
 7054POPC   GL128129  31.443   8.952   8.853
 7054POPC   GL228130  31.556   9.022   8.853
 7054POPC   C1A28131  31.520   8.931   8.553
 7054POPC   D2A28132  31.469   8.947   8.253
 7054POPC   C3A28133  31.427   8.928   7.953
 7054POPC   C4A28134  31.499   8.970   7.653
 7054POPC   C1B28135  31.629   9.104   8.553
 7054POPC   C2B28136  31.621   9.117   8.253
 7054POPC   C3B28137  31.643   9.142   7.953
 7054POPC   C4B28138  31.642   9.148   7.653
 7055POPC   NC328139   0.417  25.994   9.453
 7055POPC   PO428140   0.398  26.050   9.153
 7055POPC   GL128141   0.457  26.013   8.853
 7055POPC   GL228142   0.329  26.031   8.853
 7055POPC   C1A28143   0.467  26.056   8.553
 7055POPC   D2A28144   0.416  25.992   8.253
 7055POPC   C3A28145   0.449  26.049   7.953
 7055POPC   C4A28146   0.457  26.023   7.653
 7055POPC   C1B28147   0.183  25.979   8.553
 7055POPC   C2B28148   0.159  25.979   8.253
 7055POPC   C3B28149   0.144  26.009   7.953
 7055POPC   C4B28150   0.200  25.967   7.653
 7056POPC   NC328151   5.128   1.976   9.453
 7056POPC   PO428152   5.047   2.009   9.153
 7056POPC   GL128153   5.081   1.949   8.853
 7056POPC   GL228154   4.961   2.086   8.853
 7056POPC   C1A28155   5.113   1.951   8.553
 7056POPC   D2A28156   5.094   1.958   8.253
 7056POPC   C3A28157   5.135   2.039   7.953
 7056POPC   C4A28158   5.108   1.971   7.653
 7056POPC   C1B28159   4.894   2.195   8.553
 7056POPC   C2B28160   4.877   2.135   8.253
 7056POPC   C3B28161   4.899   2.154   7.953
 7056POPC   C4B28162   4.883   2.186   7.653
 7057POPC   NC328163   5.918  33.781   9.453
 7057POPC   PO428164   5.831  33.819   9.153
 7057POPC   GL128165   5.852  33.832   8.853
 7057POPC   GL228166   5.954  33.882   8.853
 7057POPC   C1A28167   5.839  33.790   8.553
 7057POPC   D2A28168   5.880  33.839   8.253
 7057POPC   C3A28169   5.831  33.752   7.953
 7057POPC   C4A28170   5.834  33.753   7.653
 7057POPC   C1B28171   6.083  33.908   8.553
 7057POPC   C2B28172   6.069  33.912   8.253
 7057POPC   C3B28173   6.128  33.853   7.953
 7057POPC   C4B28174   6.076  33.866   7.653
 7058POPC   NC328175  41.535  38.468   9.453
 7058POPC   PO428176  41.556  38.474   9.153
 7058POPC   GL128177  41.550  38.440   8.853
 7058POPC   GL228178  41.484  38.516   8.853
 7058POPC   C1A28179  41.551  38.409   8.553
 7058POPC   D2A28180  41.589  38.465   8.253
 7058POPC   C3A28181  41.541  38.468   7.953
 7058POPC   C4A28182  41.541  38.405   7.653
 7058POPC   C1B28183  41.397  38.634   8.553
 7058POPC   C2B28184  41.405  38.675   8.253
 7058POPC   C3B28185  41.445  38.619   7.953
 7058POPC   C4B28186  41.418  38.622   7.653
 7059POPC   NC328187   5.875  40.031   9.453
 7059POPC   PO428188   5.836  40.033   9.153
 7059POPC   GL128189   5.865  40.012   8.853
 7059POPC   GL228190   5.749  39.990   8.853
 7059POPC   C1A28191   5.903  40.031   8.553
 7059POPC   D2A28192   5.864  40.049   8.253
 7059POPC   C3A28193   5.864  40.030   7.953
 7059POPC   C4A28194   5.902  40.052   7.653
 7059POPC   C1B28195   5.607  40.010   8.553
 7059POPC   C2B28196   5.666  39.986   8.253
 7059POPC   C3B28197   5.634  40.019   7.953
 7059POPC   C4B28198   5.638  40.041   7.653
 7060POPC   NC328199  18.321   5.074   9.453
 7060POPC   PO428200  18.256   5.112   9.153
 7060POPC   GL128201  18.285   5.124   8.853
 7060POPC   GL228202  18.403   5.015   8.853
 7060POPC   C1A28203  18.277   5.142   8.553
 7060POPC   D2A28204  18.327   5.135   8.253
 7060POPC   C3A28205  18.264   5.141   7.953
 7060POPC   C4A28206  18.276   5.086   7.653
 7060POPC   C1B28207  18.544   5.045   8.553
 7060POPC   C2B28208  18.480   4.991   8.253
 7060POPC   C3B28209  18.546   5.057   7.953
 7060POPC   C4B28210  18.481   5.039   7.653
 7061POPC   NC328211   1.941   2.808   9.453
 7061POPC   PO428212   1.972   2.813   9.153
 7061POPC   GL128213   1.982   2.744   8.853
 7061POPC   GL228214   1.822   2.759   8.853
 7061POPC   C1A28215   1.948   2.810   8.553
 7061POPC   D2A28216   1.978   2.815   8.253
 7061POPC   C3A28217   1.951   2.785   7.953
 7061POPC   C4A28218   2.022   2.741   7.653
 7061POPC   C1B28219   1.722   2.814   8.553
 7061POPC   C2B28220   1.774   2.842   8.253
 7061POPC   C3B28221   1.749   2.821   7.953
 7061POPC   C4B28222   1.773   2.807   7.653
 7062POPC   NC328223  23.693  29.167   9.453
 7062POPC   PO428224  23.738  29.188   9.153
 7062POPC   GL128225  23.703  29.147   8.853
 7062POPC   GL228226  23.591  29.148   8.853
 7062POPC   C1A28227  23.670  29.185   8.553
 7062POPC   D2A28228  23.735  29.187   8.253
 7062POPC   C3A28229  23.669  29.179   7.953
 7062POPC   C4A28230  23.760  29.142   7.653
 7062POPC   C1B28231  23.425  29.215   8.553
 7062POPC   C2B28232  23.496  29.217   8.253
 7062POPC   C3B28233  23.474  29.194   7.953
 7062POPC   C4B28234  23.436  29.180   7.653
 7063POPC   NC328235  43.071   3.579   9.453
 7063POPC   PO428236  43.140   3.515   9.153
 7063POPC   GL128237  43.103   3.507   8.853
 7063POPC   GL228238  43.102   3.450   8.853
 7063POPC   C1A28239  43.150   3.554   8.553
 7063POPC   D2A28240  43.159   3.493   8.253
 7063POPC   C3A28241  43.066   3.585   7.953
 7063POPC   C4A28242  43.160   3.577   7.653
 7063POPC   C1B28243  43.008   3.347   8.553
 7063POPC   C2B28244  42.959   3.331   8.253
 7063POPC   C3B28245  42.985   3.293   7.953
 7063POPC   C4B28246  43.029   3.290   7.653
 7064POPC   NC328247  41.538  32.261   9.453
 7064POPC   PO428248  41.567  32.220   9.153
 7064POPC   GL128249  41.593  32.203   8.853
 7064POPC   GL228250  41.692  32.245   8.853
 7064POPC   C1A28251  41.547  32.282   8.553
 7064POPC   D2A28252  41.572  32.200   8.253
 7064POPC   C3A28253  41.558  32.210   7.953
 7064POPC   C4A28254  41.606  32.245   7.653
 7064POPC   C1B28255  41.793  32.166   8.553
 7064POPC   C2B28256  41.803  32.127   8.253
 7064POPC   C3B28257  41.805  32.153   7.953
 7064POPC   C4B28258  41.743  32.111   7.653
 7065POPC   NC328259  26.797  36.922   9.453
 7065POPC   PO428260  26.782  36.896   9.153
 7065POPC   GL128261  26.820  36.881   8.853
 7065POPC   GL228262  26.672  36.986   8.853
 7065POPC   C1A28263  26.782  36.902   8.553
 7065POPC   D2A28264  26.790  36.917   8.253
 7065POPC   C3A28265  26.772  36.869   7.953
 7065POPC   C4A28266  26.849  36.910   7.653
 7065POPC   C1B28267  26.560  36.988   8.553
 7065POPC   C2B28268  26.539  36.982   8.253
 7065POPC   C3B28269  26.560  36.959   7.953
 7065POPC   C4B28270  26.584  37.029   7.653
 7066POPC   NC328271   0.467  33.846   9.453
 7066POPC   PO428272   0.440  33.811   9.153
 7066POPC   GL128273   0.473  33.768   8.853
 7066POPC   GL228274   0.558  33.816   8.853
 7066POPC   C1A28275   0.481  33.817   8.553
 7066POPC   D2A28276   0.395  33.819   8.253
 7066POPC   C3A28277   0.474  33.831   7.953
 7066POPC   C4A28278   0.465  33.805   7.653
 7066POPC   C1B28279   0.646  33.909   8.553
 7066POPC   C2B28280   0.699  33.880   8.253
 7066POPC   C3B28281   0.684  33.858   7.953
 7066POPC   C4B28282   0.653  33.856   7.653
 7067POPC   NC328283  16.733  31.444   9.453
 7067POPC   PO428284  16.713  31.508   9.153
 7067POPC   GL128285  16.683  31.462   8.853
 7067POPC   GL228286  16.861  31.488   8.853
 7067POPC   C1A28287  16.775  31.477   8.553
 7067POPC   D2A28288  16.757  31.461   8.253
 7067POPC   C3A28289  16.704  31.491   7.953
 7067POPC   C4A28290  16.765  31.490   7.653
 7067POPC   C1B28291  16.948  31.545   8.553
 7067POPC   C2B28292  17.008  31.531   8.253
 7067POPC   C3B28293  16.931  31.514   7.953
 7067POPC   C4B28294  16.986  31.607   7.653
 7068POPC   NC328295  12.833  30.670   9.453
 7068POPC   PO428296  12.895  30.647   9.153
 7068POPC   GL128297  12.834  30.719   8.853
 7068POPC   GL228298  12.849  30.825   8.853
 7068POPC   C1A28299  12.814  30.664   8.553
 7068POPC   D2A28300  12.898  30.739   8.253
 7068POPC   C3A28301  12.824  30.732   7.953
 7068POPC   C4A28302  12.856  30.682   7.653
 7068POPC   C1B28303  12.818  30.934   8.553
 7068POPC   C2B28304  12.799  30.886   8.253
 7068POPC   C3B28305  12.766  30.953   7.953
 7068POPC   C4B28306  12.809  30.963   7.653
 7069POPC   NC328307  21.337  40.764   9.453
 7069POPC   PO428308  21.342  40.758   9.153
 7069POPC   GL128309  21.406  40.750   8.853
 7069POPC   GL228310  21.331  40.664   8.853
 7069POPC   C1A28311  21.416  40.806   8.553
 7069POPC   D2A28312  21.407  40.739   8.253
 7069POPC   C3A28313  21.435  40.741   7.953
 7069POPC   C4A28314  21.420  40.829   7.653
 7069POPC   C1B28315  21.309  40.574   8.553
 7069POPC   C2B28316  21.241  40.600   8.253
 7069POPC   C3B28317  21.296  40.551   7.953
 7069POPC   C4B28318  21.276  40.567   7.653
 7070POPC   NC328319  29.185  20.628   9.453
 7070POPC   PO428320  29.168  20.588   9.153
 7070POPC   GL128321  29.115  20.608   8.853
 7070POPC   GL228322  29.200  20.480   8.853
 7070POPC   C1A28323  29.168  20.583   8.553
 7070POPC   D2A28324  29.152  20.617   8.253
 7070POPC   C3A28325  29.186  20.640   7.953
 7070POPC   C4A28326  29.120  20.586   7.653
 7070POPC   C1B28327  29.193  20.395   8.553
 7070POPC   C2B28328  29.243  20.355   8.253
 7070POPC   C3B28329  29.173  20.415   7.953
 7070POPC   C4B28330  29.244  20.330   7.653
 7071POPC   NC328331  18.309  44.698   9.453
 7071POPC   PO428332  18.301  44.697   9.153
 7071POPC   GL128333  18.289  44.650   8.853
 7071POPC   GL228334  18.351  44.815   8.853
 7071POPC   C1A28335  18.246  44.625   8.553
 7071POPC   D2A28336  18.314  44.652   8.253
 7071POPC   C3A28337  18.281  44.706   7.953
 7071POPC   C4A28338  18.305  44.615   7.653
 7071POPC   C1B28339  18.405  44.873   8.553
 7071POPC   C2B28340  18.377  44.851   8.253
 7071POPC   C3B28341  18.356  44.886   7.953
 7071POPC   C4B28342  18.344  44.848   7.653
 7072POPC   NC328343  42.382  34.571   9.453
 7072POPC   PO428344  42.304  34.603   9.153
 7072POPC   GL128345  42.294  34.565   8.853
 7072POPC   GL228346  42.341  34.688   8.853
 7072POPC   C1A28347  42.378  34.587   8.553
 7072POPC   D2A28348  42.294  34.606   8.253
 7072POPC   C3A28349  42.304  34.612   7.953
 7072POPC   C4A28350  42.291  34.618   7.653
 7072POPC   C1B28351  42.429  34.787   8.553
 7072POPC   C2B28352  42.412  34.810   8.253
 7072POPC   C3B28353  42.449  34.851   7.953
 7072POPC   C4B28354  42.375  34.782   7.653
 7073POPC   NC328355  43.080  23.757   9.453
 7073POPC   PO428356  43.071  23.671   9.153
 7073POPC   GL128357  43.093  23.755   8.853
 7073POPC   GL228358  43.244  23.709   8.853
 7073POPC   C1A28359  43.084  23.741   8.553
 7073POPC   D2A28360  43.121  23.668   8.253
 7073POPC   C3A28361  43.061  23.684   7.953
 7073POPC   C4A28362  43.061  23.755   7.653
 7073POPC   C1B28363  43.378  23.798   8.553
 7073POPC   C2B28364  43.382  23.728   8.253
 7073POPC   C3B28365  43.349  23.745   7.953
 7073POPC   C4B28366  43.388  23.796   7.653
 7074POPC   NC328367  34.589  44.664   9.453
 7074POPC   PO428368  34.536  44.667   9.153
 7074POPC   GL128369  34.587  44.623   8.853
 7074POPC   GL228370  34.563  44.770   8.853
 7074POPC   C1A28371  34.541  44.617   8.553
 7074POPC   D2A28372  34.597  44.663   8.253
 7074POPC   C3A28373  34.599  44.642   7.953
 7074POPC   C4A28374  34.602  44.631   7.653
 7074POPC   C1B28375  34.604  44.921   8.553
 7074POPC   C2B28376  34.592  44.891   8.253
 7074POPC   C3B28377  34.642  44.910   7.953
 7074POPC   C4B28378  34.624  44.906   7.653
 7075POPC   NC328379  38.406  31.461   9.453
 7075POPC   PO428380  38.424  31.489   9.153
 7075POPC   GL128381  38.472  31.452   8.853
 7075POPC   GL228382  38.443  31.581   8.853
 7075POPC   C1A28383  38.476  31.482   8.553
 7075POPC   D2A28384  38.443  31.506   8.253
 7075POPC   C3A28385  38.409  31.502   7.953
 7075POPC   C4A28386  38.414  31.498   7.653
 7075POPC   C1B28387  38.440  31.723   8.553
 7075POPC   C2B28388  38.510  31.695   8.253
 7075POPC   C3B28389  38.451  31.727   7.953
 7075POPC   C4B28390  38.463  31.682   7.653
 7076POPC   NC328391  16.714   2.805   9.453
 7076POPC   PO428392  16.685   2.796   9.153
 7076POPC   GL128393  16.733   2.760   8.853
 7076POPC   GL228394  16.576   2.798   8.853
 7076POPC   C1A28395  16.781   2.737   8.553
 7076POPC   D2A28396  16.735   2.779   8.253
 7076POPC   C3A28397  16.728   2.777   7.953
 7076POPC   C4A28398  16.724   2.723   7.653
 7076POPC   C1B28399  16.523   2.748   8.553
 7076POPC   C2B28400  16.454   2.773   8.253
 7076POPC   C3B28401  16.514   2.719   7.953
 7076POPC   C4B28402  16.508   2.788   7.653
 7077POPC   NC328403  36.924  26.795   9.453
 7077POPC   PO428404  36.863  26.834   9.153
 7077POPC   GL128405  36.870  26.785   8.853
 7077POPC   GL228406  36.755  26.942   8.853
 7077POPC   C1A28407  36.901  26.854   8.553
 7077POPC   D2A28408  36.884  26.768   8.253
 7077POPC   C3A28409  36.909  26.851   7.953
 7077POPC   C4A28410  36.951  26.769   7.653
 7077POPC   C1B28411  36.747  26.983   8.553
 7077POPC   C2B28412  36.690  26.967   8.253
 7077POPC   C3B28413  36.682  26.981   7.953
 7077POPC   C4B28414  36.745  26.979   7.653
 7078POPC   NC328415   5.138   9.007   9.453
 7078POPC   PO428416   5.135   8.996   9.153
 7078POPC   GL128417   5.139   8.963   8.853
 7078POPC   GL228418   5.073   8.842   8.853
 7078POPC   C1A28419   5.119   8.963   8.553
 7078POPC   D2A28420   5.065   8.961   8.253
 7078POPC   C3A28421   5.092   8.984   7.953
 7078POPC   C4A28422   5.100   9.022   7.653
 7078POPC   C1B28423   5.165   8.741   8.553
 7078POPC   C2B28424   5.130   8.717   8.253
 7078POPC   C3B28425   5.167   8.705   7.953
 7078POPC   C4B28426   5.153   8.746   7.653
 7079POPC   NC328427  25.250  38.449   9.453
 7079POPC   PO428428  25.243  38.410   9.153
 7079POPC   GL128429  25.294  38.486   8.853
 7079POPC   GL228430  25.187  38.320   8.853
 7079POPC   C1A28431  25.228  38.415   8.553
 7079POPC   D2A28432  25.266  38.482   8.253
 7079POPC   C3A28433  25.221  38.481   7.953
 7079POPC   C4A28434  25.268  38.484   7.653
 7079POPC   C1B28435  25.156  38.298   8.553
 7079POPC   C2B28436  25.126  38.222   8.253
 7079POPC   C3B28437  25.113  38.204   7.953
 7079POPC   C4B28438  25.136  38.237   7.653
 7080POPC   NC328439  41.602  34.589   9.453
 7080POPC   PO428440  41.587  34.557   9.153
 7080POPC   GL128441  41.569  34.532   8.853
 7080POPC   GL228442  41.701  34.688   8.853
 7080POPC   C1A28443  41.555  34.626   8.553
 7080POPC   D2A28444  41.565  34.604   8.253
 7080POPC   C3A28445  41.537  34.603   7.953
 7080POPC   C4A28446  41.526  34.600   7.653
 7080POPC   C1B28447  41.802  34.741   8.553
 7080POPC   C2B28448  41.786  34.719   8.253
 7080POPC   C3B28449  41.761  34.680   7.953
 7080POPC   C4B28450  41.726  34.718   7.653
 7081POPC   NC328451  19.847  12.124   9.453
 7081POPC   PO428452  19.858  12.059   9.153
 7081POPC   GL128453  19.796  12.083   8.853
 7081POPC   GL228454  19.740  12.158   8.853
 7081POPC   C1A28455  19.793  12.046   8.553
 7081POPC   D2A28456  19.801  12.100   8.253
 7081POPC   C3A28457  19.877  12.060   7.953
 7081POPC   C4A28458  19.852  12.045   7.653
 7081POPC   C1B28459  19.628  12.161   8.553
 7081POPC   C2B28460  19.651  12.151   8.253
 7081POPC   C3B28461  19.605  12.141   7.953
 7081POPC   C4B28462  19.617  12.214   7.653
 7082POPC   NC328463  24.531   0.474   9.453
 7082POPC   PO428464  24.471   0.433   9.153
 7082POPC   GL128465  24.480   0.427   8.853
 7082POPC   GL228466  24.576   0.282   8.853
 7082POPC   C1A28467  24.471   0.478   8.553
 7082POPC   D2A28468  24.527   0.451   8.253
 7082POPC   C3A28469  24.519   0.452   7.953
 7082POPC   C4A28470  24.498   0.470   7.653
 7082POPC   C1B28471  24.578   0.241   8.553
 7082POPC   C2B28472  24.558   0.222   8.253
 7082POPC   C3B28473  24.540   0.182   7.953
 7082POPC   C4B28474  24.581   0.164   7.653
 7083POPC   NC328475   5.115  13.628   9.453
 7083POPC   PO428476   5.056  13.665   9.153
 7083POPC   GL128477   5.083  13.667   8.853
 7083POPC   GL228478   5.050  13.792   8.853
 7083POPC   C1A28479   5.074  13.587   8.553
 7083POPC   D2A28480   5.063  13.606   8.253
 7083POPC   C3A28481   5.082  13.600   7.953
 7083POPC   C4A28482   5.049  13.603   7.653
 7083POPC   C1B28483   5.026  13.906   8.553
 7083POPC   C2B28484   5.009  13.821   8.253
 7083POPC   C3B28485   5.014  13.880   7.953
 7083POPC   C4B28486   5.034  13.873   7.653
 7084POPC   NC328487  22.192   7.414   9.453
 7084POPC   PO428488  22.133   7.463   9.153
 7084POPC   GL128489  22.202   7.456   8.853
 7084POPC   GL228490  22.043   7.382   8.853
 7084POPC   C1A28491  22.113   7.434   8.553
 7084POPC   D2A28492  22.162   7.428   8.253
 7084POPC   C3A28493  22.113   7.381   7.953
 7084POPC   C4A28494  22.207   7.419   7.653
 7084POPC   C1B28495  21.903   7.310   8.553
 7084POPC   C2B28496  21.961   7.314   8.253
 7084POPC   C3B28497  21.942   7.383   7.953
 7084POPC   C4B28498  21.878   7.352   7.653
 7085POPC   NC328499  15.192  15.952   9.453
 7085POPC   PO428500  15.155  15.940   9.153
 7085POPC   GL128501  15.135  15.986   8.853
 7085POPC   GL228502  15.090  15.971   8.853
 7085POPC   C1A28503  15.176  15.939   8.553
 7085POPC   D2A28504  15.146  15.955   8.253
 7085POPC   C3A28505  15.203  15.949   7.953
 7085POPC   C4A28506  15.197  15.939   7.653
 7085POPC   C1B28507  14.946  15.897   8.553
 7085POPC   C2B28508  14.908  15.928   8.253
 7085POPC   C3B28509  14.909  15.945   7.953
 7085POPC   C4B28510  14.934  15.971   7.653
 7086POPC   NC328511   0.487  19.025   9.453
 7086POPC   PO428512   0.399  19.031   9.153
 7086POPC   GL128513   0.407  19.043   8.853
 7086POPC   GL228514   0.437  19.165   8.853
 7086POPC   C1A28515   0.452  19.074   8.553
 7086POPC   D2A28516   0.424  19.073   8.253
 7086POPC   C3A28517   0.406  19.029   7.953
 7086POPC   C4A28518   0.478  19.074   7.653
 7086POPC   C1B28519   0.447  19.280   8.553
 7086POPC   C2B28520   0.467  19.283   8.253
 7086POPC   C3B28521   0.435  19.289   7.953
 7086POPC   C4B28522   0.441  19.356   7.653
 7087POPC   NC328523   5.081  41.593   9.453
 7087POPC   PO428524   5.070  41.514   9.153
 7087POPC   GL128525   5.104  41.555   8.853
 7087POPC   GL228526   5.005  41.513   8.853
 7087POPC   C1A28527   5.073  41.532   8.553
 7087POPC   D2A28528   5.057  41.590   8.253
 7087POPC   C3A28529   5.092  41.580   7.953
 7087POPC   C4A28530   5.088  41.561   7.653
 7087POPC   C1B28531   4.819  41.511   8.553
 7087POPC   C2B28532   4.833  41.456   8.253
 7087POPC   C3B28533   4.847  41.523   7.953
 7087POPC   C4B28534   4.896  41.529   7.653
 7088POPC   NC328535  33.023  43.893   9.453
 7088POPC   PO428536  33.064  43.845   9.153
 7088POPC   GL128537  32.998  43.850   8.853
 7088POPC   GL228538  32.900  43.860   8.853
 7088POPC   C1A28539  33.055  43.866   8.553
 7088POPC   D2A28540  33.046  43.857   8.253
 7088POPC   C3A28541  33.065  43.868   7.953
 7088POPC   C4A28542  33.016  43.846   7.653
 7088POPC   C1B28543  32.836  43.712   8.553
 7088POPC   C2B28544  32.768  43.755   8.253
 7088POPC   C3B28545  32.833  43.805   7.953
 7088POPC   C4B28546  32.819  43.788   7.653
 7089POPC   NC328547   1.232  13.586   9.453
 7089POPC   PO428548   1.218  13.648   9.153
 7089POPC   GL128549   1.170  13.624   8.853
 7089POPC   GL228550   1.331  13.710   8.853
 7089POPC   C1A28551   1.181  13.611   8.553
 7089POPC   D2A28552   1.194  13.668   8.253
 7089POPC   C3A28553   1.177  13.586   7.953
 7089POPC   C4A28554   1.261  13.673   7.653
 7089POPC   C1B28555   1.347  13.861   8.553
 7089POPC   C2B28556   1.373  13.799   8.253
 7089POPC   C3B28557   1.395  13.812   7.953
 7089POPC   C4B28558   1.394  13.789   7.653
 7090POPC   NC328559  22.988  12.123   9.453
 7090POPC   PO428560  22.932  12.096   9.153
 7090POPC   GL128561  22.923  12.098   8.853
 7090POPC   GL228562  23.055  12.033   8.853
 7090POPC   C1A28563  22.966  12.074   8.553
 7090POPC   D2A28564  22.979  12.070   8.253
 7090POPC   C3A28565  22.987  12.091   7.953
 7090POPC   C4A28566  22.949  12.066   7.653
 7090POPC   C1B28567  23.177  11.934   8.553
 7090POPC   C2B28568  23.136  11.963   8.253
 7090POPC   C3B28569  23.170  11.972   7.953
 7090POPC   C4B28570  23.122  11.889   7.653
 7091POPC   NC328571   7.458  19.881   9.453
 7091POPC   PO428572   7.451  19.824   9.153
 7091POPC   GL128573   7.392  19.854   8.853
 7091POPC   GL228574   7.408  19.916   8.853
 7091POPC   C1A28575   7.429  19.846   8.553
 7091POPC   D2A28576   7.463  19.813   8.253
 7091POPC   C3A28577   7.375  19.872   7.953
 7091POPC   C4A28578   7.401  19.787   7.653
 7091POPC   C1B28579   7.416  20.109   8.553
 7091POPC   C2B28580   7.393  20.043   8.253
 7091POPC   C3B28581   7.442  20.091   7.953
 7091POPC   C4B28582   7.386  20.081   7.653
 7092POPC   NC328583   1.950  36.856   9.453
 7092POPC   PO428584   1.949  36.862   9.153
 7092POPC   GL128585   1.952  36.887   8.853
 7092POPC   GL228586   1.896  36.859   8.853
 7092POPC   C1A28587   1.954  36.913   8.553
 7092POPC   D2A28588   2.025  36.924   8.253
 7092POPC   C3A28589   1.959  36.951   7.953
 7092POPC   C4A28590   2.030  36.902   7.653
 7092POPC   C1B28591   1.695  36.925   8.553
 7092POPC   C2B28592   1.702  36.901   8.253
 7092POPC   C3B28593   1.713  36.917   7.953
 7092POPC   C4B28594   1.787  36.893   7.653
 7093POPC   NC328595  39.213  13.618   9.453
 7093POPC   PO428596  39.236  13.656   9.153
 7093POPC   GL128597  39.218  13.605   8.853
 7093POPC   GL228598  39.061  13.631   8.853
 7093POPC   C1A28599  39.248  13.596   8.553
 7093POPC   D2A28600  39.210  13.605   8.253
 7093POPC   C3A28601  39.206  13.660   7.953
 7093POPC   C4A28602  39.239  13.627   7.653
 7093POPC   C1B28603  38.940  13.735   8.553
 7093POPC   C2B28604  39.027  13.713   8.253
 7093POPC   C3B28605  38.945  13.662   7.953
 7093POPC   C4B28606  38.950  13.702   7.653
 7094POPC   NC328607  29.152  15.168   9.453
 7094POPC   PO428608  29.175  15.158   9.153
 7094POPC   GL128609  29.118  15.132   8.853
 7094POPC   GL228610  29.216  15.111   8.853
 7094POPC   C1A28611  29.181  15.157   8.553
 7094POPC   D2A28612  29.132  15.171   8.253
 7094POPC   C3A28613  29.108  15.146   7.953
 7094POPC   C4A28614  29.108  15.179   7.653
 7094POPC   C1B28615  29.269  14.954   8.553
 7094POPC   C2B28616  29.221  14.942   8.253
 7094POPC   C3B28617  29.228  14.915   7.953
 7094POPC   C4B28618  29.267  14.998   7.653
 7095POPC   NC328619   8.960  16.715   9.453
 7095POPC   PO428620   8.994  16.763   9.153
 7095POPC   GL128621   8.988  16.772   8.853
 7095POPC   GL228622   8.845  16.808   8.853
 7095POPC   C1A28623   8.988  16.734   8.553
 7095POPC   D2A28624   8.947  16.708   8.253
 7095POPC   C3A28625   8.977  16.727   7.953
 7095POPC   C4A28626   8.927  16.710   7.653
 7095POPC   C1B28627   8.754  16.919   8.553
 7095POPC   C2B28628   8.799  16.861   8.253
 7095POPC   C3B28629   8.808  16.854   7.953
 7095POPC   C4B28630   8.810  16.909   7.653
 7096POPC   NC328631  26.090  31.514   9.453
 7096POPC   PO428632  26.007  31.484   9.153
 7096POPC   GL128633  26.038  31.431   8.853
 7096POPC   GL228634  26.091  31.530   8.853
 7096POPC   C1A28635  26.038  31.458   8.553
 7096POPC   D2A28636  26.078  31.466   8.253
 7096POPC   C3A28637  26.026  31.455   7.953
 7096POPC   C4A28638  26.014  31.499   7.653
 7096POPC   C1B28639  26.260  31.658   8.553
 7096POPC   C2B28640  26.252  31.596   8.253
 7096POPC   C3B28641  26.206  31.603   7.953
 7096POPC   C4B28642  26.235  31.657   7.653
 7097POPC   NC328643  29.108  30.700   9.453
 7097POPC   PO428644  29.179  30.724   9.153
 7097POPC   GL128645  29.192  30.676   8.853
 7097POPC   GL228646  29.061  30.631   8.853
 7097POPC   C1A28647  29.183  30.741   8.553
 7097POPC   D2A28648  29.186  30.744   8.253
 7097POPC   C3A28649  29.147  30.689   7.953
 7097POPC   C4A28650  29.156  30.667   7.653
 7097POPC   C1B28651  28.985  30.507   8.553
 7097POPC   C2B28652  28.913  30.542   8.253
 7097POPC   C3B28653  28.989  30.563   7.953
 7097POPC   C4B28654  28.956  30.572   7.653
 7098POPC   NC328655  26.801  29.191   9.453
 7098POPC   PO428656  26.824  29.173   9.153
 7098POPC   GL128657  26.767  29.099   8.853
 7098POPC   GL228658  26.727  29.233   8.853
 7098POPC   C1A28659  26.852  29.157   8.553
 7098POPC   D2A28660  26.856  29.184   8.253
 7098POPC   C3A28661  26.843  29.169   7.953
 7098POPC   C4A28662  26.785  29.124   7.653
 7098POPC   C1B28663  26.644  29.269   8.553
 7098POPC   C2B28664  26.668  29.297   8.253
 7098POPC   C3B28665  26.588  29.263   7.953
 7098POPC   C4B28666  26.673  29.300   7.653
 7099POPC   NC328667  18.317  29.914   9.453
 7099POPC   PO428668  18.292  29.909   9.153
 7099POPC   GL128669  18.269  29.894   8.853
 7099POPC   GL228670  18.155  29.982   8.853
 7099POPC   C1A28671  18.237  29.962   8.553
 7099POPC   D2A28672  18.321  29.915   8.253
 7099POPC   C3A28673  18.275  29.894   7.953
 7099POPC   C4A28674  18.303  29.933   7.653
 7099POPC   C1B28675  18.067  30.088   8.553
 7099POPC   C2B28676  18.080  30.047   8.253
 7099POPC   C3B28677  18.137  30.097   7.953
 7099POPC   C4B28678  18.054  30.085   7.653
 7100POPC   NC328679   0.426   1.986   9.453
 7100POPC   PO428680   0.445   1.982   9.153
 7100POPC   GL128681   0.472   2.012   8.853
 7100POPC   GL228682   0.556   1.876   8.853
 7100POPC   C1A28683   0.399   1.961   8.553
 7100POPC   D2A28684   0.466   1.981   8.253
 7100POPC   C3A28685   0.473   1.961   7.953
 7100POPC   C4A28686   0.437   1.967   7.653
 7100POPC   C1B28687   0.637   1.891   8.553
 7100POPC   C2B28688   0.649   1.867   8.253
 7100POPC   C3B28689   0.680   1.841   7.953
 7100POPC   C4B28690   0.612   1.868   7.653
 7101POPC   NC328691  11.299   9.791   9.453
 7101POPC   PO428692  11.275   9.767   9.153
 7101POPC   GL128693  11.332   9.764   8.853
 7101POPC   GL228694  11.214   9.637   8.853
 7101POPC   C1A28695  11.346   9.757   8.553
 7101POPC   D2A28696  11.276   9.725   8.253
 7101POPC   C3A28697  11.279   9.707   7.953
 7101POPC   C4A28698  11.333   9.770   7.653
 7101POPC   C1B28699  11.173   9.599   8.553
 7101POPC   C2B28700  11.185   9.558   8.253
 7101POPC   C3B28701  11.174   9.539   7.953
 7101POPC   C4B28702  11.122   9.532   7.653
 7102POPC   NC328703  36.867  39.223   9.453
 7102POPC   PO428704  36.877  39.244   9.153
 7102POPC   GL128705  36.916  39.206   8.853
 7102POPC   GL228706  37.010  39.170   8.853
 7102POPC   C1A28707  36.879  39.223   8.553
 7102POPC   D2A28708  36.950  39.270   8.253
 7102POPC   C3A28709  36.877  39.233   7.953
 7102POPC   C4A28710  36.929  39.201   7.653
 7102POPC   C1B28711  37.095  38.993   8.553
 7102POPC   C2B28712  37.039  38.980   8.253
 7102POPC   C3B28713  37.061  39.029   7.953
 7102POPC   C4B28714  37.045  39.029   7.653
 7103POPC   NC328715   5.141  14.444   9.453
 7103POPC   PO428716   5.068  14.444   9.153
 7103POPC   GL128717   5.059  14.389   8.853
 7103POPC   GL228718   5.163  14.321   8.853
 7103POPC   C1A28719   5.120  14.402   8.553
 7103POPC   D2A28720   5.091  14.410   8.253
 7103POPC   C3A28721   5.075  14.404   7.953
 7103POPC   C4A28722   5.136  14.371   7.653
 7103POPC   C1B28723   5.122  14.205   8.553
 7103POPC   C2B28724   5.156  14.113   8.253
 7103POPC   C3B28725   5.129  14.169   7.953
 7103POPC   C4B28726   5.124  14.167   7.653
 7104POPC   NC328727  40.006  43.847   9.453
 7104POPC   PO428728  39.958  43.881   9.153
 7104POPC   GL128729  39.974  43.841   8.853
 7104POPC   GL228730  39.965  44.042   8.853
 7104POPC   C1A28731  40.022  43.856   8.553
 7104POPC   D2A28732  39.984  43.911   8.253
 7104POPC   C3A28733  39.986  43.850   7.953
 7104POPC   C4A28734  40.044  43.934   7.653
 7104POPC   C1B28735  40.011  44.095   8.553
 7104POPC   C2B28736  39.994  44.090   8.253
 7104POPC   C3B28737  40.047  44.158   7.953
 7104POPC   C4B28738  40.025  44.142   7.653
 7105POPC   NC328739  21.346  44.657   9.453
 7105POPC   PO428740  21.368  44.644   9.153
 7105POPC   GL128741  21.363  44.665   8.853
 7105POPC   GL228742  21.230  44.712   8.853
 7105POPC   C1A28743  21.432  44.634   8.553
 7105POPC   D2A28744  21.430  44.647   8.253
 7105POPC   C3A28745  21.372  44.681   7.953
 7105POPC   C4A28746  21.422  44.683   7.653
 7105POPC   C1B28747  21.177  44.708   8.553
 7105POPC   C2B28748  21.173  44.734   8.253
 7105POPC   C3B28749  21.183  44.725   7.953
 7105POPC   C4B28750  21.111  44.779   7.653
 7106POPC   NC328751   5.828  42.356   9.453
 7106POPC   PO428752   5.822  42.295   9.153
 7106POPC   GL128753   5.877  42.341   8.853
 7106POPC   GL228754   5.796  42.419   8.853
 7106POPC   C1A28755   5.885  42.341   8.553
 7106POPC   D2A28756   5.839  42.291   8.253
 7106POPC   C3A28757   5.854  42.367   7.953
 7106POPC   C4A28758   5.828  42.375   7.653
 7106POPC   C1B28759   5.669  42.446   8.553
 7106POPC   C2B28760   5.619  42.490   8.253
 7106POPC   C3B28761   5.671  42.472   7.953
 7106POPC   C4B28762   5.630  42.492   7.653
 7107POPC   NC328763  36.125  30.705   9.453
 7107POPC   PO428764  36.140  30.657   9.153
 7107POPC   GL128765  36.168  30.735   8.853
 7107POPC   GL228766  36.125  30.786   8.853
 7107POPC   C1A28767  36.123  30.661   8.553
 7107POPC   D2A28768  36.158  30.659   8.253
 7107POPC   C3A28769  36.136  30.742   7.953
 7107POPC   C4A28770  36.089  30.657   7.653
 7107POPC   C1B28771  36.107  30.899   8.553
 7107POPC   C2B28772  36.024  30.894   8.253
 7107POPC   C3B28773  36.092  30.894   7.953
 7107POPC   C4B28774  36.046  30.949   7.653
 7108POPC   NC328775  27.596  24.478   9.453
 7108POPC   PO428776  27.605  24.534   9.153
 7108POPC   GL128777  27.637  24.445   8.853
 7108POPC   GL228778  27.743  24.469   8.853
 7108POPC   C1A28779  27.616  24.527   8.553
 7108POPC   D2A28780  27.607  24.499   8.253
 7108POPC   C3A28781  27.610  24.508   7.953
 7108POPC   C4A28782  27.547  24.513   7.653
 7108POPC   C1B28783  27.800  24.451   8.553
 7108POPC   C2B28784  27.848  24.466   8.253
 7108POPC   C3B28785  27.857  24.460   7.953
 7108POPC   C4B28786  27.865  24.513   7.653
 7109POPC   NC328787   1.179  12.805   9.453
 7109POPC   PO428788   1.262  12.849   9.153
 7109POPC   GL128789   1.166  12.826   8.853
 7109POPC   GL228790   1.071  12.778   8.853
 7109POPC   C1A28791   1.184  12.845   8.553
 7109POPC   D2A28792   1.164  12.841   8.253
 7109POPC   C3A28793   1.243  12.864   7.953
 7109POPC   C4A28794   1.259  12.842   7.653
 7109POPC   C1B28795   0.985  12.785   8.553
 7109POPC   C2B28796   1.010  12.784   8.253
 7109POPC   C3B28797   1.007  12.717   7.953
 7109POPC   C4B28798   0.981  12.733   7.653
 7110POPC   NC328799  15.182   5.889   9.453
 7110POPC   PO428800  15.201   5.918   9.153
 7110POPC   GL128801  15.211   5.882   8.853
 7110POPC   GL228802  15.099   5.780   8.853
 7110POPC   C1A28803  15.144   5.820   8.553
 7110POPC   D2A28804  15.213   5.827   8.253
 7110POPC   C3A28805  15.130   5.837   7.953
 7110POPC   C4A28806  15.211   5.873   7.653
 7110POPC   C1B28807  14.940   5.679   8.553
 7110POPC   C2B28808  14.946   5.761   8.253
 7110POPC   C3B28809  14.989   5.760   7.953
 7110POPC   C4B28810  14.971   5.742   7.653
 7111POPC   NC328811   0.466  35.321   9.453
 7111POPC   PO428812   0.456  35.355   9.153
 7111POPC   GL128813   0.454  35.357   8.853
 7111POPC   GL228814   0.472  35.431   8.853
 7111POPC   C1A28815   0.427  35.354   8.553
 7111POPC   D2A28816   0.402  35.355   8.253
 7111POPC   C3A28817   0.402  35.380   7.953
 7111POPC   C4A28818   0.413  35.375   7.653
 7111POPC   C1B28819   0.546  35.564   8.553
 7111POPC   C2B28820   0.544  35.579   8.253
 7111POPC   C3B28821   0.576  35.603   7.953
 7111POPC   C4B28822   0.548  35.522   7.653
 7112POPC   NC328823  37.706  14.447   9.453
 7112POPC   PO428824  37.673  14.365   9.153
 7112POPC   GL128825  37.706  14.419   8.853
 7112POPC   GL228826  37.687  14.487   8.853
 7112POPC   C1A28827  37.650  14.434   8.553
 7112POPC   D2A28828  37.727  14.381   8.253
 7112POPC   C3A28829  37.631  14.382   7.953
 7112POPC   C4A28830  37.661  14.362   7.653
 7112POPC   C1B28831  37.625  14.628   8.553
 7112POPC   C2B28832  37.625  14.692   8.253
 7112POPC   C3B28833  37.642  14.657   7.953
 7112POPC   C4B28834  37.616  14.628   7.653
 7113POPC   NC328835   0.467  39.192   9.453
 7113POPC   PO428836   0.480  39.265   9.153
 7113POPC   GL128837   0.459  39.215   8.853
 7113POPC   GL228838   0.279  39.195   8.853
 7113POPC   C1A28839   0.436  39.275   8.553
 7113POPC   D2A28840   0.456  39.263   8.253
 7113POPC   C3A28841   0.433  39.258   7.953
 7113POPC   C4A28842   0.461  39.269   7.653
 7113POPC   C1B28843   0.178  39.148   8.553
 7113POPC   C2B28844   0.209  39.125   8.253
 7113POPC   C3B28845   0.181  39.147   7.953
 7113POPC   C4B28846   0.203  39.160   7.653
 7114POPC   NC328847  44.630  26.002   9.453
 7114POPC   PO428848  44.633  25.996   9.153
 7114POPC   GL128849  44.707  26.052   8.853
 7114POPC   GL228850  44.768  25.985   8.853
 7114POPC   C1A28851  44.687  26.023   8.553
 7114POPC   D2A28852  44.615  26.036   8.253
 7114POPC   C3A28853  44.671  26.018   7.953
 7114POPC   C4A28854  44.678  26.002   7.653
 7114POPC   C1B28855  44.766  25.786   8.553
 7114POPC   C2B28856  44.788  25.790   8.253
 7114POPC   C3B28857  44.841  25.862   7.953
 7114POPC   C4B28858  44.764  25.882   7.653
 7115POPC   NC328859   1.191  44.645   9.453
 7115POPC   PO428860   1.219  44.666   9.153
 7115POPC   GL128861   1.261  44.661   8.853
 7115POPC   GL228862   1.138  44.779   8.853
 7115POPC   C1A28863   1.191  44.622   8.553
 7115POPC   D2A28864   1.227  44.692   8.253
 7115POPC   C3A28865   1.229  44.697   7.953
 7115POPC   C4A28866   1.179  44.686   7.653
 7115POPC   C1B28867   1.053  44.871   8.553
 7115POPC   C2B28868   1.080  44.913   8.253
 7115POPC   C3B28869   1.030  44.902   7.953
 7115POPC   C4B28870   1.049  44.917   7.653
 7116POPC   NC328871  26.009  12.886   9.453
 7116POPC   PO428872  25.999  12.822   9.153
 7116POPC   GL128873  26.020  12.808   8.853
 7116POPC   GL228874  26.005  12.755   8.853
 7116POPC   C1A28875  26.007  12.865   8.553
 7116POPC   D2A28876  25.995  12.862   8.253
 7116POPC   C3A28877  26.088  12.864   7.953
 7116POPC   C4A28878  25.998  12.808   7.653
 7116POPC   C1B28879  25.873  12.703   8.553
 7116POPC   C2B28880  25.871  12.612   8.253
 7116POPC   C3B28881  25.879  12.682   7.953
 7116POPC   C4B28882  25.863  12.649   7.653
 7117POPC   NC328883  22.124   5.046   9.453
 7117POPC   PO428884  22.182   5.118   9.153
 7117POPC   GL128885  22.162   5.127   8.853
 7117POPC   GL228886  22.254   5.177   8.853
 7117POPC   C1A28887  22.131   5.058   8.553
 7117POPC   D2A28888  22.143   5.081   8.253
 7117POPC   C3A28889  22.115   5.070   7.953
 7117POPC   C4A28890  22.153   5.058   7.653
 7117POPC   C1B28891  22.365   5.292   8.553
 7117POPC   C2B28892  22.381   5.223   8.253
 7117POPC   C3B28893  22.349   5.212   7.953
 7117POPC   C4B28894  22.348   5.290   7.653
 7118POPC   NC328895   2.718  28.321   9.453
 7118POPC   PO428896   2.750  28.332   9.153
 7118POPC   GL128897   2.803  28.328   8.853
 7118POPC   GL228898   2.730  28.445   8.853
 7118POPC   C1A28899   2.738  28.326   8.553
 7118POPC   D2A28900   2.760  28.389   8.253
 7118POPC   C3A28901   2.767  28.321   7.953
 7118POPC   C4A28902   2.738  28.328   7.653
 7118POPC   C1B28903   2.683  28.617   8.553
 7118POPC   C2B28904   2.695  28.587   8.253
 7118POPC   C3B28905   2.684  28.566   7.953
 7118POPC   C4B28906   2.667  28.652   7.653
 7119POPC   NC328907  37.650  26.792   9.453
 7119POPC   PO428908  37.641  26.788   9.153
 7119POPC   GL128909  37.700  26.828   8.853
 7119POPC   GL228910  37.749  26.785   8.853
 7119POPC   C1A28911  37.717  26.805   8.553
 7119POPC   D2A28912  37.716  26.864   8.253
 7119POPC   C3A28913  37.726  26.856   7.953
 7119POPC   C4A28914  37.646  26.845   7.653
 7119POPC   C1B28915  37.878  26.726   8.553
 7119POPC   C2B28916  37.915  26.732   8.253
 7119POPC   C3B28917  37.935  26.750   7.953
 7119POPC   C4B28918  37.963  26.711   7.653
 7120POPC   NC328919  23.713  12.847   9.453
 7120POPC   PO428920  23.713  12.827   9.153
 7120POPC   GL128921  23.729  12.808   8.853
 7120POPC   GL228922  23.585  12.819   8.853
 7120POPC   C1A28923  23.755  12.895   8.553
 7120POPC   D2A28924  23.688  12.812   8.253
 7120POPC   C3A28925  23.703  12.886   7.953
 7120POPC   C4A28926  23.716  12.820   7.653
 7120POPC   C1B28927  23.495  12.684   8.553
 7120POPC   C2B28928  23.493  12.699   8.253
 7120POPC   C3B28929  23.492  12.678   7.953
 7120POPC   C4B28930  23.510  12.680   7.653
 7121POPC   NC328931  11.299  29.913   9.453
 7121POPC   PO428932  11.303  29.951   9.153
 7121POPC   GL128933  11.333  29.876   8.853
 7121POPC   GL228934  11.200  30.014   8.853
 7121POPC   C1A28935  11.262  29.953   8.553
 7121POPC   D2A28936  11.335  29.958   8.253
 7121POPC   C3A28937  11.329  29.929   7.953
 7121POPC   C4A28938  11.295  29.952   7.653
 7121POPC   C1B28939  11.170  30.132   8.553
 7121POPC   C2B28940  11.180  30.154   8.253
 7121POPC   C3B28941  11.180  30.184   7.953
 7121POPC   C4B28942  11.221  30.132   7.653
 7122POPC   NC328943   1.207  29.913   9.453
 7122POPC   PO428944   1.212  29.873   9.153
 7122POPC   GL128945   1.221  29.894   8.853
 7122POPC   GL228946   1.199  29.758   8.853
 7122POPC   C1A28947   1.171  29.917   8.553
 7122POPC   D2A28948   1.210  29.929   8.253
 7122POPC   C3A28949   1.221  29.943   7.953
 7122POPC   C4A28950   1.250  29.934   7.653
 7122POPC   C1B28951   1.246  29.634   8.553
 7122POPC   C2B28952   1.246  29.666   8.253
 7122POPC   C3B28953   1.305  29.697   7.953
 7122POPC   C4B28954   1.281  29.717   7.653
 7123POPC   NC328955  38.442  26.059   9.453
 7123POPC   PO428956  38.437  26.007   9.153
 7123POPC   GL128957  38.434  26.059   8.853
 7123POPC   GL228958  38.606  26.147   8.853
 7123POPC   C1A28959  38.440  26.075   8.553
 7123POPC   D2A28960  38.406  26.038   8.253
 7123POPC   C3A28961  38.465  26.053   7.953
 7123POPC   C4A28962  38.424  26.045   7.653
 7123POPC   C1B28963  38.621  26.148   8.553
 7123POPC   C2B28964  38.692  26.156   8.253
 7123POPC   C3B28965  38.713  26.199   7.953
 7123POPC   C4B28966  38.678  26.147   7.653
 7124POPC   NC328967  19.022   8.992   9.453
 7124POPC   PO428968  19.018   8.981   9.153
 7124POPC   GL128969  19.081   9.003   8.853
 7124POPC   GL228970  18.953   9.089   8.853
 7124POPC   C1A28971  19.096   8.988   8.553
 7124POPC   D2A28972  19.055   8.980   8.253
 7124POPC   C3A28973  19.095   9.006   7.953
 7124POPC   C4A28974  19.087   8.941   7.653
 7124POPC   C1B28975  18.848   9.106   8.553
 7124POPC   C2B28976  18.922   9.146   8.253
 7124POPC   C3B28977  18.886   9.137   7.953
 7124POPC   C4B28978  18.895   9.160   7.653
 7125POPC   NC328979  26.068  34.534   9.453
 7125POPC   PO428980  25.998  34.547   9.153
 7125POPC   GL128981  26.091  34.543   8.853
 7125POPC   GL228982  26.024  34.671   8.853
 7125POPC   C1A28983  26.038  34.606   8.553
 7125POPC   D2A28984  26.089  34.563   8.253
 7125POPC   C3A28985  25.995  34.560   7.953
 7125POPC   C4A28986  26.000  34.609   7.653
 7125POPC   C1B28987  26.089  34.864   8.553
 7125POPC   C2B28988  26.042  34.856   8.253
 7125POPC   C3B28989  26.063  34.873   7.953
 7125POPC   C4B28990  26.039  34.850   7.653
 7126POPC   NC328991  26.805  28.381   9.453
 7126POPC   PO428992  26.844  28.390   9.153
 7126POPC   GL128993  26.826  28.373   8.853
 7126POPC   GL228994  26.662  28.349   8.853
 7126POPC   C1A28995  26.839  28.363   8.553
 7126POPC   D2A28996  26.863  28.352   8.253
 7126POPC   C3A28997  26.768  28.414   7.953
 7126POPC   C4A28998  26.825  28.355   7.653
 7126POPC   C1B28999  26.597  28.253   8.553
 7126POPC   C2B29000  26.556  28.211   8.253
 7126POPC   C3B29001  26.643  28.225   7.953
 7126POPC   C4B29002  26.585  28.256   7.653
 7127POPC   NC329003  11.306  22.924   9.453
 7127POPC   PO429004  11.333  22.891   9.153
 7127POPC   GL129005  11.329  22.913   8.853
 7127POPC   GL229006  11.212  22.873   8.853
 7127POPC   C1A29007  11.300  22.920   8.553
 7127POPC   D2A29008  11.285  22.894   8.253
 7127POPC   C3A29009  11.276  22.898   7.953
 7127POPC   C4A29010  11.294  22.935   7.653
 7127POPC   C1B29011  11.055  22.850   8.553
 7127POPC   C2B29012  11.059  22.856   8.253
 7127POPC   C3B29013  11.020  22.843   7.953
 7127POPC   C4B29014  11.039  22.821   7.653
 7128POPC   NC329015   3.530  28.389   9.453
 7128POPC   PO429016   3.528  28.418   9.153
 7128POPC   GL129017   3.516  28.367   8.853
 7128POPC   GL229018   3.587  28.476   8.853
 7128POPC   C1A29019   3.587  28.404   8.553
 7128POPC   D2A29020   3.517  28.412   8.253
 7128POPC   C3A29021   3.537  28.402   7.953
 7128POPC   C4A29022   3.570  28.348   7.653
 7128POPC   C1B29023   3.643  28.638   8.553
 7128POPC   C2B29024   3.605  28.590   8.253
 7128POPC   C3B29025   3.666  28.610   7.953
 7128POPC   C4B29026   3.656  28.628   7.653
 7129POPC   NC329027  22.909  31.488   9.453
 7129POPC   PO429028  22.980  31.457   9.153
 7129POPC   GL129029  22.949  31.497   8.853
 7129POPC   GL229030  22.835  31.438   8.853
 7129POPC   C1A29031  22.896  31.425   8.553
 7129POPC   D2A29032  22.941  31.483   8.253
 7129POPC   C3A29033  22.918  31.509   7.953
 7129POPC   C4A29034  22.923  31.478   7.653
 7129POPC   C1B29035  22.711  31.474   8.553
 7129POPC   C2B29036  22.648  31.520   8.253
 7129POPC   C3B29037  22.704  31.531   7.953
 7129POPC   C4B29038  22.704  31.512   7.653
 7130POPC   NC329039  26.780  43.115   9.453
 7130POPC   PO429040  26.838  43.142   9.153
 7130POPC   GL129041  26.801  43.144   8.853
 7130POPC   GL229042  26.884  43.035   8.853
 7130POPC   C1A29043  26.826  43.106   8.553
 7130POPC   D2A29044  26.770  43.127   8.253
 7130POPC   C3A29045  26.769  43.130   7.953
 7130POPC   C4A29046  26.854  43.130   7.653
 7130POPC   C1B29047  26.888  42.875   8.553
 7130POPC   C2B29048  26.902  42.914   8.253
 7130POPC   C3B29049  26.892  42.883   7.953
 7130POPC   C4B29050  26.935  42.906   7.653
 7131POPC   NC329051  22.125  15.194   9.453
 7131POPC   PO429052  22.166  15.223   9.153
 7131POPC   GL129053  22.113  15.178   8.853
 7131POPC   GL229054  22.129  15.276   8.853
 7131POPC   C1A29055  22.122  15.229   8.553
 7131POPC   D2A29056  22.125  15.201   8.253
 7131POPC   C3A29057  22.183  15.159   7.953
 7131POPC   C4A29058  22.205  15.178   7.653
 7131POPC   C1B29059  22.040  15.387   8.553
 7131POPC   C2B29060  22.026  15.357   8.253
 7131POPC   C3B29061  22.006  15.340   7.953
 7131POPC   C4B29062  21.988  15.417   7.653
 7132POPC   NC329063   8.209   3.536   9.453
 7132POPC   PO429064   8.151   3.506   9.153
 7132POPC   GL129065   8.228   3.500   8.853
 7132POPC   GL229066   8.187   3.424   8.853
 7132POPC   C1A29067   8.179   3.497   8.553
 7132POPC   D2A29068   8.178   3.540   8.253
 7132POPC   C3A29069   8.238   3.589   7.953
 7132POPC   C4A29070   8.179   3.530   7.653
 7132POPC   C1B29071   8.131   3.280   8.553
 7132POPC   C2B29072   8.131   3.324   8.253
 7132POPC   C3B29073   8.173   3.341   7.953
 7132POPC   C4B29074   8.162   3.260   7.653
 7133POPC   NC329075  31.447  22.191   9.453
 7133POPC   PO429076  31.457  22.177   9.153
 7133POPC   GL129077  31.433  22.159   8.853
 7133POPC   GL229078  31.443  22.094   8.853
 7133POPC   C1A29079  31.520  22.161   8.553
 7133POPC   D2A29080  31.470  22.209   8.253
 7133POPC   C3A29081  31.509  22.147   7.953
 7133POPC   C4A29082  31.440  22.209   7.653
 7133POPC   C1B29083  31.369  21.944   8.553
 7133POPC   C2B29084  31.365  21.894   8.253
 7133POPC   C3B29085  31.371  21.912   7.953
 7133POPC   C4B29086  31.360  21.942   7.653
 7134POPC   NC329087   1.208  33.816   9.453
 7134POPC   PO429088   1.167  33.826   9.153
 7134POPC   GL129089   1.258  33.824   8.853
 7134POPC   GL229090   1.149  33.706   8.853
 7134POPC   C1A29091   1.224  33.825   8.553
 7134POPC   D2A29092   1.219  33.811   8.253
 7134POPC   C3A29093   1.190  33.821   7.953
 7134POPC   C4A29094   1.256  33.831   7.653
 7134POPC   C1B29095   1.131  33.575   8.553
 7134POPC   C2B29096   1.150  33.578   8.253
 7134POPC   C3B29097   1.142  33.571   7.953
 7134POPC   C4B29098   1.072  33.556   7.653
 7135POPC   NC329099   5.136   3.533   9.453
 7135POPC   PO429100   5.072   3.585   9.153
 7135POPC   GL129101   5.109   3.554   8.853
 7135POPC   GL229102   5.136   3.696   8.853
 7135POPC   C1A29103   5.044   3.547   8.553
 7135POPC   D2A29104   5.130   3.540   8.253
 7135POPC   C3A29105   5.063   3.583   7.953
 7135POPC   C4A29106   5.068   3.510   7.653
 7135POPC   C1B29107   5.086   3.796   8.553
 7135POPC   C2B29108   5.094   3.763   8.253
 7135POPC   C3B29109   5.143   3.763   7.953
 7135POPC   C4B29110   5.172   3.772   7.653
 7136POPC   NC329111  33.038  19.085   9.453
 7136POPC   PO429112  32.987  19.029   9.153
 7136POPC   GL129113  32.996  19.071   8.853
 7136POPC   GL229114  33.070  18.931   8.853
 7136POPC   C1A29115  33.045  19.024   8.553
 7136POPC   D2A29116  33.000  19.067   8.253
 7136POPC   C3A29117  32.993  19.077   7.953
 7136POPC   C4A29118  33.068  19.036   7.653
 7136POPC   C1B29119  33.104  18.865   8.553
 7136POPC   C2B29120  33.099  18.788   8.253
 7136POPC   C3B29121  33.116  18.844   7.953
 7136POPC   C4B29122  33.132  18.846   7.653
 7137POPC   NC329123  41.584   1.214   9.453
 7137POPC   PO429124  41.560   1.169   9.153
 7137POPC   GL129125  41.529   1.203   8.853
 7137POPC   GL229126  41.581   1.292   8.853
 7137POPC   C1A29127  41.577   1.201   8.553
 7137POPC   D2A29128  41.542   1.244   8.253
 7137POPC   C3A29129  41.513   1.215   7.953
 7137POPC   C4A29130  41.552   1.205   7.653
 7137POPC   C1B29131  41.643   1.427   8.553
 7137POPC   C2B29132  41.615   1.415   8.253
 7137POPC   C3B29133  41.616   1.448   7.953
 7137POPC   C4B29134  41.619   1.417   7.653
 7138POPC   NC329135  31.462  13.655   9.453
 7138POPC   PO429136  31.478  13.586   9.153
 7138POPC   GL129137  31.432  13.665   8.853
 7138POPC   GL229138  31.350  13.698   8.853
 7138POPC   C1A29139  31.453  13.600   8.553
 7138POPC   D2A29140  31.439  13.593   8.253
 7138POPC   C3A29141  31.504  13.607   7.953
 7138POPC   C4A29142  31.504  13.670   7.653
 7138POPC   C1B29143  31.329  13.871   8.553
 7138POPC   C2B29144  31.328  13.785   8.253
 7138POPC   C3B29145  31.292  13.800   7.953
 7138POPC   C4B29146  31.290  13.824   7.653
 7139POPC   NC329147   9.768  27.643   9.453
 7139POPC   PO429148   9.787  27.634   9.153
 7139POPC   GL129149   9.701  27.570   8.853
 7139POPC   GL229150   9.817  27.743   8.853
 7139POPC   C1A29151   9.761  27.571   8.553
 7139POPC   D2A29152   9.770  27.567   8.253
 7139POPC   C3A29153   9.720  27.624   7.953
 7139POPC   C4A29154   9.781  27.550   7.653
 7139POPC   C1B29155   9.789  27.864   8.553
 7139POPC   C2B29156   9.759  27.832   8.253
 7139POPC   C3B29157   9.829  27.832   7.953
 7139POPC   C4B29158   9.799  27.851   7.653
 7140POPC   NC329159  16.704  44.614   9.453
 7140POPC   PO429160  16.725  44.691   9.153
 7140POPC   GL129161  16.690  44.671   8.853
 7140POPC   GL229162  16.832  44.553   8.853
 7140POPC   C1A29163  16.764  44.656   8.553
 7140POPC   D2A29164  16.703  44.622   8.253
 7140POPC   C3A29165  16.769  44.697   7.953
 7140POPC   C4A29166  16.756  44.654   7.653
 7140POPC   C1B29167  16.955  44.468   8.553
 7140POPC   C2B29168  16.958  44.480   8.253
 7140POPC   C3B29169  16.877  44.448   7.953
 7140POPC   C4B29170  16.959  44.509   7.653
 7141POPC   NC329171  19.104   0.389   9.453
 7141POPC   PO429172  19.009   0.427   9.153
 7141POPC   GL129173  19.087   0.435   8.853
 7141POPC   GL229174  19.095   0.558   8.853
 7141POPC   C1A29175  19.108   0.465   8.553
 7141POPC   D2A29176  19.032   0.456   8.253
 7141POPC   C3A29177  19.107   0.463   7.953
 7141POPC   C4A29178  19.010   0.403   7.653
 7141POPC   C1B29179  19.187   0.663   8.553
 7141POPC   C2B29180  19.194   0.614   8.253
 7141POPC   C3B29181  19.138   0.650   7.953
 7141POPC   C4B29182  19.136   0.670   7.653
 7142POPC   NC329183  19.794  15.978   9.453
 7142POPC   PO429184  19.819  15.942   9.153
 7142POPC   GL129185  19.851  15.942   8.853
 7142POPC   GL229186  19.836  15.865   8.853
 7142POPC   C1A29187  19.800  15.952   8.553
 7142POPC   D2A29188  19.882  15.954   8.253
 7142POPC   C3A29189  19.846  15.921   7.953
 7142POPC   C4A29190  19.862  15.996   7.653
 7142POPC   C1B29191  19.748  15.670   8.553
 7142POPC   C2B29192  19.793  15.755   8.253
 7142POPC   C3B29193  19.726  15.740   7.953
 7142POPC   C4B29194  19.802  15.701   7.653
 7143POPC   NC329195   7.432  29.910   9.453
 7143POPC   PO429196   7.453  29.924   9.153
 7143POPC   GL129197   7.377  29.943   8.853
 7143POPC   GL229198   7.337  29.822   8.853
 7143POPC   C1A29199   7.462  29.939   8.553
 7143POPC   D2A29200   7.421  29.917   8.253
 7143POPC   C3A29201   7.402  29.916   7.953
 7143POPC   C4A29202   7.397  29.955   7.653
 7143POPC   C1B29203   7.193  29.827   8.553
 7143POPC   C2B29204   7.194  29.793   8.253
 7143POPC   C3B29205   7.165  29.807   7.953
 7143POPC   C4B29206   7.218  29.784   7.653
 7144POPC   NC329207   8.190   9.770   9.453
 7144POPC   PO429208   8.181   9.746   9.153
 7144POPC   GL129209   8.230   9.734   8.853
 7144POPC   GL229210   8.352   9.681   8.853
 7144POPC   C1A29211   8.243   9.796   8.553
 7144POPC   D2A29212   8.181   9.716   8.253
 7144POPC   C3A29213   8.207   9.742   7.953
 7144POPC   C4A29214   8.245   9.734   7.653
 7144POPC   C1B29215   8.422   9.755   8.553
 7144POPC   C2B29216   8.452   9.740   8.253
 7144POPC   C3B29217   8.421   9.708   7.953
 7144POPC   C4B29218   8.473   9.665   7.653
 7145POPC   NC329219  10.480   4.345   9.453
 7145POPC   PO429220  10.503   4.362   9.153
 7145POPC   GL129221  10.548   4.362   8.853
 7145POPC   GL229222  10.675   4.393   8.853
 7145POPC   C1A29223  10.499   4.319   8.553
 7145POPC   D2A29224  10.494   4.345   8.253
 7145POPC   C3A29225  10.535   4.323   7.953
 7145POPC   C4A29226  10.552   4.300   7.653
 7145POPC   C1B29227  10.796   4.380   8.553
 7145POPC   C2B29228  10.755   4.435   8.253
 7145POPC   C3B29229  10.798   4.386   7.953
 7145POPC   C4B29230  10.736   4.366   7.653
 7146POPC   NC329231  10.508  28.403   9.453
 7146POPC   PO429232  10.483  28.373   9.153
 7146POPC   GL129233  10.557  28.384   8.853
 7146POPC   GL229234  10.414  28.450   8.853
 7146POPC   C1A29235  10.559  28.390   8.553
 7146POPC   D2A29236  10.568  28.410   8.253
 7146POPC   C3A29237  10.537  28.326   7.953
 7146POPC   C4A29238  10.481  28.410   7.653
 7146POPC   C1B29239  10.327  28.430   8.553
 7146POPC   C2B29240  10.321  28.448   8.253
 7146POPC   C3B29241  10.253  28.467   7.953
 7146POPC   C4B29242  10.315  28.476   7.653
 7147POPC   NC329243  15.980  34.535   9.453
 7147POPC   PO429244  15.958  34.566   9.153
 7147POPC   GL129245  15.939  34.608   8.853
 7147POPC   GL229246  15.818  34.641   8.853
 7147POPC   C1A29247  15.987  34.578   8.553
 7147POPC   D2A29248  15.988  34.537   8.253
 7147POPC   C3A29249  15.942  34.601   7.953
 7147POPC   C4A29250  15.945  34.587   7.653
 7147POPC   C1B29251  15.752  34.710   8.553
 7147POPC   C2B29252  15.770  34.722   8.253
 7147POPC   C3B29253  15.741  34.703   7.953
 7147POPC   C4B29254  15.746  34.673   7.653
 7148POPC   NC329255  25.256  31.476   9.453
 7148POPC   PO429256  25.291  31.508   9.153
 7148POPC   GL129257  25.299  31.427   8.853
 7148POPC   GL229258  25.350  31.537   8.853
 7148POPC   C1A29259  25.312  31.516   8.553
 7148POPC   D2A29260  25.274  31.430   8.253
 7148POPC   C3A29261  25.246  31.511   7.953
 7148POPC   C4A29262  25.297  31.431   7.653
 7148POPC   C1B29263  25.447  31.693   8.553
 7148POPC   C2B29264  25.386  31.650   8.253
 7148POPC   C3B29265  25.412  31.690   7.953
 7148POPC   C4B29266  25.437  31.696   7.653
 7149POPC   NC329267  11.284  25.279   9.453
 7149POPC   PO429268  11.319  25.261   9.153
 7149POPC   GL129269  11.275  25.272   8.853
 7149POPC   GL229270  11.387  25.347   8.853
 7149POPC   C1A29271  11.294  25.306   8.553
 7149POPC   D2A29272  11.303  25.277   8.253
 7149POPC   C3A29273  11.291  25.315   7.953
 7149POPC   C4A29274  11.316  25.295   7.653
 7149POPC   C1B29275  11.485  25.407   8.553
 7149POPC   C2B29276  11.420  25.480   8.253
 7149POPC   C3B29277  11.479  25.462   7.953
 7149POPC   C4B29278  11.412  25.498   7.653
 7150POPC   NC329279  22.987  15.992   9.453
 7150POPC   PO429280  22.898  15.986   9.153
 7150POPC   GL129281  22.892  15.986   8.853
 7150POPC   GL229282  22.965  15.853   8.853
 7150POPC   C1A29283  22.941  15.934   8.553
 7150POPC   D2A29284  22.970  15.983   8.253
 7150POPC   C3A29285  22.890  15.934   7.953
 7150POPC   C4A29286  22.935  15.912   7.653
 7150POPC   C1B29287  23.104  15.737   8.553
 7150POPC   C2B29288  23.052  15.713   8.253
 7150POPC   C3B29289  23.114  15.763   7.953
 7150POPC   C4B29290  23.120  15.771   7.653
 7151POPC   NC329291  36.118  31.461   9.453
 7151POPC   PO429292  36.090  31.497   9.153
 7151POPC   GL129293  36.108  31.445   8.853
 7151POPC   GL229294  36.266  31.458   8.853
 7151POPC   C1A29295  36.082  31.490   8.553
 7151POPC   D2A29296  36.154  31.481   8.253
 7151POPC   C3A29297  36.170  31.437   7.953
 7151POPC   C4A29298  36.113  31.476   7.653
 7151POPC   C1B29299  36.381  31.559   8.553
 7151POPC   C2B29300  36.352  31.491   8.253
 7151POPC   C3B29301  36.415  31.476   7.953
 7151POPC   C4B29302  36.414  31.510   7.653
 7152POPC   NC329303  12.039   8.240   9.453
 7152POPC   PO429304  12.087   8.201   9.153
 7152POPC   GL129305  12.088   8.178   8.853
 7152POPC   GL229306  12.225   8.219   8.853
 7152POPC   C1A29307  12.071   8.211   8.553
 7152POPC   D2A29308  12.113   8.217   8.253
 7152POPC   C3A29309  12.035   8.233   7.953
 7152POPC   C4A29310  12.082   8.183   7.653
 7152POPC   C1B29311  12.357   8.175   8.553
 7152POPC   C2B29312  12.373   8.184   8.253
 7152POPC   C3B29313  12.296   8.123   7.953
 7152POPC   C4B29314  12.278   8.190   7.653
 7153POPC   NC329315  20.564  36.881   9.453
 7153POPC   PO429316  20.601  36.866   9.153
 7153POPC   GL129317  20.638  36.858   8.853
 7153POPC   GL229318  20.468  36.893   8.853
 7153POPC   C1A29319  20.586  36.909   8.553
 7153POPC   D2A29320  20.624  36.890   8.253
 7153POPC   C3A29321  20.602  36.899   7.953
 7153POPC   C4A29322  20.569  36.875   7.653
 7153POPC   C1B29323  20.343  36.861   8.553
 7153POPC   C2B29324  20.402  36.838   8.253
 7153POPC   C3B29325  20.396  36.812   7.953
 7153POPC   C4B29326  20.352  36.874   7.653
 7154POPC   NC329327  22.987   9.792   9.453
 7154POPC   PO429328  22.930   9.720   9.153
 7154POPC   GL129329  22.929   9.744   8.853
 7154POPC   GL229330  23.103   9.693   8.853
 7154POPC   C1A29331  22.893   9.714   8.553
 7154POPC   D2A29332  22.974   9.771   8.253
 7154POPC   C3A29333  22.912   9.784   7.953
 7154POPC   C4A29334  22.932   9.790   7.653
 7154POPC   C1B29335  23.158   9.686   8.553
 7154POPC   C2B29336  23.216   9.711   8.253
 7154POPC   C3B29337  23.150   9.725   7.953
 7154POPC   C4B29338  23.179   9.743   7.653
 7155POPC   NC329339  17.530  11.310   9.453
 7155POPC   PO429340  17.488  11.278   9.153
 7155POPC   GL129341  17.556  11.252   8.853
 7155POPC   GL229342  17.641  11.198   8.853
 7155POPC   C1A29343  17.470  11.260   8.553
 7155POPC   D2A29344  17.508  11.331   8.253
 7155POPC   C3A29345  17.512  11.260   7.953
 7155POPC   C4A29346  17.474  11.332   7.653
 7155POPC   C1B29347  17.663  11.171   8.553
 7155POPC   C2B29348  17.704  11.097   8.253
 7155POPC   C3B29349  17.734  11.172   7.953
 7155POPC   C4B29350  17.728  11.097   7.653
 7156POPC   NC329351  15.153  33.798   9.453
 7156POPC   PO429352  15.214  33.771   9.153
 7156POPC   GL129353  15.184  33.757   8.853
 7156POPC   GL229354  15.294  33.779   8.853
 7156POPC   C1A29355  15.195  33.840   8.553
 7156POPC   D2A29356  15.174  33.811   8.253
 7156POPC   C3A29357  15.164  33.817   7.953
 7156POPC   C4A29358  15.150  33.826   7.653
 7156POPC   C1B29359  15.352  33.685   8.553
 7156POPC   C2B29360  15.405  33.616   8.253
 7156POPC   C3B29361  15.387  33.639   7.953
 7156POPC   C4B29362  15.356  33.656   7.653
 7157POPC   NC329363  35.333  26.020   9.453
 7157POPC   PO429364  35.323  26.086   9.153
 7157POPC   GL129365  35.351  26.020   8.853
 7157POPC   GL229366  35.290  25.942   8.853
 7157POPC   C1A29367  35.336  26.069   8.553
 7157POPC   D2A29368  35.394  26.034   8.253
 7157POPC   C3A29369  35.327  25.993   7.953
 7157POPC   C4A29370  35.369  25.996   7.653
 7157POPC   C1B29371  35.213  25.836   8.553
 7157POPC   C2B29372  35.225  25.870   8.253
 7157POPC   C3B29373  35.208  25.888   7.953
 7157POPC   C4B29374  35.190  25.882   7.653
 7158POPC   NC329375  10.513  43.071   9.453
 7158POPC   PO429376  10.533  43.088   9.153
 7158POPC   GL129377  10.475  43.064   8.853
 7158POPC   GL229378  10.578  43.030   8.853
 7158POPC   C1A29379  10.556  43.143   8.553
 7158POPC   D2A29380  10.567  43.110   8.253
 7158POPC   C3A29381  10.533  43.109   7.953
 7158POPC   C4A29382  10.530  43.125   7.653
 7158POPC   C1B29383  10.621  42.858   8.553
 7158POPC   C2B29384  10.597  42.864   8.253
 7158POPC   C3B29385  10.624  42.851   7.953
 7158POPC   C4B29386  10.612  42.835   7.653
 7159POPC   NC329387  23.749  32.217   9.453
 7159POPC   PO429388  23.746  32.286   9.153
 7159POPC   GL129389  23.725  32.249   8.853
 7159POPC   GL229390  23.754  32.349   8.853
 7159POPC   C1A29391  23.706  32.259   8.553
 7159POPC   D2A29392  23.763  32.234   8.253
 7159POPC   C3A29393  23.704  32.201   7.953
 7159POPC   C4A29394  23.751  32.200   7.653
 7159POPC   C1B29395  23.852  32.454   8.553
 7159POPC   C2B29396  23.797  32.474   8.253
 7159POPC   C3B29397  23.803  32.515   7.953
 7159POPC   C4B29398  23.820  32.478   7.653
 7160POPC   NC329399  20.580  21.349   9.453
 7160POPC   PO429400  20.650  21.370   9.153
 7160POPC   GL129401  20.575  21.388   8.853
 7160POPC   GL229402  20.634  21.554   8.853
 7160POPC   C1A29403  20.575  21.433   8.553
 7160POPC   D2A29404  20.597  21.423   8.253
 7160POPC   C3A29405  20.608  21.396   7.953
 7160POPC   C4A29406  20.562  21.426   7.653
 7160POPC   C1B29407  20.668  21.586   8.553
 7160POPC   C2B29408  20.660  21.656   8.253
 7160POPC   C3B29409  20.660  21.599   7.953
 7160POPC   C4B29410  20.675  21.598   7.653
 7161POPC   NC329411  24.445  28.412   9.453
 7161POPC   PO429412  24.477  28.327   9.153
 7161POPC   GL129413  24.492  28.337   8.853
 7161POPC   GL229414  24.397  28.416   8.853
 7161POPC   C1A29415  24.503  28.321   8.553
 7161POPC   D2A29416  24.449  28.333   8.253
 7161POPC   C3A29417  24.452  28.356   7.953
 7161POPC   C4A29418  24.503  28.348   7.653
 7161POPC   C1B29419  24.293  28.442   8.553
 7161POPC   C2B29420  24.229  28.434   8.253
 7161POPC   C3B29421  24.204  28.478   7.953
 7161POPC   C4B29422  24.204  28.460   7.653
 7162POPC   NC329423  43.836   5.101   9.453
 7162POPC   PO429424  43.929   5.132   9.153
 7162POPC   GL129425  43.935   5.051   8.853
 7162POPC   GL229426  43.741   5.030   8.853
 7162POPC   C1A29427  43.934   5.097   8.553
 7162POPC   D2A29428  43.908   5.087   8.253
 7162POPC   C3A29429  43.863   5.119   7.953
 7162POPC   C4A29430  43.871   5.046   7.653
 7162POPC   C1B29431  43.631   4.981   8.553
 7162POPC   C2B29432  43.597   5.060   8.253
 7162POPC   C3B29433  43.599   5.013   7.953
 7162POPC   C4B29434  43.597   5.021   7.653
 7163POPC   NC329435   2.007   9.793   9.453
 7163POPC   PO429436   1.985   9.701   9.153
 7163POPC   GL129437   1.990   9.720   8.853
 7163POPC   GL229438   1.967   9.843   8.853
 7163POPC   C1A29439   1.983   9.720   8.553
 7163POPC   D2A29440   2.022   9.736   8.253
 7163POPC   C3A29441   1.941   9.763   7.953
 7163POPC   C4A29442   1.992   9.762   7.653
 7163POPC   C1B29443   1.887  10.017   8.553
 7163POPC   C2B29444   1.853   9.969   8.253
 7163POPC   C3B29445   1.897   9.959   7.953
 7163POPC   C4B29446   1.861   9.933   7.653
 7164POPC   NC329447  40.744  31.479   9.453
 7164POPC   PO429448  40.765  31.496   9.153
 7164POPC   GL129449  40.812  31.516   8.853
 7164POPC   GL229450  40.690  31.602   8.853
 7164POPC   C1A29451  40.745  31.513   8.553
 7164POPC   D2A29452  40.792  31.426   8.253
 7164POPC   C3A29453  40.742  31.473   7.953
 7164POPC   C4A29454  40.789  31.513   7.653
 7164POPC   C1B29455  40.653  31.686   8.553
 7164POPC   C2B29456  40.614  31.653   8.253
 7164POPC   C3B29457  40.643  31.669   7.953
 7164POPC   C4B29458  40.654  31.637   7.653
 7165POPC   NC329459  32.287  11.339   9.453
 7165POPC   PO429460  32.213  11.280   9.153
 7165POPC   GL129461  32.255  11.261   8.853
 7165POPC   GL229462  32.418  11.275   8.853
 7165POPC   C1A29463  32.210  11.344   8.553
 7165POPC   D2A29464  32.290  11.292   8.253
 7165POPC   C3A29465  32.227  11.295   7.953
 7165POPC   C4A29466  32.265  11.350   7.653
 7165POPC   C1B29467  32.538  11.303   8.553
 7165POPC   C2B29468  32.451  11.301   8.253
 7165POPC   C3B29469  32.504  11.253   7.953
 7165POPC   C4B29470  32.540  11.236   7.653
 7166POPC   NC329471  15.198   4.342   9.453
 7166POPC   PO429472  15.147   4.350   9.153
 7166POPC   GL129473  15.219   4.358   8.853
 7166POPC   GL229474  15.256   4.194   8.853
 7166POPC   C1A29475  15.158   4.352   8.553
 7166POPC   D2A29476  15.213   4.342   8.253
 7166POPC   C3A29477  15.147   4.277   7.953
 7166POPC   C4A29478  15.226   4.290   7.653
 7166POPC   C1B29479  15.215   4.104   8.553
 7166POPC   C2B29480  15.225   4.057   8.253
 7166POPC   C3B29481  15.260   4.060   7.953
 7166POPC   C4B29482  15.272   4.080   7.653
 7167POPC   NC329483   1.965  28.404   9.453
 7167POPC   PO429484   2.013  28.370   9.153
 7167POPC   GL129485   1.983  28.341   8.853
 7167POPC   GL229486   2.072  28.483   8.853
 7167POPC   C1A29487   1.960  28.367   8.553
 7167POPC   D2A29488   1.964  28.368   8.253
 7167POPC   C3A29489   2.035  28.320   7.953
 7167POPC   C4A29490   1.983  28.359   7.653
 7167POPC   C1B29491   2.210  28.516   8.553
 7167POPC   C2B29492   2.177  28.547   8.253
 7167POPC   C3B29493   2.113  28.544   7.953
 7167POPC   C4B29494   2.166  28.579   7.653
 7168POPC   NC329495   3.567  12.841   9.453
 7168POPC   PO429496   3.565  12.900   9.153
 7168POPC   GL129497   3.553  12.875   8.853
 7168POPC   GL229498   3.535  12.693   8.853
 7168POPC   C1A29499   3.548  12.846   8.553
 7168POPC   D2A29500   3.516  12.844   8.253
 7168POPC   C3A29501   3.547  12.814   7.953
 7168POPC   C4A29502   3.535  12.890   7.653
 7168POPC   C1B29503   3.462  12.614   8.553
 7168POPC   C2B29504   3.515  12.559   8.253
 7168POPC   C3B29505   3.444  12.652   7.953
 7168POPC   C4B29506   3.526  12.597   7.653
 7169POPC   NC329507   8.230  11.276   9.453
 7169POPC   PO429508   8.172  11.295   9.153
 7169POPC   GL129509   8.233  11.253   8.853
 7169POPC   GL229510   8.101  11.330   8.853
 7169POPC   C1A29511   8.192  11.311   8.553
 7169POPC   D2A29512   8.246  11.310   8.253
 7169POPC   C3A29513   8.220  11.292   7.953
 7169POPC   C4A29514   8.149  11.315   7.653
 7169POPC   C1B29515   7.928  11.375   8.553
 7169POPC   C2B29516   7.968  11.369   8.253
 7169POPC   C3B29517   8.018  11.405   7.953
 7169POPC   C4B29518   8.009  11.434   7.653
 7170POPC   NC329519  35.322   6.659   9.453
 7170POPC   PO429520  35.389   6.680   9.153
 7170POPC   GL129521  35.344   6.649   8.853
 7170POPC   GL229522  35.481   6.727   8.853
 7170POPC   C1A29523  35.343   6.658   8.553
 7170POPC   D2A29524  35.375   6.694   8.253
 7170POPC   C3A29525  35.328   6.634   7.953
 7170POPC   C4A29526  35.327   6.689   7.653
 7170POPC   C1B29527  35.521   6.786   8.553
 7170POPC   C2B29528  35.562   6.813   8.253
 7170POPC   C3B29529  35.481   6.806   7.953
 7170POPC   C4B29530  35.483   6.823   7.653
 7171POPC   NC329531  35.372   2.795   9.453
 7171POPC   PO429532  35.383   2.808   9.153
 7171POPC   GL129533  35.357   2.755   8.853
 7171POPC   GL229534  35.320   2.607   8.853
 7171POPC   C1A29535  35.400   2.786   8.553
 7171POPC   D2A29536  35.349   2.770   8.253
 7171POPC   C3A29537  35.326   2.808   7.953
 7171POPC   C4A29538  35.355   2.755   7.653
 7171POPC   C1B29539  35.270   2.551   8.553
 7171POPC   C2B29540  35.249   2.581   8.253
 7171POPC   C3B29541  35.284   2.580   7.953
 7171POPC   C4B29542  35.244   2.555   7.653
 7172POPC   NC329543  29.908  12.803   9.453
 7172POPC   PO429544  29.901  12.836   9.153
 7172POPC   GL129545  29.872  12.871   8.853
 7172POPC   GL229546  29.825  12.930   8.853
 7172POPC   C1A29547  29.895  12.846   8.553
 7172POPC   D2A29548  29.921  12.824   8.253
 7172POPC   C3A29549  29.932  12.818   7.953
 7172POPC   C4A29550  29.919  12.896   7.653
 7172POPC   C1B29551  29.649  12.958   8.553
 7172POPC   C2B29552  29.719  12.978   8.253
 7172POPC   C3B29553  29.666  12.938   7.953
 7172POPC   C4B29554  29.722  12.971   7.653
 7173POPC   NC329555  28.327  32.221   9.453
 7173POPC   PO429556  28.331  32.223   9.153
 7173POPC   GL129557  28.319  32.298   8.853
 7173POPC   GL229558  28.317  32.328   8.853
 7173POPC   C1A29559  28.415  32.287   8.553
 7173POPC   D2A29560  28.347  32.202   8.253
 7173POPC   C3A29561  28.413  32.256   7.953
 7173POPC   C4A29562  28.365  32.292   7.653
 7173POPC   C1B29563  28.246  32.423   8.553
 7173POPC   C2B29564  28.205  32.423   8.253
 7173POPC   C3B29565  28.200  32.469   7.953
 7173POPC   C4B29566  28.246  32.426   7.653
 7174POPC   NC329567  27.588  19.053   9.453
 7174POPC   PO429568  27.576  19.091   9.153
 7174POPC   GL129569  27.593  19.038   8.853
 7174POPC   GL229570  27.490  18.994   8.853
 7174POPC   C1A29571  27.619  19.068   8.553
 7174POPC   D2A29572  27.619  19.100   8.253
 7174POPC   C3A29573  27.597  19.033   7.953
 7174POPC   C4A29574  27.620  19.018   7.653
 7174POPC   C1B29575  27.482  18.885   8.553
 7174POPC   C2B29576  27.416  18.826   8.253
 7174POPC   C3B29577  27.419  18.838   7.953
 7174POPC   C4B29578  27.485  18.895   7.653
 7175POPC   NC329579   5.073  36.101   9.453
 7175POPC   PO429580   5.072  36.125   9.153
 7175POPC   GL129581   5.051  36.174   8.853
 7175POPC   GL229582   4.970  36.223   8.853
 7175POPC   C1A29583   5.074  36.112   8.553
 7175POPC   D2A29584   5.056  36.146   8.253
 7175POPC   C3A29585   5.120  36.127   7.953
 7175POPC   C4A29586   5.130  36.130   7.653
 7175POPC   C1B29587   4.896  36.293   8.553
 7175POPC   C2B29588   4.915  36.261   8.253
 7175POPC   C3B29589   4.883  36.244   7.953
 7175POPC   C4B29590   4.926  36.217   7.653
 7176POPC   NC329591  29.934   0.424   9.453
 7176POPC   PO429592  29.916   0.475   9.153
 7176POPC   GL129593  29.910   0.426   8.853
 7176POPC   GL229594  29.902   0.297   8.853
 7176POPC   C1A29595  29.895   0.468   8.553
 7176POPC   D2A29596  29.896   0.417   8.253
 7176POPC   C3A29597  29.915   0.442   7.953
 7176POPC   C4A29598  29.945   0.435   7.653
 7176POPC   C1B29599  29.940   0.205   8.553
 7176POPC   C2B29600  29.959   0.238   8.253
 7176POPC   C3B29601  29.964   0.213   7.953
 7176POPC   C4B29602  29.901   0.206   7.653
 7177POPC   NC329603  19.106   5.829   9.453
 7177POPC   PO429604  19.082   5.837   9.153
 7177POPC   GL129605  19.085   5.863   8.853
 7177POPC   GL229606  18.909   5.902   8.853
 7177POPC   C1A29607  19.082   5.910   8.553
 7177POPC   D2A29608  19.096   5.871   8.253
 7177POPC   C3A29609  19.056   5.824   7.953
 7177POPC   C4A29610  19.012   5.885   7.653
 7177POPC   C1B29611  18.767   5.855   8.553
 7177POPC   C2B29612  18.804   5.859   8.253
 7177POPC   C3B29613  18.841   5.927   7.953
 7177POPC   C4B29614  18.855   5.914   7.653
 7178POPC   NC329615  30.729  29.907   9.453
 7178POPC   PO429616  30.704  29.942   9.153
 7178POPC   GL129617  30.686  29.949   8.853
 7178POPC   GL229618  30.729  29.987   8.853
 7178POPC   C1A29619  30.681  29.933   8.553
 7178POPC   D2A29620  30.704  29.889   8.253
 7178POPC   C3A29621  30.730  29.880   7.953
 7178POPC   C4A29622  30.679  29.963   7.653
 7178POPC   C1B29623  30.833  30.093   8.553
 7178POPC   C2B29624  30.854  30.098   8.253
 7178POPC   C3B29625  30.826  30.097   7.953
 7178POPC   C4B29626  30.834  30.146   7.653
 7179POPC   NC329627   6.662  15.922   9.453
 7179POPC   PO429628   6.691  15.957   9.153
 7179POPC   GL129629   6.627  16.004   8.853
 7179POPC   GL229630   6.759  16.016   8.853
 7179POPC   C1A29631   6.599  15.972   8.553
 7179POPC   D2A29632   6.690  15.972   8.253
 7179POPC   C3A29633   6.638  15.931   7.953
 7179POPC   C4A29634   6.635  15.925   7.653
 7179POPC   C1B29635   6.872  15.967   8.553
 7179POPC   C2B29636   6.942  15.973   8.253
 7179POPC   C3B29637   6.885  15.995   7.953
 7179POPC   C4B29638   6.867  15.959   7.653
 7180POPC   NC329639   6.631   5.096   9.453
 7180POPC   PO429640   6.681   5.050   9.153
 7180POPC   GL129641   6.634   5.086   8.853
 7180POPC   GL229642   6.737   5.047   8.853
 7180POPC   C1A29643   6.626   5.096   8.553
 7180POPC   D2A29644   6.678   5.100   8.253
 7180POPC   C3A29645   6.605   5.095   7.953
 7180POPC   C4A29646   6.610   5.089   7.653
 7180POPC   C1B29647   6.869   5.019   8.553
 7180POPC   C2B29648   6.917   4.963   8.253
 7180POPC   C3B29649   6.878   4.962   7.953
 7180POPC   C4B29650   6.912   5.009   7.653
 7181POPC   NC329651   2.790   1.190   9.453
 7181POPC   PO429652   2.762   1.256   9.153
 7181POPC   GL129653   2.760   1.237   8.853
 7181POPC   GL229654   2.727   1.326   8.853
 7181POPC   C1A29655   2.783   1.173   8.553
 7181POPC   D2A29656   2.720   1.182   8.253
 7181POPC   C3A29657   2.753   1.230   7.953
 7181POPC   C4A29658   2.796   1.176   7.653
 7181POPC   C1B29659   2.590   1.421   8.553
 7181POPC   C2B29660   2.650   1.378   8.253
 7181POPC   C3B29661   2.592   1.437   7.953
 7181POPC   C4B29662   2.572   1.382   7.653
 7182POPC   NC329663   5.820  32.999   9.453
 7182POPC   PO429664   5.833  33.019   9.153
 7182POPC   GL129665   5.866  33.050   8.853
 7182POPC   GL229666   5.917  32.951   8.853
 7182POPC   C1A29667   5.850  33.071   8.553
 7182POPC   D2A29668   5.872  33.073   8.253
 7182POPC   C3A29669   5.852  33.006   7.953
 7182POPC   C4A29670   5.861  33.003   7.653
 7182POPC   C1B29671   6.006  32.886   8.553
 7182POPC   C2B29672   6.094  32.902   8.253
 7182POPC   C3B29673   6.016  32.820   7.953
 7182POPC   C4B29674   6.029  32.833   7.653
 7183POPC   NC329675  35.325  43.902   9.453
 7183POPC   PO429676  35.360  43.866   9.153
 7183POPC   GL129677  35.313  43.845   8.853
 7183POPC   GL229678  35.452  44.019   8.853
 7183POPC   C1A29679  35.346  43.930   8.553
 7183POPC   D2A29680  35.370  43.845   8.253
 7183POPC   C3A29681  35.357  43.871   7.953
 7183POPC   C4A29682  35.394  43.868   7.653
 7183POPC   C1B29683  35.512  44.118   8.553
 7183POPC   C2B29684  35.527  44.095   8.253
 7183POPC   C3B29685  35.471  44.059   7.953
 7183POPC   C4B29686  35.541  44.104   7.653
 7184POPC   NC329687  38.475  37.629   9.453
 7184POPC   PO429688  38.414  37.717   9.153
 7184POPC   GL129689  38.421  37.672   8.853
 7184POPC   GL229690  38.320  37.582   8.853
 7184POPC   C1A29691  38.464  37.723   8.553
 7184POPC   D2A29692  38.467  37.698   8.253
 7184POPC   C3A29693  38.454  37.662   7.953
 7184POPC   C4A29694  38.458  37.654   7.653
 7184POPC   C1B29695  38.178  37.589   8.553
 7184POPC   C2B29696  38.248  37.571   8.253
 7184POPC   C3B29697  38.205  37.576   7.953
 7184POPC   C4B29698  38.220  37.596   7.653
 7185POPC   NC329699   2.776  40.822   9.453
 7185POPC   PO429700   2.796  40.830   9.153
 7185POPC   GL129701   2.794  40.822   8.853
 7185POPC   GL229702   2.826  40.642   8.853
 7185POPC   C1A29703   2.795  40.778   8.553
 7185POPC   D2A29704   2.772  40.763   8.253
 7185POPC   C3A29705   2.749  40.809   7.953
 7185POPC   C4A29706   2.741  40.826   7.653
 7185POPC   C1B29707   2.857  40.523   8.553
 7185POPC   C2B29708   2.871  40.546   8.253
 7185POPC   C3B29709   2.871  40.554   7.953
 7185POPC   C4B29710   2.857  40.520   7.653
 7186POPC   NC329711  19.067   1.202   9.453
 7186POPC   PO429712  19.069   1.237   9.153
 7186POPC   GL129713  19.028   1.254   8.853
 7186POPC   GL229714  18.968   1.268   8.853
 7186POPC   C1A29715  19.077   1.238   8.553
 7186POPC   D2A29716  19.097   1.244   8.253
 7186POPC   C3A29717  19.043   1.166   7.953
 7186POPC   C4A29718  19.025   1.196   7.653
 7186POPC   C1B29719  18.776   1.263   8.553
 7186POPC   C2B29720  18.796   1.249   8.253
 7186POPC   C3B29721  18.836   1.236   7.953
 7186POPC   C4B29722  18.781   1.276   7.653
 7187POPC   NC329723  24.533  42.359   9.453
 7187POPC   PO429724  24.524  42.327   9.153
 7187POPC   GL129725  24.535  42.376   8.853
 7187POPC   GL229726  24.611  42.450   8.853
 7187POPC   C1A29727  24.507  42.341   8.553
 7187POPC   D2A29728  24.535  42.315   8.253
 7187POPC   C3A29729  24.513  42.334   7.953
 7187POPC   C4A29730  24.521  42.321   7.653
 7187POPC   C1B29731  24.628  42.556   8.553
 7187POPC   C2B29732  24.706  42.466   8.253
 7187POPC   C3B29733  24.653  42.476   7.953
 7187POPC   C4B29734  24.688  42.467   7.653
 7188POPC   NC329735   3.550  37.705   9.453
 7188POPC   PO429736   3.496  37.697   9.153
 7188POPC   GL129737   3.499  37.704   8.853
 7188POPC   GL229738   3.447  37.756   8.853
 7188POPC   C1A29739   3.517  37.682   8.553
 7188POPC   D2A29740   3.514  37.686   8.253
 7188POPC   C3A29741   3.571  37.673   7.953
 7188POPC   C4A29742   3.566  37.679   7.653
 7188POPC   C1B29743   3.364  37.854   8.553
 7188POPC   C2B29744   3.392  37.885   8.253
 7188POPC   C3B29745   3.428  37.843   7.953
 7188POPC   C4B29746   3.338  37.899   7.653
 7189POPC   NC329747  31.424  34.622   9.453
 7189POPC   PO429748  31.487  34.586   9.153
 7189POPC   GL129749  31.504  34.621   8.853
 7189POPC   GL229750  31.377  34.709   8.853
 7189POPC   C1A29751  31.463  34.585   8.553
 7189POPC   D2A29752  31.488  34.535   8.253
 7189POPC   C3A29753  31.513  34.539   7.953
 7189POPC   C4A29754  31.498  34.616   7.653
 7189POPC   C1B29755  31.399  34.784   8.553
 7189POPC   C2B29756  31.340  34.765   8.253
 7189POPC   C3B29757  31.325  34.781   7.953
 7189POPC   C4B29758  31.413  34.783   7.653
 7190POPC   NC329759  16.003  14.440   9.453
 7190POPC   PO429760  15.938  14.448   9.153
 7190POPC   GL129761  15.972  14.408   8.853
 7190POPC   GL229762  15.918  14.551   8.853
 7190POPC   C1A29763  16.000  14.412   8.553
 7190POPC   D2A29764  15.923  14.404   8.253
 7190POPC   C3A29765  15.994  14.395   7.953
 7190POPC   C4A29766  15.918  14.376   7.653
 7190POPC   C1B29767  15.902  14.673   8.553
 7190POPC   C2B29768  15.849  14.638   8.253
 7190POPC   C3B29769  15.819  14.643   7.953
 7190POPC   C4B29770  15.871  14.597   7.653
 7191POPC   NC329771  35.318  29.153   9.453
 7191POPC   PO429772  35.352  29.144   9.153
 7191POPC   GL129773  35.308  29.103   8.853
 7191POPC   GL229774  35.423  29.205   8.853
 7191POPC   C1A29775  35.376  29.132   8.553
 7191POPC   D2A29776  35.380  29.138   8.253
 7191POPC   C3A29777  35.392  29.129   7.953
 7191POPC   C4A29778  35.343  29.193   7.653
 7191POPC   C1B29779  35.506  29.309   8.553
 7191POPC   C2B29780  35.498  29.316   8.253
 7191POPC   C3B29781  35.480  29.288   7.953
 7191POPC   C4B29782  35.526  29.318   7.653
 7192POPC   NC329783  22.168  19.864   9.453
 7192POPC   PO429784  22.163  19.837   9.153
 7192POPC   GL129785  22.175  19.859   8.853
 7192POPC   GL229786  22.019  19.837   8.853
 7192POPC   C1A29787  22.187  19.797   8.553
 7192POPC   D2A29788  22.161  19.833   8.253
 7192POPC   C3A29789  22.201  19.818   7.953
 7192POPC   C4A29790  22.140  19.852   7.653
 7192POPC   C1B29791  21.880  19.890   8.553
 7192POPC   C2B29792  21.954  19.879   8.253
 7192POPC   C3B29793  21.920  19.827   7.953
 7192POPC   C4B29794  21.918  19.909   7.653
 7193POPC   NC329795  29.918  26.846   9.453
 7193POPC   PO429796  29.886  26.807   9.153
 7193POPC   GL129797  29.951  26.777   8.853
 7193POPC   GL229798  29.959  26.658   8.853
 7193POPC   C1A29799  29.931  26.852   8.553
 7193POPC   D2A29800  29.963  26.856   8.253
 7193POPC   C3A29801  29.951  26.820   7.953
 7193POPC   C4A29802  29.948  26.834   7.653
 7193POPC   C1B29803  29.990  26.576   8.553
 7193POPC   C2B29804  29.978  26.544   8.253
 7193POPC   C3B29805  29.982  26.553   7.953
 7193POPC   C4B29806  30.046  26.616   7.653
 7194POPC   NC329807   0.389  14.434   9.453
 7194POPC   PO429808   0.466  14.356   9.153
 7194POPC   GL129809   0.427  14.439   8.853
 7194POPC   GL229810   0.555  14.305   8.853
 7194POPC   C1A29811   0.402  14.445   8.553
 7194POPC   D2A29812   0.479  14.391   8.253
 7194POPC   C3A29813   0.395  14.355   7.953
 7194POPC   C4A29814   0.455  14.366   7.653
 7194POPC   C1B29815   0.628  14.278   8.553
 7194POPC   C2B29816   0.699  14.242   8.253
 7194POPC   C3B29817   0.644  14.270   7.953
 7194POPC   C4B29818   0.645  14.279   7.653
 7195POPC   NC329819  20.594  29.147   9.453
 7195POPC   PO429820  20.648  29.187   9.153
 7195POPC   GL129821  20.581  29.115   8.853
 7195POPC   GL229822  20.632  29.047   8.853
 7195POPC   C1A29823  20.615  29.135   8.553
 7195POPC   D2A29824  20.623  29.172   8.253
 7195POPC   C3A29825  20.594  29.194   7.953
 7195POPC   C4A29826  20.574  29.155   7.653
 7195POPC   C1B29827  20.646  28.933   8.553
 7195POPC   C2B29828  20.638  28.925   8.253
 7195POPC   C3B29829  20.733  28.874   7.953
 7195POPC   C4B29830  20.690  28.867   7.653
 7196POPC   NC329831  23.678   1.210   9.453
 7196POPC   PO429832  23.681   1.192   9.153
 7196POPC   GL129833  23.753   1.191   8.853
 7196POPC   GL229834  23.667   1.154   8.853
 7196POPC   C1A29835  23.712   1.205   8.553
 7196POPC   D2A29836  23.711   1.251   8.253
 7196POPC   C3A29837  23.695   1.177   7.953
 7196POPC   C4A29838  23.692   1.201   7.653
 7196POPC   C1B29839  23.498   1.046   8.553
 7196POPC   C2B29840  23.592   0.995   8.253
 7196POPC   C3B29841  23.548   1.038   7.953
 7196POPC   C4B29842  23.568   1.071   7.653
 7197POPC   NC329843  42.311  12.040   9.453
 7197POPC   PO429844  42.332  12.031   9.153
 7197POPC   GL129845  42.328  12.123   8.853
 7197POPC   GL229846  42.203  12.164   8.853
 7197POPC   C1A29847  42.316  12.090   8.553
 7197POPC   D2A29848  42.307  12.108   8.253
 7197POPC   C3A29849  42.291  12.094   7.953
 7197POPC   C4A29850  42.342  12.100   7.653
 7197POPC   C1B29851  42.100  12.243   8.553
 7197POPC   C2B29852  42.154  12.214   8.253
 7197POPC   C3B29853  42.149  12.193   7.953
 7197POPC   C4B29854  42.163  12.182   7.653
 7198POPC   NC329855  11.263  41.577   9.453
 7198POPC   PO429856  11.276  41.544   9.153
 7198POPC   GL129857  11.335  41.591   8.853
 7198POPC   GL229858  11.289  41.647   8.853
 7198POPC   C1A29859  11.264  41.519   8.553
 7198POPC   D2A29860  11.278  41.519   8.253
 7198POPC   C3A29861  11.254  41.588   7.953
 7198POPC   C4A29862  11.323  41.525   7.653
 7198POPC   C1B29863  11.271  41.767   8.553
 7198POPC   C2B29864  11.264  41.773   8.253
 7198POPC   C3B29865  11.268  41.778   7.953
 7198POPC   C4B29866  11.236  41.795   7.653
 7199POPC   NC329867  23.731   7.440   9.453
 7199POPC   PO429868  23.759   7.384   9.153
 7199POPC   GL129869  23.731   7.431   8.853
 7199POPC   GL229870  23.710   7.530   8.853
 7199POPC   C1A29871  23.723   7.383   8.553
 7199POPC   D2A29872  23.668   7.440   8.253
 7199POPC   C3A29873  23.691   7.433   7.953
 7199POPC   C4A29874  23.669   7.387   7.653
 7199POPC   C1B29875  23.759   7.641   8.553
 7199POPC   C2B29876  23.774   7.703   8.253
 7199POPC   C3B29877  23.829   7.638   7.953
 7199POPC   C4B29878  23.752   7.608   7.653
 7200POPC   NC329879  32.204  27.614   9.453
 7200POPC   PO429880  32.250  27.624   9.153
 7200POPC   GL129881  32.245  27.605   8.853
 7200POPC   GL229882  32.357  27.653   8.853
 7200POPC   C1A29883  32.207  27.632   8.553
 7200POPC   D2A29884  32.293  27.642   8.253
 7200POPC   C3A29885  32.277  27.635   7.953
 7200POPC   C4A29886  32.283  27.604   7.653
 7200POPC   C1B29887  32.442  27.625   8.553
 7200POPC   C2B29888  32.489  27.666   8.253
 7200POPC   C3B29889  32.533  27.703   7.953
 7200POPC   C4B29890  32.446  27.653   7.653
 7201POPC   NC329891  33.796   0.429   9.453
 7201POPC   PO429892  33.796   0.405   9.153
 7201POPC   GL129893  33.836   0.400   8.853
 7201POPC   GL229894  33.641   0.422   8.853
 7201POPC   C1A29895  33.751   0.406   8.553
 7201POPC   D2A29896  33.788   0.403   8.253
 7201POPC   C3A29897  33.791   0.453   7.953
 7201POPC   C4A29898  33.808   0.467   7.653
 7201POPC   C1B29899  33.566   0.406   8.553
 7201POPC   C2B29900  33.592   0.343   8.253
 7201POPC   C3B29901  33.530   0.422   7.953
 7201POPC   C4B29902  33.546   0.397   7.653
 7202POPC   NC329903  24.503  18.289   9.453
 7202POPC   PO429904  24.443  18.329   9.153
 7202POPC   GL129905  24.538  18.260   8.853
 7202POPC   GL229906  24.541  18.112   8.853
 7202POPC   C1A29907  24.473  18.288   8.553
 7202POPC   D2A29908  24.516  18.253   8.253
 7202POPC   C3A29909  24.508  18.241   7.953
 7202POPC   C4A29910  24.532  18.236   7.653
 7202POPC   C1B29911  24.485  18.067   8.553
 7202POPC   C2B29912  24.443  18.015   8.253
 7202POPC   C3B29913  24.467  18.022   7.953
 7202POPC   C4B29914  24.480  18.051   7.653
 7203POPC   NC329915  39.266  10.533   9.453
 7203POPC   PO429916  39.200  10.525   9.153
 7203POPC   GL129917  39.258  10.494   8.853
 7203POPC   GL229918  39.263  10.430   8.853
 7203POPC   C1A29919  39.276  10.523   8.553
 7203POPC   D2A29920  39.264  10.520   8.253
 7203POPC   C3A29921  39.262  10.479   7.953
 7203POPC   C4A29922  39.234  10.518   7.653
 7203POPC   C1B29923  39.411  10.305   8.553
 7203POPC   C2B29924  39.432  10.350   8.253
 7203POPC   C3B29925  39.378  10.362   7.953
 7203POPC   C4B29926  39.410  10.367   7.653
 7204POPC   NC329927  12.819  14.446   9.453
 7204POPC   PO429928  12.816  14.391   9.153
 7204POPC   GL129929  12.848  14.407   8.853
 7204POPC   GL229930  12.780  14.487   8.853
 7204POPC   C1A29931  12.809  14.393   8.553
 7204POPC   D2A29932  12.805  14.373   8.253
 7204POPC   C3A29933  12.901  14.404   7.953
 7204POPC   C4A29934  12.822  14.449   7.653
 7204POPC   C1B29935  12.691  14.508   8.553
 7204POPC   C2B29936  12.654  14.524   8.253
 7204POPC   C3B29937  12.661  14.549   7.953
 7204POPC   C4B29938  12.698  14.594   7.653
 7205POPC   NC329939  14.358  16.706   9.453
 7205POPC   PO429940  14.427  16.776   9.153
 7205POPC   GL129941  14.432  16.754   8.853
 7205POPC   GL229942  14.497  16.785   8.853
 7205POPC   C1A29943  14.440  16.747   8.553
 7205POPC   D2A29944  14.419  16.745   8.253
 7205POPC   C3A29945  14.398  16.735   7.953
 7205POPC   C4A29946  14.452  16.769   7.653
 7205POPC   C1B29947  14.675  16.731   8.553
 7205POPC   C2B29948  14.634  16.747   8.253
 7205POPC   C3B29949  14.611  16.781   7.953
 7205POPC   C4B29950  14.697  16.726   7.653
 7206POPC   NC329951  26.071  39.227   9.453
 7206POPC   PO429952  26.086  39.212   9.153
 7206POPC   GL129953  26.054  39.223   8.853
 7206POPC   GL229954  25.991  39.124   8.853
 7206POPC   C1A29955  26.091  39.237   8.553
 7206POPC   D2A29956  26.084  39.231   8.253
 7206POPC   C3A29957  26.004  39.206   7.953
 7206POPC   C4A29958  26.046  39.249   7.653
 7206POPC   C1B29959  26.064  38.980   8.553
 7206POPC   C2B29960  26.016  38.975   8.253
 7206POPC   C3B29961  26.067  38.947   7.953
 7206POPC   C4B29962  26.045  38.993   7.653
 7207POPC   NC329963  11.336   3.561   9.453
 7207POPC   PO429964  11.321   3.581   9.153
 7207POPC   GL129965  11.306   3.567   8.853
 7207POPC   GL229966  11.149   3.494   8.853
 7207POPC   C1A29967  11.275   3.560   8.553
 7207POPC   D2A29968  11.319   3.524   8.253
 7207POPC   C3A29969  11.287   3.588   7.953
 7207POPC   C4A29970  11.295   3.579   7.653
 7207POPC   C1B29971  11.133   3.446   8.553
 7207POPC   C2B29972  11.121   3.417   8.253
 7207POPC   C3B29973  11.091   3.458   7.953
 7207POPC   C4B29974  11.125   3.433   7.653
 7208POPC   NC329975  32.257  12.047   9.453
 7208POPC   PO429976  32.256  12.060   9.153
 7208POPC   GL129977  32.234  12.090   8.853
 7208POPC   GL229978  32.282  12.166   8.853
 7208POPC   C1A29979  32.256  12.041   8.553
 7208POPC   D2A29980  32.279  12.064   8.253
 7208POPC   C3A29981  32.296  12.087   7.953
 7208POPC   C4A29982  32.279  12.126   7.653
 7208POPC   C1B29983  32.355  12.278   8.553
 7208POPC   C2B29984  32.411  12.332   8.253
 7208POPC   C3B29985  32.370  12.261   7.953
 7208POPC   C4B29986  32.417  12.290   7.653
 7209POPC   NC329987  43.860  19.102   9.453
 7209POPC   PO429988  43.839  19.060   9.153
 7209POPC   GL129989  43.887  19.099   8.853
 7209POPC   GL229990  43.962  18.954   8.853
 7209POPC   C1A29991  43.863  19.067   8.553
 7209POPC   D2A29992  43.899  19.103   8.253
 7209POPC   C3A29993  43.903  19.074   7.953
 7209POPC   C4A29994  43.911  19.052   7.653
 7209POPC   C1B29995  43.928  18.830   8.553
 7209POPC   C2B29996  43.997  18.798   8.253
 7209POPC   C3B29997  43.951  18.802   7.953
 7209POPC   C4B29998  44.006  18.846   7.653
 7210POPC   NC329999  24.462  17.499   9.453
 7210POPC   PO430000  24.492  17.472   9.153
 7210POPC   GL130001  24.519  17.530   8.853
 7210POPC   GL230002  24.650  17.490   8.853
 7210POPC   C1A30003  24.482  17.553   8.553
 7210POPC   D2A30004  24.486  17.537   8.253
 7210POPC   C3A30005  24.442  17.458   7.953
 7210POPC   C4A30006  24.518  17.523   7.653
 7210POPC   C1B30007  24.706  17.468   8.553
 7210POPC   C2B30008  24.745  17.509   8.253
 7210POPC   C3B30009  24.761  17.522   7.953
 7210POPC   C4B30010  24.703  17.503   7.653
 7211POPC   NC330011  27.617  16.745   9.453
 7211POPC   PO430012  27.550  16.712   9.153
 7211POPC   GL130013  27.624  16.696   8.853
 7211POPC   GL230014  27.733  16.739   8.853
 7211POPC   C1A30015  27.599  16.694   8.553
 7211POPC   D2A30016  27.593  16.776   8.253
 7211POPC   C3A30017  27.629  16.730   7.953
 7211POPC   C4A30018  27.616  16.747   7.653
 7211POPC   C1B30019  27.796  16.779   8.553
 7211POPC   C2B30020  27.852  16.854   8.253
 7211POPC   C3B30021  27.840  16.862   7.953
 7211POPC   C4B30022  27.864  16.858   7.653
 7212POPC   NC330023   2.037  16.730   9.453
 7212POPC   PO430024   2.031  16.757   9.153
 7212POPC   GL130025   1.950  16.709   8.853
 7212POPC   GL230026   2.005  16.892   8.853
 7212POPC   C1A30027   1.944  16.714   8.553
 7212POPC   D2A30028   2.012  16.724   8.253
 7212POPC   C3A30029   2.025  16.728   7.953
 7212POPC   C4A30030   1.941  16.712   7.653
 7212POPC   C1B30031   2.019  16.966   8.553
 7212POPC   C2B30032   2.032  17.008   8.253
 7212POPC   C3B30033   2.078  16.970   7.953
 7212POPC   C4B30034   2.013  16.975   7.653
 7213POPC   NC330035  18.294  26.817   9.453
 7213POPC   PO430036  18.299  26.842   9.153
 7213POPC   GL130037  18.233  26.781   8.853
 7213POPC   GL230038  18.335  26.685   8.853
 7213POPC   C1A30039  18.273  26.812   8.553
 7213POPC   D2A30040  18.318  26.818   8.253
 7213POPC   C3A30041  18.254  26.785   7.953
 7213POPC   C4A30042  18.268  26.787   7.653
 7213POPC   C1B30043  18.345  26.617   8.553
 7213POPC   C2B30044  18.410  26.553   8.253
 7213POPC   C3B30045  18.413  26.602   7.953
 7213POPC   C4B30046  18.394  26.557   7.653
 7214POPC   NC330047  16.711  28.336   9.453
 7214POPC   PO430048  16.683  28.323   9.153
 7214POPC   GL130049  16.769  28.388   8.853
 7214POPC   GL230050  16.598  28.492   8.853
 7214POPC   C1A30051  16.705  28.321   8.553
 7214POPC   D2A30052  16.728  28.326   8.253
 7214POPC   C3A30053  16.708  28.354   7.953
 7214POPC   C4A30054  16.692  28.414   7.653
 7214POPC   C1B30055  16.581  28.561   8.553
 7214POPC   C2B30056  16.516  28.514   8.253
 7214POPC   C3B30057  16.518  28.517   7.953
 7214POPC   C4B30058  16.609  28.584   7.653
 7215POPC   NC330059   5.133   9.709   9.453
 7215POPC   PO430060   5.078   9.760   9.153
 7215POPC   GL130061   5.119   9.734   8.853
 7215POPC   GL230062   4.966   9.858   8.853
 7215POPC   C1A30063   5.141   9.732   8.553
 7215POPC   D2A30064   5.066   9.771   8.253
 7215POPC   C3A30065   5.102   9.729   7.953
 7215POPC   C4A30066   5.044   9.744   7.653
 7215POPC   C1B30067   4.946   9.925   8.553
 7215POPC   C2B30068   4.907   9.920   8.253
 7215POPC   C3B30069   4.955   9.881   7.953
 7215POPC   C4B30070   4.950   9.935   7.653
 7216POPC   NC330071  40.740  12.062   9.453
 7216POPC   PO430072  40.798  12.115   9.153
 7216POPC   GL130073  40.801  12.117   8.853
 7216POPC   GL230074  40.769  11.910   8.853
 7216POPC   C1A30075  40.751  12.097   8.553
 7216POPC   D2A30076  40.779  12.112   8.253
 7216POPC   C3A30077  40.810  12.056   7.953
 7216POPC   C4A30078  40.820  12.113   7.653
 7216POPC   C1B30079  40.670  11.803   8.553
 7216POPC   C2B30080  40.720  11.875   8.253
 7216POPC   C3B30081  40.730  11.875   7.953
 7216POPC   C4B30082  40.743  11.817   7.653
 7217POPC   NC330083  15.936  32.271   9.453
 7217POPC   PO430084  15.951  32.232   9.153
 7217POPC   GL130085  15.914  32.271   8.853
 7217POPC   GL230086  16.041  32.193   8.853
 7217POPC   C1A30087  15.922  32.285   8.553
 7217POPC   D2A30088  15.925  32.280   8.253
 7217POPC   C3A30089  15.926  32.276   7.953
 7217POPC   C4A30090  15.984  32.249   7.653
 7217POPC   C1B30091  16.149  32.112   8.553
 7217POPC   C2B30092  16.202  32.137   8.253
 7217POPC   C3B30093  16.181  32.133   7.953
 7217POPC   C4B30094  16.189  32.088   7.653
 7218POPC   NC330095  34.579  14.408   9.453
 7218POPC   PO430096  34.600  14.431   9.153
 7218POPC   GL130097  34.595  14.451   8.853
 7218POPC   GL230098  34.485  14.345   8.853
 7218POPC   C1A30099  34.548  14.360   8.553
 7218POPC   D2A30100  34.600  14.388   8.253
 7218POPC   C3A30101  34.556  14.391   7.953
 7218POPC   C4A30102  34.542  14.424   7.653
 7218POPC   C1B30103  34.290  14.303   8.553
 7218POPC   C2B30104  34.289  14.343   8.253
 7218POPC   C3B30105  34.316  14.355   7.953
 7218POPC   C4B30106  34.299  14.319   7.653
 7219POPC   NC330107  12.051  11.291   9.453
 7219POPC   PO430108  12.088  11.314   9.153
 7219POPC   GL130109  12.085  11.284   8.853
 7219POPC   GL230110  12.028  11.250   8.853
 7219POPC   C1A30111  12.070  11.297   8.553
 7219POPC   D2A30112  12.046  11.329   8.253
 7219POPC   C3A30113  12.049  11.299   7.953
 7219POPC   C4A30114  12.101  11.256   7.653
 7219POPC   C1B30115  11.947  11.123   8.553
 7219POPC   C2B30116  11.952  11.098   8.253
 7219POPC   C3B30117  11.873  11.147   7.953
 7219POPC   C4B30118  11.954  11.105   7.653
 7220POPC   NC330119  19.074  19.023   9.453
 7220POPC   PO430120  19.065  19.065   9.153
 7220POPC   GL130121  19.022  19.087   8.853
 7220POPC   GL230122  19.136  19.071   8.853
 7220POPC   C1A30123  19.022  19.014   8.553
 7220POPC   D2A30124  19.077  19.096   8.253
 7220POPC   C3A30125  19.022  19.010   7.953
 7220POPC   C4A30126  19.069  19.053   7.653
 7220POPC   C1B30127  19.294  19.050   8.553
 7220POPC   C2B30128  19.299  19.116   8.253
 7220POPC   C3B30129  19.299  19.132   7.953
 7220POPC   C4B30130  19.336  19.107   7.653
 7221POPC   NC330131  11.345  38.498   9.453
 7221POPC   PO430132  11.311  38.502   9.153
 7221POPC   GL130133  11.337  38.478   8.853
 7221POPC   GL230134  11.252  38.595   8.853
 7221POPC   C1A30135  11.340  38.486   8.553
 7221POPC   D2A30136  11.267  38.497   8.253
 7221POPC   C3A30137  11.308  38.499   7.953
 7221POPC   C4A30138  11.330  38.413   7.653
 7221POPC   C1B30139  11.179  38.650   8.553
 7221POPC   C2B30140  11.172  38.718   8.253
 7221POPC   C3B30141  11.199  38.674   7.953
 7221POPC   C4B30142  11.211  38.717   7.653
 7222POPC   NC330143  35.371  12.863   9.453
 7222POPC   PO430144  35.353  12.829   9.153
 7222POPC   GL130145  35.330  12.851   8.853
 7222POPC   GL230146  35.397  12.994   8.853
 7222POPC   C1A30147  35.387  12.817   8.553
 7222POPC   D2A30148  35.401  12.884   8.253
 7222POPC   C3A30149  35.338  12.849   7.953
 7222POPC   C4A30150  35.317  12.901   7.653
 7222POPC   C1B30151  35.448  13.084   8.553
 7222POPC   C2B30152  35.387  13.092   8.253
 7222POPC   C3B30153  35.420  13.059   7.953
 7222POPC   C4B30154  35.440  13.078   7.653
 7223POPC   NC330155  39.226  25.245   9.453
 7223POPC   PO430156  39.184  25.233   9.153
 7223POPC   GL130157  39.186  25.244   8.853
 7223POPC   GL230158  39.290  25.362   8.853
 7223POPC   C1A30159  39.225  25.288   8.553
 7223POPC   D2A30160  39.232  25.269   8.253
 7223POPC   C3A30161  39.267  25.311   7.953
 7223POPC   C4A30162  39.234  25.242   7.653
 7223POPC   C1B30163  39.437  25.434   8.553
 7223POPC   C2B30164  39.368  25.410   8.253
 7223POPC   C3B30165  39.427  25.442   7.953
 7223POPC   C4B30166  39.362  25.484   7.653
 7224POPC   NC330167  33.794  26.033   9.453
 7224POPC   PO430168  33.845  26.087   9.153
 7224POPC   GL130169  33.758  26.088   8.853
 7224POPC   GL230170  33.721  25.963   8.853
 7224POPC   C1A30171  33.774  26.061   8.553
 7224POPC   D2A30172  33.825  26.057   8.253
 7224POPC   C3A30173  33.773  26.091   7.953
 7224POPC   C4A30174  33.847  26.067   7.653
 7224POPC   C1B30175  33.695  25.827   8.553
 7224POPC   C2B30176  33.645  25.855   8.253
 7224POPC   C3B30177  33.652  25.886   7.953
 7224POPC   C4B30178  33.695  25.808   7.653
 7225POPC   NC330179  41.592  22.967   9.453
 7225POPC   PO430180  41.597  22.969   9.153
 7225POPC   GL130181  41.537  22.906   8.853
 7225POPC   GL230182  41.555  22.815   8.853
 7225POPC   C1A30183  41.592  22.891   8.553
 7225POPC   D2A30184  41.566  22.892   8.253
 7225POPC   C3A30185  41.509  22.904   7.953
 7225POPC   C4A30186  41.582  22.897   7.653
 7225POPC   C1B30187  41.542  22.649   8.553
 7225POPC   C2B30188  41.538  22.718   8.253
 7225POPC   C3B30189  41.615  22.684   7.953
 7225POPC   C4B30190  41.624  22.711   7.653
 7226POPC   NC330191  34.600  23.756   9.453
 7226POPC   PO430192  34.568  23.734   9.153
 7226POPC   GL130193  34.565  23.752   8.853
 7226POPC   GL230194  34.640  23.575   8.853
 7226POPC   C1A30195  34.550  23.683   8.553
 7226POPC   D2A30196  34.614  23.692   8.253
 7226POPC   C3A30197  34.528  23.727   7.953
 7226POPC   C4A30198  34.526  23.696   7.653
 7226POPC   C1B30199  34.765  23.506   8.553
 7226POPC   C2B30200  34.714  23.532   8.253
 7226POPC   C3B30201  34.749  23.514   7.953
 7226POPC   C4B30202  34.753  23.468   7.653
 7227POPC   NC330203  31.478  15.962   9.453
 7227POPC   PO430204  31.479  15.915   9.153
 7227POPC   GL130205  31.477  16.003   8.853
 7227POPC   GL230206  31.522  15.798   8.853
 7227POPC   C1A30207  31.465  15.984   8.553
 7227POPC   D2A30208  31.515  15.994   8.253
 7227POPC   C3A30209  31.473  15.953   7.953
 7227POPC   C4A30210  31.457  15.936   7.653
 7227POPC   C1B30211  31.514  15.683   8.553
 7227POPC   C2B30212  31.447  15.711   8.253
 7227POPC   C3B30213  31.439  15.693   7.953
 7227POPC   C4B30214  31.440  15.656   7.653
 7228POPC   NC330215  30.690  25.241   9.453
 7228POPC   PO430216  30.659  25.282   9.153
 7228POPC   GL130217  30.704  25.310   8.853
 7228POPC   GL230218  30.754  25.394   8.853
 7228POPC   C1A30219  30.673  25.240   8.553
 7228POPC   D2A30220  30.705  25.302   8.253
 7228POPC   C3A30221  30.673  25.228   7.953
 7228POPC   C4A30222  30.663  25.249   7.653
 7228POPC   C1B30223  30.830  25.433   8.553
 7228POPC   C2B30224  30.882  25.492   8.253
 7228POPC   C3B30225  30.838  25.506   7.953
 7228POPC   C4B30226  30.873  25.483   7.653
 7229POPC   NC330227  16.750  25.238   9.453
 7229POPC   PO430228  16.731  25.286   9.153
 7229POPC   GL130229  16.734  25.229   8.853
 7229POPC   GL230230  16.848  25.271   8.853
 7229POPC   C1A30231  16.692  25.312   8.553
 7229POPC   D2A30232  16.750  25.228   8.253
 7229POPC   C3A30233  16.715  25.219   7.953
 7229POPC   C4A30234  16.704  25.278   7.653
 7229POPC   C1B30235  16.932  25.208   8.553
 7229POPC   C2B30236  17.021  25.197   8.253
 7229POPC   C3B30237  16.974  25.262   7.953
 7229POPC   C4B30238  16.956  25.239   7.653
 7230POPC   NC330239  40.811  26.781   9.453
 7230POPC   PO430240  40.769  26.852   9.153
 7230POPC   GL130241  40.761  26.787   8.853
 7230POPC   GL230242  40.711  26.782   8.853
 7230POPC   C1A30243  40.754  26.852   8.553
 7230POPC   D2A30244  40.738  26.805   8.253
 7230POPC   C3A30245  40.825  26.812   7.953
 7230POPC   C4A30246  40.776  26.791   7.653
 7230POPC   C1B30247  40.640  26.679   8.553
 7230POPC   C2B30248  40.615  26.669   8.253
 7230POPC   C3B30249  40.561  26.690   7.953
 7230POPC   C4B30250  40.560  26.684   7.653
 7231POPC   NC330251   4.329  38.424   9.453
 7231POPC   PO430252   4.364  38.433   9.153
 7231POPC   GL130253   4.302  38.482   8.853
 7231POPC   GL230254   4.191  38.473   8.853
 7231POPC   C1A30255   4.300  38.414   8.553
 7231POPC   D2A30256   4.337  38.464   8.253
 7231POPC   C3A30257   4.274  38.442   7.953
 7231POPC   C4A30258   4.284  38.412   7.653
 7231POPC   C1B30259   4.076  38.555   8.553
 7231POPC   C2B30260   4.031  38.572   8.253
 7231POPC   C3B30261   4.058  38.503   7.953
 7231POPC   C4B30262   4.036  38.493   7.653
 7232POPC   NC330263  37.667   1.203   9.453
 7232POPC   PO430264  37.690   1.254   9.153
 7232POPC   GL130265  37.668   1.167   8.853
 7232POPC   GL230266  37.797   1.236   8.853
 7232POPC   C1A30267  37.668   1.203   8.553
 7232POPC   D2A30268  37.704   1.193   8.253
 7232POPC   C3A30269  37.676   1.200   7.953
 7232POPC   C4A30270  37.639   1.234   7.653
 7232POPC   C1B30271  37.886   1.185   8.553
 7232POPC   C2B30272  37.975   1.264   8.253
 7232POPC   C3B30273  37.884   1.266   7.953
 7232POPC   C4B30274  37.900   1.185   7.653
 7233POPC   NC330275  29.953  33.019   9.453
 7233POPC   PO430276  29.944  32.976   9.153
 7233POPC   GL130277  29.898  32.978   8.853
 7233POPC   GL230278  30.069  32.965   8.853
 7233POPC   C1A30279  29.916  33.017   8.553
 7233POPC   D2A30280  29.912  33.062   8.253
 7233POPC   C3A30281  29.883  33.052   7.953
 7233POPC   C4A30282  29.934  33.004   7.653
 7233POPC   C1B30283  30.113  32.901   8.553
 7233POPC   C2B30284  30.143  32.864   8.253
 7233POPC   C3B30285  30.188  32.867   7.953
 7233POPC   C4B30286  30.107  32.908   7.653
 7234POPC   NC330287  44.686  42.377   9.453
 7234POPC   PO430288  44.705  42.365   9.153
 7234POPC   GL130289  44.676  42.316   8.853
 7234POPC   GL230290  44.595  42.199   8.853
 7234POPC   C1A30291  44.682  42.353   8.553
 7234POPC   D2A30292  44.698  42.336   8.253
 7234POPC   C3A30293  44.678  42.366   7.953
 7234POPC   C4A30294  44.618  42.307   7.653
 7234POPC   C1B30295  44.572  42.065   8.553
 7234POPC   C2B30296  44.535  42.068   8.253
 7234POPC   C3B30297  44.528  42.118   7.953
 7234POPC   C4B30298  44.579  42.118   7.653
 7235POPC   NC330299  10.502  23.681   9.453
 7235POPC   PO430300  10.502  23.703   9.153
 7235POPC   GL130301  10.550  23.697   8.853
 7235POPC   GL230302  10.365  23.665   8.853
 7235POPC   C1A30303  10.515  23.671   8.553
 7235POPC   D2A30304  10.514  23.705   8.253
 7235POPC   C3A30305  10.476  23.727   7.953
 7235POPC   C4A30306  10.517  23.760   7.653
 7235POPC   C1B30307  10.266  23.591   8.553
 7235POPC   C2B30308  10.277  23.669   8.253
 7235POPC   C3B30309  10.305  23.665   7.953
 7235POPC   C4B30310  10.332  23.681   7.653
 7236POPC   NC330311   7.445   1.208   9.453
 7236POPC   PO430312   7.470   1.176   9.153
 7236POPC   GL130313   7.382   1.254   8.853
 7236POPC   GL230314   7.533   1.310   8.853
 7236POPC   C1A30315   7.395   1.213   8.553
 7236POPC   D2A30316   7.401   1.196   8.253
 7236POPC   C3A30317   7.407   1.204   7.953
 7236POPC   C4A30318   7.448   1.253   7.653
 7236POPC   C1B30319   7.655   1.428   8.553
 7236POPC   C2B30320   7.566   1.407   8.253
 7236POPC   C3B30321   7.650   1.354   7.953
 7236POPC   C4B30322   7.617   1.425   7.653
 7237POPC   NC330323  19.852   5.132   9.453
 7237POPC   PO430324  19.788   5.130   9.153
 7237POPC   GL130325  19.862   5.049   8.853
 7237POPC   GL230326  19.760   5.162   8.853
 7237POPC   C1A30327  19.860   5.120   8.553
 7237POPC   D2A30328  19.882   5.048   8.253
 7237POPC   C3A30329  19.874   5.083   7.953
 7237POPC   C4A30330  19.798   5.073   7.653
 7237POPC   C1B30331  19.653   5.282   8.553
 7237POPC   C2B30332  19.667   5.289   8.253
 7237POPC   C3B30333  19.641   5.254   7.953
 7237POPC   C4B30334  19.622   5.272   7.653
 7238POPC   NC330335   8.993  37.716   9.453
 7238POPC   PO430336   9.014  37.697   9.153
 7238POPC   GL130337   8.928  37.697   8.853
 7238POPC   GL230338   9.070  37.758   8.853
 7238POPC   C1A30339   8.993  37.650   8.553
 7238POPC   D2A30340   8.942  37.655   8.253
 7238POPC   C3A30341   8.987  37.673   7.953
 7238POPC   C4A30342   8.972  37.710   7.653
 7238POPC   C1B30343   9.140  37.860   8.553
 7238POPC   C2B30344   9.112  37.849   8.253
 7238POPC   C3B30345   9.146  37.856   7.953
 7238POPC   C4B30346   9.096  37.877   7.653
 7239POPC   NC330347  38.454  34.590   9.453
 7239POPC   PO430348  38.435  34.531   9.153
 7239POPC   GL130349  38.448  34.569   8.853
 7239POPC   GL230350  38.325  34.604   8.853
 7239POPC   C1A30351  38.471  34.600   8.553
 7239POPC   D2A30352  38.409  34.575   8.253
 7239POPC   C3A30353  38.407  34.545   7.953
 7239POPC   C4A30354  38.481  34.568   7.653
 7239POPC   C1B30355  38.242  34.644   8.553
 7239POPC   C2B30356  38.257  34.614   8.253
 7239POPC   C3B30357  38.208  34.608   7.953
 7239POPC   C4B30358  38.265  34.650   7.653
 7240POPC   NC330359  22.938  14.356   9.453
 7240POPC   PO430360  22.924  14.443   9.153
 7240POPC   GL130361  22.917  14.388   8.853
 7240POPC   GL230362  22.994  14.281   8.853
 7240POPC   C1A30363  22.985  14.381   8.553
 7240POPC   D2A30364  22.894  14.379   8.253
 7240POPC   C3A30365  22.889  14.424   7.953
 7240POPC   C4A30366  22.901  14.450   7.653
 7240POPC   C1B30367  22.986  14.124   8.553
 7240POPC   C2B30368  23.054  14.195   8.253
 7240POPC   C3B30369  23.050  14.125   7.953
 7240POPC   C4B30370  23.059  14.157   7.653
 7241POPC   NC330371  20.572  22.179   9.453
 7241POPC   PO430372  20.588  22.176   9.153
 7241POPC   GL130373  20.615  22.202   8.853
 7241POPC   GL230374  20.761  22.200   8.853
 7241POPC   C1A30375  20.567  22.180   8.553
 7241POPC   D2A30376  20.599  22.168   8.253
 7241POPC   C3A30377  20.624  22.124   7.953
 7241POPC   C4A30378  20.602  22.165   7.653
 7241POPC   C1B30379  20.831  22.323   8.553
 7241POPC   C2B30380  20.797  22.313   8.253
 7241POPC   C3B30381  20.824  22.334   7.953
 7241POPC   C4B30382  20.847  22.286   7.653
 7242POPC   NC330383  32.976  30.650   9.453
 7242POPC   PO430384  32.978  30.687   9.153
 7242POPC   GL130385  33.001  30.702   8.853
 7242POPC   GL230386  33.172  30.624   8.853
 7242POPC   C1A30387  33.001  30.661   8.553
 7242POPC   D2A30388  32.989  30.728   8.253
 7242POPC   C3A30389  33.044  30.739   7.953
 7242POPC   C4A30390  33.073  30.657   7.653
 7242POPC   C1B30391  33.247  30.601   8.553
 7242POPC   C2B30392  33.246  30.577   8.253
 7242POPC   C3B30393  33.291  30.604   7.953
 7242POPC   C4B30394  33.258  30.629   7.653
 7243POPC   NC330395  38.430  36.861   9.453
 7243POPC   PO430396  38.487  36.902   9.153
 7243POPC   GL130397  38.500  36.876   8.853
 7243POPC   GL230398  38.548  36.878   8.853
 7243POPC   C1A30399  38.462  36.859   8.553
 7243POPC   D2A30400  38.473  36.895   8.253
 7243POPC   C3A30401  38.423  36.951   7.953
 7243POPC   C4A30402  38.485  36.929   7.653
 7243POPC   C1B30403  38.655  36.901   8.553
 7243POPC   C2B30404  38.697  36.907   8.253
 7243POPC   C3B30405  38.746  36.903   7.953
 7243POPC   C4B30406  38.663  36.875   7.653
 7244POPC   NC330407  33.009  11.318   9.453
 7244POPC   PO430408  33.044  11.297   9.153
 7244POPC   GL130409  33.053  11.264   8.853
 7244POPC   GL230410  32.952  11.247   8.853
 7244POPC   C1A30411  32.997  11.261   8.553
 7244POPC   D2A30412  32.994  11.309   8.253
 7244POPC   C3A30413  33.047  11.292   7.953
 7244POPC   C4A30414  33.006  11.348   7.653
 7244POPC   C1B30415  32.806  11.261   8.553
 7244POPC   C2B30416  32.770  11.213   8.253
 7244POPC   C3B30417  32.798  11.280   7.953
 7244POPC   C4B30418  32.767  11.247   7.653
 7245POPC   NC330419  15.130  43.915   9.453
 7245POPC   PO430420  15.149  43.838   9.153
 7245POPC   GL130421  15.194  43.910   8.853
 7245POPC   GL230422  15.086  43.761   8.853
 7245POPC   C1A30423  15.171  43.872   8.553
 7245POPC   D2A30424  15.192  43.872   8.253
 7245POPC   C3A30425  15.158  43.934   7.953
 7245POPC   C4A30426  15.226  43.917   7.653
 7245POPC   C1B30427  15.043  43.698   8.553
 7245POPC   C2B30428  15.051  43.743   8.253
 7245POPC   C3B30429  14.975  43.673   7.953
 7245POPC   C4B30430  14.973  43.663   7.653
 7246POPC   NC330431  11.297  15.199   9.453
 7246POPC   PO430432  11.287  15.185   9.153
 7246POPC   GL130433  11.340  15.209   8.853
 7246POPC   GL230434  11.229  15.190   8.853
 7246POPC   C1A30435  11.316  15.207   8.553
 7246POPC   D2A30436  11.305  15.199   8.253
 7246POPC   C3A30437  11.305  15.165   7.953
 7246POPC   C4A30438  11.302  15.228   7.653
 7246POPC   C1B30439  11.089  15.295   8.553
 7246POPC   C2B30440  11.063  15.248   8.253
 7246POPC   C3B30441  11.026  15.317   7.953
 7246POPC   C4B30442  11.072  15.247   7.653
 7247POPC   NC330443  43.924  33.771   9.453
 7247POPC   PO430444  43.857  33.787   9.153
 7247POPC   GL130445  43.902  33.774   8.853
 7247POPC   GL230446  43.885  33.930   8.853
 7247POPC   C1A30447  43.854  33.782   8.553
 7247POPC   D2A30448  43.917  33.781   8.253
 7247POPC   C3A30449  43.841  33.812   7.953
 7247POPC   C4A30450  43.930  33.799   7.653
 7247POPC   C1B30451  43.860  34.003   8.553
 7247POPC   C2B30452  43.900  34.050   8.253
 7247POPC   C3B30453  43.936  34.025   7.953
 7247POPC   C4B30454  43.887  34.010   7.653
 7248POPC   NC330455  15.156  28.376   9.453
 7248POPC   PO430456  15.200  28.321   9.153
 7248POPC   GL130457  15.198  28.324   8.853
 7248POPC   GL230458  15.161  28.510   8.853
 7248POPC   C1A30459  15.139  28.390   8.553
 7248POPC   D2A30460  15.172  28.347   8.253
 7248POPC   C3A30461  15.139  28.372   7.953
 7248POPC   C4A30462  15.189  28.363   7.653
 7248POPC   C1B30463  15.111  28.572   8.553
 7248POPC   C2B30464  15.053  28.623   8.253
 7248POPC   C3B30465  15.115  28.578   7.953
 7248POPC   C4B30466  15.117  28.568   7.653
 7249POPC   NC330467  37.660  39.975   9.453
 7249POPC   PO430468  37.716  40.006   9.153
 7249POPC   GL130469  37.714  40.022   8.853
 7249POPC   GL230470  37.655  39.950   8.853
 7249POPC   C1A30471  37.717  40.027   8.553
 7249POPC   D2A30472  37.722  39.986   8.253
 7249POPC   C3A30473  37.710  39.992   7.953
 7249POPC   C4A30474  37.727  40.042   7.653
 7249POPC   C1B30475  37.499  39.825   8.553
 7249POPC   C2B30476  37.531  39.782   8.253
 7249POPC   C3B30477  37.567  39.800   7.953
 7249POPC   C4B30478  37.525  39.800   7.653
 7250POPC   NC330479  39.976   0.449   9.453
 7250POPC   PO430480  40.008   0.399   9.153
 7250POPC   GL130481  40.012   0.409   8.853
 7250POPC   GL230482  39.871   0.416   8.853
 7250POPC   C1A30483  39.999   0.433   8.553
 7250POPC   D2A30484  39.963   0.466   8.253
 7250POPC   C3A30485  40.014   0.400   7.953
 7250POPC   C4A30486  39.971   0.448   7.653
 7250POPC   C1B30487  39.825   0.332   8.553
 7250POPC   C2B30488  39.811   0.284   8.253
 7250POPC   C3B30489  39.816   0.293   7.953
 7250POPC   C4B30490  39.820   0.360   7.653
 7251POPC   NC330491  21.373  37.680   9.453
 7251POPC   PO430492  21.422  37.660   9.153
 7251POPC   GL130493  21.424  37.633   8.853
 7251POPC   GL230494  21.526  37.769   8.853
 7251POPC   C1A30495  21.369  37.705   8.553
 7251POPC   D2A30496  21.433  37.649   8.253
 7251POPC   C3A30497  21.414  37.659   7.953
 7251POPC   C4A30498  21.419  37.723   7.653
 7251POPC   C1B30499  21.579  37.833   8.553
 7251POPC   C2B30500  21.617  37.799   8.253
 7251POPC   C3B30501  21.642  37.766   7.953
 7251POPC   C4B30502  21.656  37.831   7.653
 7252POPC   NC330503  22.981   7.373   9.453
 7252POPC   PO430504  22.965   7.426   9.153
 7252POPC   GL130505  22.909   7.396   8.853
 7252POPC   GL230506  23.011   7.336   8.853
 7252POPC   C1A30507  22.975   7.413   8.553
 7252POPC   D2A30508  22.974   7.392   8.253
 7252POPC   C3A30509  22.937   7.417   7.953
 7252POPC   C4A30510  22.960   7.405   7.653
 7252POPC   C1B30511  23.017   7.150   8.553
 7252POPC   C2B30512  22.982   7.130   8.253
 7252POPC   C3B30513  23.023   7.210   7.953
 7252POPC   C4B30514  22.962   7.140   7.653
 7253POPC   NC330515   9.730  15.141   9.453
 7253POPC   PO430516   9.748  15.177   9.153
 7253POPC   GL130517   9.699  15.135   8.853
 7253POPC   GL230518   9.793  15.066   8.853
 7253POPC   C1A30519   9.714  15.215   8.553
 7253POPC   D2A30520   9.760  15.188   8.253
 7253POPC   C3A30521   9.751  15.224   7.953
 7253POPC   C4A30522   9.744  15.199   7.653
 7253POPC   C1B30523   9.880  15.005   8.553
 7253POPC   C2B30524   9.849  14.964   8.253
 7253POPC   C3B30525   9.863  14.994   7.953
 7253POPC   C4B30526   9.884  14.944   7.653
 7254POPC   NC330527  26.845  12.818   9.453
 7254POPC   PO430528  26.789  12.814   9.153
 7254POPC   GL130529  26.851  12.853   8.853
 7254POPC   GL230530  26.939  12.915   8.853
 7254POPC   C1A30531  26.820  12.894   8.553
 7254POPC   D2A30532  26.819  12.853   8.253
 7254POPC   C3A30533  26.858  12.849   7.953
 7254POPC   C4A30534  26.773  12.846   7.653
 7254POPC   C1B30535  27.016  12.970   8.553
 7254POPC   C2B30536  27.045  12.974   8.253
 7254POPC   C3B30537  27.033  13.058   7.953
 7254POPC   C4B30538  26.961  13.051   7.653
 7255POPC   NC330539  11.324  40.774   9.453
 7255POPC   PO430540  11.270  40.783   9.153
 7255POPC   GL130541  11.253  40.823   8.853
 7255POPC   GL230542  11.347  40.656   8.853
 7255POPC   C1A30543  11.297  40.828   8.553
 7255POPC   D2A30544  11.338  40.814   8.253
 7255POPC   C3A30545  11.258  40.735   7.953
 7255POPC   C4A30546  11.309  40.757   7.653
 7255POPC   C1B30547  11.449  40.599   8.553
 7255POPC   C2B30548  11.476  40.611   8.253
 7255POPC   C3B30549  11.402  40.534   7.953
 7255POPC   C4B30550  11.470  40.524   7.653
 7256POPC   NC330551   3.591  36.893   9.453
 7256POPC   PO430552   3.564  36.947   9.153
 7256POPC   GL130553   3.571  36.897   8.853
 7256POPC   GL230554   3.420  37.015   8.853
 7256POPC   C1A30555   3.542  36.891   8.553
 7256POPC   D2A30556   3.543  36.868   8.253
 7256POPC   C3A30557   3.510  36.932   7.953
 7256POPC   C4A30558   3.576  36.861   7.653
 7256POPC   C1B30559   3.367  37.098   8.553
 7256POPC   C2B30560   3.396  37.085   8.253
 7256POPC   C3B30561   3.384  37.083   7.953
 7256POPC   C4B30562   3.345  37.043   7.653
 7257POPC   NC330563   9.708  17.510   9.453
 7257POPC   PO430564   9.712  17.501   9.153
 7257POPC   GL130565   9.726  17.457   8.853
 7257POPC   GL230566   9.758  17.603   8.853
 7257POPC   C1A30567   9.797  17.520   8.553
 7257POPC   D2A30568   9.762  17.509   8.253
 7257POPC   C3A30569   9.784  17.543   7.953
 7257POPC   C4A30570   9.776  17.555   7.653
 7257POPC   C1B30571   9.831  17.761   8.553
 7257POPC   C2B30572   9.767  17.754   8.253
 7257POPC   C3B30573   9.831  17.757   7.953
 7257POPC   C4B30574   9.748  17.770   7.653
 7258POPC   NC330575  15.929   1.224   9.453
 7258POPC   PO430576  15.983   1.215   9.153
 7258POPC   GL130577  15.951   1.212   8.853
 7258POPC   GL230578  16.099   1.307   8.853
 7258POPC   C1A30579  15.924   1.211   8.553
 7258POPC   D2A30580  15.930   1.243   8.253
 7258POPC   C3A30581  15.959   1.217   7.953
 7258POPC   C4A30582  15.961   1.184   7.653
 7258POPC   C1B30583  16.212   1.368   8.553
 7258POPC   C2B30584  16.201   1.296   8.253
 7258POPC   C3B30585  16.128   1.379   7.953
 7258POPC   C4B30586  16.205   1.391   7.653
 7259POPC   NC330587  43.079  29.898   9.453
 7259POPC   PO430588  43.106  29.891   9.153
 7259POPC   GL130589  43.159  29.929   8.853
 7259POPC   GL230590  43.028  29.842   8.853
 7259POPC   C1A30591  43.128  29.910   8.553
 7259POPC   D2A30592  43.094  29.912   8.253
 7259POPC   C3A30593  43.131  29.970   7.953
 7259POPC   C4A30594  43.079  29.922   7.653
 7259POPC   C1B30595  43.052  29.716   8.553
 7259POPC   C2B30596  43.008  29.647   8.253
 7259POPC   C3B30597  42.978  29.704   7.953
 7259POPC   C4B30598  43.059  29.684   7.653
 7260POPC   NC330599  20.614  40.805   9.453
 7260POPC   PO430600  20.635  40.784   9.153
 7260POPC   GL130601  20.585  40.770   8.853
 7260POPC   GL230602  20.525  40.864   8.853
 7260POPC   C1A30603  20.635  40.779   8.553
 7260POPC   D2A30604  20.639  40.769   8.253
 7260POPC   C3A30605  20.587  40.790   7.953
 7260POPC   C4A30606  20.567  40.763   7.653
 7260POPC   C1B30607  20.537  40.993   8.553
 7260POPC   C2B30608  20.488  40.977   8.253
 7260POPC   C3B30609  20.533  40.991   7.953
 7260POPC   C4B30610  20.559  40.987   7.653
 7261POPC   NC330611   1.191   6.656   9.453
 7261POPC   PO430612   1.171   6.672   9.153
 7261POPC   GL130613   1.199   6.666   8.853
 7261POPC   GL230614   1.078   6.649   8.853
 7261POPC   C1A30615   1.190   6.655   8.553
 7261POPC   D2A30616   1.190   6.683   8.253
 7261POPC   C3A30617   1.193   6.647   7.953
 7261POPC   C4A30618   1.194   6.619   7.653
 7261POPC   C1B30619   1.016   6.755   8.553
 7261POPC   C2B30620   0.989   6.704   8.253
 7261POPC   C3B30621   1.025   6.714   7.953
 7261POPC   C4B30622   0.948   6.728   7.653
 7262POPC   NC330623  39.256  41.605   9.453
 7262POPC   PO430624  39.211  41.537   9.153
 7262POPC   GL130625  39.233  41.570   8.853
 7262POPC   GL230626  39.207  41.711   8.853
 7262POPC   C1A30627  39.241  41.579   8.553
 7262POPC   D2A30628  39.278  41.568   8.253
 7262POPC   C3A30629  39.254  41.554   7.953
 7262POPC   C4A30630  39.205  41.520   7.653
 7262POPC   C1B30631  39.164  41.766   8.553
 7262POPC   C2B30632  39.165  41.846   8.253
 7262POPC   C3B30633  39.170  41.856   7.953
 7262POPC   C4B30634  39.199  41.783   7.653
 7263POPC   NC330635  19.021  33.067   9.453
 7263POPC   PO430636  19.042  32.996   9.153
 7263POPC   GL130637  19.044  33.048   8.853
 7263POPC   GL230638  19.127  33.110   8.853
 7263POPC   C1A30639  19.028  32.978   8.553
 7263POPC   D2A30640  19.036  33.068   8.253
 7263POPC   C3A30641  19.013  33.054   7.953
 7263POPC   C4A30642  19.076  32.979   7.653
 7263POPC   C1B30643  19.144  33.234   8.553
 7263POPC   C2B30644  19.142  33.272   8.253
 7263POPC   C3B30645  19.104  33.300   7.953
 7263POPC   C4B30646  19.126  33.309   7.653
 7264POPC   NC330647  22.174  43.152   9.453
 7264POPC   PO430648  22.147  43.086   9.153
 7264POPC   GL130649  22.156  43.131   8.853
 7264POPC   GL230650  22.312  43.157   8.853
 7264POPC   C1A30651  22.174  43.121   8.553
 7264POPC   D2A30652  22.163  43.122   8.253
 7264POPC   C3A30653  22.154  43.088   7.953
 7264POPC   C4A30654  22.141  43.124   7.653
 7264POPC   C1B30655  22.362  43.216   8.553
 7264POPC   C2B30656  22.386  43.259   8.253
 7264POPC   C3B30657  22.420  43.202   7.953
 7264POPC   C4B30658  22.419  43.258   7.653
 7265POPC   NC330659  39.264   8.189   9.453
 7265POPC   PO430660  39.246   8.235   9.153
 7265POPC   GL130661  39.241   8.194   8.853
 7265POPC   GL230662  39.339   8.144   8.853
 7265POPC   C1A30663  39.213   8.216   8.553
 7265POPC   D2A30664  39.257   8.211   8.253
 7265POPC   C3A30665  39.276   8.163   7.953
 7265POPC   C4A30666  39.207   8.242   7.653
 7265POPC   C1B30667  39.512   8.223   8.553
 7265POPC   C2B30668  39.485   8.200   8.253
 7265POPC   C3B30669  39.465   8.168   7.953
 7265POPC   C4B30670  39.504   8.184   7.653
 7266POPC   NC330671   2.019  37.686   9.453
 7266POPC   PO430672   2.032  37.689   9.153
 7266POPC   GL130673   1.993  37.712   8.853
 7266POPC   GL230674   2.115  37.724   8.853
 7266POPC   C1A30675   2.018  37.702   8.553
 7266POPC   D2A30676   1.980  37.697   8.253
 7266POPC   C3A30677   2.008  37.719   7.953
 7266POPC   C4A30678   1.977  37.649   7.653
 7266POPC   C1B30679   2.232  37.819   8.553
 7266POPC   C2B30680   2.194  37.801   8.253
 7266POPC   C3B30681   2.174  37.800   7.953
 7266POPC   C4B30682   2.240  37.823   7.653
 7267POPC   NC330683  28.368   5.828   9.453
 7267POPC   PO430684  28.381   5.820   9.153
 7267POPC   GL130685  28.402   5.864   8.853
 7267POPC   GL230686  28.220   5.789   8.853
 7267POPC   C1A30687  28.405   5.836   8.553
 7267POPC   D2A30688  28.360   5.824   8.253
 7267POPC   C3A30689  28.377   5.857   7.953
 7267POPC   C4A30690  28.388   5.889   7.653
 7267POPC   C1B30691  28.210   5.699   8.553
 7267POPC   C2B30692  28.211   5.732   8.253
 7267POPC   C3B30693  28.142   5.712   7.953
 7267POPC   C4B30694  28.202   5.691   7.653
 7268POPC   NC330695  19.076  40.004   9.453
 7268POPC   PO430696  19.067  39.989   9.153
 7268POPC   GL130697  19.102  40.053   8.853
 7268POPC   GL230698  19.092  40.123   8.853
 7268POPC   C1A30699  19.106  39.975   8.553
 7268POPC   D2A30700  19.082  39.995   8.253
 7268POPC   C3A30701  19.074  39.976   7.953
 7268POPC   C4A30702  19.095  39.994   7.653
 7268POPC   C1B30703  19.208  40.263   8.553
 7268POPC   C2B30704  19.234  40.252   8.253
 7268POPC   C3B30705  19.164  40.264   7.953
 7268POPC   C4B30706  19.188  40.182   7.653
 7269POPC   NC330707  34.568  16.712   9.453
 7269POPC   PO430708  34.607  16.736   9.153
 7269POPC   GL130709  34.581  16.741   8.853
 7269POPC   GL230710  34.455  16.638   8.853
 7269POPC   C1A30711  34.595  16.761   8.553
 7269POPC   D2A30712  34.599  16.756   8.253
 7269POPC   C3A30713  34.562  16.736   7.953
 7269POPC   C4A30714  34.530  16.711   7.653
 7269POPC   C1B30715  34.375  16.593   8.553
 7269POPC   C2B30716  34.306  16.605   8.253
 7269POPC   C3B30717  34.357  16.591   7.953
 7269POPC   C4B30718  34.374  16.594   7.653
 7270POPC   NC330719  12.029  18.238   9.453
 7270POPC   PO430720  12.086  18.309   9.153
 7270POPC   GL130721  12.048  18.323   8.853
 7270POPC   GL230722  12.212  18.371   8.853
 7270POPC   C1A30723  12.075  18.236   8.553
 7270POPC   D2A30724  12.051  18.242   8.253
 7270POPC   C3A30725  12.122  18.332   7.953
 7270POPC   C4A30726  12.058  18.325   7.653
 7270POPC   C1B30727  12.315  18.439   8.553
 7270POPC   C2B30728  12.341  18.433   8.253
 7270POPC   C3B30729  12.304  18.386   7.953
 7270POPC   C4B30730  12.341  18.446   7.653
 7271POPC   NC330731  44.659  44.705   9.453
 7271POPC   PO430732  44.616  44.690   9.153
 7271POPC   GL130733  44.680  44.700   8.853
 7271POPC   GL230734  44.501  44.714   8.853
 7271POPC   C1A30735  44.673  44.663   8.553
 7271POPC   D2A30736  44.688  44.673   8.253
 7271POPC   C3A30737  44.627  44.702   7.953
 7271POPC   C4A30738  44.630  44.675   7.653
 7271POPC   C1B30739  44.395  44.658   8.553
 7271POPC   C2B30740  44.427  44.652   8.253
 7271POPC   C3B30741  44.446  44.663   7.953
 7271POPC   C4B30742  44.460  44.716   7.653
 7272POPC   NC330743   5.057  39.216   9.453
 7272POPC   PO430744   5.110  39.198   9.153
 7272POPC   GL130745   5.091  39.226   8.853
 7272POPC   GL230746   5.217  39.227   8.853
 7272POPC   C1A30747   5.125  39.253   8.553
 7272POPC   D2A30748   5.102  39.192   8.253
 7272POPC   C3A30749   5.106  39.183   7.953
 7272POPC   C4A30750   5.110  39.200   7.653
 7272POPC   C1B30751   5.309  39.232   8.553
 7272POPC   C2B30752   5.378  39.233   8.253
 7272POPC   C3B30753   5.363  39.235   7.953
 7272POPC   C4B30754   5.310  39.313   7.653
 7273POPC   NC330755   4.351  29.114   9.453
 7273POPC   PO430756   4.332  29.111   9.153
 7273POPC   GL130757   4.316  29.114   8.853
 7273POPC   GL230758   4.336  29.281   8.853
 7273POPC   C1A30759   4.292  29.177   8.553
 7273POPC   D2A30760   4.314  29.147   8.253
 7273POPC   C3A30761   4.324  29.172   7.953
 7273POPC   C4A30762   4.345  29.143   7.653
 7273POPC   C1B30763   4.437  29.353   8.553
 7273POPC   C2B30764   4.436  29.402   8.253
 7273POPC   C3B30765   4.380  29.359   7.953
 7273POPC   C4B30766   4.387  29.393   7.653
 7274POPC   NC330767   2.769  19.090   9.453
 7274POPC   PO430768   2.743  19.030   9.153
 7274POPC   GL130769   2.791  19.049   8.853
 7274POPC   GL230770   2.739  18.926   8.853
 7274POPC   C1A30771   2.753  19.027   8.553
 7274POPC   D2A30772   2.760  19.078   8.253
 7274POPC   C3A30773   2.806  19.104   7.953
 7274POPC   C4A30774   2.779  19.079   7.653
 7274POPC   C1B30775   2.685  18.885   8.553
 7274POPC   C2B30776   2.701  18.886   8.253
 7274POPC   C3B30777   2.633  18.863   7.953
 7274POPC   C4B30778   2.607  18.836   7.653
 7275POPC   NC330779   3.505  19.105   9.453
 7275POPC   PO430780   3.493  19.081   9.153
 7275POPC   GL130781   3.575  19.076   8.853
 7275POPC   GL230782   3.640  19.093   8.853
 7275POPC   C1A30783   3.531  19.035   8.553
 7275POPC   D2A30784   3.564  19.076   8.253
 7275POPC   C3A30785   3.549  19.056   7.953
 7275POPC   C4A30786   3.503  19.086   7.653
 7275POPC   C1B30787   3.824  19.103   8.553
 7275POPC   C2B30788   3.805  19.039   8.253
 7275POPC   C3B30789   3.742  19.101   7.953
 7275POPC   C4B30790   3.775  19.053   7.653
 7276POPC   NC330791  15.187   3.511   9.453
 7276POPC   PO430792  15.162   3.518   9.153
 7276POPC   GL130793  15.141   3.517   8.853
 7276POPC   GL230794  15.076   3.483   8.853
 7276POPC   C1A30795  15.191   3.494   8.553
 7276POPC   D2A30796  15.143   3.585   8.253
 7276POPC   C3A30797  15.173   3.536   7.953
 7276POPC   C4A30798  15.164   3.533   7.653
 7276POPC   C1B30799  14.970   3.503   8.553
 7276POPC   C2B30800  14.915   3.514   8.253
 7276POPC   C3B30801  14.937   3.486   7.953
 7276POPC   C4B30802  14.967   3.461   7.653
 7277POPC   NC330803  43.936  22.125   9.453
 7277POPC   PO430804  43.902  22.160   9.153
 7277POPC   GL130805  43.936  22.152   8.853
 7277POPC   GL230806  43.951  22.098   8.853
 7277POPC   C1A30807  43.871  22.152   8.553
 7277POPC   D2A30808  43.893  22.199   8.253
 7277POPC   C3A30809  43.924  22.196   7.953
 7277POPC   C4A30810  43.879  22.113   7.653
 7277POPC   C1B30811  44.015  21.990   8.553
 7277POPC   C2B30812  44.036  21.922   8.253
 7277POPC   C3B30813  44.061  21.930   7.953
 7277POPC   C4B30814  44.034  21.941   7.653
 7278POPC   NC330815  10.485  12.085   9.453
 7278POPC   PO430816  10.565  12.065   9.153
 7278POPC   GL130817  10.524  12.102   8.853
 7278POPC   GL230818  10.406  12.166   8.853
 7278POPC   C1A30819  10.536  12.080   8.553
 7278POPC   D2A30820  10.539  12.051   8.253
 7278POPC   C3A30821  10.505  12.104   7.953
 7278POPC   C4A30822  10.517  12.105   7.653
 7278POPC   C1B30823  10.292  12.220   8.553
 7278POPC   C2B30824  10.281  12.260   8.253
 7278POPC   C3B30825  10.295  12.280   7.953
 7278POPC   C4B30826  10.339  12.227   7.653
 7279POPC   NC330827  33.823  23.741   9.453
 7279POPC   PO430828  33.847  23.675   9.153
 7279POPC   GL130829  33.831  23.746   8.853
 7279POPC   GL230830  33.864  23.626   8.853
 7279POPC   C1A30831  33.813  23.763   8.553
 7279POPC   D2A30832  33.776  23.698   8.253
 7279POPC   C3A30833  33.776  23.683   7.953
 7279POPC   C4A30834  33.782  23.675   7.653
 7279POPC   C1B30835  33.969  23.606   8.553
 7279POPC   C2B30836  33.982  23.558   8.253
 7279POPC   C3B30837  34.037  23.584   7.953
 7279POPC   C4B30838  34.050  23.527   7.653
 7280POPC   NC330839  19.085  40.801   9.453
 7280POPC   PO430840  19.089  40.832   9.153
 7280POPC   GL130841  19.052  40.734   8.853
 7280POPC   GL230842  19.133  40.765   8.853
 7280POPC   C1A30843  19.051  40.735   8.553
 7280POPC   D2A30844  19.016  40.814   8.253
 7280POPC   C3A30845  19.064  40.764   7.953
 7280POPC   C4A30846  19.087  40.796   7.653
 7280POPC   C1B30847  19.223  40.655   8.553
 7280POPC   C2B30848  19.256  40.647   8.253
 7280POPC   C3B30849  19.281  40.644   7.953
 7280POPC   C4B30850  19.233  40.608   7.653
 7281POPC   NC330851  16.775  18.315   9.453
 7281POPC   PO430852  16.703  18.330   9.153
 7281POPC   GL130853  16.776  18.252   8.853
 7281POPC   GL230854  16.712  18.402   8.853
 7281POPC   C1A30855  16.693  18.252   8.553
 7281POPC   D2A30856  16.765  18.282   8.253
 7281POPC   C3A30857  16.725  18.298   7.953
 7281POPC   C4A30858  16.704  18.303   7.653
 7281POPC   C1B30859  16.674  18.561   8.553
 7281POPC   C2B30860  16.617  18.478   8.253
 7281POPC   C3B30861  16.625  18.493   7.953
 7281POPC   C4B30862  16.648  18.470   7.653
 7282POPC   NC330863  19.867  40.742   9.453
 7282POPC   PO430864  19.815  40.829   9.153
 7282POPC   GL130865  19.847  40.775   8.853
 7282POPC   GL230866  20.005  40.764   8.853
 7282POPC   C1A30867  19.814  40.778   8.553
 7282POPC   D2A30868  19.836  40.746   8.253
 7282POPC   C3A30869  19.853  40.777   7.953
 7282POPC   C4A30870  19.856  40.811   7.653
 7282POPC   C1B30871  20.113  40.755   8.553
 7282POPC   C2B30872  20.122  40.750   8.253
 7282POPC   C3B30873  20.051  40.829   7.953
 7282POPC   C4B30874  20.121  40.823   7.653
 7283POPC   NC330875  32.286  36.118   9.453
 7283POPC   PO430876  32.277  36.138   9.153
 7283POPC   GL130877  32.262  36.164   8.853
 7283POPC   GL230878  32.364  36.213   8.853
 7283POPC   C1A30879  32.214  36.096   8.553
 7283POPC   D2A30880  32.228  36.091   8.253
 7283POPC   C3A30881  32.215  36.135   7.953
 7283POPC   C4A30882  32.202  36.098   7.653
 7283POPC   C1B30883  32.487  36.242   8.553
 7283POPC   C2B30884  32.466  36.312   8.253
 7283POPC   C3B30885  32.398  36.293   7.953
 7283POPC   C4B30886  32.475  36.254   7.653
 7284POPC   NC330887  23.758  42.305   9.453
 7284POPC   PO430888  23.698  42.308   9.153
 7284POPC   GL130889  23.754  42.343   8.853
 7284POPC   GL230890  23.598  42.415   8.853
 7284POPC   C1A30891  23.696  42.365   8.553
 7284POPC   D2A30892  23.757  42.345   8.253
 7284POPC   C3A30893  23.678  42.340   7.953
 7284POPC   C4A30894  23.691  42.381   7.653
 7284POPC   C1B30895  23.484  42.454   8.553
 7284POPC   C2B30896  23.500  42.444   8.253
 7284POPC   C3B30897  23.510  42.486   7.953
 7284POPC   C4B30898  23.514  42.486   7.653
 7285POPC   NC330899  32.229  14.376   9.453
 7285POPC   PO430900  32.239  14.382   9.153
 7285POPC   GL130901  32.201  14.367   8.853
 7285POPC   GL230902  32.149  14.275   8.853
 7285POPC   C1A30903  32.213  14.375   8.553
 7285POPC   D2A30904  32.214  14.385   8.253
 7285POPC   C3A30905  32.297  14.434   7.953
 7285POPC   C4A30906  32.206  14.424   7.653
 7285POPC   C1B30907  32.061  14.223   8.553
 7285POPC   C2B30908  32.054  14.209   8.253
 7285POPC   C3B30909  32.121  14.160   7.953
 7285POPC   C4B30910  32.121  14.227   7.653
 7286POPC   NC330911  12.829  29.179   9.453
 7286POPC   PO430912  12.850  29.164   9.153
 7286POPC   GL130913  12.834  29.101   8.853
 7286POPC   GL230914  12.799  28.998   8.853
 7286POPC   C1A30915  12.813  29.168   8.553
 7286POPC   D2A30916  12.860  29.151   8.253
 7286POPC   C3A30917  12.862  29.149   7.953
 7286POPC   C4A30918  12.807  29.096   7.653
 7286POPC   C1B30919  12.759  28.982   8.553
 7286POPC   C2B30920  12.712  28.973   8.253
 7286POPC   C3B30921  12.701  28.963   7.953
 7286POPC   C4B30922  12.759  28.958   7.653
 7287POPC   NC330923  14.376   5.048   9.453
 7287POPC   PO430924  14.407   5.045   9.153
 7287POPC   GL130925  14.412   5.099   8.853
 7287POPC   GL230926  14.364   5.003   8.853
 7287POPC   C1A30927  14.447   5.115   8.553
 7287POPC   D2A30928  14.365   5.065   8.253
 7287POPC   C3A30929  14.378   5.082   7.953
 7287POPC   C4A30930  14.442   5.106   7.653
 7287POPC   C1B30931  14.295   4.833   8.553
 7287POPC   C2B30932  14.334   4.858   8.253
 7287POPC   C3B30933  14.370   4.845   7.953
 7287POPC   C4B30934  14.315   4.808   7.653
 7288POPC   NC330935   1.984   3.495   9.453
 7288POPC   PO430936   2.036   3.572   9.153
 7288POPC   GL130937   2.021   3.560   8.853
 7288POPC   GL230938   2.044   3.667   8.853
 7288POPC   C1A30939   1.961   3.518   8.553
 7288POPC   D2A30940   2.040   3.563   8.253
 7288POPC   C3A30941   2.023   3.566   7.953
 7288POPC   C4A30942   2.038   3.524   7.653
 7288POPC   C1B30943   2.067   3.742   8.553
 7288POPC   C2B30944   2.038   3.802   8.253
 7288POPC   C3B30945   2.107   3.807   7.953
 7288POPC   C4B30946   2.131   3.737   7.653
 7289POPC   NC330947  33.775  12.804   9.453
 7289POPC   PO430948  33.754  12.870   9.153
 7289POPC   GL130949  33.815  12.843   8.853
 7289POPC   GL230950  33.871  13.015   8.853
 7289POPC   C1A30951  33.811  12.879   8.553
 7289POPC   D2A30952  33.802  12.865   8.253
 7289POPC   C3A30953  33.836  12.825   7.953
 7289POPC   C4A30954  33.773  12.875   7.653
 7289POPC   C1B30955  33.866  13.077   8.553
 7289POPC   C2B30956  33.888  13.090   8.253
 7289POPC   C3B30957  33.944  13.127   7.953
 7289POPC   C4B30958  33.948  13.110   7.653
 7290POPC   NC330959   2.736  17.540   9.453
 7290POPC   PO430960   2.770  17.483   9.153
 7290POPC   GL130961   2.769  17.512   8.853
 7290POPC   GL230962   2.728  17.606   8.853
 7290POPC   C1A30963   2.802  17.524   8.553
 7290POPC   D2A30964   2.782  17.530   8.253
 7290POPC   C3A30965   2.781  17.516   7.953
 7290POPC   C4A30966   2.809  17.507   7.653
 7290POPC   C1B30967   2.643  17.752   8.553
 7290POPC   C2B30968   2.651  17.743   8.253
 7290POPC   C3B30969   2.688  17.754   7.953
 7290POPC   C4B30970   2.621  17.751   7.653
 7291POPC   NC330971   8.189  16.703   9.453
 7291POPC   PO430972   8.159  16.719   9.153
 7291POPC   GL130973   8.233  16.724   8.853
 7291POPC   GL230974   8.292  16.799   8.853
 7291POPC   C1A30975   8.222  16.742   8.553
 7291POPC   D2A30976   8.236  16.779   8.253
 7291POPC   C3A30977   8.220  16.682   7.953
 7291POPC   C4A30978   8.236  16.698   7.653
 7291POPC   C1B30979   8.335  16.922   8.553
 7291POPC   C2B30980   8.278  17.003   8.253
 7291POPC   C3B30981   8.326  16.973   7.953
 7291POPC   C4B30982   8.253  16.971   7.653
 7292POPC   NC330983  37.656  30.690   9.453
 7292POPC   PO430984  37.658  30.715   9.153
 7292POPC   GL130985  37.660  30.690   8.853
 7292POPC   GL230986  37.786  30.706   8.853
 7292POPC   C1A30987  37.676  30.729   8.553
 7292POPC   D2A30988  37.702  30.721   8.253
 7292POPC   C3A30989  37.720  30.648   7.953
 7292POPC   C4A30990  37.712  30.709   7.653
 7292POPC   C1B30991  37.878  30.808   8.553
 7292POPC   C2B30992  37.896  30.742   8.253
 7292POPC   C3B30993  37.962  30.739   7.953
 7292POPC   C4B30994  37.895  30.731   7.653
 7293POPC   NC330995  32.267  20.634   9.453
 7293POPC   PO430996  32.215  20.582   9.153
 7293POPC   GL130997  32.255  20.591   8.853
 7293POPC   GL230998  32.215  20.769   8.853
 7293POPC   C1A30999  32.278  20.617   8.553
 7293POPC   D2A31000  32.265  20.595   8.253
 7293POPC   C3A31001  32.283  20.618   7.953
 7293POPC   C4A31002  32.293  20.639   7.653
 7293POPC   C1B31003  32.165  20.811   8.553
 7293POPC   C2B31004  32.172  20.819   8.253
 7293POPC   C3B31005  32.181  20.852   7.953
 7293POPC   C4B31006  32.208  20.893   7.653
 7294POPC   NC331007  28.354  23.748   9.453
 7294POPC   PO431008  28.388  23.741   9.153
 7294POPC   GL131009  28.370  23.733   8.853
 7294POPC   GL231010  28.218  23.723   8.853
 7294POPC   C1A31011  28.387  23.671   8.553
 7294POPC   D2A31012  28.377  23.732   8.253
 7294POPC   C3A31013  28.354  23.713   7.953
 7294POPC   C4A31014  28.348  23.697   7.653
 7294POPC   C1B31015  28.113  23.857   8.553
 7294POPC   C2B31016  28.130  23.780   8.253
 7294POPC   C3B31017  28.147  23.779   7.953
 7294POPC   C4B31018  28.140  23.858   7.653
 7295POPC   NC331019  15.987  19.038   9.453
 7295POPC   PO431020  15.916  19.101   9.153
 7295POPC   GL131021  15.936  19.027   8.853
 7295POPC   GL231022  15.895  18.994   8.853
 7295POPC   C1A31023  15.957  19.079   8.553
 7295POPC   D2A31024  15.948  19.025   8.253
 7295POPC   C3A31025  15.964  19.058   7.953
 7295POPC   C4A31026  15.955  19.087   7.653
 7295POPC   C1B31027  15.721  18.922   8.553
 7295POPC   C2B31028  15.699  18.935   8.253
 7295POPC   C3B31029  15.695  18.900   7.953
 7295POPC   C4B31030  15.695  18.936   7.653
 7296POPC   NC331031  39.209   0.435   9.453
 7296POPC   PO431032  39.212   0.427   9.153
 7296POPC   GL131033  39.183   0.486   8.853
 7296POPC   GL231034  39.126   0.328   8.853
 7296POPC   C1A31035  39.193   0.402   8.553
 7296POPC   D2A31036  39.266   0.476   8.253
 7296POPC   C3A31037  39.260   0.436   7.953
 7296POPC   C4A31038  39.260   0.455   7.653
 7296POPC   C1B31039  39.003   0.314   8.553
 7296POPC   C2B31040  39.044   0.254   8.253
 7296POPC   C3B31041  39.063   0.318   7.953
 7296POPC   C4B31042  38.998   0.264   7.653
 7297POPC   NC331043  27.602  14.418   9.453
 7297POPC   PO431044  27.628  14.404   9.153
 7297POPC   GL131045  27.564  14.427   8.853
 7297POPC   GL231046  27.484  14.279   8.853
 7297POPC   C1A31047  27.573  14.375   8.553
 7297POPC   D2A31048  27.617  14.442   8.253
 7297POPC   C3A31049  27.613  14.445   7.953
 7297POPC   C4A31050  27.566  14.440   7.653
 7297POPC   C1B31051  27.494  14.151   8.553
 7297POPC   C2B31052  27.491  14.185   8.253
 7297POPC   C3B31053  27.458  14.177   7.953
 7297POPC   C4B31054  27.500  14.232   7.653
 7298POPC   NC331055  36.862   7.450   9.453
 7298POPC   PO431056  36.898   7.451   9.153
 7298POPC   GL131057  36.923   7.400   8.853
 7298POPC   GL231058  36.811   7.430   8.853
 7298POPC   C1A31059  36.931   7.444   8.553
 7298POPC   D2A31060  36.866   7.458   8.253
 7298POPC   C3A31061  36.906   7.461   7.953
 7298POPC   C4A31062  36.880   7.415   7.653
 7298POPC   C1B31063  36.651   7.428   8.553
 7298POPC   C2B31064  36.636   7.437   8.253
 7298POPC   C3B31065  36.680   7.505   7.953
 7298POPC   C4B31066  36.645   7.431   7.653
 7299POPC   NC331067  12.889  28.371   9.453
 7299POPC   PO431068  12.818  28.367   9.153
 7299POPC   GL131069  12.832  28.416   8.853
 7299POPC   GL231070  12.779  28.360   8.853
 7299POPC   C1A31071  12.853  28.360   8.553
 7299POPC   D2A31072  12.806  28.330   8.253
 7299POPC   C3A31073  12.844  28.394   7.953
 7299POPC   C4A31074  12.890  28.394   7.653
 7299POPC   C1B31075  12.628  28.271   8.553
 7299POPC   C2B31076  12.583  28.261   8.253
 7299POPC   C3B31077  12.570  28.317   7.953
 7299POPC   C4B31078  12.579  28.299   7.653
 7300POPC   NC331079  30.725  43.158   9.453
 7300POPC   PO431080  30.689  43.158   9.153
 7300POPC   GL131081  30.650  43.135   8.853
 7300POPC   GL231082  30.703  43.211   8.853
 7300POPC   C1A31083  30.730  43.105   8.553
 7300POPC   D2A31084  30.689  43.062   8.253
 7300POPC   C3A31085  30.669  43.094   7.953
 7300POPC   C4A31086  30.655  43.150   7.653
 7300POPC   C1B31087  30.743  43.384   8.553
 7300POPC   C2B31088  30.777  43.317   8.253
 7300POPC   C3B31089  30.814  43.362   7.953
 7300POPC   C4B31090  30.784  43.366   7.653
 7301POPC   NC331091  13.602  31.434   9.453
 7301POPC   PO431092  13.622  31.486   9.153
 7301POPC   GL131093  13.647  31.461   8.853
 7301POPC   GL231094  13.583  31.551   8.853
 7301POPC   C1A31095  13.610  31.442   8.553
 7301POPC   D2A31096  13.594  31.449   8.253
 7301POPC   C3A31097  13.611  31.492   7.953
 7301POPC   C4A31098  13.673  31.429   7.653
 7301POPC   C1B31099  13.442  31.610   8.553
 7301POPC   C2B31100  13.475  31.688   8.253
 7301POPC   C3B31101  13.471  31.691   7.953
 7301POPC   C4B31102  13.415  31.642   7.653
 7302POPC   NC331103  43.105  39.971   9.453
 7302POPC   PO431104  43.105  40.028   9.153
 7302POPC   GL131105  43.083  39.970   8.853
 7302POPC   GL231106  43.228  39.948   8.853
 7302POPC   C1A31107  43.106  39.977   8.553
 7302POPC   D2A31108  43.066  39.986   8.253
 7302POPC   C3A31109  43.090  40.042   7.953
 7302POPC   C4A31110  43.136  40.028   7.653
 7302POPC   C1B31111  43.307  39.896   8.553
 7302POPC   C2B31112  43.352  39.930   8.253
 7302POPC   C3B31113  43.330  39.879   7.953
 7302POPC   C4B31114  43.370  39.898   7.653
 7303POPC   NC331115  43.123  18.320   9.453
 7303POPC   PO431116  43.105  18.290   9.153
 7303POPC   GL131117  43.080  18.278   8.853
 7303POPC   GL231118  42.985  18.338   8.853
 7303POPC   C1A31119  43.105  18.242   8.553
 7303POPC   D2A31120  43.118  18.260   8.253
 7303POPC   C3A31121  43.120  18.276   7.953
 7303POPC   C4A31122  43.080  18.242   7.653
 7303POPC   C1B31123  42.933  18.428   8.553
 7303POPC   C2B31124  42.864  18.453   8.253
 7303POPC   C3B31125  42.940  18.417   7.953
 7303POPC   C4B31126  42.855  18.453   7.653
 7304POPC   NC331127  12.037  14.437   9.453
 7304POPC   PO431128  12.031  14.446   9.153
 7304POPC   GL131129  12.070  14.435   8.853
 7304POPC   GL231130  11.934  14.366   8.853
 7304POPC   C1A31131  12.037  14.438   8.553
 7304POPC   D2A31132  12.099  14.369   8.253
 7304POPC   C3A31133  12.026  14.394   7.953
 7304POPC   C4A31134  12.124  14.367   7.653
 7304POPC   C1B31135  11.893  14.219   8.553
 7304POPC   C2B31136  11.838  14.225   8.253
 7304POPC   C3B31137  11.903  14.290   7.953
 7304POPC   C4B31138  11.839  14.235   7.653
 7305POPC   NC331139   9.749   8.992   9.453
 7305POPC   PO431140   9.790   8.930   9.153
 7305POPC   GL131141   9.714   8.984   8.853
 7305POPC   GL231142   9.751   8.883   8.853
 7305POPC   C1A31143   9.798   8.949   8.553
 7305POPC   D2A31144   9.730   8.926   8.253
 7305POPC   C3A31145   9.733   9.021   7.953
 7305POPC   C4A31146   9.757   8.927   7.653
 7305POPC   C1B31147   9.871   8.735   8.553
 7305POPC   C2B31148   9.785   8.771   8.253
 7305POPC   C3B31149   9.863   8.785   7.953
 7305POPC   C4B31150   9.821   8.713   7.653
 7306POPC   NC331151   5.116  37.705   9.453
 7306POPC   PO431152   5.105  37.714   9.153
 7306POPC   GL131153   5.101  37.713   8.853
 7306POPC   GL231154   5.242  37.679   8.853
 7306POPC   C1A31155   5.052  37.687   8.553
 7306POPC   D2A31156   5.048  37.683   8.253
 7306POPC   C3A31157   5.131  37.723   7.953
 7306POPC   C4A31158   5.104  37.690   7.653
 7306POPC   C1B31159   5.315  37.778   8.553
 7306POPC   C2B31160   5.351  37.721   8.253
 7306POPC   C3B31161   5.313  37.778   7.953
 7306POPC   C4B31162   5.343  37.812   7.653
 7307POPC   NC331163  10.542  41.584   9.453
 7307POPC   PO431164  10.558  41.565   9.153
 7307POPC   GL131165  10.521  41.577   8.853
 7307POPC   GL231166  10.445  41.535   8.853
 7307POPC   C1A31167  10.532  41.595   8.553
 7307POPC   D2A31168  10.481  41.596   8.253
 7307POPC   C3A31169  10.545  41.582   7.953
 7307POPC   C4A31170  10.532  41.562   7.653
 7307POPC   C1B31171  10.322  41.511   8.553
 7307POPC   C2B31172  10.319  41.466   8.253
 7307POPC   C3B31173  10.287  41.559   7.953
 7307POPC   C4B31174  10.245  41.466   7.653
 7308POPC   NC331175  36.098  39.244   9.453
 7308POPC   PO431176  36.158  39.215   9.153
 7308POPC   GL131177  36.160  39.228   8.853
 7308POPC   GL231178  36.158  39.365   8.853
 7308POPC   C1A31179  36.109  39.185   8.553
 7308POPC   D2A31180  36.117  39.277   8.253
 7308POPC   C3A31181  36.162  39.209   7.953
 7308POPC   C4A31182  36.176  39.195   7.653
 7308POPC   C1B31183  36.280  39.469   8.553
 7308POPC   C2B31184  36.263  39.470   8.253
 7308POPC   C3B31185  36.251  39.481   7.953
 7308POPC   C4B31186  36.313  39.475   7.653
 7309POPC   NC331187  17.464  25.270   9.453
 7309POPC   PO431188  17.465  25.315   9.153
 7309POPC   GL131189  17.522  25.263   8.853
 7309POPC   GL231190  17.585  25.365   8.853
 7309POPC   C1A31191  17.533  25.291   8.553
 7309POPC   D2A31192  17.492  25.292   8.253
 7309POPC   C3A31193  17.509  25.223   7.953
 7309POPC   C4A31194  17.525  25.290   7.653
 7309POPC   C1B31195  17.611  25.554   8.553
 7309POPC   C2B31196  17.559  25.552   8.253
 7309POPC   C3B31197  17.567  25.457   7.953
 7309POPC   C4B31198  17.550  25.505   7.653
 7310POPC   NC331199   5.824  29.910   9.453
 7310POPC   PO431200   5.865  29.968   9.153
 7310POPC   GL131201   5.845  29.965   8.853
 7310POPC   GL231202   5.777  29.825   8.853
 7310POPC   C1A31203   5.851  29.910   8.553
 7310POPC   D2A31204   5.829  29.911   8.253
 7310POPC   C3A31205   5.850  29.938   7.953
 7310POPC   C4A31206   5.908  29.902   7.653
 7310POPC   C1B31207   5.689  29.717   8.553
 7310POPC   C2B31208   5.725  29.786   8.253
 7310POPC   C3B31209   5.690  29.763   7.953
 7310POPC   C4B31210   5.667  29.792   7.653
 7311POPC   NC331211  32.245  10.512   9.453
 7311POPC   PO431212  32.236  10.480   9.153
 7311POPC   GL131213  32.281  10.534   8.853
 7311POPC   GL231214  32.197  10.467   8.853
 7311POPC   C1A31215  32.213  10.560   8.553
 7311POPC   D2A31216  32.255  10.553   8.253
 7311POPC   C3A31217  32.225  10.560   7.953
 7311POPC   C4A31218  32.232  10.477   7.653
 7311POPC   C1B31219  32.083  10.333   8.553
 7311POPC   C2B31220  32.080  10.415   8.253
 7311POPC   C3B31221  32.010  10.398   7.953
 7311POPC   C4B31222  32.029  10.396   7.653
 7312POPC   NC331223  19.817  33.765   9.453
 7312POPC   PO431224  19.836  33.799   9.153
 7312POPC   GL131225  19.838  33.761   8.853
 7312POPC   GL231226  19.752  33.824   8.853
 7312POPC   C1A31227  19.861  33.816   8.553
 7312POPC   D2A31228  19.800  33.848   8.253
 7312POPC   C3A31229  19.881  33.791   7.953
 7312POPC   C4A31230  19.834  33.790   7.653
 7312POPC   C1B31231  19.565  33.828   8.553
 7312POPC   C2B31232  19.624  33.803   8.253
 7312POPC   C3B31233  19.572  33.801   7.953
 7312POPC   C4B31234  19.573  33.790   7.653
 7313POPC   NC331235  26.862  35.352   9.453
 7313POPC   PO431236  26.795  35.344   9.153
 7313POPC   GL131237  26.852  35.326   8.853
 7313POPC   GL231238  26.942  35.357   8.853
 7313POPC   C1A31239  26.851  35.310   8.553
 7313POPC   D2A31240  26.835  35.390   8.253
 7313POPC   C3A31241  26.827  35.379   7.953
 7313POPC   C4A31242  26.798  35.384   7.653
 7313POPC   C1B31243  27.107  35.437   8.553
 7313POPC   C2B31244  27.031  35.368   8.253
 7313POPC   C3B31245  27.056  35.426   7.953
 7313POPC   C4B31246  27.101  35.406   7.653
 7314POPC   NC331247  15.225  10.475   9.453
 7314POPC   PO431248  15.207  10.553   9.153
 7314POPC   GL131249  15.213  10.532   8.853
 7314POPC   GL231250  15.045  10.487   8.853
 7314POPC   C1A31251  15.140  10.504   8.553
 7314POPC   D2A31252  15.206  10.498   8.253
 7314POPC   C3A31253  15.177  10.525   7.953
 7314POPC   C4A31254  15.208  10.496   7.653
 7314POPC   C1B31255  14.941  10.441   8.553
 7314POPC   C2B31256  14.995  10.378   8.253
 7314POPC   C3B31257  14.966  10.361   7.953
 7314POPC   C4B31258  14.986  10.399   7.653
 7315POPC   NC331259  19.075  18.284   9.453
 7315POPC   PO431260  19.042  18.309   9.153
 7315POPC   GL131261  19.045  18.308   8.853
 7315POPC   GL231262  19.115  18.340   8.853
 7315POPC   C1A31263  19.108  18.304   8.553
 7315POPC   D2A31264  19.107  18.330   8.253
 7315POPC   C3A31265  19.025  18.316   7.953
 7315POPC   C4A31266  19.052  18.304   7.653
 7315POPC   C1B31267  19.163  18.516   8.553
 7315POPC   C2B31268  19.188  18.478   8.253
 7315POPC   C3B31269  19.217  18.504   7.953
 7315POPC   C4B31270  19.177  18.530   7.653
 7316POPC   NC331271  18.237  18.285   9.453
 7316POPC   PO431272  18.265  18.308   9.153
 7316POPC   GL131273  18.233  18.320   8.853
 7316POPC   GL231274  18.193  18.184   8.853
 7316POPC   C1A31275  18.298  18.281   8.553
 7316POPC   D2A31276  18.250  18.295   8.253
 7316POPC   C3A31277  18.259  18.234   7.953
 7316POPC   C4A31278  18.325  18.259   7.653
 7316POPC   C1B31279  18.088  18.110   8.553
 7316POPC   C2B31280  18.129  18.037   8.253
 7316POPC   C3B31281  18.125  18.056   7.953
 7316POPC   C4B31282  18.163  18.060   7.653
 7317POPC   NC331283  31.485  12.069   9.453
 7317POPC   PO431284  31.465  12.092   9.153
 7317POPC   GL131285  31.501  12.054   8.853
 7317POPC   GL231286  31.379  12.098   8.853
 7317POPC   C1A31287  31.484  12.115   8.553
 7317POPC   D2A31288  31.457  12.096   8.253
 7317POPC   C3A31289  31.440  12.123   7.953
 7317POPC   C4A31290  31.491  12.088   7.653
 7317POPC   C1B31291  31.253  12.095   8.553
 7317POPC   C2B31292  31.215  12.083   8.253
 7317POPC   C3B31293  31.263  12.074   7.953
 7317POPC   C4B31294  31.211  12.054   7.653
 7318POPC   NC331295  29.172  39.985   9.453
 7318POPC   PO431296  29.150  39.994   9.153
 7318POPC   GL131297  29.095  40.035   8.853
 7318POPC   GL231298  29.034  40.025   8.853
 7318POPC   C1A31299  29.115  40.036   8.553
 7318POPC   D2A31300  29.162  40.045   8.253
 7318POPC   C3A31301  29.149  39.985   7.953
 7318POPC   C4A31302  29.142  40.021   7.653
 7318POPC   C1B31303  28.937  39.990   8.553
 7318POPC   C2B31304  28.903  39.944   8.253
 7318POPC   C3B31305  28.946  39.995   7.953
 7318POPC   C4B31306  28.903  39.955   7.653
 7319POPC   NC331307  15.906  11.334   9.453
 7319POPC   PO431308  15.979  11.307   9.153
 7319POPC   GL131309  15.991  11.314   8.853
 7319POPC   GL231310  15.934  11.452   8.853
 7319POPC   C1A31311  15.980  11.262   8.553
 7319POPC   D2A31312  15.919  11.250   8.253
 7319POPC   C3A31313  16.005  11.317   7.953
 7319POPC   C4A31314  15.939  11.304   7.653
 7319POPC   C1B31315  15.952  11.596   8.553
 7319POPC   C2B31316  15.897  11.578   8.253
 7319POPC   C3B31317  15.911  11.502   7.953
 7319POPC   C4B31318  15.935  11.577   7.653
 7320POPC   NC331319   6.654  12.064   9.453
 7320POPC   PO431320   6.684  12.089   9.153
 7320POPC   GL131321   6.663  12.121   8.853
 7320POPC   GL231322   6.693  12.242   8.853
 7320POPC   C1A31323   6.667  12.118   8.553
 7320POPC   D2A31324   6.688  12.090   8.253
 7320POPC   C3A31325   6.633  12.077   7.953
 7320POPC   C4A31326   6.681  12.103   7.653
 7320POPC   C1B31327   6.754  12.281   8.553
 7320POPC   C2B31328   6.688  12.290   8.253
 7320POPC   C3B31329   6.751  12.273   7.953
 7320POPC   C4B31330   6.709  12.349   7.653
 7321POPC   NC331331  26.794  14.375   9.453
 7321POPC   PO431332  26.808  14.381   9.153
 7321POPC   GL131333  26.851  14.417   8.853
 7321POPC   GL231334  26.682  14.396   8.853
 7321POPC   C1A31335  26.806  14.380   8.553
 7321POPC   D2A31336  26.822  14.445   8.253
 7321POPC   C3A31337  26.820  14.441   7.953
 7321POPC   C4A31338  26.853  14.400   7.653
 7321POPC   C1B31339  26.590  14.328   8.553
 7321POPC   C2B31340  26.528  14.331   8.253
 7321POPC   C3B31341  26.557  14.372   7.953
 7321POPC   C4B31342  26.593  14.365   7.653
 7322POPC   NC331343   8.217  42.318   9.453
 7322POPC   PO431344   8.185  42.312   9.153
 7322POPC   GL131345   8.199  42.360   8.853
 7322POPC   GL231346   8.284  42.435   8.853
 7322POPC   C1A31347   8.199  42.316   8.553
 7322POPC   D2A31348   8.198  42.369   8.253
 7322POPC   C3A31349   8.226  42.354   7.953
 7322POPC   C4A31350   8.216  42.357   7.653
 7322POPC   C1B31351   8.350  42.520   8.553
 7322POPC   C2B31352   8.302  42.513   8.253
 7322POPC   C3B31353   8.312  42.559   7.953
 7322POPC   C4B31354   8.311  42.548   7.653
 7323POPC   NC331355  32.224  33.030   9.453
 7323POPC   PO431356  32.258  33.025   9.153
 7323POPC   GL131357  32.218  33.010   8.853
 7323POPC   GL231358  32.176  33.075   8.853
 7323POPC   C1A31359  32.288  33.016   8.553
 7323POPC   D2A31360  32.223  33.047   8.253
 7323POPC   C3A31361  32.245  33.020   7.953
 7323POPC   C4A31362  32.201  33.009   7.653
 7323POPC   C1B31363  32.065  33.142   8.553
 7323POPC   C2B31364  32.028  33.170   8.253
 7323POPC   C3B31365  32.035  33.204   7.953
 7323POPC   C4B31366  32.043  33.171   7.653
 7324POPC   NC331367   6.668   7.402   9.453
 7324POPC   PO431368   6.670   7.385   9.153
 7324POPC   GL131369   6.610   7.470   8.853
 7324POPC   GL231370   6.506   7.398   8.853
 7324POPC   C1A31371   6.622   7.412   8.553
 7324POPC   D2A31372   6.625   7.381   8.253
 7324POPC   C3A31373   6.677   7.379   7.953
 7324POPC   C4A31374   6.622   7.395   7.653
 7324POPC   C1B31375   6.427   7.360   8.553
 7324POPC   C2B31376   6.376   7.382   8.253
 7324POPC   C3B31377   6.434   7.406   7.953
 7324POPC   C4B31378   6.433   7.360   7.653
 7325POPC   NC331379   7.442   9.772   9.453
 7325POPC   PO431380   7.450   9.747   9.153
 7325POPC   GL131381   7.397   9.777   8.853
 7325POPC   GL231382   7.566   9.829   8.853
 7325POPC   C1A31383   7.470   9.742   8.553
 7325POPC   D2A31384   7.394   9.733   8.253
 7325POPC   C3A31385   7.406   9.706   7.953
 7325POPC   C4A31386   7.381   9.727   7.653
 7325POPC   C1B31387   7.610   9.867   8.553
 7325POPC   C2B31388   7.671   9.883   8.253
 7325POPC   C3B31389   7.600   9.899   7.953
 7325POPC   C4B31390   7.621   9.932   7.653
 7326POPC   NC331391  22.917  39.189   9.453
 7326POPC   PO431392  22.923  39.222   9.153
 7326POPC   GL131393  22.899  39.234   8.853
 7326POPC   GL231394  22.954  39.322   8.853
 7326POPC   C1A31395  22.915  39.274   8.553
 7326POPC   D2A31396  22.974  39.225   8.253
 7326POPC   C3A31397  22.964  39.235   7.953
 7326POPC   C4A31398  22.925  39.230   7.653
 7326POPC   C1B31399  22.942  39.440   8.553
 7326POPC   C2B31400  22.932  39.467   8.253
 7326POPC   C3B31401  22.986  39.465   7.953
 7326POPC   C4B31402  22.978  39.459   7.653
 7327POPC   NC331403  29.111   5.877   9.453
 7327POPC   PO431404  29.110   5.859   9.153
 7327POPC   GL131405  29.191   5.825   8.853
 7327POPC   GL231406  29.247   5.954   8.853
 7327POPC   C1A31407  29.148   5.882   8.553
 7327POPC   D2A31408  29.126   5.823   8.253
 7327POPC   C3A31409  29.181   5.828   7.953
 7327POPC   C4A31410  29.170   5.898   7.653
 7327POPC   C1B31411  29.367   5.974   8.553
 7327POPC   C2B31412  29.411   6.022   8.253
 7327POPC   C3B31413  29.365   6.025   7.953
 7327POPC   C4B31414  29.397   6.000   7.653
 7328POPC   NC331415   4.279  28.409   9.453
 7328POPC   PO431416   4.312  28.326   9.153
 7328POPC   GL131417   4.354  28.357   8.853
 7328POPC   GL231418   4.212  28.410   8.853
 7328POPC   C1A31419   4.317  28.395   8.553
 7328POPC   D2A31420   4.342  28.325   8.253
 7328POPC   C3A31421   4.302  28.407   7.953
 7328POPC   C4A31422   4.268  28.328   7.653
 7328POPC   C1B31423   4.118  28.496   8.553
 7328POPC   C2B31424   4.042  28.435   8.253
 7328POPC   C3B31425   4.038  28.438   7.953
 7328POPC   C4B31426   4.119  28.456   7.653
 7329POPC   NC331427   5.855  18.332   9.453
 7329POPC   PO431428   5.831  18.235   9.153
 7329POPC   GL131429   5.883  18.249   8.853
 7329POPC   GL231430   5.980  18.149   8.853
 7329POPC   C1A31431   5.876  18.320   8.553
 7329POPC   D2A31432   5.870  18.276   8.253
 7329POPC   C3A31433   5.859  18.325   7.953
 7329POPC   C4A31434   5.870  18.332   7.653
 7329POPC   C1B31435   6.012  18.051   8.553
 7329POPC   C2B31436   6.058  18.110   8.253
 7329POPC   C3B31437   6.047  18.054   7.953
 7329POPC   C4B31438   6.012  18.127   7.653
 7330POPC   NC331439   2.036  18.261   9.453
 7330POPC   PO431440   2.028  18.257   9.153
 7330POPC   GL131441   1.950  18.282   8.853
 7330POPC   GL231442   1.934  18.209   8.853
 7330POPC   C1A31443   2.036  18.287   8.553
 7330POPC   D2A31444   2.037  18.308   8.253
 7330POPC   C3A31445   1.969  18.242   7.953
 7330POPC   C4A31446   2.029  18.263   7.653
 7330POPC   C1B31447   1.908  18.017   8.553
 7330POPC   C2B31448   1.924  18.057   8.253
 7330POPC   C3B31449   1.921  18.071   7.953
 7330POPC   C4B31450   1.836  18.034   7.653
 7331POPC   NC331451   5.096  19.830   9.453
 7331POPC   PO431452   5.115  19.840   9.153
 7331POPC   GL131453   5.086  19.845   8.853
 7331POPC   GL231454   5.049  19.935   8.853
 7331POPC   C1A31455   5.132  19.849   8.553
 7331POPC   D2A31456   5.070  19.880   8.253
 7331POPC   C3A31457   5.123  19.806   7.953
 7331POPC   C4A31458   5.065  19.819   7.653
 7331POPC   C1B31459   4.876  19.989   8.553
 7331POPC   C2B31460   4.943  20.015   8.253
 7331POPC   C3B31461   4.895  20.046   7.953
 7331POPC   C4B31462   4.911  20.031   7.653
 7332POPC   NC331463  34.615  12.124   9.453
 7332POPC   PO431464  34.616  12.076   9.153
 7332POPC   GL131465  34.569  12.071   8.853
 7332POPC   GL231466  34.712  12.041   8.853
 7332POPC   C1A31467  34.560  12.103   8.553
 7332POPC   D2A31468  34.577  12.085   8.253
 7332POPC   C3A31469  34.549  12.113   7.953
 7332POPC   C4A31470  34.612  12.037   7.653
 7332POPC   C1B31471  34.832  12.053   8.553
 7332POPC   C2B31472  34.819  12.092   8.253
 7332POPC   C3B31473  34.862  12.069   7.953
 7332POPC   C4B31474  34.875  12.083   7.653
 7333POPC   NC331475  18.295   8.240   9.453
 7333POPC   PO431476  18.312   8.159   9.153
 7333POPC   GL131477  18.276   8.151   8.853
 7333POPC   GL231478  18.323   8.333   8.853
 7333POPC   C1A31479  18.257   8.195   8.553
 7333POPC   D2A31480  18.276   8.169   8.253
 7333POPC   C3A31481  18.331   8.171   7.953
 7333POPC   C4A31482  18.313   8.172   7.653
 7333POPC   C1B31483  18.348   8.395   8.553
 7333POPC   C2B31484  18.307   8.480   8.253
 7333POPC   C3B31485  18.278   8.423   7.953
 7333POPC   C4B31486  18.292   8.443   7.653
 7334POPC   NC331487  39.202   3.562   9.453
 7334POPC   PO431488  39.226   3.521   9.153
 7334POPC   GL131489  39.272   3.567   8.853
 7334POPC   GL231490  39.343   3.481   8.853
 7334POPC   C1A31491  39.202   3.565   8.553
 7334POPC   D2A31492  39.194   3.505   8.253
 7334POPC   C3A31493  39.272   3.566   7.953
 7334POPC   C4A31494  39.223   3.559   7.653
 7334POPC   C1B31495  39.498   3.454   8.553
 7334POPC   C2B31496  39.481   3.516   8.253
 7334POPC   C3B31497  39.516   3.465   7.953
 7334POPC   C4B31498  39.489   3.426   7.653
 7335POPC   NC331499  43.111  15.149   9.453
 7335POPC   PO431500  43.150  15.153   9.153
 7335POPC   GL131501  43.140  15.175   8.853
 7335POPC   GL231502  43.070  15.042   8.853
 7335POPC   C1A31503  43.114  15.164   8.553
 7335POPC   D2A31504  43.079  15.162   8.253
 7335POPC   C3A31505  43.070  15.170   7.953
 7335POPC   C4A31506  43.150  15.161   7.653
 7335POPC   C1B31507  43.150  14.938   8.553
 7335POPC   C2B31508  43.136  14.893   8.253
 7335POPC   C3B31509  43.064  14.942   7.953
 7335POPC   C4B31510  43.061  14.931   7.653
 7336POPC   NC331511  27.616   2.017   9.453
 7336POPC   PO431512  27.624   1.998   9.153
 7336POPC   GL131513  27.615   1.979   8.853
 7336POPC   GL231514  27.538   1.856   8.853
 7336POPC   C1A31515  27.571   1.946   8.553
 7336POPC   D2A31516  27.561   1.990   8.253
 7336POPC   C3A31517  27.569   1.971   7.953
 7336POPC   C4A31518  27.601   2.038   7.653
 7336POPC   C1B31519  27.392   1.833   8.553
 7336POPC   C2B31520  27.434   1.829   8.253
 7336POPC   C3B31521  27.400   1.833   7.953
 7336POPC   C4B31522  27.394   1.840   7.653
 7337POPC   NC331523  18.281  12.055   9.453
 7337POPC   PO431524  18.272  12.074   9.153
 7337POPC   GL131525  18.250  12.084   8.853
 7337POPC   GL231526  18.232  11.959   8.853
 7337POPC   C1A31527  18.321  12.057   8.553
 7337POPC   D2A31528  18.257  12.054   8.253
 7337POPC   C3A31529  18.270  12.056   7.953
 7337POPC   C4A31530  18.312  12.099   7.653
 7337POPC   C1B31531  18.212  11.845   8.553
 7337POPC   C2B31532  18.159  11.846   8.253
 7337POPC   C3B31533  18.219  11.863   7.953
 7337POPC   C4B31534  18.131  11.861   7.653
 7338POPC   NC331535   5.886  27.639   9.453
 7338POPC   PO431536   5.860  27.623   9.153
 7338POPC   GL131537   5.842  27.605   8.853
 7338POPC   GL231538   5.937  27.675   8.853
 7338POPC   C1A31539   5.836  27.597   8.553
 7338POPC   D2A31540   5.907  27.606   8.253
 7338POPC   C3A31541   5.845  27.642   7.953
 7338POPC   C4A31542   5.908  27.620   7.653
 7338POPC   C1B31543   6.057  27.813   8.553
 7338POPC   C2B31544   6.076  27.761   8.253
 7338POPC   C3B31545   6.000  27.799   7.953
 7338POPC   C4B31546   6.003  27.830   7.653
 7339POPC   NC331547  36.088  11.266   9.453
 7339POPC   PO431548  36.157  11.329   9.153
 7339POPC   GL131549  36.095  11.339   8.853
 7339POPC   GL231550  36.261  11.255   8.853
 7339POPC   C1A31551  36.121  11.301   8.553
 7339POPC   D2A31552  36.102  11.267   8.253
 7339POPC   C3A31553  36.096  11.287   7.953
 7339POPC   C4A31554  36.130  11.327   7.653
 7339POPC   C1B31555  36.294  11.135   8.553
 7339POPC   C2B31556  36.322  11.097   8.253
 7339POPC   C3B31557  36.308  11.120   7.953
 7339POPC   C4B31558  36.349  11.124   7.653
 7340POPC   NC331559  21.418   7.451   9.453
 7340POPC   PO431560  21.398   7.384   9.153
 7340POPC   GL131561  21.402   7.425   8.853
 7340POPC   GL231562  21.353   7.531   8.853
 7340POPC   C1A31563  21.435   7.454   8.553
 7340POPC   D2A31564  21.355   7.401   8.253
 7340POPC   C3A31565  21.352   7.376   7.953
 7340POPC   C4A31566  21.343   7.463   7.653
 7340POPC   C1B31567  21.277   7.697   8.553
 7340POPC   C2B31568  21.312   7.647   8.253
 7340POPC   C3B31569  21.302   7.647   7.953
 7340POPC   C4B31570  21.261   7.693   7.653
 7341POPC   NC331571  40.001  15.170   9.453
 7341POPC   PO431572  40.031  15.166   9.153
 7341POPC   GL131573  39.996  15.178   8.853
 7341POPC   GL231574  39.944  15.212   8.853
 7341POPC   C1A31575  40.001  15.171   8.553
 7341POPC   D2A31576  39.957  15.161   8.253
 7341POPC   C3A31577  39.987  15.136   7.953
 7341POPC   C4A31578  40.045  15.193   7.653
 7341POPC   C1B31579  39.749  15.245   8.553
 7341POPC   C2B31580  39.793  15.276   8.253
 7341POPC   C3B31581  39.767  15.275   7.953
 7341POPC   C4B31582  39.784  15.273   7.653
 7342POPC   NC331583  32.991  33.791   9.453
 7342POPC   PO431584  33.029  33.835   9.153
 7342POPC   GL131585  33.007  33.804   8.853
 7342POPC   GL231586  32.977  33.927   8.853
 7342POPC   C1A31587  32.976  33.810   8.553
 7342POPC   D2A31588  33.066  33.770   8.253
 7342POPC   C3A31589  33.035  33.800   7.953
 7342POPC   C4A31590  33.027  33.767   7.653
 7342POPC   C1B31591  32.932  33.964   8.553
 7342POPC   C2B31592  32.910  33.981   8.253
 7342POPC   C3B31593  32.844  33.990   7.953
 7342POPC   C4B31594  32.864  33.968   7.653
 7343POPC   NC331595  43.125   5.842   9.453
 7343POPC   PO431596  43.150   5.848   9.153
 7343POPC   GL131597  43.101   5.825   8.853
 7343POPC   GL231598  43.199   5.878   8.853
 7343POPC   C1A31599  43.127   5.869   8.553
 7343POPC   D2A31600  43.072   5.829   8.253
 7343POPC   C3A31601  43.129   5.918   7.953
 7343POPC   C4A31602  43.121   5.885   7.653
 7343POPC   C1B31603  43.333   5.769   8.553
 7343POPC   C2B31604  43.316   5.757   8.253
 7343POPC   C3B31605  43.329   5.751   7.953
 7343POPC   C4B31606  43.302   5.819   7.653
 7344POPC   NC331607  34.527  35.322   9.453
 7344POPC   PO431608  34.613  35.385   9.153
 7344POPC   GL131609  34.624  35.355   8.853
 7344POPC   GL231610  34.589  35.190   8.853
 7344POPC   C1A31611  34.562  35.398   8.553
 7344POPC   D2A31612  34.592  35.328   8.253
 7344POPC   C3A31613  34.565  35.308   7.953
 7344POPC   C4A31614  34.530  35.328   7.653
 7344POPC   C1B31615  34.537  35.110   8.553
 7344POPC   C2B31616  34.534  35.103   8.253
 7344POPC   C3B31617  34.528  35.101   7.953
 7344POPC   C4B31618  34.496  35.153   7.653
 7345POPC   NC331619  40.011  22.211   9.453
 7345POPC   PO431620  39.958  22.128   9.153
 7345POPC   GL131621  40.000  22.206   8.853
 7345POPC   GL231622  40.136  22.186   8.853
 7345POPC   C1A31623  40.005  22.136   8.553
 7345POPC   D2A31624  40.018  22.168   8.253
 7345POPC   C3A31625  40.008  22.209   7.953
 7345POPC   C4A31626  39.993  22.133   7.653
 7345POPC   C1B31627  40.250  22.208   8.553
 7345POPC   C2B31628  40.269  22.298   8.253
 7345POPC   C3B31629  40.257  22.298   7.953
 7345POPC   C4B31630  40.248  22.220   7.653
 7346POPC   NC331631  26.769   2.037   9.453
 7346POPC   PO431632  26.787   2.012   9.153
 7346POPC   GL131633  26.776   1.995   8.853
 7346POPC   GL231634  26.872   2.113   8.853
 7346POPC   C1A31635  26.770   1.957   8.553
 7346POPC   D2A31636  26.788   1.979   8.253
 7346POPC   C3A31637  26.831   1.970   7.953
 7346POPC   C4A31638  26.813   2.035   7.653
 7346POPC   C1B31639  26.990   2.212   8.553
 7346POPC   C2B31640  26.927   2.171   8.253
 7346POPC   C3B31641  26.951   2.214   7.953
 7346POPC   C4B31642  26.948   2.153   7.653
 7347POPC   NC331643  26.041  16.733   9.453
 7347POPC   PO431644  26.077  16.728   9.153
 7347POPC   GL131645  26.063  16.698   8.853
 7347POPC   GL231646  25.911  16.824   8.853
 7347POPC   C1A31647  26.047  16.713   8.553
 7347POPC   D2A31648  26.074  16.736   8.253
 7347POPC   C3A31649  26.010  16.760   7.953
 7347POPC   C4A31650  26.061  16.754   7.653
 7347POPC   C1B31651  25.836  16.824   8.553
 7347POPC   C2B31652  25.835  16.882   8.253
 7347POPC   C3B31653  25.808  16.835   7.953
 7347POPC   C4B31654  25.856  16.896   7.653
 7348POPC   NC331655  43.924  15.979   9.453
 7348POPC   PO431656  43.893  16.004   9.153
 7348POPC   GL131657  43.915  15.963   8.853
 7348POPC   GL231658  44.023  15.846   8.853
 7348POPC   C1A31659  43.909  15.926   8.553
 7348POPC   D2A31660  43.875  16.000   8.253
 7348POPC   C3A31661  43.882  15.983   7.953
 7348POPC   C4A31662  43.898  15.918   7.653
 7348POPC   C1B31663  44.134  15.837   8.553
 7348POPC   C2B31664  44.125  15.869   8.253
 7348POPC   C3B31665  44.087  15.814   7.953
 7348POPC   C4B31666  44.056  15.867   7.653
 7349POPC   NC331667  44.663  36.896   9.453
 7349POPC   PO431668  44.624  36.926   9.153
 7349POPC   GL131669  44.648  36.918   8.853
 7349POPC   GL231670  44.530  36.938   8.853
 7349POPC   C1A31671  44.694  36.877   8.553
 7349POPC   D2A31672  44.659  36.885   8.253
 7349POPC   C3A31673  44.695  36.912   7.953
 7349POPC   C4A31674  44.651  36.869   7.653
 7349POPC   C1B31675  44.400  36.936   8.553
 7349POPC   C2B31676  44.380  37.003   8.253
 7349POPC   C3B31677  44.431  36.986   7.953
 7349POPC   C4B31678  44.393  37.000   7.653
 7350POPC   NC331679   3.498  25.291   9.453
 7350POPC   PO431680   3.523  25.225   9.153
 7350POPC   GL131681   3.530  25.240   8.853
 7350POPC   GL231682   3.461  25.326   8.853
 7350POPC   C1A31683   3.532  25.247   8.553
 7350POPC   D2A31684   3.546  25.261   8.253
 7350POPC   C3A31685   3.518  25.227   7.953
 7350POPC   C4A31686   3.563  25.218   7.653
 7350POPC   C1B31687   3.313  25.334   8.553
 7350POPC   C2B31688   3.282  25.391   8.253
 7350POPC   C3B31689   3.288  25.366   7.953
 7350POPC   C4B31690   3.301  25.403   7.653
 7351POPC   NC331691  29.154  19.843   9.453
 7351POPC   PO431692  29.134  19.835   9.153
 7351POPC   GL131693  29.127  19.811   8.853
 7351POPC   GL231694  29.067  19.928   8.853
 7351POPC   C1A31695  29.134  19.798   8.553
 7351POPC   D2A31696  29.100  19.825   8.253
 7351POPC   C3A31697  29.165  19.871   7.953
 7351POPC   C4A31698  29.165  19.799   7.653
 7351POPC   C1B31699  29.106  20.094   8.553
 7351POPC   C2B31700  29.022  20.097   8.253
 7351POPC   C3B31701  29.097  20.042   7.953
 7351POPC   C4B31702  29.030  20.022   7.653
 7352POPC   NC331703   5.868  12.867   9.453
 7352POPC   PO431704   5.844  12.834   9.153
 7352POPC   GL131705   5.843  12.863   8.853
 7352POPC   GL231706   5.760  12.910   8.853
 7352POPC   C1A31707   5.846  12.849   8.553
 7352POPC   D2A31708   5.863  12.894   8.253
 7352POPC   C3A31709   5.823  12.832   7.953
 7352POPC   C4A31710   5.868  12.900   7.653
 7352POPC   C1B31711   5.730  13.040   8.553
 7352POPC   C2B31712   5.741  13.099   8.253
 7352POPC   C3B31713   5.699  13.105   7.953
 7352POPC   C4B31714   5.712  13.024   7.653
 7353POPC   NC331715  36.140   0.484   9.453
 7353POPC   PO431716  36.126   0.418   9.153
 7353POPC   GL131717  36.153   0.395   8.853
 7353POPC   GL231718  36.055   0.381   8.853
 7353POPC   C1A31719  36.155   0.414   8.553
 7353POPC   D2A31720  36.134   0.435   8.253
 7353POPC   C3A31721  36.116   0.437   7.953
 7353POPC   C4A31722  36.139   0.392   7.653
 7353POPC   C1B31723  36.015   0.263   8.553
 7353POPC   C2B31724  35.986   0.270   8.253
 7353POPC   C3B31725  36.008   0.249   7.953
 7353POPC   C4B31726  36.028   0.222   7.653
 7354POPC   NC331727  26.780  33.824   9.453
 7354POPC   PO431728  26.793  33.792   9.153
 7354POPC   GL131729  26.850  33.755   8.853
 7354POPC   GL231730  26.840  33.908   8.853
 7354POPC   C1A31731  26.800  33.816   8.553
 7354POPC   D2A31732  26.802  33.791   8.253
 7354POPC   C3A31733  26.827  33.811   7.953
 7354POPC   C4A31734  26.793  33.825   7.653
 7354POPC   C1B31735  26.951  33.999   8.553
 7354POPC   C2B31736  26.907  33.990   8.253
 7354POPC   C3B31737  26.966  34.035   7.953
 7354POPC   C4B31738  26.947  33.999   7.653
 7355POPC   NC331739  11.323  27.637   9.453
 7355POPC   PO431740  11.323  27.574   9.153
 7355POPC   GL131741  11.314  27.573   8.853
 7355POPC   GL231742  11.130  27.580   8.853
 7355POPC   C1A31743  11.287  27.601   8.553
 7355POPC   D2A31744  11.321  27.640   8.253
 7355POPC   C3A31745  11.289  27.630   7.953
 7355POPC   C4A31746  11.257  27.612   7.653
 7355POPC   C1B31747  11.008  27.646   8.553
 7355POPC   C2B31748  11.009  27.653   8.253
 7355POPC   C3B31749  11.087  27.623   7.953
 7355POPC   C4B31750  11.076  27.642   7.653
 7356POPC   NC331751  10.494   9.012   9.453
 7356POPC   PO431752  10.524   8.933   9.153
 7356POPC   GL131753  10.497   8.941   8.853
 7356POPC   GL231754  10.535   8.824   8.853
 7356POPC   C1A31755  10.526   8.945   8.553
 7356POPC   D2A31756  10.549   8.944   8.253
 7356POPC   C3A31757  10.533   8.977   7.953
 7356POPC   C4A31758  10.522   9.022   7.653
 7356POPC   C1B31759  10.480   8.718   8.553
 7356POPC   C2B31760  10.416   8.723   8.253
 7356POPC   C3B31761  10.500   8.695   7.953
 7356POPC   C4B31762  10.486   8.776   7.653
 7357POPC   NC331763  31.453  17.489   9.453
 7357POPC   PO431764  31.506  17.499   9.153
 7357POPC   GL131765  31.486  17.517   8.853
 7357POPC   GL231766  31.313  17.426   8.853
 7357POPC   C1A31767  31.473  17.498   8.553
 7357POPC   D2A31768  31.518  17.525   8.253
 7357POPC   C3A31769  31.441  17.536   7.953
 7357POPC   C4A31770  31.480  17.468   7.653
 7357POPC   C1B31771  31.267  17.400   8.553
 7357POPC   C2B31772  31.248  17.403   8.253
 7357POPC   C3B31773  31.243  17.374   7.953
 7357POPC   C4B31774  31.215  17.423   7.653
 7358POPC   NC331775   5.905  37.724   9.453
 7358POPC   PO431776   5.918  37.678   9.153
 7358POPC   GL131777   5.841  37.726   8.853
 7358POPC   GL231778   5.822  37.786   8.853
 7358POPC   C1A31779   5.894  37.660   8.553
 7358POPC   D2A31780   5.894  37.639   8.253
 7358POPC   C3A31781   5.840  37.689   7.953
 7358POPC   C4A31782   5.836  37.684   7.653
 7358POPC   C1B31783   5.794  37.935   8.553
 7358POPC   C2B31784   5.848  37.922   8.253
 7358POPC   C3B31785   5.825  37.927   7.953
 7358POPC   C4B31786   5.778  37.943   7.653
 7359POPC   NC331787   3.576  15.171   9.453
 7359POPC   PO431788   3.553  15.203   9.153
 7359POPC   GL131789   3.553  15.210   8.853
 7359POPC   GL231790   3.559  15.287   8.853
 7359POPC   C1A31791   3.529  15.163   8.553
 7359POPC   D2A31792   3.590  15.183   8.253
 7359POPC   C3A31793   3.569  15.192   7.953
 7359POPC   C4A31794   3.502  15.169   7.653
 7359POPC   C1B31795   3.470  15.391   8.553
 7359POPC   C2B31796   3.440  15.447   8.253
 7359POPC   C3B31797   3.497  15.431   7.953
 7359POPC   C4B31798   3.528  15.378   7.653
 7360POPC   NC331799  16.753  30.721   9.453
 7360POPC   PO431800  16.692  30.684   9.153
 7360POPC   GL131801  16.755  30.671   8.853
 7360POPC   GL231802  16.700  30.527   8.853
 7360POPC   C1A31803  16.740  30.675   8.553
 7360POPC   D2A31804  16.774  30.710   8.253
 7360POPC   C3A31805  16.731  30.703   7.953
 7360POPC   C4A31806  16.756  30.709   7.653
 7360POPC   C1B31807  16.705  30.437   8.553
 7360POPC   C2B31808  16.727  30.402   8.253
 7360POPC   C3B31809  16.703  30.420   7.953
 7360POPC   C4B31810  16.690  30.431   7.653
 7361POPC   NC331811  19.102  14.381   9.453
 7361POPC   PO431812  19.042  14.452   9.153
 7361POPC   GL131813  19.104  14.441   8.853
 7361POPC   GL231814  18.922  14.281   8.853
 7361POPC   C1A31815  19.087  14.428   8.553
 7361POPC   D2A31816  19.092  14.380   8.253
 7361POPC   C3A31817  19.016  14.433   7.953
 7361POPC   C4A31818  19.011  14.363   7.653
 7361POPC   C1B31819  18.892  14.208   8.553
 7361POPC   C2B31820  18.914  14.223   8.253
 7361POPC   C3B31821  18.822  14.263   7.953
 7361POPC   C4B31822  18.899  14.217   7.653
 7362POPC   NC331823  37.639  42.308   9.453
 7362POPC   PO431824  37.642  42.371   9.153
 7362POPC   GL131825  37.662  42.336   8.853
 7362POPC   GL231826  37.758  42.283   8.853
 7362POPC   C1A31827  37.658  42.350   8.553
 7362POPC   D2A31828  37.723  42.336   8.253
 7362POPC   C3A31829  37.673  42.308   7.953
 7362POPC   C4A31830  37.716  42.354   7.653
 7362POPC   C1B31831  37.912  42.282   8.553
 7362POPC   C2B31832  37.900  42.311   8.253
 7362POPC   C3B31833  37.964  42.327   7.953
 7362POPC   C4B31834  37.939  42.271   7.653
 7363POPC   NC331835  28.342  28.380   9.453
 7363POPC   PO431836  28.389  28.334   9.153
 7363POPC   GL131837  28.363  28.376   8.853
 7363POPC   GL231838  28.523  28.430   8.853
 7363POPC   C1A31839  28.379  28.366   8.553
 7363POPC   D2A31840  28.346  28.416   8.253
 7363POPC   C3A31841  28.342  28.327   7.953
 7363POPC   C4A31842  28.403  28.321   7.653
 7363POPC   C1B31843  28.631  28.440   8.553
 7363POPC   C2B31844  28.586  28.402   8.253
 7363POPC   C3B31845  28.608  28.401   7.953
 7363POPC   C4B31846  28.618  28.371   7.653
 7364POPC   NC331847  42.289  28.343   9.453
 7364POPC   PO431848  42.377  28.357   9.153
 7364POPC   GL131849  42.316  28.376   8.853
 7364POPC   GL231850  42.489  28.468   8.853
 7364POPC   C1A31851  42.310  28.323   8.553
 7364POPC   D2A31852  42.319  28.382   8.253
 7364POPC   C3A31853  42.293  28.339   7.953
 7364POPC   C4A31854  42.325  28.355   7.653
 7364POPC   C1B31855  42.555  28.505   8.553
 7364POPC   C2B31856  42.593  28.500   8.253
 7364POPC   C3B31857  42.577  28.487   7.953
 7364POPC   C4B31858  42.524  28.536   7.653
 7365POPC   NC331859   4.307   3.497   9.453
 7365POPC   PO431860   4.346   3.533   9.153
 7365POPC   GL131861   4.308   3.552   8.853
 7365POPC   GL231862   4.416   3.593   8.853
 7365POPC   C1A31863   4.333   3.554   8.553
 7365POPC   D2A31864   4.322   3.576   8.253
 7365POPC   C3A31865   4.316   3.494   7.953
 7365POPC   C4A31866   4.274   3.542   7.653
 7365POPC   C1B31867   4.573   3.593   8.553
 7365POPC   C2B31868   4.582   3.566   8.253
 7365POPC   C3B31869   4.591   3.654   7.953
 7365POPC   C4B31870   4.536   3.663   7.653
 7366POPC   NC331871  16.698   5.060   9.453
 7366POPC   PO431872  16.719   5.131   9.153
 7366POPC   GL131873  16.776   5.132   8.853
 7366POPC   GL231874  16.590   5.075   8.853
 7366POPC   C1A31875  16.720   5.131   8.553
 7366POPC   D2A31876  16.744   5.101   8.253
 7366POPC   C3A31877  16.779   5.127   7.953
 7366POPC   C4A31878  16.739   5.104   7.653
 7366POPC   C1B31879  16.513   5.062   8.553
 7366POPC   C2B31880  16.541   5.044   8.253
 7366POPC   C3B31881  16.533   5.050   7.953
 7366POPC   C4B31882  16.516   5.035   7.653
 7367POPC   NC331883  39.994  43.143   9.453
 7367POPC   PO431884  39.981  43.068   9.153
 7367POPC   GL131885  39.977  43.147   8.853
 7367POPC   GL231886  40.106  43.226   8.853
 7367POPC   C1A31887  39.990  43.101   8.553
 7367POPC   D2A31888  40.013  43.068   8.253
 7367POPC   C3A31889  40.051  43.092   7.953
 7367POPC   C4A31890  39.976  43.112   7.653
 7367POPC   C1B31891  40.094  43.367   8.553
 7367POPC   C2B31892  40.075  43.305   8.253
 7367POPC   C3B31893  40.147  43.369   7.953
 7367POPC   C4B31894  40.081  43.375   7.653
 7368POPC   NC331895  29.882  29.170   9.453
 7368POPC   PO431896  29.963  29.104   9.153
 7368POPC   GL131897  29.970  29.102   8.853
 7368POPC   GL231898  29.806  29.032   8.853
 7368POPC   C1A31899  29.874  29.160   8.553
 7368POPC   D2A31900  29.889  29.170   8.253
 7368POPC   C3A31901  29.930  29.168   7.953
 7368POPC   C4A31902  29.880  29.161   7.653
 7368POPC   C1B31903  29.703  28.998   8.553
 7368POPC   C2B31904  29.724  29.013   8.253
 7368POPC   C3B31905  29.671  29.036   7.953
 7368POPC   C4B31906  29.680  29.048   7.653
 7369POPC   NC331907  36.912  23.676   9.453
 7369POPC   PO431908  36.903  23.675   9.153
 7369POPC   GL131909  36.878  23.699   8.853
 7369POPC   GL231910  36.913  23.601   8.853
 7369POPC   C1A31911  36.865  23.739   8.553
 7369POPC   D2A31912  36.915  23.702   8.253
 7369POPC   C3A31913  36.918  23.692   7.953
 7369POPC   C4A31914  36.912  23.726   7.653
 7369POPC   C1B31915  36.931  23.476   8.553
 7369POPC   C2B31916  36.937  23.486   8.253
 7369POPC   C3B31917  36.911  23.420   7.953
 7369POPC   C4B31918  36.957  23.444   7.653
 7370POPC   NC331919  32.213  35.330   9.453
 7370POPC   PO431920  32.235  35.331   9.153
 7370POPC   GL131921  32.215  35.327   8.853
 7370POPC   GL231922  32.132  35.444   8.853
 7370POPC   C1A31923  32.298  35.362   8.553
 7370POPC   D2A31924  32.228  35.310   8.253
 7370POPC   C3A31925  32.290  35.367   7.953
 7370POPC   C4A31926  32.261  35.379   7.653
 7370POPC   C1B31927  32.027  35.509   8.553
 7370POPC   C2B31928  32.050  35.481   8.253
 7370POPC   C3B31929  32.074  35.524   7.953
 7370POPC   C4B31930  32.045  35.501   7.653
 7371POPC   NC331931  40.812  13.630   9.453
 7371POPC   PO431932  40.816  13.625   9.153
 7371POPC   GL131933  40.761  13.591   8.853
 7371POPC   GL231934  40.631  13.656   8.853
 7371POPC   C1A31935  40.815  13.581   8.553
 7371POPC   D2A31936  40.815  13.586   8.253
 7371POPC   C3A31937  40.810  13.631   7.953
 7371POPC   C4A31938  40.797  13.619   7.653
 7371POPC   C1B31939  40.582  13.755   8.553
 7371POPC   C2B31940  40.548  13.762   8.253
 7371POPC   C3B31941  40.594  13.775   7.953
 7371POPC   C4B31942  40.598  13.715   7.653
 7372POPC   NC331943  36.079  18.247   9.453
 7372POPC   PO431944  36.117  18.272   9.153
 7372POPC   GL131945  36.165  18.250   8.853
 7372POPC   GL231946  36.210  18.212   8.853
 7372POPC   C1A31947  36.101  18.297   8.553
 7372POPC   D2A31948  36.150  18.322   8.253
 7372POPC   C3A31949  36.163  18.278   7.953
 7372POPC   C4A31950  36.148  18.251   7.653
 7372POPC   C1B31951  36.227  18.064   8.553
 7372POPC   C2B31952  36.183  18.070   8.253
 7372POPC   C3B31953  36.234  18.080   7.953
 7372POPC   C4B31954  36.183  18.054   7.653
 7373POPC   NC331955  26.826  13.651   9.453
 7373POPC   PO431956  26.827  13.673   9.153
 7373POPC   GL131957  26.816  13.671   8.853
 7373POPC   GL231958  26.733  13.681   8.853
 7373POPC   C1A31959  26.811  13.675   8.553
 7373POPC   D2A31960  26.860  13.656   8.253
 7373POPC   C3A31961  26.836  13.646   7.953
 7373POPC   C4A31962  26.798  13.648   7.653
 7373POPC   C1B31963  26.572  13.690   8.553
 7373POPC   C2B31964  26.596  13.736   8.253
 7373POPC   C3B31965  26.627  13.772   7.953
 7373POPC   C4B31966  26.601  13.762   7.653
 7374POPC   NC331967  26.080  18.258   9.453
 7374POPC   PO431968  26.057  18.271   9.153
 7374POPC   GL131969  26.062  18.241   8.853
 7374POPC   GL231970  26.088  18.362   8.853
 7374POPC   C1A31971  26.063  18.282   8.553
 7374POPC   D2A31972  26.011  18.258   8.253
 7374POPC   C3A31973  26.043  18.248   7.953
 7374POPC   C4A31974  26.076  18.273   7.653
 7374POPC   C1B31975  26.175  18.521   8.553
 7374POPC   C2B31976  26.117  18.507   8.253
 7374POPC   C3B31977  26.179  18.470   7.953
 7374POPC   C4B31978  26.158  18.477   7.653
 7375POPC   NC331979  41.562  29.186   9.453
 7375POPC   PO431980  41.539  29.118   9.153
 7375POPC   GL131981  41.509  29.109   8.853
 7375POPC   GL231982  41.493  29.081   8.853
 7375POPC   C1A31983  41.558  29.156   8.553
 7375POPC   D2A31984  41.558  29.147   8.253
 7375POPC   C3A31985  41.577  29.108   7.953
 7375POPC   C4A31986  41.593  29.143   7.653
 7375POPC   C1B31987  41.434  28.951   8.553
 7375POPC   C2B31988  41.424  28.906   8.253
 7375POPC   C3B31989  41.395  28.918   7.953
 7375POPC   C4B31990  41.385  28.895   7.653
 7376POPC   NC331991  31.510  27.576   9.453
 7376POPC   PO431992  31.432  27.637   9.153
 7376POPC   GL131993  31.428  27.610   8.853
 7376POPC   GL231994  31.554  27.470   8.853
 7376POPC   C1A31995  31.476  27.561   8.553
 7376POPC   D2A31996  31.437  27.640   8.253
 7376POPC   C3A31997  31.463  27.608   7.953
 7376POPC   C4A31998  31.500  27.620   7.653
 7376POPC   C1B31999  31.501  27.355   8.553
 7376POPC   C2B32000  31.526  27.389   8.253
 7376POPC   C3B32001  31.577  27.310   7.953
 7376POPC   C4B32002  31.531  27.310   7.653
 7377POPC   NC332003  19.014  42.382   9.453
 7377POPC   PO432004  19.037  42.318   9.153
 7377POPC   GL132005  19.037  42.358   8.853
 7377POPC   GL232006  19.009  42.482   8.853
 7377POPC   C1A32007  19.009  42.378   8.553
 7377POPC   D2A32008  19.048  42.303   8.253
 7377POPC   C3A32009  19.107  42.349   7.953
 7377POPC   C4A32010  19.020  42.357   7.653
 7377POPC   C1B32011  19.010  42.613   8.553
 7377POPC   C2B32012  18.960  42.581   8.253
 7377POPC   C3B32013  19.014  42.543   7.953
 7377POPC   C4B32014  18.957  42.601   7.653
 7378POPC   NC332015  36.120  38.444   9.453
 7378POPC   PO432016  36.085  38.467   9.153
 7378POPC   GL132017  36.089  38.443   8.853
 7378POPC   GL232018  36.026  38.391   8.853
 7378POPC   C1A32019  36.117  38.473   8.553
 7378POPC   D2A32020  36.121  38.442   8.253
 7378POPC   C3A32021  36.167  38.427   7.953
 7378POPC   C4A32022  36.156  38.457   7.653
 7378POPC   C1B32023  36.033  38.286   8.553
 7378POPC   C2B32024  35.992  38.248   8.253
 7378POPC   C3B32025  35.964  38.227   7.953
 7378POPC   C4B32026  35.961  38.198   7.653
 7379POPC   NC332027  13.639  12.825   9.453
 7379POPC   PO432028  13.616  12.832   9.153
 7379POPC   GL132029  13.620  12.883   8.853
 7379POPC   GL232030  13.493  12.829   8.853
 7379POPC   C1A32031  13.639  12.822   8.553
 7379POPC   D2A32032  13.653  12.804   8.253
 7379POPC   C3A32033  13.649  12.874   7.953
 7379POPC   C4A32034  13.642  12.890   7.653
 7379POPC   C1B32035  13.341  12.918   8.553
 7379POPC   C2B32036  13.339  12.931   8.253
 7379POPC   C3B32037  13.349  12.880   7.953
 7379POPC   C4B32038  13.354  12.942   7.653
 7380POPC   NC332039  28.356  33.797   9.453
 7380POPC   PO432040  28.327  33.762   9.153
 7380POPC   GL132041  28.402  33.833   8.853
 7380POPC   GL232042  28.289  33.929   8.853
 7380POPC   C1A32043  28.359  33.772   8.553
 7380POPC   D2A32044  28.411  33.814   8.253
 7380POPC   C3A32045  28.381  33.796   7.953
 7380POPC   C4A32046  28.353  33.841   7.653
 7380POPC   C1B32047  28.161  34.019   8.553
 7380POPC   C2B32048  28.158  33.982   8.253
 7380POPC   C3B32049  28.162  33.958   7.953
 7380POPC   C4B32050  28.200  33.925   7.653
 7381POPC   NC332051   1.977  25.292   9.453
 7381POPC   PO432052   1.990  25.272   9.153
 7381POPC   GL132053   1.982  25.308   8.853
 7381POPC   GL232054   2.082  25.122   8.853
 7381POPC   C1A32055   1.981  25.311   8.553
 7381POPC   D2A32056   1.991  25.269   8.253
 7381POPC   C3A32057   1.987  25.274   7.953
 7381POPC   C4A32058   1.999  25.278   7.653
 7381POPC   C1B32059   2.111  25.002   8.553
 7381POPC   C2B32060   2.125  24.996   8.253
 7381POPC   C3B32061   2.138  25.071   7.953
 7381POPC   C4B32062   2.058  25.078   7.653
 7382POPC   NC332063  31.442  10.499   9.453
 7382POPC   PO432064  31.426  10.503   9.153
 7382POPC   GL132065  31.436  10.484   8.853
 7382POPC   GL232066  31.570  10.536   8.853
 7382POPC   C1A32067  31.508  10.509   8.553
 7382POPC   D2A32068  31.453  10.502   8.253
 7382POPC   C3A32069  31.442  10.546   7.953
 7382POPC   C4A32070  31.471  10.479   7.653
 7382POPC   C1B32071  31.714  10.545   8.553
 7382POPC   C2B32072  31.707  10.588   8.253
 7382POPC   C3B32073  31.738  10.534   7.953
 7382POPC   C4B32074  31.765  10.537   7.653
 7383POPC   NC332075  35.387  26.794   9.453
 7383POPC   PO432076  35.320  26.861   9.153
 7383POPC   GL132077  35.323  26.780   8.853
 7383POPC   GL232078  35.469  26.883   8.853
 7383POPC   C1A32079  35.356  26.846   8.553
 7383POPC   D2A32080  35.386  26.802   8.253
 7383POPC   C3A32081  35.347  26.788   7.953
 7383POPC   C4A32082  35.329  26.826   7.653
 7383POPC   C1B32083  35.492  27.045   8.553
 7383POPC   C2B32084  35.507  27.064   8.253
 7383POPC   C3B32085  35.474  27.011   7.953
 7383POPC   C4B32086  35.479  27.025   7.653
 7384POPC   NC332087  30.663  33.060   9.453
 7384POPC   PO432088  30.690  33.072   9.153
 7384POPC   GL132089  30.732  32.981   8.853
 7384POPC   GL232090  30.771  33.017   8.853
 7384POPC   C1A32091  30.651  32.991   8.553
 7384POPC   D2A32092  30.664  33.067   8.253
 7384POPC   C3A32093  30.685  33.030   7.953
 7384POPC   C4A32094  30.653  33.008   7.653
 7384POPC   C1B32095  30.906  33.074   8.553
 7384POPC   C2B32096  30.939  33.064   8.253
 7384POPC   C3B32097  30.895  33.104   7.953
 7384POPC   C4B32098  30.906  33.059   7.653
 7385POPC   NC332099  38.432   4.326   9.453
 7385POPC   PO432100  38.473   4.341   9.153
 7385POPC   GL132101  38.448   4.270   8.853
 7385POPC   GL232102  38.356   4.378   8.853
 7385POPC   C1A32103  38.447   4.293   8.553
 7385POPC   D2A32104  38.413   4.350   8.253
 7385POPC   C3A32105  38.441   4.284   7.953
 7385POPC   C4A32106  38.438   4.340   7.653
 7385POPC   C1B32107  38.295   4.571   8.553
 7385POPC   C2B32108  38.325   4.551   8.253
 7385POPC   C3B32109  38.325   4.505   7.953
 7385POPC   C4B32110  38.362   4.562   7.653
 7386POPC   NC332111   0.459  22.211   9.453
 7386POPC   PO432112   0.428  22.159   9.153
 7386POPC   GL132113   0.450  22.137   8.853
 7386POPC   GL232114   0.488  22.031   8.853
 7386POPC   C1A32115   0.472  22.173   8.553
 7386POPC   D2A32116   0.453  22.143   8.253
 7386POPC   C3A32117   0.467  22.180   7.953
 7386POPC   C4A32118   0.462  22.191   7.653
 7386POPC   C1B32119   0.452  21.863   8.553
 7386POPC   C2B32120   0.410  21.913   8.253
 7386POPC   C3B32121   0.487  21.914   7.953
 7386POPC   C4B32122   0.456  21.877   7.653
 7387POPC   NC332123  43.839  18.304   9.453
 7387POPC   PO432124  43.864  18.244   9.153
 7387POPC   GL132125  43.889  18.272   8.853
 7387POPC   GL232126  43.946  18.188   8.853
 7387POPC   C1A32127  43.894  18.317   8.553
 7387POPC   D2A32128  43.881  18.328   8.253
 7387POPC   C3A32129  43.869  18.265   7.953
 7387POPC   C4A32130  43.840  18.246   7.653
 7387POPC   C1B32131  44.106  18.139   8.553
 7387POPC   C2B32132  44.079  18.185   8.253
 7387POPC   C3B32133  44.116  18.153   7.953
 7387POPC   C4B32134  44.098  18.182   7.653
 7388POPC   NC332135  35.380  12.115   9.453
 7388POPC   PO432136  35.306  12.083   9.153
 7388POPC   GL132137  35.345  12.106   8.853
 7388POPC   GL232138  35.323  11.951   8.853
 7388POPC   C1A32139  35.388  12.122   8.553
 7388POPC   D2A32140  35.367  12.105   8.253
 7388POPC   C3A32141  35.334  12.032   7.953
 7388POPC   C4A32142  35.327  12.054   7.653
 7388POPC   C1B32143  35.261  11.794   8.553
 7388POPC   C2B32144  35.239  11.850   8.253
 7388POPC   C3B32145  35.246  11.847   7.953
 7388POPC   C4B32146  35.243  11.873   7.653
 7389POPC   NC332147  20.644  32.999   9.453
 7389POPC   PO432148  20.604  33.064   9.153
 7389POPC   GL132149  20.657  33.056   8.853
 7389POPC   GL232150  20.468  33.109   8.853
 7389POPC   C1A32151  20.607  33.068   8.553
 7389POPC   D2A32152  20.658  33.064   8.253
 7389POPC   C3A32153  20.571  32.991   7.953
 7389POPC   C4A32154  20.637  33.062   7.653
 7389POPC   C1B32155  20.462  33.149   8.553
 7389POPC   C2B32156  20.386  33.232   8.253
 7389POPC   C3B32157  20.392  33.230   7.953
 7389POPC   C4B32158  20.398  33.159   7.653
 7390POPC   NC332159   8.228  39.989   9.453
 7390POPC   PO432160   8.236  39.965   9.153
 7390POPC   GL132161   8.217  40.024   8.853
 7390POPC   GL232162   8.212  40.087   8.853
 7390POPC   C1A32163   8.190  39.964   8.553
 7390POPC   D2A32164   8.197  40.002   8.253
 7390POPC   C3A32165   8.151  40.052   7.953
 7390POPC   C4A32166   8.220  39.986   7.653
 7390POPC   C1B32167   8.141  40.209   8.553
 7390POPC   C2B32168   8.180  40.303   8.253
 7390POPC   C3B32169   8.151  40.306   7.953
 7390POPC   C4B32170   8.158  40.256   7.653
 7391POPC   NC332171  31.516  43.148   9.453
 7391POPC   PO432172  31.508  43.086   9.153
 7391POPC   GL132173  31.477  43.091   8.853
 7391POPC   GL232174  31.386  42.981   8.853
 7391POPC   C1A32175  31.429  43.064   8.553
 7391POPC   D2A32176  31.485  43.119   8.253
 7391POPC   C3A32177  31.518  43.068   7.953
 7391POPC   C4A32178  31.425  43.141   7.653
 7391POPC   C1B32179  31.341  42.871   8.553
 7391POPC   C2B32180  31.325  42.948   8.253
 7391POPC   C3B32181  31.324  42.907   7.953
 7391POPC   C4B32182  31.314  42.895   7.653
 7392POPC   NC332183   7.440   8.200   9.453
 7392POPC   PO432184   7.445   8.185   9.153
 7392POPC   GL132185   7.394   8.177   8.853
 7392POPC   GL232186   7.480   8.261   8.853
 7392POPC   C1A32187   7.452   8.207   8.553
 7392POPC   D2A32188   7.389   8.174   8.253
 7392POPC   C3A32189   7.396   8.200   7.953
 7392POPC   C4A32190   7.396   8.230   7.653
 7392POPC   C1B32191   7.530   8.457   8.553
 7392POPC   C2B32192   7.570   8.420   8.253
 7392POPC   C3B32193   7.510   8.375   7.953
 7392POPC   C4B32194   7.532   8.379   7.653
 7393POPC   NC332195  36.928   1.233   9.453
 7393POPC   PO432196  36.858   1.167   9.153
 7393POPC   GL132197  36.914   1.200   8.853
 7393POPC   GL232198  36.974   1.273   8.853
 7393POPC   C1A32199  36.871   1.226   8.553
 7393POPC   D2A32200  36.935   1.226   8.253
 7393POPC   C3A32201  36.876   1.252   7.953
 7393POPC   C4A32202  36.890   1.242   7.653
 7393POPC   C1B32203  37.027   1.438   8.553
 7393POPC   C2B32204  37.070   1.424   8.253
 7393POPC   C3B32205  37.040   1.359   7.953
 7393POPC   C4B32206  37.035   1.374   7.653
 7394POPC   NC332207  25.264   5.905   9.453
 7394POPC   PO432208  25.232   5.910   9.153
 7394POPC   GL132209  25.227   5.901   8.853
 7394POPC   GL232210  25.385   5.915   8.853
 7394POPC   C1A32211  25.236   5.880   8.553
 7394POPC   D2A32212  25.224   5.893   8.253
 7394POPC   C3A32213  25.241   5.875   7.953
 7394POPC   C4A32214  25.245   5.869   7.653
 7394POPC   C1B32215  25.475   5.917   8.553
 7394POPC   C2B32216  25.479   5.918   8.253
 7394POPC   C3B32217  25.538   5.908   7.953
 7394POPC   C4B32218  25.503   5.880   7.653
 7395POPC   NC332219   7.388  17.474   9.453
 7395POPC   PO432220   7.392  17.529   9.153
 7395POPC   GL132221   7.378  17.556   8.853
 7395POPC   GL232222   7.254  17.499   8.853
 7395POPC   C1A32223   7.466  17.480   8.553
 7395POPC   D2A32224   7.428  17.505   8.253
 7395POPC   C3A32225   7.403  17.530   7.953
 7395POPC   C4A32226   7.395  17.545   7.653
 7395POPC   C1B32227   7.153  17.588   8.553
 7395POPC   C2B32228   7.179  17.551   8.253
 7395POPC   C3B32229   7.185  17.526   7.953
 7395POPC   C4B32230   7.190  17.506   7.653
 7396POPC   NC332231  33.796  43.839   9.453
 7396POPC   PO432232  33.801  43.837   9.153
 7396POPC   GL132233  33.827  43.931   8.853
 7396POPC   GL232234  33.685  43.856   8.853
 7396POPC   C1A32235  33.772  43.927   8.553
 7396POPC   D2A32236  33.789  43.878   8.253
 7396POPC   C3A32237  33.770  43.847   7.953
 7396POPC   C4A32238  33.760  43.857   7.653
 7396POPC   C1B32239  33.600  43.794   8.553
 7396POPC   C2B32240  33.568  43.767   8.253
 7396POPC   C3B32241  33.599  43.836   7.953
 7396POPC   C4B32242  33.602  43.798   7.653
 7397POPC   NC332243  19.843  20.590   9.453
 7397POPC   PO432244  19.803  20.619   9.153
 7397POPC   GL132245  19.818  20.637   8.853
 7397POPC   GL232246  19.702  20.652   8.853
 7397POPC   C1A32247  19.867  20.607   8.553
 7397POPC   D2A32248  19.884  20.631   8.253
 7397POPC   C3A32249  19.884  20.590   7.953
 7397POPC   C4A32250  19.788  20.606   7.653
 7397POPC   C1B32251  19.608  20.736   8.553
 7397POPC   C2B32252  19.634  20.694   8.253
 7397POPC   C3B32253  19.660  20.682   7.953
 7397POPC   C4B32254  19.641  20.692   7.653
 7398POPC   NC332255  25.312  12.072   9.453
 7398POPC   PO432256  25.301  12.061   9.153
 7398POPC   GL132257  25.271  12.101   8.853
 7398POPC   GL232258  25.351  12.062   8.853
 7398POPC   C1A32259  25.314  12.088   8.553
 7398POPC   D2A32260  25.245  12.059   8.253
 7398POPC   C3A32261  25.228  12.115   7.953
 7398POPC   C4A32262  25.269  12.084   7.653
 7398POPC   C1B32263  25.475  12.054   8.553
 7398POPC   C2B32264  25.483  12.090   8.253
 7398POPC   C3B32265  25.561  12.086   7.953
 7398POPC   C4B32266  25.490  12.124   7.653
 7399POPC   NC332267  19.791  34.576   9.453
 7399POPC   PO432268  19.806  34.586   9.153
 7399POPC   GL132269  19.798  34.609   8.853
 7399POPC   GL232270  19.746  34.558   8.853
 7399POPC   C1A32271  19.879  34.613   8.553
 7399POPC   D2A32272  19.828  34.588   8.253
 7399POPC   C3A32273  19.818  34.599   7.953
 7399POPC   C4A32274  19.873  34.590   7.653
 7399POPC   C1B32275  19.623  34.530   8.553
 7399POPC   C2B32276  19.606  34.548   8.253
 7399POPC   C3B32277  19.546  34.551   7.953
 7399POPC   C4B32278  19.636  34.505   7.653
 7400POPC   NC332279  23.684  19.872   9.453
 7400POPC   PO432280  23.761  19.822   9.153
 7400POPC   GL132281  23.698  19.863   8.853
 7400POPC   GL232282  23.743  19.755   8.853
 7400POPC   C1A32283  23.695  19.851   8.553
 7400POPC   D2A32284  23.685  19.834   8.253
 7400POPC   C3A32285  23.710  19.877   7.953
 7400POPC   C4A32286  23.743  19.845   7.653
 7400POPC   C1B32287  23.811  19.607   8.553
 7400POPC   C2B32288  23.850  19.594   8.253
 7400POPC   C3B32289  23.902  19.678   7.953
 7400POPC   C4B32290  23.906  19.611   7.653
 7401POPC   NC332291  30.681  21.410   9.453
 7401POPC   PO432292  30.692  21.427   9.153
 7401POPC   GL132293  30.740  21.422   8.853
 7401POPC   GL232294  30.585  21.425   8.853
 7401POPC   C1A32295  30.697  21.434   8.553
 7401POPC   D2A32296  30.701  21.412   8.253
 7401POPC   C3A32297  30.707  21.427   7.953
 7401POPC   C4A32298  30.677  21.378   7.653
 7401POPC   C1B32299  30.486  21.491   8.553
 7401POPC   C2B32300  30.463  21.516   8.253
 7401POPC   C3B32301  30.531  21.570   7.953
 7401POPC   C4B32302  30.464  21.516   7.653
 7402POPC   NC332303  32.269  44.639   9.453
 7402POPC   PO432304  32.230  44.629   9.153
 7402POPC   GL132305  32.277  44.649   8.853
 7402POPC   GL232306  32.390  44.693   8.853
 7402POPC   C1A32307  32.269  44.675   8.553
 7402POPC   D2A32308  32.212  44.684   8.253
 7402POPC   C3A32309  32.203  44.705   7.953
 7402POPC   C4A32310  32.221  44.661   7.653
 7402POPC   C1B32311  32.448  44.773   8.553
 7402POPC   C2B32312  32.441  44.746   8.253
 7402POPC   C3B32313  32.493  44.743   7.953
 7402POPC   C4B32314  32.503  44.745   7.653
 7403POPC   NC332315   0.485  26.826   9.453
 7403POPC   PO432316   0.411  26.811   9.153
 7403POPC   GL132317   0.393  26.854   8.853
 7403POPC   GL232318   0.490  26.742   8.853
 7403POPC   C1A32319   0.441  26.832   8.553
 7403POPC   D2A32320   0.474  26.807   8.253
 7403POPC   C3A32321   0.402  26.849   7.953
 7403POPC   C4A32322   0.433  26.807   7.653
 7403POPC   C1B32323   0.461  26.554   8.553
 7403POPC   C2B32324   0.478  26.525   8.253
 7403POPC   C3B32325   0.461  26.587   7.953
 7403POPC   C4B32326   0.495  26.565   7.653
 7404POPC   NC332327  25.273   1.263   9.453
 7404POPC   PO432328  25.304   1.230   9.153
 7404POPC   GL132329  25.279   1.170   8.853
 7404POPC   GL232330  25.374   1.166   8.853
 7404POPC   C1A32331  25.230   1.191   8.553
 7404POPC   D2A32332  25.246   1.202   8.253
 7404POPC   C3A32333  25.250   1.196   7.953
 7404POPC   C4A32334  25.241   1.230   7.653
 7404POPC   C1B32335  25.479   1.071   8.553
 7404POPC   C2B32336  25.482   1.052   8.253
 7404POPC   C3B32337  25.427   1.006   7.953
 7404POPC   C4B32338  25.425   1.023   7.653
 7405POPC   NC332339  26.810  34.609   9.453
 7405POPC   PO432340  26.821  34.614   9.153
 7405POPC   GL132341  26.791  34.527   8.853
 7405POPC   GL232342  26.871  34.690   8.853
 7405POPC   C1A32343  26.807  34.614   8.553
 7405POPC   D2A32344  26.796  34.538   8.253
 7405POPC   C3A32345  26.838  34.549   7.953
 7405POPC   C4A32346  26.779  34.625   7.653
 7405POPC   C1B32347  26.957  34.746   8.553
 7405POPC   C2B32348  26.913  34.787   8.253
 7405POPC   C3B32349  26.925  34.783   7.953
 7405POPC   C4B32350  26.921  34.834   7.653
 7406POPC   NC332351  20.657  27.584   9.453
 7406POPC   PO432352  20.634  27.619   9.153
 7406POPC   GL132353  20.648  27.543   8.853
 7406POPC   GL232354  20.731  27.597   8.853
 7406POPC   C1A32355  20.650  27.638   8.553
 7406POPC   D2A32356  20.583  27.593   8.253
 7406POPC   C3A32357  20.561  27.581   7.953
 7406POPC   C4A32358  20.615  27.592   7.653
 7406POPC   C1B32359  20.805  27.525   8.553
 7406POPC   C2B32360  20.887  27.520   8.253
 7406POPC   C3B32361  20.805  27.500   7.953
 7406POPC   C4B32362  20.829  27.498   7.653
 7407POPC   NC332363  21.433   1.190   9.453
 7407POPC   PO432364  21.349   1.235   9.153
 7407POPC   GL132365  21.427   1.251   8.853
 7407POPC   GL232366  21.312   1.131   8.853
 7407POPC   C1A32367  21.364   1.238   8.553
 7407POPC   D2A32368  21.425   1.228   8.253
 7407POPC   C3A32369  21.387   1.244   7.953
 7407POPC   C4A32370  21.436   1.177   7.653
 7407POPC   C1B32371  21.190   1.048   8.553
 7407POPC   C2B32372  21.175   1.104   8.253
 7407POPC   C3B32373  21.189   1.042   7.953
 7407POPC   C4B32374  21.201   1.111   7.653
 7408POPC   NC332375  22.191  30.731   9.453
 7408POPC   PO432376  22.149  30.699   9.153
 7408POPC   GL132377  22.169  30.681   8.853
 7408POPC   GL232378  22.239  30.639   8.853
 7408POPC   C1A32379  22.141  30.704   8.553
 7408POPC   D2A32380  22.165  30.696   8.253
 7408POPC   C3A32381  22.154  30.741   7.953
 7408POPC   C4A32382  22.212  30.657   7.653
 7408POPC   C1B32383  22.285  30.478   8.553
 7408POPC   C2B32384  22.292  30.466   8.253
 7408POPC   C3B32385  22.329  30.530   7.953
 7408POPC   C4B32386  22.295  30.459   7.653
 7409POPC   NC332387  35.353  14.436   9.453
 7409POPC   PO432388  35.307  14.408   9.153
 7409POPC   GL132389  35.315  14.415   8.853
 7409POPC   GL232390  35.226  14.429   8.853
 7409POPC   C1A32391  35.375  14.440   8.553
 7409POPC   D2A32392  35.352  14.358   8.253
 7409POPC   C3A32393  35.401  14.419   7.953
 7409POPC   C4A32394  35.392  14.413   7.653
 7409POPC   C1B32395  35.149  14.344   8.553
 7409POPC   C2B32396  35.139  14.340   8.253
 7409POPC   C3B32397  35.078  14.349   7.953
 7409POPC   C4B32398  35.152  14.395   7.653
 7410POPC   NC332399  19.072  20.609   9.453
 7410POPC   PO432400  19.083  20.566   9.153
 7410POPC   GL132401  19.017  20.618   8.853
 7410POPC   GL232402  19.201  20.569   8.853
 7410POPC   C1A32403  19.054  20.642   8.553
 7410POPC   D2A32404  19.088  20.653   8.253
 7410POPC   C3A32405  19.042  20.562   7.953
 7410POPC   C4A32406  19.098  20.581   7.653
 7410POPC   C1B32407  19.312  20.480   8.553
 7410POPC   C2B32408  19.297  20.539   8.253
 7410POPC   C3B32409  19.256  20.490   7.953
 7410POPC   C4B32410  19.296  20.541   7.653
 7411POPC   NC332411  22.118  27.572   9.453
 7411POPC   PO432412  22.162  27.589   9.153
 7411POPC   GL132413  22.184  27.581   8.853
 7411POPC   GL232414  22.280  27.674   8.853
 7411POPC   C1A32415  22.149  27.552   8.553
 7411POPC   D2A32416  22.198  27.566   8.253
 7411POPC   C3A32417  22.182  27.569   7.953
 7411POPC   C4A32418  22.143  27.640   7.653
 7411POPC   C1B32419  22.404  27.697   8.553
 7411POPC   C2B32420  22.397  27.756   8.253
 7411POPC   C3B32421  22.359  27.713   7.953
 7411POPC   C4B32422  22.325  27.716   7.653
 7412POPC   NC332423   1.969   1.256   9.453
 7412POPC   PO432424   1.942   1.211   9.153
 7412POPC   GL132425   2.017   1.249   8.853
 7412POPC   GL232426   1.992   1.307   8.853
 7412POPC   C1A32427   1.958   1.172   8.553
 7412POPC   D2A32428   2.039   1.244   8.253
 7412POPC   C3A32429   1.961   1.232   7.953
 7412POPC   C4A32430   2.024   1.232   7.653
 7412POPC   C1B32431   2.038   1.494   8.553
 7412POPC   C2B32432   2.068   1.478   8.253
 7412POPC   C3B32433   2.006   1.505   7.953
 7412POPC   C4B32434   2.025   1.435   7.653
 7413POPC   NC332435  36.125  35.319   9.453
 7413POPC   PO432436  36.168  35.373   9.153
 7413POPC   GL132437  36.126  35.362   8.853
 7413POPC   GL232438  35.985  35.319   8.853
 7413POPC   C1A32439  36.083  35.307   8.553
 7413POPC   D2A32440  36.082  35.316   8.253
 7413POPC   C3A32441  36.122  35.308   7.953
 7413POPC   C4A32442  36.118  35.343   7.653
 7413POPC   C1B32443  35.925  35.279   8.553
 7413POPC   C2B32444  35.885  35.288   8.253
 7413POPC   C3B32445  35.927  35.328   7.953
 7413POPC   C4B32446  35.875  35.299   7.653
 7414POPC   NC332447  36.946  41.567   9.453
 7414POPC   PO432448  36.916  41.529   9.153
 7414POPC   GL132449  36.873  41.557   8.853
 7414POPC   GL232450  36.773  41.552   8.853
 7414POPC   C1A32451  36.872  41.579   8.553
 7414POPC   D2A32452  36.919  41.563   8.253
 7414POPC   C3A32453  36.886  41.514   7.953
 7414POPC   C4A32454  36.914  41.590   7.653
 7414POPC   C1B32455  36.650  41.518   8.553
 7414POPC   C2B32456  36.672  41.446   8.253
 7414POPC   C3B32457  36.645  41.435   7.953
 7414POPC   C4B32458  36.707  41.453   7.653
 7415POPC   NC332459  36.933  37.712   9.453
 7415POPC   PO432460  36.950  37.706   9.153
 7415POPC   GL132461  36.886  37.710   8.853
 7415POPC   GL232462  36.738  37.629   8.853
 7415POPC   C1A32463  36.930  37.671   8.553
 7415POPC   D2A32464  36.939  37.696   8.253
 7415POPC   C3A32465  36.940  37.708   7.953
 7415POPC   C4A32466  36.945  37.721   7.653
 7415POPC   C1B32467  36.637  37.618   8.553
 7415POPC   C2B32468  36.692  37.620   8.253
 7415POPC   C3B32469  36.695  37.706   7.953
 7415POPC   C4B32470  36.658  37.614   7.653
 7416POPC   NC332471  38.501  32.212   9.453
 7416POPC   PO432472  38.406  32.203   9.153
 7416POPC   GL132473  38.415  32.250   8.853
 7416POPC   GL232474  38.527  32.383   8.853
 7416POPC   C1A32475  38.502  32.231   8.553
 7416POPC   D2A32476  38.417  32.199   8.253
 7416POPC   C3A32477  38.430  32.284   7.953
 7416POPC   C4A32478  38.444  32.225   7.653
 7416POPC   C1B32479  38.638  32.467   8.553
 7416POPC   C2B32480  38.600  32.429   8.253
 7416POPC   C3B32481  38.566  32.437   7.953
 7416POPC   C4B32482  38.543  32.447   7.653
 7417POPC   NC332483  40.739  41.568   9.453
 7417POPC   PO432484  40.784  41.511   9.153
 7417POPC   GL132485  40.813  41.603   8.853
 7417POPC   GL232486  40.631  41.679   8.853
 7417POPC   C1A32487  40.776  41.588   8.553
 7417POPC   D2A32488  40.794  41.529   8.253
 7417POPC   C3A32489  40.749  41.572   7.953
 7417POPC   C4A32490  40.827  41.557   7.653
 7417POPC   C1B32491  40.608  41.667   8.553
 7417POPC   C2B32492  40.584  41.735   8.253
 7417POPC   C3B32493  40.537  41.699   7.953
 7417POPC   C4B32494  40.570  41.694   7.653
 7418POPC   NC332495  36.134   1.238   9.453
 7418POPC   PO432496  36.090   1.172   9.153
 7418POPC   GL132497  36.168   1.200   8.853
 7418POPC   GL232498  36.077   1.261   8.853
 7418POPC   C1A32499  36.098   1.194   8.553
 7418POPC   D2A32500  36.109   1.209   8.253
 7418POPC   C3A32501  36.177   1.196   7.953
 7418POPC   C4A32502  36.122   1.190   7.653
 7418POPC   C1B32503  35.959   1.352   8.553
 7418POPC   C2B32504  36.001   1.374   8.253
 7418POPC   C3B32505  35.915   1.437   7.953
 7418POPC   C4B32506  35.964   1.364   7.653
 7419POPC   NC332507  34.548  34.623   9.453
 7419POPC   PO432508  34.622  34.555   9.153
 7419POPC   GL132509  34.573  34.558   8.853
 7419POPC   GL232510  34.687  34.541   8.853
 7419POPC   C1A32511  34.579  34.534   8.553
 7419POPC   D2A32512  34.563  34.604   8.253
 7419POPC   C3A32513  34.583  34.540   7.953
 7419POPC   C4A32514  34.563  34.598   7.653
 7419POPC   C1B32515  34.836  34.607   8.553
 7419POPC   C2B32516  34.796  34.555   8.253
 7419POPC   C3B32517  34.794  34.589   7.953
 7419POPC   C4B32518  34.778  34.537   7.653
 7420POPC   NC332519  39.992  14.382   9.453
 7420POPC   PO432520  40.041  14.360   9.153
 7420POPC   GL132521  39.965  14.370   8.853
 7420POPC   GL232522  40.091  14.296   8.853
 7420POPC   C1A32523  40.050  14.416   8.553
 7420POPC   D2A32524  39.988  14.370   8.253
 7420POPC   C3A32525  40.012  14.440   7.953
 7420POPC   C4A32526  40.046  14.450   7.653
 7420POPC   C1B32527  40.225  14.280   8.553
 7420POPC   C2B32528  40.175  14.218   8.253
 7420POPC   C3B32529  40.223  14.266   7.953
 7420POPC   C4B32530  40.195  14.249   7.653
 7421POPC   NC332531   5.879  39.263   9.453
 7421POPC   PO432532   5.845  39.233   9.153
 7421POPC   GL132533   5.822  39.265   8.853
 7421POPC   GL232534   5.798  39.136   8.853
 7421POPC   C1A32535   5.822  39.225   8.553
 7421POPC   D2A32536   5.888  39.251   8.253
 7421POPC   C3A32537   5.852  39.260   7.953
 7421POPC   C4A32538   5.846  39.227   7.653
 7421POPC   C1B32539   5.705  39.062   8.553
 7421POPC   C2B32540   5.662  39.080   8.253
 7421POPC   C3B32541   5.677  39.049   7.953
 7421POPC   C4B32542   5.640  39.070   7.653
 7422POPC   NC332543  27.565  41.547   9.453
 7422POPC   PO432544  27.565  41.557   9.153
 7422POPC   GL132545  27.576  41.550   8.853
 7422POPC   GL232546  27.479  41.476   8.853
 7422POPC   C1A32547  27.582  41.565   8.553
 7422POPC   D2A32548  27.602  41.602   8.253
 7422POPC   C3A32549  27.579  41.556   7.953
 7422POPC   C4A32550  27.576  41.587   7.653
 7422POPC   C1B32551  27.318  41.501   8.553
 7422POPC   C2B32552  27.351  41.497   8.253
 7422POPC   C3B32553  27.381  41.475   7.953
 7422POPC   C4B32554  27.404  41.443   7.653
 7423POPC   NC332555  43.145  22.928   9.453
 7423POPC   PO432556  43.077  22.961   9.153
 7423POPC   GL132557  43.127  22.888   8.853
 7423POPC   GL232558  43.211  23.067   8.853
 7423POPC   C1A32559  43.154  22.894   8.553
 7423POPC   D2A32560  43.160  22.973   8.253
 7423POPC   C3A32561  43.160  22.979   7.953
 7423POPC   C4A32562  43.097  22.914   7.653
 7423POPC   C1B32563  43.245  23.170   8.553
 7423POPC   C2B32564  43.262  23.199   8.253
 7423POPC   C3B32565  43.231  23.197   7.953
 7423POPC   C4B32566  43.249  23.117   7.653
 7424POPC   NC332567   6.684  36.925   9.453
 7424POPC   PO432568   6.658  36.927   9.153
 7424POPC   GL132569   6.634  36.926   8.853
 7424POPC   GL232570   6.711  36.767   8.853
 7424POPC   C1A32571   6.627  36.908   8.553
 7424POPC   D2A32572   6.655  36.882   8.253
 7424POPC   C3A32573   6.694  36.908   7.953
 7424POPC   C4A32574   6.608  36.936   7.653
 7424POPC   C1B32575   6.667  36.691   8.553
 7424POPC   C2B32576   6.703  36.702   8.253
 7424POPC   C3B32577   6.718  36.665   7.953
 7424POPC   C4B32578   6.644  36.658   7.653
 7425POPC   NC332579  15.154   6.650   9.453
 7425POPC   PO432580  15.166   6.646   9.153
 7425POPC   GL132581  15.227   6.657   8.853
 7425POPC   GL232582  15.022   6.586   8.853
 7425POPC   C1A32583  15.206   6.662   8.553
 7425POPC   D2A32584  15.194   6.648   8.253
 7425POPC   C3A32585  15.176   6.678   7.953
 7425POPC   C4A32586  15.167   6.598   7.653
 7425POPC   C1B32587  14.927   6.579   8.553
 7425POPC   C2B32588  14.936   6.609   8.253
 7425POPC   C3B32589  14.955   6.614   7.953
 7425POPC   C4B32590  14.949   6.553   7.653
 7426POPC   NC332591   0.487  16.698   9.453
 7426POPC   PO432592   0.446  16.767   9.153
 7426POPC   GL132593   0.442  16.779   8.853
 7426POPC   GL232594   0.378  16.613   8.853
 7426POPC   C1A32595   0.480  16.693   8.553
 7426POPC   D2A32596   0.439  16.694   8.253
 7426POPC   C3A32597   0.394  16.748   7.953
 7426POPC   C4A32598   0.403  16.742   7.653
 7426POPC   C1B32599   0.295  16.537   8.553
 7426POPC   C2B32600   0.358  16.533   8.253
 7426POPC   C3B32601   0.347  16.544   7.953
 7426POPC   C4B32602   0.350  16.476   7.653
 7427POPC   NC332603   8.215  18.297   9.453
 7427POPC   PO432604   8.180  18.253   9.153
 7427POPC   GL132605   8.237  18.259   8.853
 7427POPC   GL232606   8.196  18.431   8.853
 7427POPC   C1A32607   8.166  18.278   8.553
 7427POPC   D2A32608   8.193  18.283   8.253
 7427POPC   C3A32609   8.160  18.309   7.953
 7427POPC   C4A32610   8.211  18.274   7.653
 7427POPC   C1B32611   8.286  18.540   8.553
 7427POPC   C2B32612   8.257  18.536   8.253
 7427POPC   C3B32613   8.271  18.485   7.953
 7427POPC   C4B32614   8.327  18.530   7.653
 7428POPC   NC332615  42.363  43.145   9.453
 7428POPC   PO432616  42.356  43.128   9.153
 7428POPC   GL132617  42.362  43.129   8.853
 7428POPC   GL232618  42.460  43.114   8.853
 7428POPC   C1A32619  42.295  43.108   8.553
 7428POPC   D2A32620  42.373  43.130   8.253
 7428POPC   C3A32621  42.333  43.075   7.953
 7428POPC   C4A32622  42.355  43.142   7.653
 7428POPC   C1B32623  42.592  43.104   8.553
 7428POPC   C2B32624  42.536  43.129   8.253
 7428POPC   C3B32625  42.598  43.098   7.953
 7428POPC   C4B32626  42.591  43.109   7.653
 7429POPC   NC332627  22.907  28.359   9.453
 7429POPC   PO432628  22.892  28.343   9.153
 7429POPC   GL132629  22.901  28.398   8.853
 7429POPC   GL232630  22.942  28.204   8.853
 7429POPC   C1A32631  22.915  28.349   8.553
 7429POPC   D2A32632  22.911  28.411   8.253
 7429POPC   C3A32633  22.964  28.353   7.953
 7429POPC   C4A32634  22.941  28.394   7.653
 7429POPC   C1B32635  22.858  28.107   8.553
 7429POPC   C2B32636  22.873  28.172   8.253
 7429POPC   C3B32637  22.858  28.148   7.953
 7429POPC   C4B32638  22.888  28.169   7.653
 7430POPC   NC332639  30.700  15.957   9.453
 7430POPC   PO432640  30.732  15.989   9.153
 7430POPC   GL132641  30.731  15.924   8.853
 7430POPC   GL232642  30.818  15.937   8.853
 7430POPC   C1A32643  30.698  15.934   8.553
 7430POPC   D2A32644  30.728  15.946   8.253
 7430POPC   C3A32645  30.690  16.000   7.953
 7430POPC   C4A32646  30.647  15.959   7.653
 7430POPC   C1B32647  30.927  15.797   8.553
 7430POPC   C2B32648  30.946  15.873   8.253
 7430POPC   C3B32649  30.923  15.857   7.953
 7430POPC   C4B32650  30.890  15.829   7.653
 7431POPC   NC332651  16.707   0.474   9.453
 7431POPC   PO432652  16.722   0.399   9.153
 7431POPC   GL132653  16.691   0.435   8.853
 7431POPC   GL232654  16.656   0.378   8.853
 7431POPC   C1A32655  16.730   0.400   8.553
 7431POPC   D2A32656  16.717   0.411   8.253
 7431POPC   C3A32657  16.695   0.404   7.953
 7431POPC   C4A32658  16.777   0.462   7.653
 7431POPC   C1B32659  16.469   0.395   8.553
 7431POPC   C2B32660  16.484   0.419   8.253
 7431POPC   C3B32661  16.524   0.379   7.953
 7431POPC   C4B32662  16.533   0.360   7.653
 7432POPC   NC332663  42.319  41.539   9.453
 7432POPC   PO432664  42.384  41.596   9.153
 7432POPC   GL132665  42.333  41.553   8.853
 7432POPC   GL232666  42.197  41.462   8.853
 7432POPC   C1A32667  42.378  41.586   8.553
 7432POPC   D2A32668  42.342  41.554   8.253
 7432POPC   C3A32669  42.293  41.608   7.953
 7432POPC   C4A32670  42.317  41.509   7.653
 7432POPC   C1B32671  42.073  41.418   8.553
 7432POPC   C2B32672  42.152  41.484   8.253
 7432POPC   C3B32673  42.156  41.410   7.953
 7432POPC   C4B32674  42.120  41.420   7.653
 7433POPC   NC332675   2.803  44.673   9.453
 7433POPC   PO432676   2.804  44.706   9.153
 7433POPC   GL132677   2.737  44.696   8.853
 7433POPC   GL232678   2.841  44.679   8.853
 7433POPC   C1A32679   2.799  44.650   8.553
 7433POPC   D2A32680   2.786  44.639   8.253
 7433POPC   C3A32681   2.734  44.618   7.953
 7433POPC   C4A32682   2.786  44.666   7.653
 7433POPC   C1B32683   2.986  44.626   8.553
 7433POPC   C2B32684   2.997  44.564   8.253
 7433POPC   C3B32685   2.988  44.649   7.953
 7433POPC   C4B32686   3.048  44.650   7.653
 7434POPC   NC332687  33.825  11.304   9.453
 7434POPC   PO432688  33.796  11.289   9.153
 7434POPC   GL132689  33.833  11.290   8.853
 7434POPC   GL232690  33.718  11.228   8.853
 7434POPC   C1A32691  33.801  11.291   8.553
 7434POPC   D2A32692  33.810  11.251   8.253
 7434POPC   C3A32693  33.794  11.333   7.953
 7434POPC   C4A32694  33.799  11.278   7.653
 7434POPC   C1B32695  33.588  11.179   8.553
 7434POPC   C2B32696  33.533  11.212   8.253
 7434POPC   C3B32697  33.584  11.205   7.953
 7434POPC   C4B32698  33.567  11.217   7.653
 7435POPC   NC332699  33.782  10.481   9.453
 7435POPC   PO432700  33.775  10.482   9.153
 7435POPC   GL132701  33.811  10.568   8.853
 7435POPC   GL232702  33.759  10.364   8.853
 7435POPC   C1A32703  33.763  10.530   8.553
 7435POPC   D2A32704  33.827  10.565   8.253
 7435POPC   C3A32705  33.841  10.503   7.953
 7435POPC   C4A32706  33.831  10.562   7.653
 7435POPC   C1B32707  33.761  10.287   8.553
 7435POPC   C2B32708  33.715  10.335   8.253
 7435POPC   C3B32709  33.707  10.268   7.953
 7435POPC   C4B32710  33.751  10.321   7.653
 7436POPC   NC332711  27.599  36.117   9.453
 7436POPC   PO432712  27.584  36.151   9.153
 7436POPC   GL132713  27.571  36.163   8.853
 7436POPC   GL232714  27.635  36.261   8.853
 7436POPC   C1A32715  27.611  36.112   8.553
 7436POPC   D2A32716  27.612  36.122   8.253
 7436POPC   C3A32717  27.609  36.121   7.953
 7436POPC   C4A32718  27.607  36.085   7.653
 7436POPC   C1B32719  27.721  36.355   8.553
 7436POPC   C2B32720  27.790  36.294   8.253
 7436POPC   C3B32721  27.774  36.331   7.953
 7436POPC   C4B32722  27.803  36.303   7.653
 7437POPC   NC332723  11.280   8.238   9.453
 7437POPC   PO432724  11.315   8.167   9.153
 7437POPC   GL132725  11.346   8.240   8.853
 7437POPC   GL232726  11.412   8.315   8.853
 7437POPC   C1A32727  11.324   8.243   8.553
 7437POPC   D2A32728  11.261   8.154   8.253
 7437POPC   C3A32729  11.316   8.215   7.953
 7437POPC   C4A32730  11.285   8.157   7.653
 7437POPC   C1B32731  11.404   8.413   8.553
 7437POPC   C2B32732  11.456   8.377   8.253
 7437POPC   C3B32733  11.479   8.437   7.953
 7437POPC   C4B32734  11.397   8.394   7.653
 7438POPC   NC332735  23.717  16.751   9.453
 7438POPC   PO432736  23.729  16.742   9.153
 7438POPC   GL132737  23.731  16.708   8.853
 7438POPC   GL232738  23.798  16.774   8.853
 7438POPC   C1A32739  23.730  16.743   8.553
 7438POPC   D2A32740  23.690  16.744   8.253
 7438POPC   C3A32741  23.734  16.714   7.953
 7438POPC   C4A32742  23.753  16.708   7.653
 7438POPC   C1B32743  23.923  16.905   8.553
 7438POPC   C2B32744  23.871  16.919   8.253
 7438POPC   C3B32745  23.922  16.931   7.953
 7438POPC   C4B32746  23.849  16.894   7.653
 7439POPC   NC332747  33.764  35.384   9.453
 7439POPC   PO432748  33.799  35.310   9.153
 7439POPC   GL132749  33.813  35.385   8.853
 7439POPC   GL232750  33.882  35.223   8.853
 7439POPC   C1A32751  33.842  35.366   8.553
 7439POPC   D2A32752  33.766  35.318   8.253
 7439POPC   C3A32753  33.848  35.323   7.953
 7439POPC   C4A32754  33.816  35.352   7.653
 7439POPC   C1B32755  33.901  35.105   8.553
 7439POPC   C2B32756  33.864  35.133   8.253
 7439POPC   C3B32757  33.941  35.085   7.953
 7439POPC   C4B32758  33.942  35.124   7.653
 7440POPC   NC332759   2.772  13.615   9.453
 7440POPC   PO432760   2.752  13.607   9.153
 7440POPC   GL132761   2.806  13.640   8.853
 7440POPC   GL232762   2.647  13.663   8.853
 7440POPC   C1A32763   2.768  13.621   8.553
 7440POPC   D2A32764   2.777  13.662   8.253
 7440POPC   C3A32765   2.764  13.599   7.953
 7440POPC   C4A32766   2.785  13.603   7.653
 7440POPC   C1B32767   2.571  13.828   8.553
 7440POPC   C2B32768   2.550  13.831   8.253
 7440POPC   C3B32769   2.583  13.766   7.953
 7440POPC   C4B32770   2.620  13.749   7.653
 7441POPC   NC332771   5.088  28.367   9.453
 7441POPC   PO432772   5.072  28.322   9.153
 7441POPC   GL132773   5.105  28.390   8.853
 7441POPC   GL232774   5.166  28.531   8.853
 7441POPC   C1A32775   5.047  28.410   8.553
 7441POPC   D2A32776   5.099  28.406   8.253
 7441POPC   C3A32777   5.128  28.374   7.953
 7441POPC   C4A32778   5.088  28.412   7.653
 7441POPC   C1B32779   5.215  28.592   8.553
 7441POPC   C2B32780   5.191  28.587   8.253
 7441POPC   C3B32781   5.236  28.598   7.953
 7441POPC   C4B32782   5.227  28.619   7.653
 7442POPC   NC332783  36.909   2.812   9.453
 7442POPC   PO432784  36.944   2.806   9.153
 7442POPC   GL132785  36.869   2.720   8.853
 7442POPC   GL232786  36.770   2.809   8.853
 7442POPC   C1A32787  36.945   2.737   8.553
 7442POPC   D2A32788  36.866   2.760   8.253
 7442POPC   C3A32789  36.897   2.796   7.953
 7442POPC   C4A32790  36.926   2.745   7.653
 7442POPC   C1B32791  36.701   2.863   8.553
 7442POPC   C2B32792  36.651   2.861   8.253
 7442POPC   C3B32793  36.639   2.838   7.953
 7442POPC   C4B32794  36.653   2.845   7.653
 7443POPC   NC332795  10.559  38.442   9.453
 7443POPC   PO432796  10.557  38.479   9.153
 7443POPC   GL132797  10.545  38.441   8.853
 7443POPC   GL232798  10.501  38.560   8.853
 7443POPC   C1A32799  10.541  38.411   8.553
 7443POPC   D2A32800  10.509  38.490   8.253
 7443POPC   C3A32801  10.559  38.425   7.953
 7443POPC   C4A32802  10.554  38.470   7.653
 7443POPC   C1B32803  10.524  38.655   8.553
 7443POPC   C2B32804  10.477  38.697   8.253
 7443POPC   C3B32805  10.487  38.729   7.953
 7443POPC   C4B32806  10.506  38.754   7.653
 7444POPC   NC332807  13.624  15.913   9.453
 7444POPC   PO432808  13.579  15.998   9.153
 7444POPC   GL132809  13.667  15.978   8.853
 7444POPC   GL232810  13.549  15.901   8.853
 7444POPC   C1A32811  13.616  15.983   8.553
 7444POPC   D2A32812  13.616  15.906   8.253
 7444POPC   C3A32813  13.613  15.964   7.953
 7444POPC   C4A32814  13.647  15.976   7.653
 7444POPC   C1B32815  13.416  15.832   8.553
 7444POPC   C2B32816  13.415  15.865   8.253
 7444POPC   C3B32817  13.386  15.897   7.953
 7444POPC   C4B32818  13.361  15.879   7.653
 7445POPC   NC332819   2.801  36.868   9.453
 7445POPC   PO432820   2.814  36.917   9.153
 7445POPC   GL132821   2.733  36.882   8.853
 7445POPC   GL232822   2.603  36.942   8.853
 7445POPC   C1A32823   2.744  36.896   8.553
 7445POPC   D2A32824   2.741  36.903   8.253
 7445POPC   C3A32825   2.798  36.919   7.953
 7445POPC   C4A32826   2.720  36.875   7.653
 7445POPC   C1B32827   2.541  36.914   8.553
 7445POPC   C2B32828   2.478  36.954   8.253
 7445POPC   C3B32829   2.558  36.935   7.953
 7445POPC   C4B32830   2.563  36.991   7.653
 7446POPC   NC332831  14.446  40.788   9.453
 7446POPC   PO432832  14.404  40.818   9.153
 7446POPC   GL132833  14.435  40.780   8.853
 7446POPC   GL232834  14.492  40.859   8.853
 7446POPC   C1A32835  14.359  40.786   8.553
 7446POPC   D2A32836  14.452  40.779   8.253
 7446POPC   C3A32837  14.374  40.782   7.953
 7446POPC   C4A32838  14.424  40.776   7.653
 7446POPC   C1B32839  14.596  40.916   8.553
 7446POPC   C2B32840  14.644  40.914   8.253
 7446POPC   C3B32841  14.611  40.895   7.953
 7446POPC   C4B32842  14.592  40.881   7.653
 7447POPC   NC332843  25.269  32.286   9.453
 7447POPC   PO432844  25.240  32.199   9.153
 7447POPC   GL132845  25.299  32.240   8.853
 7447POPC   GL232846  25.210  32.333   8.853
 7447POPC   C1A32847  25.281  32.227   8.553
 7447POPC   D2A32848  25.298  32.292   8.253
 7447POPC   C3A32849  25.217  32.219   7.953
 7447POPC   C4A32850  25.286  32.280   7.653
 7447POPC   C1B32851  25.268  32.494   8.553
 7447POPC   C2B32852  25.241  32.485   8.253
 7447POPC   C3B32853  25.212  32.476   7.953
 7447POPC   C4B32854  25.184  32.459   7.653
 7448POPC   NC332855  20.597  43.063   9.453
 7448POPC   PO432856  20.572  43.097   9.153
 7448POPC   GL132857  20.601  43.071   8.853
 7448POPC   GL232858  20.596  43.268   8.853
 7448POPC   C1A32859  20.575  43.130   8.553
 7448POPC   D2A32860  20.564  43.076   8.253
 7448POPC   C3A32861  20.652  43.096   7.953
 7448POPC   C4A32862  20.599  43.080   7.653
 7448POPC   C1B32863  20.537  43.377   8.553
 7448POPC   C2B32864  20.600  43.353   8.253
 7448POPC   C3B32865  20.582  43.345   7.953
 7448POPC   C4B32866  20.614  43.317   7.653
 7449POPC   NC332867  44.674  19.861   9.453
 7449POPC   PO432868  44.681  19.870   9.153
 7449POPC   GL132869  44.707  19.820   8.853
 7449POPC   GL232870  44.586  19.842   8.853
 7449POPC   C1A32871  44.688  19.786   8.553
 7449POPC   D2A32872  44.671  19.811   8.253
 7449POPC   C3A32873  44.617  19.818   7.953
 7449POPC   C4A32874  44.705  19.877   7.653
 7449POPC   C1B32875  44.392  19.937   8.553
 7449POPC   C2B32876  44.389  19.950   8.253
 7449POPC   C3B32877  44.435  19.962   7.953
 7449POPC   C4B32878  44.440  19.882   7.653
 7450POPC   NC332879   5.896   7.413   9.453
 7450POPC   PO432880   5.854   7.449   9.153
 7450POPC   GL132881   5.882   7.464   8.853
 7450POPC   GL232882   5.710   7.512   8.853
 7450POPC   C1A32883   5.902   7.411   8.553
 7450POPC   D2A32884   5.903   7.408   8.253
 7450POPC   C3A32885   5.858   7.407   7.953
 7450POPC   C4A32886   5.872   7.384   7.653
 7450POPC   C1B32887   5.649   7.547   8.553
 7450POPC   C2B32888   5.694   7.587   8.253
 7450POPC   C3B32889   5.663   7.532   7.953
 7450POPC   C4B32890   5.640   7.564   7.653
 7451POPC   NC332891  22.210   5.838   9.453
 7451POPC   PO432892  22.141   5.885   9.153
 7451POPC   GL132893  22.127   5.857   8.853
 7451POPC   GL232894  22.110   6.012   8.853
 7451POPC   C1A32895  22.171   5.871   8.553
 7451POPC   D2A32896  22.211   5.848   8.253
 7451POPC   C3A32897  22.195   5.881   7.953
 7451POPC   C4A32898  22.123   5.908   7.653
 7451POPC   C1B32899  22.067   6.046   8.553
 7451POPC   C2B32900  21.999   6.100   8.253
 7451POPC   C3B32901  22.069   6.126   7.953
 7451POPC   C4B32902  22.005   6.094   7.653
 7452POPC   NC332903  24.463  15.177   9.453
 7452POPC   PO432904  24.526  15.228   9.153
 7452POPC   GL132905  24.537  15.140   8.853
 7452POPC   GL232906  24.637  15.138   8.853
 7452POPC   C1A32907  24.510  15.221   8.553
 7452POPC   D2A32908  24.486  15.159   8.253
 7452POPC   C3A32909  24.462  15.161   7.953
 7452POPC   C4A32910  24.473  15.147   7.653
 7452POPC   C1B32911  24.705  15.047   8.553
 7452POPC   C2B32912  24.742  15.034   8.253
 7452POPC   C3B32913  24.749  15.084   7.953
 7452POPC   C4B32914  24.670  15.020   7.653
 7453POPC   NC332915  33.780  16.766   9.453
 7453POPC   PO432916  33.774  16.779   9.153
 7453POPC   GL132917  33.764  16.771   8.853
 7453POPC   GL232918  33.698  16.762   8.853
 7453POPC   C1A32919  33.821  16.691   8.553
 7453POPC   D2A32920  33.759  16.742   8.253
 7453POPC   C3A32921  33.847  16.696   7.953
 7453POPC   C4A32922  33.773  16.730   7.653
 7453POPC   C1B32923  33.556  16.889   8.553
 7453POPC   C2B32924  33.606  16.901   8.253
 7453POPC   C3B32925  33.622  16.870   7.953
 7453POPC   C4B32926  33.600  16.840   7.653
 7454POPC   NC332927   9.731  24.502   9.453
 7454POPC   PO432928   9.748  24.489   9.153
 7454POPC   GL132929   9.789  24.487   8.853
 7454POPC   GL232930   9.696  24.628   8.853
 7454POPC   C1A32931   9.796  24.504   8.553
 7454POPC   D2A32932   9.770  24.528   8.253
 7454POPC   C3A32933   9.712  24.442   7.953
 7454POPC   C4A32934   9.735  24.453   7.653
 7454POPC   C1B32935   9.602  24.721   8.553
 7454POPC   C2B32936   9.643  24.663   8.253
 7454POPC   C3B32937   9.615  24.705   7.953
 7454POPC   C4B32938   9.608  24.660   7.653
 7455POPC   NC332939  34.586  26.783   9.453
 7455POPC   PO432940  34.570  26.782   9.153
 7455POPC   GL132941  34.528  26.773   8.853
 7455POPC   GL232942  34.441  26.786   8.853
 7455POPC   C1A32943  34.625  26.775   8.553
 7455POPC   D2A32944  34.624  26.857   8.253
 7455POPC   C3A32945  34.556  26.827   7.953
 7455POPC   C4A32946  34.551  26.839   7.653
 7455POPC   C1B32947  34.286  26.857   8.553
 7455POPC   C2B32948  34.313  26.790   8.253
 7455POPC   C3B32949  34.366  26.838   7.953
 7455POPC   C4B32950  34.279  26.796   7.653
 7456POPC   NC332951   2.799  15.138   9.453
 7456POPC   PO432952   2.797  15.131   9.153
 7456POPC   GL132953   2.765  15.201   8.853
 7456POPC   GL232954   2.610  15.217   8.853
 7456POPC   C1A32955   2.760  15.130   8.553
 7456POPC   D2A32956   2.793  15.205   8.253
 7456POPC   C3A32957   2.781  15.174   7.953
 7456POPC   C4A32958   2.742  15.148   7.653
 7456POPC   C1B32959   2.526  15.213   8.553
 7456POPC   C2B32960   2.560  15.217   8.253
 7456POPC   C3B32961   2.504  15.250   7.953
 7456POPC   C4B32962   2.504  15.208   7.653
 7457POPC   NC332963  27.616  42.311   9.453
 7457POPC   PO432964  27.585  42.315   9.153
 7457POPC   GL132965  27.627  42.323   8.853
 7457POPC   GL232966  27.487  42.303   8.853
 7457POPC   C1A32967  27.547  42.306   8.553
 7457POPC   D2A32968  27.589  42.285   8.253
 7457POPC   C3A32969  27.611  42.335   7.953
 7457POPC   C4A32970  27.617  42.359   7.653
 7457POPC   C1B32971  27.361  42.141   8.553
 7457POPC   C2B32972  27.413  42.202   8.253
 7457POPC   C3B32973  27.413  42.124   7.953
 7457POPC   C4B32974  27.427  42.148   7.653
 7458POPC   NC332975  32.213  29.148   9.453
 7458POPC   PO432976  32.259  29.159   9.153
 7458POPC   GL132977  32.241  29.130   8.853
 7458POPC   GL232978  32.348  29.066   8.853
 7458POPC   C1A32979  32.262  29.185   8.553
 7458POPC   D2A32980  32.235  29.112   8.253
 7458POPC   C3A32981  32.242  29.126   7.953
 7458POPC   C4A32982  32.249  29.147   7.653
 7458POPC   C1B32983  32.478  29.021   8.553
 7458POPC   C2B32984  32.503  29.030   8.253
 7458POPC   C3B32985  32.496  28.976   7.953
 7458POPC   C4B32986  32.486  29.007   7.653
 7459POPC   NC332987   5.044   7.469   9.453
 7459POPC   PO432988   5.140   7.401   9.153
 7459POPC   GL132989   5.118   7.404   8.853
 7459POPC   GL232990   5.063   7.545   8.853
 7459POPC   C1A32991   5.076   7.465   8.553
 7459POPC   D2A32992   5.080   7.443   8.253
 7459POPC   C3A32993   5.106   7.371   7.953
 7459POPC   C4A32994   5.105   7.458   7.653
 7459POPC   C1B32995   5.044   7.658   8.553
 7459POPC   C2B32996   5.035   7.696   8.253
 7459POPC   C3B32997   5.012   7.630   7.953
 7459POPC   C4B32998   5.000   7.706   7.653
 7460POPC   NC332999  43.151  36.871   9.453
 7460POPC   PO433000  43.121  36.893   9.153
 7460POPC   GL133001  43.140  36.871   8.853
 7460POPC   GL233002  43.206  36.831   8.853
 7460POPC   C1A33003  43.156  36.897   8.553
 7460POPC   D2A33004  43.144  36.877   8.253
 7460POPC   C3A33005  43.157  36.913   7.953
 7460POPC   C4A33006  43.087  36.927   7.653
 7460POPC   C1B33007  43.259  36.662   8.553
 7460POPC   C2B33008  43.180  36.723   8.253
 7460POPC   C3B33009  43.212  36.661   7.953
 7460POPC   C4B33010  43.235  36.651   7.653
 7461POPC   NC333011   5.101  10.564   9.453
 7461POPC   PO433012   5.119  10.540   9.153
 7461POPC   GL133013   5.095  10.533   8.853
 7461POPC   GL233014   5.256  10.482   8.853
 7461POPC   C1A33015   5.058  10.533   8.553
 7461POPC   D2A33016   5.095  10.494   8.253
 7461POPC   C3A33017   5.079  10.507   7.953
 7461POPC   C4A33018   5.120  10.502   7.653
 7461POPC   C1B33019   5.365  10.535   8.553
 7461POPC   C2B33020   5.353  10.481   8.253
 7461POPC   C3B33021   5.313  10.533   7.953
 7461POPC   C4B33022   5.320  10.486   7.653
 7462POPC   NC333023  13.644  41.544   9.453
 7462POPC   PO433024  13.677  41.540   9.153
 7462POPC   GL133025  13.621  41.601   8.853
 7462POPC   GL233026  13.702  41.473   8.853
 7462POPC   C1A33027  13.650  41.600   8.553
 7462POPC   D2A33028  13.589  41.588   8.253
 7462POPC   C3A33029  13.602  41.595   7.953
 7462POPC   C4A33030  13.674  41.593   7.653
 7462POPC   C1B33031  13.792  41.340   8.553
 7462POPC   C2B33032  13.756  41.416   8.253
 7462POPC   C3B33033  13.843  41.415   7.953
 7462POPC   C4B33034  13.819  41.389   7.653
 7463POPC   NC333035  19.877  35.309   9.453
 7463POPC   PO433036  19.856  35.340   9.153
 7463POPC   GL133037  19.878  35.363   8.853
 7463POPC   GL233038  19.922  35.521   8.853
 7463POPC   C1A33039  19.807  35.327   8.553
 7463POPC   D2A33040  19.811  35.381   8.253
 7463POPC   C3A33041  19.856  35.334   7.953
 7463POPC   C4A33042  19.828  35.340   7.653
 7463POPC   C1B33043  19.882  35.552   8.553
 7463POPC   C2B33044  19.887  35.635   8.253
 7463POPC   C3B33045  19.884  35.600   7.953
 7463POPC   C4B33046  19.899  35.564   7.653
 7464POPC   NC333047   5.069  34.576   9.453
 7464POPC   PO433048   5.083  34.589   9.153
 7464POPC   GL133049   5.136  34.603   8.853
 7464POPC   GL233050   4.999  34.438   8.853
 7464POPC   C1A33051   5.112  34.567   8.553
 7464POPC   D2A33052   5.099  34.622   8.253
 7464POPC   C3A33053   5.076  34.532   7.953
 7464POPC   C4A33054   5.068  34.529   7.653
 7464POPC   C1B33055   5.001  34.384   8.553
 7464POPC   C2B33056   4.996  34.300   8.253
 7464POPC   C3B33057   5.037  34.362   7.953
 7464POPC   C4B33058   4.981  34.388   7.653
 7465POPC   NC333059   9.721   7.440   9.453
 7465POPC   PO433060   9.767   7.411   9.153
 7465POPC   GL133061   9.736   7.453   8.853
 7465POPC   GL233062   9.858   7.497   8.853
 7465POPC   C1A33063   9.787   7.432   8.553
 7465POPC   D2A33064   9.732   7.448   8.253
 7465POPC   C3A33065   9.755   7.432   7.953
 7465POPC   C4A33066   9.708   7.420   7.653
 7465POPC   C1B33067  10.021   7.449   8.553
 7465POPC   C2B33068  10.012   7.457   8.253
 7465POPC   C3B33069  10.027   7.485   7.953
 7465POPC   C4B33070   9.951   7.473   7.653
 7466POPC   NC333071  21.384  16.736   9.453
 7466POPC   PO433072  21.429  16.773   9.153
 7466POPC   GL133073  21.434  16.764   8.853
 7466POPC   GL233074  21.337  16.628   8.853
 7466POPC   C1A33075  21.411  16.720   8.553
 7466POPC   D2A33076  21.383  16.747   8.253
 7466POPC   C3A33077  21.365  16.716   7.953
 7466POPC   C4A33078  21.430  16.769   7.653
 7466POPC   C1B33079  21.356  16.529   8.553
 7466POPC   C2B33080  21.398  16.490   8.253
 7466POPC   C3B33081  21.329  16.473   7.953
 7466POPC   C4B33082  21.403  16.439   7.653
 7467POPC   NC333083  39.182  40.755   9.453
 7467POPC   PO433084  39.251  40.755   9.153
 7467POPC   GL133085  39.264  40.753   8.853
 7467POPC   GL233086  39.096  40.776   8.853
 7467POPC   C1A33087  39.229  40.817   8.553
 7467POPC   D2A33088  39.261  40.763   8.253
 7467POPC   C3A33089  39.184  40.811   7.953
 7467POPC   C4A33090  39.272  40.797   7.653
 7467POPC   C1B33091  39.022  40.734   8.553
 7467POPC   C2B33092  38.949  40.684   8.253
 7467POPC   C3B33093  38.962  40.770   7.953
 7467POPC   C4B33094  39.024  40.700   7.653
 7468POPC   NC333095  25.229  44.654   9.453
 7468POPC   PO433096  25.283  44.647   9.153
 7468POPC   GL133097  25.252  44.689   8.853
 7468POPC   GL233098  25.370  44.511   8.853
 7468POPC   C1A33099  25.257  44.674   8.553
 7468POPC   D2A33100  25.266  44.634   8.253
 7468POPC   C3A33101  25.282  44.635   7.953
 7468POPC   C4A33102  25.220  44.682   7.653
 7468POPC   C1B33103  25.383  44.408   8.553
 7468POPC   C2B33104  25.429  44.419   8.253
 7468POPC   C3B33105  25.369  44.466   7.953
 7468POPC   C4B33106  25.439  44.469   7.653
 7469POPC   NC333107  17.466  18.290   9.453
 7469POPC   PO433108  17.553  18.314   9.153
 7469POPC   GL133109  17.519  18.263   8.853
 7469POPC   GL233110  17.615  18.208   8.853
 7469POPC   C1A33111  17.493  18.325   8.553
 7469POPC   D2A33112  17.534  18.283   8.253
 7469POPC   C3A33113  17.550  18.317   7.953
 7469POPC   C4A33114  17.515  18.303   7.653
 7469POPC   C1B33115  17.665  18.146   8.553
 7469POPC   C2B33116  17.655  18.119   8.253
 7469POPC   C3B33117  17.654  18.162   7.953
 7469POPC   C4B33118  17.692  18.140   7.653
 7470POPC   NC333119   5.878  26.824   9.453
 7470POPC   PO433120   5.895  26.796   9.153
 7470POPC   GL133121   5.875  26.771   8.853
 7470POPC   GL233122   5.968  26.887   8.853
 7470POPC   C1A33123   5.828  26.786   8.553
 7470POPC   D2A33124   5.850  26.811   8.253
 7470POPC   C3A33125   5.823  26.782   7.953
 7470POPC   C4A33126   5.911  26.787   7.653
 7470POPC   C1B33127   5.987  27.033   8.553
 7470POPC   C2B33128   6.086  26.998   8.253
 7470POPC   C3B33129   6.033  26.957   7.953
 7470POPC   C4B33130   6.044  26.998   7.653
 7471POPC   NC333131  24.444  32.296   9.453
 7471POPC   PO433132  24.490  32.244   9.153
 7471POPC   GL133133  24.533  32.199   8.853
 7471POPC   GL233134  24.477  32.116   8.853
 7471POPC   C1A33135  24.496  32.265   8.553
 7471POPC   D2A33136  24.535  32.279   8.253
 7471POPC   C3A33137  24.485  32.210   7.953
 7471POPC   C4A33138  24.470  32.285   7.653
 7471POPC   C1B33139  24.379  32.004   8.553
 7471POPC   C2B33140  24.435  32.052   8.253
 7471POPC   C3B33141  24.435  32.037   7.953
 7471POPC   C4B33142  24.409  31.976   7.653
 7472POPC   NC333143   1.999  39.985   9.453
 7472POPC   PO433144   1.958  40.052   9.153
 7472POPC   GL133145   1.976  40.030   8.853
 7472POPC   GL233146   1.980  39.882   8.853
 7472POPC   C1A33147   1.953  40.041   8.553
 7472POPC   D2A33148   1.959  39.999   8.253
 7472POPC   C3A33149   2.013  39.963   7.953
 7472POPC   C4A33150   2.020  40.012   7.653
 7472POPC   C1B33151   1.896  39.750   8.553
 7472POPC   C2B33152   1.932  39.741   8.253
 7472POPC   C3B33153   1.903  39.794   7.953
 7472POPC   C4B33154   1.949  39.774   7.653
 7473POPC   NC333155   3.538  13.593   9.453
 7473POPC   PO433156   3.558  13.633   9.153
 7473POPC   GL133157   3.551  13.627   8.853
 7473POPC   GL233158   3.548  13.549   8.853
 7473POPC   C1A33159   3.586  13.601   8.553
 7473POPC   D2A33160   3.552  13.594   8.253
 7473POPC   C3A33161   3.506  13.584   7.953
 7473POPC   C4A33162   3.550  13.628   7.653
 7473POPC   C1B33163   3.515  13.339   8.553
 7473POPC   C2B33164   3.502  13.329   8.253
 7473POPC   C3B33165   3.497  13.397   7.953
 7473POPC   C4B33166   3.536  13.336   7.653
 7474POPC   NC333167  43.147  41.549   9.453
 7474POPC   PO433168  43.084  41.535   9.153
 7474POPC   GL133169  43.157  41.576   8.853
 7474POPC   GL233170  43.025  41.460   8.853
 7474POPC   C1A33171  43.090  41.589   8.553
 7474POPC   D2A33172  43.082  41.589   8.253
 7474POPC   C3A33173  43.152  41.599   7.953
 7474POPC   C4A33174  43.127  41.518   7.653
 7474POPC   C1B33175  43.002  41.344   8.553
 7474POPC   C2B33176  42.981  41.302   8.253
 7474POPC   C3B33177  42.965  41.355   7.953
 7474POPC   C4B33178  42.921  41.305   7.653
 7475POPC   NC333179  44.711   1.170   9.453
 7475POPC   PO433180  44.661   1.213   9.153
 7475POPC   GL133181  44.680   1.229   8.853
 7475POPC   GL233182  44.602   1.282   8.853
 7475POPC   C1A33183  44.688   1.172   8.553
 7475POPC   D2A33184  44.662   1.215   8.253
 7475POPC   C3A33185  44.682   1.238   7.953
 7475POPC   C4A33186  44.648   1.257   7.653
 7475POPC   C1B33187  44.484   1.429   8.553
 7475POPC   C2B33188  44.510   1.440   8.253
 7475POPC   C3B33189  44.505   1.355   7.953
 7475POPC   C4B33190  44.532   1.430   7.653
 7476POPC   NC333191  24.444  33.008   9.453
 7476POPC   PO433192  24.484  33.034   9.153
 7476POPC   GL133193  24.474  33.047   8.853
 7476POPC   GL233194  24.430  33.144   8.853
 7476POPC   C1A33195  24.494  32.976   8.553
 7476POPC   D2A33196  24.511  33.053   8.253
 7476POPC   C3A33197  24.512  33.048   7.953
 7476POPC   C4A33198  24.536  33.007   7.653
 7476POPC   C1B33199  24.308  33.213   8.553
 7476POPC   C2B33200  24.341  33.238   8.253
 7476POPC   C3B33201  24.304  33.206   7.953
 7476POPC   C4B33202  24.295  33.237   7.653
 7477POPC   NC333203  29.885  41.564   9.453
 7477POPC   PO433204  29.878  41.522   9.153
 7477POPC   GL133205  29.937  41.573   8.853
 7477POPC   GL233206  30.069  41.518   8.853
 7477POPC   C1A33207  29.944  41.597   8.553
 7477POPC   D2A33208  29.906  41.546   8.253
 7477POPC   C3A33209  29.910  41.518   7.953
 7477POPC   C4A33210  29.891  41.546   7.653
 7477POPC   C1B33211  30.201  41.472   8.553
 7477POPC   C2B33212  30.199  41.510   8.253
 7477POPC   C3B33213  30.161  41.531   7.953
 7477POPC   C4B33214  30.167  41.543   7.653
 7478POPC   NC333215  44.689  32.244   9.453
 7478POPC   PO433216  44.623  32.297   9.153
 7478POPC   GL133217  44.639  32.246   8.853
 7478POPC   GL233218  44.745  32.370   8.853
 7478POPC   C1A33219  44.652  32.284   8.553
 7478POPC   D2A33220  44.633  32.297   8.253
 7478POPC   C3A33221  44.674  32.214   7.953
 7478POPC   C4A33222  44.687  32.222   7.653
 7478POPC   C1B33223  44.796  32.448   8.553
 7478POPC   C2B33224  44.745  32.514   8.253
 7478POPC   C3B33225  44.736  32.467   7.953
 7478POPC   C4B33226  44.729  32.495   7.653
 7479POPC   NC333227  15.907  15.229   9.453
 7479POPC   PO433228  15.967  15.173   9.153
 7479POPC   GL133229  15.966  15.220   8.853
 7479POPC   GL233230  15.999  15.313   8.853
 7479POPC   C1A33231  15.918  15.133   8.553
 7479POPC   D2A33232  15.969  15.200   8.253
 7479POPC   C3A33233  15.940  15.207   7.953
 7479POPC   C4A33234  15.909  15.219   7.653
 7479POPC   C1B33235  16.104  15.391   8.553
 7479POPC   C2B33236  16.088  15.373   8.253
 7479POPC   C3B33237  16.105  15.369   7.953
 7479POPC   C4B33238  16.061  15.370   7.653
 7480POPC   NC333239  26.794  26.043   9.453
 7480POPC   PO433240  26.795  26.016   9.153
 7480POPC   GL133241  26.867  26.003   8.853
 7480POPC   GL233242  26.707  26.107   8.853
 7480POPC   C1A33243  26.844  26.018   8.553
 7480POPC   D2A33244  26.806  26.049   8.253
 7480POPC   C3A33245  26.781  26.075   7.953
 7480POPC   C4A33246  26.824  26.044   7.653
 7480POPC   C1B33247  26.657  26.161   8.553
 7480POPC   C2B33248  26.617  26.228   8.253
 7480POPC   C3B33249  26.617  26.150   7.953
 7480POPC   C4B33250  26.633  26.171   7.653
 7481POPC   NC333251  41.521   5.127   9.453
 7481POPC   PO433252  41.560   5.103   9.153
 7481POPC   GL133253  41.582   5.046   8.853
 7481POPC   GL233254  41.653   5.016   8.853
 7481POPC   C1A33255  41.525   5.120   8.553
 7481POPC   D2A33256  41.561   5.143   8.253
 7481POPC   C3A33257  41.531   5.092   7.953
 7481POPC   C4A33258  41.515   5.070   7.653
 7481POPC   C1B33259  41.621   4.823   8.553
 7481POPC   C2B33260  41.660   4.855   8.253
 7481POPC   C3B33261  41.676   4.833   7.953
 7481POPC   C4B33262  41.686   4.910   7.653
 7482POPC   NC333263   4.316   2.783   9.453
 7482POPC   PO433264   4.346   2.752   9.153
 7482POPC   GL133265   4.336   2.745   8.853
 7482POPC   GL233266   4.259   2.710   8.853
 7482POPC   C1A33267   4.270   2.718   8.553
 7482POPC   D2A33268   4.312   2.778   8.253
 7482POPC   C3A33269   4.275   2.793   7.953
 7482POPC   C4A33270   4.272   2.796   7.653
 7482POPC   C1B33271   4.103   2.575   8.553
 7482POPC   C2B33272   4.128   2.565   8.253
 7482POPC   C3B33273   4.159   2.631   7.953
 7482POPC   C4B33274   4.172   2.565   7.653
 7483POPC   NC333275  15.982  31.464   9.453
 7483POPC   PO433276  15.951  31.520   9.153
 7483POPC   GL133277  15.990  31.496   8.853
 7483POPC   GL233278  16.013  31.584   8.853
 7483POPC   C1A33279  15.912  31.475   8.553
 7483POPC   D2A33280  15.940  31.454   8.253
 7483POPC   C3A33281  15.951  31.492   7.953
 7483POPC   C4A33282  15.964  31.483   7.653
 7483POPC   C1B33283  16.086  31.672   8.553
 7483POPC   C2B33284  16.053  31.700   8.253
 7483POPC   C3B33285  16.089  31.744   7.953
 7483POPC   C4B33286  16.039  31.684   7.653
 7484POPC   NC333287   4.295  15.145   9.453
 7484POPC   PO433288   4.287  15.209   9.153
 7484POPC   GL133289   4.323  15.140   8.853
 7484POPC   GL233290   4.236  15.068   8.853
 7484POPC   C1A33291   4.279  15.166   8.553
 7484POPC   D2A33292   4.358  15.184   8.253
 7484POPC   C3A33293   4.312  15.133   7.953
 7484POPC   C4A33294   4.310  15.196   7.653
 7484POPC   C1B33295   4.130  15.033   8.553
 7484POPC   C2B33296   4.170  15.045   8.253
 7484POPC   C3B33297   4.103  15.036   7.953
 7484POPC   C4B33298   4.177  14.987   7.653
 7485POPC   NC333299   5.081  32.997   9.453
 7485POPC   PO433300   5.053  33.004   9.153
 7485POPC   GL133301   5.066  33.072   8.853
 7485POPC   GL233302   5.129  32.942   8.853
 7485POPC   C1A33303   5.092  33.034   8.553
 7485POPC   D2A33304   5.085  33.035   8.253
 7485POPC   C3A33305   5.115  33.006   7.953
 7485POPC   C4A33306   5.069  32.976   7.653
 7485POPC   C1B33307   5.238  32.867   8.553
 7485POPC   C2B33308   5.298  32.836   8.253
 7485POPC   C3B33309   5.227  32.872   7.953
 7485POPC   C4B33310   5.229  32.859   7.653
 7486POPC   NC333311  28.377  31.514   9.453
 7486POPC   PO433312  28.384  31.431   9.153
 7486POPC   GL133313  28.411  31.507   8.853
 7486POPC   GL233314  28.441  31.564   8.853
 7486POPC   C1A33315  28.321  31.462   8.553
 7486POPC   D2A33316  28.396  31.502   8.253
 7486POPC   C3A33317  28.414  31.438   7.953
 7486POPC   C4A33318  28.367  31.439   7.653
 7486POPC   C1B33319  28.457  31.701   8.553
 7486POPC   C2B33320  28.465  31.660   8.253
 7486POPC   C3B33321  28.490  31.675   7.953
 7486POPC   C4B33322  28.458  31.698   7.653
 7487POPC   NC333323  19.878  22.124   9.453
 7487POPC   PO433324  19.837  22.212   9.153
 7487POPC   GL133325  19.853  22.190   8.853
 7487POPC   GL233326  19.779  22.275   8.853
 7487POPC   C1A33327  19.786  22.114   8.553
 7487POPC   D2A33328  19.791  22.143   8.253
 7487POPC   C3A33329  19.812  22.136   7.953
 7487POPC   C4A33330  19.830  22.183   7.653
 7487POPC   C1B33331  19.848  22.368   8.553
 7487POPC   C2B33332  19.798  22.437   8.253
 7487POPC   C3B33333  19.860  22.392   7.953
 7487POPC   C4B33334  19.775  22.405   7.653
 7488POPC   NC333335  20.591  36.079   9.453
 7488POPC   PO433336  20.652  36.099   9.153
 7488POPC   GL133337  20.594  36.166   8.853
 7488POPC   GL233338  20.499  36.186   8.853
 7488POPC   C1A33339  20.614  36.176   8.553
 7488POPC   D2A33340  20.575  36.085   8.253
 7488POPC   C3A33341  20.569  36.163   7.953
 7488POPC   C4A33342  20.620  36.094   7.653
 7488POPC   C1B33343  20.395  36.258   8.553
 7488POPC   C2B33344  20.357  36.222   8.253
 7488POPC   C3B33345  20.423  36.306   7.953
 7488POPC   C4B33346  20.396  36.314   7.653
 7489POPC   NC333347  39.191  24.494   9.453
 7489POPC   PO433348  39.226  24.470   9.153
 7489POPC   GL133349  39.238  24.446   8.853
 7489POPC   GL233350  39.299  24.586   8.853
 7489POPC   C1A33351  39.255  24.449   8.553
 7489POPC   D2A33352  39.249  24.514   8.253
 7489POPC   C3A33353  39.259  24.533   7.953
 7489POPC   C4A33354  39.256  24.514   7.653
 7489POPC   C1B33355  39.440  24.646   8.553
 7489POPC   C2B33356  39.396  24.693   8.253
 7489POPC   C3B33357  39.405  24.723   7.953
 7489POPC   C4B33358  39.352  24.701   7.653
 7490POPC   NC333359  15.987  42.320   9.453
 7490POPC   PO433360  15.955  42.368   9.153
 7490POPC   GL133361  15.937  42.310   8.853
 7490POPC   GL233362  16.018  42.301   8.853
 7490POPC   C1A33363  15.965  42.367   8.553
 7490POPC   D2A33364  15.913  42.384   8.253
 7490POPC   C3A33365  15.953  42.349   7.953
 7490POPC   C4A33366  15.948  42.328   7.653
 7490POPC   C1B33367  16.220  42.260   8.553
 7490POPC   C2B33368  16.196  42.219   8.253
 7490POPC   C3B33369  16.209  42.264   7.953
 7490POPC   C4B33370  16.208  42.185   7.653
 7491POPC   NC333371  12.828   5.081   9.453
 7491POPC   PO433372  12.840   5.090   9.153
 7491POPC   GL133373  12.892   5.112   8.853
 7491POPC   GL233374  12.954   5.003   8.853
 7491POPC   C1A33375  12.805   5.070   8.553
 7491POPC   D2A33376  12.877   5.093   8.253
 7491POPC   C3A33377  12.859   5.057   7.953
 7491POPC   C4A33378  12.814   5.109   7.653
 7491POPC   C1B33379  12.984   4.891   8.553
 7491POPC   C2B33380  13.018   4.939   8.253
 7491POPC   C3B33381  13.044   4.959   7.953
 7491POPC   C4B33382  13.024   4.873   7.653
 7492POPC   NC333383  20.574  32.210   9.453
 7492POPC   PO433384  20.641  32.234   9.153
 7492POPC   GL133385  20.561  32.221   8.853
 7492POPC   GL233386  20.629  32.096   8.853
 7492POPC   C1A33387  20.583  32.229   8.553
 7492POPC   D2A33388  20.568  32.264   8.253
 7492POPC   C3A33389  20.610  32.295   7.953
 7492POPC   C4A33390  20.603  32.227   7.653
 7492POPC   C1B33391  20.643  32.004   8.553
 7492POPC   C2B33392  20.607  31.989   8.253
 7492POPC   C3B33393  20.652  32.017   7.953
 7492POPC   C4B33394  20.634  32.029   7.653
 7493POPC   NC333395  32.248  34.599   9.453
 7493POPC   PO433396  32.266  34.543   9.153
 7493POPC   GL133397  32.203  34.610   8.853
 7493POPC   GL233398  32.189  34.438   8.853
 7493POPC   C1A33399  32.295  34.624   8.553
 7493POPC   D2A33400  32.221  34.556   8.253
 7493POPC   C3A33401  32.256  34.553   7.953
 7493POPC   C4A33402  32.232  34.548   7.653
 7493POPC   C1B33403  32.099  34.376   8.553
 7493POPC   C2B33404  32.065  34.414   8.253
 7493POPC   C3B33405  32.091  34.343   7.953
 7493POPC   C4B33406  32.060  34.394   7.653
 7494POPC   NC333407  44.615   5.124   9.453
 7494POPC   PO433408  44.704   5.061   9.153
 7494POPC   GL133409  44.641   5.122   8.853
 7494POPC   GL233410  44.693   4.992   8.853
 7494POPC   C1A33411  44.616   5.116   8.553
 7494POPC   D2A33412  44.658   5.138   8.253
 7494POPC   C3A33413  44.664   5.057   7.953
 7494POPC   C4A33414  44.632   5.075   7.653
 7494POPC   C1B33415  44.765   4.870   8.553
 7494POPC   C2B33416  44.761   4.886   8.253
 7494POPC   C3B33417  44.845   4.910   7.953
 7494POPC   C4B33418  44.838   4.912   7.653
 7495POPC   NC333419  34.598  38.484   9.453
 7495POPC   PO433420  34.568  38.415   9.153
 7495POPC   GL133421  34.563  38.481   8.853
 7495POPC   GL233422  34.601  38.564   8.853
 7495POPC   C1A33423  34.570  38.502   8.553
 7495POPC   D2A33424  34.549  38.464   8.253
 7495POPC   C3A33425  34.554  38.472   7.953
 7495POPC   C4A33426  34.550  38.451   7.653
 7495POPC   C1B33427  34.613  38.750   8.553
 7495POPC   C2B33428  34.628  38.707   8.253
 7495POPC   C3B33429  34.605  38.702   7.953
 7495POPC   C4B33430  34.605  38.740   7.653
 7496POPC   NC333431  22.914  40.748   9.453
 7496POPC   PO433432  22.910  40.754   9.153
 7496POPC   GL133433  22.949  40.778   8.853
 7496POPC   GL233434  23.089  40.759   8.853
 7496POPC   C1A33435  22.890  40.760   8.553
 7496POPC   D2A33436  22.890  40.814   8.253
 7496POPC   C3A33437  22.930  40.757   7.953
 7496POPC   C4A33438  22.986  40.814   7.653
 7496POPC   C1B33439  23.222  40.825   8.553
 7496POPC   C2B33440  23.190  40.813   8.253
 7496POPC   C3B33441  23.139  40.855   7.953
 7496POPC   C4B33442  23.192  40.806   7.653
 7497POPC   NC333443  14.424  15.968   9.453
 7497POPC   PO433444  14.388  15.926   9.153
 7497POPC   GL133445  14.439  16.003   8.853
 7497POPC   GL233446  14.342  15.857   8.853
 7497POPC   C1A33447  14.415  15.965   8.553
 7497POPC   D2A33448  14.436  15.958   8.253
 7497POPC   C3A33449  14.440  15.908   7.953
 7497POPC   C4A33450  14.428  15.925   7.653
 7497POPC   C1B33451  14.218  15.759   8.553
 7497POPC   C2B33452  14.264  15.757   8.253
 7497POPC   C3B33453  14.265  15.815   7.953
 7497POPC   C4B33454  14.218  15.755   7.653
 7498POPC   NC333455  12.894  13.607   9.453
 7498POPC   PO433456  12.820  13.666   9.153
 7498POPC   GL133457  12.812  13.631   8.853
 7498POPC   GL233458  12.966  13.582   8.853
 7498POPC   C1A33459  12.874  13.655   8.553
 7498POPC   D2A33460  12.887  13.649   8.253
 7498POPC   C3A33461  12.843  13.673   7.953
 7498POPC   C4A33462  12.874  13.624   7.653
 7498POPC   C1B33463  13.062  13.548   8.553
 7498POPC   C2B33464  13.052  13.555   8.253
 7498POPC   C3B33465  13.134  13.547   7.953
 7498POPC   C4B33466  13.130  13.524   7.653
 7499POPC   NC333467  39.982   3.588   9.453
 7499POPC   PO433468  40.015   3.516   9.153
 7499POPC   GL133469  40.014   3.524   8.853
 7499POPC   GL233470  40.067   3.653   8.853
 7499POPC   C1A33471  40.013   3.570   8.553
 7499POPC   D2A33472  40.035   3.551   8.253
 7499POPC   C3A33473  39.995   3.589   7.953
 7499POPC   C4A33474  40.030   3.548   7.653
 7499POPC   C1B33475  40.144   3.770   8.553
 7499POPC   C2B33476  40.108   3.789   8.253
 7499POPC   C3B33477  40.113   3.715   7.953
 7499POPC   C4B33478  40.127   3.783   7.653
 7500POPC   NC333479   0.439   3.520   9.453
 7500POPC   PO433480   0.430   3.504   9.153
 7500POPC   GL133481   0.431   3.590   8.853
 7500POPC   GL233482   0.355   3.617   8.853
 7500POPC   C1A33483   0.455   3.566   8.553
 7500POPC   D2A33484   0.407   3.534   8.253
 7500POPC   C3A33485   0.392   3.555   7.953
 7500POPC   C4A33486   0.434   3.508   7.653
 7500POPC   C1B33487   0.194   3.664   8.553
 7500POPC   C2B33488   0.248   3.619   8.253
 7500POPC   C3B33489   0.187   3.686   7.953
 7500POPC   C4B33490   0.239   3.643   7.653
 7501POPC   NC333491  43.911  31.439   9.453
 7501POPC   PO433492  43.920  31.512   9.153
 7501POPC   GL133493  43.934  31.437   8.853
 7501POPC   GL233494  43.918  31.414   8.853
 7501POPC   C1A33495  43.873  31.488   8.553
 7501POPC   D2A33496  43.905  31.424   8.253
 7501POPC   C3A33497  43.872  31.485   7.953
 7501POPC   C4A33498  43.844  31.455   7.653
 7501POPC   C1B33499  44.006  31.256   8.553
 7501POPC   C2B33500  44.006  31.266   8.253
 7501POPC   C3B33501  44.067  31.310   7.953
 7501POPC   C4B33502  44.002  31.250   7.653
 7502POPC   NC333503  14.438  33.055   9.453
 7502POPC   PO433504  14.453  33.034   9.153
 7502POPC   GL133505  14.409  32.978   8.853
 7502POPC   GL233506  14.515  32.958   8.853
 7502POPC   C1A33507  14.386  32.995   8.553
 7502POPC   D2A33508  14.440  33.073   8.253
 7502POPC   C3A33509  14.383  33.049   7.953
 7502POPC   C4A33510  14.376  33.021   7.653
 7502POPC   C1B33511  14.613  32.899   8.553
 7502POPC   C2B33512  14.587  32.878   8.253
 7502POPC   C3B33513  14.649  32.947   7.953
 7502POPC   C4B33514  14.644  32.902   7.653
 7503POPC   NC333515  37.700  43.855   9.453
 7503POPC   PO433516  37.634  43.886   9.153
 7503POPC   GL133517  37.657  43.914   8.853
 7503POPC   GL233518  37.615  43.968   8.853
 7503POPC   C1A33519  37.689  43.904   8.553
 7503POPC   D2A33520  37.712  43.911   8.253
 7503POPC   C3A33521  37.676  43.854   7.953
 7503POPC   C4A33522  37.714  43.899   7.653
 7503POPC   C1B33523  37.465  44.072   8.553
 7503POPC   C2B33524  37.471  44.019   8.253
 7503POPC   C3B33525  37.518  44.087   7.953
 7503POPC   C4B33526  37.461  44.014   7.653
 7504POPC   NC333527   8.183  29.904   9.453
 7504POPC   PO433528   8.243  29.911   9.153
 7504POPC   GL133529   8.163  29.896   8.853
 7504POPC   GL233530   8.245  30.029   8.853
 7504POPC   C1A33531   8.161  29.954   8.553
 7504POPC   D2A33532   8.234  29.950   8.253
 7504POPC   C3A33533   8.206  29.967   7.953
 7504POPC   C4A33534   8.219  29.948   7.653
 7504POPC   C1B33535   8.189  30.137   8.553
 7504POPC   C2B33536   8.265  30.143   8.253
 7504POPC   C3B33537   8.248  30.171   7.953
 7504POPC   C4B33538   8.199  30.142   7.653
 7505POPC   NC333539  24.516   2.769   9.453
 7505POPC   PO433540  24.514   2.723   9.153
 7505POPC   GL133541  24.476   2.731   8.853
 7505POPC   GL233542  24.405   2.783   8.853
 7505POPC   C1A33543  24.500   2.784   8.553
 7505POPC   D2A33544  24.454   2.745   8.253
 7505POPC   C3A33545  24.537   2.755   7.953
 7505POPC   C4A33546  24.529   2.722   7.653
 7505POPC   C1B33547  24.214   2.912   8.553
 7505POPC   C2B33548  24.245   2.865   8.253
 7505POPC   C3B33549  24.295   2.874   7.953
 7505POPC   C4B33550  24.264   2.869   7.653
 7506POPC   NC333551  19.815  27.556   9.453
 7506POPC   PO433552  19.841  27.572   9.153
 7506POPC   GL133553  19.816  27.607   8.853
 7506POPC   GL233554  19.800  27.461   8.853
 7506POPC   C1A33555  19.818  27.545   8.553
 7506POPC   D2A33556  19.854  27.634   8.253
 7506POPC   C3A33557  19.836  27.577   7.953
 7506POPC   C4A33558  19.875  27.575   7.653
 7506POPC   C1B33559  19.841  27.353   8.553
 7506POPC   C2B33560  19.841  27.358   8.253
 7506POPC   C3B33561  19.895  27.318   7.953
 7506POPC   C4B33562  19.871  27.381   7.653
 7507POPC   NC333563  17.539  43.116   9.453
 7507POPC   PO433564  17.501  43.127   9.153
 7507POPC   GL133565  17.512  43.095   8.853
 7507POPC   GL233566  17.595  43.128   8.853
 7507POPC   C1A33567  17.502  43.126   8.553
 7507POPC   D2A33568  17.538  43.113   8.253
 7507POPC   C3A33569  17.537  43.148   7.953
 7507POPC   C4A33570  17.520  43.116   7.653
 7507POPC   C1B33571  17.754  43.187   8.553
 7507POPC   C2B33572  17.740  43.160   8.253
 7507POPC   C3B33573  17.771  43.211   7.953
 7507POPC   C4B33574  17.747  43.217   7.653
 7508POPC   NC333575  40.036   5.855   9.453
 7508POPC   PO433576  40.051   5.916   9.153
 7508POPC   GL133577  40.016   5.905   8.853
 7508POPC   GL233578  39.898   5.912   8.853
 7508POPC   C1A33579  40.020   5.891   8.553
 7508POPC   D2A33580  40.044   5.824   8.253
 7508POPC   C3A33581  40.018   5.819   7.953
 7508POPC   C4A33582  40.041   5.881   7.653
 7508POPC   C1B33583  39.808   5.909   8.553
 7508POPC   C2B33584  39.728   5.963   8.253
 7508POPC   C3B33585  39.793   5.952   7.953
 7508POPC   C4B33586  39.767   5.875   7.653
 7509POPC   NC333587  38.443  33.828   9.453
 7509POPC   PO433588  38.433  33.810   9.153
 7509POPC   GL133589  38.465  33.822   8.853
 7509POPC   GL233590  38.398  33.946   8.853
 7509POPC   C1A33591  38.412  33.759   8.553
 7509POPC   D2A33592  38.468  33.831   8.253
 7509POPC   C3A33593  38.461  33.780   7.953
 7509POPC   C4A33594  38.423  33.758   7.653
 7509POPC   C1B33595  38.391  34.004   8.553
 7509POPC   C2B33596  38.424  34.086   8.253
 7509POPC   C3B33597  38.430  34.068   7.953
 7509POPC   C4B33598  38.380  34.068   7.653
 7510POPC   NC333599   5.117   2.720   9.453
 7510POPC   PO433600   5.075   2.810   9.153
 7510POPC   GL133601   5.070   2.756   8.853
 7510POPC   GL233602   5.026   2.696   8.853
 7510POPC   C1A33603   5.136   2.808   8.553
 7510POPC   D2A33604   5.109   2.780   8.253
 7510POPC   C3A33605   5.076   2.721   7.953
 7510POPC   C4A33606   5.094   2.771   7.653
 7510POPC   C1B33607   4.920   2.638   8.553
 7510POPC   C2B33608   4.841   2.679   8.253
 7510POPC   C3B33609   4.858   2.627   7.953
 7510POPC   C4B33610   4.896   2.641   7.653
 7511POPC   NC333611  16.755  27.588   9.453
 7511POPC   PO433612  16.717  27.600   9.153
 7511POPC   GL133613  16.697  27.544   8.853
 7511POPC   GL233614  16.729  27.667   8.853
 7511POPC   C1A33615  16.706  27.629   8.553
 7511POPC   D2A33616  16.776  27.587   8.253
 7511POPC   C3A33617  16.684  27.593   7.953
 7511POPC   C4A33618  16.728  27.564   7.653
 7511POPC   C1B33619  16.794  27.825   8.553
 7511POPC   C2B33620  16.803  27.869   8.253
 7511POPC   C3B33621  16.791  27.854   7.953
 7511POPC   C4B33622  16.798  27.866   7.653
 7512POPC   NC333623  43.916  43.076   9.453
 7512POPC   PO433624  43.902  43.078   9.153
 7512POPC   GL133625  43.837  43.098   8.853
 7512POPC   GL233626  43.763  43.120   8.853
 7512POPC   C1A33627  43.865  43.109   8.553
 7512POPC   D2A33628  43.917  43.113   8.253
 7512POPC   C3A33629  43.936  43.091   7.953
 7512POPC   C4A33630  43.891  43.104   7.653
 7512POPC   C1B33631  43.623  43.094   8.553
 7512POPC   C2B33632  43.607  43.102   8.253
 7512POPC   C3B33633  43.681  43.069   7.953
 7512POPC   C4B33634  43.662  43.031   7.653
 7513POPC   NC333635  40.827  37.710   9.453
 7513POPC   PO433636  40.754  37.688   9.153
 7513POPC   GL133637  40.749  37.702   8.853
 7513POPC   GL233638  40.873  37.730   8.853
 7513POPC   C1A33639  40.751  37.672   8.553
 7513POPC   D2A33640  40.792  37.682   8.253
 7513POPC   C3A33641  40.802  37.711   7.953
 7513POPC   C4A33642  40.824  37.682   7.653
 7513POPC   C1B33643  41.005  37.729   8.553
 7513POPC   C2B33644  41.079  37.695   8.253
 7513POPC   C3B33645  41.040  37.741   7.953
 7513POPC   C4B33646  41.072  37.717   7.653
 7514POPC   NC333647  43.120  43.094   9.453
 7514POPC   PO433648  43.136  43.145   9.153
 7514POPC   GL133649  43.119  43.087   8.853
 7514POPC   GL233650  43.195  42.996   8.853
 7514POPC   C1A33651  43.076  43.123   8.553
 7514POPC   D2A33652  43.111  43.144   8.253
 7514POPC   C3A33653  43.071  43.158   7.953
 7514POPC   C4A33654  43.125  43.140   7.653
 7514POPC   C1B33655  43.217  42.851   8.553
 7514POPC   C2B33656  43.229  42.937   8.253
 7514POPC   C3B33657  43.273  42.855   7.953
 7514POPC   C4B33658  43.281  42.905   7.653
 7515POPC   NC333659  12.029  10.545   9.453
 7515POPC   PO433660  12.086  10.531   9.153
 7515POPC   GL133661  12.114  10.565   8.853
 7515POPC   GL233662  12.000  10.565   8.853
 7515POPC   C1A33663  12.120  10.563   8.553
 7515POPC   D2A33664  12.077  10.557   8.253
 7515POPC   C3A33665  12.042  10.548   7.953
 7515POPC   C4A33666  12.028  10.553   7.653
 7515POPC   C1B33667  11.805  10.554   8.553
 7515POPC   C2B33668  11.830  10.599   8.253
 7515POPC   C3B33669  11.785  10.585   7.953
 7515POPC   C4B33670  11.803  10.579   7.653
 7516POPC   NC333671  36.145  29.102   9.453
 7516POPC   PO433672  36.135  29.104   9.153
 7516POPC   GL133673  36.177  29.175   8.853
 7516POPC   GL233674  35.992  29.156   8.853
 7516POPC   C1A33675  36.115  29.190   8.553
 7516POPC   D2A33676  36.106  29.171   8.253
 7516POPC   C3A33677  36.141  29.140   7.953
 7516POPC   C4A33678  36.145  29.126   7.653
 7516POPC   C1B33679  35.858  29.028   8.553
 7516POPC   C2B33680  35.889  29.115   8.253
 7516POPC   C3B33681  35.904  29.067   7.953
 7516POPC   C4B33682  35.877  29.053   7.653
 7517POPC   NC333683  40.017  22.938   9.453
 7517POPC   PO433684  39.963  22.933   9.153
 7517POPC   GL133685  40.016  22.963   8.853
 7517POPC   GL233686  40.090  23.028   8.853
 7517POPC   C1A33687  39.986  22.970   8.553
 7517POPC   D2A33688  39.960  22.890   8.253
 7517POPC   C3A33689  39.986  22.931   7.953
 7517POPC   C4A33690  39.995  22.894   7.653
 7517POPC   C1B33691  40.198  23.171   8.553
 7517POPC   C2B33692  40.151  23.117   8.253
 7517POPC   C3B33693  40.143  23.133   7.953
 7517POPC   C4B33694  40.159  23.147   7.653
 7518POPC   NC333695  40.761  29.104   9.453
 7518POPC   PO433696  40.805  29.102   9.153
 7518POPC   GL133697  40.816  29.105   8.853
 7518POPC   GL233698  40.641  29.215   8.853
 7518POPC   C1A33699  40.776  29.144   8.553
 7518POPC   D2A33700  40.773  29.162   8.253
 7518POPC   C3A33701  40.736  29.127   7.953
 7518POPC   C4A33702  40.791  29.144   7.653
 7518POPC   C1B33703  40.502  29.177   8.553
 7518POPC   C2B33704  40.535  29.181   8.253
 7518POPC   C3B33705  40.593  29.205   7.953
 7518POPC   C4B33706  40.538  29.219   7.653
 7519POPC   NC333707  33.024  32.199   9.453
 7519POPC   PO433708  32.999  32.274   9.153
 7519POPC   GL133709  33.057  32.209   8.853
 7519POPC   GL233710  33.173  32.295   8.853
 7519POPC   C1A33711  33.041  32.249   8.553
 7519POPC   D2A33712  33.008  32.289   8.253
 7519POPC   C3A33713  33.065  32.274   7.953
 7519POPC   C4A33714  33.006  32.234   7.653
 7519POPC   C1B33715  33.302  32.243   8.553
 7519POPC   C2B33716  33.259  32.270   8.253
 7519POPC   C3B33717  33.269  32.321   7.953
 7519POPC   C4B33718  33.274  32.244   7.653
 7520POPC   NC333719  15.157  26.021   9.453
 7520POPC   PO433720  15.173  26.006   9.153
 7520POPC   GL133721  15.187  26.080   8.853
 7520POPC   GL233722  15.180  25.927   8.853
 7520POPC   C1A33723  15.223  26.022   8.553
 7520POPC   D2A33724  15.202  26.029   8.253
 7520POPC   C3A33725  15.203  25.994   7.953
 7520POPC   C4A33726  15.212  26.005   7.653
 7520POPC   C1B33727  15.243  25.792   8.553
 7520POPC   C2B33728  15.223  25.802   8.253
 7520POPC   C3B33729  15.180  25.761   7.953
 7520POPC   C4B33730  15.188  25.788   7.653
 7521POPC   NC333731  36.901  24.522   9.453
 7521POPC   PO433732  36.939  24.503   9.153
 7521POPC   GL133733  36.889  24.488   8.853
 7521POPC   GL233734  37.035  24.442   8.853
 7521POPC   C1A33735  36.885  24.509   8.553
 7521POPC   D2A33736  36.930  24.447   8.253
 7521POPC   C3A33737  36.912  24.498   7.953
 7521POPC   C4A33738  36.890  24.530   7.653
 7521POPC   C1B33739  37.107  24.293   8.553
 7521POPC   C2B33740  37.061  24.289   8.253
 7521POPC   C3B33741  37.083  24.347   7.953
 7521POPC   C4B33742  37.114  24.323   7.653
 7522POPC   NC333743  36.878   9.762   9.453
 7522POPC   PO433744  36.882   9.716   9.153
 7522POPC   GL133745  36.903   9.768   8.853
 7522POPC   GL233746  36.842   9.911   8.853
 7522POPC   C1A33747  36.903   9.776   8.553
 7522POPC   D2A33748  36.908   9.797   8.253
 7522POPC   C3A33749  36.897   9.788   7.953
 7522POPC   C4A33750  36.871   9.774   7.653
 7522POPC   C1B33751  36.843   9.952   8.553
 7522POPC   C2B33752  36.908   9.990   8.253
 7522POPC   C3B33753  36.822   9.986   7.953
 7522POPC   C4B33754  36.860  10.022   7.653
 7523POPC   NC333755  19.834  19.055   9.453
 7523POPC   PO433756  19.863  19.073   9.153
 7523POPC   GL133757  19.871  19.023   8.853
 7523POPC   GL233758  19.846  18.952   8.853
 7523POPC   C1A33759  19.874  19.098   8.553
 7523POPC   D2A33760  19.858  19.017   8.253
 7523POPC   C3A33761  19.800  19.067   7.953
 7523POPC   C4A33762  19.839  19.088   7.653
 7523POPC   C1B33763  19.861  18.848   8.553
 7523POPC   C2B33764  19.852  18.823   8.253
 7523POPC   C3B33765  19.848  18.807   7.953
 7523POPC   C4B33766  19.866  18.815   7.653
 7524POPC   NC333767  27.560   4.297   9.453
 7524POPC   PO433768  27.571   4.281   9.153
 7524POPC   GL133769  27.543   4.326   8.853
 7524POPC   GL233770  27.719   4.392   8.853
 7524POPC   C1A33771  27.605   4.273   8.553
 7524POPC   D2A33772  27.560   4.323   8.253
 7524POPC   C3A33773  27.600   4.312   7.953
 7524POPC   C4A33774  27.549   4.289   7.653
 7524POPC   C1B33775  27.855   4.396   8.553
 7524POPC   C2B33776  27.858   4.439   8.253
 7524POPC   C3B33777  27.774   4.380   7.953
 7524POPC   C4B33778  27.789   4.406   7.653
 7525POPC   NC333779  43.119  39.223   9.453
 7525POPC   PO433780  43.089  39.236   9.153
 7525POPC   GL133781  43.158  39.258   8.853
 7525POPC   GL233782  42.980  39.293   8.853
 7525POPC   C1A33783  43.109  39.211   8.553
 7525POPC   D2A33784  43.129  39.256   8.253
 7525POPC   C3A33785  43.093  39.227   7.953
 7525POPC   C4A33786  43.083  39.230   7.653
 7525POPC   C1B33787  42.885  39.289   8.553
 7525POPC   C2B33788  42.895  39.283   8.253
 7525POPC   C3B33789  42.881  39.361   7.953
 7525POPC   C4B33790  42.905  39.360   7.653
 7526POPC   NC333791  22.985  35.383   9.453
 7526POPC   PO433792  22.971  35.393   9.153
 7526POPC   GL133793  22.983  35.332   8.853
 7526POPC   GL233794  22.813  35.387   8.853
 7526POPC   C1A33795  22.927  35.370   8.553
 7526POPC   D2A33796  22.974  35.346   8.253
 7526POPC   C3A33797  22.983  35.379   7.953
 7526POPC   C4A33798  22.969  35.381   7.653
 7526POPC   C1B33799  22.682  35.407   8.553
 7526POPC   C2B33800  22.683  35.311   8.253
 7526POPC   C3B33801  22.702  35.357   7.953
 7526POPC   C4B33802  22.703  35.356   7.653
 7527POPC   NC333803  31.501  39.223   9.453
 7527POPC   PO433804  31.451  39.257   9.153
 7527POPC   GL133805  31.478  39.199   8.853
 7527POPC   GL233806  31.639  39.209   8.853
 7527POPC   C1A33807  31.458  39.192   8.553
 7527POPC   D2A33808  31.460  39.277   8.253
 7527POPC   C3A33809  31.464  39.228   7.953
 7527POPC   C4A33810  31.457  39.252   7.653
 7527POPC   C1B33811  31.703  39.147   8.553
 7527POPC   C2B33812  31.698  39.215   8.253
 7527POPC   C3B33813  31.764  39.206   7.953
 7527POPC   C4B33814  31.673  39.219   7.653
 7528POPC   NC333815   7.397  29.144   9.453
 7528POPC   PO433816   7.441  29.158   9.153
 7528POPC   GL133817   7.423  29.138   8.853
 7528POPC   GL233818   7.474  29.304   8.853
 7528POPC   C1A33819   7.462  29.114   8.553
 7528POPC   D2A33820   7.406  29.162   8.253
 7528POPC   C3A33821   7.419  29.158   7.953
 7528POPC   C4A33822   7.451  29.133   7.653
 7528POPC   C1B33823   7.486  29.421   8.553
 7528POPC   C2B33824   7.507  29.325   8.253
 7528POPC   C3B33825   7.505  29.376   7.953
 7528POPC   C4B33826   7.530  29.422   7.653
 7529POPC   NC333827  18.240  11.286   9.453
 7529POPC   PO433828  18.237  11.297   9.153
 7529POPC   GL133829  18.274  11.342   8.853
 7529POPC   GL233830  18.343  11.373   8.853
 7529POPC   C1A33831  18.262  11.344   8.553
 7529POPC   D2A33832  18.238  11.331   8.253
 7529POPC   C3A33833  18.328  11.272   7.953
 7529POPC   C4A33834  18.234  11.284   7.653
 7529POPC   C1B33835  18.377  11.562   8.553
 7529POPC   C2B33836  18.382  11.523   8.253
 7529POPC   C3B33837  18.311  11.531   7.953
 7529POPC   C4B33838  18.390  11.587   7.653
 7530POPC   NC333839  12.052  28.395   9.453
 7530POPC   PO433840  12.037  28.381   9.153
 7530POPC   GL133841  12.115  28.386   8.853
 7530POPC   GL233842  12.210  28.447   8.853
 7530POPC   C1A33843  12.054  28.360   8.553
 7530POPC   D2A33844  12.100  28.382   8.253
 7530POPC   C3A33845  12.089  28.380   7.953
 7530POPC   C4A33846  12.031  28.384   7.653
 7530POPC   C1B33847  12.343  28.455   8.553
 7530POPC   C2B33848  12.365  28.449   8.253
 7530POPC   C3B33849  12.334  28.483   7.953
 7530POPC   C4B33850  12.299  28.389   7.653
 7531POPC   NC333851  19.860   5.841   9.453
 7531POPC   PO433852  19.864   5.862   9.153
 7531POPC   GL133853  19.859   5.822   8.853
 7531POPC   GL233854  19.887   5.977   8.853
 7531POPC   C1A33855  19.794   5.837   8.553
 7531POPC   D2A33856  19.849   5.832   8.253
 7531POPC   C3A33857  19.787   5.851   7.953
 7531POPC   C4A33858  19.798   5.881   7.653
 7531POPC   C1B33859  19.892   6.116   8.553
 7531POPC   C2B33860  19.846   6.120   8.253
 7531POPC   C3B33861  19.830   6.152   7.953
 7531POPC   C4B33862  19.822   6.132   7.653
 7532POPC   NC333863  19.793   1.202   9.453
 7532POPC   PO433864  19.877   1.180   9.153
 7532POPC   GL133865  19.791   1.195   8.853
 7532POPC   GL233866  19.946   1.234   8.853
 7532POPC   C1A33867  19.789   1.193   8.553
 7532POPC   D2A33868  19.882   1.233   8.253
 7532POPC   C3A33869  19.826   1.171   7.953
 7532POPC   C4A33870  19.811   1.187   7.653
 7532POPC   C1B33871  20.110   1.240   8.553
 7532POPC   C2B33872  20.085   1.262   8.253
 7532POPC   C3B33873  20.071   1.221   7.953
 7532POPC   C4B33874  20.051   1.299   7.653
 7533POPC   NC333875  36.163  12.897   9.453
 7533POPC   PO433876  36.096  12.840   9.153
 7533POPC   GL133877  36.108  12.825   8.853
 7533POPC   GL233878  36.010  12.738   8.853
 7533POPC   C1A33879  36.111  12.840   8.553
 7533POPC   D2A33880  36.145  12.855   8.253
 7533POPC   C3A33881  36.151  12.871   7.953
 7533POPC   C4A33882  36.090  12.806   7.653
 7533POPC   C1B33883  35.890  12.754   8.553
 7533POPC   C2B33884  35.904  12.736   8.253
 7533POPC   C3B33885  35.902  12.691   7.953
 7533POPC   C4B33886  35.967  12.710   7.653
 7534POPC   NC333887  40.029   5.130   9.453
 7534POPC   PO433888  40.027   5.052   9.153
 7534POPC   GL133889  39.966   5.078   8.853
 7534POPC   GL233890  40.148   5.022   8.853
 7534POPC   C1A33891  40.051   5.079   8.553
 7534POPC   D2A33892  40.012   5.133   8.253
 7534POPC   C3A33893  40.023   5.088   7.953
 7534POPC   C4A33894  39.968   5.099   7.653
 7534POPC   C1B33895  40.272   5.020   8.553
 7534POPC   C2B33896  40.259   5.014   8.253
 7534POPC   C3B33897  40.291   5.009   7.953
 7534POPC   C4B33898  40.301   5.060   7.653
 7535POPC   NC333899   1.213  14.400   9.453
 7535POPC   PO433900   1.235  14.411   9.153
 7535POPC   GL133901   1.185  14.423   8.853
 7535POPC   GL233902   1.151  14.564   8.853
 7535POPC   C1A33903   1.196  14.396   8.553
 7535POPC   D2A33904   1.226  14.429   8.253
 7535POPC   C3A33905   1.252  14.446   7.953
 7535POPC   C4A33906   1.252  14.391   7.653
 7535POPC   C1B33907   1.133  14.697   8.553
 7535POPC   C2B33908   1.185  14.637   8.253
 7535POPC   C3B33909   1.141  14.678   7.953
 7535POPC   C4B33910   1.202  14.674   7.653
 7536POPC   NC333911  33.833   9.709   9.453
 7536POPC   PO433912  33.836   9.797   9.153
 7536POPC   GL133913  33.766   9.730   8.853
 7536POPC   GL233914  33.703   9.849   8.853
 7536POPC   C1A33915  33.844   9.777   8.553
 7536POPC   D2A33916  33.750   9.757   8.253
 7536POPC   C3A33917  33.774   9.708   7.953
 7536POPC   C4A33918  33.812   9.764   7.653
 7536POPC   C1B33919  33.618   9.944   8.553
 7536POPC   C2B33920  33.594   9.897   8.253
 7536POPC   C3B33921  33.619   9.878   7.953
 7536POPC   C4B33922  33.577   9.925   7.653
 7537POPC   NC333923  24.526  27.574   9.453
 7537POPC   PO433924  24.538  27.633   9.153
 7537POPC   GL133925  24.521  27.592   8.853
 7537POPC   GL233926  24.569  27.508   8.853
 7537POPC   C1A33927  24.533  27.552   8.553
 7537POPC   D2A33928  24.498  27.584   8.253
 7537POPC   C3A33929  24.514  27.550   7.953
 7537POPC   C4A33930  24.539  27.552   7.653
 7537POPC   C1B33931  24.605  27.350   8.553
 7537POPC   C2B33932  24.529  27.329   8.253
 7537POPC   C3B33933  24.587  27.321   7.953
 7537POPC   C4B33934  24.585  27.358   7.653
 7538POPC   NC333935  39.257   9.726   9.453
 7538POPC   PO433936  39.188   9.702   9.153
 7538POPC   GL133937  39.239   9.772   8.853
 7538POPC   GL233938  39.258   9.638   8.853
 7538POPC   C1A33939  39.195   9.791   8.553
 7538POPC   D2A33940  39.211   9.717   8.253
 7538POPC   C3A33941  39.243   9.753   7.953
 7538POPC   C4A33942  39.232   9.712   7.653
 7538POPC   C1B33943  39.296   9.475   8.553
 7538POPC   C2B33944  39.249   9.524   8.253
 7538POPC   C3B33945  39.278   9.515   7.953
 7538POPC   C4B33946  39.289   9.476   7.653
 7539POPC   NC333947  31.445   9.793   9.453
 7539POPC   PO433948  31.459   9.719   9.153
 7539POPC   GL133949  31.516   9.729   8.853
 7539POPC   GL233950  31.585   9.704   8.853
 7539POPC   C1A33951  31.517   9.798   8.553
 7539POPC   D2A33952  31.433   9.776   8.253
 7539POPC   C3A33953  31.495   9.713   7.953
 7539POPC   C4A33954  31.482   9.778   7.653
 7539POPC   C1B33955  31.733   9.755   8.553
 7539POPC   C2B33956  31.689   9.707   8.253
 7539POPC   C3B33957  31.769   9.761   7.953
 7539POPC   C4B33958  31.724   9.763   7.653
 7540POPC   NC333959   4.351  13.626   9.453
 7540POPC   PO433960   4.336  13.581   9.153
 7540POPC   GL133961   4.354  13.583   8.853
 7540POPC   GL233962   4.427  13.602   8.853
 7540POPC   C1A33963   4.348  13.595   8.553
 7540POPC   D2A33964   4.321  13.648   8.253
 7540POPC   C3A33965   4.335  13.639   7.953
 7540POPC   C4A33966   4.297  13.626   7.653
 7540POPC   C1B33967   4.574  13.527   8.553
 7540POPC   C2B33968   4.559  13.529   8.253
 7540POPC   C3B33969   4.547  13.519   7.953
 7540POPC   C4B33970   4.512  13.544   7.653
 7541POPC   NC333971  35.400   0.411   9.453
 7541POPC   PO433972  35.325   0.410   9.153
 7541POPC   GL133973  35.340   0.470   8.853
 7541POPC   GL233974  35.491   0.315   8.853
 7541POPC   C1A33975  35.332   0.472   8.553
 7541POPC   D2A33976  35.385   0.474   8.253
 7541POPC   C3A33977  35.315   0.440   7.953
 7541POPC   C4A33978  35.307   0.442   7.653
 7541POPC   C1B33979  35.572   0.247   8.553
 7541POPC   C2B33980  35.556   0.321   8.253
 7541POPC   C3B33981  35.547   0.257   7.953
 7541POPC   C4B33982  35.534   0.254   7.653
 7542POPC   NC333983  27.587  25.270   9.453
 7542POPC   PO433984  27.551  25.272   9.153
 7542POPC   GL133985  27.571  25.278   8.853
 7542POPC   GL233986  27.716  25.177   8.853
 7542POPC   C1A33987  27.625  25.222   8.553
 7542POPC   D2A33988  27.607  25.223   8.253
 7542POPC   C3A33989  27.606  25.306   7.953
 7542POPC   C4A33990  27.555  25.283   7.653
 7542POPC   C1B33991  27.830  25.163   8.553
 7542POPC   C2B33992  27.771  25.099   8.253
 7542POPC   C3B33993  27.829  25.165   7.953
 7542POPC   C4B33994  27.847  25.131   7.653
 7543POPC   NC333995  42.347  35.303   9.453
 7543POPC   PO433996  42.296  35.368   9.153
 7543POPC   GL133997  42.349  35.317   8.853
 7543POPC   GL233998  42.231  35.275   8.853
 7543POPC   C1A33999  42.340  35.351   8.553
 7543POPC   D2A34000  42.305  35.397   8.253
 7543POPC   C3A34001  42.330  35.366   7.953
 7543POPC   C4A34002  42.328  35.367   7.653
 7543POPC   C1B34003  42.131  35.164   8.553
 7543POPC   C2B34004  42.163  35.157   8.253
 7543POPC   C3B34005  42.098  35.180   7.953
 7543POPC   C4B34006  42.132  35.239   7.653
 7544POPC   NC334007   2.736  25.275   9.453
 7544POPC   PO434008   2.745  25.289   9.153
 7544POPC   GL134009   2.771  25.281   8.853
 7544POPC   GL234010   2.701  25.305   8.853
 7544POPC   C1A34011   2.727  25.287   8.553
 7544POPC   D2A34012   2.794  25.280   8.253
 7544POPC   C3A34013   2.791  25.244   7.953
 7544POPC   C4A34014   2.740  25.289   7.653
 7544POPC   C1B34015   2.565  25.398   8.553
 7544POPC   C2B34016   2.536  25.351   8.253
 7544POPC   C3B34017   2.566  25.349   7.953
 7544POPC   C4B34018   2.558  25.378   7.653
 7545POPC   NC334019  28.355   2.766   9.453
 7545POPC   PO434020  28.329   2.807   9.153
 7545POPC   GL134021  28.328   2.739   8.853
 7545POPC   GL234022  28.328   2.854   8.853
 7545POPC   C1A34023  28.375   2.738   8.553
 7545POPC   D2A34024  28.403   2.804   8.253
 7545POPC   C3A34025  28.372   2.810   7.953
 7545POPC   C4A34026  28.355   2.735   7.653
 7545POPC   C1B34027  28.183   2.995   8.553
 7545POPC   C2B34028  28.211   2.954   8.253
 7545POPC   C3B34029  28.235   2.916   7.953
 7545POPC   C4B34030  28.201   2.998   7.653
 7546POPC   NC334031   0.424  29.899   9.453
 7546POPC   PO434032   0.438  29.923   9.153
 7546POPC   GL134033   0.428  29.936   8.853
 7546POPC   GL234034   0.535  29.940   8.853
 7546POPC   C1A34035   0.443  29.948   8.553
 7546POPC   D2A34036   0.460  29.948   8.253
 7546POPC   C3A34037   0.391  29.894   7.953
 7546POPC   C4A34038   0.458  29.901   7.653
 7546POPC   C1B34039   0.665  29.902   8.553
 7546POPC   C2B34040   0.643  29.949   8.253
 7546POPC   C3B34041   0.671  29.944   7.953
 7546POPC   C4B34042   0.689  29.948   7.653
 7547POPC   NC334043  40.035  26.058   9.453
 7547POPC   PO434044  40.051  26.008   9.153
 7547POPC   GL134045  39.997  26.010   8.853
 7547POPC   GL234046  39.936  26.108   8.853
 7547POPC   C1A34047  39.992  26.006   8.553
 7547POPC   D2A34048  40.043  26.066   8.253
 7547POPC   C3A34049  40.008  26.039   7.953
 7547POPC   C4A34050  40.034  26.060   7.653
 7547POPC   C1B34051  39.866  26.213   8.553
 7547POPC   C2B34052  39.831  26.242   8.253
 7547POPC   C3B34053  39.897  26.302   7.953
 7547POPC   C4B34054  39.901  26.224   7.653
 7548POPC   NC334055  20.636  14.357   9.453
 7548POPC   PO434056  20.629  14.426   9.153
 7548POPC   GL134057  20.652  14.388   8.853
 7548POPC   GL234058  20.777  14.444   8.853
 7548POPC   C1A34059  20.625  14.437   8.553
 7548POPC   D2A34060  20.563  14.363   8.253
 7548POPC   C3A34061  20.563  14.419   7.953
 7548POPC   C4A34062  20.591  14.440   7.653
 7548POPC   C1B34063  20.887  14.398   8.553
 7548POPC   C2B34064  20.893  14.402   8.253
 7548POPC   C3B34065  20.870  14.475   7.953
 7548POPC   C4B34066  20.877  14.433   7.653
 7549POPC   NC334067  31.471  35.305   9.453
 7549POPC   PO434068  31.500  35.363   9.153
 7549POPC   GL134069  31.457  35.364   8.853
 7549POPC   GL234070  31.346  35.405   8.853
 7549POPC   C1A34071  31.498  35.332   8.553
 7549POPC   D2A34072  31.440  35.351   8.253
 7549POPC   C3A34073  31.444  35.369   7.953
 7549POPC   C4A34074  31.488  35.316   7.653
 7549POPC   C1B34075  31.253  35.504   8.553
 7549POPC   C2B34076  31.315  35.554   8.253
 7549POPC   C3B34077  31.243  35.531   7.953
 7549POPC   C4B34078  31.318  35.509   7.653
 7550POPC   NC334079   1.251   3.562   9.453
 7550POPC   PO434080   1.240   3.531   9.153
 7550POPC   GL134081   1.199   3.584   8.853
 7550POPC   GL234082   1.214   3.668   8.853
 7550POPC   C1A34083   1.197   3.555   8.553
 7550POPC   D2A34084   1.178   3.589   8.253
 7550POPC   C3A34085   1.184   3.559   7.953
 7550POPC   C4A34086   1.222   3.515   7.653
 7550POPC   C1B34087   1.194   3.793   8.553
 7550POPC   C2B34088   1.149   3.821   8.253
 7550POPC   C3B34089   1.220   3.773   7.953
 7550POPC   C4B34090   1.177   3.788   7.653
 7551POPC   NC334091  25.290  33.797   9.453
 7551POPC   PO434092  25.306  33.800   9.153
 7551POPC   GL134093  25.302  33.822   8.853
 7551POPC   GL234094  25.296  33.660   8.853
 7551POPC   C1A34095  25.299  33.815   8.553
 7551POPC   D2A34096  25.218  33.821   8.253
 7551POPC   C3A34097  25.275  33.831   7.953
 7551POPC   C4A34098  25.250  33.820   7.653
 7551POPC   C1B34099  25.413  33.580   8.553
 7551POPC   C2B34100  25.411  33.587   8.253
 7551POPC   C3B34101  25.383  33.574   7.953
 7551POPC   C4B34102  25.391  33.559   7.653
 7552POPC   NC334103  31.431  22.918   9.453
 7552POPC   PO434104  31.446  22.958   9.153
 7552POPC   GL134105  31.457  22.955   8.853
 7552POPC   GL234106  31.590  22.825   8.853
 7552POPC   C1A34107  31.455  22.905   8.553
 7552POPC   D2A34108  31.473  22.965   8.253
 7552POPC   C3A34109  31.492  22.984   7.953
 7552POPC   C4A34110  31.493  22.962   7.653
 7552POPC   C1B34111  31.717  22.810   8.553
 7552POPC   C2B34112  31.642  22.837   8.253
 7552POPC   C3B34113  31.695  22.816   7.953
 7552POPC   C4B34114  31.666  22.772   7.653
 7553POPC   NC334115  31.468  26.002   9.453
 7553POPC   PO434116  31.500  26.029   9.153
 7553POPC   GL134117  31.427  26.047   8.853
 7553POPC   GL234118  31.490  25.911   8.853
 7553POPC   C1A34119  31.480  26.083   8.553
 7553POPC   D2A34120  31.490  26.072   8.253
 7553POPC   C3A34121  31.438  26.037   7.953
 7553POPC   C4A34122  31.429  26.079   7.653
 7553POPC   C1B34123  31.552  25.846   8.553
 7553POPC   C2B34124  31.548  25.800   8.253
 7553POPC   C3B34125  31.535  25.772   7.953
 7553POPC   C4B34126  31.524  25.788   7.653
 7554POPC   NC334127  22.151   9.755   9.453
 7554POPC   PO434128  22.194   9.729   9.153
 7554POPC   GL134129  22.156   9.755   8.853
 7554POPC   GL234130  22.300   9.732   8.853
 7554POPC   C1A34131  22.165   9.707   8.553
 7554POPC   D2A34132  22.207   9.777   8.253
 7554POPC   C3A34133  22.114   9.756   7.953
 7554POPC   C4A34134  22.165   9.749   7.653
 7554POPC   C1B34135  22.416   9.777   8.553
 7554POPC   C2B34136  22.409   9.745   8.253
 7554POPC   C3B34137  22.371   9.709   7.953
 7554POPC   C4B34138  22.438   9.699   7.653
 7555POPC   NC334139  31.467   5.887   9.453
 7555POPC   PO434140  31.472   5.827   9.153
 7555POPC   GL134141  31.432   5.819   8.853
 7555POPC   GL234142  31.570   5.808   8.853
 7555POPC   C1A34143  31.453   5.834   8.553
 7555POPC   D2A34144  31.460   5.863   8.253
 7555POPC   C3A34145  31.467   5.873   7.953
 7555POPC   C4A34146  31.454   5.906   7.653
 7555POPC   C1B34147  31.570   5.691   8.553
 7555POPC   C2B34148  31.634   5.613   8.253
 7555POPC   C3B34149  31.647   5.611   7.953
 7555POPC   C4B34150  31.647   5.679   7.653
 7556POPC   NC334151  39.218   2.795   9.453
 7556POPC   PO434152  39.184   2.717   9.153
 7556POPC   GL134153  39.210   2.756   8.853
 7556POPC   GL234154  39.255   2.673   8.853
 7556POPC   C1A34155  39.270   2.749   8.553
 7556POPC   D2A34156  39.185   2.750   8.253
 7556POPC   C3A34157  39.258   2.806   7.953
 7556POPC   C4A34158  39.192   2.769   7.653
 7556POPC   C1B34159  39.339   2.476   8.553
 7556POPC   C2B34160  39.322   2.497   8.253
 7556POPC   C3B34161  39.341   2.550   7.953
 7556POPC   C4B34162  39.260   2.533   7.653
 7557POPC   NC334163  25.296  40.821   9.453
 7557POPC   PO434164  25.297  40.741   9.153
 7557POPC   GL134165  25.217  40.749   8.853
 7557POPC   GL234166  25.367  40.794   8.853
 7557POPC   C1A34167  25.247  40.817   8.553
 7557POPC   D2A34168  25.234  40.770   8.253
 7557POPC   C3A34169  25.310  40.782   7.953
 7557POPC   C4A34170  25.286  40.771   7.653
 7557POPC   C1B34171  25.510  40.784   8.553
 7557POPC   C2B34172  25.516  40.773   8.253
 7557POPC   C3B34173  25.544  40.742   7.953
 7557POPC   C4B34174  25.486  40.790   7.653
 7558POPC   NC334175  29.124   1.976   9.453
 7558POPC   PO434176  29.139   1.992   9.153
 7558POPC   GL134177  29.113   2.033   8.853
 7558POPC   GL234178  29.084   1.853   8.853
 7558POPC   C1A34179  29.101   2.003   8.553
 7558POPC   D2A34180  29.136   1.950   8.253
 7558POPC   C3A34181  29.177   2.016   7.953
 7558POPC   C4A34182  29.159   1.944   7.653
 7558POPC   C1B34183  29.001   1.779   8.553
 7558POPC   C2B34184  29.016   1.724   8.253
 7558POPC   C3B34185  29.083   1.730   7.953
 7558POPC   C4B34186  29.039   1.737   7.653
 7559POPC   NC334187   8.208  21.371   9.453
 7559POPC   PO434188   8.240  21.358   9.153
 7559POPC   GL134189   8.223  21.396   8.853
 7559POPC   GL234190   8.261  21.429   8.853
 7559POPC   C1A34191   8.168  21.358   8.553
 7559POPC   D2A34192   8.171  21.428   8.253
 7559POPC   C3A34193   8.162  21.359   7.953
 7559POPC   C4A34194   8.153  21.431   7.653
 7559POPC   C1B34195   8.447  21.488   8.553
 7559POPC   C2B34196   8.409  21.545   8.253
 7559POPC   C3B34197   8.404  21.568   7.953
 7559POPC   C4B34198   8.419  21.503   7.653
 7560POPC   NC334199  36.125  15.144   9.453
 7560POPC   PO434200  36.110  15.187   9.153
 7560POPC   GL134201  36.173  15.148   8.853
 7560POPC   GL234202  36.219  15.026   8.853
 7560POPC   C1A34203  36.091  15.189   8.553
 7560POPC   D2A34204  36.092  15.130   8.253
 7560POPC   C3A34205  36.103  15.139   7.953
 7560POPC   C4A34206  36.079  15.133   7.653
 7560POPC   C1B34207  36.252  14.909   8.553
 7560POPC   C2B34208  36.268  14.991   8.253
 7560POPC   C3B34209  36.207  14.969   7.953
 7560POPC   C4B34210  36.262  14.915   7.653
 7561POPC   NC334211   2.719  37.659   9.453
 7561POPC   PO434212   2.716  37.677   9.153
 7561POPC   GL134213   2.802  37.635   8.853
 7561POPC   GL234214   2.735  37.785   8.853
 7561POPC   C1A34215   2.769  37.638   8.553
 7561POPC   D2A34216   2.812  37.655   8.253
 7561POPC   C3A34217   2.772  37.677   7.953
 7561POPC   C4A34218   2.736  37.706   7.653
 7561POPC   C1B34219   2.707  37.934   8.553
 7561POPC   C2B34220   2.729  37.887   8.253
 7561POPC   C3B34221   2.716  37.954   7.953
 7561POPC   C4B34222   2.688  37.905   7.653
 7562POPC   NC334223   9.727  37.631   9.453
 7562POPC   PO434224   9.716  37.631   9.153
 7562POPC   GL134225   9.768  37.667   8.853
 7562POPC   GL234226   9.770  37.570   8.853
 7562POPC   C1A34227   9.722  37.669   8.553
 7562POPC   D2A34228   9.782  37.707   8.253
 7562POPC   C3A34229   9.707  37.708   7.953
 7562POPC   C4A34230   9.798  37.636   7.653
 7562POPC   C1B34231   9.779  37.465   8.553
 7562POPC   C2B34232   9.758  37.461   8.253
 7562POPC   C3B34233   9.690  37.438   7.953
 7562POPC   C4B34234   9.709  37.456   7.653
 7563POPC   NC334235  19.072   2.743   9.453
 7563POPC   PO434236  19.013   2.772   9.153
 7563POPC   GL134237  19.013   2.738   8.853
 7563POPC   GL234238  19.202   2.774   8.853
 7563POPC   C1A34239  19.037   2.786   8.553
 7563POPC   D2A34240  19.029   2.739   8.253
 7563POPC   C3A34241  19.059   2.788   7.953
 7563POPC   C4A34242  19.064   2.759   7.653
 7563POPC   C1B34243  19.330   2.789   8.553
 7563POPC   C2B34244  19.274   2.751   8.253
 7563POPC   C3B34245  19.320   2.778   7.953
 7563POPC   C4B34246  19.290   2.765   7.653
 7564POPC   NC334247  43.120  24.459   9.453
 7564POPC   PO434248  43.074  24.529   9.153
 7564POPC   GL134249  43.115  24.450   8.853
 7564POPC   GL234250  43.235  24.561   8.853
 7564POPC   C1A34251  43.125  24.486   8.553
 7564POPC   D2A34252  43.150  24.480   8.253
 7564POPC   C3A34253  43.138  24.468   7.953
 7564POPC   C4A34254  43.117  24.515   7.653
 7564POPC   C1B34255  43.354  24.673   8.553
 7564POPC   C2B34256  43.313  24.588   8.253
 7564POPC   C3B34257  43.317  24.640   7.953
 7564POPC   C4B34258  43.308  24.656   7.653
 7565POPC   NC334259  11.322  23.679   9.453
 7565POPC   PO434260  11.283  23.685   9.153
 7565POPC   GL134261  11.320  23.721   8.853
 7565POPC   GL234262  11.136  23.714   8.853
 7565POPC   C1A34263  11.342  23.732   8.553
 7565POPC   D2A34264  11.253  23.739   8.253
 7565POPC   C3A34265  11.331  23.749   7.953
 7565POPC   C4A34266  11.271  23.758   7.653
 7565POPC   C1B34267  11.023  23.738   8.553
 7565POPC   C2B34268  11.044  23.777   8.253
 7565POPC   C3B34269  11.084  23.718   7.953
 7565POPC   C4B34270  11.099  23.729   7.653
 7566POPC   NC334271   3.499  11.308   9.453
 7566POPC   PO434272   3.578  11.332   9.153
 7566POPC   GL134273   3.587  11.304   8.853
 7566POPC   GL234274   3.472  11.388   8.853
 7566POPC   C1A34275   3.588  11.315   8.553
 7566POPC   D2A34276   3.540  11.283   8.253
 7566POPC   C3A34277   3.536  11.337   7.953
 7566POPC   C4A34278   3.555  11.312   7.653
 7566POPC   C1B34279   3.363  11.465   8.553
 7566POPC   C2B34280   3.389  11.424   8.253
 7566POPC   C3B34281   3.369  11.494   7.953
 7566POPC   C4B34282   3.373  11.415   7.653
 7567POPC   NC334283   6.647  41.603   9.453
 7567POPC   PO434284   6.686  41.587   9.153
 7567POPC   GL134285   6.612  41.511   8.853
 7567POPC   GL234286   6.611  41.393   8.853
 7567POPC   C1A34287   6.607  41.569   8.553
 7567POPC   D2A34288   6.663  41.592   8.253
 7567POPC   C3A34289   6.674  41.590   7.953
 7567POPC   C4A34290   6.634  41.598   7.653
 7567POPC   C1B34291   6.676  41.265   8.553
 7567POPC   C2B34292   6.631  41.344   8.253
 7567POPC   C3B34293   6.712  41.326   7.953
 7567POPC   C4B34294   6.706  41.303   7.653
 7568POPC   NC334295  23.736  26.773   9.453
 7568POPC   PO434296  23.687  26.809   9.153
 7568POPC   GL134297  23.727  26.814   8.853
 7568POPC   GL234298  23.764  26.856   8.853
 7568POPC   C1A34299  23.757  26.794   8.553
 7568POPC   D2A34300  23.707  26.772   8.253
 7568POPC   C3A34301  23.680  26.841   7.953
 7568POPC   C4A34302  23.719  26.779   7.653
 7568POPC   C1B34303  23.876  26.926   8.553
 7568POPC   C2B34304  23.924  26.931   8.253
 7568POPC   C3B34305  23.919  26.991   7.953
 7568POPC   C4B34306  23.919  26.952   7.653
 7569POPC   NC334307  19.859  12.806   9.453
 7569POPC   PO434308  19.806  12.880   9.153
 7569POPC   GL134309  19.796  12.901   8.853
 7569POPC   GL234310  19.734  12.795   8.853
 7569POPC   C1A34311  19.881  12.828   8.553
 7569POPC   D2A34312  19.868  12.887   8.253
 7569POPC   C3A34313  19.884  12.806   7.953
 7569POPC   C4A34314  19.795  12.849   7.653
 7569POPC   C1B34315  19.591  12.682   8.553
 7569POPC   C2B34316  19.678  12.661   8.253
 7569POPC   C3B34317  19.684  12.723   7.953
 7569POPC   C4B34318  19.673  12.716   7.653
 7570POPC   NC334319  36.147  22.190   9.453
 7570POPC   PO434320  36.125  22.127   9.153
 7570POPC   GL134321  36.103  22.206   8.853
 7570POPC   GL234322  36.043  22.218   8.853
 7570POPC   C1A34323  36.138  22.162   8.553
 7570POPC   D2A34324  36.133  22.205   8.253
 7570POPC   C3A34325  36.110  22.200   7.953
 7570POPC   C4A34326  36.177  22.120   7.653
 7570POPC   C1B34327  35.932  22.343   8.553
 7570POPC   C2B34328  35.926  22.313   8.253
 7570POPC   C3B34329  35.974  22.399   7.953
 7570POPC   C4B34330  35.931  22.321   7.653
 7571POPC   NC334331  26.060  44.617   9.453
 7571POPC   PO434332  26.052  44.689   9.153
 7571POPC   GL134333  26.061  44.685   8.853
 7571POPC   GL234334  26.003  44.502   8.853
 7571POPC   C1A34335  26.044  44.618   8.553
 7571POPC   D2A34336  26.014  44.696   8.253
 7571POPC   C3A34337  26.031  44.647   7.953
 7571POPC   C4A34338  26.015  44.678   7.653
 7571POPC   C1B34339  25.959  44.462   8.553
 7571POPC   C2B34340  25.995  44.373   8.253
 7571POPC   C3B34341  25.987  44.427   7.953
 7571POPC   C4B34342  25.980  44.451   7.653
 7572POPC   NC334343  29.097  29.929   9.453
 7572POPC   PO434344  29.114  29.941   9.153
 7572POPC   GL134345  29.152  29.910   8.853
 7572POPC   GL234346  29.117  29.831   8.853
 7572POPC   C1A34347  29.103  29.907   8.553
 7572POPC   D2A34348  29.102  29.873   8.253
 7572POPC   C3A34349  29.166  29.884   7.953
 7572POPC   C4A34350  29.097  29.936   7.653
 7572POPC   C1B34351  29.013  29.689   8.553
 7572POPC   C2B34352  29.035  29.692   8.253
 7572POPC   C3B34353  29.006  29.689   7.953
 7572POPC   C4B34354  29.053  29.678   7.653
 7573POPC   NC334355  19.025   2.024   9.453
 7573POPC   PO434356  19.094   1.973   9.153
 7573POPC   GL134357  19.078   1.999   8.853
 7573POPC   GL234358  19.149   1.871   8.853
 7573POPC   C1A34359  19.050   1.961   8.553
 7573POPC   D2A34360  19.085   2.015   8.253
 7573POPC   C3A34361  19.027   2.030   7.953
 7573POPC   C4A34362  19.015   1.962   7.653
 7573POPC   C1B34363  19.161   1.815   8.553
 7573POPC   C2B34364  19.133   1.765   8.253
 7573POPC   C3B34365  19.225   1.768   7.953
 7573POPC   C4B34366  19.136   1.773   7.653
 7574POPC   NC334367  16.739  42.356   9.453
 7574POPC   PO434368  16.722  42.299   9.153
 7574POPC   GL134369  16.755  42.376   8.853
 7574POPC   GL234370  16.793  42.461   8.853
 7574POPC   C1A34371  16.682  42.307   8.553
 7574POPC   D2A34372  16.700  42.322   8.253
 7574POPC   C3A34373  16.750  42.287   7.953
 7574POPC   C4A34374  16.683  42.368   7.653
 7574POPC   C1B34375  16.827  42.526   8.553
 7574POPC   C2B34376  16.870  42.573   8.253
 7574POPC   C3B34377  16.823  42.605   7.953
 7574POPC   C4B34378  16.843  42.574   7.653
 7575POPC   NC334379   9.018   7.470   9.453
 7575POPC   PO434380   8.964   7.413   9.153
 7575POPC   GL134381   8.985   7.407   8.853
 7575POPC   GL234382   9.025   7.510   8.853
 7575POPC   C1A34383   8.954   7.387   8.553
 7575POPC   D2A34384   8.986   7.393   8.253
 7575POPC   C3A34385   8.937   7.438   7.953
 7575POPC   C4A34386   8.998   7.469   7.653
 7575POPC   C1B34387   9.165   7.641   8.553
 7575POPC   C2B34388   9.113   7.621   8.253
 7575POPC   C3B34389   9.168   7.668   7.953
 7575POPC   C4B34390   9.108   7.668   7.653
 7576POPC   NC334391   5.104   4.317   9.453
 7576POPC   PO434392   5.068   4.356   9.153
 7576POPC   GL134393   5.102   4.346   8.853
 7576POPC   GL234394   5.200   4.327   8.853
 7576POPC   C1A34395   5.121   4.321   8.553
 7576POPC   D2A34396   5.055   4.327   8.253
 7576POPC   C3A34397   5.137   4.291   7.953
 7576POPC   C4A34398   5.106   4.342   7.653
 7576POPC   C1B34399   5.379   4.419   8.553
 7576POPC   C2B34400   5.360   4.416   8.253
 7576POPC   C3B34401   5.316   4.350   7.953
 7576POPC   C4B34402   5.294   4.389   7.653
 7577POPC   NC334403   9.784  19.053   9.453
 7577POPC   PO434404   9.699  19.010   9.153
 7577POPC   GL134405   9.767  19.045   8.853
 7577POPC   GL234406   9.890  19.060   8.853
 7577POPC   C1A34407   9.730  19.053   8.553
 7577POPC   D2A34408   9.780  19.061   8.253
 7577POPC   C3A34409   9.771  19.062   7.953
 7577POPC   C4A34410   9.791  19.075   7.653
 7577POPC   C1B34411  10.010  19.028   8.553
 7577POPC   C2B34412   9.939  18.970   8.253
 7577POPC   C3B34413   9.956  19.003   7.953
 7577POPC   C4B34414   9.981  18.947   7.653
 7578POPC   NC334415  29.880   3.575   9.453
 7578POPC   PO434416  29.962   3.582   9.153
 7578POPC   GL134417  29.883   3.567   8.853
 7578POPC   GL234418  29.800   3.537   8.853
 7578POPC   C1A34419  29.883   3.492   8.553
 7578POPC   D2A34420  29.960   3.531   8.253
 7578POPC   C3A34421  29.963   3.585   7.953
 7578POPC   C4A34422  29.949   3.547   7.653
 7578POPC   C1B34423  29.690   3.558   8.553
 7578POPC   C2B34424  29.688   3.566   8.253
 7578POPC   C3B34425  29.662   3.574   7.953
 7578POPC   C4B34426  29.702   3.625   7.653
 7579POPC   NC334427  35.331  17.484   9.453
 7579POPC   PO434428  35.317  17.489   9.153
 7579POPC   GL134429  35.337  17.540   8.853
 7579POPC   GL234430  35.299  17.580   8.853
 7579POPC   C1A34431  35.308  17.468   8.553
 7579POPC   D2A34432  35.370  17.543   8.253
 7579POPC   C3A34433  35.309  17.547   7.953
 7579POPC   C4A34434  35.343  17.471   7.653
 7579POPC   C1B34435  35.214  17.743   8.553
 7579POPC   C2B34436  35.243  17.778   8.253
 7579POPC   C3B34437  35.258  17.684   7.953
 7579POPC   C4B34438  35.256  17.745   7.653
 7580POPC   NC334439   6.640  11.348   9.453
 7580POPC   PO434440   6.596  11.325   9.153
 7580POPC   GL134441   6.622  11.312   8.853
 7580POPC   GL234442   6.749  11.317   8.853
 7580POPC   C1A34443   6.612  11.276   8.553
 7580POPC   D2A34444   6.660  11.254   8.253
 7580POPC   C3A34445   6.627  11.294   7.953
 7580POPC   C4A34446   6.653  11.294   7.653
 7580POPC   C1B34447   6.901  11.339   8.553
 7580POPC   C2B34448   6.929  11.362   8.253
 7580POPC   C3B34449   6.881  11.346   7.953
 7580POPC   C4B34450   6.907  11.416   7.653
 7581POPC   NC334451   6.688  43.934   9.453
 7581POPC   PO434452   6.633  43.897   9.153
 7581POPC   GL134453   6.650  43.894   8.853
 7581POPC   GL234454   6.718  43.853   8.853
 7581POPC   C1A34455   6.618  43.869   8.553
 7581POPC   D2A34456   6.608  43.909   8.253
 7581POPC   C3A34457   6.692  43.920   7.953
 7581POPC   C4A34458   6.621  43.842   7.653
 7581POPC   C1B34459   6.841  43.694   8.553
 7581POPC   C2B34460   6.875  43.719   8.253
 7581POPC   C3B34461   6.820  43.690   7.953
 7581POPC   C4B34462   6.794  43.698   7.653
 7582POPC   NC334463  43.122  38.500   9.453
 7582POPC   PO434464  43.079  38.418   9.153
 7582POPC   GL134465  43.092  38.430   8.853
 7582POPC   GL234466  43.084  38.299   8.853
 7582POPC   C1A34467  43.132  38.421   8.553
 7582POPC   D2A34468  43.093  38.473   8.253
 7582POPC   C3A34469  43.148  38.469   7.953
 7582POPC   C4A34470  43.133  38.495   7.653
 7582POPC   C1B34471  43.047  38.233   8.553
 7582POPC   C2B34472  43.021  38.229   8.253
 7582POPC   C3B34473  43.068  38.206   7.953
 7582POPC   C4B34474  43.008  38.231   7.653
 7583POPC   NC334475  12.116  40.735   9.453
 7583POPC   PO434476  12.048  40.790   9.153
 7583POPC   GL134477  12.058  40.808   8.853
 7583POPC   GL234478  12.197  40.711   8.853
 7583POPC   C1A34479  12.096  40.787   8.553
 7583POPC   D2A34480  12.097  40.782   8.253
 7583POPC   C3A34481  12.063  40.736   7.953
 7583POPC   C4A34482  12.044  40.789   7.653
 7583POPC   C1B34483  12.307  40.690   8.553
 7583POPC   C2B34484  12.316  40.722   8.253
 7583POPC   C3B34485  12.314  40.699   7.953
 7583POPC   C4B34486  12.365  40.752   7.653
 7584POPC   NC334487   1.994  22.968   9.453
 7584POPC   PO434488   1.955  22.967   9.153
 7584POPC   GL134489   1.970  22.986   8.853
 7584POPC   GL234490   1.904  22.967   8.853
 7584POPC   C1A34491   1.982  22.964   8.553
 7584POPC   D2A34492   2.021  22.946   8.253
 7584POPC   C3A34493   1.940  22.897   7.953
 7584POPC   C4A34494   2.022  22.973   7.653
 7584POPC   C1B34495   1.774  22.898   8.553
 7584POPC   C2B34496   1.765  22.937   8.253
 7584POPC   C3B34497   1.772  22.876   7.953
 7584POPC   C4B34498   1.769  22.953   7.653
 7585POPC   NC334499  36.156  13.670   9.453
 7585POPC   PO434500  36.132  13.641   9.153
 7585POPC   GL134501  36.159  13.596   8.853
 7585POPC   GL234502  36.221  13.605   8.853
 7585POPC   C1A34503  36.135  13.578   8.553
 7585POPC   D2A34504  36.128  13.613   8.253
 7585POPC   C3A34505  36.090  13.647   7.953
 7585POPC   C4A34506  36.130  13.629   7.653
 7585POPC   C1B34507  36.390  13.589   8.553
 7585POPC   C2B34508  36.336  13.610   8.253
 7585POPC   C3B34509  36.382  13.596   7.953
 7585POPC   C4B34510  36.403  13.562   7.653
 7586POPC   NC334511  12.846   6.630   9.453
 7586POPC   PO434512  12.859   6.596   9.153
 7586POPC   GL134513  12.814   6.621   8.853
 7586POPC   GL234514  12.965   6.555   8.853
 7586POPC   C1A34515  12.889   6.627   8.553
 7586POPC   D2A34516  12.805   6.595   8.253
 7586POPC   C3A34517  12.889   6.639   7.953
 7586POPC   C4A34518  12.861   6.661   7.653
 7586POPC   C1B34519  13.092   6.539   8.553
 7586POPC   C2B34520  13.062   6.510   8.253
 7586POPC   C3B34521  13.054   6.501   7.953
 7586POPC   C4B34522  13.112   6.471   7.653
 7587POPC   NC334523  22.173  19.072   9.453
 7587POPC   PO434524  22.158  19.091   9.153
 7587POPC   GL134525  22.136  19.080   8.853
 7587POPC   GL234526  22.079  19.122   8.853
 7587POPC   C1A34527  22.137  19.077   8.553
 7587POPC   D2A34528  22.164  19.107   8.253
 7587POPC   C3A34529  22.141  19.013   7.953
 7587POPC   C4A34530  22.185  19.049   7.653
 7587POPC   C1B34531  21.918  19.162   8.553
 7587POPC   C2B34532  21.931  19.145   8.253
 7587POPC   C3B34533  21.883  19.104   7.953
 7587POPC   C4B34534  21.892  19.171   7.653
 7588POPC   NC334535  14.353  14.358   9.453
 7588POPC   PO434536  14.354  14.371   9.153
 7588POPC   GL134537  14.365  14.431   8.853
 7588POPC   GL234538  14.399  14.280   8.853
 7588POPC   C1A34539  14.422  14.374   8.553
 7588POPC   D2A34540  14.431  14.422   8.253
 7588POPC   C3A34541  14.421  14.439   7.953
 7588POPC   C4A34542  14.376  14.360   7.653
 7588POPC   C1B34543  14.483  14.134   8.553
 7588POPC   C2B34544  14.485  14.178   8.253
 7588POPC   C3B34545  14.438  14.180   7.953
 7588POPC   C4B34546  14.420  14.152   7.653
 7589POPC   NC334547  22.902  43.915   9.453
 7589POPC   PO434548  22.892  43.881   9.153
 7589POPC   GL134549  22.988  43.900   8.853
 7589POPC   GL234550  22.889  43.753   8.853
 7589POPC   C1A34551  22.926  43.879   8.553
 7589POPC   D2A34552  22.974  43.902   8.253
 7589POPC   C3A34553  22.970  43.875   7.953
 7589POPC   C4A34554  22.970  43.856   7.653
 7589POPC   C1B34555  22.717  43.730   8.553
 7589POPC   C2B34556  22.794  43.665   8.253
 7589POPC   C3B34557  22.789  43.704   7.953
 7589POPC   C4B34558  22.751  43.752   7.653
 7590POPC   NC334559  27.554   3.585   9.453
 7590POPC   PO434560  27.642   3.585   9.153
 7590POPC   GL134561  27.612   3.579   8.853
 7590POPC   GL234562  27.509   3.565   8.853
 7590POPC   C1A34563  27.603   3.554   8.553
 7590POPC   D2A34564  27.589   3.554   8.253
 7590POPC   C3A34565  27.602   3.583   7.953
 7590POPC   C4A34566  27.637   3.548   7.653
 7590POPC   C1B34567  27.379   3.518   8.553
 7590POPC   C2B34568  27.351   3.538   8.253
 7590POPC   C3B34569  27.335   3.499   7.953
 7590POPC   C4B34570  27.363   3.517   7.653
 7591POPC   NC334571  39.991  27.620   9.453
 7591POPC   PO434572  40.045  27.587   9.153
 7591POPC   GL134573  39.998  27.599   8.853
 7591POPC   GL234574  40.009  27.481   8.853
 7591POPC   C1A34575  39.962  27.595   8.553
 7591POPC   D2A34576  39.979  27.609   8.253
 7591POPC   C3A34577  40.001  27.582   7.953
 7591POPC   C4A34578  39.982  27.624   7.653
 7591POPC   C1B34579  39.925  27.375   8.553
 7591POPC   C2B34580  39.979  27.356   8.253
 7591POPC   C3B34581  39.938  27.352   7.953
 7591POPC   C4B34582  39.968  27.344   7.653
 7592POPC   NC334583  32.220  29.934   9.453
 7592POPC   PO434584  32.272  29.916   9.153
 7592POPC   GL134585  32.210  29.878   8.853
 7592POPC   GL234586  32.200  30.025   8.853
 7592POPC   C1A34587  32.246  29.913   8.553
 7592POPC   D2A34588  32.206  29.940   8.253
 7592POPC   C3A34589  32.291  29.890   7.953
 7592POPC   C4A34590  32.260  29.968   7.653
 7592POPC   C1B34591  32.206  30.215   8.553
 7592POPC   C2B34592  32.221  30.195   8.253
 7592POPC   C3B34593  32.212  30.140   7.953
 7592POPC   C4B34594  32.223  30.192   7.653
 7593POPC   NC334595  38.503  25.223   9.453
 7593POPC   PO434596  38.458  25.258   9.153
 7593POPC   GL134597  38.485  25.249   8.853
 7593POPC   GL234598  38.527  25.344   8.853
 7593POPC   C1A34599  38.473  25.272   8.553
 7593POPC   D2A34600  38.413  25.296   8.253
 7593POPC   C3A34601  38.460  25.244   7.953
 7593POPC   C4A34602  38.412  25.242   7.653
 7593POPC   C1B34603  38.542  25.474   8.553
 7593POPC   C2B34604  38.568  25.483   8.253
 7593POPC   C3B34605  38.620  25.503   7.953
 7593POPC   C4B34606  38.593  25.493   7.653
 7594POPC   NC334607  32.266  26.841   9.453
 7594POPC   PO434608  32.244  26.803   9.153
 7594POPC   GL134609  32.279  26.863   8.853
 7594POPC   GL234610  32.236  26.967   8.853
 7594POPC   C1A34611  32.266  26.809   8.553
 7594POPC   D2A34612  32.222  26.858   8.253
 7594POPC   C3A34613  32.207  26.775   7.953
 7594POPC   C4A34614  32.291  26.866   7.653
 7594POPC   C1B34615  32.166  27.083   8.553
 7594POPC   C2B34616  32.217  27.098   8.253
 7594POPC   C3B34617  32.143  27.018   7.953
 7594POPC   C4B34618  32.210  27.023   7.653
 7595POPC   NC334619  10.550   5.828   9.453
 7595POPC   PO434620  10.542   5.854   9.153
 7595POPC   GL134621  10.476   5.888   8.853
 7595POPC   GL234622  10.477   5.764   8.853
 7595POPC   C1A34623  10.555   5.901   8.553
 7595POPC   D2A34624  10.528   5.879   8.253
 7595POPC   C3A34625  10.569   5.825   7.953
 7595POPC   C4A34626  10.572   5.875   7.653
 7595POPC   C1B34627  10.301   5.684   8.553
 7595POPC   C2B34628  10.350   5.703   8.253
 7595POPC   C3B34629  10.390   5.738   7.953
 7595POPC   C4B34630  10.327   5.700   7.653
 7596POPC   NC334631  34.531  40.014   9.453
 7596POPC   PO434632  34.533  39.965   9.153
 7596POPC   GL134633  34.581  39.964   8.853
 7596POPC   GL234634  34.568  40.131   8.853
 7596POPC   C1A34635  34.579  39.983   8.553
 7596POPC   D2A34636  34.588  40.024   8.253
 7596POPC   C3A34637  34.562  40.043   7.953
 7596POPC   C4A34638  34.530  39.982   7.653
 7596POPC   C1B34639  34.484  40.279   8.553
 7596POPC   C2B34640  34.544  40.221   8.253
 7596POPC   C3B34641  34.488  40.271   7.953
 7596POPC   C4B34642  34.503  40.286   7.653
 7597POPC   NC334643  30.738  39.205   9.453
 7597POPC   PO434644  30.722  39.262   9.153
 7597POPC   GL134645  30.689  39.231   8.853
 7597POPC   GL234646  30.739  39.099   8.853
 7597POPC   C1A34647  30.709  39.186   8.553
 7597POPC   D2A34648  30.711  39.208   8.253
 7597POPC   C3A34649  30.665  39.225   7.953
 7597POPC   C4A34650  30.659  39.259   7.653
 7597POPC   C1B34651  30.837  39.053   8.553
 7597POPC   C2B34652  30.821  39.015   8.253
 7597POPC   C3B34653  30.801  39.057   7.953
 7597POPC   C4B34654  30.819  38.982   7.653
 7598POPC   NC334655  27.619  36.949   9.453
 7598POPC   PO434656  27.594  36.921   9.153
 7598POPC   GL134657  27.622  36.894   8.853
 7598POPC   GL234658  27.561  37.019   8.853
 7598POPC   C1A34659  27.611  36.856   8.553
 7598POPC   D2A34660  27.575  36.906   8.253
 7598POPC   C3A34661  27.569  36.903   7.953
 7598POPC   C4A34662  27.615  36.901   7.653
 7598POPC   C1B34663  27.454  37.165   8.553
 7598POPC   C2B34664  27.474  37.093   8.253
 7598POPC   C3B34665  27.427  37.153   7.953
 7598POPC   C4B34666  27.443  37.109   7.653
 7599POPC   NC334667  41.550  26.836   9.453
 7599POPC   PO434668  41.527  26.794   9.153
 7599POPC   GL134669  41.566  26.782   8.853
 7599POPC   GL234670  41.641  26.731   8.853
 7599POPC   C1A34671  41.567  26.787   8.553
 7599POPC   D2A34672  41.593  26.810   8.253
 7599POPC   C3A34673  41.514  26.781   7.953
 7599POPC   C4A34674  41.606  26.801   7.653
 7599POPC   C1B34675  41.751  26.597   8.553
 7599POPC   C2B34676  41.670  26.656   8.253
 7599POPC   C3B34677  41.752  26.637   7.953
 7599POPC   C4B34678  41.690  26.594   7.653
 7600POPC   NC334679  19.061  22.209   9.453
 7600POPC   PO434680  19.106  22.207   9.153
 7600POPC   GL134681  19.074  22.149   8.853
 7600POPC   GL234682  19.146  22.130   8.853
 7600POPC   C1A34683  19.018  22.149   8.553
 7600POPC   D2A34684  19.065  22.208   8.253
 7600POPC   C3A34685  19.074  22.165   7.953
 7600POPC   C4A34686  19.034  22.135   7.653
 7600POPC   C1B34687  19.254  21.991   8.553
 7600POPC   C2B34688  19.276  21.999   8.253
 7600POPC   C3B34689  19.236  22.079   7.953
 7600POPC   C4B34690  19.270  22.056   7.653
 7601POPC   NC334691  20.573  24.478   9.453
 7601POPC   PO434692  20.584  24.524   9.153
 7601POPC   GL134693  20.590  24.445   8.853
 7601POPC   GL234694  20.468  24.428   8.853
 7601POPC   C1A34695  20.612  24.522   8.553
 7601POPC   D2A34696  20.627  24.517   8.253
 7601POPC   C3A34697  20.571  24.525   7.953
 7601POPC   C4A34698  20.608  24.514   7.653
 7601POPC   C1B34699  20.438  24.304   8.553
 7601POPC   C2B34700  20.380  24.352   8.253
 7601POPC   C3B34701  20.407  24.358   7.953
 7601POPC   C4B34702  20.422  24.309   7.653
 7602POPC   NC334703  29.146  25.286   9.453
 7602POPC   PO434704  29.164  25.216   9.153
 7602POPC   GL134705  29.113  25.275   8.853
 7602POPC   GL234706  29.166  25.178   8.853
 7602POPC   C1A34707  29.128  25.279   8.553
 7602POPC   D2A34708  29.114  25.302   8.253
 7602POPC   C3A34709  29.171  25.314   7.953
 7602POPC   C4A34710  29.123  25.226   7.653
 7602POPC   C1B34711  29.165  24.991   8.553
 7602POPC   C2B34712  29.138  25.059   8.253
 7602POPC   C3B34713  29.128  25.015   7.953
 7602POPC   C4B34714  29.168  25.000   7.653
 7603POPC   NC334715  33.055  16.731   9.453
 7603POPC   PO434716  33.057  16.767   9.153
 7603POPC   GL134717  33.074  16.734   8.853
 7603POPC   GL234718  33.037  16.814   8.853
 7603POPC   C1A34719  33.067  16.749   8.553
 7603POPC   D2A34720  33.031  16.771   8.253
 7603POPC   C3A34721  33.072  16.747   7.953
 7603POPC   C4A34722  33.066  16.776   7.653
 7603POPC   C1B34723  32.992  17.000   8.553
 7603POPC   C2B34724  32.991  17.005   8.253
 7603POPC   C3B34725  33.073  17.001   7.953
 7603POPC   C4B34726  33.008  16.938   7.653
 7604POPC   NC334727  35.391   9.719   9.453
 7604POPC   PO434728  35.323   9.731   9.153
 7604POPC   GL134729  35.326   9.706   8.853
 7604POPC   GL234730  35.424   9.828   8.853
 7604POPC   C1A34731  35.331   9.769   8.553
 7604POPC   D2A34732  35.383   9.715   8.253
 7604POPC   C3A34733  35.392   9.702   7.953
 7604POPC   C4A34734  35.396   9.775   7.653
 7604POPC   C1B34735  35.630   9.771   8.553
 7604POPC   C2B34736  35.557   9.856   8.253
 7604POPC   C3B34737  35.571   9.825   7.953
 7604POPC   C4B34738  35.618   9.781   7.653
 7605POPC   NC334739  44.635  15.151   9.453
 7605POPC   PO434740  44.628  15.153   9.153
 7605POPC   GL134741  44.698  15.228   8.853
 7605POPC   GL234742  44.647  15.070   8.853
 7605POPC   C1A34743  44.653  15.228   8.553
 7605POPC   D2A34744  44.614  15.132   8.253
 7605POPC   C3A34745  44.621  15.130   7.953
 7605POPC   C4A34746  44.618  15.201   7.653
 7605POPC   C1B34747  44.615  14.944   8.553
 7605POPC   C2B34748  44.573  14.963   8.253
 7605POPC   C3B34749  44.545  14.910   7.953
 7605POPC   C4B34750  44.576  14.972   7.653
 7606POPC   NC334751  17.547  44.648   9.453
 7606POPC   PO434752  17.481  44.680   9.153
 7606POPC   GL134753  17.529  44.672   8.853
 7606POPC   GL234754  17.542  44.747   8.853
 7606POPC   C1A34755  17.525  44.621   8.553
 7606POPC   D2A34756  17.546  44.614   8.253
 7606POPC   C3A34757  17.530  44.711   7.953
 7606POPC   C4A34758  17.478  44.621   7.653
 7606POPC   C1B34759  17.555  44.872   8.553
 7606POPC   C2B34760  17.590  44.925   8.253
 7606POPC   C3B34761  17.608  44.937   7.953
 7606POPC   C4B34762  17.574  44.912   7.653
 7607POPC   NC334763  15.146  12.120   9.453
 7607POPC   PO434764  15.156  12.090   9.153
 7607POPC   GL134765  15.145  12.117   8.853
 7607POPC   GL234766  15.275  12.015   8.853
 7607POPC   C1A34767  15.165  12.095   8.553
 7607POPC   D2A34768  15.225  12.062   8.253
 7607POPC   C3A34769  15.159  12.046   7.953
 7607POPC   C4A34770  15.222  12.100   7.653
 7607POPC   C1B34771  15.353  11.870   8.553
 7607POPC   C2B34772  15.317  11.833   8.253
 7607POPC   C3B34773  15.343  11.856   7.953
 7607POPC   C4B34774  15.335  11.838   7.653
 7608POPC   NC334775  44.698  25.297   9.453
 7608POPC   PO434776  44.656  25.284   9.153
 7608POPC   GL134777  44.676  25.268   8.853
 7608POPC   GL234778  44.584  25.152   8.853
 7608POPC   C1A34779  44.651  25.289   8.553
 7608POPC   D2A34780  44.640  25.241   8.253
 7608POPC   C3A34781  44.706  25.269   7.953
 7608POPC   C4A34782  44.641  25.216   7.653
 7608POPC   C1B34783  44.485  25.099   8.553
 7608POPC   C2B34784  44.498  25.098   8.253
 7608POPC   C3B34785  44.463  25.100   7.953
 7608POPC   C4B34786  44.508  25.076   7.653
 7609POPC   NC334787   0.433  22.890   9.453
 7609POPC   PO434788   0.465  22.891   9.153
 7609POPC   GL134789   0.405  22.931   8.853
 7609POPC   GL234790   0.409  22.830   8.853
 7609POPC   C1A34791   0.444  22.894   8.553
 7609POPC   D2A34792   0.459  22.955   8.253
 7609POPC   C3A34793   0.474  22.901   7.953
 7609POPC   C4A34794   0.469  22.892   7.653
 7609POPC   C1B34795   0.324  22.714   8.553
 7609POPC   C2B34796   0.331  22.721   8.253
 7609POPC   C3B34797   0.348  22.754   7.953
 7609POPC   C4B34798   0.281  22.723   7.653
 7610POPC   NC334799  36.912  29.871   9.453
 7610POPC   PO434800  36.864  29.882   9.153
 7610POPC   GL134801  36.888  29.942   8.853
 7610POPC   GL234802  37.002  29.864   8.853
 7610POPC   C1A34803  36.860  29.917   8.553
 7610POPC   D2A34804  36.900  29.919   8.253
 7610POPC   C3A34805  36.919  29.898   7.953
 7610POPC   C4A34806  36.897  29.885   7.653
 7610POPC   C1B34807  37.116  29.739   8.553
 7610POPC   C2B34808  37.087  29.780   8.253
 7610POPC   C3B34809  37.066  29.733   7.953
 7610POPC   C4B34810  37.044  29.740   7.653
 7611POPC   NC334811   8.925  10.546   9.453
 7611POPC   PO434812   8.959  10.495   9.153
 7611POPC   GL134813   8.979  10.501   8.853
 7611POPC   GL234814   8.827  10.540   8.853
 7611POPC   C1A34815   9.015  10.512   8.553
 7611POPC   D2A34816   8.938  10.522   8.253
 7611POPC   C3A34817   8.945  10.528   7.953
 7611POPC   C4A34818   8.930  10.483   7.653
 7611POPC   C1B34819   8.732  10.632   8.553
 7611POPC   C2B34820   8.718  10.614   8.253
 7611POPC   C3B34821   8.736  10.628   7.953
 7611POPC   C4B34822   8.747  10.595   7.653
 7612POPC   NC334823  15.972  43.899   9.453
 7612POPC   PO434824  15.910  43.912   9.153
 7612POPC   GL134825  15.939  43.846   8.853
 7612POPC   GL234826  16.085  43.764   8.853
 7612POPC   C1A34827  15.978  43.902   8.553
 7612POPC   D2A34828  15.989  43.916   8.253
 7612POPC   C3A34829  15.969  43.863   7.953
 7612POPC   C4A34830  15.937  43.840   7.653
 7612POPC   C1B34831  16.157  43.651   8.553
 7612POPC   C2B34832  16.165  43.683   8.253
 7612POPC   C3B34833  16.076  43.660   7.953
 7612POPC   C4B34834  16.114  43.739   7.653
 7613POPC   NC334835  25.260   5.108   9.453
 7613POPC   PO434836  25.219   5.133   9.153
 7613POPC   GL134837  25.220   5.090   8.853
 7613POPC   GL234838  25.345   4.966   8.853
 7613POPC   C1A34839  25.254   5.054   8.553
 7613POPC   D2A34840  25.243   5.083   8.253
 7613POPC   C3A34841  25.307   5.053   7.953
 7613POPC   C4A34842  25.313   5.062   7.653
 7613POPC   C1B34843  25.388   4.889   8.553
 7613POPC   C2B34844  25.310   4.873   8.253
 7613POPC   C3B34845  25.346   4.828   7.953
 7613POPC   C4B34846  25.397   4.829   7.653
 7614POPC   NC334847   8.155  10.531   9.453
 7614POPC   PO434848   8.218  10.544   9.153
 7614POPC   GL134849   8.217  10.524   8.853
 7614POPC   GL234850   8.181  10.387   8.853
 7614POPC   C1A34851   8.202  10.477   8.553
 7614POPC   D2A34852   8.213  10.485   8.253
 7614POPC   C3A34853   8.222  10.488   7.953
 7614POPC   C4A34854   8.163  10.533   7.653
 7614POPC   C1B34855   8.119  10.301   8.553
 7614POPC   C2B34856   8.106  10.310   8.253
 7614POPC   C3B34857   8.094  10.292   7.953
 7614POPC   C4B34858   8.091  10.259   7.653
 7615POPC   NC334859  26.780   2.777   9.453
 7615POPC   PO434860  26.858   2.761   9.153
 7615POPC   GL134861  26.814   2.759   8.853
 7615POPC   GL234862  26.902   2.684   8.853
 7615POPC   C1A34863  26.840   2.797   8.553
 7615POPC   D2A34864  26.820   2.717   8.253
 7615POPC   C3A34865  26.819   2.815   7.953
 7615POPC   C4A34866  26.854   2.770   7.653
 7615POPC   C1B34867  26.945   2.596   8.553
 7615POPC   C2B34868  26.976   2.619   8.253
 7615POPC   C3B34869  26.973   2.589   7.953
 7615POPC   C4B34870  27.010   2.548   7.653
 7616POPC   NC334871   2.793  12.892   9.453
 7616POPC   PO434872   2.782  12.803   9.153
 7616POPC   GL134873   2.782  12.810   8.853
 7616POPC   GL234874   2.897  12.738   8.853
 7616POPC   C1A34875   2.717  12.805   8.553
 7616POPC   D2A34876   2.743  12.900   8.253
 7616POPC   C3A34877   2.810  12.877   7.953
 7616POPC   C4A34878   2.786  12.816   7.653
 7616POPC   C1B34879   2.947  12.710   8.553
 7616POPC   C2B34880   2.976  12.726   8.253
 7616POPC   C3B34881   2.946  12.724   7.953
 7616POPC   C4B34882   2.938  12.671   7.653
 7617POPC   NC334883  20.657  11.347   9.453
 7617POPC   PO434884  20.569  11.254   9.153
 7617POPC   GL134885  20.648  11.348   8.853
 7617POPC   GL234886  20.715  11.363   8.853
 7617POPC   C1A34887  20.601  11.260   8.553
 7617POPC   D2A34888  20.611  11.288   8.253
 7617POPC   C3A34889  20.577  11.312   7.953
 7617POPC   C4A34890  20.600  11.252   7.653
 7617POPC   C1B34891  20.884  11.307   8.553
 7617POPC   C2B34892  20.826  11.376   8.253
 7617POPC   C3B34893  20.863  11.367   7.953
 7617POPC   C4B34894  20.856  11.318   7.653
 7618POPC   NC334895   2.760   0.427   9.453
 7618POPC   PO434896   2.745   0.449   9.153
 7618POPC   GL134897   2.751   0.428   8.853
 7618POPC   GL234898   2.693   0.418   8.853
 7618POPC   C1A34899   2.755   0.469   8.553
 7618POPC   D2A34900   2.716   0.444   8.253
 7618POPC   C3A34901   2.778   0.445   7.953
 7618POPC   C4A34902   2.716   0.453   7.653
 7618POPC   C1B34903   2.519   0.321   8.553
 7618POPC   C2B34904   2.562   0.394   8.253
 7618POPC   C3B34905   2.482   0.376   7.953
 7618POPC   C4B34906   2.579   0.311   7.653
 7619POPC   NC334907   8.952  18.331   9.453
 7619POPC   PO434908   9.019  18.246   9.153
 7619POPC   GL134909   8.970  18.290   8.853
 7619POPC   GL234910   8.979  18.132   8.853
 7619POPC   C1A34911   8.973  18.325   8.553
 7619POPC   D2A34912   8.981  18.257   8.253
 7619POPC   C3A34913   8.975  18.330   7.953
 7619POPC   C4A34914   9.003  18.287   7.653
 7619POPC   C1B34915   8.913  18.023   8.553
 7619POPC   C2B34916   8.929  18.014   8.253
 7619POPC   C3B34917   9.008  18.077   7.953
 7619POPC   C4B34918   8.996  17.998   7.653
 7620POPC   NC334919  37.654  21.348   9.453
 7620POPC   PO434920  37.629  21.338   9.153
 7620POPC   GL134921  37.727  21.340   8.853
 7620POPC   GL234922  37.567  21.542   8.853
 7620POPC   C1A34923  37.724  21.422   8.553
 7620POPC   D2A34924  37.703  21.350   8.253
 7620POPC   C3A34925  37.632  21.428   7.953
 7620POPC   C4A34926  37.719  21.401   7.653
 7620POPC   C1B34927  37.515  21.571   8.553
 7620POPC   C2B34928  37.578  21.621   8.253
 7620POPC   C3B34929  37.528  21.641   7.953
 7620POPC   C4B34930  37.524  21.607   7.653
 7621POPC   NC334931  15.921  29.109   9.453
 7621POPC   PO434932  15.948  29.162   9.153
 7621POPC   GL134933  15.951  29.123   8.853
 7621POPC   GL234934  16.094  29.253   8.853
 7621POPC   C1A34935  15.927  29.168   8.553
 7621POPC   D2A34936  16.005  29.117   8.253
 7621POPC   C3A34937  15.989  29.137   7.953
 7621POPC   C4A34938  16.005  29.141   7.653
 7621POPC   C1B34939  16.216  29.246   8.553
 7621POPC   C2B34940  16.198  29.254   8.253
 7621POPC   C3B34941  16.136  29.285   7.953
 7621POPC   C4B34942  16.139  29.238   7.653
 7622POPC   NC334943  35.308  44.620   9.453
 7622POPC   PO434944  35.374  44.690   9.153
 7622POPC   GL134945  35.350  44.615   8.853
 7622POPC   GL234946  35.416  44.808   8.853
 7622POPC   C1A34947  35.366  44.624   8.553
 7622POPC   D2A34948  35.306  44.613   8.253
 7622POPC   C3A34949  35.363  44.687   7.953
 7622POPC   C4A34950  35.332  44.627   7.653
 7622POPC   C1B34951  35.437  44.858   8.553
 7622POPC   C2B34952  35.425  44.875   8.253
 7622POPC   C3B34953  35.497  44.909   7.953
 7622POPC   C4B34954  35.482  44.841   7.653
 7623POPC   NC334955   6.612  39.974   9.453
 7623POPC   PO434956   6.679  40.019   9.153
 7623POPC   GL134957   6.691  40.044   8.853
 7623POPC   GL234958   6.753  39.884   8.853
 7623POPC   C1A34959   6.692  39.994   8.553
 7623POPC   D2A34960   6.639  40.035   8.253
 7623POPC   C3A34961   6.607  39.980   7.953
 7623POPC   C4A34962   6.595  39.980   7.653
 7623POPC   C1B34963   6.770  39.839   8.553
 7623POPC   C2B34964   6.745  39.802   8.253
 7623POPC   C3B34965   6.826  39.760   7.953
 7623POPC   C4B34966   6.831  39.802   7.653
 7624POPC   NC334967  17.544  34.580   9.453
 7624POPC   PO434968  17.477  34.589   9.153
 7624POPC   GL134969  17.508  34.543   8.853
 7624POPC   GL234970  17.445  34.671   8.853
 7624POPC   C1A34971  17.503  34.615   8.553
 7624POPC   D2A34972  17.529  34.546   8.253
 7624POPC   C3A34973  17.508  34.562   7.953
 7624POPC   C4A34974  17.520  34.569   7.653
 7624POPC   C1B34975  17.426  34.815   8.553
 7624POPC   C2B34976  17.397  34.792   8.253
 7624POPC   C3B34977  17.451  34.836   7.953
 7624POPC   C4B34978  17.370  34.833   7.653
 7625POPC   NC334979  24.534  40.812   9.453
 7625POPC   PO434980  24.445  40.803   9.153
 7625POPC   GL134981  24.454  40.746   8.853
 7625POPC   GL234982  24.408  40.924   8.853
 7625POPC   C1A34983  24.460  40.771   8.553
 7625POPC   D2A34984  24.512  40.778   8.253
 7625POPC   C3A34985  24.471  40.768   7.953
 7625POPC   C4A34986  24.475  40.760   7.653
 7625POPC   C1B34987  24.413  41.017   8.553
 7625POPC   C2B34988  24.367  40.985   8.253
 7625POPC   C3B34989  24.405  40.971   7.953
 7625POPC   C4B34990  24.404  40.995   7.653
 7626POPC   NC334991   5.101  11.297   9.453
 7626POPC   PO434992   5.067  11.327   9.153
 7626POPC   GL134993   5.138  11.253   8.853
 7626POPC   GL234994   4.943  11.322   8.853
 7626POPC   C1A34995   5.093  11.278   8.553
 7626POPC   D2A34996   5.050  11.251   8.253
 7626POPC   C3A34997   5.071  11.282   7.953
 7626POPC   C4A34998   5.072  11.298   7.653
 7626POPC   C1B34999   4.815  11.285   8.553
 7626POPC   C2B35000   4.876  11.310   8.253
 7626POPC   C3B35001   4.825  11.315   7.953
 7626POPC   C4B35002   4.796  11.309   7.653
 7627POPC   NC335003  31.518  36.114   9.453
 7627POPC   PO435004  31.496  36.087   9.153
 7627POPC   GL135005  31.477  36.083   8.853
 7627POPC   GL235006  31.454  36.266   8.853
 7627POPC   C1A35007  31.430  36.140   8.553
 7627POPC   D2A35008  31.439  36.161   8.253
 7627POPC   C3A35009  31.498  36.115   7.953
 7627POPC   C4A35010  31.467  36.167   7.653
 7627POPC   C1B35011  31.425  36.380   8.553
 7627POPC   C2B35012  31.398  36.417   8.253
 7627POPC   C3B35013  31.428  36.341   7.953
 7627POPC   C4B35014  31.458  36.409   7.653
 7628POPC   NC335015  22.176  34.598   9.453
 7628POPC   PO435016  22.176  34.529   9.153
 7628POPC   GL135017  22.189  34.568   8.853
 7628POPC   GL235018  22.276  34.516   8.853
 7628POPC   C1A35019  22.146  34.572   8.553
 7628POPC   D2A35020  22.125  34.534   8.253
 7628POPC   C3A35021  22.196  34.551   7.953
 7628POPC   C4A35022  22.153  34.588   7.653
 7628POPC   C1B35023  22.328  34.417   8.553
 7628POPC   C2B35024  22.356  34.437   8.253
 7628POPC   C3B35025  22.329  34.396   7.953
 7628POPC   C4B35026  22.337  34.472   7.653
 7629POPC   NC335027  15.148  27.544   9.453
 7629POPC   PO435028  15.204  27.584   9.153
 7629POPC   GL135029  15.154  27.544   8.853
 7629POPC   GL235030  15.313  27.725   8.853
 7629POPC   C1A35031  15.188  27.632   8.553
 7629POPC   D2A35032  15.206  27.575   8.253
 7629POPC   C3A35033  15.174  27.566   7.953
 7629POPC   C4A35034  15.145  27.585   7.653
 7629POPC   C1B35035  15.371  27.744   8.553
 7629POPC   C2B35036  15.393  27.777   8.253
 7629POPC   C3B35037  15.302  27.729   7.953
 7629POPC   C4B35038  15.315  27.825   7.653
 7630POPC   NC335039  18.256  14.372   9.453
 7630POPC   PO435040  18.287  14.401   9.153
 7630POPC   GL135041  18.234  14.424   8.853
 7630POPC   GL235042  18.339  14.467   8.853
 7630POPC   C1A35043  18.265  14.403   8.553
 7630POPC   D2A35044  18.258  14.396   8.253
 7630POPC   C3A35045  18.281  14.392   7.953
 7630POPC   C4A35046  18.271  14.386   7.653
 7630POPC   C1B35047  18.467  14.621   8.553
 7630POPC   C2B35048  18.465  14.582   8.253
 7630POPC   C3B35049  18.424  14.542   7.953
 7630POPC   C4B35050  18.469  14.579   7.653
 7631POPC   NC335051  12.878  27.624   9.453
 7631POPC   PO435052  12.842  27.592   9.153
 7631POPC   GL135053  12.819  27.632   8.853
 7631POPC   GL235054  12.820  27.444   8.853
 7631POPC   C1A35055  12.840  27.575   8.553
 7631POPC   D2A35056  12.876  27.631   8.253
 7631POPC   C3A35057  12.856  27.594   7.953
 7631POPC   C4A35058  12.883  27.577   7.653
 7631POPC   C1B35059  12.911  27.313   8.553
 7631POPC   C2B35060  12.890  27.340   8.253
 7631POPC   C3B35061  12.828  27.353   7.953
 7631POPC   C4B35062  12.846  27.389   7.653
 7632POPC   NC335063  31.463  21.401   9.453
 7632POPC   PO435064  31.456  21.423   9.153
 7632POPC   GL135065  31.432  21.341   8.853
 7632POPC   GL235066  31.480  21.479   8.853
 7632POPC   C1A35067  31.455  21.427   8.553
 7632POPC   D2A35068  31.484  21.346   8.253
 7632POPC   C3A35069  31.487  21.399   7.953
 7632POPC   C4A35070  31.470  21.340   7.653
 7632POPC   C1B35071  31.461  21.618   8.553
 7632POPC   C2B35072  31.557  21.650   8.253
 7632POPC   C3B35073  31.500  21.612   7.953
 7632POPC   C4B35074  31.467  21.590   7.653
 7633POPC   NC335075  15.197  44.654   9.453
 7633POPC   PO435076  15.183  44.671   9.153
 7633POPC   GL135077  15.206  44.655   8.853
 7633POPC   GL235078  15.023  44.651   8.853
 7633POPC   C1A35079  15.210  44.669   8.553
 7633POPC   D2A35080  15.147  44.707   8.253
 7633POPC   C3A35081  15.130  44.659   7.953
 7633POPC   C4A35082  15.147  44.702   7.653
 7633POPC   C1B35083  14.938  44.715   8.553
 7633POPC   C2B35084  14.968  44.682   8.253
 7633POPC   C3B35085  14.918  44.698   7.953
 7633POPC   C4B35086  14.923  44.640   7.653
 7634POPC   NC335087  17.542   4.276   9.453
 7634POPC   PO435088  17.544   4.292   9.153
 7634POPC   GL135089  17.479   4.335   8.853
 7634POPC   GL235090  17.603   4.342   8.853
 7634POPC   C1A35091  17.488   4.319   8.553
 7634POPC   D2A35092  17.523   4.365   8.253
 7634POPC   C3A35093  17.460   4.356   7.953
 7634POPC   C4A35094  17.528   4.277   7.653
 7634POPC   C1B35095  17.764   4.405   8.553
 7634POPC   C2B35096  17.726   4.404   8.253
 7634POPC   C3B35097  17.702   4.360   7.953
 7634POPC   C4B35098  17.747   4.388   7.653
 7635POPC   NC335099  12.900  41.581   9.453
 7635POPC   PO435100  12.856  41.539   9.153
 7635POPC   GL135101  12.866  41.520   8.853
 7635POPC   GL235102  12.850  41.639   8.853
 7635POPC   C1A35103  12.881  41.562   8.553
 7635POPC   D2A35104  12.873  41.576   8.253
 7635POPC   C3A35105  12.888  41.521   7.953
 7635POPC   C4A35106  12.859  41.593   7.653
 7635POPC   C1B35107  12.862  41.833   8.553
 7635POPC   C2B35108  12.815  41.830   8.253
 7635POPC   C3B35109  12.816  41.809   7.953
 7635POPC   C4B35110  12.882  41.812   7.653
 7636POPC   NC335111  30.684  10.518   9.453
 7636POPC   PO435112  30.650  10.537   9.153
 7636POPC   GL135113  30.683  10.557   8.853
 7636POPC   GL235114  30.660  10.370   8.853
 7636POPC   C1A35115  30.741  10.549   8.553
 7636POPC   D2A35116  30.712  10.562   8.253
 7636POPC   C3A35117  30.725  10.485   7.953
 7636POPC   C4A35118  30.715  10.564   7.653
 7636POPC   C1B35119  30.651  10.295   8.553
 7636POPC   C2B35120  30.615  10.232   8.253
 7636POPC   C3B35121  30.635  10.296   7.953
 7636POPC   C4B35122  30.654  10.248   7.653
 7637POPC   NC335123  23.728  10.498   9.453
 7637POPC   PO435124  23.736  10.498   9.153
 7637POPC   GL135125  23.742  10.524   8.853
 7637POPC   GL235126  23.646  10.369   8.853
 7637POPC   C1A35127  23.710  10.524   8.553
 7637POPC   D2A35128  23.729  10.537   8.253
 7637POPC   C3A35129  23.751  10.479   7.953
 7637POPC   C4A35130  23.715  10.483   7.653
 7637POPC   C1B35131  23.684  10.334   8.553
 7637POPC   C2B35132  23.644  10.278   8.253
 7637POPC   C3B35133  23.587  10.257   7.953
 7637POPC   C4B35134  23.617  10.265   7.653
 7638POPC   NC335135  24.520  34.573   9.453
 7638POPC   PO435136  24.529  34.545   9.153
 7638POPC   GL135137  24.479  34.566   8.853
 7638POPC   GL235138  24.408  34.585   8.853
 7638POPC   C1A35139  24.447  34.562   8.553
 7638POPC   D2A35140  24.473  34.530   8.253
 7638POPC   C3A35141  24.523  34.578   7.953
 7638POPC   C4A35142  24.537  34.618   7.653
 7638POPC   C1B35143  24.281  34.660   8.553
 7638POPC   C2B35144  24.239  34.660   8.253
 7638POPC   C3B35145  24.208  34.636   7.953
 7638POPC   C4B35146  24.280  34.652   7.653
 7639POPC   NC335147  12.100  33.036   9.453
 7639POPC   PO435148  12.069  33.013   9.153
 7639POPC   GL135149  12.104  33.032   8.853
 7639POPC   GL235150  11.985  33.140   8.853
 7639POPC   C1A35151  12.076  33.045   8.553
 7639POPC   D2A35152  12.113  33.040   8.253
 7639POPC   C3A35153  12.059  33.039   7.953
 7639POPC   C4A35154  12.087  33.017   7.653
 7639POPC   C1B35155  11.857  33.115   8.553
 7639POPC   C2B35156  11.823  33.204   8.253
 7639POPC   C3B35157  11.826  33.190   7.953
 7639POPC   C4B35158  11.896  33.202   7.653
 7640POPC   NC335159  35.353  15.224   9.453
 7640POPC   PO435160  35.353  15.204   9.153
 7640POPC   GL135161  35.363  15.134   8.853
 7640POPC   GL235162  35.203  15.096   8.853
 7640POPC   C1A35163  35.379  15.215   8.553
 7640POPC   D2A35164  35.305  15.130   8.253
 7640POPC   C3A35165  35.357  15.223   7.953
 7640POPC   C4A35166  35.375  15.175   7.653
 7640POPC   C1B35167  35.150  15.049   8.553
 7640POPC   C2B35168  35.133  15.040   8.253
 7640POPC   C3B35169  35.164  15.071   7.953
 7640POPC   C4B35170  35.087  15.099   7.653
 7641POPC   NC335171   5.827  17.471   9.453
 7641POPC   PO435172   5.884  17.545   9.153
 7641POPC   GL135173   5.898  17.461   8.853
 7641POPC   GL235174   5.944  17.483   8.853
 7641POPC   C1A35175   5.891  17.461   8.553
 7641POPC   D2A35176   5.915  17.543   8.253
 7641POPC   C3A35177   5.860  17.522   7.953
 7641POPC   C4A35178   5.861  17.465   7.653
 7641POPC   C1B35179   6.151  17.533   8.553
 7641POPC   C2B35180   6.091  17.536   8.253
 7641POPC   C3B35181   6.117  17.598   7.953
 7641POPC   C4B35182   6.096  17.593   7.653
 7642POPC   NC335183  19.852  32.279   9.453
 7642POPC   PO435184  19.841  32.243   9.153
 7642POPC   GL135185  19.876  32.221   8.853
 7642POPC   GL235186  19.895  32.392   8.853
 7642POPC   C1A35187  19.869  32.298   8.553
 7642POPC   D2A35188  19.884  32.244   8.253
 7642POPC   C3A35189  19.796  32.251   7.953
 7642POPC   C4A35190  19.826  32.206   7.653
 7642POPC   C1B35191  19.933  32.428   8.553
 7642POPC   C2B35192  19.941  32.505   8.253
 7642POPC   C3B35193  19.935  32.444   7.953
 7642POPC   C4B35194  19.936  32.439   7.653
 7643POPC   NC335195  10.476  25.222   9.453
 7643POPC   PO435196  10.509  25.230   9.153
 7643POPC   GL135197  10.567  25.259   8.853
 7643POPC   GL235198  10.680  25.221   8.853
 7643POPC   C1A35199  10.496  25.314   8.553
 7643POPC   D2A35200  10.518  25.310   8.253
 7643POPC   C3A35201  10.541  25.306   7.953
 7643POPC   C4A35202  10.506  25.270   7.653
 7643POPC   C1B35203  10.734  25.258   8.553
 7643POPC   C2B35204  10.764  25.287   8.253
 7643POPC   C3B35205  10.732  25.212   7.953
 7643POPC   C4B35206  10.781  25.234   7.653
 7644POPC   NC335207  20.657  41.592   9.453
 7644POPC   PO435208  20.637  41.531   9.153
 7644POPC   GL135209  20.639  41.560   8.853
 7644POPC   GL235210  20.473  41.638   8.853
 7644POPC   C1A35211  20.581  41.592   8.553
 7644POPC   D2A35212  20.607  41.535   8.253
 7644POPC   C3A35213  20.651  41.553   7.953
 7644POPC   C4A35214  20.630  41.588   7.653
 7644POPC   C1B35215  20.404  41.671   8.553
 7644POPC   C2B35216  20.393  41.693   8.253
 7644POPC   C3B35217  20.378  41.715   7.953
 7644POPC   C4B35218  20.356  41.709   7.653
 7645POPC   NC335219  21.374  32.270   9.453
 7645POPC   PO435220  21.396  32.268   9.153
 7645POPC   GL135221  21.359  32.293   8.853
 7645POPC   GL235222  21.219  32.268   8.853
 7645POPC   C1A35223  21.391  32.286   8.553
 7645POPC   D2A35224  21.355  32.224   8.253
 7645POPC   C3A35225  21.340  32.205   7.953
 7645POPC   C4A35226  21.394  32.199   7.653
 7645POPC   C1B35227  21.112  32.185   8.553
 7645POPC   C2B35228  21.116  32.187   8.253
 7645POPC   C3B35229  21.097  32.221   7.953
 7645POPC   C4B35230  21.142  32.231   7.653
 7646POPC   NC335231  22.181  31.520   9.453
 7646POPC   PO435232  22.177  31.494   9.153
 7646POPC   GL135233  22.205  31.471   8.853
 7646POPC   GL235234  22.172  31.310   8.853
 7646POPC   C1A35235  22.212  31.510   8.553
 7646POPC   D2A35236  22.145  31.467   8.253
 7646POPC   C3A35237  22.118  31.454   7.953
 7646POPC   C4A35238  22.148  31.503   7.653
 7646POPC   C1B35239  22.207  31.274   8.553
 7646POPC   C2B35240  22.208  31.231   8.253
 7646POPC   C3B35241  22.232  31.234   7.953
 7646POPC   C4B35242  22.274  31.281   7.653
 7647POPC   NC335243  20.614  39.182   9.453
 7647POPC   PO435244  20.599  39.225   9.153
 7647POPC   GL135245  20.630  39.183   8.853
 7647POPC   GL235246  20.735  39.281   8.853
 7647POPC   C1A35247  20.608  39.218   8.553
 7647POPC   D2A35248  20.596  39.246   8.253
 7647POPC   C3A35249  20.579  39.239   7.953
 7647POPC   C4A35250  20.606  39.238   7.653
 7647POPC   C1B35251  20.839  39.246   8.553
 7647POPC   C2B35252  20.853  39.205   8.253
 7647POPC   C3B35253  20.830  39.254   7.953
 7647POPC   C4B35254  20.839  39.234   7.653
 7648POPC   NC335255  38.453  23.758   9.453
 7648POPC   PO435256  38.462  23.760   9.153
 7648POPC   GL135257  38.410  23.756   8.853
 7648POPC   GL235258  38.545  23.664   8.853
 7648POPC   C1A35259  38.447  23.730   8.553
 7648POPC   D2A35260  38.503  23.695   8.253
 7648POPC   C3A35261  38.494  23.736   7.953
 7648POPC   C4A35262  38.437  23.708   7.653
 7648POPC   C1B35263  38.725  23.704   8.553
 7648POPC   C2B35264  38.741  23.729   8.253
 7648POPC   C3B35265  38.727  23.676   7.953
 7648POPC   C4B35266  38.674  23.728   7.653
 7649POPC   NC335267   6.623   9.019   9.453
 7649POPC   PO435268   6.628   8.996   9.153
 7649POPC   GL135269   6.654   8.948   8.853
 7649POPC   GL235270   6.569   8.845   8.853
 7649POPC   C1A35271   6.627   9.003   8.553
 7649POPC   D2A35272   6.615   8.952   8.253
 7649POPC   C3A35273   6.644   8.941   7.953
 7649POPC   C4A35274   6.649   8.935   7.653
 7649POPC   C1B35275   6.534   8.776   8.553
 7649POPC   C2B35276   6.471   8.731   8.253
 7649POPC   C3B35277   6.542   8.712   7.953
 7649POPC   C4B35278   6.542   8.773   7.653
 7650POPC   NC335279  26.797   5.068   9.453
 7650POPC   PO435280  26.783   5.081   9.153
 7650POPC   GL135281  26.814   5.115   8.853
 7650POPC   GL235282  26.758   4.995   8.853
 7650POPC   C1A35283  26.851   5.105   8.553
 7650POPC   D2A35284  26.850   5.124   8.253
 7650POPC   C3A35285  26.772   5.091   7.953
 7650POPC   C4A35286  26.804   5.103   7.653
 7650POPC   C1B35287  26.773   4.882   8.553
 7650POPC   C2B35288  26.792   4.797   8.253
 7650POPC   C3B35289  26.842   4.838   7.953
 7650POPC   C4B35290  26.799   4.811   7.653
 7651POPC   NC335291   3.493  40.050   9.453
 7651POPC   PO435292   3.509  39.999   9.153
 7651POPC   GL135293   3.554  39.986   8.853
 7651POPC   GL235294   3.500  40.096   8.853
 7651POPC   C1A35295   3.578  39.959   8.553
 7651POPC   D2A35296   3.561  40.011   8.253
 7651POPC   C3A35297   3.521  39.973   7.953
 7651POPC   C4A35298   3.522  40.040   7.653
 7651POPC   C1B35299   3.444  40.225   8.553
 7651POPC   C2B35300   3.516  40.231   8.253
 7651POPC   C3B35301   3.461  40.232   7.953
 7651POPC   C4B35302   3.493  40.286   7.653
 7652POPC   NC335303  19.026  10.482   9.453
 7652POPC   PO435304  19.085  10.548   9.153
 7652POPC   GL135305  19.020  10.573   8.853
 7652POPC   GL235306  18.969  10.583   8.853
 7652POPC   C1A35307  19.079  10.566   8.553
 7652POPC   D2A35308  19.056  10.507   8.253
 7652POPC   C3A35309  19.067  10.548   7.953
 7652POPC   C4A35310  19.087  10.528   7.653
 7652POPC   C1B35311  18.906  10.660   8.553
 7652POPC   C2B35312  18.848  10.696   8.253
 7652POPC   C3B35313  18.838  10.739   7.953
 7652POPC   C4B35314  18.902  10.654   7.653
 7653POPC   NC335315   3.530   3.559   9.453
 7653POPC   PO435316   3.537   3.530   9.153
 7653POPC   GL135317   3.573   3.499   8.853
 7653POPC   GL235318   3.611   3.694   8.853
 7653POPC   C1A35319   3.544   3.532   8.553
 7653POPC   D2A35320   3.515   3.543   8.253
 7653POPC   C3A35321   3.560   3.536   7.953
 7653POPC   C4A35322   3.520   3.568   7.653
 7653POPC   C1B35323   3.561   3.809   8.553
 7653POPC   C2B35324   3.577   3.827   8.253
 7653POPC   C3B35325   3.548   3.746   7.953
 7653POPC   C4B35326   3.553   3.829   7.653
 7654POPC   NC335327  10.485  10.505   9.453
 7654POPC   PO435328  10.568  10.520   9.153
 7654POPC   GL135329  10.492  10.534   8.853
 7654POPC   GL235330  10.586  10.665   8.853
 7654POPC   C1A35331  10.502  10.509   8.553
 7654POPC   D2A35332  10.540  10.494   8.253
 7654POPC   C3A35333  10.503  10.511   7.953
 7654POPC   C4A35334  10.484  10.549   7.653
 7654POPC   C1B35335  10.617  10.767   8.553
 7654POPC   C2B35336  10.669  10.790   8.253
 7654POPC   C3B35337  10.622  10.796   7.953
 7654POPC   C4B35338  10.588  10.782   7.653
 7655POPC   NC335339   5.122   6.656   9.453
 7655POPC   PO435340   5.082   6.661   9.153
 7655POPC   GL135341   5.119   6.623   8.853
 7655POPC   GL235342   4.943   6.735   8.853
 7655POPC   C1A35343   5.054   6.656   8.553
 7655POPC   D2A35344   5.092   6.651   8.253
 7655POPC   C3A35345   5.135   6.643   7.953
 7655POPC   C4A35346   5.074   6.643   7.653
 7655POPC   C1B35347   4.835   6.778   8.553
 7655POPC   C2B35348   4.923   6.771   8.253
 7655POPC   C3B35349   4.876   6.812   7.953
 7655POPC   C4B35350   4.864   6.797   7.653
 7656POPC   NC335351   6.682   1.207   9.453
 7656POPC   PO435352   6.631   1.175   9.153
 7656POPC   GL135353   6.684   1.234   8.853
 7656POPC   GL235354   6.717   1.298   8.853
 7656POPC   C1A35355   6.629   1.251   8.553
 7656POPC   D2A35356   6.669   1.170   8.253
 7656POPC   C3A35357   6.620   1.183   7.953
 7656POPC   C4A35358   6.665   1.216   7.653
 7656POPC   C1B35359   6.796   1.362   8.553
 7656POPC   C2B35360   6.834   1.347   8.253
 7656POPC   C3B35361   6.805   1.395   7.953
 7656POPC   C4B35362   6.866   1.414   7.653
 7657POPC   NC335363  24.465  13.665   9.453
 7657POPC   PO435364  24.472  13.644   9.153
 7657POPC   GL135365  24.471  13.587   8.853
 7657POPC   GL235366  24.396  13.583   8.853
 7657POPC   C1A35367  24.522  13.658   8.553
 7657POPC   D2A35368  24.509  13.663   8.253
 7657POPC   C3A35369  24.524  13.677   7.953
 7657POPC   C4A35370  24.476  13.620   7.653
 7657POPC   C1B35371  24.241  13.507   8.553
 7657POPC   C2B35372  24.309  13.509   8.253
 7657POPC   C3B35373  24.300  13.452   7.953
 7657POPC   C4B35374  24.252  13.505   7.653
 7658POPC   NC335375   5.840   1.998   9.453
 7658POPC   PO435376   5.871   2.035   9.153
 7658POPC   GL135377   5.893   1.971   8.853
 7658POPC   GL235378   5.922   1.901   8.853
 7658POPC   C1A35379   5.874   2.024   8.553
 7658POPC   D2A35380   5.822   1.989   8.253
 7658POPC   C3A35381   5.870   1.973   7.953
 7658POPC   C4A35382   5.877   1.947   7.653
 7658POPC   C1B35383   5.888   1.719   8.553
 7658POPC   C2B35384   5.940   1.752   8.253
 7658POPC   C3B35385   5.870   1.779   7.953
 7658POPC   C4B35386   5.930   1.782   7.653
 7659POPC   NC335387  44.634  31.499   9.453
 7659POPC   PO435388  44.617  31.445   9.153
 7659POPC   GL135389  44.708  31.521   8.853
 7659POPC   GL235390  44.614  31.381   8.853
 7659POPC   C1A35391  44.619  31.480   8.553
 7659POPC   D2A35392  44.687  31.430   8.253
 7659POPC   C3A35393  44.653  31.484   7.953
 7659POPC   C4A35394  44.711  31.439   7.653
 7659POPC   C1B35395  44.595  31.277   8.553
 7659POPC   C2B35396  44.535  31.232   8.253
 7659POPC   C3B35397  44.540  31.234   7.953
 7659POPC   C4B35398  44.529  31.268   7.653
 7660POPC   NC335399   9.004  36.108   9.453
 7660POPC   PO435400   8.923  36.109   9.153
 7660POPC   GL135401   8.940  36.148   8.853
 7660POPC   GL235402   9.093  36.144   8.853
 7660POPC   C1A35403   8.991  36.138   8.553
 7660POPC   D2A35404   8.985  36.156   8.253
 7660POPC   C3A35405   8.954  36.164   7.953
 7660POPC   C4A35406   8.966  36.143   7.653
 7660POPC   C1B35407   9.238  36.128   8.553
 7660POPC   C2B35408   9.236  36.151   8.253
 7660POPC   C3B35409   9.262  36.142   7.953
 7660POPC   C4B35410   9.222  36.080   7.653
 7661POPC   NC335411  27.606  31.476   9.453
 7661POPC   PO435412  27.554  31.467   9.153
 7661POPC   GL135413  27.554  31.462   8.853
 7661POPC   GL235414  27.670  31.363   8.853
 7661POPC   C1A35415  27.643  31.443   8.553
 7661POPC   D2A35416  27.593  31.458   8.253
 7661POPC   C3A35417  27.590  31.429   7.953
 7661POPC   C4A35418  27.629  31.488   7.653
 7661POPC   C1B35419  27.799  31.349   8.553
 7661POPC   C2B35420  27.840  31.358   8.253
 7661POPC   C3B35421  27.780  31.358   7.953
 7661POPC   C4B35422  27.815  31.364   7.653
 7662POPC   NC335423  21.395  12.028   9.453
 7662POPC   PO435424  21.353  12.052   9.153
 7662POPC   GL135425  21.400  12.032   8.853
 7662POPC   GL235426  21.242  12.054   8.853
 7662POPC   C1A35427  21.413  12.039   8.553
 7662POPC   D2A35428  21.371  12.110   8.253
 7662POPC   C3A35429  21.381  12.052   7.953
 7662POPC   C4A35430  21.387  12.106   7.653
 7662POPC   C1B35431  21.111  12.084   8.553
 7662POPC   C2B35432  21.139  12.065   8.253
 7662POPC   C3B35433  21.167  12.097   7.953
 7662POPC   C4B35434  21.152  12.036   7.653
 7663POPC   NC335435  16.709  37.688   9.453
 7663POPC   PO435436  16.744  37.726   9.153
 7663POPC   GL135437  16.697  37.705   8.853
 7663POPC   GL235438  16.798  37.575   8.853
 7663POPC   C1A35439  16.725  37.670   8.553
 7663POPC   D2A35440  16.781  37.678   8.253
 7663POPC   C3A35441  16.687  37.672   7.953
 7663POPC   C4A35442  16.691  37.683   7.653
 7663POPC   C1B35443  16.793  37.434   8.553
 7663POPC   C2B35444  16.841  37.473   8.253
 7663POPC   C3B35445  16.857  37.434   7.953
 7663POPC   C4B35446  16.777  37.455   7.653
 7664POPC   NC335447  28.402  35.311   9.453
 7664POPC   PO435448  28.383  35.346   9.153
 7664POPC   GL135449  28.350  35.308   8.853
 7664POPC   GL235450  28.258  35.357   8.853
 7664POPC   C1A35451  28.370  35.365   8.553
 7664POPC   D2A35452  28.398  35.306   8.253
 7664POPC   C3A35453  28.355  35.365   7.953
 7664POPC   C4A35454  28.354  35.373   7.653
 7664POPC   C1B35455  28.175  35.416   8.553
 7664POPC   C2B35456  28.086  35.401   8.253
 7664POPC   C3B35457  28.152  35.423   7.953
 7664POPC   C4B35458  28.111  35.459   7.653
 7665POPC   NC335459  43.873  15.160   9.453
 7665POPC   PO435460  43.887  15.145   9.153
 7665POPC   GL135461  43.912  15.218   8.853
 7665POPC   GL235462  43.912  15.072   8.853
 7665POPC   C1A35463  43.871  15.162   8.553
 7665POPC   D2A35464  43.846  15.208   8.253
 7665POPC   C3A35465  43.884  15.208   7.953
 7665POPC   C4A35466  43.919  15.183   7.653
 7665POPC   C1B35467  43.952  14.901   8.553
 7665POPC   C2B35468  43.938  14.944   8.253
 7665POPC   C3B35469  43.955  14.955   7.953
 7665POPC   C4B35470  43.984  14.921   7.653
 7666POPC   NC335471  40.734  25.257   9.453
 7666POPC   PO435472  40.824  25.267   9.153
 7666POPC   GL135473  40.807  25.235   8.853
 7666POPC   GL235474  40.912  25.282   8.853
 7666POPC   C1A35475  40.803  25.291   8.553
 7666POPC   D2A35476  40.763  25.302   8.253
 7666POPC   C3A35477  40.749  25.314   7.953
 7666POPC   C4A35478  40.777  25.247   7.653
 7666POPC   C1B35479  40.994  25.287   8.553
 7666POPC   C2B35480  41.065  25.285   8.253
 7666POPC   C3B35481  41.067  25.306   7.953
 7666POPC   C4B35482  41.049  25.258   7.653
 7667POPC   NC335483  10.547  26.022   9.453
 7667POPC   PO435484  10.480  26.074   9.153
 7667POPC   GL135485  10.478  26.046   8.853
 7667POPC   GL235486  10.418  26.063   8.853
 7667POPC   C1A35487  10.478  26.063   8.553
 7667POPC   D2A35488  10.497  26.014   8.253
 7667POPC   C3A35489  10.517  26.021   7.953
 7667POPC   C4A35490  10.570  26.005   7.653
 7667POPC   C1B35491  10.312  26.144   8.553
 7667POPC   C2B35492  10.335  26.125   8.253
 7667POPC   C3B35493  10.303  26.109   7.953
 7667POPC   C4B35494  10.311  26.177   7.653
 7668POPC   NC335495  21.435  22.139   9.453
 7668POPC   PO435496  21.382  22.152   9.153
 7668POPC   GL135497  21.424  22.200   8.853
 7668POPC   GL235498  21.226  22.115   8.853
 7668POPC   C1A35499  21.379  22.180   8.553
 7668POPC   D2A35500  21.372  22.206   8.253
 7668POPC   C3A35501  21.365  22.143   7.953
 7668POPC   C4A35502  21.376  22.137   7.653
 7668POPC   C1B35503  21.174  22.133   8.553
 7668POPC   C2B35504  21.103  22.173   8.253
 7668POPC   C3B35505  21.089  22.200   7.953
 7668POPC   C4B35506  21.109  22.170   7.653
 7669POPC   NC335507  36.079  21.422   9.453
 7669POPC   PO435508  36.117  21.409   9.153
 7669POPC   GL135509  36.111  21.422   8.853
 7669POPC   GL235510  36.044  21.512   8.853
 7669POPC   C1A35511  36.107  21.343   8.553
 7669POPC   D2A35512  36.097  21.373   8.253
 7669POPC   C3A35513  36.123  21.356   7.953
 7669POPC   C4A35514  36.138  21.411   7.653
 7669POPC   C1B35515  36.016  21.597   8.553
 7669POPC   C2B35516  36.019  21.591   8.253
 7669POPC   C3B35517  35.985  21.554   7.953
 7669POPC   C4B35518  35.965  21.591   7.653
 7670POPC   NC335519  39.982   1.995   9.453
 7670POPC   PO435520  40.036   1.974   9.153
 7670POPC   GL135521  40.055   2.035   8.853
 7670POPC   GL235522  40.153   2.034   8.853
 7670POPC   C1A35523  39.970   2.035   8.553
 7670POPC   D2A35524  40.021   2.030   8.253
 7670POPC   C3A35525  40.018   1.971   7.953
 7670POPC   C4A35526  39.997   2.001   7.653
 7670POPC   C1B35527  40.179   2.071   8.553
 7670POPC   C2B35528  40.220   2.152   8.253
 7670POPC   C3B35529  40.225   2.108   7.953
 7670POPC   C4B35530  40.239   2.144   7.653
 7671POPC   NC335531  44.622   2.031   9.453
 7671POPC   PO435532  44.689   1.968   9.153
 7671POPC   GL135533  44.700   2.018   8.853
 7671POPC   GL235534  44.573   2.141   8.853
 7671POPC   C1A35535  44.629   1.981   8.553
 7671POPC   D2A35536  44.628   1.978   8.253
 7671POPC   C3A35537  44.682   1.975   7.953
 7671POPC   C4A35538  44.665   1.944   7.653
 7671POPC   C1B35539  44.541   2.230   8.553
 7671POPC   C2B35540  44.522   2.167   8.253
 7671POPC   C3B35541  44.486   2.202   7.953
 7671POPC   C4B35542  44.550   2.217   7.653
 7672POPC   NC335543  42.304  40.767   9.453
 7672POPC   PO435544  42.350  40.765   9.153
 7672POPC   GL135545  42.294  40.795   8.853
 7672POPC   GL235546  42.430  40.689   8.853
 7672POPC   C1A35547  42.384  40.762   8.553
 7672POPC   D2A35548  42.304  40.817   8.253
 7672POPC   C3A35549  42.337  40.750   7.953
 7672POPC   C4A35550  42.341  40.792   7.653
 7672POPC   C1B35551  42.447  40.599   8.553
 7672POPC   C2B35552  42.465  40.545   8.253
 7672POPC   C3B35553  42.475  40.526   7.953
 7672POPC   C4B35554  42.414  40.572   7.653
 7673POPC   NC335555  19.849  36.080   9.453
 7673POPC   PO435556  19.831  36.145   9.153
 7673POPC   GL135557  19.820  36.156   8.853
 7673POPC   GL235558  19.789  36.251   8.853
 7673POPC   C1A35559  19.838  36.131   8.553
 7673POPC   D2A35560  19.847  36.094   8.253
 7673POPC   C3A35561  19.865  36.085   7.953
 7673POPC   C4A35562  19.876  36.143   7.653
 7673POPC   C1B35563  19.792  36.350   8.553
 7673POPC   C2B35564  19.857  36.344   8.253
 7673POPC   C3B35565  19.861  36.370   7.953
 7673POPC   C4B35566  19.785  36.419   7.653
 7674POPC   NC335567  17.550  26.807   9.453
 7674POPC   PO435568  17.540  26.769   9.153
 7674POPC   GL135569  17.555  26.799   8.853
 7674POPC   GL235570  17.353  26.801   8.853
 7674POPC   C1A35571  17.469  26.799   8.553
 7674POPC   D2A35572  17.522  26.854   8.253
 7674POPC   C3A35573  17.487  26.794   7.953
 7674POPC   C4A35574  17.503  26.841   7.653
 7674POPC   C1B35575  17.228  26.836   8.553
 7674POPC   C2B35576  17.261  26.786   8.253
 7674POPC   C3B35577  17.250  26.764   7.953
 7674POPC   C4B35578  17.214  26.777   7.653
 7675POPC   NC335579  31.497  24.511   9.453
 7675POPC   PO435580  31.439  24.490   9.153
 7675POPC   GL135581  31.497  24.442   8.853
 7675POPC   GL235582  31.384  24.352   8.853
 7675POPC   C1A35583  31.481  24.517   8.553
 7675POPC   D2A35584  31.471  24.519   8.253
 7675POPC   C3A35585  31.427  24.450   7.953
 7675POPC   C4A35586  31.429  24.503   7.653
 7675POPC   C1B35587  31.300  24.330   8.553
 7675POPC   C2B35588  31.339  24.333   8.253
 7675POPC   C3B35589  31.270  24.317   7.953
 7675POPC   C4B35590  31.352  24.319   7.653
 7676POPC   NC335591  26.040  17.471   9.453
 7676POPC   PO435592  26.001  17.530   9.153
 7676POPC   GL135593  26.018  17.554   8.853
 7676POPC   GL235594  25.923  17.378   8.853
 7676POPC   C1A35595  26.060  17.458   8.553
 7676POPC   D2A35596  26.050  17.465   8.253
 7676POPC   C3A35597  26.066  17.474   7.953
 7676POPC   C4A35598  26.053  17.511   7.653
 7676POPC   C1B35599  25.864  17.342   8.553
 7676POPC   C2B35600  25.928  17.276   8.253
 7676POPC   C3B35601  25.934  17.266   7.953
 7676POPC   C4B35602  25.866  17.279   7.653
 7677POPC   NC335603  27.617  33.020   9.453
 7677POPC   PO435604  27.544  33.066   9.153
 7677POPC   GL135605  27.614  33.066   8.853
 7677POPC   GL235606  27.686  32.984   8.853
 7677POPC   C1A35607  27.635  32.988   8.553
 7677POPC   D2A35608  27.582  33.042   8.253
 7677POPC   C3A35609  27.545  32.979   7.953
 7677POPC   C4A35610  27.611  33.011   7.653
 7677POPC   C1B35611  27.810  32.879   8.553
 7677POPC   C2B35612  27.823  32.911   8.253
 7677POPC   C3B35613  27.798  32.919   7.953
 7677POPC   C4B35614  27.845  32.925   7.653
 7678POPC   NC335615  14.389   5.830   9.453
 7678POPC   PO435616  14.375   5.892   9.153
 7678POPC   GL135617  14.396   5.912   8.853
 7678POPC   GL235618  14.332   5.772   8.853
 7678POPC   C1A35619  14.414   5.918   8.553
 7678POPC   D2A35620  14.426   5.841   8.253
 7678POPC   C3A35621  14.380   5.882   7.953
 7678POPC   C4A35622  14.424   5.883   7.653
 7678POPC   C1B35623  14.193   5.741   8.553
 7678POPC   C2B35624  14.174   5.686   8.253
 7678POPC   C3B35625  14.248   5.740   7.953
 7678POPC   C4B35626  14.172   5.757   7.653
 7679POPC   NC335627  19.796  14.406   9.453
 7679POPC   PO435628  19.859  14.412   9.153
 7679POPC   GL135629  19.810  14.433   8.853
 7679POPC   GL235630  19.869  14.292   8.853
 7679POPC   C1A35631  19.853  14.355   8.553
 7679POPC   D2A35632  19.858  14.438   8.253
 7679POPC   C3A35633  19.854  14.378   7.953
 7679POPC   C4A35634  19.804  14.443   7.653
 7679POPC   C1B35635  19.864  14.145   8.553
 7679POPC   C2B35636  19.867  14.156   8.253
 7679POPC   C3B35637  19.911  14.196   7.953
 7679POPC   C4B35638  19.905  14.184   7.653
 7680POPC   NC335639  43.148  35.398   9.453
 7680POPC   PO435640  43.110  35.302   9.153
 7680POPC   GL135641  43.075  35.329   8.853
 7680POPC   GL235642  43.056  35.412   8.853
 7680POPC   C1A35643  43.153  35.331   8.553
 7680POPC   D2A35644  43.094  35.370   8.253
 7680POPC   C3A35645  43.095  35.356   7.953
 7680POPC   C4A35646  43.147  35.339   7.653
 7680POPC   C1B35647  42.877  35.543   8.553
 7680POPC   C2B35648  42.959  35.557   8.253
 7680POPC   C3B35649  42.887  35.457   7.953
 7680POPC   C4B35650  42.895  35.514   7.653
 7681POPC   NC335651  22.197  32.214   9.453
 7681POPC   PO435652  22.191  32.213   9.153
 7681POPC   GL135653  22.210  32.224   8.853
 7681POPC   GL235654  22.099  32.321   8.853
 7681POPC   C1A35655  22.207  32.275   8.553
 7681POPC   D2A35656  22.178  32.292   8.253
 7681POPC   C3A35657  22.206  32.208   7.953
 7681POPC   C4A35658  22.206  32.256   7.653
 7681POPC   C1B35659  22.149  32.473   8.553
 7681POPC   C2B35660  22.084  32.537   8.253
 7681POPC   C3B35661  22.117  32.508   7.953
 7681POPC   C4B35662  22.153  32.487   7.653
 7682POPC   NC335663   7.465   6.624   9.453
 7682POPC   PO435664   7.470   6.609   9.153
 7682POPC   GL135665   7.428   6.611   8.853
 7682POPC   GL235666   7.428   6.565   8.853
 7682POPC   C1A35667   7.396   6.682   8.553
 7682POPC   D2A35668   7.413   6.664   8.253
 7682POPC   C3A35669   7.461   6.599   7.953
 7682POPC   C4A35670   7.467   6.690   7.653
 7682POPC   C1B35671   7.493   6.430   8.553
 7682POPC   C2B35672   7.524   6.403   8.253
 7682POPC   C3B35673   7.497   6.456   7.953
 7682POPC   C4B35674   7.481   6.444   7.653
 7683POPC   NC335675  29.137  38.425   9.453
 7683POPC   PO435676  29.195  38.417   9.153
 7683POPC   GL135677  29.148  38.427   8.853
 7683POPC   GL235678  29.258  38.426   8.853
 7683POPC   C1A35679  29.129  38.407   8.553
 7683POPC   D2A35680  29.159  38.421   8.253
 7683POPC   C3A35681  29.173  38.438   7.953
 7683POPC   C4A35682  29.107  38.424   7.653
 7683POPC   C1B35683  29.424  38.475   8.553
 7683POPC   C2B35684  29.438  38.422   8.253
 7683POPC   C3B35685  29.387  38.461   7.953
 7683POPC   C4B35686  29.423  38.513   7.653
 7684POPC   NC335687  14.361  12.049   9.453
 7684POPC   PO435688  14.400  12.126   9.153
 7684POPC   GL135689  14.396  12.065   8.853
 7684POPC   GL235690  14.298  11.993   8.853
 7684POPC   C1A35691  14.436  12.099   8.553
 7684POPC   D2A35692  14.402  12.076   8.253
 7684POPC   C3A35693  14.360  12.056   7.953
 7684POPC   C4A35694  14.447  12.096   7.653
 7684POPC   C1B35695  14.204  11.993   8.553
 7684POPC   C2B35696  14.168  12.033   8.253
 7684POPC   C3B35697  14.189  12.027   7.953
 7684POPC   C4B35698  14.154  11.971   7.653
 7685POPC   NC335699  42.349  15.908   9.453
 7685POPC   PO435700  42.321  15.970   9.153
 7685POPC   GL135701  42.377  15.968   8.853
 7685POPC   GL235702  42.448  15.970   8.853
 7685POPC   C1A35703  42.328  15.913   8.553
 7685POPC   D2A35704  42.317  15.936   8.253
 7685POPC   C3A35705  42.322  15.967   7.953
 7685POPC   C4A35706  42.298  15.929   7.653
 7685POPC   C1B35707  42.573  15.970   8.553
 7685POPC   C2B35708  42.552  15.938   8.253
 7685POPC   C3B35709  42.551  15.913   7.953
 7685POPC   C4B35710  42.571  15.911   7.653
 7686POPC   NC335711   9.744  16.690   9.453
 7686POPC   PO435712   9.724  16.699   9.153
 7686POPC   GL135713   9.761  16.734   8.853
 7686POPC   GL235714   9.820  16.654   8.853
 7686POPC   C1A35715   9.712  16.710   8.553
 7686POPC   D2A35716   9.794  16.756   8.253
 7686POPC   C3A35717   9.699  16.733   7.953
 7686POPC   C4A35718   9.788  16.770   7.653
 7686POPC   C1B35719   9.793  16.481   8.553
 7686POPC   C2B35720   9.796  16.478   8.253
 7686POPC   C3B35721   9.783  16.536   7.953
 7686POPC   C4B35722   9.774  16.481   7.653
 7687POPC   NC335723  28.397  19.823   9.453
 7687POPC   PO435724  28.374  19.874   9.153
 7687POPC   GL135725  28.329  19.801   8.853
 7687POPC   GL235726  28.488  19.925   8.853
 7687POPC   C1A35727  28.329  19.872   8.553
 7687POPC   D2A35728  28.398  19.856   8.253
 7687POPC   C3A35729  28.379  19.792   7.953
 7687POPC   C4A35730  28.388  19.788   7.653
 7687POPC   C1B35731  28.567  19.951   8.553
 7687POPC   C2B35732  28.597  19.922   8.253
 7687POPC   C3B35733  28.589  19.909   7.953
 7687POPC   C4B35734  28.566  19.939   7.653
 7688POPC   NC335735  34.570  18.259   9.453
 7688POPC   PO435736  34.624  18.263   9.153
 7688POPC   GL135737  34.599  18.235   8.853
 7688POPC   GL235738  34.553  18.133   8.853
 7688POPC   C1A35739  34.624  18.263   8.553
 7688POPC   D2A35740  34.578  18.310   8.253
 7688POPC   C3A35741  34.567  18.245   7.953
 7688POPC   C4A35742  34.542  18.263   7.653
 7688POPC   C1B35743  34.500  18.064   8.553
 7688POPC   C2B35744  34.511  18.087   8.253
 7688POPC   C3B35745  34.477  18.053   7.953
 7688POPC   C4B35746  34.491  18.036   7.653
 7689POPC   NC335747  33.770  13.642   9.453
 7689POPC   PO435748  33.787  13.620   9.153
 7689POPC   GL135749  33.835  13.605   8.853
 7689POPC   GL235750  33.908  13.704   8.853
 7689POPC   C1A35751  33.776  13.663   8.553
 7689POPC   D2A35752  33.826  13.593   8.253
 7689POPC   C3A35753  33.779  13.676   7.953
 7689POPC   C4A35754  33.758  13.640   7.653
 7689POPC   C1B35755  34.065  13.775   8.553
 7689POPC   C2B35756  34.044  13.697   8.253
 7689POPC   C3B35757  34.070  13.750   7.953
 7689POPC   C4B35758  34.016  13.696   7.653
 7690POPC   NC335759   8.972  17.499   9.453
 7690POPC   PO435760   8.937  17.538   9.153
 7690POPC   GL135761   9.013  17.498   8.853
 7690POPC   GL235762   8.949  17.652   8.853
 7690POPC   C1A35763   8.936  17.468   8.553
 7690POPC   D2A35764   8.998  17.511   8.253
 7690POPC   C3A35765   8.995  17.472   7.953
 7690POPC   C4A35766   8.925  17.499   7.653
 7690POPC   C1B35767   9.028  17.713   8.553
 7690POPC   C2B35768   8.995  17.748   8.253
 7690POPC   C3B35769   8.991  17.776   7.953
 7690POPC   C4B35770   8.993  17.739   7.653
 7691POPC   NC335771   1.959   5.129   9.453
 7691POPC   PO435772   2.012   5.125   9.153
 7691POPC   GL135773   1.955   5.122   8.853
 7691POPC   GL235774   1.837   5.111   8.853
 7691POPC   C1A35775   1.990   5.082   8.553
 7691POPC   D2A35776   1.971   5.095   8.253
 7691POPC   C3A35777   1.981   5.053   7.953
 7691POPC   C4A35778   2.010   5.043   7.653
 7691POPC   C1B35779   1.712   5.175   8.553
 7691POPC   C2B35780   1.775   5.214   8.253
 7691POPC   C3B35781   1.752   5.234   7.953
 7691POPC   C4B35782   1.741   5.234   7.653
 7692POPC   NC335783  27.545  15.980   9.453
 7692POPC   PO435784  27.569  15.992   9.153
 7692POPC   GL135785  27.624  15.976   8.853
 7692POPC   GL235786  27.744  15.945   8.853
 7692POPC   C1A35787  27.558  15.959   8.553
 7692POPC   D2A35788  27.545  15.989   8.253
 7692POPC   C3A35789  27.578  15.946   7.953
 7692POPC   C4A35790  27.609  15.997   7.653
 7692POPC   C1B35791  27.773  15.811   8.553
 7692POPC   C2B35792  27.783  15.873   8.253
 7692POPC   C3B35793  27.820  15.883   7.953
 7692POPC   C4B35794  27.849  15.862   7.653
 7693POPC   NC335795  13.588  27.575   9.453
 7693POPC   PO435796  13.637  27.600   9.153
 7693POPC   GL135797  13.583  27.547   8.853
 7693POPC   GL235798  13.595  27.515   8.853
 7693POPC   C1A35799  13.663  27.582   8.553
 7693POPC   D2A35800  13.622  27.598   8.253
 7693POPC   C3A35801  13.651  27.555   7.953
 7693POPC   C4A35802  13.674  27.565   7.653
 7693POPC   C1B35803  13.492  27.413   8.553
 7693POPC   C2B35804  13.442  27.355   8.253
 7693POPC   C3B35805  13.464  27.360   7.953
 7693POPC   C4B35806  13.487  27.381   7.653
 7694POPC   NC335807  32.228  39.236   9.453
 7694POPC   PO435808  32.228  39.203   9.153
 7694POPC   GL135809  32.223  39.212   8.853
 7694POPC   GL235810  32.335  39.309   8.853
 7694POPC   C1A35811  32.234  39.263   8.553
 7694POPC   D2A35812  32.216  39.189   8.253
 7694POPC   C3A35813  32.233  39.245   7.953
 7694POPC   C4A35814  32.298  39.229   7.653
 7694POPC   C1B35815  32.403  39.483   8.553
 7694POPC   C2B35816  32.349  39.438   8.253
 7694POPC   C3B35817  32.355  39.500   7.953
 7694POPC   C4B35818  32.341  39.455   7.653
 7695POPC   NC335819  19.785  22.939   9.453
 7695POPC   PO435820  19.812  22.951   9.153
 7695POPC   GL135821  19.825  22.900   8.853
 7695POPC   GL235822  19.761  23.050   8.853
 7695POPC   C1A35823  19.801  22.923   8.553
 7695POPC   D2A35824  19.837  22.979   8.253
 7695POPC   C3A35825  19.788  22.894   7.953
 7695POPC   C4A35826  19.800  22.958   7.653
 7695POPC   C1B35827  19.584  23.097   8.553
 7695POPC   C2B35828  19.637  23.088   8.253
 7695POPC   C3B35829  19.601  23.095   7.953
 7695POPC   C4B35830  19.607  23.062   7.653
 7696POPC   NC335831  43.098  29.187   9.453
 7696POPC   PO435832  43.148  29.164   9.153
 7696POPC   GL135833  43.150  29.193   8.853
 7696POPC   GL235834  43.248  29.152   8.853
 7696POPC   C1A35835  43.114  29.110   8.553
 7696POPC   D2A35836  43.133  29.130   8.253
 7696POPC   C3A35837  43.149  29.123   7.953
 7696POPC   C4A35838  43.123  29.179   7.653
 7696POPC   C1B35839  43.408  29.137   8.553
 7696POPC   C2B35840  43.363  29.132   8.253
 7696POPC   C3B35841  43.400  29.109   7.953
 7696POPC   C4B35842  43.343  29.147   7.653
 7697POPC   NC335843  37.670  11.291   9.453
 7697POPC   PO435844  37.707  11.316   9.153
 7697POPC   GL135845  37.645  11.316   8.853
 7697POPC   GL235846  37.758  11.224   8.853
 7697POPC   C1A35847  37.687  11.258   8.553
 7697POPC   D2A35848  37.728  11.294   8.253
 7697POPC   C3A35849  37.682  11.260   7.953
 7697POPC   C4A35850  37.702  11.314   7.653
 7697POPC   C1B35851  37.802  11.045   8.553
 7697POPC   C2B35852  37.793  11.125   8.253
 7697POPC   C3B35853  37.833  11.096   7.953
 7697POPC   C4B35854  37.836  11.114   7.653
 7698POPC   NC335855  19.056   4.348   9.453
 7698POPC   PO435856  19.043   4.290   9.153
 7698POPC   GL135857  19.026   4.303   8.853
 7698POPC   GL235858  19.137   4.398   8.853
 7698POPC   C1A35859  19.038   4.311   8.553
 7698POPC   D2A35860  19.070   4.282   8.253
 7698POPC   C3A35861  19.052   4.340   7.953
 7698POPC   C4A35862  19.029   4.277   7.653
 7698POPC   C1B35863  19.228   4.403   8.553
 7698POPC   C2B35864  19.258   4.495   8.253
 7698POPC   C3B35865  19.226   4.460   7.953
 7698POPC   C4B35866  19.233   4.442   7.653
 7699POPC   NC335867   8.935  11.324   9.453
 7699POPC   PO435868   8.963  11.328   9.153
 7699POPC   GL135869   8.953  11.295   8.853
 7699POPC   GL235870   8.938  11.404   8.853
 7699POPC   C1A35871   8.983  11.336   8.553
 7699POPC   D2A35872   9.013  11.295   8.253
 7699POPC   C3A35873   8.967  11.271   7.953
 7699POPC   C4A35874   8.949  11.274   7.653
 7699POPC   C1B35875   8.929  11.502   8.553
 7699POPC   C2B35876   8.899  11.571   8.253
 7699POPC   C3B35877   8.851  11.522   7.953
 7699POPC   C4B35878   8.873  11.512   7.653
 7700POPC   NC335879  32.283  23.673   9.453
 7700POPC   PO435880  32.268  23.742   9.153
 7700POPC   GL135881  32.229  23.748   8.853
 7700POPC   GL235882  32.341  23.812   8.853
 7700POPC   C1A35883  32.222  23.733   8.553
 7700POPC   D2A35884  32.229  23.697   8.253
 7700POPC   C3A35885  32.285  23.710   7.953
 7700POPC   C4A35886  32.267  23.752   7.653
 7700POPC   C1B35887  32.430  23.895   8.553
 7700POPC   C2B35888  32.465  23.854   8.253
 7700POPC   C3B35889  32.425  23.892   7.953
 7700POPC   C4B35890  32.381  23.918   7.653
 7701POPC   NC335891  30.647  27.576   9.453
 7701POPC   PO435892  30.697  27.592   9.153
 7701POPC   GL135893  30.679  27.570   8.853
 7701POPC   GL235894  30.727  27.763   8.853
 7701POPC   C1A35895  30.675  27.585   8.553
 7701POPC   D2A35896  30.678  27.571   8.253
 7701POPC   C3A35897  30.719  27.601   7.953
 7701POPC   C4A35898  30.712  27.600   7.653
 7701POPC   C1B35899  30.783  27.792   8.553
 7701POPC   C2B35900  30.781  27.787   8.253
 7701POPC   C3B35901  30.803  27.848   7.953
 7701POPC   C4B35902  30.743  27.875   7.653
 7702POPC   NC335903  24.445  15.944   9.453
 7702POPC   PO435904  24.535  15.976   9.153
 7702POPC   GL135905  24.471  15.963   8.853
 7702POPC   GL235906  24.552  15.889   8.853
 7702POPC   C1A35907  24.460  15.918   8.553
 7702POPC   D2A35908  24.512  15.997   8.253
 7702POPC   C3A35909  24.534  15.947   7.953
 7702POPC   C4A35910  24.442  15.915   7.653
 7702POPC   C1B35911  24.609  15.737   8.553
 7702POPC   C2B35912  24.649  15.739   8.253
 7702POPC   C3B35913  24.678  15.729   7.953
 7702POPC   C4B35914  24.669  15.816   7.653
 7703POPC   NC335915  14.355   9.737   9.453
 7703POPC   PO435916  14.376   9.733   9.153
 7703POPC   GL135917  14.424   9.795   8.853
 7703POPC   GL235918  14.528   9.738   8.853
 7703POPC   C1A35919  14.414   9.716   8.553
 7703POPC   D2A35920  14.398   9.744   8.253
 7703POPC   C3A35921  14.414   9.718   7.953
 7703POPC   C4A35922  14.449   9.702   7.653
 7703POPC   C1B35923  14.625   9.662   8.553
 7703POPC   C2B35924  14.689   9.627   8.253
 7703POPC   C3B35925  14.683   9.678   7.953
 7703POPC   C4B35926  14.648   9.641   7.653
 7704POPC   NC335927  31.492  18.300   9.453
 7704POPC   PO435928  31.476  18.261   9.153
 7704POPC   GL135929  31.504  18.311   8.853
 7704POPC   GL235930  31.611  18.355   8.853
 7704POPC   C1A35931  31.461  18.315   8.553
 7704POPC   D2A35932  31.513  18.277   8.253
 7704POPC   C3A35933  31.482  18.288   7.953
 7704POPC   C4A35934  31.433  18.273   7.653
 7704POPC   C1B35935  31.667  18.351   8.553
 7704POPC   C2B35936  31.673  18.440   8.253
 7704POPC   C3B35937  31.697  18.377   7.953
 7704POPC   C4B35938  31.679  18.408   7.653
 7705POPC   NC335939  34.606  31.453   9.453
 7705POPC   PO435940  34.535  31.473   9.153
 7705POPC   GL135941  34.578  31.450   8.853
 7705POPC   GL235942  34.533  31.617   8.853
 7705POPC   C1A35943  34.560  31.512   8.553
 7705POPC   D2A35944  34.565  31.498   8.253
 7705POPC   C3A35945  34.595  31.484   7.953
 7705POPC   C4A35946  34.611  31.457   7.653
 7705POPC   C1B35947  34.520  31.663   8.553
 7705POPC   C2B35948  34.482  31.711   8.253
 7705POPC   C3B35949  34.516  31.743   7.953
 7705POPC   C4B35950  34.521  31.752   7.653
 7706POPC   NC335951  36.151  20.623   9.453
 7706POPC   PO435952  36.095  20.640   9.153
 7706POPC   GL135953  36.094  20.583   8.853
 7706POPC   GL235954  36.284  20.592   8.853
 7706POPC   C1A35955  36.119  20.581   8.553
 7706POPC   D2A35956  36.129  20.572   8.253
 7706POPC   C3A35957  36.119  20.612   7.953
 7706POPC   C4A35958  36.138  20.605   7.653
 7706POPC   C1B35959  36.333  20.618   8.553
 7706POPC   C2B35960  36.388  20.559   8.253
 7706POPC   C3B35961  36.356  20.585   7.953
 7706POPC   C4B35962  36.370  20.584   7.653
 7707POPC   NC335963  22.182  12.063   9.453
 7707POPC   PO435964  22.179  12.074   9.153
 7707POPC   GL135965  22.172  12.107   8.853
 7707POPC   GL235966  22.042  12.200   8.853
 7707POPC   C1A35967  22.150  12.102   8.553
 7707POPC   D2A35968  22.196  12.046   8.253
 7707POPC   C3A35969  22.196  12.091   7.953
 7707POPC   C4A35970  22.205  12.031   7.653
 7707POPC   C1B35971  21.979  12.246   8.553
 7707POPC   C2B35972  22.046  12.283   8.253
 7707POPC   C3B35973  21.983  12.279   7.953
 7707POPC   C4B35974  21.985  12.238   7.653
 7708POPC   NC335975   5.823   1.242   9.453
 7708POPC   PO435976   5.864   1.205   9.153
 7708POPC   GL135977   5.910   1.177   8.853
 7708POPC   GL235978   5.779   1.322   8.853
 7708POPC   C1A35979   5.883   1.231   8.553
 7708POPC   D2A35980   5.847   1.207   8.253
 7708POPC   C3A35981   5.864   1.172   7.953
 7708POPC   C4A35982   5.888   1.184   7.653
 7708POPC   C1B35983   5.791   1.419   8.553
 7708POPC   C2B35984   5.771   1.465   8.253
 7708POPC   C3B35985   5.789   1.472   7.953
 7708POPC   C4B35986   5.785   1.478   7.653
 7709POPC   NC335987   4.289  11.283   9.453
 7709POPC   PO435988   4.303  11.277   9.153
 7709POPC   GL135989   4.292  11.311   8.853
 7709POPC   GL235990   4.181  11.363   8.853
 7709POPC   C1A35991   4.276  11.281   8.553
 7709POPC   D2A35992   4.321  11.271   8.253
 7709POPC   C3A35993   4.309  11.272   7.953
 7709POPC   C4A35994   4.300  11.263   7.653
 7709POPC   C1B35995   4.078  11.435   8.553
 7709POPC   C2B35996   4.068  11.459   8.253
 7709POPC   C3B35997   4.086  11.385   7.953
 7709POPC   C4B35998   4.079  11.403   7.653
 7710POPC   NC335999   1.226  22.942   9.453
 7710POPC   PO436000   1.251  22.974   9.153
 7710POPC   GL136001   1.215  22.896   8.853
 7710POPC   GL236002   1.337  22.847   8.853
 7710POPC   C1A36003   1.256  22.960   8.553
 7710POPC   D2A36004   1.255  22.904   8.253
 7710POPC   C3A36005   1.236  22.963   7.953
 7710POPC   C4A36006   1.239  22.940   7.653
 7710POPC   C1B36007   1.444  22.757   8.553
 7710POPC   C2B36008   1.460  22.772   8.253
 7710POPC   C3B36009   1.419  22.754   7.953
 7710POPC   C4B36010   1.418  22.829   7.653
 7711POPC   NC336011   6.692   6.614   9.453
 7711POPC   PO436012   6.634   6.690   9.153
 7711POPC   GL136013   6.676   6.687   8.853
 7711POPC   GL236014   6.651   6.730   8.853
 7711POPC   C1A36015   6.650   6.627   8.553
 7711POPC   D2A36016   6.606   6.667   8.253
 7711POPC   C3A36017   6.609   6.650   7.953
 7711POPC   C4A36018   6.615   6.632   7.653
 7711POPC   C1B36019   6.752   6.855   8.553
 7711POPC   C2B36020   6.716   6.906   8.253
 7711POPC   C3B36021   6.740   6.850   7.953
 7711POPC   C4B36022   6.766   6.912   7.653
 7712POPC   NC336023  25.275  12.872   9.453
 7712POPC   PO436024  25.315  12.813   9.153
 7712POPC   GL136025  25.234  12.868   8.853
 7712POPC   GL236026  25.243  12.951   8.853
 7712POPC   C1A36027  25.311  12.893   8.553
 7712POPC   D2A36028  25.291  12.897   8.253
 7712POPC   C3A36029  25.257  12.886   7.953
 7712POPC   C4A36030  25.237  12.819   7.653
 7712POPC   C1B36031  25.243  13.113   8.553
 7712POPC   C2B36032  25.219  13.092   8.253
 7712POPC   C3B36033  25.177  13.107   7.953
 7712POPC   C4B36034  25.208  13.104   7.653
 7713POPC   NC336035  36.130  24.458   9.453
 7713POPC   PO436036  36.103  24.531   9.153
 7713POPC   GL136037  36.114  24.450   8.853
 7713POPC   GL236038  36.166  24.386   8.853
 7713POPC   C1A36039  36.119  24.476   8.553
 7713POPC   D2A36040  36.175  24.536   8.253
 7713POPC   C3A36041  36.157  24.527   7.953
 7713POPC   C4A36042  36.083  24.525   7.653
 7713POPC   C1B36043  36.165  24.254   8.553
 7713POPC   C2B36044  36.157  24.237   8.253
 7713POPC   C3B36045  36.204  24.286   7.953
 7713POPC   C4B36046  36.247  24.273   7.653
 7714POPC   NC336047  28.375  43.886   9.453
 7714POPC   PO436048  28.369  43.912   9.153
 7714POPC   GL136049  28.377  43.909   8.853
 7714POPC   GL236050  28.246  43.942   8.853
 7714POPC   C1A36051  28.345  43.890   8.553
 7714POPC   D2A36052  28.324  43.855   8.253
 7714POPC   C3A36053  28.324  43.852   7.953
 7714POPC   C4A36054  28.367  43.852   7.653
 7714POPC   C1B36055  28.245  44.034   8.553
 7714POPC   C2B36056  28.230  44.110   8.253
 7714POPC   C3B36057  28.184  44.074   7.953
 7714POPC   C4B36058  28.158  44.078   7.653
 7715POPC   NC336059   5.045  44.689   9.453
 7715POPC   PO436060   5.102  44.629   9.153
 7715POPC   GL136061   5.061  44.641   8.853
 7715POPC   GL236062   5.174  44.593   8.853
 7715POPC   C1A36063   5.059  44.705   8.553
 7715POPC   D2A36064   5.074  44.697   8.253
 7715POPC   C3A36065   5.086  44.656   7.953
 7715POPC   C4A36066   5.118  44.675   7.653
 7715POPC   C1B36067   5.159  44.486   8.553
 7715POPC   C2B36068   5.231  44.458   8.253
 7715POPC   C3B36069   5.220  44.422   7.953
 7715POPC   C4B36070   5.247  44.418   7.653
 7716POPC   NC336071  43.875  17.529   9.453
 7716POPC   PO436072  43.855  17.500   9.153
 7716POPC   GL136073  43.911  17.556   8.853
 7716POPC   GL236074  43.925  17.608   8.853
 7716POPC   C1A36075  43.855  17.476   8.553
 7716POPC   D2A36076  43.856  17.527   8.253
 7716POPC   C3A36077  43.899  17.550   7.953
 7716POPC   C4A36078  43.930  17.497   7.653
 7716POPC   C1B36079  44.018  17.649   8.553
 7716POPC   C2B36080  44.004  17.673   8.253
 7716POPC   C3B36081  44.085  17.661   7.953
 7716POPC   C4B36082  44.065  17.732   7.653
 7717POPC   NC336083  28.372  29.112   9.453
 7717POPC   PO436084  28.328  29.137   9.153
 7717POPC   GL136085  28.416  29.157   8.853
 7717POPC   GL236086  28.342  29.035   8.853
 7717POPC   C1A36087  28.395  29.120   8.553
 7717POPC   D2A36088  28.355  29.144   8.253
 7717POPC   C3A36089  28.357  29.151   7.953
 7717POPC   C4A36090  28.399  29.155   7.653
 7717POPC   C1B36091  28.375  28.926   8.553
 7717POPC   C2B36092  28.395  28.848   8.253
 7717POPC   C3B36093  28.361  28.900   7.953
 7717POPC   C4B36094  28.356  28.903   7.653
 7718POPC   NC336095  30.653  19.822   9.453
 7718POPC   PO436096  30.725  19.837   9.153
 7718POPC   GL136097  30.647  19.817   8.853
 7718POPC   GL236098  30.818  19.978   8.853
 7718POPC   C1A36099  30.664  19.805   8.553
 7718POPC   D2A36100  30.705  19.858   8.253
 7718POPC   C3A36101  30.746  19.877   7.953
 7718POPC   C4A36102  30.701  19.808   7.653
 7718POPC   C1B36103  30.905  20.056   8.553
 7718POPC   C2B36104  30.892  20.051   8.253
 7718POPC   C3B36105  30.868  20.055   7.953
 7718POPC   C4B36106  30.857  20.075   7.653
 7719POPC   NC336107  38.505  29.912   9.453
 7719POPC   PO436108  38.487  29.948   9.153
 7719POPC   GL136109  38.452  29.956   8.853
 7719POPC   GL236110  38.506  29.995   8.853
 7719POPC   C1A36111  38.427  29.914   8.553
 7719POPC   D2A36112  38.436  29.888   8.253
 7719POPC   C3A36113  38.497  29.925   7.953
 7719POPC   C4A36114  38.415  29.895   7.653
 7719POPC   C1B36115  38.663  30.092   8.553
 7719POPC   C2B36116  38.613  30.154   8.253
 7719POPC   C3B36117  38.661  30.121   7.953
 7719POPC   C4B36118  38.600  30.127   7.653
 7720POPC   NC336119   9.797   4.353   9.453
 7720POPC   PO436120   9.793   4.271   9.153
 7720POPC   GL136121   9.703   4.336   8.853
 7720POPC   GL236122   9.773   4.153   8.853
 7720POPC   C1A36123   9.772   4.359   8.553
 7720POPC   D2A36124   9.777   4.310   8.253
 7720POPC   C3A36125   9.770   4.282   7.953
 7720POPC   C4A36126   9.748   4.283   7.653
 7720POPC   C1B36127   9.796   4.103   8.553
 7720POPC   C2B36128   9.795   4.038   8.253
 7720POPC   C3B36129   9.740   4.116   7.953
 7720POPC   C4B36130   9.782   4.081   7.653
 7721POPC   NC336131  29.941  11.296   9.453
 7721POPC   PO436132  29.914  11.336   9.153
 7721POPC   GL136133  29.924  11.346   8.853
 7721POPC   GL236134  29.961  11.394   8.853
 7721POPC   C1A36135  29.953  11.277   8.553
 7721POPC   D2A36136  29.906  11.337   8.253
 7721POPC   C3A36137  29.958  11.265   7.953
 7721POPC   C4A36138  29.932  11.305   7.653
 7721POPC   C1B36139  29.956  11.591   8.553
 7721POPC   C2B36140  29.893  11.574   8.253
 7721POPC   C3B36141  29.901  11.593   7.953
 7721POPC   C4B36142  29.899  11.502   7.653
 7722POPC   NC336143   7.461   7.424   9.453
 7722POPC   PO436144   7.430   7.422   9.153
 7722POPC   GL136145   7.463   7.413   8.853
 7722POPC   GL236146   7.470   7.494   8.853
 7722POPC   C1A36147   7.450   7.394   8.553
 7722POPC   D2A36148   7.467   7.440   8.253
 7722POPC   C3A36149   7.469   7.411   7.953
 7722POPC   C4A36150   7.451   7.377   7.653
 7722POPC   C1B36151   7.468   7.662   8.553
 7722POPC   C2B36152   7.465   7.652   8.253
 7722POPC   C3B36153   7.449   7.637   7.953
 7722POPC   C4B36154   7.479   7.665   7.653
 7723POPC   NC336155  17.471   2.724   9.453
 7723POPC   PO436156  17.511   2.728   9.153
 7723POPC   GL136157  17.470   2.799   8.853
 7723POPC   GL236158  17.519   2.625   8.853
 7723POPC   C1A36159  17.459   2.765   8.553
 7723POPC   D2A36160  17.476   2.815   8.253
 7723POPC   C3A36161  17.473   2.767   7.953
 7723POPC   C4A36162  17.521   2.808   7.653
 7723POPC   C1B36163  17.522   2.525   8.553
 7723POPC   C2B36164  17.569   2.483   8.253
 7723POPC   C3B36165  17.510   2.504   7.953
 7723POPC   C4B36166  17.560   2.488   7.653
 7724POPC   NC336167  25.273  39.208   9.453
 7724POPC   PO436168  25.223  39.211   9.153
 7724POPC   GL136169  25.307  39.224   8.853
 7724POPC   GL236170  25.392  39.224   8.853
 7724POPC   C1A36171  25.302  39.239   8.553
 7724POPC   D2A36172  25.278  39.268   8.253
 7724POPC   C3A36173  25.301  39.252   7.953
 7724POPC   C4A36174  25.287  39.236   7.653
 7724POPC   C1B36175  25.514  39.184   8.553
 7724POPC   C2B36176  25.502  39.206   8.253
 7724POPC   C3B36177  25.528  39.185   7.953
 7724POPC   C4B36178  25.526  39.151   7.653
 7725POPC   NC336179   7.446   8.971   9.453
 7725POPC   PO436180   7.396   8.940   9.153
 7725POPC   GL136181   7.442   8.965   8.853
 7725POPC   GL236182   7.409   9.113   8.853
 7725POPC   C1A36183   7.440   8.926   8.553
 7725POPC   D2A36184   7.405   8.958   8.253
 7725POPC   C3A36185   7.430   8.963   7.953
 7725POPC   C4A36186   7.426   8.982   7.653
 7725POPC   C1B36187   7.345   9.244   8.553
 7725POPC   C2B36188   7.369   9.245   8.253
 7725POPC   C3B36189   7.392   9.256   7.953
 7725POPC   C4B36190   7.351   9.205   7.653
 7726POPC   NC336191  30.740  40.828   9.453
 7726POPC   PO436192  30.722  40.811   9.153
 7726POPC   GL136193  30.730  40.754   8.853
 7726POPC   GL236194  30.799  40.736   8.853
 7726POPC   C1A36195  30.654  40.748   8.553
 7726POPC   D2A36196  30.675  40.778   8.253
 7726POPC   C3A36197  30.695  40.791   7.953
 7726POPC   C4A36198  30.684  40.764   7.653
 7726POPC   C1B36199  30.939  40.649   8.553
 7726POPC   C2B36200  30.970  40.667   8.253
 7726POPC   C3B36201  30.962  40.659   7.953
 7726POPC   C4B36202  30.928  40.674   7.653
 7727POPC   NC336203  40.023  13.619   9.453
 7727POPC   PO436204  40.027  13.581   9.153
 7727POPC   GL136205  40.040  13.631   8.853
 7727POPC   GL236206  39.912  13.576   8.853
 7727POPC   C1A36207  40.009  13.626   8.553
 7727POPC   D2A36208  39.993  13.612   8.253
 7727POPC   C3A36209  40.022  13.658   7.953
 7727POPC   C4A36210  40.007  13.579   7.653
 7727POPC   C1B36211  39.775  13.506   8.553
 7727POPC   C2B36212  39.824  13.489   8.253
 7727POPC   C3B36213  39.764  13.489   7.953
 7727POPC   C4B36214  39.825  13.567   7.653
 7728POPC   NC336215  11.309   5.875   9.453
 7728POPC   PO436216  11.254   5.830   9.153
 7728POPC   GL136217  11.304   5.881   8.853
 7728POPC   GL236218  11.406   5.942   8.853
 7728POPC   C1A36219  11.340   5.855   8.553
 7728POPC   D2A36220  11.337   5.832   8.253
 7728POPC   C3A36221  11.289   5.841   7.953
 7728POPC   C4A36222  11.294   5.857   7.653
 7728POPC   C1B36223  11.507   5.896   8.553
 7728POPC   C2B36224  11.530   5.954   8.253
 7728POPC   C3B36225  11.507   5.898   7.953
 7728POPC   C4B36226  11.494   5.918   7.653
 7729POPC   NC336227  30.704  14.358   9.453
 7729POPC   PO436228  30.711  14.408   9.153
 7729POPC   GL136229  30.652  14.400   8.853
 7729POPC   GL236230  30.555  14.408   8.853
 7729POPC   C1A36231  30.670  14.432   8.553
 7729POPC   D2A36232  30.676  14.360   8.253
 7729POPC   C3A36233  30.680  14.424   7.953
 7729POPC   C4A36234  30.699  14.406   7.653
 7729POPC   C1B36235  30.463  14.350   8.553
 7729POPC   C2B36236  30.439  14.350   8.253
 7729POPC   C3B36237  30.426  14.287   7.953
 7729POPC   C4B36238  30.441  14.297   7.653
 7730POPC   NC336239  34.582  22.166   9.453
 7730POPC   PO436240  34.561  22.148   9.153
 7730POPC   GL136241  34.526  22.167   8.853
 7730POPC   GL236242  34.592  22.014   8.853
 7730POPC   C1A36243  34.548  22.204   8.553
 7730POPC   D2A36244  34.539  22.137   8.253
 7730POPC   C3A36245  34.602  22.133   7.953
 7730POPC   C4A36246  34.616  22.140   7.653
 7730POPC   C1B36247  34.492  21.953   8.553
 7730POPC   C2B36248  34.566  21.940   8.253
 7730POPC   C3B36249  34.478  21.943   7.953
 7730POPC   C4B36250  34.566  21.893   7.653
 7731POPC   NC336251  34.585  22.939   9.453
 7731POPC   PO436252  34.596  22.888   9.153
 7731POPC   GL136253  34.602  22.913   8.853
 7731POPC   GL236254  34.452  22.910   8.853
 7731POPC   C1A36255  34.526  22.985   8.553
 7731POPC   D2A36256  34.529  22.927   8.253
 7731POPC   C3A36257  34.614  22.890   7.953
 7731POPC   C4A36258  34.603  22.917   7.653
 7731POPC   C1B36259  34.336  22.798   8.553
 7731POPC   C2B36260  34.387  22.813   8.253
 7731POPC   C3B36261  34.329  22.783   7.953
 7731POPC   C4B36262  34.385  22.856   7.653
 7732POPC   NC336263  29.888  19.851   9.453
 7732POPC   PO436264  29.891  19.835   9.153
 7732POPC   GL136265  29.913  19.813   8.853
 7732POPC   GL236266  30.027  19.827   8.853
 7732POPC   C1A36267  29.930  19.803   8.553
 7732POPC   D2A36268  29.915  19.823   8.253
 7732POPC   C3A36269  29.955  19.795   7.953
 7732POPC   C4A36270  29.891  19.845   7.653
 7732POPC   C1B36271  30.176  19.887   8.553
 7732POPC   C2B36272  30.219  19.879   8.253
 7732POPC   C3B36273  30.152  19.844   7.953
 7732POPC   C4B36274  30.190  19.856   7.653
 7733POPC   NC336275  25.272   0.391   9.453
 7733POPC   PO436276  25.289   0.404   9.153
 7733POPC   GL136277  25.230   0.461   8.853
 7733POPC   GL236278  25.323   0.341   8.853
 7733POPC   C1A36279  25.265   0.468   8.553
 7733POPC   D2A36280  25.252   0.415   8.253
 7733POPC   C3A36281  25.300   0.412   7.953
 7733POPC   C4A36282  25.274   0.404   7.653
 7733POPC   C1B36283  25.495   0.295   8.553
 7733POPC   C2B36284  25.471   0.310   8.253
 7733POPC   C3B36285  25.461   0.249   7.953
 7733POPC   C4B36286  25.445   0.295   7.653
 7734POPC   NC336287  42.316  29.186   9.453
 7734POPC   PO436288  42.309  29.123   9.153
 7734POPC   GL136289  42.352  29.195   8.853
 7734POPC   GL236290  42.468  29.206   8.853
 7734POPC   C1A36291  42.345  29.145   8.553
 7734POPC   D2A36292  42.330  29.116   8.253
 7734POPC   C3A36293  42.362  29.163   7.953
 7734POPC   C4A36294  42.312  29.126   7.653
 7734POPC   C1B36295  42.614  29.209   8.553
 7734POPC   C2B36296  42.554  29.151   8.253
 7734POPC   C3B36297  42.552  29.210   7.953
 7734POPC   C4B36298  42.549  29.175   7.653
 7735POPC   NC336299  32.271  43.133   9.453
 7735POPC   PO436300  32.205  43.113   9.153
 7735POPC   GL136301  32.200  43.138   8.853
 7735POPC   GL236302  32.379  43.058   8.853
 7735POPC   C1A36303  32.270  43.076   8.553
 7735POPC   D2A36304  32.293  43.095   8.253
 7735POPC   C3A36305  32.203  43.080   7.953
 7735POPC   C4A36306  32.201  43.149   7.653
 7735POPC   C1B36307  32.533  43.129   8.553
 7735POPC   C2B36308  32.463  43.103   8.253
 7735POPC   C3B36309  32.449  43.055   7.953
 7735POPC   C4B36310  32.482  43.128   7.653
 7736POPC   NC336311  24.519  36.914   9.453
 7736POPC   PO436312  24.526  36.944   9.153
 7736POPC   GL136313  24.472  36.919   8.853
 7736POPC   GL236314  24.380  36.961   8.853
 7736POPC   C1A36315  24.530  36.947   8.553
 7736POPC   D2A36316  24.504  36.872   8.253
 7736POPC   C3A36317  24.534  36.952   7.953
 7736POPC   C4A36318  24.533  36.944   7.653
 7736POPC   C1B36319  24.290  37.012   8.553
 7736POPC   C2B36320  24.328  37.029   8.253
 7736POPC   C3B36321  24.255  37.029   7.953
 7736POPC   C4B36322  24.237  37.076   7.653
 7737POPC   NC336323   5.057   0.429   9.453
 7737POPC   PO436324   5.045   0.481   9.153
 7737POPC   GL136325   5.087   0.431   8.853
 7737POPC   GL236326   4.975   0.374   8.853
 7737POPC   C1A36327   5.073   0.487   8.553
 7737POPC   D2A36328   5.056   0.432   8.253
 7737POPC   C3A36329   5.143   0.441   7.953
 7737POPC   C4A36330   5.063   0.395   7.653
 7737POPC   C1B36331   4.857   0.361   8.553
 7737POPC   C2B36332   4.884   0.420   8.253
 7737POPC   C3B36333   4.819   0.389   7.953
 7737POPC   C4B36334   4.841   0.348   7.653
 7738POPC   NC336335  39.226  12.044   9.453
 7738POPC   PO436336  39.188  12.060   9.153
 7738POPC   GL136337  39.247  12.106   8.853
 7738POPC   GL236338  39.362  12.034   8.853
 7738POPC   C1A36339  39.279  12.047   8.553
 7738POPC   D2A36340  39.258  12.041   8.253
 7738POPC   C3A36341  39.271  12.115   7.953
 7738POPC   C4A36342  39.229  12.064   7.653
 7738POPC   C1B36343  39.424  11.978   8.553
 7738POPC   C2B36344  39.492  12.010   8.253
 7738POPC   C3B36345  39.455  12.006   7.953
 7738POPC   C4B36346  39.498  12.000   7.653
 7739POPC   NC336347  36.085   9.775   9.453
 7739POPC   PO436348  36.115   9.782   9.153
 7739POPC   GL136349  36.145   9.711   8.853
 7739POPC   GL236350  36.100   9.614   8.853
 7739POPC   C1A36351  36.079   9.743   8.553
 7739POPC   D2A36352  36.164   9.793   8.253
 7739POPC   C3A36353  36.170   9.700   7.953
 7739POPC   C4A36354  36.112   9.714   7.653
 7739POPC   C1B36355  36.165   9.540   8.553
 7739POPC   C2B36356  36.128   9.546   8.253
 7739POPC   C3B36357  36.084   9.468   7.953
 7739POPC   C4B36358  36.124   9.510   7.653
 7740POPC   NC336359  36.909  21.425   9.453
 7740POPC   PO436360  36.896  21.434   9.153
 7740POPC   GL136361  36.863  21.425   8.853
 7740POPC   GL236362  36.829  21.336   8.853
 7740POPC   C1A36363  36.883  21.336   8.553
 7740POPC   D2A36364  36.877  21.365   8.253
 7740POPC   C3A36365  36.875  21.347   7.953
 7740POPC   C4A36366  36.910  21.421   7.653
 7740POPC   C1B36367  36.649  21.340   8.553
 7740POPC   C2B36368  36.680  21.361   8.253
 7740POPC   C3B36369  36.702  21.324   7.953
 7740POPC   C4B36370  36.646  21.311   7.653
 7741POPC   NC336371   1.973  38.425   9.453
 7741POPC   PO436372   2.026  38.485   9.153
 7741POPC   GL136373   1.989  38.463   8.853
 7741POPC   GL236374   1.905  38.486   8.853
 7741POPC   C1A36375   1.970  38.460   8.553
 7741POPC   D2A36376   1.957  38.430   8.253
 7741POPC   C3A36377   1.980  38.473   7.953
 7741POPC   C4A36378   1.991  38.479   7.653
 7741POPC   C1B36379   1.718  38.472   8.553
 7741POPC   C2B36380   1.729  38.503   8.253
 7741POPC   C3B36381   1.726  38.477   7.953
 7741POPC   C4B36382   1.717  38.489   7.653
 7742POPC   NC336383  43.865  39.192   9.453
 7742POPC   PO436384  43.889  39.210   9.153
 7742POPC   GL136385  43.908  39.242   8.853
 7742POPC   GL236386  43.791  39.216   8.853
 7742POPC   C1A36387  43.925  39.276   8.553
 7742POPC   D2A36388  43.933  39.251   8.253
 7742POPC   C3A36389  43.876  39.263   7.953
 7742POPC   C4A36390  43.874  39.259   7.653
 7742POPC   C1B36391  43.668  39.128   8.553
 7742POPC   C2B36392  43.647  39.107   8.253
 7742POPC   C3B36393  43.685  39.098   7.953
 7742POPC   C4B36394  43.631  39.102   7.653
 7743POPC   NC336395  37.659  29.904   9.453
 7743POPC   PO436396  37.652  29.951   9.153
 7743POPC   GL136397  37.724  29.904   8.853
 7743POPC   GL236398  37.815  30.015   8.853
 7743POPC   C1A36399  37.632  29.885   8.553
 7743POPC   D2A36400  37.724  29.891   8.253
 7743POPC   C3A36401  37.631  29.911   7.953
 7743POPC   C4A36402  37.658  29.880   7.653
 7743POPC   C1B36403  37.914  30.037   8.553
 7743POPC   C2B36404  37.938  30.064   8.253
 7743POPC   C3B36405  37.884  30.017   7.953
 7743POPC   C4B36406  37.923  29.991   7.653
 7744POPC   NC336407  11.317  39.244   9.453
 7744POPC   PO436408  11.339  39.276   9.153
 7744POPC   GL136409  11.250  39.212   8.853
 7744POPC   GL236410  11.207  39.264   8.853
 7744POPC   C1A36411  11.328  39.184   8.553
 7744POPC   D2A36412  11.325  39.235   8.253
 7744POPC   C3A36413  11.321  39.224   7.953
 7744POPC   C4A36414  11.341  39.267   7.653
 7744POPC   C1B36415  11.025  39.299   8.553
 7744POPC   C2B36416  11.104  39.342   8.253
 7744POPC   C3B36417  11.056  39.310   7.953
 7744POPC   C4B36418  11.033  39.264   7.653
 7745POPC   NC336419  43.928  22.964   9.453
 7745POPC   PO436420  43.863  22.961   9.153
 7745POPC   GL136421  43.852  22.914   8.853
 7745POPC   GL236422  43.804  22.804   8.853
 7745POPC   C1A36423  43.881  22.934   8.553
 7745POPC   D2A36424  43.933  22.903   8.253
 7745POPC   C3A36425  43.837  22.925   7.953
 7745POPC   C4A36426  43.883  22.980   7.653
 7745POPC   C1B36427  43.797  22.698   8.553
 7745POPC   C2B36428  43.772  22.688   8.253
 7745POPC   C3B36429  43.803  22.726   7.953
 7745POPC   C4B36430  43.777  22.764   7.653
 7746POPC   NC336431  20.631  20.586   9.453
 7746POPC   PO436432  20.629  20.619   9.153
 7746POPC   GL136433  20.591  20.628   8.853
 7746POPC   GL236434  20.496  20.734   8.853
 7746POPC   C1A36435  20.625  20.648   8.553
 7746POPC   D2A36436  20.629  20.649   8.253
 7746POPC   C3A36437  20.606  20.610   7.953
 7746POPC   C4A36438  20.566  20.632   7.653
 7746POPC   C1B36439  20.367  20.741   8.553
 7746POPC   C2B36440  20.366  20.733   8.253
 7746POPC   C3B36441  20.390  20.751   7.953
 7746POPC   C4B36442  20.455  20.744   7.653
 7747POPC   NC336443  44.614  39.995   9.453
 7747POPC   PO436444  44.614  39.964   9.153
 7747POPC   GL136445  44.664  40.036   8.853
 7747POPC   GL236446  44.713  40.140   8.853
 7747POPC   C1A36447  44.692  40.017   8.553
 7747POPC   D2A36448  44.653  39.999   8.253
 7747POPC   C3A36449  44.627  39.962   7.953
 7747POPC   C4A36450  44.705  39.991   7.653
 7747POPC   C1B36451  44.773  40.245   8.553
 7747POPC   C2B36452  44.746  40.206   8.253
 7747POPC   C3B36453  44.759  40.234   7.953
 7747POPC   C4B36454  44.788  40.270   7.653
 7748POPC   NC336455  12.117  29.144   9.453
 7748POPC   PO436456  12.081  29.153   9.153
 7748POPC   GL136457  12.099  29.140   8.853
 7748POPC   GL236458  12.005  29.052   8.853
 7748POPC   C1A36459  12.047  29.133   8.553
 7748POPC   D2A36460  12.027  29.172   8.253
 7748POPC   C3A36461  12.091  29.138   7.953
 7748POPC   C4A36462  12.027  29.182   7.653
 7748POPC   C1B36463  11.952  28.963   8.553
 7748POPC   C2B36464  11.936  28.870   8.253
 7748POPC   C3B36465  11.955  28.937   7.953
 7748POPC   C4B36466  11.950  28.867   7.653
 7749POPC   NC336467  33.836  25.298   9.453
 7749POPC   PO436468  33.838  25.297   9.153
 7749POPC   GL136469  33.805  25.286   8.853
 7749POPC   GL236470  33.869  25.141   8.853
 7749POPC   C1A36471  33.805  25.249   8.553
 7749POPC   D2A36472  33.794  25.231   8.253
 7749POPC   C3A36473  33.781  25.233   7.953
 7749POPC   C4A36474  33.848  25.293   7.653
 7749POPC   C1B36475  33.923  25.048   8.553
 7749POPC   C2B36476  33.892  25.038   8.253
 7749POPC   C3B36477  33.845  25.069   7.953
 7749POPC   C4B36478  33.929  24.996   7.653
 7750POPC   NC336479  19.107  43.931   9.453
 7750POPC   PO436480  19.038  43.877   9.153
 7750POPC   GL136481  19.009  43.836   8.853
 7750POPC   GL236482  18.935  43.944   8.853
 7750POPC   C1A36483  19.061  43.933   8.553
 7750POPC   D2A36484  19.045  43.880   8.253
 7750POPC   C3A36485  19.094  43.867   7.953
 7750POPC   C4A36486  19.044  43.876   7.653
 7750POPC   C1B36487  18.869  44.021   8.553
 7750POPC   C2B36488  18.843  43.973   8.253
 7750POPC   C3B36489  18.829  44.028   7.953
 7750POPC   C4B36490  18.823  44.009   7.653
 7751POPC   NC336491  33.755  39.230   9.453
 7751POPC   PO436492  33.806  39.245   9.153
 7751POPC   GL136493  33.847  39.209   8.853
 7751POPC   GL236494  33.688  39.169   8.853
 7751POPC   C1A36495  33.792  39.277   8.553
 7751POPC   D2A36496  33.822  39.258   8.253
 7751POPC   C3A36497  33.764  39.200   7.953
 7751POPC   C4A36498  33.815  39.190   7.653
 7751POPC   C1B36499  33.566  39.142   8.553
 7751POPC   C2B36500  33.543  39.122   8.253
 7751POPC   C3B36501  33.588  39.150   7.953
 7751POPC   C4B36502  33.513  39.129   7.653
 7752POPC   NC336503  12.842  10.500   9.453
 7752POPC   PO436504  12.829  10.552   9.153
 7752POPC   GL136505  12.834  10.539   8.853
 7752POPC   GL236506  12.936  10.392   8.853
 7752POPC   C1A36507  12.891  10.539   8.553
 7752POPC   D2A36508  12.883  10.504   8.253
 7752POPC   C3A36509  12.839  10.505   7.953
 7752POPC   C4A36510  12.893  10.567   7.653
 7752POPC   C1B36511  12.952  10.296   8.553
 7752POPC   C2B36512  12.973  10.261   8.253
 7752POPC   C3B36513  12.983  10.304   7.953
 7752POPC   C4B36514  12.974  10.253   7.653
 7753POPC   NC336515  21.360  38.408   9.453
 7753POPC   PO436516  21.354  38.495   9.153
 7753POPC   GL136517  21.359  38.470   8.853
 7753POPC   GL236518  21.359  38.367   8.853
 7753POPC   C1A36519  21.384  38.450   8.553
 7753POPC   D2A36520  21.356  38.439   8.253
 7753POPC   C3A36521  21.385  38.431   7.953
 7753POPC   C4A36522  21.351  38.467   7.653
 7753POPC   C1B36523  21.243  38.285   8.553
 7753POPC   C2B36524  21.257  38.251   8.253
 7753POPC   C3B36525  21.233  38.244   7.953
 7753POPC   C4B36526  21.235  38.265   7.653
 7754POPC   NC336527  37.638  33.024   9.453
 7754POPC   PO436528  37.716  33.060   9.153
 7754POPC   GL136529  37.666  33.033   8.853
 7754POPC   GL236530  37.797  32.914   8.853
 7754POPC   C1A36531  37.637  33.063   8.553
 7754POPC   D2A36532  37.721  33.033   8.253
 7754POPC   C3A36533  37.724  33.049   7.953
 7754POPC   C4A36534  37.693  33.055   7.653
 7754POPC   C1B36535  37.835  32.827   8.553
 7754POPC   C2B36536  37.837  32.797   8.253
 7754POPC   C3B36537  37.828  32.857   7.953
 7754POPC   C4B36538  37.837  32.844   7.653
 7755POPC   NC336539  27.550  30.673   9.453
 7755POPC   PO436540  27.621  30.672   9.153
 7755POPC   GL136541  27.583  30.652   8.853
 7755POPC   GL236542  27.707  30.620   8.853
 7755POPC   C1A36543  27.578  30.654   8.553
 7755POPC   D2A36544  27.616  30.688   8.253
 7755POPC   C3A36545  27.636  30.704   7.953
 7755POPC   C4A36546  27.611  30.708   7.653
 7755POPC   C1B36547  27.794  30.575   8.553
 7755POPC   C2B36548  27.768  30.604   8.253
 7755POPC   C3B36549  27.849  30.574   7.953
 7755POPC   C4B36550  27.779  30.617   7.653
 7756POPC   NC336551   4.337  43.881   9.453
 7756POPC   PO436552   4.348  43.851   9.153
 7756POPC   GL136553   4.283  43.845   8.853
 7756POPC   GL236554   4.240  43.887   8.853
 7756POPC   C1A36555   4.346  43.888   8.553
 7756POPC   D2A36556   4.310  43.928   8.253
 7756POPC   C3A36557   4.298  43.842   7.953
 7756POPC   C4A36558   4.350  43.930   7.653
 7756POPC   C1B36559   4.037  43.918   8.553
 7756POPC   C2B36560   4.118  43.959   8.253
 7756POPC   C3B36561   4.044  43.957   7.953
 7756POPC   C4B36562   4.042  43.913   7.653
 7757POPC   NC336563   2.747   9.744   9.453
 7757POPC   PO436564   2.767   9.735   9.153
 7757POPC   GL136565   2.718   9.775   8.853
 7757POPC   GL236566   2.613   9.776   8.853
 7757POPC   C1A36567   2.772   9.707   8.553
 7757POPC   D2A36568   2.787   9.713   8.253
 7757POPC   C3A36569   2.795   9.796   7.953
 7757POPC   C4A36570   2.769   9.712   7.653
 7757POPC   C1B36571   2.586   9.897   8.553
 7757POPC   C2B36572   2.505   9.882   8.253
 7757POPC   C3B36573   2.562   9.835   7.953
 7757POPC   C4B36574   2.497   9.902   7.653
 7758POPC   NC336575  19.027  33.769   9.453
 7758POPC   PO436576  19.095  33.810   9.153
 7758POPC   GL136577  19.105  33.815   8.853
 7758POPC   GL236578  19.006  33.711   8.853
 7758POPC   C1A36579  19.033  33.777   8.553
 7758POPC   D2A36580  19.023  33.813   8.253
 7758POPC   C3A36581  19.056  33.826   7.953
 7758POPC   C4A36582  19.039  33.809   7.653
 7758POPC   C1B36583  19.002  33.546   8.553
 7758POPC   C2B36584  19.007  33.565   8.253
 7758POPC   C3B36585  19.001  33.593   7.953
 7758POPC   C4B36586  18.994  33.570   7.653
 7759POPC   NC336587  35.356  32.212   9.453
 7759POPC   PO436588  35.326  32.276   9.153
 7759POPC   GL136589  35.319  32.234   8.853
 7759POPC   GL236590  35.467  32.223   8.853
 7759POPC   C1A36591  35.364  32.240   8.553
 7759POPC   D2A36592  35.369  32.297   8.253
 7759POPC   C3A36593  35.391  32.261   7.953
 7759POPC   C4A36594  35.377  32.228   7.653
 7759POPC   C1B36595  35.596  32.150   8.553
 7759POPC   C2B36596  35.564  32.174   8.253
 7759POPC   C3B36597  35.576  32.143   7.953
 7759POPC   C4B36598  35.548  32.163   7.653
 7760POPC   NC336599  29.129  22.964   9.453
 7760POPC   PO436600  29.185  22.981   9.153
 7760POPC   GL136601  29.190  22.902   8.853
 7760POPC   GL236602  29.058  22.975   8.853
 7760POPC   C1A36603  29.112  22.916   8.553
 7760POPC   D2A36604  29.174  22.930   8.253
 7760POPC   C3A36605  29.109  22.904   7.953
 7760POPC   C4A36606  29.144  22.981   7.653
 7760POPC   C1B36607  28.923  22.995   8.553
 7760POPC   C2B36608  28.903  23.054   8.253
 7760POPC   C3B36609  28.882  22.970   7.953
 7760POPC   C4B36610  28.889  23.011   7.653
 7761POPC   NC336611  44.700  12.029   9.453
 7761POPC   PO436612  44.618  12.098   9.153
 7761POPC   GL136613  44.615  12.084   8.853
 7761POPC   GL236614  44.555  11.973   8.853
 7761POPC   C1A36615  44.634  12.103   8.553
 7761POPC   D2A36616  44.668  12.044   8.253
 7761POPC   C3A36617  44.697  12.087   7.953
 7761POPC   C4A36618  44.623  12.106   7.653
 7761POPC   C1B36619  44.459  11.868   8.553
 7761POPC   C2B36620  44.486  11.887   8.253
 7761POPC   C3B36621  44.540  11.921   7.953
 7761POPC   C4B36622  44.516  11.913   7.653
 7762POPC   NC336623  32.239  38.439   9.453
 7762POPC   PO436624  32.259  38.466   9.153
 7762POPC   GL136625  32.251  38.485   8.853
 7762POPC   GL236626  32.262  38.536   8.853
 7762POPC   C1A36627  32.230  38.425   8.553
 7762POPC   D2A36628  32.255  38.456   8.253
 7762POPC   C3A36629  32.249  38.505   7.953
 7762POPC   C4A36630  32.259  38.459   7.653
 7762POPC   C1B36631  32.332  38.653   8.553
 7762POPC   C2B36632  32.400  38.698   8.253
 7762POPC   C3B36633  32.378  38.713   7.953
 7762POPC   C4B36634  32.372  38.637   7.653
 7763POPC   NC336635   5.835  15.221   9.453
 7763POPC   PO436636   5.903  15.176   9.153
 7763POPC   GL136637   5.858  15.226   8.853
 7763POPC   GL236638   5.864  15.261   8.853
 7763POPC   C1A36639   5.854  15.132   8.553
 7763POPC   D2A36640   5.914  15.179   8.253
 7763POPC   C3A36641   5.862  15.133   7.953
 7763POPC   C4A36642   5.833  15.141   7.653
 7763POPC   C1B36643   5.853  15.453   8.553
 7763POPC   C2B36644   5.839  15.372   8.253
 7763POPC   C3B36645   5.820  15.425   7.953
 7763POPC   C4B36646   5.770  15.395   7.653
 7764POPC   NC336647  12.856  24.484   9.453
 7764POPC   PO436648  12.841  24.474   9.153
 7764POPC   GL136649  12.807  24.489   8.853
 7764POPC   GL236650  12.978  24.486   8.853
 7764POPC   C1A36651  12.829  24.533   8.553
 7764POPC   D2A36652  12.858  24.488   8.253
 7764POPC   C3A36653  12.854  24.442   7.953
 7764POPC   C4A36654  12.880  24.491   7.653
 7764POPC   C1B36655  13.089  24.557   8.553
 7764POPC   C2B36656  13.093  24.578   8.253
 7764POPC   C3B36657  13.086  24.600   7.953
 7764POPC   C4B36658  13.124  24.592   7.653
 7765POPC   NC336659  17.516  41.514   9.453
 7765POPC   PO436660  17.487  41.513   9.153
 7765POPC   GL136661  17.538  41.519   8.853
 7765POPC   GL236662  17.611  41.464   8.853
 7765POPC   C1A36663  17.469  41.558   8.553
 7765POPC   D2A36664  17.531  41.546   8.253
 7765POPC   C3A36665  17.490  41.549   7.953
 7765POPC   C4A36666  17.505  41.565   7.653
 7765POPC   C1B36667  17.685  41.403   8.553
 7765POPC   C2B36668  17.711  41.437   8.253
 7765POPC   C3B36669  17.658  41.413   7.953
 7765POPC   C4B36670  17.663  41.390   7.653
 7766POPC   NC336671  15.974   7.412   9.453
 7766POPC   PO436672  15.920   7.450   9.153
 7766POPC   GL136673  15.971   7.391   8.853
 7766POPC   GL236674  16.050   7.435   8.853
 7766POPC   C1A36675  15.928   7.434   8.553
 7766POPC   D2A36676  15.987   7.449   8.253
 7766POPC   C3A36677  15.980   7.378   7.953
 7766POPC   C4A36678  15.955   7.452   7.653
 7766POPC   C1B36679  16.180   7.397   8.553
 7766POPC   C2B36680  16.179   7.418   8.253
 7766POPC   C3B36681  16.224   7.443   7.953
 7766POPC   C4B36682  16.166   7.465   7.653
 7767POPC   NC336683  19.787  23.758   9.453
 7767POPC   PO436684  19.820  23.681   9.153
 7767POPC   GL136685  19.805  23.681   8.853
 7767POPC   GL236686  19.735  23.826   8.853
 7767POPC   C1A36687  19.837  23.665   8.553
 7767POPC   D2A36688  19.852  23.717   8.253
 7767POPC   C3A36689  19.795  23.701   7.953
 7767POPC   C4A36690  19.876  23.725   7.653
 7767POPC   C1B36691  19.604  23.858   8.553
 7767POPC   C2B36692  19.630  23.880   8.253
 7767POPC   C3B36693  19.622  23.865   7.953
 7767POPC   C4B36694  19.645  23.854   7.653
 7768POPC   NC336695  11.269   7.456   9.453
 7768POPC   PO436696  11.313   7.442   9.153
 7768POPC   GL136697  11.264   7.376   8.853
 7768POPC   GL236698  11.426   7.434   8.853
 7768POPC   C1A36699  11.286   7.376   8.553
 7768POPC   D2A36700  11.272   7.467   8.253
 7768POPC   C3A36701  11.327   7.450   7.953
 7768POPC   C4A36702  11.273   7.411   7.653
 7768POPC   C1B36703  11.567   7.427   8.553
 7768POPC   C2B36704  11.516   7.444   8.253
 7768POPC   C3B36705  11.534   7.360   7.953
 7768POPC   C4B36706  11.522   7.380   7.653
 7769POPC   NC336707   7.405  18.297   9.453
 7769POPC   PO436708   7.449  18.317   9.153
 7769POPC   GL136709   7.385  18.324   8.853
 7769POPC   GL236710   7.450  18.385   8.853
 7769POPC   C1A36711   7.394  18.326   8.553
 7769POPC   D2A36712   7.377  18.260   8.253
 7769POPC   C3A36713   7.379  18.308   7.953
 7769POPC   C4A36714   7.376  18.290   7.653
 7769POPC   C1B36715   7.556  18.518   8.553
 7769POPC   C2B36716   7.574  18.470   8.253
 7769POPC   C3B36717   7.531  18.519   7.953
 7769POPC   C4B36718   7.534  18.489   7.653
 7770POPC   NC336719  20.592  15.227   9.453
 7770POPC   PO436720  20.596  15.190   9.153
 7770POPC   GL136721  20.631  15.163   8.853
 7770POPC   GL236722  20.583  15.238   8.853
 7770POPC   C1A36723  20.630  15.143   8.553
 7770POPC   D2A36724  20.576  15.177   8.253
 7770POPC   C3A36725  20.603  15.190   7.953
 7770POPC   C4A36726  20.618  15.182   7.653
 7770POPC   C1B36727  20.442  15.363   8.553
 7770POPC   C2B36728  20.511  15.397   8.253
 7770POPC   C3B36729  20.509  15.437   7.953
 7770POPC   C4B36730  20.487  15.358   7.653
 7771POPC   NC336731  38.440   2.723   9.453
 7771POPC   PO436732  38.426   2.789   9.153
 7771POPC   GL136733  38.449   2.735   8.853
 7771POPC   GL236734  38.579   2.756   8.853
 7771POPC   C1A36735  38.430   2.797   8.553
 7771POPC   D2A36736  38.446   2.717   8.253
 7771POPC   C3A36737  38.442   2.769   7.953
 7771POPC   C4A36738  38.428   2.751   7.653
 7771POPC   C1B36739  38.709   2.665   8.553
 7771POPC   C2B36740  38.722   2.672   8.253
 7771POPC   C3B36741  38.669   2.688   7.953
 7771POPC   C4B36742  38.713   2.681   7.653
 7772POPC   NC336743  43.095  14.355   9.453
 7772POPC   PO436744  43.110  14.417   9.153
 7772POPC   GL136745  43.096  14.388   8.853
 7772POPC   GL236746  43.212  14.529   8.853
 7772POPC   C1A36747  43.150  14.414   8.553
 7772POPC   D2A36748  43.124  14.404   8.253
 7772POPC   C3A36749  43.156  14.399   7.953
 7772POPC   C4A36750  43.145  14.398   7.653
 7772POPC   C1B36751  43.225  14.658   8.553
 7772POPC   C2B36752  43.194  14.671   8.253
 7772POPC   C3B36753  43.250  14.662   7.953
 7772POPC   C4B36754  43.270  14.594   7.653
 7773POPC   NC336755  40.780  29.922   9.453
 7773POPC   PO436756  40.811  29.906   9.153
 7773POPC   GL136757  40.822  29.960   8.853
 7773POPC   GL236758  40.895  29.829   8.853
 7773POPC   C1A36759  40.742  29.916   8.553
 7773POPC   D2A36760  40.793  29.952   8.253
 7773POPC   C3A36761  40.789  29.960   7.953
 7773POPC   C4A36762  40.823  29.941   7.653
 7773POPC   C1B36763  40.975  29.764   8.553
 7773POPC   C2B36764  40.998  29.842   8.253
 7773POPC   C3B36765  40.971  29.851   7.953
 7773POPC   C4B36766  40.978  29.778   7.653
 7774POPC   NC336767  15.145  13.590   9.453
 7774POPC   PO436768  15.168  13.659   9.153
 7774POPC   GL136769  15.160  13.619   8.853
 7774POPC   GL236770  15.108  13.646   8.853
 7774POPC   C1A36771  15.211  13.622   8.553
 7774POPC   D2A36772  15.214  13.614   8.253
 7774POPC   C3A36773  15.220  13.611   7.953
 7774POPC   C4A36774  15.195  13.632   7.653
 7774POPC   C1B36775  14.923  13.557   8.553
 7774POPC   C2B36776  14.944  13.593   8.253
 7774POPC   C3B36777  14.922  13.520   7.953
 7774POPC   C4B36778  14.953  13.608   7.653
 7775POPC   NC336779  19.015   8.223   9.453
 7775POPC   PO436780  19.035   8.178   9.153
 7775POPC   GL136781  19.017   8.211   8.853
 7775POPC   GL236782  19.063   8.101   8.853
 7775POPC   C1A36783  19.093   8.185   8.553
 7775POPC   D2A36784  19.091   8.203   8.253
 7775POPC   C3A36785  19.035   8.202   7.953
 7775POPC   C4A36786  19.020   8.217   7.653
 7775POPC   C1B36787  19.000   7.908   8.553
 7775POPC   C2B36788  18.996   7.958   8.253
 7775POPC   C3B36789  18.996   7.971   7.953
 7775POPC   C4B36790  19.057   7.989   7.653
 7776POPC   NC336791  33.797  28.397   9.453
 7776POPC   PO436792  33.802  28.343   9.153
 7776POPC   GL136793  33.836  28.350   8.853
 7776POPC   GL236794  33.853  28.295   8.853
 7776POPC   C1A36795  33.836  28.378   8.553
 7776POPC   D2A36796  33.801  28.336   8.253
 7776POPC   C3A36797  33.789  28.339   7.953
 7776POPC   C4A36798  33.838  28.337   7.653
 7776POPC   C1B36799  33.973  28.176   8.553
 7776POPC   C2B36800  33.963  28.209   8.253
 7776POPC   C3B36801  33.972  28.213   7.953
 7776POPC   C4B36802  33.972  28.136   7.653
 7777POPC   NC336803  13.594  11.349   9.453
 7777POPC   PO436804  13.672  11.271   9.153
 7777POPC   GL136805  13.648  11.293   8.853
 7777POPC   GL236806  13.595  11.415   8.853
 7777POPC   C1A36807  13.668  11.261   8.553
 7777POPC   D2A36808  13.676  11.297   8.253
 7777POPC   C3A36809  13.615  11.315   7.953
 7777POPC   C4A36810  13.587  11.305   7.653
 7777POPC   C1B36811  13.571  11.561   8.553
 7777POPC   C2B36812  13.511  11.514   8.253
 7777POPC   C3B36813  13.518  11.527   7.953
 7777POPC   C4B36814  13.547  11.526   7.653
 7778POPC   NC336815  22.120  14.453   9.453
 7778POPC   PO436816  22.134  14.447   9.153
 7778POPC   GL136817  22.184  14.423   8.853
 7778POPC   GL236818  22.071  14.348   8.853
 7778POPC   C1A36819  22.160  14.423   8.553
 7778POPC   D2A36820  22.172  14.451   8.253
 7778POPC   C3A36821  22.190  14.419   7.953
 7778POPC   C4A36822  22.164  14.407   7.653
 7778POPC   C1B36823  21.916  14.310   8.553
 7778POPC   C2B36824  21.989  14.257   8.253
 7778POPC   C3B36825  21.909  14.297   7.953
 7778POPC   C4B36826  21.972  14.233   7.653
 7779POPC   NC336827  29.162  14.357   9.453
 7779POPC   PO436828  29.097  14.453   9.153
 7779POPC   GL136829  29.124  14.385   8.853
 7779POPC   GL236830  29.180  14.300   8.853
 7779POPC   C1A36831  29.171  14.375   8.553
 7779POPC   D2A36832  29.103  14.381   8.253
 7779POPC   C3A36833  29.127  14.389   7.953
 7779POPC   C4A36834  29.114  14.448   7.653
 7779POPC   C1B36835  29.178  14.169   8.553
 7779POPC   C2B36836  29.237  14.121   8.253
 7779POPC   C3B36837  29.225  14.189   7.953
 7779POPC   C4B36838  29.223  14.179   7.653
 7780POPC   NC336839  29.948  15.931   9.453
 7780POPC   PO436840  29.890  15.954   9.153
 7780POPC   GL136841  29.940  15.994   8.853
 7780POPC   GL236842  30.004  15.890   8.853
 7780POPC   C1A36843  29.882  15.960   8.553
 7780POPC   D2A36844  29.965  15.941   8.253
 7780POPC   C3A36845  29.875  15.947   7.953
 7780POPC   C4A36846  29.885  15.980   7.653
 7780POPC   C1B36847  30.135  15.743   8.553
 7780POPC   C2B36848  30.138  15.787   8.253
 7780POPC   C3B36849  30.069  15.807   7.953
 7780POPC   C4B36850  30.099  15.740   7.653
 7781POPC   NC336851  30.667  32.272   9.453
 7781POPC   PO436852  30.680  32.206   9.153
 7781POPC   GL136853  30.691  32.210   8.853
 7781POPC   GL236854  30.697  32.370   8.853
 7781POPC   C1A36855  30.730  32.280   8.553
 7781POPC   D2A36856  30.664  32.280   8.253
 7781POPC   C3A36857  30.655  32.250   7.953
 7781POPC   C4A36858  30.746  32.286   7.653
 7781POPC   C1B36859  30.732  32.464   8.553
 7781POPC   C2B36860  30.704  32.490   8.253
 7781POPC   C3B36861  30.711  32.446   7.953
 7781POPC   C4B36862  30.716  32.528   7.653
 7782POPC   NC336863  19.043  43.111   9.453
 7782POPC   PO436864  19.095  43.080   9.153
 7782POPC   GL136865  19.074  43.068   8.853
 7782POPC   GL236866  19.201  43.021   8.853
 7782POPC   C1A36867  19.067  43.114   8.553
 7782POPC   D2A36868  19.040  43.064   8.253
 7782POPC   C3A36869  19.078  43.131   7.953
 7782POPC   C4A36870  19.020  43.133   7.653
 7782POPC   C1B36871  19.243  42.941   8.553
 7782POPC   C2B36872  19.244  42.932   8.253
 7782POPC   C3B36873  19.234  42.991   7.953
 7782POPC   C4B36874  19.280  42.920   7.653
 7783POPC   NC336875  13.653   6.689   9.453
 7783POPC   PO436876  13.612   6.681   9.153
 7783POPC   GL136877  13.667   6.600   8.853
 7783POPC   GL236878  13.526   6.565   8.853
 7783POPC   C1A36879  13.660   6.664   8.553
 7783POPC   D2A36880  13.646   6.695   8.253
 7783POPC   C3A36881  13.669   6.633   7.953
 7783POPC   C4A36882  13.621   6.655   7.653
 7783POPC   C1B36883  13.458   6.476   8.553
 7783POPC   C2B36884  13.436   6.516   8.253
 7783POPC   C3B36885  13.434   6.509   7.953
 7783POPC   C4B36886  13.407   6.467   7.653
 7784POPC   NC336887  18.267  39.225   9.453
 7784POPC   PO436888  18.241  39.203   9.153
 7784POPC   GL136889  18.236  39.240   8.853
 7784POPC   GL236890  18.385  39.307   8.853
 7784POPC   C1A36891  18.310  39.219   8.553
 7784POPC   D2A36892  18.282  39.183   8.253
 7784POPC   C3A36893  18.282  39.270   7.953
 7784POPC   C4A36894  18.250  39.235   7.653
 7784POPC   C1B36895  18.392  39.432   8.553
 7784POPC   C2B36896  18.389  39.448   8.253
 7784POPC   C3B36897  18.355  39.448   7.953
 7784POPC   C4B36898  18.394  39.491   7.653
 7785POPC   NC336899  29.886  22.958   9.453
 7785POPC   PO436900  29.954  22.968   9.153
 7785POPC   GL136901  29.952  22.928   8.853
 7785POPC   GL236902  29.892  23.028   8.853
 7785POPC   C1A36903  29.884  22.892   8.553
 7785POPC   D2A36904  29.871  22.900   8.253
 7785POPC   C3A36905  29.906  22.935   7.953
 7785POPC   C4A36906  29.951  22.956   7.653
 7785POPC   C1B36907  29.720  23.149   8.553
 7785POPC   C2B36908  29.791  23.145   8.253
 7785POPC   C3B36909  29.732  23.147   7.953
 7785POPC   C4B36910  29.773  23.143   7.653
 7786POPC   NC336911  11.318  20.571   9.453
 7786POPC   PO436912  11.331  20.622   9.153
 7786POPC   GL136913  11.296  20.618   8.853
 7786POPC   GL236914  11.385  20.540   8.853
 7786POPC   C1A36915  11.315  20.645   8.553
 7786POPC   D2A36916  11.253  20.656   8.253
 7786POPC   C3A36917  11.276  20.573   7.953
 7786POPC   C4A36918  11.271  20.641   7.653
 7786POPC   C1B36919  11.405  20.431   8.553
 7786POPC   C2B36920  11.462  20.407   8.253
 7786POPC   C3B36921  11.391  20.394   7.953
 7786POPC   C4B36922  11.410  20.365   7.653
 7787POPC   NC336923  39.997  26.851   9.453
 7787POPC   PO436924  39.958  26.811   9.153
 7787POPC   GL136925  40.055  26.792   8.853
 7787POPC   GL236926  39.970  26.912   8.853
 7787POPC   C1A36927  40.035  26.841   8.553
 7787POPC   D2A36928  39.962  26.826   8.253
 7787POPC   C3A36929  40.001  26.825   7.953
 7787POPC   C4A36930  39.976  26.798   7.653
 7787POPC   C1B36931  39.851  27.076   8.553
 7787POPC   C2B36932  39.885  26.993   8.253
 7787POPC   C3B36933  39.897  27.031   7.953
 7787POPC   C4B36934  39.838  27.040   7.653
 7788POPC   NC336935  40.744   4.356   9.453
 7788POPC   PO436936  40.832   4.321   9.153
 7788POPC   GL136937  40.782   4.292   8.853
 7788POPC   GL236938  40.952   4.369   8.853
 7788POPC   C1A36939  40.758   4.355   8.553
 7788POPC   D2A36940  40.783   4.300   8.253
 7788POPC   C3A36941  40.756   4.336   7.953
 7788POPC   C4A36942  40.743   4.310   7.653
 7788POPC   C1B36943  40.979   4.408   8.553
 7788POPC   C2B36944  41.007   4.350   8.253
 7788POPC   C3B36945  41.012   4.345   7.953
 7788POPC   C4B36946  41.060   4.420   7.653
 7789POPC   NC336947  26.061  29.908   9.453
 7789POPC   PO436948  26.015  29.890   9.153
 7789POPC   GL136949  26.009  29.874   8.853
 7789POPC   GL236950  26.095  29.812   8.853
 7789POPC   C1A36951  26.051  29.934   8.553
 7789POPC   D2A36952  26.025  29.952   8.253
 7789POPC   C3A36953  26.013  29.914   7.953
 7789POPC   C4A36954  26.007  29.938   7.653
 7789POPC   C1B36955  26.146  29.671   8.553
 7789POPC   C2B36956  26.177  29.655   8.253
 7789POPC   C3B36957  26.153  29.649   7.953
 7789POPC   C4B36958  26.173  29.704   7.653
 7790POPC   NC336959  43.080  40.823   9.453
 7790POPC   PO436960  43.099  40.792   9.153
 7790POPC   GL136961  43.148  40.789   8.853
 7790POPC   GL236962  43.234  40.721   8.853
 7790POPC   C1A36963  43.095  40.781   8.553
 7790POPC   D2A36964  43.145  40.812   8.253
 7790POPC   C3A36965  43.074  40.820   7.953
 7790POPC   C4A36966  43.081  40.800   7.653
 7790POPC   C1B36967  43.295  40.612   8.553
 7790POPC   C2B36968  43.262  40.577   8.253
 7790POPC   C3B36969  43.231  40.590   7.953
 7790POPC   C4B36970  43.245  40.625   7.653
 7791POPC   NC336971  15.145  43.077   9.453
 7791POPC   PO436972  15.146  43.157   9.153
 7791POPC   GL136973  15.228  43.080   8.853
 7791POPC   GL236974  15.118  43.034   8.853
 7791POPC   C1A36975  15.225  43.122   8.553
 7791POPC   D2A36976  15.170  43.124   8.253
 7791POPC   C3A36977  15.135  43.063   7.953
 7791POPC   C4A36978  15.155  43.101   7.653
 7791POPC   C1B36979  15.141  42.823   8.553
 7791POPC   C2B36980  15.064  42.850   8.253
 7791POPC   C3B36981  15.109  42.877   7.953
 7791POPC   C4B36982  15.133  42.883   7.653
 7792POPC   NC336983  44.638  28.367   9.453
 7792POPC   PO436984  44.694  28.335   9.153
 7792POPC   GL136985  44.649  28.340   8.853
 7792POPC   GL236986  44.636  28.502   8.853
 7792POPC   C1A36987  44.620  28.360   8.553
 7792POPC   D2A36988  44.649  28.365   8.253
 7792POPC   C3A36989  44.615  28.372   7.953
 7792POPC   C4A36990  44.709  28.327   7.653
 7792POPC   C1B36991  44.626  28.645   8.553
 7792POPC   C2B36992  44.601  28.598   8.253
 7792POPC   C3B36993  44.580  28.604   7.953
 7792POPC   C4B36994  44.609  28.627   7.653
 7793POPC   NC336995  36.099  32.991   9.453
 7793POPC   PO436996  36.087  33.068   9.153
 7793POPC   GL136997  36.092  32.992   8.853
 7793POPC   GL236998  36.021  33.098   8.853
 7793POPC   C1A36999  36.149  33.066   8.553
 7793POPC   D2A37000  36.098  33.036   8.253
 7793POPC   C3A37001  36.151  33.028   7.953
 7793POPC   C4A37002  36.157  33.043   7.653
 7793POPC   C1B37003  35.872  33.136   8.553
 7793POPC   C2B37004  35.892  33.165   8.253
 7793POPC   C3B37005  35.882  33.134   7.953
 7793POPC   C4B37006  35.898  33.132   7.653
 7794POPC   NC337007   8.933  40.037   9.453
 7794POPC   PO437008   8.985  40.048   9.153
 7794POPC   GL137009   9.014  40.014   8.853
 7794POPC   GL237010   9.115  39.924   8.853
 7794POPC   C1A37011   8.993  40.023   8.553
 7794POPC   D2A37012   9.022  39.958   8.253
 7794POPC   C3A37013   9.008  39.990   7.953
 7794POPC   C4A37014   8.940  39.995   7.653
 7794POPC   C1B37015   9.185  39.964   8.553
 7794POPC   C2B37016   9.171  39.956   8.253
 7794POPC   C3B37017   9.171  39.944   7.953
 7794POPC   C4B37018   9.178  39.920   7.653
 7795POPC   NC337019  29.898  28.331   9.453
 7795POPC   PO437020  29.889  28.354   9.153
 7795POPC   GL137021  29.908  28.369   8.853
 7795POPC   GL237022  29.797  28.378   8.853
 7795POPC   C1A37023  29.914  28.401   8.553
 7795POPC   D2A37024  29.919  28.334   8.253
 7795POPC   C3A37025  29.959  28.367   7.953
 7795POPC   C4A37026  29.931  28.353   7.653
 7795POPC   C1B37027  29.710  28.316   8.553
 7795POPC   C2B37028  29.686  28.321   8.253
 7795POPC   C3B37029  29.690  28.349   7.953
 7795POPC   C4B37030  29.648  28.319   7.653
 7796POPC   NC337031  21.430   2.727   9.453
 7796POPC   PO437032  21.427   2.739   9.153
 7796POPC   GL137033  21.418   2.749   8.853
 7796POPC   GL237034  21.269   2.818   8.853
 7796POPC   C1A37035  21.377   2.739   8.553
 7796POPC   D2A37036  21.407   2.746   8.253
 7796POPC   C3A37037  21.430   2.734   7.953
 7796POPC   C4A37038  21.392   2.808   7.653
 7796POPC   C1B37039  21.124   2.848   8.553
 7796POPC   C2B37040  21.140   2.867   8.253
 7796POPC   C3B37041  21.179   2.827   7.953
 7796POPC   C4B37042  21.182   2.893   7.653
 7797POPC   NC337043  30.665  12.859   9.453
 7797POPC   PO437044  30.685  12.897   9.153
 7797POPC   GL137045  30.742  12.860   8.853
 7797POPC   GL237046  30.547  12.802   8.853
 7797POPC   C1A37047  30.731  12.827   8.553
 7797POPC   D2A37048  30.678  12.830   8.253
 7797POPC   C3A37049  30.676  12.831   7.953
 7797POPC   C4A37050  30.737  12.871   7.653
 7797POPC   C1B37051  30.438  12.766   8.553
 7797POPC   C2B37052  30.491  12.761   8.253
 7797POPC   C3B37053  30.413  12.754   7.953
 7797POPC   C4B37054  30.419  12.792   7.653
 7798POPC   NC337055  32.983  29.120   9.453
 7798POPC   PO437056  33.012  29.107   9.153
 7798POPC   GL137057  32.987  29.123   8.853
 7798POPC   GL237058  33.137  29.148   8.853
 7798POPC   C1A37059  33.019  29.180   8.553
 7798POPC   D2A37060  33.069  29.159   8.253
 7798POPC   C3A37061  33.004  29.189   7.953
 7798POPC   C4A37062  32.984  29.120   7.653
 7798POPC   C1B37063  33.212  29.240   8.553
 7798POPC   C2B37064  33.286  29.293   8.253
 7798POPC   C3B37065  33.286  29.250   7.953
 7798POPC   C4B37066  33.264  29.259   7.653
 7799POPC   NC337067  20.571  10.517   9.453
 7799POPC   PO437068  20.626  10.509   9.153
 7799POPC   GL137069  20.565  10.479   8.853
 7799POPC   GL237070  20.544  10.616   8.853
 7799POPC   C1A37071  20.615  10.506   8.553
 7799POPC   D2A37072  20.570  10.526   8.253
 7799POPC   C3A37073  20.633  10.569   7.953
 7799POPC   C4A37074  20.638  10.477   7.653
 7799POPC   C1B37075  20.421  10.700   8.553
 7799POPC   C2B37076  20.437  10.760   8.253
 7799POPC   C3B37077  20.470  10.776   7.953
 7799POPC   C4B37078  20.501  10.679   7.653
 7800POPC   NC337079  36.084   3.527   9.453
 7800POPC   PO437080  36.092   3.581   9.153
 7800POPC   GL137081  36.167   3.518   8.853
 7800POPC   GL237082  36.260   3.484   8.853
 7800POPC   C1A37083  36.111   3.552   8.553
 7800POPC   D2A37084  36.078   3.571   8.253
 7800POPC   C3A37085  36.097   3.550   7.953
 7800POPC   C4A37086  36.167   3.555   7.653
 7800POPC   C1B37087  36.382   3.415   8.553
 7800POPC   C2B37088  36.409   3.455   8.253
 7800POPC   C3B37089  36.326   3.441   7.953
 7800POPC   C4B37090  36.379   3.437   7.653
 7801POPC   NC337091  43.076  25.238   9.453
 7801POPC   PO437092  43.127  25.274   9.153
 7801POPC   GL137093  43.062  25.290   8.853
 7801POPC   GL237094  43.244  25.240   8.853
 7801POPC   C1A37095  43.067  25.268   8.553
 7801POPC   D2A37096  43.123  25.256   8.253
 7801POPC   C3A37097  43.139  25.252   7.953
 7801POPC   C4A37098  43.158  25.228   7.653
 7801POPC   C1B37099  43.322  25.166   8.553
 7801POPC   C2B37100  43.307  25.103   8.253
 7801POPC   C3B37101  43.282  25.133   7.953
 7801POPC   C4B37102  43.297  25.164   7.653
 7802POPC   NC337103   8.212  43.931   9.453
 7802POPC   PO437104   8.198  43.842   9.153
 7802POPC   GL137105   8.210  43.920   8.853
 7802POPC   GL237106   8.092  43.970   8.853
 7802POPC   C1A37107   8.237  43.908   8.553
 7802POPC   D2A37108   8.203  43.909   8.253
 7802POPC   C3A37109   8.197  43.859   7.953
 7802POPC   C4A37110   8.229  43.881   7.653
 7802POPC   C1B37111   8.016  43.995   8.553
 7802POPC   C2B37112   7.954  43.985   8.253
 7802POPC   C3B37113   7.976  43.993   7.953
 7802POPC   C4B37114   7.974  43.972   7.653
 7803POPC   NC337115  27.572  43.864   9.453
 7803POPC   PO437116  27.609  43.837   9.153
 7803POPC   GL137117  27.595  43.926   8.853
 7803POPC   GL237118  27.629  43.781   8.853
 7803POPC   C1A37119  27.620  43.926   8.553
 7803POPC   D2A37120  27.565  43.864   8.253
 7803POPC   C3A37121  27.587  43.897   7.953
 7803POPC   C4A37122  27.615  43.878   7.653
 7803POPC   C1B37123  27.720  43.626   8.553
 7803POPC   C2B37124  27.711  43.638   8.253
 7803POPC   C3B37125  27.669  43.640   7.953
 7803POPC   C4B37126  27.684  43.635   7.653
 7804POPC   NC337127  19.833  11.263   9.453
 7804POPC   PO437128  19.872  11.314   9.153
 7804POPC   GL137129  19.847  11.339   8.853
 7804POPC   GL237130  19.774  11.415   8.853
 7804POPC   C1A37131  19.792  11.269   8.553
 7804POPC   D2A37132  19.841  11.347   8.253
 7804POPC   C3A37133  19.835  11.289   7.953
 7804POPC   C4A37134  19.833  11.316   7.653
 7804POPC   C1B37135  19.816  11.535   8.553
 7804POPC   C2B37136  19.817  11.493   8.253
 7804POPC   C3B37137  19.783  11.556   7.953
 7804POPC   C4B37138  19.740  11.567   7.653
 7805POPC   NC337139  28.416  18.256   9.453
 7805POPC   PO437140  28.327  18.322   9.153
 7805POPC   GL137141  28.414  18.287   8.853
 7805POPC   GL237142  28.375  18.438   8.853
 7805POPC   C1A37143  28.345  18.292   8.553
 7805POPC   D2A37144  28.355  18.283   8.253
 7805POPC   C3A37145  28.324  18.283   7.953
 7805POPC   C4A37146  28.405  18.247   7.653
 7805POPC   C1B37147  28.396  18.541   8.553
 7805POPC   C2B37148  28.341  18.555   8.253
 7805POPC   C3B37149  28.328  18.580   7.953
 7805POPC   C4B37150  28.336  18.576   7.653
 7806POPC   NC337151  19.030  38.412   9.453
 7806POPC   PO437152  19.019  38.417   9.153
 7806POPC   GL137153  19.028  38.470   8.853
 7806POPC   GL237154  18.909  38.458   8.853
 7806POPC   C1A37155  19.010  38.418   8.553
 7806POPC   D2A37156  19.047  38.446   8.253
 7806POPC   C3A37157  19.011  38.428   7.953
 7806POPC   C4A37158  19.073  38.437   7.653
 7806POPC   C1B37159  18.786  38.546   8.553
 7806POPC   C2B37160  18.813  38.503   8.253
 7806POPC   C3B37161  18.767  38.555   7.953
 7806POPC   C4B37162  18.801  38.541   7.653
 7807POPC   NC337163  32.269  17.524   9.453
 7807POPC   PO437164  32.267  17.482   9.153
 7807POPC   GL137165  32.238  17.485   8.853
 7807POPC   GL237166  32.291  17.374   8.853
 7807POPC   C1A37167  32.219  17.529   8.553
 7807POPC   D2A37168  32.217  17.482   8.253
 7807POPC   C3A37169  32.264  17.516   7.953
 7807POPC   C4A37170  32.264  17.486   7.653
 7807POPC   C1B37171  32.377  17.314   8.553
 7807POPC   C2B37172  32.402  17.367   8.253
 7807POPC   C3B37173  32.463  17.349   7.953
 7807POPC   C4B37174  32.459  17.292   7.653
 7808POPC   NC337175   1.952  42.358   9.453
 7808POPC   PO437176   2.031  42.336   9.153
 7808POPC   GL137177   1.945  42.358   8.853
 7808POPC   GL237178   2.012  42.411   8.853
 7808POPC   C1A37179   1.980  42.331   8.553
 7808POPC   D2A37180   2.009  42.343   8.253
 7808POPC   C3A37181   2.033  42.328   7.953
 7808POPC   C4A37182   1.946  42.335   7.653
 7808POPC   C1B37183   2.007  42.580   8.553
 7808POPC   C2B37184   2.079  42.588   8.253
 7808POPC   C3B37185   2.075  42.595   7.953
 7808POPC   C4B37186   1.988  42.572   7.653
 7809POPC   NC337187   8.976  41.565   9.453
 7809POPC   PO437188   9.016  41.578   9.153
 7809POPC   GL137189   8.925  41.585   8.853
 7809POPC   GL237190   8.897  41.484   8.853
 7809POPC   C1A37191   8.973  41.513   8.553
 7809POPC   D2A37192   8.996  41.568   8.253
 7809POPC   C3A37193   8.927  41.547   7.953
 7809POPC   C4A37194   9.000  41.554   7.653
 7809POPC   C1B37195   8.851  41.377   8.553
 7809POPC   C2B37196   8.862  41.329   8.253
 7809POPC   C3B37197   8.830  41.341   7.953
 7809POPC   C4B37198   8.882  41.347   7.653
 7810POPC   NC337199  15.151  29.888   9.453
 7810POPC   PO437200  15.133  29.963   9.153
 7810POPC   GL137201  15.158  29.883   8.853
 7810POPC   GL237202  15.287  29.924   8.853
 7810POPC   C1A37203  15.229  29.898   8.553
 7810POPC   D2A37204  15.214  29.940   8.253
 7810POPC   C3A37205  15.192  29.946   7.953
 7810POPC   C4A37206  15.194  29.940   7.653
 7810POPC   C1B37207  15.465  29.944   8.553
 7810POPC   C2B37208  15.429  29.893   8.253
 7810POPC   C3B37209  15.429  29.916   7.953
 7810POPC   C4B37210  15.395  29.916   7.653
 7811POPC   NC337211  15.997  26.794   9.453
 7811POPC   PO437212  15.928  26.867   9.153
 7811POPC   GL137213  15.929  26.845   8.853
 7811POPC   GL237214  16.012  26.661   8.853
 7811POPC   C1A37215  15.928  26.810   8.553
 7811POPC   D2A37216  15.982  26.817   8.253
 7811POPC   C3A37217  15.925  26.866   7.953
 7811POPC   C4A37218  15.990  26.826   7.653
 7811POPC   C1B37219  15.997  26.582   8.553
 7811POPC   C2B37220  15.990  26.589   8.253
 7811POPC   C3B37221  15.944  26.523   7.953
 7811POPC   C4B37222  15.946  26.534   7.653
 7812POPC   NC337223   2.027  36.118   9.453
 7812POPC   PO437224   1.984  36.143   9.153
 7812POPC   GL137225   2.021  36.123   8.853
 7812POPC   GL237226   1.890  36.050   8.853
 7812POPC   C1A37227   2.038  36.135   8.553
 7812POPC   D2A37228   2.015  36.122   8.253
 7812POPC   C3A37229   1.950  36.163   7.953
 7812POPC   C4A37230   1.989  36.087   7.653
 7812POPC   C1B37231   1.767  35.923   8.553
 7812POPC   C2B37232   1.816  35.996   8.253
 7812POPC   C3B37233   1.808  35.974   7.953
 7812POPC   C4B37234   1.780  35.991   7.653
 7813POPC   NC337235  33.031  26.013   9.453
 7813POPC   PO437236  33.058  26.036   9.153
 7813POPC   GL137237  33.053  26.017   8.853
 7813POPC   GL237238  32.856  26.030   8.853
 7813POPC   C1A37239  32.997  26.046   8.553
 7813POPC   D2A37240  33.014  26.086   8.253
 7813POPC   C3A37241  33.050  26.004   7.953
 7813POPC   C4A37242  33.040  25.995   7.653
 7813POPC   C1B37243  32.728  26.024   8.553
 7813POPC   C2B37244  32.776  26.032   8.253
 7813POPC   C3B37245  32.777  26.046   7.953
 7813POPC   C4B37246  32.810  25.978   7.653
 7814POPC   NC337247  21.362  31.430   9.453
 7814POPC   PO437248  21.395  31.443   9.153
 7814POPC   GL137249  21.365  31.496   8.853
 7814POPC   GL237250  21.294  31.330   8.853
 7814POPC   C1A37251  21.339  31.500   8.553
 7814POPC   D2A37252  21.351  31.441   8.253
 7814POPC   C3A37253  21.359  31.457   7.953
 7814POPC   C4A37254  21.403  31.479   7.653
 7814POPC   C1B37255  21.244  31.246   8.553
 7814POPC   C2B37256  21.241  31.280   8.253
 7814POPC   C3B37257  21.200  31.279   7.953
 7814POPC   C4B37258  21.239  31.275   7.653
 7815POPC   NC337259  18.282   4.316   9.453
 7815POPC   PO437260  18.271   4.331   9.153
 7815POPC   GL137261  18.243   4.349   8.853
 7815POPC   GL237262  18.227   4.415   8.853
 7815POPC   C1A37263  18.321   4.288   8.553
 7815POPC   D2A37264  18.322   4.353   8.253
 7815POPC   C3A37265  18.280   4.289   7.953
 7815POPC   C4A37266  18.233   4.331   7.653
 7815POPC   C1B37267  18.130   4.506   8.553
 7815POPC   C2B37268  18.195   4.496   8.253
 7815POPC   C3B37269  18.202   4.560   7.953
 7815POPC   C4B37270  18.129   4.538   7.653
 7816POPC   NC337271  23.746  38.474   9.453
 7816POPC   PO437272  23.713  38.491   9.153
 7816POPC   GL137273  23.701  38.460   8.853
 7816POPC   GL237274  23.796  38.474   8.853
 7816POPC   C1A37275  23.746  38.418   8.553
 7816POPC   D2A37276  23.750  38.491   8.253
 7816POPC   C3A37277  23.707  38.410   7.953
 7816POPC   C4A37278  23.695  38.499   7.653
 7816POPC   C1B37279  23.891  38.596   8.553
 7816POPC   C2B37280  23.950  38.614   8.253
 7816POPC   C3B37281  23.915  38.628   7.953
 7816POPC   C4B37282  23.975  38.567   7.653
 7817POPC   NC337283  42.321  37.698   9.453
 7817POPC   PO437284  42.376  37.728   9.153
 7817POPC   GL137285  42.353  37.719   8.853
 7817POPC   GL237286  42.353  37.558   8.853
 7817POPC   C1A37287  42.299  37.701   8.553
 7817POPC   D2A37288  42.315  37.653   8.253
 7817POPC   C3A37289  42.374  37.652   7.953
 7817POPC   C4A37290  42.368  37.686   7.653
 7817POPC   C1B37291  42.432  37.411   8.553
 7817POPC   C2B37292  42.477  37.407   8.253
 7817POPC   C3B37293  42.404  37.481   7.953
 7817POPC   C4B37294  42.431  37.412   7.653
 7818POPC   NC337295  33.035  20.660   9.453
 7818POPC   PO437296  33.031  20.624   9.153
 7818POPC   GL137297  32.981  20.572   8.853
 7818POPC   GL237298  32.943  20.588   8.853
 7818POPC   C1A37299  33.002  20.641   8.553
 7818POPC   D2A37300  32.987  20.649   8.253
 7818POPC   C3A37301  33.050  20.630   7.953
 7818POPC   C4A37302  33.062  20.629   7.653
 7818POPC   C1B37303  32.808  20.506   8.553
 7818POPC   C2B37304  32.804  20.496   8.253
 7818POPC   C3B37305  32.817  20.525   7.953
 7818POPC   C4B37306  32.850  20.518   7.653
 7819POPC   NC337307  15.956  10.486   9.453
 7819POPC   PO437308  15.918  10.485   9.153
 7819POPC   GL137309  15.936  10.479   8.853
 7819POPC   GL237310  16.081  10.577   8.853
 7819POPC   C1A37311  15.977  10.507   8.553
 7819POPC   D2A37312  16.000  10.497   8.253
 7819POPC   C3A37313  15.985  10.561   7.953
 7819POPC   C4A37314  16.001  10.526   7.653
 7819POPC   C1B37315  16.140  10.688   8.553
 7819POPC   C2B37316  16.158  10.639   8.253
 7819POPC   C3B37317  16.177  10.668   7.953
 7819POPC   C4B37318  16.157  10.625   7.653
 7820POPC   NC337319  41.574  31.494   9.453
 7820POPC   PO437320  41.545  31.503   9.153
 7820POPC   GL137321  41.531  31.434   8.853
 7820POPC   GL237322  41.570  31.609   8.853
 7820POPC   C1A37323  41.515  31.480   8.553
 7820POPC   D2A37324  41.573  31.478   8.253
 7820POPC   C3A37325  41.608  31.483   7.953
 7820POPC   C4A37326  41.529  31.475   7.653
 7820POPC   C1B37327  41.542  31.694   8.553
 7820POPC   C2B37328  41.480  31.672   8.253
 7820POPC   C3B37329  41.512  31.703   7.953
 7820POPC   C4B37330  41.479  31.674   7.653
 7821POPC   NC337331  23.702  40.039   9.453
 7821POPC   PO437332  23.715  39.963   9.153
 7821POPC   GL137333  23.733  39.975   8.853
 7821POPC   GL237334  23.673  40.134   8.853
 7821POPC   C1A37335  23.728  39.962   8.553
 7821POPC   D2A37336  23.744  39.994   8.253
 7821POPC   C3A37337  23.743  39.995   7.953
 7821POPC   C4A37338  23.692  40.052   7.653
 7821POPC   C1B37339  23.541  40.239   8.553
 7821POPC   C2B37340  23.567  40.162   8.253
 7821POPC   C3B37341  23.593  40.197   7.953
 7821POPC   C4B37342  23.600  40.237   7.653
 7822POPC   NC337343  11.342  42.358   9.453
 7822POPC   PO437344  11.348  42.383   9.153
 7822POPC   GL137345  11.254  42.332   8.853
 7822POPC   GL237346  11.392  42.387   8.853
 7822POPC   C1A37347  11.302  42.343   8.553
 7822POPC   D2A37348  11.320  42.320   8.253
 7822POPC   C3A37349  11.288  42.317   7.953
 7822POPC   C4A37350  11.341  42.311   7.653
 7822POPC   C1B37351  11.505  42.414   8.553
 7822POPC   C2B37352  11.527  42.417   8.253
 7822POPC   C3B37353  11.514  42.484   7.953
 7822POPC   C4B37354  11.514  42.465   7.653
 7823POPC   NC337355  33.071  12.049   9.453
 7823POPC   PO437356  33.027  12.040   9.153
 7823POPC   GL137357  33.067  12.121   8.853
 7823POPC   GL237358  33.089  11.957   8.853
 7823POPC   C1A37359  33.059  12.112   8.553
 7823POPC   D2A37360  33.028  12.063   8.253
 7823POPC   C3A37361  33.037  12.039   7.953
 7823POPC   C4A37362  33.074  12.092   7.653
 7823POPC   C1B37363  33.173  11.880   8.553
 7823POPC   C2B37364  33.214  11.874   8.253
 7823POPC   C3B37365  33.207  11.881   7.953
 7823POPC   C4B37366  33.233  11.964   7.653
 7824POPC   NC337367   3.525  44.672   9.453
 7824POPC   PO437368   3.573  44.677   9.153
 7824POPC   GL137369   3.521  44.708   8.853
 7824POPC   GL237370   3.710  44.663   8.853
 7824POPC   C1A37371   3.519  44.688   8.553
 7824POPC   D2A37372   3.523  44.626   8.253
 7824POPC   C3A37373   3.577  44.710   7.953
 7824POPC   C4A37374   3.537  44.690   7.653
 7824POPC   C1B37375   3.813  44.706   8.553
 7824POPC   C2B37376   3.818  44.786   8.253
 7824POPC   C3B37377   3.821  44.748   7.953
 7824POPC   C4B37378   3.823  44.771   7.653
 7825POPC   NC337379  30.712  34.591   9.453
 7825POPC   PO437380  30.669  34.582   9.153
 7825POPC   GL137381  30.672  34.562   8.853
 7825POPC   GL237382  30.601  34.464   8.853
 7825POPC   C1A37383  30.733  34.563   8.553
 7825POPC   D2A37384  30.697  34.538   8.253
 7825POPC   C3A37385  30.729  34.619   7.953
 7825POPC   C4A37386  30.674  34.574   7.653
 7825POPC   C1B37387  30.509  34.376   8.553
 7825POPC   C2B37388  30.565  34.379   8.253
 7825POPC   C3B37389  30.499  34.391   7.953
 7825POPC   C4B37390  30.500  34.386   7.653
 7826POPC   NC337391  28.407   5.082   9.453
 7826POPC   PO437392  28.393   5.066   9.153
 7826POPC   GL137393  28.378   5.138   8.853
 7826POPC   GL237394  28.309   4.976   8.853
 7826POPC   C1A37395  28.410   5.078   8.553
 7826POPC   D2A37396  28.343   5.061   8.253
 7826POPC   C3A37397  28.336   5.097   7.953
 7826POPC   C4A37398  28.367   5.098   7.653
 7826POPC   C1B37399  28.186   4.913   8.553
 7826POPC   C2B37400  28.162   4.912   8.253
 7826POPC   C3B37401  28.132   4.895   7.953
 7826POPC   C4B37402  28.185   4.919   7.653
 7827POPC   NC337403  17.536   5.052   9.453
 7827POPC   PO437404  17.490   5.079   9.153
 7827POPC   GL137405  17.496   5.089   8.853
 7827POPC   GL237406  17.494   4.972   8.853
 7827POPC   C1A37407  17.504   5.132   8.553
 7827POPC   D2A37408  17.521   5.047   8.253
 7827POPC   C3A37409  17.468   5.084   7.953
 7827POPC   C4A37410  17.548   5.064   7.653
 7827POPC   C1B37411  17.353   4.912   8.553
 7827POPC   C2B37412  17.409   4.822   8.253
 7827POPC   C3B37413  17.393   4.838   7.953
 7827POPC   C4B37414  17.395   4.903   7.653
 7828POPC   NC337415   1.186  36.951   9.453
 7828POPC   PO437416   1.205  36.914   9.153
 7828POPC   GL137417   1.229  36.914   8.853
 7828POPC   GL237418   1.288  36.841   8.853
 7828POPC   C1A37419   1.185  36.916   8.553
 7828POPC   D2A37420   1.168  36.857   8.253
 7828POPC   C3A37421   1.262  36.874   7.953
 7828POPC   C4A37422   1.172  36.891   7.653
 7828POPC   C1B37423   1.339  36.723   8.553
 7828POPC   C2B37424   1.370  36.691   8.253
 7828POPC   C3B37425   1.334  36.694   7.953
 7828POPC   C4B37426   1.376  36.678   7.653
 7829POPC   NC337427   8.213  43.127   9.453
 7829POPC   PO437428   8.234  43.159   9.153
 7829POPC   GL137429   8.206  43.067   8.853
 7829POPC   GL237430   8.114  42.991   8.853
 7829POPC   C1A37431   8.206  43.151   8.553
 7829POPC   D2A37432   8.233  43.082   8.253
 7829POPC   C3A37433   8.240  43.078   7.953
 7829POPC   C4A37434   8.205  43.078   7.653
 7829POPC   C1B37435   7.999  42.928   8.553
 7829POPC   C2B37436   8.000  42.988   8.253
 7829POPC   C3B37437   8.039  42.951   7.953
 7829POPC   C4B37438   8.013  42.945   7.653
 7830POPC   NC337439  43.871  24.527   9.453
 7830POPC   PO437440  43.855  24.461   9.153
 7830POPC   GL137441  43.917  24.446   8.853
 7830POPC   GL237442  43.896  24.400   8.853
 7830POPC   C1A37443  43.919  24.459   8.553
 7830POPC   D2A37444  43.867  24.531   8.253
 7830POPC   C3A37445  43.928  24.522   7.953
 7830POPC   C4A37446  43.921  24.450   7.653
 7830POPC   C1B37447  43.920  24.226   8.553
 7830POPC   C2B37448  43.865  24.222   8.253
 7830POPC   C3B37449  43.872  24.231   7.953
 7830POPC   C4B37450  43.943  24.242   7.653
 7831POPC   NC337451  29.110  37.633   9.453
 7831POPC   PO437452  29.185  37.633   9.153
 7831POPC   GL137453  29.129  37.675   8.853
 7831POPC   GL237454  29.183  37.778   8.853
 7831POPC   C1A37455  29.100  37.644   8.553
 7831POPC   D2A37456  29.130  37.721   8.253
 7831POPC   C3A37457  29.101  37.724   7.953
 7831POPC   C4A37458  29.156  37.647   7.653
 7831POPC   C1B37459  29.208  37.924   8.553
 7831POPC   C2B37460  29.214  37.867   8.253
 7831POPC   C3B37461  29.229  37.885   7.953
 7831POPC   C4B37462  29.281  37.909   7.653
 7832POPC   NC337463   4.333  12.037   9.453
 7832POPC   PO437464   4.332  12.077   9.153
 7832POPC   GL137465   4.337  12.088   8.853
 7832POPC   GL237466   4.347  11.926   8.853
 7832POPC   C1A37467   4.322  12.117   8.553
 7832POPC   D2A37468   4.268  12.117   8.253
 7832POPC   C3A37469   4.322  12.085   7.953
 7832POPC   C4A37470   4.292  12.111   7.653
 7832POPC   C1B37471   4.435  11.808   8.553
 7832POPC   C2B37472   4.394  11.870   8.253
 7832POPC   C3B37473   4.456  11.869   7.953
 7832POPC   C4B37474   4.470  11.812   7.653
 7833POPC   NC337475   0.486   4.365   9.453
 7833POPC   PO437476   0.441   4.287   9.153
 7833POPC   GL137477   0.422   4.336   8.853
 7833POPC   GL237478   0.425   4.435   8.853
 7833POPC   C1A37479   0.419   4.352   8.553
 7833POPC   D2A37480   0.390   4.276   8.253
 7833POPC   C3A37481   0.458   4.277   7.953
 7833POPC   C4A37482   0.431   4.360   7.653
 7833POPC   C1B37483   0.378   4.583   8.553
 7833POPC   C2B37484   0.385   4.542   8.253
 7833POPC   C3B37485   0.366   4.594   7.953
 7833POPC   C4B37486   0.380   4.521   7.653
 7834POPC   NC337487  28.366  25.288   9.453
 7834POPC   PO437488  28.368  25.304   9.153
 7834POPC   GL137489  28.392  25.290   8.853
 7834POPC   GL237490  28.474  25.264   8.853
 7834POPC   C1A37491  28.388  25.283   8.553
 7834POPC   D2A37492  28.322  25.306   8.253
 7834POPC   C3A37493  28.393  25.304   7.953
 7834POPC   C4A37494  28.331  25.279   7.653
 7834POPC   C1B37495  28.649  25.323   8.553
 7834POPC   C2B37496  28.607  25.311   8.253
 7834POPC   C3B37497  28.656  25.298   7.953
 7834POPC   C4B37498  28.580  25.235   7.653
 7835POPC   NC337499  28.353  44.627   9.453
 7835POPC   PO437500  28.349  44.633   9.153
 7835POPC   GL137501  28.390  44.627   8.853
 7835POPC   GL237502  28.323  44.568   8.853
 7835POPC   C1A37503  28.376  44.680   8.553
 7835POPC   D2A37504  28.374  44.674   8.253
 7835POPC   C3A37505  28.383  44.706   7.953
 7835POPC   C4A37506  28.398  44.693   7.653
 7835POPC   C1B37507  28.249  44.438   8.553
 7835POPC   C2B37508  28.201  44.481   8.253
 7835POPC   C3B37509  28.262  44.458   7.953
 7835POPC   C4B37510  28.285  44.479   7.653
 7836POPC   NC337511  31.502  20.626   9.453
 7836POPC   PO437512  31.512  20.607   9.153
 7836POPC   GL137513  31.514  20.567   8.853
 7836POPC   GL237514  31.579  20.622   8.853
 7836POPC   C1A37515  31.430  20.601   8.553
 7836POPC   D2A37516  31.474  20.568   8.253
 7836POPC   C3A37517  31.515  20.619   7.953
 7836POPC   C4A37518  31.482  20.567   7.653
 7836POPC   C1B37519  31.742  20.580   8.553
 7836POPC   C2B37520  31.708  20.572   8.253
 7836POPC   C3B37521  31.763  20.575   7.953
 7836POPC   C4B37522  31.734  20.539   7.653
 7837POPC   NC337523  19.858  37.709   9.453
 7837POPC   PO437524  19.823  37.679   9.153
 7837POPC   GL137525  19.813  37.659   8.853
 7837POPC   GL237526  19.689  37.674   8.853
 7837POPC   C1A37527  19.853  37.668   8.553
 7837POPC   D2A37528  19.856  37.729   8.253
 7837POPC   C3A37529  19.803  37.659   7.953
 7837POPC   C4A37530  19.876  37.696   7.653
 7837POPC   C1B37531  19.595  37.578   8.553
 7837POPC   C2B37532  19.648  37.625   8.253
 7837POPC   C3B37533  19.585  37.549   7.953
 7837POPC   C4B37534  19.620  37.548   7.653
 7838POPC   NC337535  29.123  32.203   9.453
 7838POPC   PO437536  29.123  32.295   9.153
 7838POPC   GL137537  29.174  32.247   8.853
 7838POPC   GL237538  29.029  32.280   8.853
 7838POPC   C1A37539  29.125  32.232   8.553
 7838POPC   D2A37540  29.184  32.219   8.253
 7838POPC   C3A37541  29.099  32.236   7.953
 7838POPC   C4A37542  29.139  32.244   7.653
 7838POPC   C1B37543  28.949  32.378   8.553
 7838POPC   C2B37544  28.895  32.318   8.253
 7838POPC   C3B37545  28.898  32.392   7.953
 7838POPC   C4B37546  28.912  32.345   7.653
 7839POPC   NC337547  33.793  44.674   9.453
 7839POPC   PO437548  33.818  44.688   9.153
 7839POPC   GL137549  33.762  44.701   8.853
 7839POPC   GL237550  33.738  44.743   8.853
 7839POPC   C1A37551  33.808  44.674   8.553
 7839POPC   D2A37552  33.842  44.671   8.253
 7839POPC   C3A37553  33.785  44.632   7.953
 7839POPC   C4A37554  33.805  44.635   7.653
 7839POPC   C1B37555  33.741  44.919   8.553
 7839POPC   C2B37556  33.790  44.869   8.253
 7839POPC   C3B37557  33.774  44.932   7.953
 7839POPC   C4B37558  33.812  44.944   7.653
 7840POPC   NC337559   2.747  41.511   9.453
 7840POPC   PO437560   2.732  41.523   9.153
 7840POPC   GL137561   2.763  41.511   8.853
 7840POPC   GL237562   2.784  41.695   8.853
 7840POPC   C1A37563   2.797  41.510   8.553
 7840POPC   D2A37564   2.760  41.608   8.253
 7840POPC   C3A37565   2.740  41.574   7.953
 7840POPC   C4A37566   2.771  41.510   7.653
 7840POPC   C1B37567   2.849  41.832   8.553
 7840POPC   C2B37568   2.810  41.827   8.253
 7840POPC   C3B37569   2.868  41.811   7.953
 7840POPC   C4B37570   2.869  41.764   7.653
 7841POPC   NC337571  14.380  29.135   9.453
 7841POPC   PO437572  14.443  29.112   9.153
 7841POPC   GL137573  14.359  29.143   8.853
 7841POPC   GL237574  14.471  28.977   8.853
 7841POPC   C1A37575  14.401  29.139   8.553
 7841POPC   D2A37576  14.377  29.164   8.253
 7841POPC   C3A37577  14.362  29.163   7.953
 7841POPC   C4A37578  14.432  29.121   7.653
 7841POPC   C1B37579  14.460  28.953   8.553
 7841POPC   C2B37580  14.507  28.927   8.253
 7841POPC   C3B37581  14.482  28.947   7.953
 7841POPC   C4B37582  14.518  28.914   7.653
 7842POPC   NC337583  23.682  39.277   9.453
 7842POPC   PO437584  23.690  39.253   9.153
 7842POPC   GL137585  23.757  39.239   8.853
 7842POPC   GL237586  23.754  39.175   8.853
 7842POPC   C1A37587  23.748  39.190   8.553
 7842POPC   D2A37588  23.704  39.210   8.253
 7842POPC   C3A37589  23.757  39.226   7.953
 7842POPC   C4A37590  23.749  39.231   7.653
 7842POPC   C1B37591  23.871  39.033   8.553
 7842POPC   C2B37592  23.881  39.003   8.253
 7842POPC   C3B37593  23.924  39.037   7.953
 7842POPC   C4B37594  23.868  39.062   7.653
 7843POPC   NC337595  44.709  23.694   9.453
 7843POPC   PO437596  44.628  23.680   9.153
 7843POPC   GL137597  44.671  23.695   8.853
 7843POPC   GL237598  44.524  23.749   8.853
 7843POPC   C1A37599  44.637  23.752   8.553
 7843POPC   D2A37600  44.617  23.713   8.253
 7843POPC   C3A37601  44.702  23.704   7.953
 7843POPC   C4A37602  44.650  23.750   7.653
 7843POPC   C1B37603  44.474  23.822   8.553
 7843POPC   C2B37604  44.415  23.903   8.253
 7843POPC   C3B37605  44.455  23.827   7.953
 7843POPC   C4B37606  44.471  23.900   7.653
 7844POPC   NC337607  15.998  33.802   9.453
 7844POPC   PO437608  15.990  33.789   9.153
 7844POPC   GL137609  15.913  33.760   8.853
 7844POPC   GL237610  16.078  33.864   8.853
 7844POPC   C1A37611  15.949  33.813   8.553
 7844POPC   D2A37612  15.961  33.847   8.253
 7844POPC   C3A37613  15.956  33.850   7.953
 7844POPC   C4A37614  15.972  33.758   7.653
 7844POPC   C1B37615  16.229  33.862   8.553
 7844POPC   C2B37616  16.247  33.833   8.253
 7844POPC   C3B37617  16.193  33.851   7.953
 7844POPC   C4B37618  16.227  33.851   7.653
 7845POPC   NC337619  20.621   0.454   9.453
 7845POPC   PO437620  20.576   0.482   9.153
 7845POPC   GL137621  20.564   0.405   8.853
 7845POPC   GL237622  20.531   0.521   8.853
 7845POPC   C1A37623  20.645   0.480   8.553
 7845POPC   D2A37624  20.575   0.436   8.253
 7845POPC   C3A37625  20.621   0.411   7.953
 7845POPC   C4A37626  20.589   0.405   7.653
 7845POPC   C1B37627  20.408   0.511   8.553
 7845POPC   C2B37628  20.411   0.543   8.253
 7845POPC   C3B37629  20.377   0.484   7.953
 7845POPC   C4B37630  20.385   0.575   7.653
 7846POPC   NC337631  12.095  17.556   9.453
 7846POPC   PO437632  12.112  17.465   9.153
 7846POPC   GL137633  12.047  17.483   8.853
 7846POPC   GL237634  11.930  17.530   8.853
 7846POPC   C1A37635  12.068  17.464   8.553
 7846POPC   D2A37636  12.075  17.511   8.253
 7846POPC   C3A37637  12.084  17.531   7.953
 7846POPC   C4A37638  12.068  17.505   7.653
 7846POPC   C1B37639  11.825  17.599   8.553
 7846POPC   C2B37640  11.857  17.514   8.253
 7846POPC   C3B37641  11.836  17.598   7.953
 7846POPC   C4B37642  11.855  17.544   7.653
 7847POPC   NC337643  11.278  14.359   9.453
 7847POPC   PO437644  11.324  14.365   9.153
 7847POPC   GL137645  11.321  14.415   8.853
 7847POPC   GL237646  11.211  14.415   8.853
 7847POPC   C1A37647  11.257  14.365   8.553
 7847POPC   D2A37648  11.323  14.430   8.253
 7847POPC   C3A37649  11.273  14.382   7.953
 7847POPC   C4A37650  11.297  14.382   7.653
 7847POPC   C1B37651  11.042  14.333   8.553
 7847POPC   C2B37652  11.069  14.350   8.253
 7847POPC   C3B37653  11.023  14.405   7.953
 7847POPC   C4B37654  11.034  14.360   7.653
 7848POPC   NC337655  29.178  36.144   9.453
 7848POPC   PO437656  29.131  36.150   9.153
 7848POPC   GL137657  29.131  36.137   8.853
 7848POPC   GL237658  29.133  36.230   8.853
 7848POPC   C1A37659  29.108  36.141   8.553
 7848POPC   D2A37660  29.161  36.156   8.253
 7848POPC   C3A37661  29.175  36.085   7.953
 7848POPC   C4A37662  29.150  36.152   7.653
 7848POPC   C1B37663  29.135  36.329   8.553
 7848POPC   C2B37664  29.183  36.401   8.253
 7848POPC   C3B37665  29.126  36.406   7.953
 7848POPC   C4B37666  29.119  36.373   7.653
 7849POPC   NC337667  26.078  38.433   9.453
 7849POPC   PO437668  26.060  38.410   9.153
 7849POPC   GL137669  26.041  38.493   8.853
 7849POPC   GL237670  26.201  38.406   8.853
 7849POPC   C1A37671  26.081  38.466   8.553
 7849POPC   D2A37672  26.002  38.484   8.253
 7849POPC   C3A37673  26.017  38.411   7.953
 7849POPC   C4A37674  25.999  38.493   7.653
 7849POPC   C1B37675  26.276  38.349   8.553
 7849POPC   C2B37676  26.294  38.346   8.253
 7849POPC   C3B37677  26.283  38.370   7.953
 7849POPC   C4B37678  26.260  38.428   7.653
 7850POPC   NC337679   3.553   4.360   9.453
 7850POPC   PO437680   3.523   4.354   9.153
 7850POPC   GL137681   3.585   4.316   8.853
 7850POPC   GL237682   3.437   4.388   8.853
 7850POPC   C1A37683   3.529   4.360   8.553
 7850POPC   D2A37684   3.566   4.342   8.253
 7850POPC   C3A37685   3.581   4.319   7.953
 7850POPC   C4A37686   3.539   4.309   7.653
 7850POPC   C1B37687   3.381   4.511   8.553
 7850POPC   C2B37688   3.415   4.564   8.253
 7850POPC   C3B37689   3.419   4.575   7.953
 7850POPC   C4B37690   3.431   4.528   7.653
 7851POPC   NC337691  18.310  13.667   9.453
 7851POPC   PO437692  18.289  13.662   9.153
 7851POPC   GL137693  18.302  13.661   8.853
 7851POPC   GL237694  18.397  13.713   8.853
 7851POPC   C1A37695  18.278  13.621   8.553
 7851POPC   D2A37696  18.311  13.618   8.253
 7851POPC   C3A37697  18.297  13.652   7.953
 7851POPC   C4A37698  18.310  13.601   7.653
 7851POPC   C1B37699  18.467  13.873   8.553
 7851POPC   C2B37700  18.433  13.829   8.253
 7851POPC   C3B37701  18.385  13.836   7.953
 7851POPC   C4B37702  18.388  13.835   7.653
 7852POPC   NC337703  42.291   5.102   9.453
 7852POPC   PO437704  42.344   5.075   9.153
 7852POPC   GL137705  42.373   5.065   8.853
 7852POPC   GL237706  42.206   5.071   8.853
 7852POPC   C1A37707  42.354   5.113   8.553
 7852POPC   D2A37708  42.374   5.107   8.253
 7852POPC   C3A37709  42.301   5.143   7.953
 7852POPC   C4A37710  42.379   5.061   7.653
 7852POPC   C1B37711  42.122   5.007   8.553
 7852POPC   C2B37712  42.146   4.952   8.253
 7852POPC   C3B37713  42.137   4.971   7.953
 7852POPC   C4B37714  42.131   4.952   7.653
 7853POPC   NC337715  19.066   9.768   9.453
 7853POPC   PO437716  19.033   9.743   9.153
 7853POPC   GL137717  19.035   9.779   8.853
 7853POPC   GL237718  19.193   9.692   8.853
 7853POPC   C1A37719  19.097   9.763   8.553
 7853POPC   D2A37720  19.014   9.788   8.253
 7853POPC   C3A37721  19.058   9.768   7.953
 7853POPC   C4A37722  19.010   9.730   7.653
 7853POPC   C1B37723  19.270   9.611   8.553
 7853POPC   C2B37724  19.284   9.570   8.253
 7853POPC   C3B37725  19.199   9.540   7.953
 7853POPC   C4B37726  19.220   9.616   7.653
 7854POPC   NC337727  30.664   3.581   9.453
 7854POPC   PO437728  30.647   3.562   9.153
 7854POPC   GL137729  30.658   3.522   8.853
 7854POPC   GL237730  30.662   3.621   8.853
 7854POPC   C1A37731  30.709   3.516   8.553
 7854POPC   D2A37732  30.692   3.577   8.253
 7854POPC   C3A37733  30.694   3.580   7.953
 7854POPC   C4A37734  30.738   3.535   7.653
 7854POPC   C1B37735  30.761   3.798   8.553
 7854POPC   C2B37736  30.678   3.800   8.253
 7854POPC   C3B37737  30.733   3.775   7.953
 7854POPC   C4B37738  30.721   3.834   7.653
 7855POPC   NC337739  13.670  10.542   9.453
 7855POPC   PO437740  13.665  10.550   9.153
 7855POPC   GL137741  13.618  10.565   8.853
 7855POPC   GL237742  13.747  10.420   8.853
 7855POPC   C1A37743  13.665  10.498   8.553
 7855POPC   D2A37744  13.618  10.532   8.253
 7855POPC   C3A37745  13.637  10.483   7.953
 7855POPC   C4A37746  13.578  10.569   7.653
 7855POPC   C1B37747  13.796  10.404   8.553
 7855POPC   C2B37748  13.782  10.381   8.253
 7855POPC   C3B37749  13.879  10.358   7.953
 7855POPC   C4B37750  13.857  10.389   7.653
 7856POPC   NC337751  42.334  15.176   9.453
 7856POPC   PO437752  42.313  15.191   9.153
 7856POPC   GL137753  42.302  15.166   8.853
 7856POPC   GL237754  42.424  15.102   8.853
 7856POPC   C1A37755  42.318  15.216   8.553
 7856POPC   D2A37756  42.355  15.179   8.253
 7856POPC   C3A37757  42.384  15.175   7.953
 7856POPC   C4A37758  42.349  15.163   7.653
 7856POPC   C1B37759  42.566  15.153   8.553
 7856POPC   C2B37760  42.599  15.104   8.253
 7856POPC   C3B37761  42.568  15.139   7.953
 7856POPC   C4B37762  42.563  15.145   7.653
 7857POPC   NC337763   1.171  21.391   9.453
 7857POPC   PO437764   1.213  21.356   9.153
 7857POPC   GL137765   1.196  21.430   8.853
 7857POPC   GL237766   1.135  21.416   8.853
 7857POPC   C1A37767   1.256  21.345   8.553
 7857POPC   D2A37768   1.207  21.424   8.253
 7857POPC   C3A37769   1.166  21.365   7.953
 7857POPC   C4A37770   1.240  21.349   7.653
 7857POPC   C1B37771   0.965  21.494   8.553
 7857POPC   C2B37772   0.991  21.447   8.253
 7857POPC   C3B37773   0.980  21.510   7.953
 7857POPC   C4B37774   0.967  21.513   7.653
 7858POPC   NC337775   5.044  29.954   9.453
 7858POPC   PO437776   5.060  29.919   9.153
 7858POPC   GL137777   5.076  29.965   8.853
 7858POPC   GL237778   5.119  29.790   8.853
 7858POPC   C1A37779   5.052  29.943   8.553
 7858POPC   D2A37780   5.111  29.898   8.253
 7858POPC   C3A37781   5.077  29.905   7.953
 7858POPC   C4A37782   5.134  29.907   7.653
 7858POPC   C1B37783   5.205  29.681   8.553
 7858POPC   C2B37784   5.218  29.740   8.253
 7858POPC   C3B37785   5.173  29.658   7.953
 7858POPC   C4B37786   5.212  29.738   7.653
 7859POPC   NC337787  36.933  44.705   9.453
 7859POPC   PO437788  36.865  44.702   9.153
 7859POPC   GL137789  36.886  44.697   8.853
 7859POPC   GL237790  36.767  44.682   8.853
 7859POPC   C1A37791  36.871  44.663   8.553
 7859POPC   D2A37792  36.880  44.691   8.253
 7859POPC   C3A37793  36.920  44.643   7.953
 7859POPC   C4A37794  36.937  44.700   7.653
 7859POPC   C1B37795  36.654  44.754   8.553
 7859POPC   C2B37796  36.678  44.761   8.253
 7859POPC   C3B37797  36.649  44.764   7.953
 7859POPC   C4B37798  36.648  44.791   7.653
 7860POPC   NC337799  37.702   7.387   9.453
 7860POPC   PO437800  37.691   7.431   9.153
 7860POPC   GL137801  37.689   7.382   8.853
 7860POPC   GL237802  37.673   7.584   8.853
 7860POPC   C1A37803  37.664   7.392   8.553
 7860POPC   D2A37804  37.636   7.431   8.253
 7860POPC   C3A37805  37.631   7.415   7.953
 7860POPC   C4A37806  37.695   7.456   7.653
 7860POPC   C1B37807  37.631   7.637   8.553
 7860POPC   C2B37808  37.681   7.640   8.253
 7860POPC   C3B37809  37.662   7.688   7.953
 7860POPC   C4B37810  37.645   7.713   7.653
 7861POPC   NC337811  13.663  34.619   9.453
 7861POPC   PO437812  13.628  34.582   9.153
 7861POPC   GL137813  13.629  34.567   8.853
 7861POPC   GL237814  13.615  34.416   8.853
 7861POPC   C1A37815  13.657  34.623   8.553
 7861POPC   D2A37816  13.657  34.554   8.253
 7861POPC   C3A37817  13.614  34.571   7.953
 7861POPC   C4A37818  13.630  34.608   7.653
 7861POPC   C1B37819  13.657  34.329   8.553
 7861POPC   C2B37820  13.682  34.310   8.253
 7861POPC   C3B37821  13.647  34.327   7.953
 7861POPC   C4B37822  13.642  34.334   7.653
 7862POPC   NC337823  16.761  32.995   9.453
 7862POPC   PO437824  16.711  33.013   9.153
 7862POPC   GL137825  16.750  33.070   8.853
 7862POPC   GL237826  16.822  32.970   8.853
 7862POPC   C1A37827  16.710  32.988   8.553
 7862POPC   D2A37828  16.683  33.031   8.253
 7862POPC   C3A37829  16.737  33.034   7.953
 7862POPC   C4A37830  16.690  33.024   7.653
 7862POPC   C1B37831  16.952  32.956   8.553
 7862POPC   C2B37832  16.940  32.886   8.253
 7862POPC   C3B37833  16.988  32.885   7.953
 7862POPC   C4B37834  16.992  32.893   7.653
 7863POPC   NC337835  39.213  29.152   9.453
 7863POPC   PO437836  39.209  29.161   9.153
 7863POPC   GL137837  39.220  29.147   8.853
 7863POPC   GL237838  39.108  29.229   8.853
 7863POPC   C1A37839  39.215  29.102   8.553
 7863POPC   D2A37840  39.266  29.104   8.253
 7863POPC   C3A37841  39.252  29.119   7.953
 7863POPC   C4A37842  39.213  29.157   7.653
 7863POPC   C1B37843  39.077  29.330   8.553
 7863POPC   C2B37844  39.035  29.377   8.253
 7863POPC   C3B37845  39.090  29.345   7.953
 7863POPC   C4B37846  39.079  29.367   7.653
 7864POPC   NC337847  19.032  17.482   9.453
 7864POPC   PO437848  19.103  17.540   9.153
 7864POPC   GL137849  19.097  17.504   8.853
 7864POPC   GL237850  19.119  17.609   8.853
 7864POPC   C1A37851  19.093  17.510   8.553
 7864POPC   D2A37852  19.080  17.529   8.253
 7864POPC   C3A37853  19.059  17.502   7.953
 7864POPC   C4A37854  19.086  17.518   7.653
 7864POPC   C1B37855  19.053  17.709   8.553
 7864POPC   C2B37856  19.108  17.709   8.253
 7864POPC   C3B37857  19.109  17.741   7.953
 7864POPC   C4B37858  19.127  17.725   7.653
 7865POPC   NC337859  40.793  30.731   9.453
 7865POPC   PO437860  40.746  30.723   9.153
 7865POPC   GL137861  40.740  30.739   8.853
 7865POPC   GL237862  40.865  30.577   8.853
 7865POPC   C1A37863  40.772  30.651   8.553
 7865POPC   D2A37864  40.778  30.706   8.253
 7865POPC   C3A37865  40.823  30.690   7.953
 7865POPC   C4A37866  40.808  30.680   7.653
 7865POPC   C1B37867  40.840  30.443   8.553
 7865POPC   C2B37868  40.913  30.465   8.253
 7865POPC   C3B37869  40.867  30.419   7.953
 7865POPC   C4B37870  40.892  30.434   7.653
 7866POPC   NC337871  34.540   6.632   9.453
 7866POPC   PO437872  34.594   6.608   9.153
 7866POPC   GL137873  34.559   6.666   8.853
 7866POPC   GL237874  34.684   6.754   8.853
 7866POPC   C1A37875  34.593   6.642   8.553
 7866POPC   D2A37876  34.583   6.602   8.253
 7866POPC   C3A37877  34.592   6.671   7.953
 7866POPC   C4A37878  34.565   6.687   7.653
 7866POPC   C1B37879  34.744   6.892   8.553
 7866POPC   C2B37880  34.686   6.822   8.253
 7866POPC   C3B37881  34.711   6.827   7.953
 7866POPC   C4B37882  34.704   6.833   7.653
 7867POPC   NC337883  24.492  26.781   9.453
 7867POPC   PO437884  24.534  26.804   9.153
 7867POPC   GL137885  24.514  26.781   8.853
 7867POPC   GL237886  24.605  26.821   8.853
 7867POPC   C1A37887  24.535  26.824   8.553
 7867POPC   D2A37888  24.493  26.809   8.253
 7867POPC   C3A37889  24.497  26.865   7.953
 7867POPC   C4A37890  24.464  26.865   7.653
 7867POPC   C1B37891  24.696  26.888   8.553
 7867POPC   C2B37892  24.734  26.912   8.253
 7867POPC   C3B37893  24.709  26.894   7.953
 7867POPC   C4B37894  24.720  26.826   7.653
 7868POPC   NC337895  20.612  16.692   9.453
 7868POPC   PO437896  20.571  16.710   9.153
 7868POPC   GL137897  20.609  16.722   8.853
 7868POPC   GL237898  20.507  16.673   8.853
 7868POPC   C1A37899  20.632  16.777   8.553
 7868POPC   D2A37900  20.639  16.765   8.253
 7868POPC   C3A37901  20.622  16.744   7.953
 7868POPC   C4A37902  20.593  16.717   7.653
 7868POPC   C1B37903  20.487  16.514   8.553
 7868POPC   C2B37904  20.453  16.552   8.253
 7868POPC   C3B37905  20.427  16.518   7.953
 7868POPC   C4B37906  20.505  16.541   7.653
 7869POPC   NC337907  21.418  34.577   9.453
 7869POPC   PO437908  21.404  34.609   9.153
 7869POPC   GL137909  21.350  34.557   8.853
 7869POPC   GL237910  21.434  34.731   8.853
 7869POPC   C1A37911  21.396  34.613   8.553
 7869POPC   D2A37912  21.370  34.584   8.253
 7869POPC   C3A37913  21.384  34.578   7.953
 7869POPC   C4A37914  21.367  34.532   7.653
 7869POPC   C1B37915  21.457  34.805   8.553
 7869POPC   C2B37916  21.402  34.870   8.253
 7869POPC   C3B37917  21.450  34.813   7.953
 7869POPC   C4B37918  21.445  34.786   7.653
 7870POPC   NC337919  39.968  12.061   9.453
 7870POPC   PO437920  40.041  12.124   9.153
 7870POPC   GL137921  39.971  12.096   8.853
 7870POPC   GL237922  40.103  12.015   8.853
 7870POPC   C1A37923  40.018  12.049   8.553
 7870POPC   D2A37924  39.971  12.125   8.253
 7870POPC   C3A37925  40.042  12.027   7.953
 7870POPC   C4A37926  39.991  12.027   7.653
 7870POPC   C1B37927  40.220  12.023   8.553
 7870POPC   C2B37928  40.211  12.051   8.253
 7870POPC   C3B37929  40.219  12.008   7.953
 7870POPC   C4B37930  40.266  12.034   7.653
 7871POPC   NC337931  21.355  17.509   9.453
 7871POPC   PO437932  21.373  17.461   9.153
 7871POPC   GL137933  21.430  17.511   8.853
 7871POPC   GL237934  21.375  17.680   8.853
 7871POPC   C1A37935  21.363  17.543   8.553
 7871POPC   D2A37936  21.432  17.522   8.253
 7871POPC   C3A37937  21.420  17.554   7.953
 7871POPC   C4A37938  21.366  17.551   7.653
 7871POPC   C1B37939  21.337  17.737   8.553
 7871POPC   C2B37940  21.392  17.771   8.253
 7871POPC   C3B37941  21.382  17.721   7.953
 7871POPC   C4B37942  21.322  17.787   7.653
 7872POPC   NC337943   7.384  21.419   9.453
 7872POPC   PO437944   7.409  21.433   9.153
 7872POPC   GL137945   7.441  21.378   8.853
 7872POPC   GL237946   7.375  21.249   8.853
 7872POPC   C1A37947   7.425  21.424   8.553
 7872POPC   D2A37948   7.397  21.399   8.253
 7872POPC   C3A37949   7.447  21.348   7.953
 7872POPC   C4A37950   7.456  21.376   7.653
 7872POPC   C1B37951   7.288  21.215   8.553
 7872POPC   C2B37952   7.273  21.203   8.253
 7872POPC   C3B37953   7.303  21.203   7.953
 7872POPC   C4B37954   7.296  21.235   7.653
 7873POPC   NC337955  42.351  36.904   9.453
 7873POPC   PO437956  42.371  36.945   9.153
 7873POPC   GL137957  42.362  36.855   8.853
 7873POPC   GL237958  42.376  36.804   8.853
 7873POPC   C1A37959  42.306  36.896   8.553
 7873POPC   D2A37960  42.378  36.907   8.253
 7873POPC   C3A37961  42.286  36.908   7.953
 7873POPC   C4A37962  42.366  36.943   7.653
 7873POPC   C1B37963  42.534  36.690   8.553
 7873POPC   C2B37964  42.513  36.668   8.253
 7873POPC   C3B37965  42.466  36.673   7.953
 7873POPC   C4B37966  42.467  36.713   7.653
 7874POPC   NC337967  42.289  21.428   9.453
 7874POPC   PO437968  42.332  21.342   9.153
 7874POPC   GL137969  42.340  21.355   8.853
 7874POPC   GL237970  42.452  21.407   8.853
 7874POPC   C1A37971  42.344  21.427   8.553
 7874POPC   D2A37972  42.307  21.379   8.253
 7874POPC   C3A37973  42.322  21.410   7.953
 7874POPC   C4A37974  42.309  21.393   7.653
 7874POPC   C1B37975  42.531  21.511   8.553
 7874POPC   C2B37976  42.557  21.477   8.253
 7874POPC   C3B37977  42.515  21.542   7.953
 7874POPC   C4B37978  42.510  21.525   7.653
 7875POPC   NC337979  39.276  12.814   9.453
 7875POPC   PO437980  39.219  12.858   9.153
 7875POPC   GL137981  39.279  12.883   8.853
 7875POPC   GL237982  39.070  12.871   8.853
 7875POPC   C1A37983  39.274  12.875   8.553
 7875POPC   D2A37984  39.196  12.833   8.253
 7875POPC   C3A37985  39.259  12.824   7.953
 7875POPC   C4A37986  39.223  12.869   7.653
 7875POPC   C1B37987  39.001  12.892   8.553
 7875POPC   C2B37988  38.966  12.946   8.253
 7875POPC   C3B37989  39.001  12.924   7.953
 7875POPC   C4B37990  39.001  12.886   7.653
 7876POPC   NC337991  30.702  41.540   9.453
 7876POPC   PO437992  30.677  41.604   9.153
 7876POPC   GL137993  30.647  41.601   8.853
 7876POPC   GL237994  30.556  41.609   8.853
 7876POPC   C1A37995  30.664  41.568   8.553
 7876POPC   D2A37996  30.699  41.537   8.253
 7876POPC   C3A37997  30.705  41.565   7.953
 7876POPC   C4A37998  30.664  41.589   7.653
 7876POPC   C1B37999  30.496  41.658   8.553
 7876POPC   C2B38000  30.468  41.595   8.253
 7876POPC   C3B38001  30.475  41.592   7.953
 7876POPC   C4B38002  30.448  41.649   7.653
 7877POPC   NC338003  15.130  30.734   9.453
 7877POPC   PO438004  15.217  30.723   9.153
 7877POPC   GL138005  15.192  30.655   8.853
 7877POPC   GL238006  15.325  30.734   8.853
 7877POPC   C1A38007  15.200  30.743   8.553
 7877POPC   D2A38008  15.157  30.661   8.253
 7877POPC   C3A38009  15.138  30.647   7.953
 7877POPC   C4A38010  15.165  30.706   7.653
 7877POPC   C1B38011  15.467  30.745   8.553
 7877POPC   C2B38012  15.381  30.707   8.253
 7877POPC   C3B38013  15.452  30.693   7.953
 7877POPC   C4B38014  15.451  30.698   7.653
 7878POPC   NC338015   1.953  15.932   9.453
 7878POPC   PO438016   1.998  15.958   9.153
 7878POPC   GL138017   1.984  15.948   8.853
 7878POPC   GL238018   2.106  16.022   8.853
 7878POPC   C1A38019   1.976  15.961   8.553
 7878POPC   D2A38020   1.996  15.925   8.253
 7878POPC   C3A38021   1.981  15.999   7.953
 7878POPC   C4A38022   1.947  15.911   7.653
 7878POPC   C1B38023   2.201  16.115   8.553
 7878POPC   C2B38024   2.257  16.086   8.253
 7878POPC   C3B38025   2.165  16.053   7.953
 7878POPC   C4B38026   2.196  16.086   7.653
 7879POPC   NC338027  19.860   1.988   9.453
 7879POPC   PO438028  19.846   2.027   9.153
 7879POPC   GL138029  19.832   2.016   8.853
 7879POPC   GL238030  19.832   1.824   8.853
 7879POPC   C1A38031  19.835   1.980   8.553
 7879POPC   D2A38032  19.838   2.006   8.253
 7879POPC   C3A38033  19.811   1.997   7.953
 7879POPC   C4A38034  19.878   1.994   7.653
 7879POPC   C1B38035  19.817   1.771   8.553
 7879POPC   C2B38036  19.802   1.785   8.253
 7879POPC   C3B38037  19.892   1.716   7.953
 7879POPC   C4B38038  19.812   1.700   7.653
 7880POPC   NC338039  41.599  43.875   9.453
 7880POPC   PO438040  41.600  43.914   9.153
 7880POPC   GL138041  41.524  43.915   8.853
 7880POPC   GL238042  41.597  43.762   8.853
 7880POPC   C1A38043  41.542  43.910   8.553
 7880POPC   D2A38044  41.560  43.936   8.253
 7880POPC   C3A38045  41.515  43.882   7.953
 7880POPC   C4A38046  41.531  43.837   7.653
 7880POPC   C1B38047  41.592  43.690   8.553
 7880POPC   C2B38048  41.596  43.666   8.253
 7880POPC   C3B38049  41.683  43.679   7.953
 7880POPC   C4B38050  41.645  43.624   7.653
 7881POPC   NC338051   6.652  44.629   9.453
 7881POPC   PO438052   6.640  44.624   9.153
 7881POPC   GL138053   6.624  44.679   8.853
 7881POPC   GL238054   6.717  44.603   8.853
 7881POPC   C1A38055   6.671  44.612   8.553
 7881POPC   D2A38056   6.654  44.659   8.253
 7881POPC   C3A38057   6.670  44.670   7.953
 7881POPC   C4A38058   6.674  44.637   7.653
 7881POPC   C1B38059   6.899  44.582   8.553
 7881POPC   C2B38060   6.833  44.579   8.253
 7881POPC   C3B38061   6.865  44.524   7.953
 7881POPC   C4B38062   6.857  44.567   7.653
 7882POPC   NC338063   3.522  27.581   9.453
 7882POPC   PO438064   3.544  27.615   9.153
 7882POPC   GL138065   3.516  27.556   8.853
 7882POPC   GL238066   3.534  27.433   8.853
 7882POPC   C1A38067   3.553  27.638   8.553
 7882POPC   D2A38068   3.507  27.567   8.253
 7882POPC   C3A38069   3.508  27.629   7.953
 7882POPC   C4A38070   3.572  27.607   7.653
 7882POPC   C1B38071   3.486  27.384   8.553
 7882POPC   C2B38072   3.503  27.308   8.253
 7882POPC   C3B38073   3.542  27.375   7.953
 7882POPC   C4B38074   3.484  27.388   7.653
 7883POPC   NC338075  23.728   2.761   9.453
 7883POPC   PO438076  23.748   2.803   9.153
 7883POPC   GL138077  23.698   2.739   8.853
 7883POPC   GL238078  23.801   2.615   8.853
 7883POPC   C1A38079  23.730   2.748   8.553
 7883POPC   D2A38080  23.707   2.775   8.253
 7883POPC   C3A38081  23.716   2.758   7.953
 7883POPC   C4A38082  23.683   2.767   7.653
 7883POPC   C1B38083  23.788   2.573   8.553
 7883POPC   C2B38084  23.827   2.578   8.253
 7883POPC   C3B38085  23.842   2.487   7.953
 7883POPC   C4B38086  23.806   2.579   7.653
 7884POPC   NC338087  15.931  35.338   9.453
 7884POPC   PO438088  15.992  35.393   9.153
 7884POPC   GL138089  15.955  35.347   8.853
 7884POPC   GL238090  15.897  35.240   8.853
 7884POPC   C1A38091  16.005  35.303   8.553
 7884POPC   D2A38092  15.962  35.364   8.253
 7884POPC   C3A38093  15.934  35.352   7.953
 7884POPC   C4A38094  15.934  35.371   7.653
 7884POPC   C1B38095  15.865  35.066   8.553
 7884POPC   C2B38096  15.922  35.071   8.253
 7884POPC   C3B38097  15.831  35.146   7.953
 7884POPC   C4B38098  15.830  35.149   7.653
 7885POPC   NC338099  19.857  15.150   9.453
 7885POPC   PO438100  19.867  15.132   9.153
 7885POPC   GL138101  19.814  15.214   8.853
 7885POPC   GL238102  19.773  15.069   8.853
 7885POPC   C1A38103  19.851  15.133   8.553
 7885POPC   D2A38104  19.813  15.156   8.253
 7885POPC   C3A38105  19.837  15.148   7.953
 7885POPC   C4A38106  19.812  15.183   7.653
 7885POPC   C1B38107  19.684  14.918   8.553
 7885POPC   C2B38108  19.738  14.925   8.253
 7885POPC   C3B38109  19.725  14.965   7.953
 7885POPC   C4B38110  19.755  14.977   7.653
 7886POPC   NC338111  10.568  18.321   9.453
 7886POPC   PO438112  10.527  18.248   9.153
 7886POPC   GL138113  10.536  18.309   8.853
 7886POPC   GL238114  10.356  18.312   8.853
 7886POPC   C1A38115  10.555  18.286   8.553
 7886POPC   D2A38116  10.501  18.317   8.253
 7886POPC   C3A38117  10.529  18.255   7.953
 7886POPC   C4A38118  10.501  18.259   7.653
 7886POPC   C1B38119  10.310  18.347   8.553
 7886POPC   C2B38120  10.265  18.290   8.253
 7886POPC   C3B38121  10.230  18.281   7.953
 7886POPC   C4B38122  10.320  18.277   7.653
 7887POPC   NC338123  27.624   5.114   9.453
 7887POPC   PO438124  27.609   5.124   9.153
 7887POPC   GL138125  27.583   5.132   8.853
 7887POPC   GL238126  27.574   4.929   8.853
 7887POPC   C1A38127  27.577   5.106   8.553
 7887POPC   D2A38128  27.549   5.108   8.253
 7887POPC   C3A38129  27.555   5.119   7.953
 7887POPC   C4A38130  27.633   5.131   7.653
 7887POPC   C1B38131  27.634   4.838   8.553
 7887POPC   C2B38132  27.604   4.816   8.253
 7887POPC   C3B38133  27.655   4.838   7.953
 7887POPC   C4B38134  27.607   4.819   7.653
 7888POPC   NC338135  27.558  29.873   9.453
 7888POPC   PO438136  27.623  29.923   9.153
 7888POPC   GL138137  27.594  29.930   8.853
 7888POPC   GL238138  27.682  29.876   8.853
 7888POPC   C1A38139  27.550  29.944   8.553
 7888POPC   D2A38140  27.612  29.943   8.253
 7888POPC   C3A38141  27.544  29.966   7.953
 7888POPC   C4A38142  27.603  29.871   7.653
 7888POPC   C1B38143  27.884  29.899   8.553
 7888POPC   C2B38144  27.871  29.924   8.253
 7888POPC   C3B38145  27.859  29.874   7.953
 7888POPC   C4B38146  27.832  29.937   7.653
 7889POPC   NC338147  43.080  27.546   9.453
 7889POPC   PO438148  43.137  27.546   9.153
 7889POPC   GL138149  43.072  27.571   8.853
 7889POPC   GL238150  43.007  27.569   8.853
 7889POPC   C1A38151  43.147  27.600   8.553
 7889POPC   D2A38152  43.062  27.642   8.253
 7889POPC   C3A38153  43.151  27.603   7.953
 7889POPC   C4A38154  43.154  27.623   7.653
 7889POPC   C1B38155  42.853  27.485   8.553
 7889POPC   C2B38156  42.884  27.494   8.253
 7889POPC   C3B38157  42.924  27.466   7.953
 7889POPC   C4B38158  42.898  27.489   7.653
 7890POPC   NC338159  43.099  28.365   9.453
 7890POPC   PO438160  43.082  28.388   9.153
 7890POPC   GL138161  43.151  28.359   8.853
 7890POPC   GL238162  42.999  28.266   8.853
 7890POPC   C1A38163  43.120  28.373   8.553
 7890POPC   D2A38164  43.075  28.324   8.253
 7890POPC   C3A38165  43.152  28.404   7.953
 7890POPC   C4A38166  43.136  28.406   7.653
 7890POPC   C1B38167  42.957  28.185   8.553
 7890POPC   C2B38168  42.911  28.245   8.253
 7890POPC   C3B38169  42.884  28.239   7.953
 7890POPC   C4B38170  42.875  28.197   7.653
 7891POPC   NC338171   6.684  10.536   9.453
 7891POPC   PO438172   6.621  10.566   9.153
 7891POPC   GL138173   6.607  10.478   8.853
 7891POPC   GL238174   6.598  10.592   8.853
 7891POPC   C1A38175   6.638  10.508   8.553
 7891POPC   D2A38176   6.681  10.555   8.253
 7891POPC   C3A38177   6.608  10.545   7.953
 7891POPC   C4A38178   6.648  10.572   7.653
 7891POPC   C1B38179   6.484  10.707   8.553
 7891POPC   C2B38180   6.533  10.748   8.253
 7891POPC   C3B38181   6.453  10.700   7.953
 7891POPC   C4B38182   6.543  10.729   7.653
 7892POPC   NC338183  40.036   9.786   9.453
 7892POPC   PO438184  39.970   9.708   9.153
 7892POPC   GL138185  39.960   9.769   8.853
 7892POPC   GL238186  40.010   9.626   8.853
 7892POPC   C1A38187  40.048   9.779   8.553
 7892POPC   D2A38188  39.962   9.739   8.253
 7892POPC   C3A38189  39.964   9.725   7.953
 7892POPC   C4A38190  39.989   9.699   7.653
 7892POPC   C1B38191  39.968   9.476   8.553
 7892POPC   C2B38192  39.995   9.482   8.253
 7892POPC   C3B38193  39.967   9.490   7.953
 7892POPC   C4B38194  39.946   9.531   7.653
 7893POPC   NC338195  31.448   8.167   9.453
 7893POPC   PO438196  31.520   8.156   9.153
 7893POPC   GL138197  31.493   8.206   8.853
 7893POPC   GL238198  31.596   8.153   8.853
 7893POPC   C1A38199  31.482   8.161   8.553
 7893POPC   D2A38200  31.511   8.172   8.253
 7893POPC   C3A38201  31.448   8.240   7.953
 7893POPC   C4A38202  31.438   8.232   7.653
 7893POPC   C1B38203  31.655   8.055   8.553
 7893POPC   C2B38204  31.671   8.056   8.253
 7893POPC   C3B38205  31.634   8.049   7.953
 7893POPC   C4B38206  31.654   8.025   7.653
 7894POPC   NC338207   1.193  37.671   9.453
 7894POPC   PO438208   1.207  37.686   9.153
 7894POPC   GL138209   1.184  37.655   8.853
 7894POPC   GL238210   1.356  37.761   8.853
 7894POPC   C1A38211   1.185  37.715   8.553
 7894POPC   D2A38212   1.221  37.694   8.253
 7894POPC   C3A38213   1.256  37.656   7.953
 7894POPC   C4A38214   1.177  37.709   7.653
 7894POPC   C1B38215   1.490  37.755   8.553
 7894POPC   C2B38216   1.402  37.768   8.253
 7894POPC   C3B38217   1.454  37.747   7.953
 7894POPC   C4B38218   1.407  37.808   7.653
 7895POPC   NC338219  12.070  15.158   9.453
 7895POPC   PO438220  12.028  15.157   9.153
 7895POPC   GL138221  12.059  15.204   8.853
 7895POPC   GL238222  12.058  15.248   8.853
 7895POPC   C1A38223  12.057  15.223   8.553
 7895POPC   D2A38224  12.122  15.206   8.253
 7895POPC   C3A38225  12.051  15.175   7.953
 7895POPC   C4A38226  12.069  15.209   7.653
 7895POPC   C1B38227  11.957  15.420   8.553
 7895POPC   C2B38228  11.997  15.384   8.253
 7895POPC   C3B38229  11.955  15.354   7.953
 7895POPC   C4B38230  11.957  15.378   7.653
 7896POPC   NC338231  16.725   9.001   9.453
 7896POPC   PO438232  16.761   8.956   9.153
 7896POPC   GL138233  16.738   8.923   8.853
 7896POPC   GL238234  16.811   9.085   8.853
 7896POPC   C1A38235  16.726   9.003   8.553
 7896POPC   D2A38236  16.769   8.987   8.253
 7896POPC   C3A38237  16.685   9.010   7.953
 7896POPC   C4A38238  16.684   8.936   7.653
 7896POPC   C1B38239  16.804   9.243   8.553
 7896POPC   C2B38240  16.838   9.234   8.253
 7896POPC   C3B38241  16.853   9.181   7.953
 7896POPC   C4B38242  16.825   9.227   7.653
 7897POPC   NC338243  23.735   3.573   9.453
 7897POPC   PO438244  23.670   3.537   9.153
 7897POPC   GL138245  23.752   3.537   8.853
 7897POPC   GL238246  23.602   3.409   8.853
 7897POPC   C1A38247  23.723   3.560   8.553
 7897POPC   D2A38248  23.710   3.529   8.253
 7897POPC   C3A38249  23.702   3.553   7.953
 7897POPC   C4A38250  23.733   3.523   7.653
 7897POPC   C1B38251  23.611   3.288   8.553
 7897POPC   C2B38252  23.548   3.341   8.253
 7897POPC   C3B38253  23.636   3.286   7.953
 7897POPC   C4B38254  23.561   3.307   7.653
 7898POPC   NC338255  33.773  38.459   9.453
 7898POPC   PO438256  33.763  38.424   9.153
 7898POPC   GL138257  33.803  38.416   8.853
 7898POPC   GL238258  33.776  38.379   8.853
 7898POPC   C1A38259  33.751  38.427   8.553
 7898POPC   D2A38260  33.781  38.436   8.253
 7898POPC   C3A38261  33.811  38.498   7.953
 7898POPC   C4A38262  33.787  38.493   7.653
 7898POPC   C1B38263  33.736  38.221   8.553
 7898POPC   C2B38264  33.692  38.171   8.253
 7898POPC   C3B38265  33.706  38.245   7.953
 7898POPC   C4B38266  33.754  38.248   7.653
 7899POPC   NC338267  15.157  16.693   5.553
 7899POPC   PO438268  15.218  16.772   5.853
 7899POPC   GL138269  15.192  16.693   6.153
 7899POPC   GL238270  15.259  16.703   6.153
 7899POPC   C1A38271  15.178  16.751   6.453
 7899POPC   D2A38272  15.212  16.688   6.753
 7899POPC   C3A38273  15.200  16.687   7.053
 7899POPC   C4A38274  15.134  16.723   7.353
 7899POPC   C1B38275  15.421  16.711   6.453
 7899POPC   C2B38276  15.425  16.650   6.753
 7899POPC   C3B38277  15.418  16.633   7.053
 7899POPC   C4B38278  15.453  16.647   7.353
 7900POPC   NC338279  40.023  25.276   5.553
 7900POPC   PO438280  40.030  25.307   5.853
 7900POPC   GL138281  40.055  25.233   6.153
 7900POPC   GL238282  40.021  25.152   6.153
 7900POPC   C1A38283  40.041  25.277   6.453
 7900POPC   D2A38284  40.051  25.300   6.753
 7900POPC   C3A38285  40.002  25.220   7.053
 7900POPC   C4A38286  40.050  25.220   7.353
 7900POPC   C1B38287  39.962  24.968   6.453
 7900POPC   C2B38288  39.969  25.057   6.753
 7900POPC   C3B38289  39.957  24.968   7.053
 7900POPC   C4B38290  40.030  25.038   7.353
 7901POPC   NC338291  12.118  41.568   5.553
 7901POPC   PO438292  12.109  41.521   5.853
 7901POPC   GL138293  12.068  41.513   6.153
 7901POPC   GL238294  12.149  41.574   6.153
 7901POPC   C1A38295  12.105  41.524   6.453
 7901POPC   D2A38296  12.057  41.556   6.753
 7901POPC   C3A38297  12.066  41.577   7.053
 7901POPC   C4A38298  12.027  41.513   7.353
 7901POPC   C1B38299  12.298  41.628   6.453
 7901POPC   C2B38300  12.279  41.616   6.753
 7901POPC   C3B38301  12.320  41.595   7.053
 7901POPC   C4B38302  12.272  41.664   7.353
 7902POPC   NC338303  24.467  42.297   5.553
 7902POPC   PO438304  24.440  42.301   5.853
 7902POPC   GL138305  24.539  42.364   6.153
 7902POPC   GL238306  24.632  42.372   6.153
 7902POPC   C1A38307  24.514  42.375   6.453
 7902POPC   D2A38308  24.464  42.300   6.753
 7902POPC   C3A38309  24.457  42.340   7.053
 7902POPC   C4A38310  24.536  42.317   7.353
 7902POPC   C1B38311  24.729  42.374   6.453
 7902POPC   C2B38312  24.760  42.329   6.753
 7902POPC   C3B38313  24.755  42.388   7.053
 7902POPC   C4B38314  24.775  42.412   7.353
 7903POPC   NC338315  33.004  10.517   5.553
 7903POPC   PO438316  32.986  10.514   5.853
 7903POPC   GL138317  33.003  10.487   6.153
 7903POPC   GL238318  32.947  10.529   6.153
 7903POPC   C1A38319  33.047  10.481   6.453
 7903POPC   D2A38320  32.997  10.531   6.753
 7903POPC   C3A38321  33.071  10.572   7.053
 7903POPC   C4A38322  33.043  10.493   7.353
 7903POPC   C1B38323  32.833  10.633   6.453
 7903POPC   C2B38324  32.810  10.592   6.753
 7903POPC   C3B38325  32.758  10.584   7.053
 7903POPC   C4B38326  32.821  10.621   7.353
 7904POPC   NC338327  10.484  12.056   5.553
 7904POPC   PO438328  10.556  12.035   5.853
 7904POPC   GL138329  10.507  12.091   6.153
 7904POPC   GL238330  10.501  12.155   6.153
 7904POPC   C1A38331  10.546  12.030   6.453
 7904POPC   D2A38332  10.549  12.096   6.753
 7904POPC   C3A38333  10.569  12.123   7.053
 7904POPC   C4A38334  10.553  12.068   7.353
 7904POPC   C1B38335  10.483  12.375   6.453
 7904POPC   C2B38336  10.465  12.298   6.753
 7904POPC   C3B38337  10.497  12.319   7.053
 7904POPC   C4B38338  10.539  12.326   7.353
 7905POPC   NC338339  34.594  13.635   5.553
 7905POPC   PO438340  34.622  13.599   5.853
 7905POPC   GL138341  34.562  13.594   6.153
 7905POPC   GL238342  34.437  13.684   6.153
 7905POPC   C1A38343  34.594  13.654   6.453
 7905POPC   D2A38344  34.607  13.600   6.753
 7905POPC   C3A38345  34.580  13.620   7.053
 7905POPC   C4A38346  34.604  13.649   7.353
 7905POPC   C1B38347  34.398  13.729   6.453
 7905POPC   C2B38348  34.393  13.735   6.753
 7905POPC   C3B38349  34.346  13.736   7.053
 7905POPC   C4B38350  34.361  13.712   7.353
 7906POPC   NC338351  34.527   9.742   5.553
 7906POPC   PO438352  34.550   9.705   5.853
 7906POPC   GL138353  34.559   9.728   6.153
 7906POPC   GL238354  34.452   9.736   6.153
 7906POPC   C1A38355  34.580   9.745   6.453
 7906POPC   D2A38356  34.536   9.717   6.753
 7906POPC   C3A38357  34.576   9.758   7.053
 7906POPC   C4A38358  34.571   9.712   7.353
 7906POPC   C1B38359  34.314   9.679   6.453
 7906POPC   C2B38360  34.396   9.600   6.753
 7906POPC   C3B38361  34.347   9.651   7.053
 7906POPC   C4B38362  34.349   9.634   7.353
 7907POPC   NC338363  30.667   6.664   5.553
 7907POPC   PO438364  30.731   6.609   5.853
 7907POPC   GL138365  30.716   6.630   6.153
 7907POPC   GL238366  30.594   6.561   6.153
 7907POPC   C1A38367  30.732   6.641   6.453
 7907POPC   D2A38368  30.668   6.608   6.753
 7907POPC   C3A38369  30.723   6.682   7.053
 7907POPC   C4A38370  30.708   6.645   7.353
 7907POPC   C1B38371  30.459   6.569   6.453
 7907POPC   C2B38372  30.411   6.598   6.753
 7907POPC   C3B38373  30.418   6.579   7.053
 7907POPC   C4B38374  30.439   6.544   7.353
 7908POPC   NC338375  43.857  37.697   5.553
 7908POPC   PO438376  43.849  37.729   5.853
 7908POPC   GL138377  43.848  37.645   6.153
 7908POPC   GL238378  43.942  37.592   6.153
 7908POPC   C1A38379  43.840  37.662   6.453
 7908POPC   D2A38380  43.885  37.653   6.753
 7908POPC   C3A38381  43.907  37.673   7.053
 7908POPC   C4A38382  43.900  37.694   7.353
 7908POPC   C1B38383  43.960  37.411   6.453
 7908POPC   C2B38384  43.937  37.395   6.753
 7908POPC   C3B38385  43.906  37.475   7.053
 7908POPC   C4B38386  43.956  37.460   7.353
 7909POPC   NC338387   8.216   7.464   5.553
 7909POPC   PO438388   8.205   7.398   5.853
 7909POPC   GL138389   8.227   7.427   6.153
 7909POPC   GL238390   8.153   7.576   6.153
 7909POPC   C1A38391   8.153   7.423   6.453
 7909POPC   D2A38392   8.196   7.452   6.753
 7909POPC   C3A38393   8.154   7.381   7.053
 7909POPC   C4A38394   8.191   7.400   7.353
 7909POPC   C1B38395   8.110   7.640   6.453
 7909POPC   C2B38396   8.101   7.627   6.753
 7909POPC   C3B38397   8.161   7.657   7.053
 7909POPC   C4B38398   8.082   7.636   7.353
 7910POPC   NC338399  10.496  25.315   5.553
 7910POPC   PO438400  10.487  25.219   5.853
 7910POPC   GL138401  10.539  25.242   6.153
 7910POPC   GL238402  10.575  25.380   6.153
 7910POPC   C1A38403  10.533  25.232   6.453
 7910POPC   D2A38404  10.522  25.230   6.753
 7910POPC   C3A38405  10.534  25.222   7.053
 7910POPC   C4A38406  10.562  25.243   7.353
 7910POPC   C1B38407  10.715  25.466   6.453
 7910POPC   C2B38408  10.743  25.442   6.753
 7910POPC   C3B38409  10.670  25.457   7.053
 7910POPC   C4B38410  10.666  25.429   7.353
 7911POPC   NC338411  43.128   3.588   5.553
 7911POPC   PO438412  43.114   3.588   5.853
 7911POPC   GL138413  43.081   3.577   6.153
 7911POPC   GL238414  43.006   3.480   6.153
 7911POPC   C1A38415  43.154   3.516   6.453
 7911POPC   D2A38416  43.113   3.542   6.753
 7911POPC   C3A38417  43.149   3.562   7.053
 7911POPC   C4A38418  43.068   3.493   7.353
 7911POPC   C1B38419  42.845   3.536   6.453
 7911POPC   C2B38420  42.820   3.531   6.753
 7911POPC   C3B38421  42.839   3.468   7.053
 7911POPC   C4B38422  42.886   3.459   7.353
 7912POPC   NC338423  25.287  42.365   5.553
 7912POPC   PO438424  25.284  42.291   5.853
 7912POPC   GL138425  25.303  42.376   6.153
 7912POPC   GL238426  25.114  42.344   6.153
 7912POPC   C1A38427  25.244  42.383   6.453
 7912POPC   D2A38428  25.255  42.311   6.753
 7912POPC   C3A38429  25.304  42.365   7.053
 7912POPC   C4A38430  25.246  42.290   7.353
 7912POPC   C1B38431  25.022  42.393   6.453
 7912POPC   C2B38432  25.005  42.342   6.753
 7912POPC   C3B38433  25.045  42.375   7.053
 7912POPC   C4B38434  25.010  42.351   7.353
 7913POPC   NC338435  25.305   4.366   5.553
 7913POPC   PO438436  25.255   4.304   5.853
 7913POPC   GL138437  25.220   4.298   6.153
 7913POPC   GL238438  25.184   4.189   6.153
 7913POPC   C1A38439  25.285   4.347   6.453
 7913POPC   D2A38440  25.262   4.308   6.753
 7913POPC   C3A38441  25.227   4.340   7.053
 7913POPC   C4A38442  25.248   4.345   7.353
 7913POPC   C1B38443  25.089   4.082   6.453
 7913POPC   C2B38444  25.134   4.113   6.753
 7913POPC   C3B38445  25.097   4.100   7.053
 7913POPC   C4B38446  25.064   4.172   7.353
 7914POPC   NC338447  26.770  15.204   5.553
 7914POPC   PO438448  26.858  15.227   5.853
 7914POPC   GL138449  26.842  15.205   6.153
 7914POPC   GL238450  26.662  15.144   6.153
 7914POPC   C1A38451  26.796  15.155   6.453
 7914POPC   D2A38452  26.840  15.197   6.753
 7914POPC   C3A38453  26.799  15.145   7.053
 7914POPC   C4A38454  26.783  15.203   7.353
 7914POPC   C1B38455  26.554  15.035   6.453
 7914POPC   C2B38456  26.587  15.037   6.753
 7914POPC   C3B38457  26.559  15.115   7.053
 7914POPC   C4B38458  26.612  15.049   7.353
 7915POPC   NC338459  30.723  40.041   5.553
 7915POPC   PO438460  30.664  40.029   5.853
 7915POPC   GL138461  30.677  39.974   6.153
 7915POPC   GL238462  30.710  40.170   6.153
 7915POPC   C1A38463  30.741  39.962   6.453
 7915POPC   D2A38464  30.657  40.009   6.753
 7915POPC   C3A38465  30.739  40.019   7.053
 7915POPC   C4A38466  30.682  39.981   7.353
 7915POPC   C1B38467  30.735  40.223   6.453
 7915POPC   C2B38468  30.742  40.253   6.753
 7915POPC   C3B38469  30.689  40.243   7.053
 7915POPC   C4B38470  30.704  40.226   7.353
 7916POPC   NC338471  11.319  29.148   5.553
 7916POPC   PO438472  11.295  29.096   5.853
 7916POPC   GL138473  11.348  29.102   6.153
 7916POPC   GL238474  11.350  29.020   6.153
 7916POPC   C1A38475  11.338  29.150   6.453
 7916POPC   D2A38476  11.259  29.128   6.753
 7916POPC   C3A38477  11.298  29.175   7.053
 7916POPC   C4A38478  11.259  29.120   7.353
 7916POPC   C1B38479  11.356  28.938   6.453
 7916POPC   C2B38480  11.343  28.885   6.753
 7916POPC   C3B38481  11.295  28.937   7.053
 7916POPC   C4B38482  11.332  28.935   7.353
 7917POPC   NC338483  17.525  29.966   5.553
 7917POPC   PO438484  17.511  29.950   5.853
 7917POPC   GL138485  17.531  29.920   6.153
 7917POPC   GL238486  17.447  30.003   6.153
 7917POPC   C1A38487  17.474  29.890   6.453
 7917POPC   D2A38488  17.478  29.938   6.753
 7917POPC   C3A38489  17.549  29.960   7.053
 7917POPC   C4A38490  17.532  29.883   7.353
 7917POPC   C1B38491  17.434  30.177   6.453
 7917POPC   C2B38492  17.362  30.135   6.753
 7917POPC   C3B38493  17.403  30.093   7.053
 7917POPC   C4B38494  17.409  30.098   7.353
 7918POPC   NC338495  10.526  27.556   5.553
 7918POPC   PO438496  10.503  27.609   5.853
 7918POPC   GL138497  10.565  27.624   6.153
 7918POPC   GL238498  10.662  27.565   6.153
 7918POPC   C1A38499  10.534  27.617   6.453
 7918POPC   D2A38500  10.551  27.613   6.753
 7918POPC   C3A38501  10.497  27.634   7.053
 7918POPC   C4A38502  10.536  27.638   7.353
 7918POPC   C1B38503  10.751  27.636   6.453
 7918POPC   C2B38504  10.814  27.644   6.753
 7918POPC   C3B38505  10.751  27.645   7.053
 7918POPC   C4B38506  10.737  27.617   7.353
 7919POPC   NC338507  34.616   7.438   5.553
 7919POPC   PO438508  34.574   7.435   5.853
 7919POPC   GL138509  34.572   7.373   6.153
 7919POPC   GL238510  34.497   7.554   6.153
 7919POPC   C1A38511  34.613   7.382   6.453
 7919POPC   D2A38512  34.621   7.449   6.753
 7919POPC   C3A38513  34.542   7.397   7.053
 7919POPC   C4A38514  34.605   7.384   7.353
 7919POPC   C1B38515  34.449   7.647   6.453
 7919POPC   C2B38516  34.452   7.623   6.753
 7919POPC   C3B38517  34.457   7.593   7.053
 7919POPC   C4B38518  34.396   7.621   7.353
 7920POPC   NC338519   8.205  16.748   5.553
 7920POPC   PO438520   8.153  16.773   5.853
 7920POPC   GL138521   8.165  16.750   6.153
 7920POPC   GL238522   8.314  16.697   6.153
 7920POPC   C1A38523   8.160  16.720   6.453
 7920POPC   D2A38524   8.211  16.765   6.753
 7920POPC   C3A38525   8.246  16.703   7.053
 7920POPC   C4A38526   8.168  16.682   7.353
 7920POPC   C1B38527   8.404  16.630   6.453
 7920POPC   C2B38528   8.414  16.607   6.753
 7920POPC   C3B38529   8.424  16.643   7.053
 7920POPC   C4B38530   8.386  16.635   7.353
 7921POPC   NC338531  34.613  20.653   5.553
 7921POPC   PO438532  34.538  20.564   5.853
 7921POPC   GL138533  34.574  20.601   6.153
 7921POPC   GL238534  34.604  20.536   6.153
 7921POPC   C1A38535  34.612  20.641   6.453
 7921POPC   D2A38536  34.610  20.583   6.753
 7921POPC   C3A38537  34.535  20.640   7.053
 7921POPC   C4A38538  34.572  20.597   7.353
 7921POPC   C1B38539  34.751  20.398   6.453
 7921POPC   C2B38540  34.757  20.399   6.753
 7921POPC   C3B38541  34.733  20.413   7.053
 7921POPC   C4B38542  34.674  20.432   7.353
 7922POPC   NC338543  18.241  33.776   5.553
 7922POPC   PO438544  18.268  33.834   5.853
 7922POPC   GL138545  18.243  33.808   6.153
 7922POPC   GL238546  18.153  33.875   6.153
 7922POPC   C1A38547  18.289  33.798   6.453
 7922POPC   D2A38548  18.277  33.789   6.753
 7922POPC   C3A38549  18.246  33.765   7.053
 7922POPC   C4A38550  18.261  33.752   7.353
 7922POPC   C1B38551  18.051  33.931   6.453
 7922POPC   C2B38552  18.024  33.969   6.753
 7922POPC   C3B38553  18.105  33.948   7.053
 7922POPC   C4B38554  18.116  33.886   7.353
 7923POPC   NC338555  29.920  30.680   5.553
 7923POPC   PO438556  29.915  30.717   5.853
 7923POPC   GL138557  29.901  30.717   6.153
 7923POPC   GL238558  29.821  30.689   6.153
 7923POPC   C1A38559  29.927  30.738   6.453
 7923POPC   D2A38560  29.968  30.688   6.753
 7923POPC   C3A38561  29.873  30.673   7.053
 7923POPC   C4A38562  29.933  30.677   7.353
 7923POPC   C1B38563  29.645  30.800   6.453
 7923POPC   C2B38564  29.657  30.777   6.753
 7923POPC   C3B38565  29.643  30.716   7.053
 7923POPC   C4B38566  29.686  30.714   7.353
 7924POPC   NC338567   9.009  19.043   5.553
 7924POPC   PO438568   8.993  19.083   5.853
 7924POPC   GL138569   8.956  19.096   6.153
 7924POPC   GL238570   9.027  18.942   6.153
 7924POPC   C1A38571   8.942  19.085   6.453
 7924POPC   D2A38572   8.945  19.060   6.753
 7924POPC   C3A38573   8.979  19.085   7.053
 7924POPC   C4A38574   8.929  19.106   7.353
 7924POPC   C1B38575   9.135  18.895   6.453
 7924POPC   C2B38576   9.216  18.933   6.753
 7924POPC   C3B38577   9.129  18.897   7.053
 7924POPC   C4B38578   9.181  18.908   7.353
 7925POPC   NC338579  24.525  41.601   5.553
 7925POPC   PO438580  24.481  41.518   5.853
 7925POPC   GL138581  24.468  41.510   6.153
 7925POPC   GL238582  24.602  41.598   6.153
 7925POPC   C1A38583  24.510  41.555   6.453
 7925POPC   D2A38584  24.474  41.537   6.753
 7925POPC   C3A38585  24.453  41.515   7.053
 7925POPC   C4A38586  24.537  41.534   7.353
 7925POPC   C1B38587  24.759  41.491   6.453
 7925POPC   C2B38588  24.781  41.570   6.753
 7925POPC   C3B38589  24.789  41.539   7.053
 7925POPC   C4B38590  24.747  41.559   7.353
 7926POPC   NC338591  39.245  32.260   5.553
 7926POPC   PO438592  39.249  32.288   5.853
 7926POPC   GL138593  39.225  32.295   6.153
 7926POPC   GL238594  39.124  32.131   6.153
 7926POPC   C1A38595  39.280  32.214   6.453
 7926POPC   D2A38596  39.181  32.206   6.753
 7926POPC   C3A38597  39.263  32.211   7.053
 7926POPC   C4A38598  39.229  32.211   7.353
 7926POPC   C1B38599  39.086  31.993   6.453
 7926POPC   C2B38600  39.133  32.032   6.753
 7926POPC   C3B38601  39.055  32.055   7.053
 7926POPC   C4B38602  39.086  32.030   7.353
 7927POPC   NC338603   5.867   8.997   5.553
 7927POPC   PO438604   5.839   8.940   5.853
 7927POPC   GL138605   5.880   8.970   6.153
 7927POPC   GL238606   5.846   9.064   6.153
 7927POPC   C1A38607   5.859   8.934   6.453
 7927POPC   D2A38608   5.850   8.923   6.753
 7927POPC   C3A38609   5.852   8.991   7.053
 7927POPC   C4A38610   5.865   9.002   7.353
 7927POPC   C1B38611   5.818   9.194   6.453
 7927POPC   C2B38612   5.769   9.188   6.753
 7927POPC   C3B38613   5.825   9.159   7.053
 7927POPC   C4B38614   5.791   9.251   7.353
 7928POPC   NC338615  34.582  17.469   5.553
 7928POPC   PO438616  34.603  17.512   5.853
 7928POPC   GL138617  34.618  17.482   6.153
 7928POPC   GL238618  34.690  17.630   6.153
 7928POPC   C1A38619  34.583  17.529   6.453
 7928POPC   D2A38620  34.595  17.473   6.753
 7928POPC   C3A38621  34.540  17.480   7.053
 7928POPC   C4A38622  34.561  17.523   7.353
 7928POPC   C1B38623  34.711  17.742   6.453
 7928POPC   C2B38624  34.774  17.681   6.753
 7928POPC   C3B38625  34.765  17.727   7.053
 7928POPC   C4B38626  34.706  17.716   7.353
 7929POPC   NC338627  36.095  44.671   5.553
 7929POPC   PO438628  36.078  44.617   5.853
 7929POPC   GL138629  36.083  44.621   6.153
 7929POPC   GL238630  36.059  44.762   6.153
 7929POPC   C1A38631  36.087  44.643   6.453
 7929POPC   D2A38632  36.078  44.621   6.753
 7929POPC   C3A38633  36.082  44.695   7.053
 7929POPC   C4A38634  36.161  44.693   7.353
 7929POPC   C1B38635  35.857  44.771   6.453
 7929POPC   C2B38636  35.861  44.754   6.753
 7929POPC   C3B38637  35.932  44.804   7.053
 7929POPC   C4B38638  35.890  44.767   7.353
 7930POPC   NC338639  16.774  33.808   5.553
 7930POPC   PO438640  16.735  33.781   5.853
 7930POPC   GL138641  16.735  33.844   6.153
 7930POPC   GL238642  16.831  33.822   6.153
 7930POPC   C1A38643  16.736  33.753   6.453
 7930POPC   D2A38644  16.700  33.825   6.753
 7930POPC   C3A38645  16.722  33.777   7.053
 7930POPC   C4A38646  16.755  33.823   7.353
 7930POPC   C1B38647  17.017  33.828   6.453
 7930POPC   C2B38648  16.931  33.900   6.753
 7930POPC   C3B38649  17.016  33.844   7.053
 7930POPC   C4B38650  16.983  33.865   7.353
 7931POPC   NC338651   2.758  30.658   5.553
 7931POPC   PO438652   2.808  30.734   5.853
 7931POPC   GL138653   2.749  30.709   6.153
 7931POPC   GL238654   2.711  30.800   6.153
 7931POPC   C1A38655   2.788  30.647   6.453
 7931POPC   D2A38656   2.779  30.701   6.753
 7931POPC   C3A38657   2.741  30.700   7.053
 7931POPC   C4A38658   2.738  30.721   7.353
 7931POPC   C1B38659   2.596  30.847   6.453
 7931POPC   C2B38660   2.542  30.875   6.753
 7931POPC   C3B38661   2.595  30.818   7.053
 7931POPC   C4B38662   2.551  30.888   7.353
 7932POPC   NC338663  14.433  12.806   5.553
 7932POPC   PO438664  14.433  12.869   5.853
 7932POPC   GL138665  14.375  12.849   6.153
 7932POPC   GL238666  14.457  12.891   6.153
 7932POPC   C1A38667  14.435  12.822   6.453
 7932POPC   D2A38668  14.453  12.894   6.753
 7932POPC   C3A38669  14.453  12.846   7.053
 7932POPC   C4A38670  14.406  12.808   7.353
 7932POPC   C1B38671  14.656  12.975   6.453
 7932POPC   C2B38672  14.571  12.978   6.753
 7932POPC   C3B38673  14.581  13.021   7.053
 7932POPC   C4B38674  14.646  13.013   7.353
 7933POPC   NC338675  24.446  36.103   5.553
 7933POPC   PO438676  24.489  36.118   5.853
 7933POPC   GL138677  24.500  36.125   6.153
 7933POPC   GL238678  24.377  36.020   6.153
 7933POPC   C1A38679  24.501  36.158   6.453
 7933POPC   D2A38680  24.478  36.168   6.753
 7933POPC   C3A38681  24.466  36.127   7.053
 7933POPC   C4A38682  24.512  36.093   7.353
 7933POPC   C1B38683  24.273  35.916   6.453
 7933POPC   C2B38684  24.286  35.992   6.753
 7933POPC   C3B38685  24.270  35.907   7.053
 7933POPC   C4B38686  24.299  35.994   7.353
 7934POPC   NC338687  24.498  14.434   5.553
 7934POPC   PO438688  24.442  14.439   5.853
 7934POPC   GL138689  24.473  14.388   6.153
 7934POPC   GL238690  24.585  14.454   6.153
 7934POPC   C1A38691  24.464  14.443   6.453
 7934POPC   D2A38692  24.475  14.366   6.753
 7934POPC   C3A38693  24.515  14.399   7.053
 7934POPC   C4A38694  24.476  14.405   7.353
 7934POPC   C1B38695  24.729  14.476   6.453
 7934POPC   C2B38696  24.706  14.409   6.753
 7934POPC   C3B38697  24.719  14.479   7.053
 7934POPC   C4B38698  24.725  14.507   7.353
 7935POPC   NC338699  43.089  26.814   5.553
 7935POPC   PO438700  43.067  26.819   5.853
 7935POPC   GL138701  43.100  26.789   6.153
 7935POPC   GL238702  43.135  26.914   6.153
 7935POPC   C1A38703  43.118  26.837   6.453
 7935POPC   D2A38704  43.084  26.785   6.753
 7935POPC   C3A38705  43.120  26.811   7.053
 7935POPC   C4A38706  43.095  26.793   7.353
 7935POPC   C1B38707  43.242  26.994   6.453
 7935POPC   C2B38708  43.281  27.049   6.753
 7935POPC   C3B38709  43.273  26.995   7.053
 7935POPC   C4B38710  43.284  27.012   7.353
 7936POPC   NC338711  36.175  40.787   5.553
 7936POPC   PO438712  36.094  40.825   5.853
 7936POPC   GL138713  36.148  40.769   6.153
 7936POPC   GL238714  36.017  40.771   6.153
 7936POPC   C1A38715  36.128  40.795   6.453
 7936POPC   D2A38716  36.152  40.758   6.753
 7936POPC   C3A38717  36.136  40.757   7.053
 7936POPC   C4A38718  36.124  40.795   7.353
 7936POPC   C1B38719  35.862  40.710   6.453
 7936POPC   C2B38720  35.835  40.714   6.753
 7936POPC   C3B38721  35.931  40.708   7.053
 7936POPC   C4B38722  35.849  40.749   7.353
 7937POPC   NC338723  36.920   2.734   5.553
 7937POPC   PO438724  36.933   2.722   5.853
 7937POPC   GL138725  36.905   2.735   6.153
 7937POPC   GL238726  37.024   2.660   6.153
 7937POPC   C1A38727  36.941   2.779   6.453
 7937POPC   D2A38728  36.902   2.735   6.753
 7937POPC   C3A38729  36.872   2.716   7.053
 7937POPC   C4A38730  36.909   2.759   7.353
 7937POPC   C1B38731  37.014   2.574   6.453
 7937POPC   C2B38732  37.072   2.540   6.753
 7937POPC   C3B38733  37.041   2.602   7.053
 7937POPC   C4B38734  37.078   2.555   7.353
 7938POPC   NC338735  44.710  42.291   5.553
 7938POPC   PO438736  44.654  42.293   5.853
 7938POPC   GL138737  44.636  42.384   6.153
 7938POPC   GL238738  44.576  42.307   6.153
 7938POPC   C1A38739  44.655  42.381   6.453
 7938POPC   D2A38740  44.658  42.287   6.753
 7938POPC   C3A38741  44.665  42.354   7.053
 7938POPC   C4A38742  44.664  42.339   7.353
 7938POPC   C1B38743  44.462  42.230   6.453
 7938POPC   C2B38744  44.456  42.241   6.753
 7938POPC   C3B38745  44.404  42.236   7.053
 7938POPC   C4B38746  44.418  42.231   7.353
 7939POPC   NC338747   9.711   4.318   5.553
 7939POPC   PO438748   9.787   4.362   5.853
 7939POPC   GL138749   9.798   4.317   6.153
 7939POPC   GL238750   9.873   4.354   6.153
 7939POPC   C1A38751   9.775   4.322   6.453
 7939POPC   D2A38752   9.750   4.298   6.753
 7939POPC   C3A38753   9.707   4.323   7.053
 7939POPC   C4A38754   9.747   4.329   7.353
 7939POPC   C1B38755   9.960   4.456   6.453
 7939POPC   C2B38756   9.946   4.533   6.753
 7939POPC   C3B38757   9.967   4.461   7.053
 7939POPC   C4B38758   9.948   4.531   7.353
 7940POPC   NC338759  44.628  21.394   5.553
 7940POPC   PO438760  44.612  21.416   5.853
 7940POPC   GL138761  44.685  21.409   6.153
 7940POPC   GL238762  44.763  21.461   6.153
 7940POPC   C1A38763  44.646  21.359   6.453
 7940POPC   D2A38764  44.679  21.417   6.753
 7940POPC   C3A38765  44.678  21.418   7.053
 7940POPC   C4A38766  44.629  21.356   7.353
 7940POPC   C1B38767  44.892  21.502   6.453
 7940POPC   C2B38768  44.889  21.456   6.753
 7940POPC   C3B38769  44.861  21.511   7.053
 7940POPC   C4B38770  44.901  21.521   7.353
 7941POPC   NC338771   7.453  32.234   5.553
 7941POPC   PO438772   7.405  32.198   5.853
 7941POPC   GL138773   7.446  32.277   6.153
 7941POPC   GL238774   7.587  32.293   6.153
 7941POPC   C1A38775   7.408  32.271   6.453
 7941POPC   D2A38776   7.422  32.244   6.753
 7941POPC   C3A38777   7.412  32.289   7.053
 7941POPC   C4A38778   7.401  32.289   7.353
 7941POPC   C1B38779   7.656  32.307   6.453
 7941POPC   C2B38780   7.657  32.292   6.753
 7941POPC   C3B38781   7.636  32.291   7.053
 7941POPC   C4B38782   7.678  32.315   7.353
 7942POPC   NC338783  37.639  26.821   5.553
 7942POPC   PO438784  37.641  26.791   5.853
 7942POPC   GL138785  37.650  26.830   6.153
 7942POPC   GL238786  37.617  26.688   6.153
 7942POPC   C1A38787  37.728  26.857   6.453
 7942POPC   D2A38788  37.631  26.859   6.753
 7942POPC   C3A38789  37.663  26.849   7.053
 7942POPC   C4A38790  37.691  26.860   7.353
 7942POPC   C1B38791  37.683  26.578   6.453
 7942POPC   C2B38792  37.644  26.607   6.753
 7942POPC   C3B38793  37.686  26.614   7.053
 7942POPC   C4B38794  37.619  26.609   7.353
 7943POPC   NC338795  36.887  19.813   5.553
 7943POPC   PO438796  36.933  19.862   5.853
 7943POPC   GL138797  36.926  19.810   6.153
 7943POPC   GL238798  36.953  19.740   6.153
 7943POPC   C1A38799  36.936  19.817   6.453
 7943POPC   D2A38800  36.908  19.884   6.753
 7943POPC   C3A38801  36.932  19.874   7.053
 7943POPC   C4A38802  36.950  19.871   7.353
 7943POPC   C1B38803  37.095  19.701   6.453
 7943POPC   C2B38804  37.092  19.671   6.753
 7943POPC   C3B38805  37.107  19.675   7.053
 7943POPC   C4B38806  37.087  19.657   7.353
 7944POPC   NC338807  26.811   2.771   5.553
 7944POPC   PO438808  26.771   2.723   5.853
 7944POPC   GL138809  26.806   2.744   6.153
 7944POPC   GL238810  26.785   2.675   6.153
 7944POPC   C1A38811  26.819   2.746   6.453
 7944POPC   D2A38812  26.844   2.731   6.753
 7944POPC   C3A38813  26.800   2.746   7.053
 7944POPC   C4A38814  26.845   2.748   7.353
 7944POPC   C1B38815  26.847   2.545   6.453
 7944POPC   C2B38816  26.812   2.485   6.753
 7944POPC   C3B38817  26.834   2.536   7.053
 7944POPC   C4B38818  26.780   2.521   7.353
 7945POPC   NC338819  43.143  17.463   5.553
 7945POPC   PO438820  43.157  17.491   5.853
 7945POPC   GL138821  43.060  17.504   6.153
 7945POPC   GL238822  43.219  17.575   6.153
 7945POPC   C1A38823  43.158  17.523   6.453
 7945POPC   D2A38824  43.129  17.458   6.753
 7945POPC   C3A38825  43.109  17.522   7.053
 7945POPC   C4A38826  43.101  17.536   7.353
 7945POPC   C1B38827  43.310  17.547   6.453
 7945POPC   C2B38828  43.358  17.628   6.753
 7945POPC   C3B38829  43.315  17.587   7.053
 7945POPC   C4B38830  43.323  17.582   7.353
 7946POPC   NC338831   9.783  22.126   5.553
 7946POPC   PO438832   9.701  22.142   5.853
 7946POPC   GL138833   9.753  22.198   6.153
 7946POPC   GL238834   9.834  22.045   6.153
 7946POPC   C1A38835   9.754  22.203   6.453
 7946POPC   D2A38836   9.718  22.186   6.753
 7946POPC   C3A38837   9.731  22.131   7.053
 7946POPC   C4A38838   9.698  22.147   7.353
 7946POPC   C1B38839   9.912  22.041   6.453
 7946POPC   C2B38840   9.949  22.031   6.753
 7946POPC   C3B38841   9.965  22.011   7.053
 7946POPC   C4B38842   9.905  22.050   7.353
 7947POPC   NC338843   2.768  29.906   5.553
 7947POPC   PO438844   2.740  29.871   5.853
 7947POPC   GL138845   2.783  29.905   6.153
 7947POPC   GL238846   2.803  29.780   6.153
 7947POPC   C1A38847   2.763  29.908   6.453
 7947POPC   D2A38848   2.802  29.965   6.753
 7947POPC   C3A38849   2.782  29.924   7.053
 7947POPC   C4A38850   2.774  29.951   7.353
 7947POPC   C1B38851   2.952  29.706   6.453
 7947POPC   C2B38852   2.934  29.678   6.753
 7947POPC   C3B38853   2.912  29.760   7.053
 7947POPC   C4B38854   2.880  29.689   7.353
 7948POPC   NC338855  21.349  38.448   5.553
 7948POPC   PO438856  21.348  38.469   5.853
 7948POPC   GL138857  21.409  38.481   6.153
 7948POPC   GL238858  21.522  38.442   6.153
 7948POPC   C1A38859  21.411  38.490   6.453
 7948POPC   D2A38860  21.389  38.472   6.753
 7948POPC   C3A38861  21.352  38.447   7.053
 7948POPC   C4A38862  21.398  38.458   7.353
 7948POPC   C1B38863  21.640  38.422   6.453
 7948POPC   C2B38864  21.621  38.461   6.753
 7948POPC   C3B38865  21.623  38.464   7.053
 7948POPC   C4B38866  21.646  38.421   7.353
 7949POPC   NC338867  16.727  31.497   5.553
 7949POPC   PO438868  16.728  31.486   5.853
 7949POPC   GL138869  16.755  31.441   6.153
 7949POPC   GL238870  16.676  31.554   6.153
 7949POPC   C1A38871  16.778  31.433   6.453
 7949POPC   D2A38872  16.731  31.511   6.753
 7949POPC   C3A38873  16.713  31.453   7.053
 7949POPC   C4A38874  16.738  31.433   7.353
 7949POPC   C1B38875  16.532  31.602   6.453
 7949POPC   C2B38876  16.536  31.615   6.753
 7949POPC   C3B38877  16.562  31.607   7.053
 7949POPC   C4B38878  16.560  31.561   7.353
 7950POPC   NC338879  38.409  38.505   5.553
 7950POPC   PO438880  38.482  38.484   5.853
 7950POPC   GL138881  38.433  38.435   6.153
 7950POPC   GL238882  38.301  38.476   6.153
 7950POPC   C1A38883  38.443  38.447   6.453
 7950POPC   D2A38884  38.493  38.503   6.753
 7950POPC   C3A38885  38.505  38.502   7.053
 7950POPC   C4A38886  38.487  38.407   7.353
 7950POPC   C1B38887  38.206  38.480   6.453
 7950POPC   C2B38888  38.196  38.414   6.753
 7950POPC   C3B38889  38.218  38.399   7.053
 7950POPC   C4B38890  38.226  38.435   7.353
 7951POPC   NC338891   7.403  30.732   5.553
 7951POPC   PO438892   7.415  30.718   5.853
 7951POPC   GL138893   7.424  30.739   6.153
 7951POPC   GL238894   7.336  30.556   6.153
 7951POPC   C1A38895   7.470  30.718   6.453
 7951POPC   D2A38896   7.427  30.687   6.753
 7951POPC   C3A38897   7.415  30.723   7.053
 7951POPC   C4A38898   7.414  30.727   7.353
 7951POPC   C1B38899   7.351  30.447   6.453
 7951POPC   C2B38900   7.317  30.430   6.753
 7951POPC   C3B38901   7.307  30.456   7.053
 7951POPC   C4B38902   7.287  30.493   7.353
 7952POPC   NC338903  15.930  14.414   5.553
 7952POPC   PO438904  15.957  14.436   5.853
 7952POPC   GL138905  15.991  14.409   6.153
 7952POPC   GL238906  15.951  14.541   6.153
 7952POPC   C1A38907  15.915  14.381   6.453
 7952POPC   D2A38908  15.985  14.410   6.753
 7952POPC   C3A38909  15.978  14.372   7.053
 7952POPC   C4A38910  15.988  14.431   7.353
 7952POPC   C1B38911  15.854  14.693   6.453
 7952POPC   C2B38912  15.866  14.647   6.753
 7952POPC   C3B38913  15.874  14.600   7.053
 7952POPC   C4B38914  15.847  14.603   7.353
 7953POPC   NC338915  43.926  43.102   5.553
 7953POPC   PO438916  43.848  43.099   5.853
 7953POPC   GL138917  43.921  43.070   6.153
 7953POPC   GL238918  43.933  43.033   6.153
 7953POPC   C1A38919  43.890  43.101   6.453
 7953POPC   D2A38920  43.868  43.141   6.753
 7953POPC   C3A38921  43.899  43.118   7.053
 7953POPC   C4A38922  43.865  43.102   7.353
 7953POPC   C1B38923  44.070  42.962   6.453
 7953POPC   C2B38924  44.095  42.904   6.753
 7953POPC   C3B38925  44.052  42.953   7.053
 7953POPC   C4B38926  44.080  42.931   7.353
 7954POPC   NC338927  36.916  10.505   5.553
 7954POPC   PO438928  36.857  10.540   5.853
 7954POPC   GL138929  36.946  10.514   6.153
 7954POPC   GL238930  36.830  10.603   6.153
 7954POPC   C1A38931  36.881  10.562   6.453
 7954POPC   D2A38932  36.892  10.541   6.753
 7954POPC   C3A38933  36.944  10.563   7.053
 7954POPC   C4A38934  36.870  10.515   7.353
 7954POPC   C1B38935  36.710  10.748   6.453
 7954POPC   C2B38936  36.744  10.700   6.753
 7954POPC   C3B38937  36.795  10.694   7.053
 7954POPC   C4B38938  36.730  10.716   7.353
 7955POPC   NC338939   0.419  22.943   5.553
 7955POPC   PO438940   0.442  22.974   5.853
 7955POPC   GL138941   0.458  22.894   6.153
 7955POPC   GL238942   0.594  22.992   6.153
 7955POPC   C1A38943   0.478  22.933   6.453
 7955POPC   D2A38944   0.402  22.969   6.753
 7955POPC   C3A38945   0.472  22.911   7.053
 7955POPC   C4A38946   0.439  22.923   7.353
 7955POPC   C1B38947   0.676  22.971   6.453
 7955POPC   C2B38948   0.678  22.957   6.753
 7955POPC   C3B38949   0.651  22.964   7.053
 7955POPC   C4B38950   0.663  22.933   7.353
 7956POPC   NC338951   0.463  43.936   5.553
 7956POPC   PO438952   0.394  43.848   5.853
 7956POPC   GL138953   0.434  43.890   6.153
 7956POPC   GL238954   0.510  43.952   6.153
 7956POPC   C1A38955   0.444  43.906   6.453
 7956POPC   D2A38956   0.476  43.930   6.753
 7956POPC   C3A38957   0.426  43.935   7.053
 7956POPC   C4A38958   0.456  43.905   7.353
 7956POPC   C1B38959   0.624  44.110   6.453
 7956POPC   C2B38960   0.618  44.072   6.753
 7956POPC   C3B38961   0.642  44.019   7.053
 7956POPC   C4B38962   0.613  44.024   7.353
 7957POPC   NC338963   8.213   5.059   5.553
 7957POPC   PO438964   8.201   5.122   5.853
 7957POPC   GL138965   8.210   5.056   6.153
 7957POPC   GL238966   8.247   5.165   6.153
 7957POPC   C1A38967   8.242   5.140   6.453
 7957POPC   D2A38968   8.223   5.137   6.753
 7957POPC   C3A38969   8.183   5.116   7.053
 7957POPC   C4A38970   8.228   5.055   7.353
 7957POPC   C1B38971   8.300   5.274   6.453
 7957POPC   C2B38972   8.320   5.247   6.753
 7957POPC   C3B38973   8.359   5.275   7.053
 7957POPC   C4B38974   8.374   5.271   7.353
 7958POPC   NC338975  10.477   5.083   5.553
 7958POPC   PO438976  10.484   5.055   5.853
 7958POPC   GL138977  10.491   5.073   6.153
 7958POPC   GL238978  10.470   4.981   6.153
 7958POPC   C1A38979  10.564   5.072   6.453
 7958POPC   D2A38980  10.485   5.112   6.753
 7958POPC   C3A38981  10.549   5.049   7.053
 7958POPC   C4A38982  10.523   5.048   7.353
 7958POPC   C1B38983  10.448   4.832   6.453
 7958POPC   C2B38984  10.517   4.891   6.753
 7958POPC   C3B38985  10.444   4.797   7.053
 7958POPC   C4B38986  10.501   4.842   7.353
 7959POPC   NC338987  24.537   2.035   5.553
 7959POPC   PO438988  24.496   2.029   5.853
 7959POPC   GL138989  24.513   1.972   6.153
 7959POPC   GL238990  24.346   2.056   6.153
 7959POPC   C1A38991  24.484   2.001   6.453
 7959POPC   D2A38992  24.490   2.004   6.753
 7959POPC   C3A38993  24.539   1.988   7.053
 7959POPC   C4A38994  24.466   2.039   7.353
 7959POPC   C1B38995  24.264   2.087   6.453
 7959POPC   C2B38996  24.280   2.047   6.753
 7959POPC   C3B38997  24.274   2.146   7.053
 7959POPC   C4B38998  24.307   2.072   7.353
 7960POPC   NC338999  25.249   2.728   5.553
 7960POPC   PO439000  25.227   2.777   5.853
 7960POPC   GL139001  25.312   2.783   6.153
 7960POPC   GL239002  25.113   2.731   6.153
 7960POPC   C1A39003  25.273   2.815   6.453
 7960POPC   D2A39004  25.314   2.746   6.753
 7960POPC   C3A39005  25.306   2.716   7.053
 7960POPC   C4A39006  25.304   2.766   7.353
 7960POPC   C1B39007  25.054   2.755   6.453
 7960POPC   C2B39008  24.966   2.747   6.753
 7960POPC   C3B39009  25.063   2.757   7.053
 7960POPC   C4B39010  24.981   2.756   7.353
 7961POPC   NC339011  21.361  15.184   5.553
 7961POPC   PO439012  21.371  15.196   5.853
 7961POPC   GL139013  21.402  15.170   6.153
 7961POPC   GL239014  21.327  15.269   6.153
 7961POPC   C1A39015  21.382  15.208   6.453
 7961POPC   D2A39016  21.387  15.211   6.753
 7961POPC   C3A39017  21.406  15.143   7.053
 7961POPC   C4A39018  21.379  15.135   7.353
 7961POPC   C1B39019  21.368  15.454   6.453
 7961POPC   C2B39020  21.308  15.441   6.753
 7961POPC   C3B39021  21.312  15.398   7.053
 7961POPC   C4B39022  21.330  15.409   7.353
 7962POPC   NC339023   1.177   9.744   5.553
 7962POPC   PO439024   1.180   9.703   5.853
 7962POPC   GL139025   1.168   9.706   6.153
 7962POPC   GL239026   1.289   9.654   6.153
 7962POPC   C1A39027   1.239   9.779   6.453
 7962POPC   D2A39028   1.190   9.778   6.753
 7962POPC   C3A39029   1.208   9.793   7.053
 7962POPC   C4A39030   1.245   9.766   7.353
 7962POPC   C1B39031   1.397   9.633   6.453
 7962POPC   C2B39032   1.385   9.628   6.753
 7962POPC   C3B39033   1.391   9.589   7.053
 7962POPC   C4B39034   1.380   9.642   7.353
 7963POPC   NC339035  11.335  22.145   5.553
 7963POPC   PO439036  11.346  22.176   5.853
 7963POPC   GL139037  11.332  22.160   6.153
 7963POPC   GL239038  11.197  22.119   6.153
 7963POPC   C1A39039  11.267  22.212   6.453
 7963POPC   D2A39040  11.254  22.142   6.753
 7963POPC   C3A39041  11.345  22.154   7.053
 7963POPC   C4A39042  11.344  22.149   7.353
 7963POPC   C1B39043  11.062  22.151   6.453
 7963POPC   C2B39044  11.075  22.130   6.753
 7963POPC   C3B39045  11.048  22.099   7.053
 7963POPC   C4B39046  11.088  22.082   7.353
 7964POPC   NC339047   0.482   0.479   5.553
 7964POPC   PO439048   0.446   0.423   5.853
 7964POPC   GL139049   0.439   0.393   6.153
 7964POPC   GL239050   0.526   0.473   6.153
 7964POPC   C1A39051   0.472   0.393   6.453
 7964POPC   D2A39052   0.410   0.458   6.753
 7964POPC   C3A39053   0.476   0.439   7.053
 7964POPC   C4A39054   0.434   0.441   7.353
 7964POPC   C1B39055   0.659   0.485   6.453
 7964POPC   C2B39056   0.642   0.434   6.753
 7964POPC   C3B39057   0.640   0.418   7.053
 7964POPC   C4B39058   0.694   0.493   7.353
 7965POPC   NC339059   1.222  34.617   5.553
 7965POPC   PO439060   1.198  34.590   5.853
 7965POPC   GL139061   1.191  34.577   6.153
 7965POPC   GL239062   1.210  34.677   6.153
 7965POPC   C1A39063   1.253  34.549   6.453
 7965POPC   D2A39064   1.211  34.542   6.753
 7965POPC   C3A39065   1.221  34.598   7.053
 7965POPC   C4A39066   1.225  34.608   7.353
 7965POPC   C1B39067   1.169  34.802   6.453
 7965POPC   C2B39068   1.127  34.857   6.753
 7965POPC   C3B39069   1.151  34.813   7.053
 7965POPC   C4B39070   1.115  34.841   7.353
 7966POPC   NC339071   1.189  19.874   5.553
 7966POPC   PO439072   1.237  19.875   5.853
 7966POPC   GL139073   1.259  19.842   6.153
 7966POPC   GL239074   1.331  19.897   6.153
 7966POPC   C1A39075   1.218  19.797   6.453
 7966POPC   D2A39076   1.201  19.815   6.753
 7966POPC   C3A39077   1.190  19.786   7.053
 7966POPC   C4A39078   1.260  19.835   7.353
 7966POPC   C1B39079   1.360  20.029   6.453
 7966POPC   C2B39080   1.412  20.015   6.753
 7966POPC   C3B39081   1.323  20.003   7.053
 7966POPC   C4B39082   1.357  20.062   7.353
 7967POPC   NC339083  24.454  43.915   5.553
 7967POPC   PO439084  24.505  43.890   5.853
 7967POPC   GL139085  24.509  43.882   6.153
 7967POPC   GL239086  24.425  43.779   6.153
 7967POPC   C1A39087  24.500  43.867   6.453
 7967POPC   D2A39088  24.489  43.878   6.753
 7967POPC   C3A39089  24.504  43.839   7.053
 7967POPC   C4A39090  24.502  43.910   7.353
 7967POPC   C1B39091  24.286  43.718   6.453
 7967POPC   C2B39092  24.307  43.663   6.753
 7967POPC   C3B39093  24.287  43.735   7.053
 7967POPC   C4B39094  24.352  43.665   7.353
 7968POPC   NC339095  40.760  43.838   5.553
 7968POPC   PO439096  40.816  43.891   5.853
 7968POPC   GL139097  40.745  43.867   6.153
 7968POPC   GL239098  40.697  43.792   6.153
 7968POPC   C1A39099  40.743  43.914   6.453
 7968POPC   D2A39100  40.743  43.849   6.753
 7968POPC   C3A39101  40.815  43.927   7.053
 7968POPC   C4A39102  40.827  43.887   7.353
 7968POPC   C1B39103  40.566  43.774   6.453
 7968POPC   C2B39104  40.598  43.753   6.753
 7968POPC   C3B39105  40.546  43.706   7.053
 7968POPC   C4B39106  40.539  43.704   7.353
 7969POPC   NC339107  23.665  13.624   5.553
 7969POPC   PO439108  23.680  13.640   5.853
 7969POPC   GL139109  23.695  13.663   6.153
 7969POPC   GL239110  23.684  13.780   6.153
 7969POPC   C1A39111  23.730  13.592   6.453
 7969POPC   D2A39112  23.704  13.592   6.753
 7969POPC   C3A39113  23.737  13.604   7.053
 7969POPC   C4A39114  23.675  13.677   7.353
 7969POPC   C1B39115  23.750  13.908   6.453
 7969POPC   C2B39116  23.767  13.906   6.753
 7969POPC   C3B39117  23.743  13.896   7.053
 7969POPC   C4B39118  23.748  13.851   7.353
 7970POPC   NC339119  36.125  42.318   5.553
 7970POPC   PO439120  36.141  42.337   5.853
 7970POPC   GL139121  36.103  42.373   6.153
 7970POPC   GL239122  36.039  42.343   6.153
 7970POPC   C1A39123  36.080  42.325   6.453
 7970POPC   D2A39124  36.124  42.301   6.753
 7970POPC   C3A39125  36.128  42.377   7.053
 7970POPC   C4A39126  36.176  42.349   7.353
 7970POPC   C1B39127  35.882  42.368   6.453
 7970POPC   C2B39128  35.890  42.310   6.753
 7970POPC   C3B39129  35.892  42.362   7.053
 7970POPC   C4B39130  35.838  42.402   7.353
 7971POPC   NC339131  36.899  35.303   5.553
 7971POPC   PO439132  36.886  35.368   5.853
 7971POPC   GL139133  36.899  35.349   6.153
 7971POPC   GL239134  36.804  35.289   6.153
 7971POPC   C1A39135  36.914  35.383   6.453
 7971POPC   D2A39136  36.894  35.324   6.753
 7971POPC   C3A39137  36.892  35.357   7.053
 7971POPC   C4A39138  36.875  35.398   7.353
 7971POPC   C1B39139  36.653  35.199   6.453
 7971POPC   C2B39140  36.702  35.203   6.753
 7971POPC   C3B39141  36.653  35.258   7.053
 7971POPC   C4B39142  36.651  35.247   7.353
 7972POPC   NC339143   2.810  26.861   5.553
 7972POPC   PO439144   2.769  26.770   5.853
 7972POPC   GL139145   2.806  26.841   6.153
 7972POPC   GL239146   2.602  26.877   6.153
 7972POPC   C1A39147   2.761  26.771   6.453
 7972POPC   D2A39148   2.770  26.861   6.753
 7972POPC   C3A39149   2.725  26.809   7.053
 7972POPC   C4A39150   2.814  26.786   7.353
 7972POPC   C1B39151   2.471  26.873   6.453
 7972POPC   C2B39152   2.509  26.885   6.753
 7972POPC   C3B39153   2.469  26.887   7.053
 7972POPC   C4B39154   2.501  26.866   7.353
 7973POPC   NC339155  29.924  40.037   5.553
 7973POPC   PO439156  29.878  40.018   5.853
 7973POPC   GL139157  29.937  40.054   6.153
 7973POPC   GL239158  29.953  40.093   6.153
 7973POPC   C1A39159  29.941  39.969   6.453
 7973POPC   D2A39160  29.959  40.021   6.753
 7973POPC   C3A39161  29.883  40.055   7.053
 7973POPC   C4A39162  29.914  40.031   7.353
 7973POPC   C1B39163  29.876  40.224   6.453
 7973POPC   C2B39164  29.929  40.218   6.753
 7973POPC   C3B39165  29.884  40.291   7.053
 7973POPC   C4B39166  29.892  40.213   7.353
 7974POPC   NC339167   6.599  19.072   5.553
 7974POPC   PO439168   6.604  19.069   5.853
 7974POPC   GL139169   6.664  19.072   6.153
 7974POPC   GL239170   6.768  19.044   6.153
 7974POPC   C1A39171   6.602  19.098   6.453
 7974POPC   D2A39172   6.609  19.018   6.753
 7974POPC   C3A39173   6.664  19.070   7.053
 7974POPC   C4A39174   6.687  19.076   7.353
 7974POPC   C1B39175   6.907  19.081   6.453
 7974POPC   C2B39176   6.940  19.091   6.753
 7974POPC   C3B39177   6.940  19.023   7.053
 7974POPC   C4B39178   6.943  19.063   7.353
 7975POPC   NC339179  43.138  13.661   5.553
 7975POPC   PO439180  43.079  13.606   5.853
 7975POPC   GL139181  43.103  13.587   6.153
 7975POPC   GL239182  43.179  13.771   6.153
 7975POPC   C1A39183  43.152  13.578   6.453
 7975POPC   D2A39184  43.094  13.612   6.753
 7975POPC   C3A39185  43.139  13.652   7.053
 7975POPC   C4A39186  43.069  13.651   7.353
 7975POPC   C1B39187  43.191  13.848   6.453
 7975POPC   C2B39188  43.270  13.800   6.753
 7975POPC   C3B39189  43.207  13.812   7.053
 7975POPC   C4B39190  43.208  13.837   7.353
 7976POPC   NC339191  37.710  36.898   5.553
 7976POPC   PO439192  37.682  36.934   5.853
 7976POPC   GL139193  37.692  36.907   6.153
 7976POPC   GL239194  37.784  37.001   6.153
 7976POPC   C1A39195  37.689  36.938   6.453
 7976POPC   D2A39196  37.670  36.895   6.753
 7976POPC   C3A39197  37.651  36.915   7.053
 7976POPC   C4A39198  37.688  36.878   7.353
 7976POPC   C1B39199  37.849  37.152   6.453
 7976POPC   C2B39200  37.825  37.071   6.753
 7976POPC   C3B39201  37.811  37.111   7.053
 7976POPC   C4B39202  37.787  37.065   7.353
 7977POPC   NC339203  43.075  42.355   5.553
 7977POPC   PO439204  43.152  42.301   5.853
 7977POPC   GL139205  43.139  42.317   6.153
 7977POPC   GL239206  43.123  42.477   6.153
 7977POPC   C1A39207  43.090  42.341   6.453
 7977POPC   D2A39208  43.100  42.325   6.753
 7977POPC   C3A39209  43.062  42.304   7.053
 7977POPC   C4A39210  43.078  42.362   7.353
 7977POPC   C1B39211  43.129  42.571   6.453
 7977POPC   C2B39212  43.102  42.618   6.753
 7977POPC   C3B39213  43.158  42.631   7.053
 7977POPC   C4B39214  43.167  42.534   7.353
 7978POPC   NC339215  34.583  40.019   5.553
 7978POPC   PO439216  34.542  40.052   5.853
 7978POPC   GL139217  34.599  40.033   6.153
 7978POPC   GL239218  34.504  39.934   6.153
 7978POPC   C1A39219  34.608  39.968   6.453
 7978POPC   D2A39220  34.620  40.036   6.753
 7978POPC   C3A39221  34.595  39.980   7.053
 7978POPC   C4A39222  34.529  40.021   7.353
 7978POPC   C1B39223  34.463  39.752   6.453
 7978POPC   C2B39224  34.433  39.789   6.753
 7978POPC   C3B39225  34.453  39.758   7.053
 7978POPC   C4B39226  34.436  39.785   7.353
 7979POPC   NC339227  33.783   7.429   5.553
 7979POPC   PO439228  33.801   7.464   5.853
 7979POPC   GL139229  33.807   7.421   6.153
 7979POPC   GL239230  33.893   7.374   6.153
 7979POPC   C1A39231  33.808   7.408   6.453
 7979POPC   D2A39232  33.839   7.438   6.753
 7979POPC   C3A39233  33.830   7.454   7.053
 7979POPC   C4A39234  33.789   7.398   7.353
 7979POPC   C1B39235  33.944   7.214   6.453
 7979POPC   C2B39236  34.010   7.266   6.753
 7979POPC   C3B39237  33.940   7.279   7.053
 7979POPC   C4B39238  33.992   7.258   7.353
 7980POPC   NC339239  31.520  34.563   5.553
 7980POPC   PO439240  31.449  34.557   5.853
 7980POPC   GL139241  31.464  34.594   6.153
 7980POPC   GL239242  31.483  34.477   6.153
 7980POPC   C1A39243  31.522  34.621   6.453
 7980POPC   D2A39244  31.481  34.606   6.753
 7980POPC   C3A39245  31.483  34.601   7.053
 7980POPC   C4A39246  31.501  34.527   7.353
 7980POPC   C1B39247  31.465  34.289   6.453
 7980POPC   C2B39248  31.425  34.328   6.753
 7980POPC   C3B39249  31.447  34.323   7.053
 7980POPC   C4B39250  31.469  34.312   7.353
 7981POPC   NC339251  28.331  38.462   5.553
 7981POPC   PO439252  28.390  38.448   5.853
 7981POPC   GL139253  28.353  38.496   6.153
 7981POPC   GL239254  28.425  38.344   6.153
 7981POPC   C1A39255  28.344  38.460   6.453
 7981POPC   D2A39256  28.327  38.410   6.753
 7981POPC   C3A39257  28.394  38.465   7.053
 7981POPC   C4A39258  28.331  38.409   7.353
 7981POPC   C1B39259  28.511  38.266   6.453
 7981POPC   C2B39260  28.534  38.269   6.753
 7981POPC   C3B39261  28.493  38.293   7.053
 7981POPC   C4B39262  28.561  38.297   7.353
 7982POPC   NC339263  17.532   2.802   5.553
 7982POPC   PO439264  17.551   2.741   5.853
 7982POPC   GL139265  17.485   2.783   6.153
 7982POPC   GL239266  17.607   2.736   6.153
 7982POPC   C1A39267  17.469   2.768   6.453
 7982POPC   D2A39268  17.498   2.796   6.753
 7982POPC   C3A39269  17.523   2.797   7.053
 7982POPC   C4A39270  17.464   2.785   7.353
 7982POPC   C1B39271  17.775   2.722   6.453
 7982POPC   C2B39272  17.754   2.678   6.753
 7982POPC   C3B39273  17.708   2.677   7.053
 7982POPC   C4B39274  17.722   2.693   7.353
 7983POPC   NC339275  43.860   1.961   5.553
 7983POPC   PO439276  43.840   2.001   5.853
 7983POPC   GL139277  43.914   1.977   6.153
 7983POPC   GL239278  43.895   1.921   6.153
 7983POPC   C1A39279  43.869   1.946   6.453
 7983POPC   D2A39280  43.860   2.005   6.753
 7983POPC   C3A39281  43.870   1.945   7.053
 7983POPC   C4A39282  43.857   1.997   7.353
 7983POPC   C1B39283  43.816   1.727   6.453
 7983POPC   C2B39284  43.812   1.707   6.753
 7983POPC   C3B39285  43.766   1.778   7.053
 7983POPC   C4B39286  43.770   1.776   7.353
 7984POPC   NC339287   5.103   5.889   5.553
 7984POPC   PO439288   5.121   5.875   5.853
 7984POPC   GL139289   5.127   5.833   6.153
 7984POPC   GL239290   4.998   5.863   6.153
 7984POPC   C1A39291   5.142   5.908   6.453
 7984POPC   D2A39292   5.054   5.875   6.753
 7984POPC   C3A39293   5.084   5.875   7.053
 7984POPC   C4A39294   5.076   5.858   7.353
 7984POPC   C1B39295   4.897   5.902   6.453
 7984POPC   C2B39296   4.851   5.926   6.753
 7984POPC   C3B39297   4.866   5.964   7.053
 7984POPC   C4B39298   4.808   5.924   7.353
 7985POPC   NC339299   6.682  43.934   5.553
 7985POPC   PO439300   6.620  43.930   5.853
 7985POPC   GL139301   6.612  43.893   6.153
 7985POPC   GL239302   6.602  43.770   6.153
 7985POPC   C1A39303   6.682  43.912   6.453
 7985POPC   D2A39304   6.629  43.891   6.753
 7985POPC   C3A39305   6.634  43.883   7.053
 7985POPC   C4A39306   6.653  43.867   7.353
 7985POPC   C1B39307   6.481  43.720   6.453
 7985POPC   C2B39308   6.443  43.668   6.753
 7985POPC   C3B39309   6.529  43.658   7.053
 7985POPC   C4B39310   6.449  43.678   7.353
 7986POPC   NC339311   1.955  39.228   5.553
 7986POPC   PO439312   1.994  39.269   5.853
 7986POPC   GL139313   1.997  39.224   6.153
 7986POPC   GL239314   1.900  39.314   6.153
 7986POPC   C1A39315   1.970  39.212   6.453
 7986POPC   D2A39316   1.995  39.209   6.753
 7986POPC   C3A39317   2.006  39.183   7.053
 7986POPC   C4A39318   1.996  39.237   7.353
 7986POPC   C1B39319   1.763  39.308   6.453
 7986POPC   C2B39320   1.751  39.346   6.753
 7986POPC   C3B39321   1.703  39.341   7.053
 7986POPC   C4B39322   1.766  39.252   7.353
 7987POPC   NC339323  13.638  28.415   5.553
 7987POPC   PO439324  13.584  28.378   5.853
 7987POPC   GL139325  13.659  28.332   6.153
 7987POPC   GL239326  13.714  28.377   6.153
 7987POPC   C1A39327  13.612  28.408   6.453
 7987POPC   D2A39328  13.615  28.381   6.753
 7987POPC   C3A39329  13.621  28.411   7.053
 7987POPC   C4A39330  13.612  28.340   7.353
 7987POPC   C1B39331  13.842  28.279   6.453
 7987POPC   C2B39332  13.896  28.328   6.753
 7987POPC   C3B39333  13.835  28.353   7.053
 7987POPC   C4B39334  13.901  28.348   7.353
 7988POPC   NC339335  39.233  27.582   5.553
 7988POPC   PO439336  39.266  27.627   5.853
 7988POPC   GL139337  39.248  27.633   6.153
 7988POPC   GL239338  39.166  27.671   6.153
 7988POPC   C1A39339  39.280  27.643   6.453
 7988POPC   D2A39340  39.278  27.552   6.753
 7988POPC   C3A39341  39.256  27.569   7.053
 7988POPC   C4A39342  39.204  27.545   7.353
 7988POPC   C1B39343  39.237  27.854   6.453
 7988POPC   C2B39344  39.249  27.811   6.753
 7988POPC   C3B39345  39.206  27.814   7.053
 7988POPC   C4B39346  39.199  27.856   7.353
 7989POPC   NC339347   1.204  19.095   5.553
 7989POPC   PO439348   1.178  19.103   5.853
 7989POPC   GL139349   1.185  19.067   6.153
 7989POPC   GL239350   1.132  18.990   6.153
 7989POPC   C1A39351   1.242  19.029   6.453
 7989POPC   D2A39352   1.263  19.057   6.753
 7989POPC   C3A39353   1.179  19.012   7.053
 7989POPC   C4A39354   1.230  19.042   7.353
 7989POPC   C1B39355   0.973  19.015   6.453
 7989POPC   C2B39356   0.982  18.974   6.753
 7989POPC   C3B39357   0.991  18.969   7.053
 7989POPC   C4B39358   0.963  19.015   7.353
 7990POPC   NC339359   3.516   2.782   5.553
 7990POPC   PO439360   3.557   2.772   5.853
 7990POPC   GL139361   3.507   2.741   6.153
 7990POPC   GL239362   3.579   2.888   6.153
 7990POPC   C1A39363   3.583   2.800   6.453
 7990POPC   D2A39364   3.538   2.743   6.753
 7990POPC   C3A39365   3.495   2.776   7.053
 7990POPC   C4A39366   3.507   2.739   7.353
 7990POPC   C1B39367   3.577   3.043   6.453
 7990POPC   C2B39368   3.591   3.004   6.753
 7990POPC   C3B39369   3.584   3.009   7.053
 7990POPC   C4B39370   3.568   3.001   7.353
 7991POPC   NC339371  10.504  17.483   5.553
 7991POPC   PO439372  10.570  17.477   5.853
 7991POPC   GL139373  10.476  17.486   6.153
 7991POPC   GL239374  10.405  17.472   6.153
 7991POPC   C1A39375  10.511  17.540   6.453
 7991POPC   D2A39376  10.520  17.488   6.753
 7991POPC   C3A39377  10.561  17.487   7.053
 7991POPC   C4A39378  10.539  17.541   7.353
 7991POPC   C1B39379  10.302  17.517   6.453
 7991POPC   C2B39380  10.312  17.540   6.753
 7991POPC   C3B39381  10.230  17.519   7.053
 7991POPC   C4B39382  10.263  17.494   7.353
 7992POPC   NC339383  12.061  22.193   5.553
 7992POPC   PO439384  12.103  22.191   5.853
 7992POPC   GL139385  12.029  22.144   6.153
 7992POPC   GL239386  11.992  22.250   6.153
 7992POPC   C1A39387  12.052  22.161   6.453
 7992POPC   D2A39388  12.110  22.187   6.753
 7992POPC   C3A39389  12.097  22.182   7.053
 7992POPC   C4A39390  12.044  22.194   7.353
 7992POPC   C1B39391  12.017  22.345   6.453
 7992POPC   C2B39392  11.959  22.390   6.753
 7992POPC   C3B39393  11.956  22.373   7.053
 7992POPC   C4B39394  12.021  22.416   7.353
 7993POPC   NC339395  38.431  26.032   5.553
 7993POPC   PO439396  38.446  25.992   5.853
 7993POPC   GL139397  38.447  25.994   6.153
 7993POPC   GL239398  38.361  25.914   6.153
 7993POPC   C1A39399  38.414  26.052   6.453
 7993POPC   D2A39400  38.441  26.072   6.753
 7993POPC   C3A39401  38.460  26.073   7.053
 7993POPC   C4A39402  38.409  26.077   7.353
 7993POPC   C1B39403  38.237  25.863   6.453
 7993POPC   C2B39404  38.243  25.833   6.753
 7993POPC   C3B39405  38.263  25.899   7.053
 7993POPC   C4B39406  38.289  25.852   7.353
 7994POPC   NC339407  36.171   8.230   5.553
 7994POPC   PO439408  36.169   8.226   5.853
 7994POPC   GL139409  36.142   8.219   6.153
 7994POPC   GL239410  36.104   8.123   6.153
 7994POPC   C1A39411  36.121   8.222   6.453
 7994POPC   D2A39412  36.160   8.168   6.753
 7994POPC   C3A39413  36.096   8.153   7.053
 7994POPC   C4A39414  36.117   8.213   7.353
 7994POPC   C1B39415  36.095   7.976   6.453
 7994POPC   C2B39416  36.083   7.953   6.753
 7994POPC   C3B39417  36.057   7.984   7.053
 7994POPC   C4B39418  36.053   7.956   7.353
 7995POPC   NC339419   3.517  19.032   5.553
 7995POPC   PO439420   3.563  19.024   5.853
 7995POPC   GL139421   3.540  19.040   6.153
 7995POPC   GL239422   3.593  18.969   6.153
 7995POPC   C1A39423   3.527  19.046   6.453
 7995POPC   D2A39424   3.502  19.036   6.753
 7995POPC   C3A39425   3.536  19.106   7.053
 7995POPC   C4A39426   3.494  19.021   7.353
 7995POPC   C1B39427   3.585  18.803   6.453
 7995POPC   C2B39428   3.524  18.763   6.753
 7995POPC   C3B39429   3.604  18.776   7.053
 7995POPC   C4B39430   3.568  18.817   7.353
 7996POPC   NC339431   3.551   4.268   5.553
 7996POPC   PO439432   3.508   4.304   5.853
 7996POPC   GL139433   3.512   4.310   6.153
 7996POPC   GL239434   3.649   4.382   6.153
 7996POPC   C1A39435   3.583   4.272   6.453
 7996POPC   D2A39436   3.591   4.325   6.753
 7996POPC   C3A39437   3.533   4.275   7.053
 7996POPC   C4A39438   3.570   4.354   7.353
 7996POPC   C1B39439   3.682   4.539   6.453
 7996POPC   C2B39440   3.711   4.527   6.753
 7996POPC   C3B39441   3.742   4.525   7.053
 7996POPC   C4B39442   3.678   4.510   7.353
 7997POPC   NC339443  12.071  11.311   5.553
 7997POPC   PO439444  12.099  11.349   5.853
 7997POPC   GL139445  12.087  11.333   6.153
 7997POPC   GL239446  12.220  11.278   6.153
 7997POPC   C1A39447  12.095  11.302   6.453
 7997POPC   D2A39448  12.124  11.286   6.753
 7997POPC   C3A39449  12.090  11.260   7.053
 7997POPC   C4A39450  12.078  11.312   7.353
 7997POPC   C1B39451  12.286  11.345   6.453
 7997POPC   C2B39452  12.308  11.343   6.753
 7997POPC   C3B39453  12.339  11.293   7.053
 7997POPC   C4B39454  12.355  11.266   7.353
 7998POPC   NC339455  28.373  37.671   5.553
 7998POPC   PO439456  28.401  37.668   5.853
 7998POPC   GL139457  28.324  37.705   6.153
 7998POPC   GL239458  28.481  37.731   6.153
 7998POPC   C1A39459  28.411  37.696   6.453
 7998POPC   D2A39460  28.408  37.728   6.753
 7998POPC   C3A39461  28.382  37.670   7.053
 7998POPC   C4A39462  28.356  37.692   7.353
 7998POPC   C1B39463  28.622  37.682   6.453
 7998POPC   C2B39464  28.627  37.654   6.753
 7998POPC   C3B39465  28.570  37.655   7.053
 7998POPC   C4B39466  28.601  37.697   7.353
 7999POPC   NC339467  31.460  15.186   5.553
 7999POPC   PO439468  31.517  15.183   5.853
 7999POPC   GL139469  31.423  15.191   6.153
 7999POPC   GL239470  31.545  15.069   6.153
 7999POPC   C1A39471  31.454  15.200   6.453
 7999POPC   D2A39472  31.470  15.158   6.753
 7999POPC   C3A39473  31.435  15.224   7.053
 7999POPC   C4A39474  31.478  15.173   7.353
 7999POPC   C1B39475  31.648  14.943   6.453
 7999POPC   C2B39476  31.584  14.983   6.753
 7999POPC   C3B39477  31.664  14.942   7.053
 7999POPC   C4B39478  31.630  14.956   7.353
 8000POPC   NC339479  44.704  35.331   5.553
 8000POPC   PO439480  44.613  35.376   5.853
 8000POPC   GL139481  44.644  35.358   6.153
 8000POPC   GL239482  44.706  35.463   6.153
 8000POPC   C1A39483  44.634  35.338   6.453
 8000POPC   D2A39484  44.654  35.372   6.753
 8000POPC   C3A39485  44.638  35.327   7.053
 8000POPC   C4A39486  44.621  35.378   7.353
 8000POPC   C1B39487  44.670  35.580   6.453
 8000POPC   C2B39488  44.616  35.615   6.753
 8000POPC   C3B39489  44.637  35.631   7.053
 8000POPC   C4B39490  44.664  35.623   7.353
 8001POPC   NC339491   5.121  14.424   5.553
 8001POPC   PO439492   5.065  14.439   5.853
 8001POPC   GL139493   5.131  14.383   6.153
 8001POPC   GL239494   5.155  14.303   6.153
 8001POPC   C1A39495   5.067  14.389   6.453
 8001POPC   D2A39496   5.058  14.355   6.753
 8001POPC   C3A39497   5.066  14.448   7.053
 8001POPC   C4A39498   5.103  14.445   7.353
 8001POPC   C1B39499   5.262  14.156   6.453
 8001POPC   C2B39500   5.248  14.227   6.753
 8001POPC   C3B39501   5.169  14.184   7.053
 8001POPC   C4B39502   5.232  14.148   7.353
 8002POPC   NC339503  19.011  22.141   5.553
 8002POPC   PO439504  19.051  22.120   5.853
 8002POPC   GL139505  19.025  22.119   6.153
 8002POPC   GL239506  18.974  22.281   6.153
 8002POPC   C1A39507  19.018  22.201   6.453
 8002POPC   D2A39508  19.028  22.123   6.753
 8002POPC   C3A39509  19.094  22.155   7.053
 8002POPC   C4A39510  19.044  22.136   7.353
 8002POPC   C1B39511  19.006  22.383   6.453
 8002POPC   C2B39512  19.011  22.434   6.753
 8002POPC   C3B39513  19.004  22.436   7.053
 8002POPC   C4B39514  18.941  22.380   7.353
 8003POPC   NC339515  12.872  18.321   5.553
 8003POPC   PO439516  12.877  18.300   5.853
 8003POPC   GL139517  12.822  18.246   6.153
 8003POPC   GL239518  12.709  18.232   6.153
 8003POPC   C1A39519  12.864  18.326   6.453
 8003POPC   D2A39520  12.828  18.281   6.753
 8003POPC   C3A39521  12.858  18.249   7.053
 8003POPC   C4A39522  12.856  18.298   7.353
 8003POPC   C1B39523  12.639  18.316   6.453
 8003POPC   C2B39524  12.637  18.273   6.753
 8003POPC   C3B39525  12.592  18.263   7.053
 8003POPC   C4B39526  12.612  18.307   7.353
 8004POPC   NC339527  36.891  29.156   5.553
 8004POPC   PO439528  36.945  29.122   5.853
 8004POPC   GL139529  36.948  29.132   6.153
 8004POPC   GL239530  37.019  29.136   6.153
 8004POPC   C1A39531  36.922  29.120   6.453
 8004POPC   D2A39532  36.896  29.189   6.753
 8004POPC   C3A39533  36.916  29.176   7.053
 8004POPC   C4A39534  36.857  29.189   7.353
 8004POPC   C1B39535  37.160  29.064   6.453
 8004POPC   C2B39536  37.141  29.058   6.753
 8004POPC   C3B39537  37.139  29.006   7.053
 8004POPC   C4B39538  37.109  29.008   7.353
 8005POPC   NC339539   2.740  33.802   5.553
 8005POPC   PO439540   2.803  33.834   5.853
 8005POPC   GL139541   2.720  33.815   6.153
 8005POPC   GL239542   2.682  33.859   6.153
 8005POPC   C1A39543   2.766  33.817   6.453
 8005POPC   D2A39544   2.783  33.793   6.753
 8005POPC   C3A39545   2.729  33.834   7.053
 8005POPC   C4A39546   2.739  33.823   7.353
 8005POPC   C1B39547   2.502  33.837   6.453
 8005POPC   C2B39548   2.552  33.844   6.753
 8005POPC   C3B39549   2.539  33.838   7.053
 8005POPC   C4B39550   2.488  33.777   7.353
 8006POPC   NC339551  39.249   2.775   5.553
 8006POPC   PO439552  39.182   2.799   5.853
 8006POPC   GL139553  39.181   2.728   6.153
 8006POPC   GL239554  39.127   2.884   6.153
 8006POPC   C1A39555  39.258   2.745   6.453
 8006POPC   D2A39556  39.273   2.784   6.753
 8006POPC   C3A39557  39.225   2.801   7.053
 8006POPC   C4A39558  39.226   2.803   7.353
 8006POPC   C1B39559  39.077   2.969   6.453
 8006POPC   C2B39560  39.003   2.915   6.753
 8006POPC   C3B39561  39.078   2.951   7.053
 8006POPC   C4B39562  39.012   2.941   7.353
 8007POPC   NC339563  17.530  32.287   5.553
 8007POPC   PO439564  17.523  32.297   5.853
 8007POPC   GL139565  17.522  32.257   6.153
 8007POPC   GL239566  17.540  32.166   6.153
 8007POPC   C1A39567  17.463  32.257   6.453
 8007POPC   D2A39568  17.552  32.281   6.753
 8007POPC   C3A39569  17.505  32.208   7.053
 8007POPC   C4A39570  17.532  32.260   7.353
 8007POPC   C1B39571  17.553  31.993   6.453
 8007POPC   C2B39572  17.574  31.973   6.753
 8007POPC   C3B39573  17.568  31.996   7.053
 8007POPC   C4B39574  17.612  31.981   7.353
 8008POPC   NC339575  43.877   0.435   5.553
 8008POPC   PO439576  43.894   0.409   5.853
 8008POPC   GL139577  43.874   0.484   6.153
 8008POPC   GL239578  43.998   0.485   6.153
 8008POPC   C1A39579  43.934   0.404   6.453
 8008POPC   D2A39580  43.876   0.480   6.753
 8008POPC   C3A39581  43.851   0.425   7.053
 8008POPC   C4A39582  43.910   0.481   7.353
 8008POPC   C1B39583  44.149   0.422   6.453
 8008POPC   C2B39584  44.140   0.497   6.753
 8008POPC   C3B39585  44.182   0.441   7.053
 8008POPC   C4B39586  44.149   0.483   7.353
 8009POPC   NC339587  23.717  32.210   5.553
 8009POPC   PO439588  23.760  32.278   5.853
 8009POPC   GL139589  23.714  32.284   6.153
 8009POPC   GL239590  23.549  32.321   6.153
 8009POPC   C1A39591  23.717  32.283   6.453
 8009POPC   D2A39592  23.681  32.241   6.753
 8009POPC   C3A39593  23.706  32.199   7.053
 8009POPC   C4A39594  23.702  32.238   7.353
 8009POPC   C1B39595  23.485  32.321   6.453
 8009POPC   C2B39596  23.530  32.360   6.753
 8009POPC   C3B39597  23.433  32.371   7.053
 8009POPC   C4B39598  23.468  32.362   7.353
 8010POPC   NC339599  22.166   0.449   5.553
 8010POPC   PO439600  22.194   0.480   5.853
 8010POPC   GL139601  22.132   0.443   6.153
 8010POPC   GL239602  22.313   0.389   6.153
 8010POPC   C1A39603  22.159   0.407   6.453
 8010POPC   D2A39604  22.114   0.457   6.753
 8010POPC   C3A39605  22.170   0.467   7.053
 8010POPC   C4A39606  22.157   0.487   7.353
 8010POPC   C1B39607  22.368   0.358   6.453
 8010POPC   C2B39608  22.451   0.375   6.753
 8010POPC   C3B39609  22.449   0.346   7.053
 8010POPC   C4B39610  22.409   0.395   7.353
 8011POPC   NC339611  26.034  29.194   5.553
 8011POPC   PO439612  26.085  29.128   5.853
 8011POPC   GL139613  26.089  29.186   6.153
 8011POPC   GL239614  25.996  29.070   6.153
 8011POPC   C1A39615  26.012  29.100   6.453
 8011POPC   D2A39616  26.035  29.110   6.753
 8011POPC   C3A39617  26.035  29.100   7.053
 8011POPC   C4A39618  26.053  29.103   7.353
 8011POPC   C1B39619  25.941  28.894   6.453
 8011POPC   C2B39620  25.935  28.919   6.753
 8011POPC   C3B39621  25.961  28.879   7.053
 8011POPC   C4B39622  25.946  28.928   7.353
 8012POPC   NC339623   8.969   5.912   5.553
 8012POPC   PO439624   9.022   5.873   5.853
 8012POPC   GL139625   8.992   5.898   6.153
 8012POPC   GL239626   9.129   5.851   6.153
 8012POPC   C1A39627   8.978   5.838   6.453
 8012POPC   D2A39628   8.995   5.913   6.753
 8012POPC   C3A39629   8.952   5.883   7.053
 8012POPC   C4A39630   8.941   5.904   7.353
 8012POPC   C1B39631   9.254   5.907   6.453
 8012POPC   C2B39632   9.181   5.926   6.753
 8012POPC   C3B39633   9.265   5.949   7.053
 8012POPC   C4B39634   9.171   5.896   7.353
 8013POPC   NC339635  43.838  15.951   5.553
 8013POPC   PO439636  43.899  15.963   5.853
 8013POPC   GL139637  43.861  16.005   6.153
 8013POPC   GL239638  44.058  15.925   6.153
 8013POPC   C1A39639  43.890  15.975   6.453
 8013POPC   D2A39640  43.885  15.991   6.753
 8013POPC   C3A39641  43.902  15.926   7.053
 8013POPC   C4A39642  43.838  15.949   7.353
 8013POPC   C1B39643  44.137  15.952   6.453
 8013POPC   C2B39644  44.119  15.981   6.753
 8013POPC   C3B39645  44.089  15.970   7.053
 8013POPC   C4B39646  44.146  15.927   7.353
 8014POPC   NC339647  16.759   1.227   5.553
 8014POPC   PO439648  16.726   1.245   5.853
 8014POPC   GL139649  16.721   1.233   6.153
 8014POPC   GL239650  16.620   1.317   6.153
 8014POPC   C1A39651  16.764   1.232   6.453
 8014POPC   D2A39652  16.739   1.203   6.753
 8014POPC   C3A39653  16.776   1.231   7.053
 8014POPC   C4A39654  16.765   1.233   7.353
 8014POPC   C1B39655  16.531   1.428   6.453
 8014POPC   C2B39656  16.587   1.430   6.753
 8014POPC   C3B39657  16.537   1.419   7.053
 8014POPC   C4B39658  16.525   1.381   7.353
 8015POPC   NC339659   3.514   7.412   5.553
 8015POPC   PO439660   3.557   7.442   5.853
 8015POPC   GL139661   3.502   7.445   6.153
 8015POPC   GL239662   3.699   7.371   6.153
 8015POPC   C1A39663   3.558   7.429   6.453
 8015POPC   D2A39664   3.574   7.426   6.753
 8015POPC   C3A39665   3.519   7.444   7.053
 8015POPC   C4A39666   3.495   7.436   7.353
 8015POPC   C1B39667   3.729   7.295   6.453
 8015POPC   C2B39668   3.781   7.327   6.753
 8015POPC   C3B39669   3.760   7.386   7.053
 8015POPC   C4B39670   3.767   7.313   7.353
 8016POPC   NC339671   2.769   8.235   5.553
 8016POPC   PO439672   2.811   8.178   5.853
 8016POPC   GL139673   2.751   8.177   6.153
 8016POPC   GL239674   2.652   8.054   6.153
 8016POPC   C1A39675   2.778   8.203   6.453
 8016POPC   D2A39676   2.723   8.169   6.753
 8016POPC   C3A39677   2.760   8.244   7.053
 8016POPC   C4A39678   2.739   8.172   7.353
 8016POPC   C1B39679   2.657   8.039   6.453
 8016POPC   C2B39680   2.611   8.019   6.753
 8016POPC   C3B39681   2.571   7.980   7.053
 8016POPC   C4B39682   2.643   8.000   7.353
 8017POPC   NC339683  40.741   5.862   5.553
 8017POPC   PO439684  40.752   5.909   5.853
 8017POPC   GL139685  40.825   5.823   6.153
 8017POPC   GL239686  40.671   5.849   6.153
 8017POPC   C1A39687  40.756   5.911   6.453
 8017POPC   D2A39688  40.815   5.908   6.753
 8017POPC   C3A39689  40.786   5.883   7.053
 8017POPC   C4A39690  40.832   5.909   7.353
 8017POPC   C1B39691  40.580   5.918   6.453
 8017POPC   C2B39692  40.514   5.876   6.753
 8017POPC   C3B39693  40.492   5.920   7.053
 8017POPC   C4B39694  40.504   5.857   7.353
 8018POPC   NC339695  35.377   8.973   5.553
 8018POPC   PO439696  35.398   8.925   5.853
 8018POPC   GL139697  35.365   8.951   6.153
 8018POPC   GL239698  35.382   9.075   6.153
 8018POPC   C1A39699  35.386   8.972   6.453
 8018POPC   D2A39700  35.364   9.012   6.753
 8018POPC   C3A39701  35.402   8.966   7.053
 8018POPC   C4A39702  35.339   8.978   7.353
 8018POPC   C1B39703  35.395   9.197   6.453
 8018POPC   C2B39704  35.389   9.251   6.753
 8018POPC   C3B39705  35.378   9.187   7.053
 8018POPC   C4B39706  35.429   9.247   7.353
 8019POPC   NC339707  26.039  37.644   5.553
 8019POPC   PO439708  26.078  37.680   5.853
 8019POPC   GL139709  26.025  37.656   6.153
 8019POPC   GL239710  26.103  37.753   6.153
 8019POPC   C1A39711  26.002  37.637   6.453
 8019POPC   D2A39712  26.045  37.673   6.753
 8019POPC   C3A39713  26.030  37.649   7.053
 8019POPC   C4A39714  26.022  37.646   7.353
 8019POPC   C1B39715  26.244  37.840   6.453
 8019POPC   C2B39716  26.205  37.910   6.753
 8019POPC   C3B39717  26.201  37.848   7.053
 8019POPC   C4B39718  26.222  37.882   7.353
 8020POPC   NC339719  10.519  41.516   5.553
 8020POPC   PO439720  10.543  41.590   5.853
 8020POPC   GL139721  10.551  41.592   6.153
 8020POPC   GL239722  10.530  41.678   6.153
 8020POPC   C1A39723  10.565  41.529   6.453
 8020POPC   D2A39724  10.528  41.521   6.753
 8020POPC   C3A39725  10.548  41.568   7.053
 8020POPC   C4A39726  10.568  41.556   7.353
 8020POPC   C1B39727  10.440  41.775   6.453
 8020POPC   C2B39728  10.481  41.854   6.753
 8020POPC   C3B39729  10.436  41.790   7.053
 8020POPC   C4B39730  10.514  41.855   7.353
 8021POPC   NC339731  22.944  35.306   5.553
 8021POPC   PO439732  22.893  35.328   5.853
 8021POPC   GL139733  22.935  35.315   6.153
 8021POPC   GL239734  23.041  35.259   6.153
 8021POPC   C1A39735  22.954  35.326   6.453
 8021POPC   D2A39736  22.951  35.393   6.753
 8021POPC   C3A39737  22.978  35.305   7.053
 8021POPC   C4A39738  22.904  35.398   7.353
 8021POPC   C1B39739  23.211  35.306   6.453
 8021POPC   C2B39740  23.217  35.237   6.753
 8021POPC   C3B39741  23.137  35.273   7.053
 8021POPC   C4B39742  23.123  35.285   7.353
 8022POPC   NC339743   5.858  20.630   5.553
 8022POPC   PO439744   5.878  20.624   5.853
 8022POPC   GL139745   5.891  20.562   6.153
 8022POPC   GL239746   5.743  20.700   6.153
 8022POPC   C1A39747   5.890  20.652   6.453
 8022POPC   D2A39748   5.825  20.580   6.753
 8022POPC   C3A39749   5.827  20.653   7.053
 8022POPC   C4A39750   5.876  20.572   7.353
 8022POPC   C1B39751   5.685  20.760   6.453
 8022POPC   C2B39752   5.655  20.806   6.753
 8022POPC   C3B39753   5.724  20.839   7.053
 8022POPC   C4B39754   5.676  20.793   7.353
 8023POPC   NC339755   4.303  12.063   5.553
 8023POPC   PO439756   4.330  12.094   5.853
 8023POPC   GL139757   4.296  12.035   6.153
 8023POPC   GL239758   4.459  12.075   6.153
 8023POPC   C1A39759   4.285  12.056   6.453
 8023POPC   D2A39760   4.341  12.106   6.753
 8023POPC   C3A39761   4.302  12.112   7.053
 8023POPC   C4A39762   4.341  12.043   7.353
 8023POPC   C1B39763   4.537  12.114   6.453
 8023POPC   C2B39764   4.510  12.172   6.753
 8023POPC   C3B39765   4.527  12.150   7.053
 8023POPC   C4B39766   4.535  12.122   7.353
 8024POPC   NC339767  21.344  29.111   5.553
 8024POPC   PO439768  21.420  29.099   5.853
 8024POPC   GL139769  21.433  29.118   6.153
 8024POPC   GL239770  21.413  29.223   6.153
 8024POPC   C1A39771  21.358  29.171   6.453
 8024POPC   D2A39772  21.349  29.152   6.753
 8024POPC   C3A39773  21.409  29.134   7.053
 8024POPC   C4A39774  21.363  29.099   7.353
 8024POPC   C1B39775  21.566  29.361   6.453
 8024POPC   C2B39776  21.474  29.379   6.753
 8024POPC   C3B39777  21.543  29.381   7.053
 8024POPC   C4B39778  21.513  29.396   7.353
 8025POPC   NC339779  16.718   7.430   5.553
 8025POPC   PO439780  16.726   7.431   5.853
 8025POPC   GL139781  16.752   7.458   6.153
 8025POPC   GL239782  16.656   7.370   6.153
 8025POPC   C1A39783  16.730   7.424   6.453
 8025POPC   D2A39784  16.699   7.404   6.753
 8025POPC   C3A39785  16.690   7.442   7.053
 8025POPC   C4A39786  16.773   7.451   7.353
 8025POPC   C1B39787  16.490   7.373   6.453
 8025POPC   C2B39788  16.461   7.368   6.753
 8025POPC   C3B39789  16.486   7.389   7.053
 8025POPC   C4B39790  16.477   7.345   7.353
 8026POPC   NC339791  17.461  14.372   5.553
 8026POPC   PO439792  17.554  14.367   5.853
 8026POPC   GL139793  17.507  14.401   6.153
 8026POPC   GL239794  17.676  14.369   6.153
 8026POPC   C1A39795  17.533  14.431   6.453
 8026POPC   D2A39796  17.524  14.434   6.753
 8026POPC   C3A39797  17.484  14.367   7.053
 8026POPC   C4A39798  17.531  14.411   7.353
 8026POPC   C1B39799  17.727  14.324   6.453
 8026POPC   C2B39800  17.728  14.341   6.753
 8026POPC   C3B39801  17.771  14.319   7.053
 8026POPC   C4B39802  17.781  14.288   7.353
 8027POPC   NC339803  11.293   5.077   5.553
 8027POPC   PO439804  11.300   5.097   5.853
 8027POPC   GL139805  11.335   5.084   6.153
 8027POPC   GL239806  11.214   4.994   6.153
 8027POPC   C1A39807  11.312   5.057   6.453
 8027POPC   D2A39808  11.313   5.053   6.753
 8027POPC   C3A39809  11.298   5.103   7.053
 8027POPC   C4A39810  11.275   5.088   7.353
 8027POPC   C1B39811  11.179   4.868   6.453
 8027POPC   C2B39812  11.186   4.905   6.753
 8027POPC   C3B39813  11.107   4.861   7.053
 8027POPC   C4B39814  11.115   4.942   7.353
 8028POPC   NC339815  39.216  33.031   5.553
 8028POPC   PO439816  39.228  33.000   5.853
 8028POPC   GL139817  39.279  33.060   6.153
 8028POPC   GL239818  39.165  33.119   6.153
 8028POPC   C1A39819  39.185  33.036   6.453
 8028POPC   D2A39820  39.240  33.029   6.753
 8028POPC   C3A39821  39.211  32.977   7.053
 8028POPC   C4A39822  39.279  33.036   7.353
 8028POPC   C1B39823  39.142  33.268   6.453
 8028POPC   C2B39824  39.121  33.220   6.753
 8028POPC   C3B39825  39.125  33.279   7.053
 8028POPC   C4B39826  39.175  33.215   7.353
 8029POPC   NC339827  20.650  22.983   5.553
 8029POPC   PO439828  20.563  22.968   5.853
 8029POPC   GL139829  20.611  22.974   6.153
 8029POPC   GL239830  20.646  22.864   6.153
 8029POPC   C1A39831  20.599  22.933   6.453
 8029POPC   D2A39832  20.586  22.928   6.753
 8029POPC   C3A39833  20.600  22.921   7.053
 8029POPC   C4A39834  20.592  22.979   7.353
 8029POPC   C1B39835  20.690  22.728   6.453
 8029POPC   C2B39836  20.612  22.665   6.753
 8029POPC   C3B39837  20.634  22.679   7.053
 8029POPC   C4B39838  20.649  22.711   7.353
 8030POPC   NC339839  19.875  19.788   5.553
 8030POPC   PO439840  19.850  19.804   5.853
 8030POPC   GL139841  19.854  19.804   6.153
 8030POPC   GL239842  19.799  19.984   6.153
 8030POPC   C1A39843  19.848  19.828   6.453
 8030POPC   D2A39844  19.843  19.827   6.753
 8030POPC   C3A39845  19.788  19.875   7.053
 8030POPC   C4A39846  19.861  19.864   7.353
 8030POPC   C1B39847  19.701  20.005   6.453
 8030POPC   C2B39848  19.718  20.014   6.753
 8030POPC   C3B39849  19.659  20.070   7.053
 8030POPC   C4B39850  19.702  20.029   7.353
 8031POPC   NC339851   4.295  11.319   5.553
 8031POPC   PO439852   4.366  11.276   5.853
 8031POPC   GL139853   4.315  11.347   6.153
 8031POPC   GL239854   4.374  11.399   6.153
 8031POPC   C1A39855   4.327  11.347   6.453
 8031POPC   D2A39856   4.344  11.346   6.753
 8031POPC   C3A39857   4.296  11.322   7.053
 8031POPC   C4A39858   4.346  11.288   7.353
 8031POPC   C1B39859   4.434  11.530   6.453
 8031POPC   C2B39860   4.453  11.490   6.753
 8031POPC   C3B39861   4.445  11.509   7.053
 8031POPC   C4B39862   4.435  11.503   7.353
 8032POPC   NC339863   7.395   0.410   5.553
 8032POPC   PO439864   7.445   0.448   5.853
 8032POPC   GL139865   7.459   0.467   6.153
 8032POPC   GL239866   7.345   0.565   6.153
 8032POPC   C1A39867   7.404   0.447   6.453
 8032POPC   D2A39868   7.389   0.445   6.753
 8032POPC   C3A39869   7.438   0.432   7.053
 8032POPC   C4A39870   7.452   0.488   7.353
 8032POPC   C1B39871   7.246   0.603   6.453
 8032POPC   C2B39872   7.280   0.583   6.753
 8032POPC   C3B39873   7.242   0.601   7.053
 8032POPC   C4B39874   7.295   0.656   7.353
 8033POPC   NC339875  26.084  13.610   5.553
 8033POPC   PO439876  26.057  13.675   5.853
 8033POPC   GL139877  26.074  13.660   6.153
 8033POPC   GL239878  26.142  13.510   6.153
 8033POPC   C1A39879  25.995  13.624   6.453
 8033POPC   D2A39880  25.999  13.584   6.753
 8033POPC   C3A39881  26.071  13.652   7.053
 8033POPC   C4A39882  26.087  13.626   7.353
 8033POPC   C1B39883  26.190  13.418   6.453
 8033POPC   C2B39884  26.119  13.407   6.753
 8033POPC   C3B39885  26.168  13.434   7.053
 8033POPC   C4B39886  26.147  13.372   7.353
 8034POPC   NC339887  43.131  29.956   5.553
 8034POPC   PO439888  43.077  29.906   5.853
 8034POPC   GL139889  43.066  29.964   6.153
 8034POPC   GL239890  43.044  29.813   6.153
 8034POPC   C1A39891  43.085  29.941   6.453
 8034POPC   D2A39892  43.079  29.936   6.753
 8034POPC   C3A39893  43.138  29.932   7.053
 8034POPC   C4A39894  43.103  29.937   7.353
 8034POPC   C1B39895  43.033  29.694   6.453
 8034POPC   C2B39896  43.076  29.678   6.753
 8034POPC   C3B39897  43.000  29.654   7.053
 8034POPC   C4B39898  43.071  29.687   7.353
 8035POPC   NC339899   6.627  28.407   5.553
 8035POPC   PO439900   6.667  28.382   5.853
 8035POPC   GL139901   6.661  28.360   6.153
 8035POPC   GL239902   6.534  28.268   6.153
 8035POPC   C1A39903   6.668  28.411   6.453
 8035POPC   D2A39904   6.686  28.359   6.753
 8035POPC   C3A39905   6.642  28.380   7.053
 8035POPC   C4A39906   6.636  28.404   7.353
 8035POPC   C1B39907   6.433  28.186   6.453
 8035POPC   C2B39908   6.450  28.218   6.753
 8035POPC   C3B39909   6.506  28.191   7.053
 8035POPC   C4B39910   6.431  28.207   7.353
 8036POPC   NC339911  22.943  26.793   5.553
 8036POPC   PO439912  22.959  26.790   5.853
 8036POPC   GL139913  22.936  26.860   6.153
 8036POPC   GL239914  23.050  26.854   6.153
 8036POPC   C1A39915  22.889  26.802   6.453
 8036POPC   D2A39916  22.904  26.793   6.753
 8036POPC   C3A39917  22.894  26.864   7.053
 8036POPC   C4A39918  22.986  26.864   7.353
 8036POPC   C1B39919  23.144  26.886   6.453
 8036POPC   C2B39920  23.129  26.912   6.753
 8036POPC   C3B39921  23.204  26.922   7.053
 8036POPC   C4B39922  23.186  26.936   7.353
 8037POPC   NC339923  36.177  28.391   5.553
 8037POPC   PO439924  36.148  28.381   5.853
 8037POPC   GL139925  36.125  28.416   6.153
 8037POPC   GL239926  36.058  28.261   6.153
 8037POPC   C1A39927  36.091  28.385   6.453
 8037POPC   D2A39928  36.167  28.346   6.753
 8037POPC   C3A39929  36.163  28.407   7.053
 8037POPC   C4A39930  36.166  28.328   7.353
 8037POPC   C1B39931  35.989  28.194   6.453
 8037POPC   C2B39932  35.948  28.189   6.753
 8037POPC   C3B39933  35.950  28.160   7.053
 8037POPC   C4B39934  35.923  28.185   7.353
 8038POPC   NC339935  26.026   1.229   5.553
 8038POPC   PO439936  26.002   1.216   5.853
 8038POPC   GL139937  26.003   1.231   6.153
 8038POPC   GL239938  25.986   1.342   6.153
 8038POPC   C1A39939  26.009   1.260   6.453
 8038POPC   D2A39940  26.000   1.214   6.753
 8038POPC   C3A39941  26.053   1.247   7.053
 8038POPC   C4A39942  26.001   1.183   7.353
 8038POPC   C1B39943  25.987   1.422   6.453
 8038POPC   C2B39944  25.975   1.467   6.753
 8038POPC   C3B39945  25.967   1.488   7.053
 8038POPC   C4B39946  26.004   1.441   7.353
 8039POPC   NC339947  22.118  13.600   5.553
 8039POPC   PO439948  22.146  13.612   5.853
 8039POPC   GL139949  22.143  13.673   6.153
 8039POPC   GL239950  22.048  13.568   6.153
 8039POPC   C1A39951  22.203  13.580   6.453
 8039POPC   D2A39952  22.191  13.615   6.753
 8039POPC   C3A39953  22.175  13.671   7.053
 8039POPC   C4A39954  22.202  13.647   7.353
 8039POPC   C1B39955  21.915  13.530   6.453
 8039POPC   C2B39956  21.905  13.573   6.753
 8039POPC   C3B39957  21.937  13.554   7.053
 8039POPC   C4B39958  21.930  13.523   7.353
 8040POPC   NC339959   4.268  44.660   5.553
 8040POPC   PO439960   4.301  44.670   5.853
 8040POPC   GL139961   4.323  44.689   6.153
 8040POPC   GL239962   4.189  44.583   6.153
 8040POPC   C1A39963   4.278  44.613   6.453
 8040POPC   D2A39964   4.274  44.624   6.753
 8040POPC   C3A39965   4.307  44.648   7.053
 8040POPC   C4A39966   4.364  44.680   7.353
 8040POPC   C1B39967   4.148  44.504   6.453
 8040POPC   C2B39968   4.156  44.550   6.753
 8040POPC   C3B39969   4.122  44.571   7.053
 8040POPC   C4B39970   4.080  44.557   7.353
 8041POPC   NC339971   8.184   2.775   5.553
 8041POPC   PO439972   8.220   2.717   5.853
 8041POPC   GL139973   8.237   2.736   6.153
 8041POPC   GL239974   8.241   2.825   6.153
 8041POPC   C1A39975   8.243   2.812   6.453
 8041POPC   D2A39976   8.174   2.749   6.753
 8041POPC   C3A39977   8.221   2.795   7.053
 8041POPC   C4A39978   8.223   2.757   7.353
 8041POPC   C1B39979   8.323   3.007   6.453
 8041POPC   C2B39980   8.304   2.933   6.753
 8041POPC   C3B39981   8.352   2.921   7.053
 8041POPC   C4B39982   8.344   3.009   7.353
 8042POPC   NC339983   0.479  31.465   5.553
 8042POPC   PO439984   0.413  31.517   5.853
 8042POPC   GL139985   0.412  31.438   6.153
 8042POPC   GL239986   0.575  31.509   6.153
 8042POPC   C1A39987   0.476  31.481   6.453
 8042POPC   D2A39988   0.398  31.506   6.753
 8042POPC   C3A39989   0.457  31.432   7.053
 8042POPC   C4A39990   0.465  31.430   7.353
 8042POPC   C1B39991   0.650  31.578   6.453
 8042POPC   C2B39992   0.708  31.565   6.753
 8042POPC   C3B39993   0.701  31.572   7.053
 8042POPC   C4B39994   0.629  31.587   7.353
 8043POPC   NC339995  22.157  25.251   5.553
 8043POPC   PO439996  22.195  25.232   5.853
 8043POPC   GL139997  22.209  25.288   6.153
 8043POPC   GL239998  22.239  25.103   6.153
 8043POPC   C1A39999  22.197  25.224   6.453
 8043POPC   D2A40000  22.123  25.240   6.753
 8043POPC   C3A40001  22.195  25.300   7.053
 8043POPC   C4A40002  22.113  25.231   7.353
 8043POPC   C1B40003  22.224  25.013   6.453
 8043POPC   C2B40004  22.269  25.007   6.753
 8043POPC   C3B40005  22.259  25.070   7.053
 8043POPC   C4B40006  22.242  25.043   7.353
 8044POPC   NC340007   7.440  36.168   5.553
 8044POPC   PO440008   7.403  36.094   5.853
 8044POPC   GL140009   7.378  36.081   6.153
 8044POPC   GL240010   7.336  36.093   6.153
 8044POPC   C1A40011   7.409  36.121   6.453
 8044POPC   D2A40012   7.376  36.139   6.753
 8044POPC   C3A40013   7.455  36.139   7.053
 8044POPC   C4A40014   7.446  36.156   7.353
 8044POPC   C1B40015   7.174  36.010   6.453
 8044POPC   C2B40016   7.213  35.963   6.753
 8044POPC   C3B40017   7.203  36.013   7.053
 8044POPC   C4B40018   7.180  35.961   7.353
 8045POPC   NC340019  35.336  43.121   5.553
 8045POPC   PO440020  35.328  43.075   5.853
 8045POPC   GL140021  35.316  43.124   6.153
 8045POPC   GL240022  35.407  43.184   6.153
 8045POPC   C1A40023  35.313  43.146   6.453
 8045POPC   D2A40024  35.386  43.108   6.753
 8045POPC   C3A40025  35.314  43.061   7.053
 8045POPC   C4A40026  35.347  43.081   7.353
 8045POPC   C1B40027  35.505  43.243   6.453
 8045POPC   C2B40028  35.585  43.309   6.753
 8045POPC   C3B40029  35.579  43.233   7.053
 8045POPC   C4B40030  35.524  43.253   7.353
 8046POPC   NC340031  19.835  13.580   5.553
 8046POPC   PO440032  19.799  13.582   5.853
 8046POPC   GL140033  19.795  13.664   6.153
 8046POPC   GL240034  19.851  13.539   6.153
 8046POPC   C1A40035  19.826  13.658   6.453
 8046POPC   D2A40036  19.876  13.604   6.753
 8046POPC   C3A40037  19.818  13.660   7.053
 8046POPC   C4A40038  19.791  13.671   7.353
 8046POPC   C1B40039  19.864  13.371   6.453
 8046POPC   C2B40040  19.869  13.422   6.753
 8046POPC   C3B40041  19.901  13.364   7.053
 8046POPC   C4B40042  19.901  13.347   7.353
 8047POPC   NC340043  36.865   9.766   5.553
 8047POPC   PO440044  36.870   9.768   5.853
 8047POPC   GL140045  36.873   9.704   6.153
 8047POPC   GL240046  36.819   9.682   6.153
 8047POPC   C1A40047  36.938   9.733   6.453
 8047POPC   D2A40048  36.925   9.731   6.753
 8047POPC   C3A40049  36.871   9.778   7.053
 8047POPC   C4A40050  36.869   9.753   7.353
 8047POPC   C1B40051  36.728   9.576   6.453
 8047POPC   C2B40052  36.694   9.636   6.753
 8047POPC   C3B40053  36.704   9.602   7.053
 8047POPC   C4B40054  36.670   9.556   7.353
 8048POPC   NC340055  22.114  33.006   5.553
 8048POPC   PO440056  22.187  33.035   5.853
 8048POPC   GL140057  22.206  33.042   6.153
 8048POPC   GL240058  22.242  32.960   6.153
 8048POPC   C1A40059  22.156  32.981   6.453
 8048POPC   D2A40060  22.165  33.040   6.753
 8048POPC   C3A40061  22.202  32.975   7.053
 8048POPC   C4A40062  22.133  32.985   7.353
 8048POPC   C1B40063  22.409  32.857   6.453
 8048POPC   C2B40064  22.399  32.896   6.753
 8048POPC   C3B40065  22.394  32.931   7.053
 8048POPC   C4B40066  22.373  32.868   7.353
 8049POPC   NC340067   1.231  21.425   5.553
 8049POPC   PO440068   1.226  21.436   5.853
 8049POPC   GL140069   1.215  21.408   6.153
 8049POPC   GL240070   1.146  21.460   6.153
 8049POPC   C1A40071   1.253  21.353   6.453
 8049POPC   D2A40072   1.203  21.355   6.753
 8049POPC   C3A40073   1.210  21.434   7.053
 8049POPC   C4A40074   1.178  21.381   7.353
 8049POPC   C1B40075   1.097  21.577   6.453
 8049POPC   C2B40076   1.089  21.569   6.753
 8049POPC   C3B40077   1.065  21.573   7.053
 8049POPC   C4B40078   1.071  21.636   7.353
 8050POPC   NC340079  29.922  34.579   5.553
 8050POPC   PO440080  29.910  34.609   5.853
 8050POPC   GL140081  29.874  34.549   6.153
 8050POPC   GL240082  30.000  34.541   6.153
 8050POPC   C1A40083  29.912  34.595   6.453
 8050POPC   D2A40084  29.923  34.602   6.753
 8050POPC   C3A40085  29.902  34.586   7.053
 8050POPC   C4A40086  29.957  34.588   7.353
 8050POPC   C1B40087  30.167  34.522   6.453
 8050POPC   C2B40088  30.178  34.552   6.753
 8050POPC   C3B40089  30.156  34.567   7.053
 8050POPC   C4B40090  30.187  34.517   7.353
 8051POPC   NC340091  13.627  30.731   5.553
 8051POPC   PO440092  13.593  30.742   5.853
 8051POPC   GL140093  13.634  30.714   6.153
 8051POPC   GL240094  13.680  30.858   6.153
 8051POPC   C1A40095  13.613  30.704   6.453
 8051POPC   D2A40096  13.656  30.693   6.753
 8051POPC   C3A40097  13.590  30.653   7.053
 8051POPC   C4A40098  13.637  30.716   7.353
 8051POPC   C1B40099  13.618  30.918   6.453
 8051POPC   C2B40100  13.631  30.927   6.753
 8051POPC   C3B40101  13.638  30.992   7.053
 8051POPC   C4B40102  13.670  30.907   7.353
 8052POPC   NC340103   3.580  36.146   5.553
 8052POPC   PO440104   3.557  36.142   5.853
 8052POPC   GL140105   3.577  36.118   6.153
 8052POPC   GL240106   3.406  36.054   6.153
 8052POPC   C1A40107   3.565  36.162   6.453
 8052POPC   D2A40108   3.539  36.082   6.753
 8052POPC   C3A40109   3.552  36.098   7.053
 8052POPC   C4A40110   3.530  36.087   7.353
 8052POPC   C1B40111   3.329  36.024   6.453
 8052POPC   C2B40112   3.306  36.043   6.753
 8052POPC   C3B40113   3.352  35.987   7.053
 8052POPC   C4B40114   3.350  35.991   7.353
 8053POPC   NC340115  36.887  38.457   5.553
 8053POPC   PO440116  36.915  38.451   5.853
 8053POPC   GL140117  36.884  38.432   6.153
 8053POPC   GL240118  37.046  38.386   6.153
 8053POPC   C1A40119  36.898  38.485   6.453
 8053POPC   D2A40120  36.908  38.432   6.753
 8053POPC   C3A40121  36.918  38.504   7.053
 8053POPC   C4A40122  36.872  38.464   7.353
 8053POPC   C1B40123  37.184  38.382   6.453
 8053POPC   C2B40124  37.121  38.321   6.753
 8053POPC   C3B40125  37.151  38.397   7.053
 8053POPC   C4B40126  37.143  38.397   7.353
 8054POPC   NC340127  43.845  20.578   5.553
 8054POPC   PO440128  43.877  20.632   5.853
 8054POPC   GL140129  43.925  20.633   6.153
 8054POPC   GL240130  44.045  20.642   6.153
 8054POPC   C1A40131  43.855  20.623   6.453
 8054POPC   D2A40132  43.924  20.612   6.753
 8054POPC   C3A40133  43.890  20.649   7.053
 8054POPC   C4A40134  43.845  20.582   7.353
 8054POPC   C1B40135  44.177  20.596   6.453
 8054POPC   C2B40136  44.155  20.580   6.753
 8054POPC   C3B40137  44.153  20.639   7.053
 8054POPC   C4B40138  44.137  20.576   7.353
 8055POPC   NC340139   7.420  41.522   5.553
 8055POPC   PO440140   7.441  41.584   5.853
 8055POPC   GL140141   7.375  41.588   6.153
 8055POPC   GL240142   7.526  41.709   6.153
 8055POPC   C1A40143   7.373  41.580   6.453
 8055POPC   D2A40144   7.373  41.546   6.753
 8055POPC   C3A40145   7.380  41.556   7.053
 8055POPC   C4A40146   7.466  41.509   7.353
 8055POPC   C1B40147   7.596  41.772   6.453
 8055POPC   C2B40148   7.554  41.723   6.753
 8055POPC   C3B40149   7.561  41.724   7.053
 8055POPC   C4B40150   7.536  41.730   7.353
 8056POPC   NC340151  29.103  27.582   5.553
 8056POPC   PO440152  29.152  27.582   5.853
 8056POPC   GL140153  29.175  27.583   6.153
 8056POPC   GL240154  29.227  27.716   6.153
 8056POPC   C1A40155  29.174  27.556   6.453
 8056POPC   D2A40156  29.183  27.590   6.753
 8056POPC   C3A40157  29.124  27.604   7.053
 8056POPC   C4A40158  29.125  27.553   7.353
 8056POPC   C1B40159  29.358  27.760   6.453
 8056POPC   C2B40160  29.289  27.822   6.753
 8056POPC   C3B40161  29.316  27.744   7.053
 8056POPC   C4B40162  29.274  27.763   7.353
 8057POPC   NC340163  34.546  43.126   5.553
 8057POPC   PO440164  34.623  43.147   5.853
 8057POPC   GL140165  34.533  43.084   6.153
 8057POPC   GL240166  34.676  42.988   6.153
 8057POPC   C1A40167  34.563  43.109   6.453
 8057POPC   D2A40168  34.618  43.142   6.753
 8057POPC   C3A40169  34.550  43.061   7.053
 8057POPC   C4A40170  34.608  43.103   7.353
 8057POPC   C1B40171  34.724  42.979   6.453
 8057POPC   C2B40172  34.747  42.956   6.753
 8057POPC   C3B40173  34.749  42.942   7.053
 8057POPC   C4B40174  34.796  42.889   7.353
 8058POPC   NC340175  37.672   1.199   5.553
 8058POPC   PO440176  37.634   1.246   5.853
 8058POPC   GL140177  37.678   1.230   6.153
 8058POPC   GL240178  37.790   1.180   6.153
 8058POPC   C1A40179  37.706   1.263   6.453
 8058POPC   D2A40180  37.713   1.196   6.753
 8058POPC   C3A40181  37.702   1.203   7.053
 8058POPC   C4A40182  37.718   1.250   7.353
 8058POPC   C1B40183  37.896   1.194   6.453
 8058POPC   C2B40184  37.936   1.193   6.753
 8058POPC   C3B40185  37.883   1.230   7.053
 8058POPC   C4B40186  37.970   1.174   7.353
 8059POPC   NC340187   0.450  18.266   5.553
 8059POPC   PO440188   0.407  18.288   5.853
 8059POPC   GL140189   0.450  18.247   6.153
 8059POPC   GL240190   0.340  18.177   6.153
 8059POPC   C1A40191   0.419  18.234   6.453
 8059POPC   D2A40192   0.428  18.252   6.753
 8059POPC   C3A40193   0.410  18.257   7.053
 8059POPC   C4A40194   0.390  18.282   7.353
 8059POPC   C1B40195   0.338  18.049   6.453
 8059POPC   C2B40196   0.258  18.112   6.753
 8059POPC   C3B40197   0.254  18.088   7.053
 8059POPC   C4B40198   0.286  18.070   7.353
 8060POPC   NC340199  19.880  22.130   5.553
 8060POPC   PO440200  19.828  22.176   5.853
 8060POPC   GL140201  19.794  22.206   6.153
 8060POPC   GL240202  19.781  22.281   6.153
 8060POPC   C1A40203  19.867  22.185   6.453
 8060POPC   D2A40204  19.859  22.180   6.753
 8060POPC   C3A40205  19.791  22.124   7.053
 8060POPC   C4A40206  19.798  22.114   7.353
 8060POPC   C1B40207  19.679  22.380   6.453
 8060POPC   C2B40208  19.696  22.384   6.753
 8060POPC   C3B40209  19.664  22.337   7.053
 8060POPC   C4B40210  19.715  22.363   7.353
 8061POPC   NC340211  26.031  40.739   5.553
 8061POPC   PO440212  26.027  40.753   5.853
 8061POPC   GL140213  26.089  40.758   6.153
 8061POPC   GL240214  26.133  40.864   6.153
 8061POPC   C1A40215  26.013  40.805   6.453
 8061POPC   D2A40216  26.048  40.792   6.753
 8061POPC   C3A40217  26.062  40.766   7.053
 8061POPC   C4A40218  26.019  40.744   7.353
 8061POPC   C1B40219  26.252  40.883   6.453
 8061POPC   C2B40220  26.277  40.900   6.753
 8061POPC   C3B40221  26.231  40.923   7.053
 8061POPC   C4B40222  26.270  40.868   7.353
 8062POPC   NC340223  36.886   6.623   5.553
 8062POPC   PO440224  36.877   6.652   5.853
 8062POPC   GL140225  36.867   6.693   6.153
 8062POPC   GL240226  37.007   6.593   6.153
 8062POPC   C1A40227  36.860   6.635   6.453
 8062POPC   D2A40228  36.870   6.651   6.753
 8062POPC   C3A40229  36.928   6.657   7.053
 8062POPC   C4A40230  36.901   6.633   7.353
 8062POPC   C1B40231  37.188   6.526   6.453
 8062POPC   C2B40232  37.141   6.540   6.753
 8062POPC   C3B40233  37.163   6.543   7.053
 8062POPC   C4B40234  37.144   6.573   7.353
 8063POPC   NC340235  17.469  33.779   5.553
 8063POPC   PO440236  17.526  33.779   5.853
 8063POPC   GL140237  17.534  33.761   6.153
 8063POPC   GL240238  17.510  33.898   6.153
 8063POPC   C1A40239  17.525  33.779   6.453
 8063POPC   D2A40240  17.552  33.823   6.753
 8063POPC   C3A40241  17.524  33.764   7.053
 8063POPC   C4A40242  17.556  33.839   7.353
 8063POPC   C1B40243  17.465  34.063   6.453
 8063POPC   C2B40244  17.430  34.074   6.753
 8063POPC   C3B40245  17.435  34.004   7.053
 8063POPC   C4B40246  17.402  34.076   7.353
 8064POPC   NC340247  38.432  22.920   5.553
 8064POPC   PO440248  38.456  22.960   5.853
 8064POPC   GL140249  38.485  22.968   6.153
 8064POPC   GL240250  38.372  22.819   6.153
 8064POPC   C1A40251  38.416  22.943   6.453
 8064POPC   D2A40252  38.499  22.986   6.753
 8064POPC   C3A40253  38.473  22.961   7.053
 8064POPC   C4A40254  38.465  22.983   7.353
 8064POPC   C1B40255  38.319  22.810   6.453
 8064POPC   C2B40256  38.254  22.736   6.753
 8064POPC   C3B40257  38.278  22.806   7.053
 8064POPC   C4B40258  38.233  22.785   7.353
 8065POPC   NC340259  42.294   1.258   5.553
 8065POPC   PO440260  42.309   1.261   5.853
 8065POPC   GL140261  42.329   1.185   6.153
 8065POPC   GL240262  42.396   1.330   6.153
 8065POPC   C1A40263  42.332   1.247   6.453
 8065POPC   D2A40264  42.384   1.219   6.753
 8065POPC   C3A40265  42.298   1.197   7.053
 8065POPC   C4A40266  42.301   1.238   7.353
 8065POPC   C1B40267  42.360   1.478   6.453
 8065POPC   C2B40268  42.425   1.414   6.753
 8065POPC   C3B40269  42.397   1.484   7.053
 8065POPC   C4B40270  42.451   1.485   7.353
 8066POPC   NC340271  40.024  11.340   5.553
 8066POPC   PO440272  40.030  11.290   5.853
 8066POPC   GL140273  40.034  11.331   6.153
 8066POPC   GL240274  40.152  11.344   6.153
 8066POPC   C1A40275  39.965  11.297   6.453
 8066POPC   D2A40276  40.002  11.288   6.753
 8066POPC   C3A40277  40.020  11.341   7.053
 8066POPC   C4A40278  40.046  11.334   7.353
 8066POPC   C1B40279  40.155  11.500   6.453
 8066POPC   C2B40280  40.199  11.496   6.753
 8066POPC   C3B40281  40.178  11.428   7.053
 8066POPC   C4B40282  40.179  11.485   7.353
 8067POPC   NC340283   6.654   5.055   5.553
 8067POPC   PO440284   6.685   5.058   5.853
 8067POPC   GL140285   6.631   5.142   6.153
 8067POPC   GL240286   6.529   5.140   6.153
 8067POPC   C1A40287   6.631   5.102   6.453
 8067POPC   D2A40288   6.637   5.084   6.753
 8067POPC   C3A40289   6.643   5.082   7.053
 8067POPC   C4A40290   6.680   5.096   7.353
 8067POPC   C1B40291   6.479   5.255   6.453
 8067POPC   C2B40292   6.447   5.314   6.753
 8067POPC   C3B40293   6.459   5.238   7.053
 8067POPC   C4B40294   6.459   5.265   7.353
 8068POPC   NC340295  33.830   6.657   5.553
 8068POPC   PO440296  33.846   6.685   5.853
 8068POPC   GL140297  33.838   6.648   6.153
 8068POPC   GL240298  33.821   6.798   6.153
 8068POPC   C1A40299  33.838   6.671   6.453
 8068POPC   D2A40300  33.778   6.641   6.753
 8068POPC   C3A40301  33.832   6.649   7.053
 8068POPC   C4A40302  33.763   6.596   7.353
 8068POPC   C1B40303  33.892   6.878   6.453
 8068POPC   C2B40304  33.946   6.865   6.753
 8068POPC   C3B40305  33.931   6.855   7.053
 8068POPC   C4B40306  33.933   6.906   7.353
 8069POPC   NC340307  42.346   2.014   5.553
 8069POPC   PO440308  42.341   2.016   5.853
 8069POPC   GL140309  42.329   2.017   6.153
 8069POPC   GL240310  42.327   2.151   6.153
 8069POPC   C1A40311  42.382   1.945   6.453
 8069POPC   D2A40312  42.363   2.022   6.753
 8069POPC   C3A40313  42.337   1.956   7.053
 8069POPC   C4A40314  42.352   2.019   7.353
 8069POPC   C1B40315  42.243   2.274   6.453
 8069POPC   C2B40316  42.208   2.273   6.753
 8069POPC   C3B40317  42.265   2.197   7.053
 8069POPC   C4B40318  42.207   2.186   7.353
 8070POPC   NC340319  10.527  21.344   5.553
 8070POPC   PO440320  10.541  21.395   5.853
 8070POPC   GL140321  10.527  21.370   6.153
 8070POPC   GL240322  10.541  21.250   6.153
 8070POPC   C1A40323  10.511  21.348   6.453
 8070POPC   D2A40324  10.532  21.409   6.753
 8070POPC   C3A40325  10.556  21.365   7.053
 8070POPC   C4A40326  10.512  21.427   7.353
 8070POPC   C1B40327  10.625  21.148   6.453
 8070POPC   C2B40328  10.590  21.183   6.753
 8070POPC   C3B40329  10.642  21.157   7.053
 8070POPC   C4B40330  10.657  21.158   7.353
 8071POPC   NC340331  28.366  27.592   5.553
 8071POPC   PO440332  28.344  27.637   5.853
 8071POPC   GL140333  28.321  27.588   6.153
 8071POPC   GL240334  28.393  27.486   6.153
 8071POPC   C1A40335  28.375  27.566   6.453
 8071POPC   D2A40336  28.384  27.607   6.753
 8071POPC   C3A40337  28.332  27.639   7.053
 8071POPC   C4A40338  28.354  27.575   7.353
 8071POPC   C1B40339  28.492  27.338   6.453
 8071POPC   C2B40340  28.492  27.416   6.753
 8071POPC   C3B40341  28.446  27.337   7.053
 8071POPC   C4B40342  28.460  27.370   7.353
 8072POPC   NC340343  30.742  17.541   5.553
 8072POPC   PO440344  30.712  17.506   5.853
 8072POPC   GL140345  30.737  17.499   6.153
 8072POPC   GL240346  30.754  17.602   6.153
 8072POPC   C1A40347  30.735  17.523   6.453
 8072POPC   D2A40348  30.705  17.501   6.753
 8072POPC   C3A40349  30.742  17.533   7.053
 8072POPC   C4A40350  30.689  17.554   7.353
 8072POPC   C1B40351  30.839  17.734   6.453
 8072POPC   C2B40352  30.852  17.762   6.753
 8072POPC   C3B40353  30.863  17.684   7.053
 8072POPC   C4B40354  30.854  17.778   7.353
 8073POPC   NC340355  16.746  15.228   5.553
 8073POPC   PO440356  16.738  15.156   5.853
 8073POPC   GL140357  16.738  15.130   6.153
 8073POPC   GL240358  16.610  15.107   6.153
 8073POPC   C1A40359  16.719  15.200   6.453
 8073POPC   D2A40360  16.747  15.130   6.753
 8073POPC   C3A40361  16.744  15.188   7.053
 8073POPC   C4A40362  16.719  15.196   7.353
 8073POPC   C1B40363  16.535  15.084   6.453
 8073POPC   C2B40364  16.510  15.042   6.753
 8073POPC   C3B40365  16.469  15.061   7.053
 8073POPC   C4B40366  16.554  15.085   7.353
 8074POPC   NC340367   6.655  14.415   5.553
 8074POPC   PO440368   6.614  14.396   5.853
 8074POPC   GL140369   6.637  14.362   6.153
 8074POPC   GL240370   6.565  14.356   6.153
 8074POPC   C1A40371   6.646  14.436   6.453
 8074POPC   D2A40372   6.604  14.376   6.753
 8074POPC   C3A40373   6.673  14.392   7.053
 8074POPC   C4A40374   6.675  14.413   7.353
 8074POPC   C1B40375   6.357  14.376   6.453
 8074POPC   C2B40376   6.416  14.357   6.753
 8074POPC   C3B40377   6.360  14.378   7.053
 8074POPC   C4B40378   6.355  14.354   7.353
 8075POPC   NC340379   5.101  17.495   5.553
 8075POPC   PO440380   5.134  17.492   5.853
 8075POPC   GL140381   5.126  17.505   6.153
 8075POPC   GL240382   5.010  17.498   6.153
 8075POPC   C1A40383   5.127  17.531   6.453
 8075POPC   D2A40384   5.045  17.474   6.753
 8075POPC   C3A40385   5.091  17.519   7.053
 8075POPC   C4A40386   5.090  17.517   7.353
 8075POPC   C1B40387   4.872  17.350   6.453
 8075POPC   C2B40388   4.916  17.381   6.753
 8075POPC   C3B40389   4.913  17.368   7.053
 8075POPC   C4B40390   4.863  17.401   7.353
 8076POPC   NC340391  22.903   2.012   5.553
 8076POPC   PO440392  22.908   2.017   5.853
 8076POPC   GL140393  22.902   1.990   6.153
 8076POPC   GL240394  22.903   1.901   6.153
 8076POPC   C1A40395  22.982   1.943   6.453
 8076POPC   D2A40396  22.981   2.020   6.753
 8076POPC   C3A40397  22.891   2.027   7.053
 8076POPC   C4A40398  22.980   1.952   7.353
 8076POPC   C1B40399  22.928   1.764   6.453
 8076POPC   C2B40400  22.999   1.751   6.753
 8076POPC   C3B40401  22.953   1.784   7.053
 8076POPC   C4B40402  22.951   1.739   7.353
 8077POPC   NC340403   1.194  30.677   5.553
 8077POPC   PO440404   1.189  30.653   5.853
 8077POPC   GL140405   1.202  30.732   6.153
 8077POPC   GL240406   1.141  30.672   6.153
 8077POPC   C1A40407   1.172  30.718   6.453
 8077POPC   D2A40408   1.198  30.698   6.753
 8077POPC   C3A40409   1.238  30.704   7.053
 8077POPC   C4A40410   1.167  30.737   7.353
 8077POPC   C1B40411   0.979  30.555   6.453
 8077POPC   C2B40412   0.964  30.558   6.753
 8077POPC   C3B40413   0.995  30.504   7.053
 8077POPC   C4B40414   1.036  30.541   7.353
 8078POPC   NC340415   3.565  36.927   5.553
 8078POPC   PO440416   3.570  36.948   5.853
 8078POPC   GL140417   3.578  36.949   6.153
 8078POPC   GL240418   3.588  36.781   6.153
 8078POPC   C1A40419   3.579  36.941   6.453
 8078POPC   D2A40420   3.509  36.905   6.753
 8078POPC   C3A40421   3.557  36.906   7.053
 8078POPC   C4A40422   3.588  36.912   7.353
 8078POPC   C1B40423   3.631  36.627   6.453
 8078POPC   C2B40424   3.591  36.623   6.753
 8078POPC   C3B40425   3.565  36.629   7.053
 8078POPC   C4B40426   3.623  36.676   7.353
 8079POPC   NC340427  24.461  12.818   5.553
 8079POPC   PO440428  24.473  12.854   5.853
 8079POPC   GL140429  24.476  12.854   6.153
 8079POPC   GL240430  24.591  12.827   6.153
 8079POPC   C1A40431  24.521  12.883   6.453
 8079POPC   D2A40432  24.539  12.840   6.753
 8079POPC   C3A40433  24.502  12.813   7.053
 8079POPC   C4A40434  24.460  12.839   7.353
 8079POPC   C1B40435  24.735  12.866   6.453
 8079POPC   C2B40436  24.741  12.887   6.753
 8079POPC   C3B40437  24.726  12.837   7.053
 8079POPC   C4B40438  24.690  12.821   7.353
 8080POPC   NC340439  14.426  40.771   5.553
 8080POPC   PO440440  14.409  40.771   5.853
 8080POPC   GL140441  14.419  40.757   6.153
 8080POPC   GL240442  14.321  40.884   6.153
 8080POPC   C1A40443  14.410  40.797   6.453
 8080POPC   D2A40444  14.435  40.763   6.753
 8080POPC   C3A40445  14.447  40.746   7.053
 8080POPC   C4A40446  14.359  40.817   7.353
 8080POPC   C1B40447  14.215  40.954   6.453
 8080POPC   C2B40448  14.229  40.938   6.753
 8080POPC   C3B40449  14.239  40.957   7.053
 8080POPC   C4B40450  14.195  40.923   7.353
 8081POPC   NC340451  19.025  41.573   5.553
 8081POPC   PO440452  19.084  41.604   5.853
 8081POPC   GL140453  19.096  41.597   6.153
 8081POPC   GL240454  19.134  41.642   6.153
 8081POPC   C1A40455  19.013  41.568   6.453
 8081POPC   D2A40456  19.063  41.592   6.753
 8081POPC   C3A40457  19.087  41.570   7.053
 8081POPC   C4A40458  19.014  41.540   7.353
 8081POPC   C1B40459  19.235  41.660   6.453
 8081POPC   C2B40460  19.280  41.739   6.753
 8081POPC   C3B40461  19.319  41.657   7.053
 8081POPC   C4B40462  19.291  41.681   7.353
 8082POPC   NC340463  26.027  40.014   5.553
 8082POPC   PO440464  26.028  40.006   5.853
 8082POPC   GL140465  26.002  39.959   6.153
 8082POPC   GL240466  26.050  40.082   6.153
 8082POPC   C1A40467  26.086  40.038   6.453
 8082POPC   D2A40468  26.008  39.998   6.753
 8082POPC   C3A40469  26.073  40.010   7.053
 8082POPC   C4A40470  26.059  39.982   7.353
 8082POPC   C1B40471  25.989  40.262   6.453
 8082POPC   C2B40472  25.974  40.277   6.753
 8082POPC   C3B40473  25.976  40.262   7.053
 8082POPC   C4B40474  25.990  40.222   7.353
 8083POPC   NC340475  22.943  32.292   5.553
 8083POPC   PO440476  22.959  32.203   5.853
 8083POPC   GL140477  22.921  32.216   6.153
 8083POPC   GL240478  22.792  32.303   6.153
 8083POPC   C1A40479  22.919  32.241   6.453
 8083POPC   D2A40480  22.920  32.219   6.753
 8083POPC   C3A40481  22.918  32.224   7.053
 8083POPC   C4A40482  22.987  32.232   7.353
 8083POPC   C1B40483  22.742  32.382   6.453
 8083POPC   C2B40484  22.687  32.390   6.753
 8083POPC   C3B40485  22.741  32.386   7.053
 8083POPC   C4B40486  22.674  32.319   7.353
 8084POPC   NC340487  19.070  14.397   5.553
 8084POPC   PO440488  19.026  14.390   5.853
 8084POPC   GL140489  19.056  14.379   6.153
 8084POPC   GL240490  19.067  14.273   6.153
 8084POPC   C1A40491  19.060  14.394   6.453
 8084POPC   D2A40492  19.062  14.437   6.753
 8084POPC   C3A40493  19.049  14.419   7.053
 8084POPC   C4A40494  19.048  14.363   7.353
 8084POPC   C1B40495  18.955  14.179   6.453
 8084POPC   C2B40496  18.963  14.170   6.753
 8084POPC   C3B40497  18.974  14.201   7.053
 8084POPC   C4B40498  19.024  14.195   7.353
 8085POPC   NC340499  35.390  34.555   5.553
 8085POPC   PO440500  35.330  34.578   5.853
 8085POPC   GL140501  35.390  34.607   6.153
 8085POPC   GL240502  35.451  34.511   6.153
 8085POPC   C1A40503  35.388  34.577   6.453
 8085POPC   D2A40504  35.342  34.557   6.753
 8085POPC   C3A40505  35.361  34.560   7.053
 8085POPC   C4A40506  35.306  34.549   7.353
 8085POPC   C1B40507  35.597  34.493   6.453
 8085POPC   C2B40508  35.610  34.459   6.753
 8085POPC   C3B40509  35.612  34.508   7.053
 8085POPC   C4B40510  35.535  34.464   7.353
 8086POPC   NC340511  19.873   9.751   5.553
 8086POPC   PO440512  19.824   9.782   5.853
 8086POPC   GL140513  19.883   9.779   6.153
 8086POPC   GL240514  19.888   9.707   6.153
 8086POPC   C1A40515  19.833   9.734   6.453
 8086POPC   D2A40516  19.810   9.716   6.753
 8086POPC   C3A40517  19.855   9.724   7.053
 8086POPC   C4A40518  19.840   9.702   7.353
 8086POPC   C1B40519  20.000   9.595   6.453
 8086POPC   C2B40520  20.016   9.620   6.753
 8086POPC   C3B40521  20.031   9.602   7.053
 8086POPC   C4B40522  20.021   9.565   7.353
 8087POPC   NC340523  11.287  12.834   5.553
 8087POPC   PO440524  11.317  12.861   5.853
 8087POPC   GL140525  11.303  12.902   6.153
 8087POPC   GL240526  11.293  12.921   6.153
 8087POPC   C1A40527  11.327  12.807   6.453
 8087POPC   D2A40528  11.274  12.882   6.753
 8087POPC   C3A40529  11.301  12.823   7.053
 8087POPC   C4A40530  11.257  12.880   7.353
 8087POPC   C1B40531  11.411  13.097   6.453
 8087POPC   C2B40532  11.360  13.123   6.753
 8087POPC   C3B40533  11.426  13.115   7.053
 8087POPC   C4B40534  11.358  13.130   7.353
 8088POPC   NC340535  33.803  38.407   5.553
 8088POPC   PO440536  33.829  38.463   5.853
 8088POPC   GL140537  33.791  38.446   6.153
 8088POPC   GL240538  33.867  38.558   6.153
 8088POPC   C1A40539  33.756  38.417   6.453
 8088POPC   D2A40540  33.844  38.465   6.753
 8088POPC   C3A40541  33.844  38.504   7.053
 8088POPC   C4A40542  33.836  38.477   7.353
 8088POPC   C1B40543  34.022  38.549   6.453
 8088POPC   C2B40544  34.051  38.639   6.753
 8088POPC   C3B40545  34.005  38.600   7.053
 8088POPC   C4B40546  34.000  38.636   7.353
 8089POPC   NC340547   3.504   1.974   5.553
 8089POPC   PO440548   3.515   2.011   5.853
 8089POPC   GL140549   3.498   1.953   6.153
 8089POPC   GL240550   3.482   1.877   6.153
 8089POPC   C1A40551   3.535   1.967   6.453
 8089POPC   D2A40552   3.506   1.952   6.753
 8089POPC   C3A40553   3.543   1.971   7.053
 8089POPC   C4A40554   3.503   2.022   7.353
 8089POPC   C1B40555   3.461   1.778   6.453
 8089POPC   C2B40556   3.512   1.774   6.753
 8089POPC   C3B40557   3.491   1.769   7.053
 8089POPC   C4B40558   3.501   1.748   7.353
 8090POPC   NC340559  21.378  27.586   5.553
 8090POPC   PO440560  21.424  27.625   5.853
 8090POPC   GL140561  21.378  27.597   6.153
 8090POPC   GL240562  21.493  27.620   6.153
 8090POPC   C1A40563  21.383  27.614   6.453
 8090POPC   D2A40564  21.356  27.551   6.753
 8090POPC   C3A40565  21.406  27.578   7.053
 8090POPC   C4A40566  21.403  27.567   7.353
 8090POPC   C1B40567  21.585  27.639   6.453
 8090POPC   C2B40568  21.654  27.625   6.753
 8090POPC   C3B40569  21.662  27.597   7.053
 8090POPC   C4B40570  21.657  27.657   7.353
 8091POPC   NC340571  32.235  11.275   5.553
 8091POPC   PO440572  32.245  11.320   5.853
 8091POPC   GL140573  32.243  11.303   6.153
 8091POPC   GL240574  32.355  11.276   6.153
 8091POPC   C1A40575  32.219  11.269   6.453
 8091POPC   D2A40576  32.208  11.309   6.753
 8091POPC   C3A40577  32.276  11.312   7.053
 8091POPC   C4A40578  32.204  11.259   7.353
 8091POPC   C1B40579  32.532  11.353   6.453
 8091POPC   C2B40580  32.527  11.308   6.753
 8091POPC   C3B40581  32.471  11.363   7.053
 8091POPC   C4B40582  32.523  11.347   7.353
 8092POPC   NC340583  37.630   3.507   5.553
 8092POPC   PO440584  37.693   3.553   5.853
 8092POPC   GL140585  37.708   3.557   6.153
 8092POPC   GL240586  37.544   3.615   6.153
 8092POPC   C1A40587  37.676   3.554   6.453
 8092POPC   D2A40588  37.672   3.585   6.753
 8092POPC   C3A40589  37.643   3.536   7.053
 8092POPC   C4A40590  37.635   3.583   7.353
 8092POPC   C1B40591  37.447   3.587   6.453
 8092POPC   C2B40592  37.407   3.588   6.753
 8092POPC   C3B40593  37.396   3.650   7.053
 8092POPC   C4B40594  37.470   3.571   7.353
 8093POPC   NC340595   2.784   9.723   5.553
 8093POPC   PO440596   2.749   9.718   5.853
 8093POPC   GL140597   2.753   9.792   6.153
 8093POPC   GL240598   2.917   9.712   6.153
 8093POPC   C1A40599   2.791   9.700   6.453
 8093POPC   D2A40600   2.730   9.724   6.753
 8093POPC   C3A40601   2.775   9.707   7.053
 8093POPC   C4A40602   2.790   9.787   7.353
 8093POPC   C1B40603   3.052   9.685   6.453
 8093POPC   C2B40604   2.991   9.754   6.753
 8093POPC   C3B40605   3.008   9.702   7.053
 8093POPC   C4B40606   3.013   9.674   7.353
 8094POPC   NC340607  29.194  42.338   5.553
 8094POPC   PO440608  29.187  42.287   5.853
 8094POPC   GL140609  29.111  42.348   6.153
 8094POPC   GL240610  29.219  42.402   6.153
 8094POPC   C1A40611  29.139  42.292   6.453
 8094POPC   D2A40612  29.149  42.296   6.753
 8094POPC   C3A40613  29.161  42.355   7.053
 8094POPC   C4A40614  29.143  42.363   7.353
 8094POPC   C1B40615  29.325  42.484   6.453
 8094POPC   C2B40616  29.403  42.452   6.753
 8094POPC   C3B40617  29.372  42.406   7.053
 8094POPC   C4B40618  29.393  42.453   7.353
 8095POPC   NC340619  23.670  19.806   5.553
 8095POPC   PO440620  23.747  19.809   5.853
 8095POPC   GL140621  23.727  19.869   6.153
 8095POPC   GL240622  23.849  19.912   6.153
 8095POPC   C1A40623  23.691  19.821   6.453
 8095POPC   D2A40624  23.680  19.789   6.753
 8095POPC   C3A40625  23.690  19.850   7.053
 8095POPC   C4A40626  23.751  19.837   7.353
 8095POPC   C1B40627  23.927  19.961   6.453
 8095POPC   C2B40628  23.927  19.962   6.753
 8095POPC   C3B40629  23.938  20.013   7.053
 8095POPC   C4B40630  23.918  20.012   7.353
 8096POPC   NC340631  29.125  22.888   5.553
 8096POPC   PO440632  29.192  22.923   5.853
 8096POPC   GL140633  29.194  22.899   6.153
 8096POPC   GL240634  29.134  22.844   6.153
 8096POPC   C1A40635  29.110  22.970   6.453
 8096POPC   D2A40636  29.173  22.931   6.753
 8096POPC   C3A40637  29.179  22.896   7.053
 8096POPC   C4A40638  29.156  22.909   7.353
 8096POPC   C1B40639  29.134  22.738   6.453
 8096POPC   C2B40640  29.142  22.675   6.753
 8096POPC   C3B40641  29.112  22.731   7.053
 8096POPC   C4B40642  29.148  22.659   7.353
 8097POPC   NC340643  33.826  15.910   5.553
 8097POPC   PO440644  33.792  15.914   5.853
 8097POPC   GL140645  33.766  15.940   6.153
 8097POPC   GL240646  33.839  16.074   6.153
 8097POPC   C1A40647  33.795  15.911   6.453
 8097POPC   D2A40648  33.796  15.988   6.753
 8097POPC   C3A40649  33.791  15.906   7.053
 8097POPC   C4A40650  33.777  15.949   7.353
 8097POPC   C1B40651  33.972  16.197   6.453
 8097POPC   C2B40652  33.940  16.170   6.753
 8097POPC   C3B40653  33.935  16.195   7.053
 8097POPC   C4B40654  33.931  16.124   7.353
 8098POPC   NC340655  31.480  15.957   5.553
 8098POPC   PO440656  31.519  15.923   5.853
 8098POPC   GL140657  31.495  15.962   6.153
 8098POPC   GL240658  31.318  15.964   6.153
 8098POPC   C1A40659  31.429  15.933   6.453
 8098POPC   D2A40660  31.471  15.914   6.753
 8098POPC   C3A40661  31.520  15.920   7.053
 8098POPC   C4A40662  31.444  15.926   7.353
 8098POPC   C1B40663  31.270  16.037   6.453
 8098POPC   C2B40664  31.278  16.039   6.753
 8098POPC   C3B40665  31.258  16.070   7.053
 8098POPC   C4B40666  31.212  16.042   7.353
 8099POPC   NC340667  43.062   4.288   5.553
 8099POPC   PO440668  43.111   4.346   5.853
 8099POPC   GL140669  43.082   4.334   6.153
 8099POPC   GL240670  43.185   4.299   6.153
 8099POPC   C1A40671  43.154   4.348   6.453
 8099POPC   D2A40672  43.120   4.312   6.753
 8099POPC   C3A40673  43.092   4.360   7.053
 8099POPC   C4A40674  43.077   4.281   7.353
 8099POPC   C1B40675  43.362   4.244   6.453
 8099POPC   C2B40676  43.312   4.224   6.753
 8099POPC   C3B40677  43.400   4.246   7.053
 8099POPC   C4B40678  43.341   4.247   7.353
 8100POPC   NC340679  38.416  30.723   5.553
 8100POPC   PO440680  38.411  30.694   5.853
 8100POPC   GL140681  38.414  30.653   6.153
 8100POPC   GL240682  38.585  30.739   6.153
 8100POPC   C1A40683  38.449  30.717   6.453
 8100POPC   D2A40684  38.412  30.653   6.753
 8100POPC   C3A40685  38.433  30.723   7.053
 8100POPC   C4A40686  38.421  30.719   7.353
 8100POPC   C1B40687  38.729  30.765   6.453
 8100POPC   C2B40688  38.681  30.764   6.753
 8100POPC   C3B40689  38.652  30.807   7.053
 8100POPC   C4B40690  38.683  30.806   7.353
 8101POPC   NC340691  39.200  39.988   5.553
 8101POPC   PO440692  39.235  40.021   5.853
 8101POPC   GL140693  39.242  40.006   6.153
 8101POPC   GL240694  39.253  40.088   6.153
 8101POPC   C1A40695  39.202  40.004   6.453
 8101POPC   D2A40696  39.204  40.017   6.753
 8101POPC   C3A40697  39.187  39.958   7.053
 8101POPC   C4A40698  39.205  39.978   7.353
 8101POPC   C1B40699  39.312  40.232   6.453
 8101POPC   C2B40700  39.335  40.208   6.753
 8101POPC   C3B40701  39.372  40.247   7.053
 8101POPC   C4B40702  39.338  40.261   7.353
 8102POPC   NC340703  32.978  25.293   5.553
 8102POPC   PO440704  33.043  25.259   5.853
 8102POPC   GL140705  33.048  25.284   6.153
 8102POPC   GL240706  33.084  25.414   6.153
 8102POPC   C1A40707  33.021  25.247   6.453
 8102POPC   D2A40708  32.988  25.295   6.753
 8102POPC   C3A40709  33.054  25.292   7.053
 8102POPC   C4A40710  33.057  25.267   7.353
 8102POPC   C1B40711  33.046  25.532   6.453
 8102POPC   C2B40712  33.069  25.515   6.753
 8102POPC   C3B40713  33.111  25.474   7.053
 8102POPC   C4B40714  33.123  25.542   7.353
 8103POPC   NC340715   8.156  29.920   5.553
 8103POPC   PO440716   8.147  29.891   5.853
 8103POPC   GL140717   8.212  29.924   6.153
 8103POPC   GL240718   8.355  29.893   6.153
 8103POPC   C1A40719   8.185  29.945   6.453
 8103POPC   D2A40720   8.156  29.917   6.753
 8103POPC   C3A40721   8.225  29.923   7.053
 8103POPC   C4A40722   8.186  29.958   7.353
 8103POPC   C1B40723   8.450  29.922   6.453
 8103POPC   C2B40724   8.430  29.942   6.753
 8103POPC   C3B40725   8.465  29.980   7.053
 8103POPC   C4B40726   8.463  29.956   7.353
 8104POPC   NC340727  22.970  33.838   5.553
 8104POPC   PO440728  22.910  33.768   5.853
 8104POPC   GL140729  22.918  33.788   6.153
 8104POPC   GL240730  22.875  33.734   6.153
 8104POPC   C1A40731  22.909  33.834   6.453
 8104POPC   D2A40732  22.941  33.783   6.753
 8104POPC   C3A40733  22.905  33.787   7.053
 8104POPC   C4A40734  22.931  33.799   7.353
 8104POPC   C1B40735  22.845  33.593   6.453
 8104POPC   C2B40736  22.796  33.556   6.753
 8104POPC   C3B40737  22.842  33.577   7.053
 8104POPC   C4B40738  22.853  33.581   7.353
 8105POPC   NC340739   3.504  20.578   5.553
 8105POPC   PO440740   3.540  20.642   5.853
 8105POPC   GL140741   3.555  20.605   6.153
 8105POPC   GL240742   3.572  20.540   6.153
 8105POPC   C1A40743   3.521  20.585   6.453
 8105POPC   D2A40744   3.524  20.630   6.753
 8105POPC   C3A40745   3.498  20.599   7.053
 8105POPC   C4A40746   3.514  20.640   7.353
 8105POPC   C1B40747   3.652  20.380   6.453
 8105POPC   C2B40748   3.613  20.427   6.753
 8105POPC   C3B40749   3.685  20.361   7.053
 8105POPC   C4B40750   3.669  20.375   7.353
 8106POPC   NC340751  41.529  43.101   5.553
 8106POPC   PO440752  41.510  43.125   5.853
 8106POPC   GL140753  41.511  43.072   6.153
 8106POPC   GL240754  41.405  43.102   6.153
 8106POPC   C1A40755  41.567  43.130   6.453
 8106POPC   D2A40756  41.555  43.079   6.753
 8106POPC   C3A40757  41.593  43.098   7.053
 8106POPC   C4A40758  41.587  43.113   7.353
 8106POPC   C1B40759  41.363  42.979   6.453
 8106POPC   C2B40760  41.298  43.011   6.753
 8106POPC   C3B40761  41.313  42.995   7.053
 8106POPC   C4B40762  41.290  43.049   7.353
 8107POPC   NC340763  35.348   6.615   5.553
 8107POPC   PO440764  35.384   6.668   5.853
 8107POPC   GL140765  35.374   6.688   6.153
 8107POPC   GL240766  35.270   6.618   6.153
 8107POPC   C1A40767  35.304   6.608   6.453
 8107POPC   D2A40768  35.380   6.653   6.753
 8107POPC   C3A40769  35.338   6.638   7.053
 8107POPC   C4A40770  35.315   6.682   7.353
 8107POPC   C1B40771  35.115   6.564   6.453
 8107POPC   C2B40772  35.127   6.539   6.753
 8107POPC   C3B40773  35.100   6.560   7.053
 8107POPC   C4B40774  35.104   6.555   7.353
 8108POPC   NC340775  40.786  30.714   5.553
 8108POPC   PO440776  40.769  30.673   5.853
 8108POPC   GL140777  40.751  30.650   6.153
 8108POPC   GL240778  40.679  30.732   6.153
 8108POPC   C1A40779  40.755  30.669   6.453
 8108POPC   D2A40780  40.759  30.704   6.753
 8108POPC   C3A40781  40.822  30.733   7.053
 8108POPC   C4A40782  40.790  30.677   7.353
 8108POPC   C1B40783  40.503  30.801   6.453
 8108POPC   C2B40784  40.519  30.776   6.753
 8108POPC   C3B40785  40.586  30.776   7.053
 8108POPC   C4B40786  40.565  30.779   7.353
 8109POPC   NC340787  24.508  34.538   5.553
 8109POPC   PO440788  24.499  34.623   5.853
 8109POPC   GL140789  24.493  34.573   6.153
 8109POPC   GL240790  24.492  34.403   6.153
 8109POPC   C1A40791  24.442  34.534   6.453
 8109POPC   D2A40792  24.506  34.592   6.753
 8109POPC   C3A40793  24.529  34.535   7.053
 8109POPC   C4A40794  24.471  34.554   7.353
 8109POPC   C1B40795  24.507  34.351   6.453
 8109POPC   C2B40796  24.458  34.323   6.753
 8109POPC   C3B40797  24.554  34.285   7.053
 8109POPC   C4B40798  24.513  34.321   7.353
 8110POPC   NC340799  12.027  36.898   5.553
 8110POPC   PO440800  12.078  36.923   5.853
 8110POPC   GL140801  12.026  36.898   6.153
 8110POPC   GL240802  11.960  36.948   6.153
 8110POPC   C1A40803  12.055  36.926   6.453
 8110POPC   D2A40804  12.050  36.863   6.753
 8110POPC   C3A40805  12.101  36.890   7.053
 8110POPC   C4A40806  12.116  36.856   7.353
 8110POPC   C1B40807  11.820  36.900   6.453
 8110POPC   C2B40808  11.834  36.933   6.753
 8110POPC   C3B40809  11.842  36.888   7.053
 8110POPC   C4B40810  11.837  36.901   7.353
 8111POPC   NC340811  40.024  23.693   5.553
 8111POPC   PO440812  39.995  23.679   5.853
 8111POPC   GL140813  39.988  23.713   6.153
 8111POPC   GL240814  39.950  23.829   6.153
 8111POPC   C1A40815  40.056  23.746   6.453
 8111POPC   D2A40816  39.975  23.705   6.753
 8111POPC   C3A40817  39.966  23.711   7.053
 8111POPC   C4A40818  40.017  23.709   7.353
 8111POPC   C1B40819  39.981  23.956   6.453
 8111POPC   C2B40820  39.940  23.930   6.753
 8111POPC   C3B40821  39.953  23.993   7.053
 8111POPC   C4B40822  40.000  23.947   7.353
 8112POPC   NC340823  15.175  30.659   5.553
 8112POPC   PO440824  15.174  30.694   5.853
 8112POPC   GL140825  15.156  30.738   6.153
 8112POPC   GL240826  15.287  30.789   6.153
 8112POPC   C1A40827  15.189  30.741   6.453
 8112POPC   D2A40828  15.138  30.681   6.753
 8112POPC   C3A40829  15.165  30.672   7.053
 8112POPC   C4A40830  15.192  30.659   7.353
 8112POPC   C1B40831  15.410  30.820   6.453
 8112POPC   C2B40832  15.449  30.763   6.753
 8112POPC   C3B40833  15.401  30.804   7.053
 8112POPC   C4B40834  15.387  30.812   7.353
 8113POPC   NC340835   8.217  19.880   5.553
 8113POPC   PO440836   8.189  19.789   5.853
 8113POPC   GL140837   8.179  19.851   6.153
 8113POPC   GL240838   8.247  19.962   6.153
 8113POPC   C1A40839   8.228  19.817   6.453
 8113POPC   D2A40840   8.174  19.875   6.753
 8113POPC   C3A40841   8.161  19.791   7.053
 8113POPC   C4A40842   8.186  19.846   7.353
 8113POPC   C1B40843   8.408  19.997   6.453
 8113POPC   C2B40844   8.426  20.019   6.753
 8113POPC   C3B40845   8.395  20.050   7.053
 8113POPC   C4B40846   8.352  20.016   7.353
 8114POPC   NC340847  15.145  26.017   5.553
 8114POPC   PO440848  15.219  26.027   5.853
 8114POPC   GL140849  15.225  26.057   6.153
 8114POPC   GL240850  15.150  26.156   6.153
 8114POPC   C1A40851  15.227  26.076   6.453
 8114POPC   D2A40852  15.224  26.056   6.753
 8114POPC   C3A40853  15.172  25.994   7.053
 8114POPC   C4A40854  15.154  26.059   7.353
 8114POPC   C1B40855  15.206  26.299   6.453
 8114POPC   C2B40856  15.168  26.269   6.753
 8114POPC   C3B40857  15.171  26.259   7.053
 8114POPC   C4B40858  15.167  26.272   7.353
 8115POPC   NC340859  13.590  33.070   5.553
 8115POPC   PO440860  13.675  33.052   5.853
 8115POPC   GL140861  13.598  33.046   6.153
 8115POPC   GL240862  13.663  33.148   6.153
 8115POPC   C1A40863  13.581  32.989   6.453
 8115POPC   D2A40864  13.579  33.072   6.753
 8115POPC   C3A40865  13.634  32.991   7.053
 8115POPC   C4A40866  13.596  33.002   7.353
 8115POPC   C1B40867  13.694  33.231   6.453
 8115POPC   C2B40868  13.690  33.281   6.753
 8115POPC   C3B40869  13.683  33.260   7.053
 8115POPC   C4B40870  13.763  33.261   7.353
 8116POPC   NC340871  22.166  20.570   5.553
 8116POPC   PO440872  22.171  20.637   5.853
 8116POPC   GL140873  22.137  20.600   6.153
 8116POPC   GL240874  22.061  20.733   6.153
 8116POPC   C1A40875  22.189  20.564   6.453
 8116POPC   D2A40876  22.207  20.611   6.753
 8116POPC   C3A40877  22.164  20.625   7.053
 8116POPC   C4A40878  22.181  20.611   7.353
 8116POPC   C1B40879  22.002  20.809   6.453
 8116POPC   C2B40880  21.963  20.813   6.753
 8116POPC   C3B40881  21.985  20.768   7.053
 8116POPC   C4B40882  21.920  20.807   7.353
 8117POPC   NC340883  16.700  12.842   5.553
 8117POPC   PO440884  16.696  12.839   5.853
 8117POPC   GL140885  16.709  12.855   6.153
 8117POPC   GL240886  16.653  12.936   6.153
 8117POPC   C1A40887  16.715  12.824   6.453
 8117POPC   D2A40888  16.736  12.895   6.753
 8117POPC   C3A40889  16.728  12.888   7.053
 8117POPC   C4A40890  16.767  12.895   7.353
 8117POPC   C1B40891  16.579  12.965   6.453
 8117POPC   C2B40892  16.501  13.050   6.753
 8117POPC   C3B40893  16.551  13.027   7.053
 8117POPC   C4B40894  16.561  12.979   7.353
 8118POPC   NC340895  44.644  40.802   5.553
 8118POPC   PO440896  44.708  40.739   5.853
 8118POPC   GL140897  44.690  40.802   6.153
 8118POPC   GL240898  44.526  40.809   6.153
 8118POPC   C1A40899  44.637  40.822   6.453
 8118POPC   D2A40900  44.628  40.824   6.753
 8118POPC   C3A40901  44.682  40.833   7.053
 8118POPC   C4A40902  44.627  40.763   7.353
 8118POPC   C1B40903  44.441  40.741   6.453
 8118POPC   C2B40904  44.392  40.781   6.753
 8118POPC   C3B40905  44.414  40.758   7.053
 8118POPC   C4B40906  44.434  40.771   7.353
 8119POPC   NC340907  23.702  40.734   5.553
 8119POPC   PO440908  23.730  40.782   5.853
 8119POPC   GL140909  23.675  40.737   6.153
 8119POPC   GL240910  23.643  40.927   6.153
 8119POPC   C1A40911  23.669  40.778   6.453
 8119POPC   D2A40912  23.747  40.787   6.753
 8119POPC   C3A40913  23.695  40.736   7.053
 8119POPC   C4A40914  23.688  40.795   7.353
 8119POPC   C1B40915  23.698  41.034   6.453
 8119POPC   C2B40916  23.669  41.052   6.753
 8119POPC   C3B40917  23.651  41.022   7.053
 8119POPC   C4B40918  23.628  41.041   7.353
 8120POPC   NC340919   7.395   3.560   5.553
 8120POPC   PO440920   7.411   3.517   5.853
 8120POPC   GL140921   7.404   3.571   6.153
 8120POPC   GL240922   7.351   3.664   6.153
 8120POPC   C1A40923   7.443   3.496   6.453
 8120POPC   D2A40924   7.405   3.554   6.753
 8120POPC   C3A40925   7.451   3.570   7.053
 8120POPC   C4A40926   7.391   3.584   7.353
 8120POPC   C1B40927   7.399   3.818   6.453
 8120POPC   C2B40928   7.357   3.819   6.753
 8120POPC   C3B40929   7.346   3.760   7.053
 8120POPC   C4B40930   7.416   3.747   7.353
 8121POPC   NC340931  32.200  30.649   5.553
 8121POPC   PO440932  32.279  30.653   5.853
 8121POPC   GL140933  32.244  30.716   6.153
 8121POPC   GL240934  32.341  30.823   6.153
 8121POPC   C1A40935  32.291  30.743   6.453
 8121POPC   D2A40936  32.207  30.706   6.753
 8121POPC   C3A40937  32.208  30.690   7.053
 8121POPC   C4A40938  32.243  30.691   7.353
 8121POPC   C1B40939  32.394  30.820   6.453
 8121POPC   C2B40940  32.397  30.890   6.753
 8121POPC   C3B40941  32.450  30.813   7.053
 8121POPC   C4B40942  32.388  30.836   7.353
 8122POPC   NC340943  22.132  12.897   5.553
 8122POPC   PO440944  22.190  12.877   5.853
 8122POPC   GL140945  22.117  12.890   6.153
 8122POPC   GL240946  22.235  12.727   6.153
 8122POPC   C1A40947  22.191  12.820   6.453
 8122POPC   D2A40948  22.200  12.804   6.753
 8122POPC   C3A40949  22.141  12.831   7.053
 8122POPC   C4A40950  22.171  12.828   7.353
 8122POPC   C1B40951  22.371  12.744   6.453
 8122POPC   C2B40952  22.396  12.691   6.753
 8122POPC   C3B40953  22.375  12.669   7.053
 8122POPC   C4B40954  22.374  12.746   7.353
 8123POPC   NC340955  34.620  19.816   5.553
 8123POPC   PO440956  34.616  19.819   5.853
 8123POPC   GL140957  34.613  19.840   6.153
 8123POPC   GL240958  34.552  19.913   6.153
 8123POPC   C1A40959  34.570  19.813   6.453
 8123POPC   D2A40960  34.527  19.875   6.753
 8123POPC   C3A40961  34.584  19.802   7.053
 8123POPC   C4A40962  34.620  19.872   7.353
 8123POPC   C1B40963  34.511  20.053   6.453
 8123POPC   C2B40964  34.529  20.037   6.753
 8123POPC   C3B40965  34.567  20.063   7.053
 8123POPC   C4B40966  34.498  20.090   7.353
 8124POPC   NC340967  35.308  17.554   5.553
 8124POPC   PO440968  35.340  17.462   5.853
 8124POPC   GL140969  35.350  17.475   6.153
 8124POPC   GL240970  35.466  17.431   6.153
 8124POPC   C1A40971  35.348  17.478   6.453
 8124POPC   D2A40972  35.347  17.505   6.753
 8124POPC   C3A40973  35.390  17.463   7.053
 8124POPC   C4A40974  35.389  17.531   7.353
 8124POPC   C1B40975  35.523  17.271   6.453
 8124POPC   C2B40976  35.442  17.262   6.753
 8124POPC   C3B40977  35.474  17.279   7.053
 8124POPC   C4B40978  35.500  17.300   7.353
 8125POPC   NC340979  36.909  31.517   5.553
 8125POPC   PO440980  36.897  31.501   5.853
 8125POPC   GL140981  36.875  31.472   6.153
 8125POPC   GL240982  36.889  31.309   6.153
 8125POPC   C1A40983  36.894  31.438   6.453
 8125POPC   D2A40984  36.950  31.444   6.753
 8125POPC   C3A40985  36.878  31.437   7.053
 8125POPC   C4A40986  36.882  31.521   7.353
 8125POPC   C1B40987  36.914  31.198   6.453
 8125POPC   C2B40988  36.829  31.270   6.753
 8125POPC   C3B40989  36.898  31.192   7.053
 8125POPC   C4B40990  36.845  31.210   7.353
 8126POPC   NC340991  43.098  35.388   5.553
 8126POPC   PO440992  43.120  35.310   5.853
 8126POPC   GL140993  43.082  35.381   6.153
 8126POPC   GL240994  42.969  35.295   6.153
 8126POPC   C1A40995  43.154  35.399   6.453
 8126POPC   D2A40996  43.090  35.315   6.753
 8126POPC   C3A40997  43.124  35.369   7.053
 8126POPC   C4A40998  43.084  35.379   7.353
 8126POPC   C1B40999  42.903  35.148   6.453
 8126POPC   C2B41000  42.945  35.224   6.753
 8126POPC   C3B41001  42.874  35.158   7.053
 8126POPC   C4B41002  42.909  35.146   7.353
 8127POPC   NC341003   3.496  37.641   5.553
 8127POPC   PO441004   3.562  37.632   5.853
 8127POPC   GL141005   3.539  37.668   6.153
 8127POPC   GL241006   3.695  37.709   6.153
 8127POPC   C1A41007   3.580  37.700   6.453
 8127POPC   D2A41008   3.559  37.689   6.753
 8127POPC   C3A41009   3.511  37.729   7.053
 8127POPC   C4A41010   3.558  37.669   7.353
 8127POPC   C1B41011   3.745  37.702   6.453
 8127POPC   C2B41012   3.839  37.675   6.753
 8127POPC   C3B41013   3.772  37.654   7.053
 8127POPC   C4B41014   3.749  37.688   7.353
 8128POPC   NC341015  43.901  15.131   5.553
 8128POPC   PO441016  43.905  15.174   5.853
 8128POPC   GL141017  43.844  15.179   6.153
 8128POPC   GL241018  43.770  15.151   6.153
 8128POPC   C1A41019  43.921  15.224   6.453
 8128POPC   D2A41020  43.912  15.215   6.753
 8128POPC   C3A41021  43.875  15.204   7.053
 8128POPC   C4A41022  43.913  15.223   7.353
 8128POPC   C1B41023  43.655  15.175   6.453
 8128POPC   C2B41024  43.684  15.189   6.753
 8128POPC   C3B41025  43.624  15.244   7.053
 8128POPC   C4B41026  43.600  15.182   7.353
 8129POPC   NC341027   0.448   6.690   5.553
 8129POPC   PO441028   0.425   6.659   5.853
 8129POPC   GL141029   0.394   6.605   6.153
 8129POPC   GL241030   0.575   6.696   6.153
 8129POPC   C1A41031   0.429   6.670   6.453
 8129POPC   D2A41032   0.448   6.656   6.753
 8129POPC   C3A41033   0.408   6.673   7.053
 8129POPC   C4A41034   0.437   6.677   7.353
 8129POPC   C1B41035   0.716   6.692   6.453
 8129POPC   C2B41036   0.640   6.733   6.753
 8129POPC   C3B41037   0.706   6.681   7.053
 8129POPC   C4B41038   0.669   6.680   7.353
 8130POPC   NC341039  19.831  10.534   5.553
 8130POPC   PO441040  19.882  10.525   5.853
 8130POPC   GL141041  19.860  10.497   6.153
 8130POPC   GL241042  19.991  10.529   6.153
 8130POPC   C1A41043  19.833  10.543   6.453
 8130POPC   D2A41044  19.871  10.531   6.753
 8130POPC   C3A41045  19.822  10.537   7.053
 8130POPC   C4A41046  19.830  10.537   7.353
 8130POPC   C1B41047  20.058  10.548   6.453
 8130POPC   C2B41048  20.087  10.472   6.753
 8130POPC   C3B41049  20.065  10.497   7.053
 8130POPC   C4B41050  20.100  10.536   7.353
 8131POPC   NC341051   9.774  26.846   5.553
 8131POPC   PO441052   9.728  26.804   5.853
 8131POPC   GL141053   9.716  26.792   6.153
 8131POPC   GL241054   9.891  26.714   6.153
 8131POPC   C1A41055   9.753  26.789   6.453
 8131POPC   D2A41056   9.741  26.787   6.753
 8131POPC   C3A41057   9.781  26.862   7.053
 8131POPC   C4A41058   9.744  26.820   7.353
 8131POPC   C1B41059   9.984  26.668   6.453
 8131POPC   C2B41060   9.974  26.614   6.753
 8131POPC   C3B41061   9.915  26.701   7.053
 8131POPC   C4B41062   9.929  26.643   7.353
 8132POPC   NC341063  27.630   0.401   5.553
 8132POPC   PO441064  27.549   0.467   5.853
 8132POPC   GL141065  27.565   0.391   6.153
 8132POPC   GL241066  27.719   0.402   6.153
 8132POPC   C1A41067  27.630   0.405   6.453
 8132POPC   D2A41068  27.583   0.448   6.753
 8132POPC   C3A41069  27.591   0.393   7.053
 8132POPC   C4A41070  27.560   0.459   7.353
 8132POPC   C1B41071  27.857   0.329   6.453
 8132POPC   C2B41072  27.863   0.331   6.753
 8132POPC   C3B41073  27.773   0.345   7.053
 8132POPC   C4B41074  27.813   0.290   7.353
 8133POPC   NC341075  33.049  36.949   5.553
 8133POPC   PO441076  33.018  36.925   5.853
 8133POPC   GL141077  32.996  36.922   6.153
 8133POPC   GL241078  32.945  37.022   6.153
 8133POPC   C1A41079  33.070  36.870   6.453
 8133POPC   D2A41080  33.064  36.947   6.753
 8133POPC   C3A41081  33.018  36.902   7.053
 8133POPC   C4A41082  32.985  36.950   7.353
 8133POPC   C1B41083  32.864  37.034   6.453
 8133POPC   C2B41084  32.781  37.071   6.753
 8133POPC   C3B41085  32.849  37.025   7.053
 8133POPC   C4B41086  32.817  36.995   7.353
 8134POPC   NC341087  15.144   1.208   5.553
 8134POPC   PO441088  15.139   1.242   5.853
 8134POPC   GL141089  15.204   1.209   6.153
 8134POPC   GL241090  15.089   1.163   6.153
 8134POPC   C1A41091  15.160   1.218   6.453
 8134POPC   D2A41092  15.186   1.173   6.753
 8134POPC   C3A41093  15.171   1.262   7.053
 8134POPC   C4A41094  15.208   1.237   7.353
 8134POPC   C1B41095  15.006   1.024   6.453
 8134POPC   C2B41096  15.017   0.995   6.753
 8134POPC   C3B41097  14.988   1.028   7.053
 8134POPC   C4B41098  14.992   1.000   7.353
 8135POPC   NC341099  24.454  26.839   5.553
 8135POPC   PO441100  24.515  26.859   5.853
 8135POPC   GL141101  24.458  26.787   6.153
 8135POPC   GL241102  24.397  26.863   6.153
 8135POPC   C1A41103  24.523  26.832   6.453
 8135POPC   D2A41104  24.453  26.864   6.753
 8135POPC   C3A41105  24.468  26.860   7.053
 8135POPC   C4A41106  24.518  26.769   7.353
 8135POPC   C1B41107  24.302  26.980   6.453
 8135POPC   C2B41108  24.286  27.021   6.753
 8135POPC   C3B41109  24.278  27.021   7.053
 8135POPC   C4B41110  24.290  27.003   7.353
 8136POPC   NC341111  19.806   5.899   5.553
 8136POPC   PO441112  19.790   5.861   5.853
 8136POPC   GL141113  19.876   5.850   6.153
 8136POPC   GL241114  19.721   5.991   6.153
 8136POPC   C1A41115  19.841   5.880   6.453
 8136POPC   D2A41116  19.878   5.883   6.753
 8136POPC   C3A41117  19.882   5.912   7.053
 8136POPC   C4A41118  19.865   5.884   7.353
 8136POPC   C1B41119  19.636   6.079   6.453
 8136POPC   C2B41120  19.678   6.008   6.753
 8136POPC   C3B41121  19.623   5.993   7.053
 8136POPC   C4B41122  19.603   6.010   7.353
 8137POPC   NC341123  29.940  43.893   5.553
 8137POPC   PO441124  29.894  43.878   5.853
 8137POPC   GL141125  29.927  43.900   6.153
 8137POPC   GL241126  29.844  43.793   6.153
 8137POPC   C1A41127  29.905  43.883   6.453
 8137POPC   D2A41128  29.929  43.860   6.753
 8137POPC   C3A41129  29.952  43.840   7.053
 8137POPC   C4A41130  29.954  43.929   7.353
 8137POPC   C1B41131  29.871  43.629   6.453
 8137POPC   C2B41132  29.859  43.626   6.753
 8137POPC   C3B41133  29.825  43.611   7.053
 8137POPC   C4B41134  29.801  43.652   7.353
 8138POPC   NC341135  36.915  30.741   5.553
 8138POPC   PO441136  36.917  30.746   5.853
 8138POPC   GL141137  36.913  30.675   6.153
 8138POPC   GL241138  36.818  30.749   6.153
 8138POPC   C1A41139  36.885  30.741   6.453
 8138POPC   D2A41140  36.915  30.706   6.753
 8138POPC   C3A41141  36.857  30.683   7.053
 8138POPC   C4A41142  36.898  30.679   7.353
 8138POPC   C1B41143  36.687  30.720   6.453
 8138POPC   C2B41144  36.699  30.757   6.753
 8138POPC   C3B41145  36.703  30.759   7.053
 8138POPC   C4B41146  36.694  30.762   7.353
 8139POPC   NC341147  19.790  26.840   5.553
 8139POPC   PO441148  19.803  26.784   5.853
 8139POPC   GL141149  19.786  26.855   6.153
 8139POPC   GL241150  19.915  26.713   6.153
 8139POPC   C1A41151  19.843  26.864   6.453
 8139POPC   D2A41152  19.810  26.815   6.753
 8139POPC   C3A41153  19.794  26.812   7.053
 8139POPC   C4A41154  19.832  26.862   7.353
 8139POPC   C1B41155  19.916  26.532   6.453
 8139POPC   C2B41156  19.939  26.575   6.753
 8139POPC   C3B41157  19.950  26.597   7.053
 8139POPC   C4B41158  19.897  26.567   7.353
 8140POPC   NC341159  40.763  31.434   5.553
 8140POPC   PO441160  40.781  31.428   5.853
 8140POPC   GL141161  40.778  31.447   6.153
 8140POPC   GL241162  40.765  31.589   6.153
 8140POPC   C1A41163  40.797  31.505   6.453
 8140POPC   D2A41164  40.797  31.451   6.753
 8140POPC   C3A41165  40.825  31.427   7.053
 8140POPC   C4A41166  40.807  31.470   7.353
 8140POPC   C1B41167  40.738  31.709   6.453
 8140POPC   C2B41168  40.721  31.700   6.753
 8140POPC   C3B41169  40.727  31.692   7.053
 8140POPC   C4B41170  40.713  31.696   7.353
 8141POPC   NC341171  15.199  31.458   5.553
 8141POPC   PO441172  15.228  31.474   5.853
 8141POPC   GL141173  15.149  31.443   6.153
 8141POPC   GL241174  15.086  31.363   6.153
 8141POPC   C1A41175  15.187  31.519   6.453
 8141POPC   D2A41176  15.213  31.473   6.753
 8141POPC   C3A41177  15.132  31.500   7.053
 8141POPC   C4A41178  15.215  31.483   7.353
 8141POPC   C1B41179  15.118  31.292   6.453
 8141POPC   C2B41180  15.034  31.199   6.753
 8141POPC   C3B41181  15.119  31.281   7.053
 8141POPC   C4B41182  15.041  31.239   7.353
 8142POPC   NC341183  34.561  18.330   5.553
 8142POPC   PO441184  34.611  18.317   5.853
 8142POPC   GL141185  34.594  18.238   6.153
 8142POPC   GL241186  34.500  18.258   6.153
 8142POPC   C1A41187  34.593  18.305   6.453
 8142POPC   D2A41188  34.589  18.300   6.753
 8142POPC   C3A41189  34.543  18.236   7.053
 8142POPC   C4A41190  34.614  18.264   7.353
 8142POPC   C1B41191  34.408  18.108   6.453
 8142POPC   C2B41192  34.322  18.097   6.753
 8142POPC   C3B41193  34.396  18.140   7.053
 8142POPC   C4B41194  34.409  18.163   7.353
 8143POPC   NC341195   8.953  19.874   5.553
 8143POPC   PO441196   9.011  19.794   5.853
 8143POPC   GL141197   9.019  19.842   6.153
 8143POPC   GL241198   8.807  19.798   6.153
 8143POPC   C1A41199   8.974  19.793   6.453
 8143POPC   D2A41200   8.954  19.868   6.753
 8143POPC   C3A41201   8.954  19.799   7.053
 8143POPC   C4A41202   8.931  19.869   7.353
 8143POPC   C1B41203   8.701  19.816   6.453
 8143POPC   C2B41204   8.692  19.743   6.753
 8143POPC   C3B41205   8.734  19.762   7.053
 8143POPC   C4B41206   8.697  19.788   7.353
 8144POPC   NC341207  19.833  24.445   5.553
 8144POPC   PO441208  19.859  24.461   5.853
 8144POPC   GL141209  19.818  24.461   6.153
 8144POPC   GL241210  19.785  24.429   6.153
 8144POPC   C1A41211  19.848  24.529   6.453
 8144POPC   D2A41212  19.834  24.485   6.753
 8144POPC   C3A41213  19.806  24.480   7.053
 8144POPC   C4A41214  19.872  24.508   7.353
 8144POPC   C1B41215  19.640  24.331   6.453
 8144POPC   C2B41216  19.619  24.266   6.753
 8144POPC   C3B41217  19.636  24.291   7.053
 8144POPC   C4B41218  19.631  24.345   7.353
 8145POPC   NC341219  22.192   5.874   5.553
 8145POPC   PO441220  22.113   5.904   5.853
 8145POPC   GL141221  22.130   5.869   6.153
 8145POPC   GL241222  22.011   5.947   6.153
 8145POPC   C1A41223  22.190   5.835   6.453
 8145POPC   D2A41224  22.211   5.918   6.753
 8145POPC   C3A41225  22.164   5.833   7.053
 8145POPC   C4A41226  22.146   5.911   7.353
 8145POPC   C1B41227  21.892   5.958   6.453
 8145POPC   C2B41228  21.938   6.001   6.753
 8145POPC   C3B41229  21.932   5.942   7.053
 8145POPC   C4B41230  21.909   5.912   7.353
 8146POPC   NC341231  22.116  40.738   5.553
 8146POPC   PO441232  22.160  40.812   5.853
 8146POPC   GL141233  22.178  40.769   6.153
 8146POPC   GL241234  22.232  40.867   6.153
 8146POPC   C1A41235  22.212  40.784   6.453
 8146POPC   D2A41236  22.188  40.778   6.753
 8146POPC   C3A41237  22.116  40.808   7.053
 8146POPC   C4A41238  22.154  40.737   7.353
 8146POPC   C1B41239  22.320  40.985   6.453
 8146POPC   C2B41240  22.324  40.961   6.753
 8146POPC   C3B41241  22.334  40.985   7.053
 8146POPC   C4B41242  22.305  40.994   7.353
 8147POPC   NC341243   6.638  13.629   5.553
 8147POPC   PO441244   6.598  13.607   5.853
 8147POPC   GL141245   6.603  13.617   6.153
 8147POPC   GL241246   6.763  13.540   6.153
 8147POPC   C1A41247   6.637  13.652   6.453
 8147POPC   D2A41248   6.605  13.591   6.753
 8147POPC   C3A41249   6.679  13.613   7.053
 8147POPC   C4A41250   6.653  13.609   7.353
 8147POPC   C1B41251   6.823  13.407   6.453
 8147POPC   C2B41252   6.823  13.418   6.753
 8147POPC   C3B41253   6.818  13.407   7.053
 8147POPC   C4B41254   6.824  13.445   7.353
 8148POPC   NC341255  37.718  32.256   5.553
 8148POPC   PO441256  37.632  32.265   5.853
 8148POPC   GL141257  37.699  32.249   6.153
 8148POPC   GL241258  37.653  32.152   6.153
 8148POPC   C1A41259  37.653  32.280   6.453
 8148POPC   D2A41260  37.657  32.296   6.753
 8148POPC   C3A41261  37.662  32.231   7.053
 8148POPC   C4A41262  37.632  32.284   7.353
 8148POPC   C1B41263  37.629  31.985   6.453
 8148POPC   C2B41264  37.616  32.027   6.753
 8148POPC   C3B41265  37.596  31.996   7.053
 8148POPC   C4B41266  37.595  31.972   7.353
 8149POPC   NC341267   5.094  15.911   5.553
 8149POPC   PO441268   5.141  15.945   5.853
 8149POPC   GL141269   5.132  15.924   6.153
 8149POPC   GL241270   5.155  16.027   6.153
 8149POPC   C1A41271   5.095  15.982   6.453
 8149POPC   D2A41272   5.059  15.967   6.753
 8149POPC   C3A41273   5.109  15.926   7.053
 8149POPC   C4A41274   5.135  15.942   7.353
 8149POPC   C1B41275   5.338  16.138   6.453
 8149POPC   C2B41276   5.304  16.140   6.753
 8149POPC   C3B41277   5.306  16.130   7.053
 8149POPC   C4B41278   5.273  16.114   7.353
 8150POPC   NC341279  30.715  22.114   5.553
 8150POPC   PO441280  30.692  22.161   5.853
 8150POPC   GL141281  30.713  22.189   6.153
 8150POPC   GL241282  30.540  22.123   6.153
 8150POPC   C1A41283  30.653  22.119   6.453
 8150POPC   D2A41284  30.727  22.161   6.753
 8150POPC   C3A41285  30.736  22.197   7.053
 8150POPC   C4A41286  30.671  22.183   7.353
 8150POPC   C1B41287  30.504  22.056   6.453
 8150POPC   C2B41288  30.479  22.086   6.753
 8150POPC   C3B41289  30.454  22.117   7.053
 8150POPC   C4B41290  30.470  22.117   7.353
 8151POPC   NC341291  32.975  37.651   5.553
 8151POPC   PO441292  32.997  37.689   5.853
 8151POPC   GL141293  33.017  37.665   6.153
 8151POPC   GL241294  33.016  37.603   6.153
 8151POPC   C1A41295  33.034  37.640   6.453
 8151POPC   D2A41296  33.018  37.712   6.753
 8151POPC   C3A41297  32.998  37.708   7.053
 8151POPC   C4A41298  33.007  37.639   7.353
 8151POPC   C1B41299  32.897  37.447   6.453
 8151POPC   C2B41300  32.918  37.415   6.753
 8151POPC   C3B41301  32.898  37.436   7.053
 8151POPC   C4B41302  32.866  37.481   7.353
 8152POPC   NC341303  17.476   1.246   5.553
 8152POPC   PO441304  17.487   1.252   5.853
 8152POPC   GL141305  17.521   1.253   6.153
 8152POPC   GL241306  17.453   1.145   6.153
 8152POPC   C1A41307  17.532   1.169   6.453
 8152POPC   D2A41308  17.457   1.172   6.753
 8152POPC   C3A41309  17.476   1.241   7.053
 8152POPC   C4A41310  17.537   1.233   7.353
 8152POPC   C1B41311  17.421   0.980   6.453
 8152POPC   C2B41312  17.450   1.019   6.753
 8152POPC   C3B41313  17.421   0.971   7.053
 8152POPC   C4B41314  17.358   0.956   7.353
 8153POPC   NC341315   6.662  44.678   5.553
 8153POPC   PO441316   6.645  44.615   5.853
 8153POPC   GL141317   6.617  44.711   6.153
 8153POPC   GL241318   6.539  44.668   6.153
 8153POPC   C1A41319   6.622  44.644   6.453
 8153POPC   D2A41320   6.638  44.706   6.753
 8153POPC   C3A41321   6.635  44.629   7.053
 8153POPC   C4A41322   6.657  44.664   7.353
 8153POPC   C1B41323   6.362  44.625   6.453
 8153POPC   C2B41324   6.405  44.645   6.753
 8153POPC   C3B41325   6.413  44.701   7.053
 8153POPC   C4B41326   6.376  44.704   7.353
 8154POPC   NC341327  12.819  14.429   5.553
 8154POPC   PO441328  12.886  14.413   5.853
 8154POPC   GL141329  12.846  14.408   6.153
 8154POPC   GL241330  12.759  14.396   6.153
 8154POPC   C1A41331  12.840  14.438   6.453
 8154POPC   D2A41332  12.885  14.375   6.753
 8154POPC   C3A41333  12.848  14.440   7.053
 8154POPC   C4A41334  12.890  14.436   7.353
 8154POPC   C1B41335  12.568  14.408   6.453
 8154POPC   C2B41336  12.603  14.355   6.753
 8154POPC   C3B41337  12.642  14.363   7.053
 8154POPC   C4B41338  12.575  14.347   7.353
 8155POPC   NC341339  26.052  32.234   5.553
 8155POPC   PO441340  26.037  32.254   5.853
 8155POPC   GL141341  26.043  32.250   6.153
 8155POPC   GL241342  26.025  32.165   6.153
 8155POPC   C1A41343  26.068  32.278   6.453
 8155POPC   D2A41344  26.012  32.269   6.753
 8155POPC   C3A41345  26.079  32.283   7.053
 8155POPC   C4A41346  26.083  32.287   7.353
 8155POPC   C1B41347  26.126  32.039   6.453
 8155POPC   C2B41348  26.035  31.987   6.753
 8155POPC   C3B41349  26.046  31.995   7.053
 8155POPC   C4B41350  26.049  32.005   7.353
 8156POPC   NC341351  34.623  15.971   5.553
 8156POPC   PO441352  34.559  15.965   5.853
 8156POPC   GL141353  34.581  16.004   6.153
 8156POPC   GL241354  34.529  16.061   6.153
 8156POPC   C1A41355  34.571  15.916   6.453
 8156POPC   D2A41356  34.569  15.937   6.753
 8156POPC   C3A41357  34.587  15.942   7.053
 8156POPC   C4A41358  34.587  15.985   7.353
 8156POPC   C1B41359  34.470  16.151   6.453
 8156POPC   C2B41360  34.470  16.163   6.753
 8156POPC   C3B41361  34.429  16.180   7.053
 8156POPC   C4B41362  34.411  16.123   7.353
 8157POPC   NC341363  21.380  43.873   5.553
 8157POPC   PO441364  21.359  43.934   5.853
 8157POPC   GL141365  21.339  43.862   6.153
 8157POPC   GL241366  21.390  44.020   6.153
 8157POPC   C1A41367  21.366  43.843   6.453
 8157POPC   D2A41368  21.360  43.906   6.753
 8157POPC   C3A41369  21.341  43.848   7.053
 8157POPC   C4A41370  21.429  43.867   7.353
 8157POPC   C1B41371  21.245  44.166   6.453
 8157POPC   C2B41372  21.283  44.126   6.753
 8157POPC   C3B41373  21.250  44.089   7.053
 8157POPC   C4B41374  21.266  44.096   7.353
 8158POPC   NC341375   8.999   1.185   5.553
 8158POPC   PO441376   8.984   1.171   5.853
 8158POPC   GL141377   8.949   1.206   6.153
 8158POPC   GL241378   8.980   1.045   6.153
 8158POPC   C1A41379   8.930   1.261   6.453
 8158POPC   D2A41380   8.939   1.203   6.753
 8158POPC   C3A41381   8.989   1.218   7.053
 8158POPC   C4A41382   8.944   1.193   7.353
 8158POPC   C1B41383   8.944   0.966   6.453
 8158POPC   C2B41384   9.015   0.984   6.753
 8158POPC   C3B41385   8.999   0.946   7.053
 8158POPC   C4B41386   9.005   0.951   7.353
 8159POPC   NC341387  22.116  24.444   5.553
 8159POPC   PO441388  22.129  24.532   5.853
 8159POPC   GL141389  22.140  24.469   6.153
 8159POPC   GL241390  22.150  24.372   6.153
 8159POPC   C1A41391  22.134  24.531   6.453
 8159POPC   D2A41392  22.201  24.527   6.753
 8159POPC   C3A41393  22.202  24.448   7.053
 8159POPC   C4A41394  22.121  24.489   7.353
 8159POPC   C1B41395  22.007  24.279   6.453
 8159POPC   C2B41396  22.075  24.266   6.753
 8159POPC   C3B41397  21.997  24.265   7.053
 8159POPC   C4B41398  21.996  24.290   7.353
 8160POPC   NC341399  42.362  19.855   5.553
 8160POPC   PO441400  42.341  19.807   5.853
 8160POPC   GL141401  42.312  19.816   6.153
 8160POPC   GL241402  42.288  19.944   6.153
 8160POPC   C1A41403  42.383  19.868   6.453
 8160POPC   D2A41404  42.361  19.821   6.753
 8160POPC   C3A41405  42.297  19.877   7.053
 8160POPC   C4A41406  42.336  19.786   7.353
 8160POPC   C1B41407  42.235  19.997   6.453
 8160POPC   C2B41408  42.212  20.016   6.753
 8160POPC   C3B41409  42.227  20.083   7.053
 8160POPC   C4B41410  42.151  20.038   7.353
 8161POPC   NC341411  22.889  17.523   5.553
 8161POPC   PO441412  22.982  17.479   5.853
 8161POPC   GL141413  22.899  17.528   6.153
 8161POPC   GL241414  22.840  17.393   6.153
 8161POPC   C1A41415  22.927  17.486   6.453
 8161POPC   D2A41416  22.960  17.468   6.753
 8161POPC   C3A41417  22.931  17.536   7.053
 8161POPC   C4A41418  22.904  17.523   7.353
 8161POPC   C1B41419  22.847  17.317   6.453
 8161POPC   C2B41420  22.861  17.320   6.753
 8161POPC   C3B41421  22.843  17.327   7.053
 8161POPC   C4B41422  22.825  17.241   7.353
 8162POPC   NC341423  42.303  24.495   5.553
 8162POPC   PO441424  42.341  24.522   5.853
 8162POPC   GL141425  42.350  24.453   6.153
 8162POPC   GL241426  42.271  24.383   6.153
 8162POPC   C1A41427  42.303  24.531   6.453
 8162POPC   D2A41428  42.311  24.456   6.753
 8162POPC   C3A41429  42.333  24.482   7.053
 8162POPC   C4A41430  42.351  24.447   7.353
 8162POPC   C1B41431  42.107  24.357   6.453
 8162POPC   C2B41432  42.132  24.346   6.753
 8162POPC   C3B41433  42.133  24.311   7.053
 8162POPC   C4B41434  42.106  24.307   7.353
 8163POPC   NC341435  29.879  14.391   5.553
 8163POPC   PO441436  29.896  14.394   5.853
 8163POPC   GL141437  29.913  14.421   6.153
 8163POPC   GL241438  30.015  14.311   6.153
 8163POPC   C1A41439  29.871  14.410   6.453
 8163POPC   D2A41440  29.872  14.395   6.753
 8163POPC   C3A41441  29.946  14.406   7.053
 8163POPC   C4A41442  29.892  14.395   7.353
 8163POPC   C1B41443  30.139  14.288   6.453
 8163POPC   C2B41444  30.175  14.250   6.753
 8163POPC   C3B41445  30.180  14.247   7.053
 8163POPC   C4B41446  30.160  14.307   7.353
 8164POPC   NC341447   9.780  15.914   5.553
 8164POPC   PO441448   9.705  15.975   5.853
 8164POPC   GL141449   9.749  15.992   6.153
 8164POPC   GL241450   9.802  16.064   6.153
 8164POPC   C1A41451   9.755  15.964   6.453
 8164POPC   D2A41452   9.782  15.925   6.753
 8164POPC   C3A41453   9.729  15.944   7.053
 8164POPC   C4A41454   9.719  15.977   7.353
 8164POPC   C1B41455   9.870  16.197   6.453
 8164POPC   C2B41456   9.837  16.179   6.753
 8164POPC   C3B41457   9.830  16.183   7.053
 8164POPC   C4B41458   9.891  16.194   7.353
 8165POPC   NC341459  21.352  12.879   5.553
 8165POPC   PO441460  21.431  12.860   5.853
 8165POPC   GL141461  21.353  12.869   6.153
 8165POPC   GL241462  21.451  12.725   6.153
 8165POPC   C1A41463  21.430  12.875   6.453
 8165POPC   D2A41464  21.361  12.854   6.753
 8165POPC   C3A41465  21.366  12.824   7.053
 8165POPC   C4A41466  21.419  12.892   7.353
 8165POPC   C1B41467  21.567  12.720   6.453
 8165POPC   C2B41468  21.583  12.659   6.753
 8165POPC   C3B41469  21.535  12.653   7.053
 8165POPC   C4B41470  21.619  12.655   7.353
 8166POPC   NC341471   2.763  32.270   5.553
 8166POPC   PO441472   2.812  32.243   5.853
 8166POPC   GL141473   2.739  32.245   6.153
 8166POPC   GL241474   2.839  32.274   6.153
 8166POPC   C1A41475   2.790  32.245   6.453
 8166POPC   D2A41476   2.743  32.285   6.753
 8166POPC   C3A41477   2.769  32.241   7.053
 8166POPC   C4A41478   2.776  32.204   7.353
 8166POPC   C1B41479   2.960  32.378   6.453
 8166POPC   C2B41480   3.042  32.322   6.753
 8166POPC   C3B41481   2.997  32.314   7.053
 8166POPC   C4B41482   2.963  32.373   7.353
 8167POPC   NC341483   3.533  32.292   5.553
 8167POPC   PO441484   3.541  32.285   5.853
 8167POPC   GL141485   3.566  32.207   6.153
 8167POPC   GL241486   3.667  32.305   6.153
 8167POPC   C1A41487   3.503  32.245   6.453
 8167POPC   D2A41488   3.512  32.243   6.753
 8167POPC   C3A41489   3.590  32.283   7.053
 8167POPC   C4A41490   3.528  32.283   7.353
 8167POPC   C1B41491   3.731  32.422   6.453
 8167POPC   C2B41492   3.690  32.435   6.753
 8167POPC   C3B41493   3.685  32.466   7.053
 8167POPC   C4B41494   3.664  32.470   7.353
 8168POPC   NC341495  43.870  32.227   5.553
 8168POPC   PO441496  43.881  32.226   5.853
 8168POPC   GL141497  43.931  32.208   6.153
 8168POPC   GL241498  43.955  32.296   6.153
 8168POPC   C1A41499  43.907  32.275   6.453
 8168POPC   D2A41500  43.903  32.294   6.753
 8168POPC   C3A41501  43.845  32.255   7.053
 8168POPC   C4A41502  43.889  32.281   7.353
 8168POPC   C1B41503  44.080  32.398   6.453
 8168POPC   C2B41504  44.089  32.425   6.753
 8168POPC   C3B41505  44.099  32.465   7.053
 8168POPC   C4B41506  44.106  32.466   7.353
 8169POPC   NC341507   9.736  12.884   5.553
 8169POPC   PO441508   9.768  12.894   5.853
 8169POPC   GL141509   9.774  12.815   6.153
 8169POPC   GL241510   9.641  12.780   6.153
 8169POPC   C1A41511   9.741  12.899   6.453
 8169POPC   D2A41512   9.723  12.887   6.753
 8169POPC   C3A41513   9.719  12.876   7.053
 8169POPC   C4A41514   9.769  12.807   7.353
 8169POPC   C1B41515   9.564  12.759   6.453
 8169POPC   C2B41516   9.507  12.753   6.753
 8169POPC   C3B41517   9.537  12.789   7.053
 8169POPC   C4B41518   9.558  12.807   7.353
 8170POPC   NC341519  12.075  17.488   5.553
 8170POPC   PO441520  12.089  17.507   5.853
 8170POPC   GL141521  12.055  17.524   6.153
 8170POPC   GL241522  11.999  17.400   6.153
 8170POPC   C1A41523  12.043  17.514   6.453
 8170POPC   D2A41524  12.064  17.481   6.753
 8170POPC   C3A41525  12.069  17.484   7.053
 8170POPC   C4A41526  12.117  17.528   7.353
 8170POPC   C1B41527  11.866  17.352   6.453
 8170POPC   C2B41528  11.857  17.346   6.753
 8170POPC   C3B41529  11.842  17.338   7.053
 8170POPC   C4B41530  11.884  17.325   7.353
 8171POPC   NC341531  42.369  34.534   5.553
 8171POPC   PO441532  42.331  34.614   5.853
 8171POPC   GL141533  42.363  34.536   6.153
 8171POPC   GL241534  42.430  34.517   6.153
 8171POPC   C1A41535  42.326  34.576   6.453
 8171POPC   D2A41536  42.337  34.528   6.753
 8171POPC   C3A41537  42.351  34.617   7.053
 8171POPC   C4A41538  42.298  34.604   7.353
 8171POPC   C1B41539  42.525  34.480   6.453
 8171POPC   C2B41540  42.506  34.456   6.753
 8171POPC   C3B41541  42.518  34.446   7.053
 8171POPC   C4B41542  42.534  34.473   7.353
 8172POPC   NC341543  37.654  43.099   5.553
 8172POPC   PO441544  37.685  43.117   5.853
 8172POPC   GL141545  37.700  43.124   6.153
 8172POPC   GL241546  37.781  43.155   6.153
 8172POPC   C1A41547  37.713  43.105   6.453
 8172POPC   D2A41548  37.726  43.111   6.753
 8172POPC   C3A41549  37.695  43.110   7.053
 8172POPC   C4A41550  37.722  43.127   7.353
 8172POPC   C1B41551  37.911  43.129   6.453
 8172POPC   C2B41552  37.938  43.099   6.753
 8172POPC   C3B41553  37.915  43.127   7.053
 8172POPC   C4B41554  37.976  43.106   7.353
 8173POPC   NC341555   2.777   6.691   5.553
 8173POPC   PO441556   2.813   6.631   5.853
 8173POPC   GL141557   2.767   6.648   6.153
 8173POPC   GL241558   2.727   6.500   6.153
 8173POPC   C1A41559   2.739   6.684   6.453
 8173POPC   D2A41560   2.785   6.665   6.753
 8173POPC   C3A41561   2.807   6.654   7.053
 8173POPC   C4A41562   2.768   6.652   7.353
 8173POPC   C1B41563   2.612   6.473   6.453
 8173POPC   C2B41564   2.644   6.409   6.753
 8173POPC   C3B41565   2.607   6.408   7.053
 8173POPC   C4B41566   2.605   6.475   7.353
 8174POPC   NC341567  22.181  38.450   5.553
 8174POPC   PO441568  22.123  38.427   5.853
 8174POPC   GL141569  22.172  38.465   6.153
 8174POPC   GL241570  22.300  38.532   6.153
 8174POPC   C1A41571  22.151  38.490   6.453
 8174POPC   D2A41572  22.160  38.457   6.753
 8174POPC   C3A41573  22.183  38.465   7.053
 8174POPC   C4A41574  22.144  38.437   7.353
 8174POPC   C1B41575  22.397  38.506   6.453
 8174POPC   C2B41576  22.451  38.475   6.753
 8174POPC   C3B41577  22.416  38.514   7.053
 8174POPC   C4B41578  22.434  38.545   7.353
 8175POPC   NC341579  18.287  11.346   5.553
 8175POPC   PO441580  18.297  11.299   5.853
 8175POPC   GL141581  18.296  11.256   6.153
 8175POPC   GL241582  18.412  11.308   6.153
 8175POPC   C1A41583  18.263  11.303   6.453
 8175POPC   D2A41584  18.295  11.338   6.753
 8175POPC   C3A41585  18.238  11.350   7.053
 8175POPC   C4A41586  18.272  11.274   7.353
 8175POPC   C1B41587  18.483  11.388   6.453
 8175POPC   C2B41588  18.572  11.361   6.753
 8175POPC   C3B41589  18.501  11.371   7.053
 8175POPC   C4B41590  18.525  11.327   7.353
 8176POPC   NC341591  39.200  36.944   5.553
 8176POPC   PO441592  39.230  36.915   5.853
 8176POPC   GL141593  39.243  36.866   6.153
 8176POPC   GL241594  39.327  36.889   6.153
 8176POPC   C1A41595  39.213  36.916   6.453
 8176POPC   D2A41596  39.265  36.909   6.753
 8176POPC   C3A41597  39.204  36.885   7.053
 8176POPC   C4A41598  39.218  36.871   7.353
 8176POPC   C1B41599  39.450  36.756   6.453
 8176POPC   C2B41600  39.460  36.776   6.753
 8176POPC   C3B41601  39.492  36.747   7.053
 8176POPC   C4B41602  39.463  36.807   7.353
 8177POPC   NC341603   1.208   3.548   5.553
 8177POPC   PO441604   1.195   3.555   5.853
 8177POPC   GL141605   1.230   3.495   6.153
 8177POPC   GL241606   1.111   3.500   6.153
 8177POPC   C1A41607   1.249   3.502   6.453
 8177POPC   D2A41608   1.262   3.583   6.753
 8177POPC   C3A41609   1.248   3.530   7.053
 8177POPC   C4A41610   1.175   3.519   7.353
 8177POPC   C1B41611   1.036   3.430   6.453
 8177POPC   C2B41612   1.002   3.413   6.753
 8177POPC   C3B41613   0.975   3.377   7.053
 8177POPC   C4B41614   1.025   3.371   7.353
 8178POPC   NC341615  12.045   5.884   5.553
 8178POPC   PO441616  12.026   5.896   5.853
 8178POPC   GL141617  12.113   5.819   6.153
 8178POPC   GL241618  11.920   5.882   6.153
 8178POPC   C1A41619  12.026   5.842   6.453
 8178POPC   D2A41620  12.111   5.897   6.753
 8178POPC   C3A41621  12.112   5.880   7.053
 8178POPC   C4A41622  12.027   5.919   7.353
 8178POPC   C1B41623  11.892   5.953   6.453
 8178POPC   C2B41624  11.847   5.966   6.753
 8178POPC   C3B41625  11.876   5.959   7.053
 8178POPC   C4B41626  11.882   5.940   7.353
 8179POPC   NC341627  18.253  43.095   5.553
 8179POPC   PO441628  18.241  43.151   5.853
 8179POPC   GL141629  18.286  43.134   6.153
 8179POPC   GL241630  18.208  43.091   6.153
 8179POPC   C1A41631  18.300  43.094   6.453
 8179POPC   D2A41632  18.331  43.137   6.753
 8179POPC   C3A41633  18.239  43.137   7.053
 8179POPC   C4A41634  18.272  43.083   7.353
 8179POPC   C1B41635  18.088  42.988   6.453
 8179POPC   C2B41636  18.071  43.077   6.753
 8179POPC   C3B41637  18.072  43.020   7.053
 8179POPC   C4B41638  18.085  42.987   7.353
 8180POPC   NC341639  11.298  39.198   5.553
 8180POPC   PO441640  11.274  39.201   5.853
 8180POPC   GL141641  11.273  39.205   6.153
 8180POPC   GL241642  11.394  39.308   6.153
 8180POPC   C1A41643  11.277  39.227   6.453
 8180POPC   D2A41644  11.270  39.200   6.753
 8180POPC   C3A41645  11.324  39.182   7.053
 8180POPC   C4A41646  11.312  39.217   7.353
 8180POPC   C1B41647  11.457  39.408   6.453
 8180POPC   C2B41648  11.521  39.431   6.753
 8180POPC   C3B41649  11.445  39.435   7.053
 8180POPC   C4B41650  11.526  39.382   7.353
 8181POPC   NC341651  37.715   9.784   5.553
 8181POPC   PO441652  37.650   9.699   5.853
 8181POPC   GL141653  37.703   9.781   6.153
 8181POPC   GL241654  37.594   9.631   6.153
 8181POPC   C1A41655  37.671   9.776   6.453
 8181POPC   D2A41656  37.651   9.762   6.753
 8181POPC   C3A41657  37.636   9.750   7.053
 8181POPC   C4A41658  37.666   9.724   7.353
 8181POPC   C1B41659  37.507   9.582   6.453
 8181POPC   C2B41660  37.450   9.587   6.753
 8181POPC   C3B41661  37.529   9.575   7.053
 8181POPC   C4B41662  37.454   9.624   7.353
 8182POPC   NC341663  14.438   5.860   5.553
 8182POPC   PO441664  14.398   5.862   5.853
 8182POPC   GL141665  14.379   5.891   6.153
 8182POPC   GL241666  14.499   5.964   6.153
 8182POPC   C1A41667  14.371   5.886   6.453
 8182POPC   D2A41668  14.395   5.901   6.753
 8182POPC   C3A41669  14.366   5.892   7.053
 8182POPC   C4A41670  14.403   5.839   7.353
 8182POPC   C1B41671  14.609   6.094   6.453
 8182POPC   C2B41672  14.543   6.010   6.753
 8182POPC   C3B41673  14.569   6.093   7.053
 8182POPC   C4B41674  14.537   6.022   7.353
 8183POPC   NC341675   8.951  40.754   5.553
 8183POPC   PO441676   8.974  40.785   5.853
 8183POPC   GL141677   8.970  40.769   6.153
 8183POPC   GL241678   9.098  40.783   6.153
 8183POPC   C1A41679   8.946  40.745   6.453
 8183POPC   D2A41680   8.993  40.735   6.753
 8183POPC   C3A41681   8.945  40.776   7.053
 8183POPC   C4A41682   8.935  40.770   7.353
 8183POPC   C1B41683   9.238  40.725   6.453
 8183POPC   C2B41684   9.200  40.742   6.753
 8183POPC   C3B41685   9.181  40.710   7.053
 8183POPC   C4B41686   9.251  40.755   7.353
 8184POPC   NC341687  19.875  27.613   5.553
 8184POPC   PO441688  19.871  27.626   5.853
 8184POPC   GL141689  19.843  27.575   6.153
 8184POPC   GL241690  19.765  27.474   6.153
 8184POPC   C1A41691  19.809  27.544   6.453
 8184POPC   D2A41692  19.866  27.605   6.753
 8184POPC   C3A41693  19.834  27.549   7.053
 8184POPC   C4A41694  19.803  27.633   7.353
 8184POPC   C1B41695  19.672  27.416   6.453
 8184POPC   C2B41696  19.706  27.403   6.753
 8184POPC   C3B41697  19.648  27.385   7.053
 8184POPC   C4B41698  19.708  27.424   7.353
 8185POPC   NC341699   1.250   2.764   5.553
 8185POPC   PO441700   1.252   2.767   5.853
 8185POPC   GL141701   1.171   2.721   6.153
 8185POPC   GL241702   1.126   2.635   6.153
 8185POPC   C1A41703   1.221   2.778   6.453
 8185POPC   D2A41704   1.233   2.756   6.753
 8185POPC   C3A41705   1.195   2.738   7.053
 8185POPC   C4A41706   1.176   2.748   7.353
 8185POPC   C1B41707   1.141   2.556   6.453
 8185POPC   C2B41708   1.151   2.521   6.753
 8185POPC   C3B41709   1.093   2.564   7.053
 8185POPC   C4B41710   1.088   2.488   7.353
 8186POPC   NC341711  17.502  13.652   5.553
 8186POPC   PO441712  17.458  13.649   5.853
 8186POPC   GL141713  17.502  13.672   6.153
 8186POPC   GL241714  17.458  13.732   6.153
 8186POPC   C1A41715  17.556  13.578   6.453
 8186POPC   D2A41716  17.468  13.627   6.753
 8186POPC   C3A41717  17.541  13.648   7.053
 8186POPC   C4A41718  17.555  13.634   7.353
 8186POPC   C1B41719  17.393  13.859   6.453
 8186POPC   C2B41720  17.392  13.813   6.753
 8186POPC   C3B41721  17.374  13.852   7.053
 8186POPC   C4B41722  17.360  13.874   7.353
 8187POPC   NC341723   9.707   9.000   5.553
 8187POPC   PO441724   9.784   9.015   5.853
 8187POPC   GL141725   9.785   8.964   6.153
 8187POPC   GL241726   9.805   9.080   6.153
 8187POPC   C1A41727   9.740   8.961   6.453
 8187POPC   D2A41728   9.780   8.988   6.753
 8187POPC   C3A41729   9.764   8.983   7.053
 8187POPC   C4A41730   9.739   8.944   7.353
 8187POPC   C1B41731   9.955   9.086   6.453
 8187POPC   C2B41732   9.913   9.163   6.753
 8187POPC   C3B41733   9.910   9.125   7.053
 8187POPC   C4B41734   9.957   9.118   7.353
 8188POPC   NC341735  41.546   3.551   5.553
 8188POPC   PO441736  41.574   3.519   5.853
 8188POPC   GL141737  41.545   3.526   6.153
 8188POPC   GL241738  41.612   3.471   6.153
 8188POPC   C1A41739  41.589   3.523   6.453
 8188POPC   D2A41740  41.552   3.511   6.753
 8188POPC   C3A41741  41.583   3.584   7.053
 8188POPC   C4A41742  41.545   3.566   7.353
 8188POPC   C1B41743  41.688   3.333   6.453
 8188POPC   C2B41744  41.754   3.337   6.753
 8188POPC   C3B41745  41.685   3.391   7.053
 8188POPC   C4B41746  41.754   3.367   7.353
 8189POPC   NC341747  32.296  25.298   5.553
 8189POPC   PO441748  32.213  25.280   5.853
 8189POPC   GL141749  32.255  25.223   6.153
 8189POPC   GL241750  32.188  25.122   6.153
 8189POPC   C1A41751  32.295  25.303   6.453
 8189POPC   D2A41752  32.218  25.270   6.753
 8189POPC   C3A41753  32.204  25.301   7.053
 8189POPC   C4A41754  32.228  25.273   7.353
 8189POPC   C1B41755  32.139  25.101   6.453
 8189POPC   C2B41756  32.094  25.068   6.753
 8189POPC   C3B41757  32.055  25.089   7.053
 8189POPC   C4B41758  32.122  25.034   7.353
 8190POPC   NC341759   5.118  12.843   5.553
 8190POPC   PO441760   5.136  12.847   5.853
 8190POPC   GL141761   5.139  12.811   6.153
 8190POPC   GL241762   4.977  12.945   6.153
 8190POPC   C1A41763   5.082  12.819   6.453
 8190POPC   D2A41764   5.061  12.826   6.753
 8190POPC   C3A41765   5.126  12.897   7.053
 8190POPC   C4A41766   5.049  12.819   7.353
 8190POPC   C1B41767   4.915  13.054   6.453
 8190POPC   C2B41768   4.942  12.970   6.753
 8190POPC   C3B41769   4.852  12.991   7.053
 8190POPC   C4B41770   4.933  12.987   7.353
 8191POPC   NC341771  30.717  36.105   5.553
 8191POPC   PO441772  30.728  36.147   5.853
 8191POPC   GL141773  30.742  36.141   6.153
 8191POPC   GL241774  30.718  36.240   6.153
 8191POPC   C1A41775  30.701  36.150   6.453
 8191POPC   D2A41776  30.679  36.135   6.753
 8191POPC   C3A41777  30.738  36.097   7.053
 8191POPC   C4A41778  30.647  36.152   7.353
 8191POPC   C1B41779  30.698  36.328   6.453
 8191POPC   C2B41780  30.671  36.390   6.753
 8191POPC   C3B41781  30.663  36.397   7.053
 8191POPC   C4B41782  30.703  36.401   7.353
 8192POPC   NC341783  10.519  39.194   5.553
 8192POPC   PO441784  10.533  39.276   5.853
 8192POPC   GL141785  10.562  39.255   6.153
 8192POPC   GL241786  10.517  39.104   6.153
 8192POPC   C1A41787  10.570  39.247   6.453
 8192POPC   D2A41788  10.542  39.212   6.753
 8192POPC   C3A41789  10.482  39.199   7.053
 8192POPC   C4A41790  10.508  39.229   7.353
 8192POPC   C1B41791  10.438  39.023   6.453
 8192POPC   C2B41792  10.414  39.032   6.753
 8192POPC   C3B41793  10.408  38.980   7.053
 8192POPC   C4B41794  10.405  39.058   7.353
 8193POPC   NC341795  24.529   4.354   5.553
 8193POPC   PO441796  24.455   4.353   5.853
 8193POPC   GL141797  24.453   4.268   6.153
 8193POPC   GL241798  24.534   4.413   6.153
 8193POPC   C1A41799  24.475   4.344   6.453
 8193POPC   D2A41800  24.449   4.341   6.753
 8193POPC   C3A41801  24.458   4.308   7.053
 8193POPC   C4A41802  24.452   4.321   7.353
 8193POPC   C1B41803  24.570   4.587   6.453
 8193POPC   C2B41804  24.620   4.559   6.753
 8193POPC   C3B41805  24.536   4.507   7.053
 8193POPC   C4B41806  24.588   4.543   7.353
 8194POPC   NC341807  30.685  27.589   5.553
 8194POPC   PO441808  30.702  27.618   5.853
 8194POPC   GL141809  30.650  27.553   6.153
 8194POPC   GL241810  30.777  27.702   6.153
 8194POPC   C1A41811  30.658  27.625   6.453
 8194POPC   D2A41812  30.721  27.587   6.753
 8194POPC   C3A41813  30.680  27.628   7.053
 8194POPC   C4A41814  30.675  27.582   7.353
 8194POPC   C1B41815  30.814  27.761   6.453
 8194POPC   C2B41816  30.862  27.804   6.753
 8194POPC   C3B41817  30.770  27.799   7.053
 8194POPC   C4B41818  30.798  27.790   7.353
 8195POPC   NC341819   4.276  20.568   5.553
 8195POPC   PO441820   4.274  20.591   5.853
 8195POPC   GL141821   4.336  20.640   6.153
 8195POPC   GL241822   4.445  20.655   6.153
 8195POPC   C1A41823   4.333  20.616   6.453
 8195POPC   D2A41824   4.346  20.610   6.753
 8195POPC   C3A41825   4.362  20.606   7.053
 8195POPC   C4A41826   4.282  20.570   7.353
 8195POPC   C1B41827   4.492  20.699   6.453
 8195POPC   C2B41828   4.536  20.712   6.753
 8195POPC   C3B41829   4.525  20.729   7.053
 8195POPC   C4B41830   4.527  20.732   7.353
 8196POPC   NC341831  22.205   1.187   5.553
 8196POPC   PO441832  22.140   1.237   5.853
 8196POPC   GL141833  22.116   1.170   6.153
 8196POPC   GL241834  22.171   1.355   6.153
 8196POPC   C1A41835  22.167   1.207   6.453
 8196POPC   D2A41836  22.162   1.194   6.753
 8196POPC   C3A41837  22.142   1.228   7.053
 8196POPC   C4A41838  22.164   1.241   7.353
 8196POPC   C1B41839  22.217   1.460   6.453
 8196POPC   C2B41840  22.199   1.411   6.753
 8196POPC   C3B41841  22.194   1.442   7.053
 8196POPC   C4B41842  22.252   1.434   7.353
 8197POPC   NC341843  41.590  26.852   5.553
 8197POPC   PO441844  41.550  26.812   5.853
 8197POPC   GL141845  41.585  26.769   6.153
 8197POPC   GL241846  41.660  26.705   6.153
 8197POPC   C1A41847  41.537  26.842   6.453
 8197POPC   D2A41848  41.514  26.846   6.753
 8197POPC   C3A41849  41.539  26.804   7.053
 8197POPC   C4A41850  41.573  26.774   7.353
 8197POPC   C1B41851  41.807  26.687   6.453
 8197POPC   C2B41852  41.794  26.666   6.753
 8197POPC   C3B41853  41.783  26.734   7.053
 8197POPC   C4B41854  41.756  26.735   7.353
 8198POPC   NC341855  32.293  27.604   5.553
 8198POPC   PO441856  32.260  27.591   5.853
 8198POPC   GL141857  32.242  27.636   6.153
 8198POPC   GL241858  32.375  27.554   6.153
 8198POPC   C1A41859  32.296  27.550   6.453
 8198POPC   D2A41860  32.246  27.563   6.753
 8198POPC   C3A41861  32.235  27.635   7.053
 8198POPC   C4A41862  32.251  27.613   7.353
 8198POPC   C1B41863  32.428  27.513   6.453
 8198POPC   C2B41864  32.420  27.468   6.753
 8198POPC   C3B41865  32.447  27.482   7.053
 8198POPC   C4B41866  32.436  27.485   7.353
 8199POPC   NC341867  42.351  40.040   5.553
 8199POPC   PO441868  42.382  39.958   5.853
 8199POPC   GL141869  42.304  39.962   6.153
 8199POPC   GL241870  42.203  39.896   6.153
 8199POPC   C1A41871  42.349  40.043   6.453
 8199POPC   D2A41872  42.296  40.034   6.753
 8199POPC   C3A41873  42.317  39.962   7.053
 8199POPC   C4A41874  42.293  39.966   7.353
 8199POPC   C1B41875  42.150  39.838   6.453
 8199POPC   C2B41876  42.132  39.803   6.753
 8199POPC   C3B41877  42.102  39.861   7.053
 8199POPC   C4B41878  42.172  39.878   7.353
 8200POPC   NC341879   8.209   4.311   5.553
 8200POPC   PO441880   8.155   4.365   5.853
 8200POPC   GL141881   8.239   4.319   6.153
 8200POPC   GL241882   8.218   4.160   6.153
 8200POPC   C1A41883   8.182   4.276   6.453
 8200POPC   D2A41884   8.185   4.272   6.753
 8200POPC   C3A41885   8.188   4.315   7.053
 8200POPC   C4A41886   8.177   4.280   7.353
 8200POPC   C1B41887   8.340   4.100   6.453
 8200POPC   C2B41888   8.298   4.049   6.753
 8200POPC   C3B41889   8.326   4.136   7.053
 8200POPC   C4B41890   8.315   4.106   7.353
 8201POPC   NC341891   8.220  15.926   5.553
 8201POPC   PO441892   8.193  15.944   5.853
 8201POPC   GL141893   8.149  15.921   6.153
 8201POPC   GL241894   8.232  16.063   6.153
 8201POPC   C1A41895   8.195  15.957   6.453
 8201POPC   D2A41896   8.177  15.947   6.753
 8201POPC   C3A41897   8.170  15.976   7.053
 8201POPC   C4A41898   8.194  15.991   7.353
 8201POPC   C1B41899   8.206  16.240   6.453
 8201POPC   C2B41900   8.203  16.209   6.753
 8201POPC   C3B41901   8.146  16.218   7.053
 8201POPC   C4B41902   8.167  16.231   7.353
 8202POPC   NC341903  20.594  39.217   5.553
 8202POPC   PO441904  20.633  39.189   5.853
 8202POPC   GL141905  20.605  39.247   6.153
 8202POPC   GL241906  20.503  39.194   6.153
 8202POPC   C1A41907  20.654  39.277   6.453
 8202POPC   D2A41908  20.597  39.185   6.753
 8202POPC   C3A41909  20.603  39.182   7.053
 8202POPC   C4A41910  20.591  39.269   7.353
 8202POPC   C1B41911  20.429  39.073   6.453
 8202POPC   C2B41912  20.426  39.156   6.753
 8202POPC   C3B41913  20.380  39.112   7.053
 8202POPC   C4B41914  20.427  39.155   7.353
 8203POPC   NC341915  43.072  33.019   5.553
 8203POPC   PO441916  43.071  33.054   5.853
 8203POPC   GL141917  43.065  33.022   6.153
 8203POPC   GL241918  43.252  32.971   6.153
 8203POPC   C1A41919  43.131  33.010   6.453
 8203POPC   D2A41920  43.139  33.047   6.753
 8203POPC   C3A41921  43.061  33.055   7.053
 8203POPC   C4A41922  43.157  33.017   7.353
 8203POPC   C1B41923  43.265  32.844   6.453
 8203POPC   C2B41924  43.295  32.909   6.753
 8203POPC   C3B41925  43.276  32.911   7.053
 8203POPC   C4B41926  43.307  32.865   7.353
 8204POPC   NC341927  29.925  44.616   5.553
 8204POPC   PO441928  29.962  44.628   5.853
 8204POPC   GL141929  29.940  44.622   6.153
 8204POPC   GL241930  29.957  44.804   6.153
 8204POPC   C1A41931  29.953  44.667   6.453
 8204POPC   D2A41932  29.875  44.636   6.753
 8204POPC   C3A41933  29.894  44.672   7.053
 8204POPC   C4A41934  29.947  44.667   7.353
 8204POPC   C1B41935  29.958  44.957   6.453
 8204POPC   C2B41936  29.948  44.925   6.753
 8204POPC   C3B41937  29.900  44.866   7.053
 8204POPC   C4B41938  29.937  44.906   7.353
 8205POPC   NC341939  39.229  31.508   5.553
 8205POPC   PO441940  39.187  31.470   5.853
 8205POPC   GL141941  39.278  31.474   6.153
 8205POPC   GL241942  39.294  31.410   6.153
 8205POPC   C1A41943  39.222  31.425   6.453
 8205POPC   D2A41944  39.270  31.435   6.753
 8205POPC   C3A41945  39.273  31.459   7.053
 8205POPC   C4A41946  39.251  31.462   7.353
 8205POPC   C1B41947  39.452  31.325   6.453
 8205POPC   C2B41948  39.411  31.400   6.753
 8205POPC   C3B41949  39.463  31.318   7.053
 8205POPC   C4B41950  39.477  31.339   7.353
 8206POPC   NC341951   8.187  15.169   5.553
 8206POPC   PO441952   8.147  15.188   5.853
 8206POPC   GL141953   8.224  15.214   6.153
 8206POPC   GL241954   8.097  15.142   6.153
 8206POPC   C1A41955   8.233  15.229   6.453
 8206POPC   D2A41956   8.227  15.214   6.753
 8206POPC   C3A41957   8.236  15.217   7.053
 8206POPC   C4A41958   8.195  15.190   7.353
 8206POPC   C1B41959   7.991  15.112   6.453
 8206POPC   C2B41960   7.992  15.128   6.753
 8206POPC   C3B41961   7.917  15.094   7.053
 8206POPC   C4B41962   7.988  15.100   7.353
 8207POPC   NC341963  43.160  16.772   5.553
 8207POPC   PO441964  43.062  16.718   5.853
 8207POPC   GL141965  43.108  16.769   6.153
 8207POPC   GL241966  43.276  16.677   6.153
 8207POPC   C1A41967  43.098  16.759   6.453
 8207POPC   D2A41968  43.130  16.708   6.753
 8207POPC   C3A41969  43.142  16.771   7.053
 8207POPC   C4A41970  43.104  16.738   7.353
 8207POPC   C1B41971  43.405  16.664   6.453
 8207POPC   C2B41972  43.307  16.684   6.753
 8207POPC   C3B41973  43.319  16.638   7.053
 8207POPC   C4B41974  43.373  16.666   7.353
 8208POPC   NC341975   8.239  43.919   5.553
 8208POPC   PO441976   8.153  43.887   5.853
 8208POPC   GL141977   8.177  43.908   6.153
 8208POPC   GL241978   8.153  43.781   6.153
 8208POPC   C1A41979   8.239  43.881   6.453
 8208POPC   D2A41980   8.176  43.908   6.753
 8208POPC   C3A41981   8.243  43.887   7.053
 8208POPC   C4A41982   8.231  43.889   7.353
 8208POPC   C1B41983   8.080  43.679   6.453
 8208POPC   C2B41984   8.120  43.701   6.753
 8208POPC   C3B41985   8.123  43.657   7.053
 8208POPC   C4B41986   8.130  43.641   7.353
 8209POPC   NC341987  20.579  34.568   5.553
 8209POPC   PO441988  20.573  34.597   5.853
 8209POPC   GL141989  20.594  34.538   6.153
 8209POPC   GL241990  20.636  34.715   6.153
 8209POPC   C1A41991  20.625  34.625   6.453
 8209POPC   D2A41992  20.562  34.566   6.753
 8209POPC   C3A41993  20.590  34.574   7.053
 8209POPC   C4A41994  20.590  34.533   7.353
 8209POPC   C1B41995  20.647  34.779   6.453
 8209POPC   C2B41996  20.594  34.855   6.753
 8209POPC   C3B41997  20.683  34.856   7.053
 8209POPC   C4B41998  20.618  34.777   7.353
 8210POPC   NC341999  19.863  21.397   5.553
 8210POPC   PO442000  19.846  21.422   5.853
 8210POPC   GL142001  19.857  21.427   6.153
 8210POPC   GL242002  19.805  21.218   6.153
 8210POPC   C1A42003  19.851  21.383   6.453
 8210POPC   D2A42004  19.844  21.397   6.753
 8210POPC   C3A42005  19.853  21.353   7.053
 8210POPC   C4A42006  19.875  21.417   7.353
 8210POPC   C1B42007  19.809  21.184   6.453
 8210POPC   C2B42008  19.765  21.127   6.753
 8210POPC   C3B42009  19.810  21.102   7.053
 8210POPC   C4B42010  19.779  21.140   7.353
 8211POPC   NC342011  41.571  32.246   5.553
 8211POPC   PO442012  41.606  32.293   5.853
 8211POPC   GL142013  41.511  32.267   6.153
 8211POPC   GL242014  41.416  32.178   6.153
 8211POPC   C1A42015  41.570  32.286   6.453
 8211POPC   D2A42016  41.590  32.279   6.753
 8211POPC   C3A42017  41.517  32.293   7.053
 8211POPC   C4A42018  41.582  32.229   7.353
 8211POPC   C1B42019  41.321  32.177   6.453
 8211POPC   C2B42020  41.313  32.186   6.753
 8211POPC   C3B42021  41.342  32.175   7.053
 8211POPC   C4B42022  41.267  32.185   7.353
 8212POPC   NC342023   1.188  38.465   5.553
 8212POPC   PO442024   1.202  38.503   5.853
 8212POPC   GL142025   1.239  38.492   6.153
 8212POPC   GL242026   1.323  38.342   6.153
 8212POPC   C1A42027   1.209  38.475   6.453
 8212POPC   D2A42028   1.226  38.420   6.753
 8212POPC   C3A42029   1.205  38.435   7.053
 8212POPC   C4A42030   1.164  38.500   7.353
 8212POPC   C1B42031   1.344  38.205   6.453
 8212POPC   C2B42032   1.312  38.207   6.753
 8212POPC   C3B42033   1.377  38.251   7.053
 8212POPC   C4B42034   1.342  38.255   7.353
 8213POPC   NC342035  41.532  11.281   5.553
 8213POPC   PO442036  41.522  11.350   5.853
 8213POPC   GL142037  41.524  11.349   6.153
 8213POPC   GL242038  41.618  11.158   6.153
 8213POPC   C1A42039  41.548  11.279   6.453
 8213POPC   D2A42040  41.539  11.349   6.753
 8213POPC   C3A42041  41.514  11.328   7.053
 8213POPC   C4A42042  41.548  11.332   7.353
 8213POPC   C1B42043  41.681  11.069   6.453
 8213POPC   C2B42044  41.747  11.083   6.753
 8213POPC   C3B42045  41.690  11.144   7.053
 8213POPC   C4B42046  41.682  11.078   7.353
 8214POPC   NC342047  40.767  22.938   5.553
 8214POPC   PO442048  40.770  22.900   5.853
 8214POPC   GL142049  40.811  22.904   6.153
 8214POPC   GL242050  40.885  22.914   6.153
 8214POPC   C1A42051  40.753  22.906   6.453
 8214POPC   D2A42052  40.824  22.916   6.753
 8214POPC   C3A42053  40.742  22.961   7.053
 8214POPC   C4A42054  40.829  22.901   7.353
 8214POPC   C1B42055  41.022  22.885   6.453
 8214POPC   C2B42056  40.978  22.865   6.753
 8214POPC   C3B42057  41.058  22.920   7.053
 8214POPC   C4B42058  41.066  22.906   7.353
 8215POPC   NC342059  39.268  15.929   5.553
 8215POPC   PO442060  39.244  15.953   5.853
 8215POPC   GL142061  39.271  15.932   6.153
 8215POPC   GL242062  39.202  15.841   6.153
 8215POPC   C1A42063  39.190  15.949   6.453
 8215POPC   D2A42064  39.280  15.923   6.753
 8215POPC   C3A42065  39.246  15.920   7.053
 8215POPC   C4A42066  39.261  15.966   7.353
 8215POPC   C1B42067  39.116  15.702   6.453
 8215POPC   C2B42068  39.160  15.717   6.753
 8215POPC   C3B42069  39.138  15.758   7.053
 8215POPC   C4B42070  39.125  15.694   7.353
 8216POPC   NC342071  32.989  30.649   5.553
 8216POPC   PO442072  32.980  30.716   5.853
 8216POPC   GL142073  32.986  30.652   6.153
 8216POPC   GL242074  32.935  30.656   6.153
 8216POPC   C1A42075  33.020  30.666   6.453
 8216POPC   D2A42076  32.980  30.683   6.753
 8216POPC   C3A42077  33.031  30.728   7.053
 8216POPC   C4A42078  32.995  30.728   7.353
 8216POPC   C1B42079  32.756  30.694   6.453
 8216POPC   C2B42080  32.757  30.677   6.753
 8216POPC   C3B42081  32.816  30.673   7.053
 8216POPC   C4B42082  32.782  30.629   7.353
 8217POPC   NC342083   4.327  33.750   5.553
 8217POPC   PO442084   4.312  33.774   5.853
 8217POPC   GL142085   4.337  33.811   6.153
 8217POPC   GL242086   4.187  33.879   6.153
 8217POPC   C1A42087   4.332  33.823   6.453
 8217POPC   D2A42088   4.354  33.809   6.753
 8217POPC   C3A42089   4.313  33.773   7.053
 8217POPC   C4A42090   4.275  33.794   7.353
 8217POPC   C1B42091   4.091  33.830   6.453
 8217POPC   C2B42092   4.047  33.849   6.753
 8217POPC   C3B42093   4.029  33.829   7.053
 8217POPC   C4B42094   4.116  33.906   7.353
 8218POPC   NC342095  33.826  29.158   5.553
 8218POPC   PO442096  33.754  29.097   5.853
 8218POPC   GL142097  33.802  29.132   6.153
 8218POPC   GL242098  33.932  29.100   6.153
 8218POPC   C1A42099  33.849  29.177   6.453
 8218POPC   D2A42100  33.805  29.190   6.753
 8218POPC   C3A42101  33.827  29.182   7.053
 8218POPC   C4A42102  33.803  29.148   7.353
 8218POPC   C1B42103  34.013  29.028   6.453
 8218POPC   C2B42104  34.073  29.092   6.753
 8218POPC   C3B42105  34.056  29.108   7.053
 8218POPC   C4B42106  34.070  29.050   7.353
 8219POPC   NC342107  27.586  15.961   5.553
 8219POPC   PO442108  27.569  15.915   5.853
 8219POPC   GL142109  27.547  15.908   6.153
 8219POPC   GL242110  27.529  15.799   6.153
 8219POPC   C1A42111  27.621  15.921   6.453
 8219POPC   D2A42112  27.628  15.937   6.753
 8219POPC   C3A42113  27.569  15.943   7.053
 8219POPC   C4A42114  27.599  15.968   7.353
 8219POPC   C1B42115  27.452  15.771   6.453
 8219POPC   C2B42116  27.481  15.692   6.753
 8219POPC   C3B42117  27.531  15.690   7.053
 8219POPC   C4B42118  27.495  15.698   7.353
 8220POPC   NC342119  10.477   4.311   5.553
 8220POPC   PO442120  10.485   4.360   5.853
 8220POPC   GL142121  10.553   4.321   6.153
 8220POPC   GL242122  10.555   4.172   6.153
 8220POPC   C1A42123  10.544   4.277   6.453
 8220POPC   D2A42124  10.525   4.336   6.753
 8220POPC   C3A42125  10.543   4.358   7.053
 8220POPC   C4A42126  10.493   4.316   7.353
 8220POPC   C1B42127  10.577   4.068   6.453
 8220POPC   C2B42128  10.619   4.040   6.753
 8220POPC   C3B42129  10.544   4.114   7.053
 8220POPC   C4B42130  10.572   4.101   7.353
 8221POPC   NC342131  19.023  24.504   5.553
 8221POPC   PO442132  19.030  24.507   5.853
 8221POPC   GL142133  19.067  24.451   6.153
 8221POPC   GL242134  19.000  24.556   6.153
 8221POPC   C1A42135  19.033  24.485   6.453
 8221POPC   D2A42136  19.074  24.456   6.753
 8221POPC   C3A42137  19.100  24.445   7.053
 8221POPC   C4A42138  19.071  24.461   7.353
 8221POPC   C1B42139  18.869  24.690   6.453
 8221POPC   C2B42140  18.811  24.640   6.753
 8221POPC   C3B42141  18.890  24.674   7.053
 8221POPC   C4B42142  18.822  24.643   7.353
 8222POPC   NC342143   0.439  43.122   5.553
 8222POPC   PO442144   0.433  43.104   5.853
 8222POPC   GL142145   0.456  43.095   6.153
 8222POPC   GL242146   0.383  42.998   6.153
 8222POPC   C1A42147   0.483  43.142   6.453
 8222POPC   D2A42148   0.393  43.103   6.753
 8222POPC   C3A42149   0.480  43.130   7.053
 8222POPC   C4A42150   0.425  43.159   7.353
 8222POPC   C1B42151   0.259  42.934   6.453
 8222POPC   C2B42152   0.290  42.905   6.753
 8222POPC   C3B42153   0.271  42.972   7.053
 8222POPC   C4B42154   0.205  42.926   7.353
 8223POPC   NC342155  14.408  29.163   5.553
 8223POPC   PO442156  14.379  29.177   5.853
 8223POPC   GL142157  14.431  29.159   6.153
 8223POPC   GL242158  14.380  29.032   6.153
 8223POPC   C1A42159  14.383  29.188   6.453
 8223POPC   D2A42160  14.451  29.127   6.753
 8223POPC   C3A42161  14.356  29.156   7.053
 8223POPC   C4A42162  14.374  29.106   7.353
 8223POPC   C1B42163  14.303  28.917   6.453
 8223POPC   C2B42164  14.320  28.932   6.753
 8223POPC   C3B42165  14.355  28.931   7.053
 8223POPC   C4B42166  14.295  28.926   7.353
 8224POPC   NC342167  36.121  15.162   5.553
 8224POPC   PO442168  36.146  15.209   5.853
 8224POPC   GL142169  36.167  15.201   6.153
 8224POPC   GL242170  36.244  15.036   6.153
 8224POPC   C1A42171  36.102  15.184   6.453
 8224POPC   D2A42172  36.106  15.223   6.753
 8224POPC   C3A42173  36.082  15.209   7.053
 8224POPC   C4A42174  36.105  15.192   7.353
 8224POPC   C1B42175  36.275  14.997   6.453
 8224POPC   C2B42176  36.258  15.023   6.753
 8224POPC   C3B42177  36.295  15.016   7.053
 8224POPC   C4B42178  36.228  14.975   7.353
 8225POPC   NC342179  20.642   8.151   5.553
 8225POPC   PO442180  20.569   8.223   5.853
 8225POPC   GL142181  20.631   8.209   6.153
 8225POPC   GL242182  20.705   8.232   6.153
 8225POPC   C1A42183  20.576   8.152   6.453
 8225POPC   D2A42184  20.585   8.240   6.753
 8225POPC   C3A42185  20.641   8.236   7.053
 8225POPC   C4A42186  20.647   8.177   7.353
 8225POPC   C1B42187  20.842   8.312   6.453
 8225POPC   C2B42188  20.822   8.352   6.753
 8225POPC   C3B42189  20.779   8.299   7.053
 8225POPC   C4B42190  20.841   8.361   7.353
 8226POPC   NC342191  42.341  25.234   5.553
 8226POPC   PO442192  42.375  25.287   5.853
 8226POPC   GL142193  42.355  25.266   6.153
 8226POPC   GL242194  42.211  25.357   6.153
 8226POPC   C1A42195  42.362  25.246   6.453
 8226POPC   D2A42196  42.317  25.283   6.753
 8226POPC   C3A42197  42.353  25.296   7.053
 8226POPC   C4A42198  42.371  25.240   7.353
 8226POPC   C1B42199  42.136  25.445   6.453
 8226POPC   C2B42200  42.162  25.484   6.753
 8226POPC   C3B42201  42.122  25.419   7.053
 8226POPC   C4B42202  42.134  25.413   7.353
 8227POPC   NC342203  29.192  16.723   5.553
 8227POPC   PO442204  29.148  16.771   5.853
 8227POPC   GL142205  29.183  16.712   6.153
 8227POPC   GL242206  28.991  16.732   6.153
 8227POPC   C1A42207  29.146  16.753   6.453
 8227POPC   D2A42208  29.132  16.754   6.753
 8227POPC   C3A42209  29.156  16.739   7.053
 8227POPC   C4A42210  29.180  16.696   7.353
 8227POPC   C1B42211  28.890  16.788   6.453
 8227POPC   C2B42212  28.913  16.772   6.753
 8227POPC   C3B42213  28.926  16.708   7.053
 8227POPC   C4B42214  28.873  16.760   7.353
 8228POPC   NC342215  21.347  19.097   5.553
 8228POPC   PO442216  21.411  19.103   5.853
 8228POPC   GL142217  21.398  19.018   6.153
 8228POPC   GL242218  21.434  19.214   6.153
 8228POPC   C1A42219  21.366  19.071   6.453
 8228POPC   D2A42220  21.374  19.082   6.753
 8228POPC   C3A42221  21.372  19.073   7.053
 8228POPC   C4A42222  21.338  19.060   7.353
 8228POPC   C1B42223  21.546  19.233   6.453
 8228POPC   C2B42224  21.533  19.247   6.753
 8228POPC   C3B42225  21.522  19.272   7.053
 8228POPC   C4B42226  21.498  19.272   7.353
 8229POPC   NC342227   1.972  39.974   5.553
 8229POPC   PO442228   1.960  40.003   5.853
 8229POPC   GL142229   1.954  40.056   6.153
 8229POPC   GL242230   2.060  40.084   6.153
 8229POPC   C1A42231   1.963  39.978   6.453
 8229POPC   D2A42232   1.991  40.016   6.753
 8229POPC   C3A42233   1.947  40.026   7.053
 8229POPC   C4A42234   1.985  40.041   7.353
 8229POPC   C1B42235   2.261  40.115   6.453
 8229POPC   C2B42236   2.214  40.105   6.753
 8229POPC   C3B42237   2.173  40.151   7.053
 8229POPC   C4B42238   2.184  40.081   7.353
 8230POPC   NC342239  39.185  38.463   5.553
 8230POPC   PO442240  39.238  38.447   5.853
 8230POPC   GL142241  39.213  38.465   6.153
 8230POPC   GL242242  39.272  38.611   6.153
 8230POPC   C1A42243  39.229  38.427   6.453
 8230POPC   D2A42244  39.275  38.496   6.753
 8230POPC   C3A42245  39.243  38.420   7.053
 8230POPC   C4A42246  39.267  38.417   7.353
 8230POPC   C1B42247  39.269  38.747   6.453
 8230POPC   C2B42248  39.189  38.696   6.753
 8230POPC   C3B42249  39.187  38.702   7.053
 8230POPC   C4B42250  39.195  38.695   7.353
 8231POPC   NC342251  40.783   6.688   5.553
 8231POPC   PO442252  40.796   6.665   5.853
 8231POPC   GL142253  40.804   6.628   6.153
 8231POPC   GL242254  40.817   6.758   6.153
 8231POPC   C1A42255  40.761   6.606   6.453
 8231POPC   D2A42256  40.738   6.675   6.753
 8231POPC   C3A42257  40.806   6.599   7.053
 8231POPC   C4A42258  40.794   6.649   7.353
 8231POPC   C1B42259  40.875   6.894   6.453
 8231POPC   C2B42260  40.877   6.838   6.753
 8231POPC   C3B42261  40.910   6.855   7.053
 8231POPC   C4B42262  40.850   6.877   7.353
 8232POPC   NC342263  38.483  42.377   5.553
 8232POPC   PO442264  38.464  42.312   5.853
 8232POPC   GL142265  38.493  42.325   6.153
 8232POPC   GL242266  38.382  42.393   6.153
 8232POPC   C1A42267  38.462  42.300   6.453
 8232POPC   D2A42268  38.418  42.311   6.753
 8232POPC   C3A42269  38.421  42.346   7.053
 8232POPC   C4A42270  38.466  42.302   7.353
 8232POPC   C1B42271  38.229  42.425   6.453
 8232POPC   C2B42272  38.215  42.483   6.753
 8232POPC   C3B42273  38.244  42.417   7.053
 8232POPC   C4B42274  38.188  42.446   7.353
 8233POPC   NC342275  31.514  40.032   5.553
 8233POPC   PO442276  31.466  40.050   5.853
 8233POPC   GL142277  31.495  40.054   6.153
 8233POPC   GL242278  31.570  40.077   6.153
 8233POPC   C1A42279  31.520  40.042   6.453
 8233POPC   D2A42280  31.500  39.988   6.753
 8233POPC   C3A42281  31.431  40.029   7.053
 8233POPC   C4A42282  31.476  40.026   7.353
 8233POPC   C1B42283  31.643  40.239   6.453
 8233POPC   C2B42284  31.612  40.173   6.753
 8233POPC   C3B42285  31.596  40.267   7.053
 8233POPC   C4B42286  31.641  40.242   7.353
 8234POPC   NC342287  29.125   3.512   5.553
 8234POPC   PO442288  29.127   3.583   5.853
 8234POPC   GL142289  29.121   3.497   6.153
 8234POPC   GL242290  29.147   3.420   6.153
 8234POPC   C1A42291  29.153   3.528   6.453
 8234POPC   D2A42292  29.171   3.556   6.753
 8234POPC   C3A42293  29.165   3.505   7.053
 8234POPC   C4A42294  29.163   3.492   7.353
 8234POPC   C1B42295  29.077   3.327   6.453
 8234POPC   C2B42296  29.073   3.286   6.753
 8234POPC   C3B42297  29.069   3.257   7.053
 8234POPC   C4B42298  29.099   3.329   7.353
 8235POPC   NC342299   3.520   1.215   5.553
 8235POPC   PO442300   3.530   1.224   5.853
 8235POPC   GL142301   3.505   1.224   6.153
 8235POPC   GL242302   3.640   1.235   6.153
 8235POPC   C1A42303   3.530   1.216   6.453
 8235POPC   D2A42304   3.534   1.198   6.753
 8235POPC   C3A42305   3.581   1.240   7.053
 8235POPC   C4A42306   3.547   1.227   7.353
 8235POPC   C1B42307   3.729   1.294   6.453
 8235POPC   C2B42308   3.752   1.281   6.753
 8235POPC   C3B42309   3.813   1.313   7.053
 8235POPC   C4B42310   3.756   1.292   7.353
 8236POPC   NC342311  11.293  13.609   5.553
 8236POPC   PO442312  11.290  13.601   5.853
 8236POPC   GL142313  11.328  13.640   6.153
 8236POPC   GL242314  11.355  13.766   6.153
 8236POPC   C1A42315  11.265  13.609   6.453
 8236POPC   D2A42316  11.295  13.607   6.753
 8236POPC   C3A42317  11.284  13.675   7.053
 8236POPC   C4A42318  11.297  13.672   7.353
 8236POPC   C1B42319  11.426  13.848   6.453
 8236POPC   C2B42320  11.425  13.855   6.753
 8236POPC   C3B42321  11.388  13.815   7.053
 8236POPC   C4B42322  11.423  13.859   7.353
 8237POPC   NC342323  29.954  19.840   5.553
 8237POPC   PO442324  29.900  19.863   5.853
 8237POPC   GL142325  29.967  19.824   6.153
 8237POPC   GL242326  29.779  19.864   6.153
 8237POPC   C1A42327  29.935  19.800   6.453
 8237POPC   D2A42328  29.915  19.822   6.753
 8237POPC   C3A42329  29.942  19.870   7.053
 8237POPC   C4A42330  29.904  19.841   7.353
 8237POPC   C1B42331  29.682  19.954   6.453
 8237POPC   C2B42332  29.704  19.947   6.753
 8237POPC   C3B42333  29.712  19.951   7.053
 8237POPC   C4B42334  29.728  19.948   7.353
 8238POPC   NC342335  15.995  15.158   5.553
 8238POPC   PO442336  15.914  15.208   5.853
 8238POPC   GL142337  15.957  15.174   6.153
 8238POPC   GL242338  16.102  15.217   6.153
 8238POPC   C1A42339  15.916  15.193   6.453
 8238POPC   D2A42340  15.935  15.158   6.753
 8238POPC   C3A42341  15.991  15.221   7.053
 8238POPC   C4A42342  15.998  15.194   7.353
 8238POPC   C1B42343  16.158  15.236   6.453
 8238POPC   C2B42344  16.199  15.191   6.753
 8238POPC   C3B42345  16.231  15.225   7.053
 8238POPC   C4B42346  16.193  15.242   7.353
 8239POPC   NC342347  35.379   0.401   5.553
 8239POPC   PO442348  35.396   0.476   5.853
 8239POPC   GL142349  35.377   0.420   6.153
 8239POPC   GL242350  35.407   0.369   6.153
 8239POPC   C1A42351  35.351   0.437   6.453
 8239POPC   D2A42352  35.390   0.483   6.753
 8239POPC   C3A42353  35.313   0.455   7.053
 8239POPC   C4A42354  35.351   0.390   7.353
 8239POPC   C1B42355  35.463   0.209   6.453
 8239POPC   C2B42356  35.505   0.285   6.753
 8239POPC   C3B42357  35.466   0.211   7.053
 8239POPC   C4B42358  35.548   0.219   7.353
 8240POPC   NC342359   5.860   1.170   5.553
 8240POPC   PO442360   5.866   1.164   5.853
 8240POPC   GL142361   5.885   1.169   6.153
 8240POPC   GL242362   6.014   1.180   6.153
 8240POPC   C1A42363   5.827   1.167   6.453
 8240POPC   D2A42364   5.865   1.209   6.753
 8240POPC   C3A42365   5.865   1.200   7.053
 8240POPC   C4A42366   5.859   1.240   7.353
 8240POPC   C1B42367   6.159   1.208   6.453
 8240POPC   C2B42368   6.080   1.223   6.753
 8240POPC   C3B42369   6.128   1.173   7.053
 8240POPC   C4B42370   6.161   1.170   7.353
 8241POPC   NC342371   3.532  30.685   5.553
 8241POPC   PO442372   3.527  30.744   5.853
 8241POPC   GL142373   3.587  30.744   6.153
 8241POPC   GL242374   3.443  30.667   6.153
 8241POPC   C1A42375   3.544  30.742   6.453
 8241POPC   D2A42376   3.569  30.698   6.753
 8241POPC   C3A42377   3.555  30.698   7.053
 8241POPC   C4A42378   3.591  30.724   7.353
 8241POPC   C1B42379   3.281  30.721   6.453
 8241POPC   C2B42380   3.267  30.700   6.753
 8241POPC   C3B42381   3.279  30.699   7.053
 8241POPC   C4B42382   3.330  30.718   7.353
 8242POPC   NC342383  38.446  22.127   5.553
 8242POPC   PO442384  38.470  22.170   5.853
 8242POPC   GL142385  38.478  22.195   6.153
 8242POPC   GL242386  38.385  22.102   6.153
 8242POPC   C1A42387  38.487  22.205   6.453
 8242POPC   D2A42388  38.412  22.162   6.753
 8242POPC   C3A42389  38.498  22.208   7.053
 8242POPC   C4A42390  38.501  22.116   7.353
 8242POPC   C1B42391  38.217  22.033   6.453
 8242POPC   C2B42392  38.177  22.050   6.753
 8242POPC   C3B42393  38.220  22.019   7.053
 8242POPC   C4B42394  38.176  22.062   7.353
 8243POPC   NC342395  34.558  25.246   5.553
 8243POPC   PO442396  34.619  25.258   5.853
 8243POPC   GL142397  34.528  25.298   6.153
 8243POPC   GL242398  34.727  25.363   6.153
 8243POPC   C1A42399  34.556  25.299   6.453
 8243POPC   D2A42400  34.542  25.245   6.753
 8243POPC   C3A42401  34.546  25.254   7.053
 8243POPC   C4A42402  34.554  25.262   7.353
 8243POPC   C1B42403  34.802  25.358   6.453
 8243POPC   C2B42404  34.843  25.351   6.753
 8243POPC   C3B42405  34.803  25.376   7.053
 8243POPC   C4B42406  34.815  25.385   7.353
 8244POPC   NC342407  38.483   8.164   5.553
 8244POPC   PO442408  38.448   8.246   5.853
 8244POPC   GL142409  38.436   8.188   6.153
 8244POPC   GL242410  38.509   8.286   6.153
 8244POPC   C1A42411  38.446   8.148   6.453
 8244POPC   D2A42412  38.496   8.239   6.753
 8244POPC   C3A42413  38.475   8.238   7.053
 8244POPC   C4A42414  38.448   8.235   7.353
 8244POPC   C1B42415  38.596   8.431   6.453
 8244POPC   C2B42416  38.539   8.458   6.753
 8244POPC   C3B42417  38.590   8.425   7.053
 8244POPC   C4B42418  38.567   8.404   7.353
 8245POPC   NC342419  29.155  35.376   5.553
 8245POPC   PO442420  29.141  35.305   5.853
 8245POPC   GL142421  29.172  35.316   6.153
 8245POPC   GL242422  29.199  35.311   6.153
 8245POPC   C1A42423  29.178  35.388   6.453
 8245POPC   D2A42424  29.164  35.357   6.753
 8245POPC   C3A42425  29.190  35.357   7.053
 8245POPC   C4A42426  29.118  35.338   7.353
 8245POPC   C1B42427  29.292  35.218   6.453
 8245POPC   C2B42428  29.360  35.148   6.753
 8245POPC   C3B42429  29.336  35.130   7.053
 8245POPC   C4B42430  29.322  35.154   7.353
 8246POPC   NC342431  44.710  41.593   5.553
 8246POPC   PO442432  44.636  41.537   5.853
 8246POPC   GL142433  44.695  41.605   6.153
 8246POPC   GL242434  44.781  41.571   6.153
 8246POPC   C1A42435  44.668  41.563   6.453
 8246POPC   D2A42436  44.665  41.542   6.753
 8246POPC   C3A42437  44.647  41.521   7.053
 8246POPC   C4A42438  44.623  41.604   7.353
 8246POPC   C1B42439  44.904  41.710   6.453
 8246POPC   C2B42440  44.906  41.650   6.753
 8246POPC   C3B42441  44.909  41.658   7.053
 8246POPC   C4B42442  44.923  41.682   7.353
 8247POPC   NC342443  20.586  20.585   5.553
 8247POPC   PO442444  20.606  20.615   5.853
 8247POPC   GL142445  20.634  20.583   6.153
 8247POPC   GL242446  20.754  20.544   6.153
 8247POPC   C1A42447  20.575  20.640   6.453
 8247POPC   D2A42448  20.598  20.645   6.753
 8247POPC   C3A42449  20.582  20.587   7.053
 8247POPC   C4A42450  20.638  20.575   7.353
 8247POPC   C1B42451  20.851  20.486   6.453
 8247POPC   C2B42452  20.831  20.532   6.753
 8247POPC   C3B42453  20.823  20.493   7.053
 8247POPC   C4B42454  20.850  20.492   7.353
 8248POPC   NC342455   2.005  13.601   5.553
 8248POPC   PO442456   1.965  13.623   5.853
 8248POPC   GL142457   1.958  13.604   6.153
 8248POPC   GL242458   1.874  13.692   6.153
 8248POPC   C1A42459   1.970  13.624   6.453
 8248POPC   D2A42460   1.986  13.581   6.753
 8248POPC   C3A42461   2.028  13.616   7.053
 8248POPC   C4A42462   1.951  13.583   7.353
 8248POPC   C1B42463   1.777  13.711   6.453
 8248POPC   C2B42464   1.790  13.693   6.753
 8248POPC   C3B42465   1.794  13.663   7.053
 8248POPC   C4B42466   1.753  13.703   7.353
 8249POPC   NC342467  17.531   0.459   5.553
 8249POPC   PO442468  17.502   0.388   5.853
 8249POPC   GL142469  17.479   0.451   6.153
 8249POPC   GL242470  17.400   0.490   6.153
 8249POPC   C1A42471  17.508   0.410   6.453
 8249POPC   D2A42472  17.500   0.404   6.753
 8249POPC   C3A42473  17.472   0.468   7.053
 8249POPC   C4A42474  17.501   0.429   7.353
 8249POPC   C1B42475  17.230   0.531   6.453
 8249POPC   C2B42476  17.258   0.457   6.753
 8249POPC   C3B42477  17.231   0.492   7.053
 8249POPC   C4B42478  17.260   0.492   7.353
 8250POPC   NC342479  13.581  31.447   5.553
 8250POPC   PO442480  13.605  31.481   5.853
 8250POPC   GL142481  13.661  31.430   6.153
 8250POPC   GL242482  13.586  31.553   6.153
 8250POPC   C1A42483  13.585  31.507   6.453
 8250POPC   D2A42484  13.667  31.486   6.753
 8250POPC   C3A42485  13.648  31.436   7.053
 8250POPC   C4A42486  13.668  31.481   7.353
 8250POPC   C1B42487  13.529  31.757   6.453
 8250POPC   C2B42488  13.549  31.727   6.753
 8250POPC   C3B42489  13.573  31.676   7.053
 8250POPC   C4B42490  13.546  31.680   7.353
 8251POPC   NC342491  10.509  22.144   5.553
 8251POPC   PO442492  10.474  22.138   5.853
 8251POPC   GL142493  10.564  22.140   6.153
 8251POPC   GL242494  10.623  22.245   6.153
 8251POPC   C1A42495  10.496  22.119   6.453
 8251POPC   D2A42496  10.566  22.193   6.753
 8251POPC   C3A42497  10.547  22.144   7.053
 8251POPC   C4A42498  10.549  22.139   7.353
 8251POPC   C1B42499  10.709  22.286   6.453
 8251POPC   C2B42500  10.771  22.275   6.753
 8251POPC   C3B42501  10.746  22.250   7.053
 8251POPC   C4B42502  10.729  22.245   7.353
 8252POPC   NC342503  23.695  29.184   5.553
 8252POPC   PO442504  23.715  29.130   5.853
 8252POPC   GL142505  23.695  29.166   6.153
 8252POPC   GL242506  23.811  29.178   6.153
 8252POPC   C1A42507  23.705  29.178   6.453
 8252POPC   D2A42508  23.692  29.192   6.753
 8252POPC   C3A42509  23.723  29.127   7.053
 8252POPC   C4A42510  23.673  29.170   7.353
 8252POPC   C1B42511  23.917  29.324   6.453
 8252POPC   C2B42512  23.942  29.261   6.753
 8252POPC   C3B42513  23.886  29.246   7.053
 8252POPC   C4B42514  23.867  29.244   7.353
 8253POPC   NC342515  20.601  36.086   5.553
 8253POPC   PO442516  20.647  36.082   5.853
 8253POPC   GL142517  20.626  36.142   6.153
 8253POPC   GL242518  20.647  36.263   6.153
 8253POPC   C1A42519  20.580  36.164   6.453
 8253POPC   D2A42520  20.578  36.084   6.753
 8253POPC   C3A42521  20.568  36.152   7.053
 8253POPC   C4A42522  20.656  36.171   7.353
 8253POPC   C1B42523  20.738  36.357   6.453
 8253POPC   C2B42524  20.799  36.314   6.753
 8253POPC   C3B42525  20.829  36.353   7.053
 8253POPC   C4B42526  20.794  36.327   7.353
 8254POPC   NC342527  29.879  22.127   5.553
 8254POPC   PO442528  29.891  22.128   5.853
 8254POPC   GL142529  29.943  22.189   6.153
 8254POPC   GL242530  30.016  22.166   6.153
 8254POPC   C1A42531  29.888  22.200   6.453
 8254POPC   D2A42532  29.923  22.134   6.753
 8254POPC   C3A42533  29.953  22.131   7.053
 8254POPC   C4A42534  29.969  22.192   7.353
 8254POPC   C1B42535  30.132  22.210   6.453
 8254POPC   C2B42536  30.155  22.194   6.753
 8254POPC   C3B42537  30.165  22.189   7.053
 8254POPC   C4B42538  30.172  22.134   7.353
 8255POPC   NC342539  43.841  16.734   5.553
 8255POPC   PO442540  43.879  16.743   5.853
 8255POPC   GL142541  43.893  16.691   6.153
 8255POPC   GL242542  44.016  16.729   6.153
 8255POPC   C1A42543  43.904  16.740   6.453
 8255POPC   D2A42544  43.927  16.698   6.753
 8255POPC   C3A42545  43.909  16.767   7.053
 8255POPC   C4A42546  43.897  16.739   7.353
 8255POPC   C1B42547  44.127  16.850   6.453
 8255POPC   C2B42548  44.131  16.801   6.753
 8255POPC   C3B42549  44.125  16.871   7.053
 8255POPC   C4B42550  44.153  16.838   7.353
 8256POPC   NC342551  19.811  33.024   5.553
 8256POPC   PO442552  19.790  33.059   5.853
 8256POPC   GL142553  19.849  33.028   6.153
 8256POPC   GL242554  19.931  32.905   6.153
 8256POPC   C1A42555  19.801  32.980   6.453
 8256POPC   D2A42556  19.787  33.029   6.753
 8256POPC   C3A42557  19.814  32.998   7.053
 8256POPC   C4A42558  19.840  33.044   7.353
 8256POPC   C1B42559  19.971  32.856   6.453
 8256POPC   C2B42560  20.013  32.834   6.753
 8256POPC   C3B42561  19.971  32.843   7.053
 8256POPC   C4B42562  19.925  32.865   7.353
 8257POPC   NC342563  37.717  28.353   5.553
 8257POPC   PO442564  37.679  28.401   5.853
 8257POPC   GL142565  37.711  28.395   6.153
 8257POPC   GL242566  37.804  28.447   6.153
 8257POPC   C1A42567  37.715  28.343   6.453
 8257POPC   D2A42568  37.729  28.413   6.753
 8257POPC   C3A42569  37.728  28.376   7.053
 8257POPC   C4A42570  37.631  28.335   7.353
 8257POPC   C1B42571  37.870  28.542   6.453
 8257POPC   C2B42572  37.894  28.557   6.753
 8257POPC   C3B42573  37.898  28.566   7.053
 8257POPC   C4B42574  37.899  28.537   7.353
 8258POPC   NC342575  34.552  32.252   5.553
 8258POPC   PO442576  34.570  32.271   5.853
 8258POPC   GL142577  34.577  32.220   6.153
 8258POPC   GL242578  34.714  32.232   6.153
 8258POPC   C1A42579  34.586  32.291   6.453
 8258POPC   D2A42580  34.538  32.243   6.753
 8258POPC   C3A42581  34.585  32.294   7.053
 8258POPC   C4A42582  34.530  32.281   7.353
 8258POPC   C1B42583  34.825  32.117   6.453
 8258POPC   C2B42584  34.807  32.174   6.753
 8258POPC   C3B42585  34.753  32.145   7.053
 8258POPC   C4B42586  34.777  32.129   7.353
 8259POPC   NC342587  40.819  20.568   5.553
 8259POPC   PO442588  40.830  20.580   5.853
 8259POPC   GL142589  40.827  20.647   6.153
 8259POPC   GL242590  40.814  20.513   6.153
 8259POPC   C1A42591  40.786  20.591   6.453
 8259POPC   D2A42592  40.746  20.570   6.753
 8259POPC   C3A42593  40.830  20.580   7.053
 8259POPC   C4A42594  40.777  20.589   7.353
 8259POPC   C1B42595  40.844  20.352   6.453
 8259POPC   C2B42596  40.853  20.332   6.753
 8259POPC   C3B42597  40.823  20.348   7.053
 8259POPC   C4B42598  40.847  20.358   7.353
 8260POPC   NC342599  37.708  30.726   5.553
 8260POPC   PO442600  37.705  30.710   5.853
 8260POPC   GL142601  37.634  30.728   6.153
 8260POPC   GL242602  37.697  30.807   6.153
 8260POPC   C1A42603  37.727  30.738   6.453
 8260POPC   D2A42604  37.643  30.703   6.753
 8260POPC   C3A42605  37.659  30.670   7.053
 8260POPC   C4A42606  37.699  30.707   7.353
 8260POPC   C1B42607  37.651  30.910   6.453
 8260POPC   C2B42608  37.665  30.977   6.753
 8260POPC   C3B42609  37.678  30.951   7.053
 8260POPC   C4B42610  37.678  30.958   7.353
 8261POPC   NC342611  44.677  17.521   5.553
 8261POPC   PO442612  44.630  17.551   5.853
 8261POPC   GL142613  44.634  17.542   6.153
 8261POPC   GL242614  44.644  17.616   6.153
 8261POPC   C1A42615  44.640  17.502   6.453
 8261POPC   D2A42616  44.656  17.512   6.753
 8261POPC   C3A42617  44.691  17.514   7.053
 8261POPC   C4A42618  44.662  17.479   7.353
 8261POPC   C1B42619  44.666  17.750   6.453
 8261POPC   C2B42620  44.704  17.738   6.753
 8261POPC   C3B42621  44.632  17.754   7.053
 8261POPC   C4B42622  44.693  17.752   7.353
 8262POPC   NC342623  21.362  13.658   5.553
 8262POPC   PO442624  21.365  13.582   5.853
 8262POPC   GL142625  21.413  13.621   6.153
 8262POPC   GL242626  21.327  13.738   6.153
 8262POPC   C1A42627  21.385  13.648   6.453
 8262POPC   D2A42628  21.403  13.651   6.753
 8262POPC   C3A42629  21.381  13.584   7.053
 8262POPC   C4A42630  21.404  13.659   7.353
 8262POPC   C1B42631  21.213  13.754   6.453
 8262POPC   C2B42632  21.204  13.824   6.753
 8262POPC   C3B42633  21.216  13.766   7.053
 8262POPC   C4B42634  21.204  13.825   7.353
 8263POPC   NC342635  29.924   0.435   5.553
 8263POPC   PO442636  29.933   0.407   5.853
 8263POPC   GL142637  29.964   0.414   6.153
 8263POPC   GL242638  29.796   0.483   6.153
 8263POPC   C1A42639  29.884   0.390   6.453
 8263POPC   D2A42640  29.942   0.389   6.753
 8263POPC   C3A42641  29.938   0.443   7.053
 8263POPC   C4A42642  29.893   0.452   7.353
 8263POPC   C1B42643  29.723   0.533   6.453
 8263POPC   C2B42644  29.729   0.543   6.753
 8263POPC   C3B42645  29.713   0.586   7.053
 8263POPC   C4B42646  29.675   0.610   7.353
 8264POPC   NC342647  17.544  42.345   5.553
 8264POPC   PO442648  17.484  42.289   5.853
 8264POPC   GL142649  17.483  42.355   6.153
 8264POPC   GL242650  17.413  42.202   6.153
 8264POPC   C1A42651  17.526  42.291   6.453
 8264POPC   D2A42652  17.487  42.371   6.753
 8264POPC   C3A42653  17.543  42.342   7.053
 8264POPC   C4A42654  17.461  42.294   7.353
 8264POPC   C1B42655  17.366  42.089   6.453
 8264POPC   C2B42656  17.379  42.127   6.753
 8264POPC   C3B42657  17.368  42.156   7.053
 8264POPC   C4B42658  17.442  42.117   7.353
 8265POPC   NC342659  28.383  15.156   5.553
 8265POPC   PO442660  28.400  15.170   5.853
 8265POPC   GL142661  28.395  15.174   6.153
 8265POPC   GL242662  28.247  15.187   6.153
 8265POPC   C1A42663  28.332  15.158   6.453
 8265POPC   D2A42664  28.374  15.195   6.753
 8265POPC   C3A42665  28.379  15.151   7.053
 8265POPC   C4A42666  28.357  15.175   7.353
 8265POPC   C1B42667  28.128  15.139   6.453
 8265POPC   C2B42668  28.111  15.058   6.753
 8265POPC   C3B42669  28.179  15.145   7.053
 8265POPC   C4B42670  28.149  15.090   7.353
 8266POPC   NC342671  10.490  22.889   5.553
 8266POPC   PO442672  10.558  22.983   5.853
 8266POPC   GL142673  10.497  22.953   6.153
 8266POPC   GL242674  10.640  22.952   6.153
 8266POPC   C1A42675  10.480  22.893   6.453
 8266POPC   D2A42676  10.547  22.903   6.753
 8266POPC   C3A42677  10.490  22.965   7.053
 8266POPC   C4A42678  10.494  22.972   7.353
 8266POPC   C1B42679  10.805  22.965   6.453
 8266POPC   C2B42680  10.780  22.987   6.753
 8266POPC   C3B42681  10.789  23.010   7.053
 8266POPC   C4B42682  10.787  23.025   7.353
 8267POPC   NC342683  44.635  18.285   5.553
 8267POPC   PO442684  44.615  18.289   5.853
 8267POPC   GL142685  44.612  18.284   6.153
 8267POPC   GL242686  44.521  18.315   6.153
 8267POPC   C1A42687  44.616  18.238   6.453
 8267POPC   D2A42688  44.672  18.253   6.753
 8267POPC   C3A42689  44.613  18.241   7.053
 8267POPC   C4A42690  44.617  18.270   7.353
 8267POPC   C1B42691  44.440  18.274   6.453
 8267POPC   C2B42692  44.383  18.319   6.753
 8267POPC   C3B42693  44.465  18.346   7.053
 8267POPC   C4B42694  44.446  18.338   7.353
 8268POPC   NC342695  10.534  42.373   5.553
 8268POPC   PO442696  10.561  42.325   5.853
 8268POPC   GL142697  10.518  42.327   6.153
 8268POPC   GL242698  10.437  42.238   6.153
 8268POPC   C1A42699  10.571  42.347   6.453
 8268POPC   D2A42700  10.520  42.340   6.753
 8268POPC   C3A42701  10.518  42.360   7.053
 8268POPC   C4A42702  10.517  42.299   7.353
 8268POPC   C1B42703  10.434  42.146   6.453
 8268POPC   C2B42704  10.461  42.071   6.753
 8268POPC   C3B42705  10.463  42.088   7.053
 8268POPC   C4B42706  10.407  42.080   7.353
 8269POPC   NC342707  22.968  11.329   5.553
 8269POPC   PO442708  22.962  11.296   5.853
 8269POPC   GL142709  22.930  11.327   6.153
 8269POPC   GL242710  22.808  11.349   6.153
 8269POPC   C1A42711  22.891  11.280   6.453
 8269POPC   D2A42712  22.981  11.273   6.753
 8269POPC   C3A42713  22.905  11.280   7.053
 8269POPC   C4A42714  22.899  11.341   7.353
 8269POPC   C1B42715  22.669  11.359   6.453
 8269POPC   C2B42716  22.735  11.444   6.753
 8269POPC   C3B42717  22.744  11.414   7.053
 8269POPC   C4B42718  22.664  11.451   7.353
 8270POPC   NC342719  36.144   1.166   5.553
 8270POPC   PO442720  36.171   1.184   5.853
 8270POPC   GL142721  36.153   1.253   6.153
 8270POPC   GL242722  36.212   1.271   6.153
 8270POPC   C1A42723  36.092   1.238   6.453
 8270POPC   D2A42724  36.123   1.182   6.753
 8270POPC   C3A42725  36.110   1.206   7.053
 8270POPC   C4A42726  36.167   1.245   7.353
 8270POPC   C1B42727  36.394   1.295   6.453
 8270POPC   C2B42728  36.326   1.360   6.753
 8270POPC   C3B42729  36.379   1.325   7.053
 8270POPC   C4B42730  36.386   1.377   7.353
 8271POPC   NC342731  26.864  37.680   5.553
 8271POPC   PO442732  26.860  37.679   5.853
 8271POPC   GL142733  26.829  37.707   6.153
 8271POPC   GL242734  26.917  37.768   6.153
 8271POPC   C1A42735  26.798  37.717   6.453
 8271POPC   D2A42736  26.776  37.664   6.753
 8271POPC   C3A42737  26.831  37.636   7.053
 8271POPC   C4A42738  26.860  37.630   7.353
 8271POPC   C1B42739  27.028  37.803   6.453
 8271POPC   C2B42740  26.989  37.764   6.753
 8271POPC   C3B42741  27.033  37.782   7.053
 8271POPC   C4B42742  27.055  37.844   7.353
 8272POPC   NC342743  22.919   5.872   5.553
 8272POPC   PO442744  22.904   5.847   5.853
 8272POPC   GL142745  22.975   5.898   6.153
 8272POPC   GL242746  22.862   5.971   6.153
 8272POPC   C1A42747  22.943   5.880   6.453
 8272POPC   D2A42748  22.895   5.906   6.753
 8272POPC   C3A42749  22.922   5.894   7.053
 8272POPC   C4A42750  22.953   5.839   7.353
 8272POPC   C1B42751  22.707   6.038   6.453
 8272POPC   C2B42752  22.771   6.026   6.753
 8272POPC   C3B42753  22.783   6.052   7.053
 8272POPC   C4B42754  22.769   6.009   7.353
 8273POPC   NC342755  34.572   1.166   5.553
 8273POPC   PO442756  34.605   1.227   5.853
 8273POPC   GL142757  34.582   1.234   6.153
 8273POPC   GL242758  34.727   1.271   6.153
 8273POPC   C1A42759  34.607   1.166   6.453
 8273POPC   D2A42760  34.608   1.218   6.753
 8273POPC   C3A42761  34.589   1.223   7.053
 8273POPC   C4A42762  34.579   1.239   7.353
 8273POPC   C1B42763  34.832   1.329   6.453
 8273POPC   C2B42764  34.858   1.304   6.753
 8273POPC   C3B42765  34.768   1.275   7.053
 8273POPC   C4B42766  34.814   1.244   7.353
 8274POPC   NC342767  42.341  32.992   5.553
 8274POPC   PO442768  42.375  32.984   5.853
 8274POPC   GL142769  42.318  33.062   6.153
 8274POPC   GL242770  42.353  33.097   6.153
 8274POPC   C1A42771  42.359  33.014   6.453
 8274POPC   D2A42772  42.302  32.983   6.753
 8274POPC   C3A42773  42.319  33.034   7.053
 8274POPC   C4A42774  42.286  33.030   7.353
 8274POPC   C1B42775  42.320  33.256   6.453
 8274POPC   C2B42776  42.292  33.261   6.753
 8274POPC   C3B42777  42.237  33.298   7.053
 8274POPC   C4B42778  42.332  33.251   7.353
 8275POPC   NC342779   3.557  21.431   5.553
 8275POPC   PO442780   3.502  21.388   5.853
 8275POPC   GL142781   3.514  21.395   6.153
 8275POPC   GL242782   3.466  21.309   6.153
 8275POPC   C1A42783   3.553  21.413   6.453
 8275POPC   D2A42784   3.532  21.378   6.753
 8275POPC   C3A42785   3.522  21.364   7.053
 8275POPC   C4A42786   3.504  21.433   7.353
 8275POPC   C1B42787   3.388  21.165   6.453
 8275POPC   C2B42788   3.374  21.131   6.753
 8275POPC   C3B42789   3.462  21.147   7.053
 8275POPC   C4B42790   3.460  21.136   7.353
 8276POPC   NC342791  22.165   7.405   5.553
 8276POPC   PO442792  22.176   7.390   5.853
 8276POPC   GL142793  22.167   7.467   6.153
 8276POPC   GL242794  22.175   7.255   6.153
 8276POPC   C1A42795  22.177   7.396   6.453
 8276POPC   D2A42796  22.168   7.416   6.753
 8276POPC   C3A42797  22.150   7.437   7.053
 8276POPC   C4A42798  22.189   7.391   7.353
 8276POPC   C1B42799  22.089   7.151   6.453
 8276POPC   C2B42800  22.114   7.176   6.753
 8276POPC   C3B42801  22.059   7.177   7.053
 8276POPC   C4B42802  22.042   7.187   7.353
 8277POPC   NC342803   3.560   5.062   5.553
 8277POPC   PO442804   3.530   5.136   5.853
 8277POPC   GL142805   3.573   5.044   6.153
 8277POPC   GL242806   3.456   5.120   6.153
 8277POPC   C1A42807   3.521   5.061   6.453
 8277POPC   D2A42808   3.542   5.090   6.753
 8277POPC   C3A42809   3.564   5.069   7.053
 8277POPC   C4A42810   3.544   5.105   7.353
 8277POPC   C1B42811   3.317   5.140   6.453
 8277POPC   C2B42812   3.286   5.137   6.753
 8277POPC   C3B42813   3.288   5.085   7.053
 8277POPC   C4B42814   3.295   5.104   7.353
 8278POPC   NC342815  19.019   6.663   5.553
 8278POPC   PO442816  19.066   6.676   5.853
 8278POPC   GL142817  19.039   6.656   6.153
 8278POPC   GL242818  19.029   6.753   6.153
 8278POPC   C1A42819  19.047   6.598   6.453
 8278POPC   D2A42820  19.099   6.655   6.753
 8278POPC   C3A42821  19.048   6.600   7.053
 8278POPC   C4A42822  19.017   6.665   7.353
 8278POPC   C1B42823  19.068   6.872   6.453
 8278POPC   C2B42824  19.059   6.944   6.753
 8278POPC   C3B42825  19.123   6.926   7.053
 8278POPC   C4B42826  19.043   6.930   7.353
 8279POPC   NC342827  22.129   4.362   5.553
 8279POPC   PO442828  22.183   4.284   5.853
 8279POPC   GL142829  22.145   4.285   6.153
 8279POPC   GL242830  22.319   4.414   6.153
 8279POPC   C1A42831  22.165   4.317   6.453
 8279POPC   D2A42832  22.195   4.295   6.753
 8279POPC   C3A42833  22.176   4.341   7.053
 8279POPC   C4A42834  22.195   4.350   7.353
 8279POPC   C1B42835  22.427   4.394   6.453
 8279POPC   C2B42836  22.437   4.411   6.753
 8279POPC   C3B42837  22.434   4.462   7.053
 8279POPC   C4B42838  22.368   4.437   7.353
 8280POPC   NC342839   9.003  21.397   5.553
 8280POPC   PO442840   8.961  21.434   5.853
 8280POPC   GL142841   8.963  21.374   6.153
 8280POPC   GL242842   8.882  21.476   6.153
 8280POPC   C1A42843   8.969  21.368   6.453
 8280POPC   D2A42844   8.949  21.393   6.753
 8280POPC   C3A42845   8.991  21.424   7.053
 8280POPC   C4A42846   8.986  21.421   7.353
 8280POPC   C1B42847   8.760  21.459   6.453
 8280POPC   C2B42848   8.720  21.479   6.753
 8280POPC   C3B42849   8.782  21.465   7.053
 8280POPC   C4B42850   8.700  21.479   7.353
 8281POPC   NC342851  40.748  22.181   5.553
 8281POPC   PO442852  40.768  22.155   5.853
 8281POPC   GL142853  40.827  22.114   6.153
 8281POPC   GL242854  40.877  22.058   6.153
 8281POPC   C1A42855  40.760  22.131   6.453
 8281POPC   D2A42856  40.771  22.134   6.753
 8281POPC   C3A42857  40.815  22.125   7.053
 8281POPC   C4A42858  40.735  22.146   7.353
 8281POPC   C1B42859  40.865  21.971   6.453
 8281POPC   C2B42860  40.869  21.961   6.753
 8281POPC   C3B42861  40.835  21.885   7.053
 8281POPC   C4B42862  40.925  21.894   7.353
 8282POPC   NC342863  27.595  36.167   5.553
 8282POPC   PO442864  27.621  36.087   5.853
 8282POPC   GL142865  27.601  36.129   6.153
 8282POPC   GL242866  27.636  36.029   6.153
 8282POPC   C1A42867  27.590  36.166   6.453
 8282POPC   D2A42868  27.587  36.150   6.753
 8282POPC   C3A42869  27.634  36.119   7.053
 8282POPC   C4A42870  27.604  36.137   7.353
 8282POPC   C1B42871  27.638  35.925   6.453
 8282POPC   C2B42872  27.587  35.894   6.753
 8282POPC   C3B42873  27.620  35.880   7.053
 8282POPC   C4B42874  27.601  35.870   7.353
 8283POPC   NC342875   1.999  28.330   5.553
 8283POPC   PO442876   1.963  28.329   5.853
 8283POPC   GL142877   1.961  28.396   6.153
 8283POPC   GL242878   1.963  28.277   6.153
 8283POPC   C1A42879   2.013  28.357   6.453
 8283POPC   D2A42880   2.025  28.338   6.753
 8283POPC   C3A42881   1.990  28.354   7.053
 8283POPC   C4A42882   1.956  28.354   7.353
 8283POPC   C1B42883   1.981  28.167   6.453
 8283POPC   C2B42884   1.924  28.168   6.753
 8283POPC   C3B42885   1.916  28.099   7.053
 8283POPC   C4B42886   1.960  28.102   7.353
 8284POPC   NC342887  33.812  36.856   5.553
 8284POPC   PO442888  33.836  36.902   5.853
 8284POPC   GL142889  33.824  36.930   6.153
 8284POPC   GL242890  33.860  37.063   6.153
 8284POPC   C1A42891  33.825  36.860   6.453
 8284POPC   D2A42892  33.819  36.933   6.753
 8284POPC   C3A42893  33.850  36.856   7.053
 8284POPC   C4A42894  33.846  36.859   7.353
 8284POPC   C1B42895  33.862  37.180   6.453
 8284POPC   C2B42896  33.821  37.181   6.753
 8284POPC   C3B42897  33.833  37.156   7.053
 8284POPC   C4B42898  33.898  37.131   7.353
 8285POPC   NC342899  16.703  23.711   5.553
 8285POPC   PO442900  16.703  23.680   5.853
 8285POPC   GL142901  16.715  23.736   6.153
 8285POPC   GL242902  16.615  23.625   6.153
 8285POPC   C1A42903  16.733  23.758   6.453
 8285POPC   D2A42904  16.695  23.728   6.753
 8285POPC   C3A42905  16.717  23.754   7.053
 8285POPC   C4A42906  16.751  23.742   7.353
 8285POPC   C1B42907  16.524  23.552   6.453
 8285POPC   C2B42908  16.579  23.572   6.753
 8285POPC   C3B42909  16.515  23.541   7.053
 8285POPC   C4B42910  16.519  23.527   7.353
 8286POPC   NC342911   2.773  38.435   5.553
 8286POPC   PO442912   2.800  38.467   5.853
 8286POPC   GL142913   2.793  38.420   6.153
 8286POPC   GL242914   2.908  38.380   6.153
 8286POPC   C1A42915   2.743  38.473   6.453
 8286POPC   D2A42916   2.763  38.452   6.753
 8286POPC   C3A42917   2.807  38.436   7.053
 8286POPC   C4A42918   2.743  38.440   7.353
 8286POPC   C1B42919   2.942  38.290   6.453
 8286POPC   C2B42920   2.940  38.256   6.753
 8286POPC   C3B42921   2.967  38.304   7.053
 8286POPC   C4B42922   2.984  38.277   7.353
 8287POPC   NC342923   2.745  36.101   5.553
 8287POPC   PO442924   2.737  36.085   5.853
 8287POPC   GL142925   2.750  36.166   6.153
 8287POPC   GL242926   2.612  36.126   6.153
 8287POPC   C1A42927   2.800  36.125   6.453
 8287POPC   D2A42928   2.808  36.154   6.753
 8287POPC   C3A42929   2.732  36.090   7.053
 8287POPC   C4A42930   2.815  36.089   7.353
 8287POPC   C1B42931   2.479  36.114   6.453
 8287POPC   C2B42932   2.479  36.161   6.753
 8287POPC   C3B42933   2.481  36.158   7.053
 8287POPC   C4B42934   2.531  36.151   7.353
 8288POPC   NC342935  11.338  29.917   5.553
 8288POPC   PO442936  11.257  29.928   5.853
 8288POPC   GL142937  11.338  29.876   6.153
 8288POPC   GL242938  11.227  30.072   6.153
 8288POPC   C1A42939  11.275  29.918   6.453
 8288POPC   D2A42940  11.254  29.877   6.753
 8288POPC   C3A42941  11.342  29.889   7.053
 8288POPC   C4A42942  11.330  29.948   7.353
 8288POPC   C1B42943  11.196  30.125   6.453
 8288POPC   C2B42944  11.177  30.083   6.753
 8288POPC   C3B42945  11.148  30.143   7.053
 8288POPC   C4B42946  11.169  30.121   7.353
 8289POPC   NC342947  36.116  26.079   5.553
 8289POPC   PO442948  36.136  26.072   5.853
 8289POPC   GL142949  36.081  26.044   6.153
 8289POPC   GL242950  36.099  25.911   6.153
 8289POPC   C1A42951  36.169  26.074   6.453
 8289POPC   D2A42952  36.158  26.071   6.753
 8289POPC   C3A42953  36.154  25.995   7.053
 8289POPC   C4A42954  36.130  26.035   7.353
 8289POPC   C1B42955  36.024  25.789   6.453
 8289POPC   C2B42956  35.983  25.871   6.753
 8289POPC   C3B42957  36.011  25.825   7.053
 8289POPC   C4B42958  36.008  25.832   7.353
 8290POPC   NC342959   3.511  14.389   5.553
 8290POPC   PO442960   3.513  14.367   5.853
 8290POPC   GL142961   3.516  14.406   6.153
 8290POPC   GL242962   3.641  14.363   6.153
 8290POPC   C1A42963   3.584  14.410   6.453
 8290POPC   D2A42964   3.577  14.377   6.753
 8290POPC   C3A42965   3.515  14.384   7.053
 8290POPC   C4A42966   3.493  14.388   7.353
 8290POPC   C1B42967   3.797  14.360   6.453
 8290POPC   C2B42968   3.800  14.401   6.753
 8290POPC   C3B42969   3.750  14.352   7.053
 8290POPC   C4B42970   3.812  14.358   7.353
 8291POPC   NC342971   5.070  41.568   5.553
 8291POPC   PO442972   5.094  41.603   5.853
 8291POPC   GL142973   5.063  41.554   6.153
 8291POPC   GL242974   5.142  41.593   6.153
 8291POPC   C1A42975   5.108  41.535   6.453
 8291POPC   D2A42976   5.076  41.583   6.753
 8291POPC   C3A42977   5.053  41.562   7.053
 8291POPC   C4A42978   5.128  41.529   7.353
 8291POPC   C1B42979   5.273  41.723   6.453
 8291POPC   C2B42980   5.255  41.679   6.753
 8291POPC   C3B42981   5.263  41.710   7.053
 8291POPC   C4B42982   5.278  41.727   7.353
 8292POPC   NC342983   4.346  42.354   5.553
 8292POPC   PO442984   4.347  42.365   5.853
 8292POPC   GL142985   4.295  42.318   6.153
 8292POPC   GL242986   4.219  42.324   6.153
 8292POPC   C1A42987   4.358  42.315   6.453
 8292POPC   D2A42988   4.355  42.316   6.753
 8292POPC   C3A42989   4.288  42.298   7.053
 8292POPC   C4A42990   4.356  42.375   7.353
 8292POPC   C1B42991   4.098  42.228   6.453
 8292POPC   C2B42992   4.064  42.244   6.753
 8292POPC   C3B42993   4.100  42.257   7.053
 8292POPC   C4B42994   4.052  42.237   7.353
 8293POPC   NC342995  18.314  25.271   5.553
 8293POPC   PO442996  18.279  25.258   5.853
 8293POPC   GL142997  18.274  25.289   6.153
 8293POPC   GL242998  18.352  25.391   6.153
 8293POPC   C1A42999  18.304  25.242   6.453
 8293POPC   D2A43000  18.324  25.257   6.753
 8293POPC   C3A43001  18.244  25.222   7.053
 8293POPC   C4A43002  18.331  25.284   7.353
 8293POPC   C1B43003  18.361  25.493   6.453
 8293POPC   C2B43004  18.370  25.485   6.753
 8293POPC   C3B43005  18.335  25.453   7.053
 8293POPC   C4B43006  18.340  25.510   7.353
 8294POPC   NC343007  40.777  14.420   5.553
 8294POPC   PO443008  40.756  14.412   5.853
 8294POPC   GL143009  40.801  14.452   6.153
 8294POPC   GL243010  40.792  14.317   6.153
 8294POPC   C1A43011  40.807  14.427   6.453
 8294POPC   D2A43012  40.796  14.398   6.753
 8294POPC   C3A43013  40.788  14.356   7.053
 8294POPC   C4A43014  40.807  14.363   7.353
 8294POPC   C1B43015  40.881  14.211   6.453
 8294POPC   C2B43016  40.852  14.198   6.753
 8294POPC   C3B43017  40.872  14.217   7.053
 8294POPC   C4B43018  40.894  14.163   7.353
 8295POPC   NC343019  24.474  40.055   5.553
 8295POPC   PO443020  24.454  40.001   5.853
 8295POPC   GL143021  24.442  39.985   6.153
 8295POPC   GL243022  24.481  39.910   6.153
 8295POPC   C1A43023  24.444  39.971   6.453
 8295POPC   D2A43024  24.530  39.963   6.753
 8295POPC   C3A43025  24.468  39.978   7.053
 8295POPC   C4A43026  24.485  40.044   7.353
 8295POPC   C1B43027  24.347  39.773   6.453
 8295POPC   C2B43028  24.410  39.820   6.753
 8295POPC   C3B43029  24.414  39.817   7.053
 8295POPC   C4B43030  24.404  39.797   7.353
 8296POPC   NC343031  33.035  42.324   5.553
 8296POPC   PO443032  32.987  42.345   5.853
 8296POPC   GL143033  33.059  42.329   6.153
 8296POPC   GL243034  32.917  42.232   6.153
 8296POPC   C1A43035  33.031  42.341   6.453
 8296POPC   D2A43036  33.032  42.298   6.753
 8296POPC   C3A43037  33.029  42.379   7.053
 8296POPC   C4A43038  33.028  42.311   7.353
 8296POPC   C1B43039  32.879  42.188   6.453
 8296POPC   C2B43040  32.822  42.205   6.753
 8296POPC   C3B43041  32.850  42.157   7.053
 8296POPC   C4B43042  32.833  42.123   7.353
 8297POPC   NC343043  38.487  29.108   5.553
 8297POPC   PO443044  38.436  29.116   5.853
 8297POPC   GL143045  38.481  29.185   6.153
 8297POPC   GL243046  38.517  29.229   6.153
 8297POPC   C1A43047  38.410  29.193   6.453
 8297POPC   D2A43048  38.421  29.159   6.753
 8297POPC   C3A43049  38.446  29.187   7.053
 8297POPC   C4A43050  38.494  29.136   7.353
 8297POPC   C1B43051  38.643  29.319   6.453
 8297POPC   C2B43052  38.686  29.305   6.753
 8297POPC   C3B43053  38.659  29.319   7.053
 8297POPC   C4B43054  38.626  29.274   7.353
 8298POPC   NC343055   2.030  26.859   5.553
 8298POPC   PO443056   2.013  26.821   5.853
 8298POPC   GL143057   2.030  26.848   6.153
 8298POPC   GL243058   2.094  26.915   6.153
 8298POPC   C1A43059   1.946  26.851   6.453
 8298POPC   D2A43060   2.036  26.840   6.753
 8298POPC   C3A43061   1.985  26.782   7.053
 8298POPC   C4A43062   2.022  26.783   7.353
 8298POPC   C1B43063   2.202  26.988   6.453
 8298POPC   C2B43064   2.214  26.925   6.753
 8298POPC   C3B43065   2.152  26.929   7.053
 8298POPC   C4B43066   2.160  26.995   7.353
 8299POPC   NC343067   5.871  30.690   5.553
 8299POPC   PO443068   5.906  30.690   5.853
 8299POPC   GL143069   5.851  30.696   6.153
 8299POPC   GL243070   5.710  30.739   6.153
 8299POPC   C1A43071   5.917  30.654   6.453
 8299POPC   D2A43072   5.855  30.738   6.753
 8299POPC   C3A43073   5.820  30.724   7.053
 8299POPC   C4A43074   5.900  30.676   7.353
 8299POPC   C1B43075   5.595  30.756   6.453
 8299POPC   C2B43076   5.584  30.683   6.753
 8299POPC   C3B43077   5.601  30.750   7.053
 8299POPC   C4B43078   5.602  30.719   7.353
 8300POPC   NC343079  13.591  12.120   5.553
 8300POPC   PO443080  13.596  12.123   5.853
 8300POPC   GL143081  13.665  12.059   6.153
 8300POPC   GL243082  13.617  12.171   6.153
 8300POPC   C1A43083  13.617  12.123   6.453
 8300POPC   D2A43084  13.615  12.093   6.753
 8300POPC   C3A43085  13.665  12.101   7.053
 8300POPC   C4A43086  13.635  12.050   7.353
 8300POPC   C1B43087  13.675  12.350   6.453
 8300POPC   C2B43088  13.640  12.361   6.753
 8300POPC   C3B43089  13.666  12.322   7.053
 8300POPC   C4B43090  13.651  12.283   7.353
 8301POPC   NC343091  23.674  12.064   5.553
 8301POPC   PO443092  23.670  12.083   5.853
 8301POPC   GL143093  23.712  12.068   6.153
 8301POPC   GL243094  23.819  12.105   6.153
 8301POPC   C1A43095  23.761  12.074   6.453
 8301POPC   D2A43096  23.726  12.028   6.753
 8301POPC   C3A43097  23.709  12.120   7.053
 8301POPC   C4A43098  23.670  12.084   7.353
 8301POPC   C1B43099  24.009  12.080   6.453
 8301POPC   C2B43100  24.007  12.082   6.753
 8301POPC   C3B43101  23.994  12.089   7.053
 8301POPC   C4B43102  23.979  12.093   7.353
 8302POPC   NC343103  12.815  23.676   5.553
 8302POPC   PO443104  12.824  23.666   5.853
 8302POPC   GL143105  12.896  23.753   6.153
 8302POPC   GL243106  12.917  23.649   6.153
 8302POPC   C1A43107  12.883  23.732   6.453
 8302POPC   D2A43108  12.889  23.735   6.753
 8302POPC   C3A43109  12.841  23.665   7.053
 8302POPC   C4A43110  12.870  23.734   7.353
 8302POPC   C1B43111  13.070  23.505   6.453
 8302POPC   C2B43112  13.008  23.539   6.753
 8302POPC   C3B43113  13.065  23.552   7.053
 8302POPC   C4B43114  13.045  23.578   7.353
 8303POPC   NC343115  15.906  35.351   5.553
 8303POPC   PO443116  15.968  35.388   5.853
 8303POPC   GL143117  15.987  35.364   6.153
 8303POPC   GL243118  15.851  35.377   6.153
 8303POPC   C1A43119  15.999  35.319   6.453
 8303POPC   D2A43120  15.936  35.308   6.753
 8303POPC   C3A43121  15.976  35.364   7.053
 8303POPC   C4A43122  15.983  35.325   7.353
 8303POPC   C1B43123  15.734  35.495   6.453
 8303POPC   C2B43124  15.732  35.448   6.753
 8303POPC   C3B43125  15.733  35.494   7.053
 8303POPC   C4B43126  15.732  35.432   7.353
 8304POPC   NC343127  28.347  40.003   5.553
 8304POPC   PO443128  28.370  40.008   5.853
 8304POPC   GL143129  28.369  39.970   6.153
 8304POPC   GL243130  28.333  40.117   6.153
 8304POPC   C1A43131  28.374  40.008   6.453
 8304POPC   D2A43132  28.411  39.985   6.753
 8304POPC   C3A43133  28.340  39.976   7.053
 8304POPC   C4A43134  28.382  40.048   7.353
 8304POPC   C1B43135  28.413  40.209   6.453
 8304POPC   C2B43136  28.362  40.236   6.753
 8304POPC   C3B43137  28.402  40.242   7.053
 8304POPC   C4B43138  28.400  40.249   7.353
 8305POPC   NC343139  16.730  33.065   5.553
 8305POPC   PO443140  16.688  33.040   5.853
 8305POPC   GL143141  16.763  33.001   6.153
 8305POPC   GL243142  16.887  32.991   6.153
 8305POPC   C1A43143  16.745  33.020   6.453
 8305POPC   D2A43144  16.736  32.988   6.753
 8305POPC   C3A43145  16.761  33.046   7.053
 8305POPC   C4A43146  16.735  33.043   7.353
 8305POPC   C1B43147  16.985  32.996   6.453
 8305POPC   C2B43148  16.976  33.028   6.753
 8305POPC   C3B43149  17.001  33.060   7.053
 8305POPC   C4B43150  16.998  33.016   7.353
 8306POPC   NC343151  40.745  34.587   5.553
 8306POPC   PO443152  40.743  34.550   5.853
 8306POPC   GL143153  40.810  34.579   6.153
 8306POPC   GL243154  40.665  34.517   6.153
 8306POPC   C1A43155  40.735  34.575   6.453
 8306POPC   D2A43156  40.751  34.550   6.753
 8306POPC   C3A43157  40.814  34.540   7.053
 8306POPC   C4A43158  40.820  34.575   7.353
 8306POPC   C1B43159  40.549  34.389   6.453
 8306POPC   C2B43160  40.591  34.452   6.753
 8306POPC   C3B43161  40.604  34.442   7.053
 8306POPC   C4B43162  40.536  34.420   7.353
 8307POPC   NC343163  18.263  33.042   5.553
 8307POPC   PO443164  18.255  33.050   5.853
 8307POPC   GL143165  18.304  33.021   6.153
 8307POPC   GL243166  18.221  33.159   6.153
 8307POPC   C1A43167  18.306  32.985   6.453
 8307POPC   D2A43168  18.318  33.053   6.753
 8307POPC   C3A43169  18.258  33.000   7.053
 8307POPC   C4A43170  18.320  33.002   7.353
 8307POPC   C1B43171  18.135  33.208   6.453
 8307POPC   C2B43172  18.208  33.270   6.753
 8307POPC   C3B43173  18.203  33.202   7.053
 8307POPC   C4B43174  18.200  33.274   7.353
 8308POPC   NC343175  42.291  26.829   5.553
 8308POPC   PO443176  42.292  26.777   5.853
 8308POPC   GL143177  42.296  26.810   6.153
 8308POPC   GL243178  42.369  26.756   6.153
 8308POPC   C1A43179  42.342  26.787   6.453
 8308POPC   D2A43180  42.371  26.832   6.753
 8308POPC   C3A43181  42.295  26.828   7.053
 8308POPC   C4A43182  42.287  26.771   7.353
 8308POPC   C1B43183  42.460  26.569   6.453
 8308POPC   C2B43184  42.433  26.561   6.753
 8308POPC   C3B43185  42.421  26.604   7.053
 8308POPC   C4B43186  42.439  26.607   7.353
 8309POPC   NC343187  15.167  26.821   5.553
 8309POPC   PO443188  15.130  26.854   5.853
 8309POPC   GL143189  15.172  26.793   6.153
 8309POPC   GL243190  15.140  26.936   6.153
 8309POPC   C1A43191  15.159  26.781   6.453
 8309POPC   D2A43192  15.136  26.846   6.753
 8309POPC   C3A43193  15.161  26.811   7.053
 8309POPC   C4A43194  15.144  26.795   7.353
 8309POPC   C1B43195  15.107  27.020   6.453
 8309POPC   C2B43196  15.120  27.019   6.753
 8309POPC   C3B43197  15.041  27.088   7.053
 8309POPC   C4B43198  15.048  26.999   7.353
 8310POPC   NC343199   5.917  17.464   5.553
 8310POPC   PO443200   5.854  17.516   5.853
 8310POPC   GL143201   5.870  17.555   6.153
 8310POPC   GL243202   5.898  17.587   6.153
 8310POPC   C1A43203   5.890  17.550   6.453
 8310POPC   D2A43204   5.848  17.544   6.753
 8310POPC   C3A43205   5.912  17.464   7.053
 8310POPC   C4A43206   5.887  17.480   7.353
 8310POPC   C1B43207   5.902  17.787   6.453
 8310POPC   C2B43208   5.973  17.704   6.753
 8310POPC   C3B43209   5.912  17.768   7.053
 8310POPC   C4B43210   5.976  17.732   7.353
 8311POPC   NC343211  33.000  35.392   5.553
 8311POPC   PO443212  32.988  35.398   5.853
 8311POPC   GL143213  33.069  35.363   6.153
 8311POPC   GL243214  33.113  35.257   6.153
 8311POPC   C1A43215  33.005  35.312   6.453
 8311POPC   D2A43216  33.024  35.370   6.753
 8311POPC   C3A43217  33.067  35.351   7.053
 8311POPC   C4A43218  32.990  35.325   7.353
 8311POPC   C1B43219  33.254  35.182   6.453
 8311POPC   C2B43220  33.218  35.214   6.753
 8311POPC   C3B43221  33.272  35.186   7.053
 8311POPC   C4B43222  33.248  35.247   7.353
 8312POPC   NC343223  18.306  19.834   5.553
 8312POPC   PO443224  18.288  19.825   5.853
 8312POPC   GL143225  18.244  19.815   6.153
 8312POPC   GL243226  18.256  19.743   6.153
 8312POPC   C1A43227  18.252  19.796   6.453
 8312POPC   D2A43228  18.288  19.844   6.753
 8312POPC   C3A43229  18.332  19.867   7.053
 8312POPC   C4A43230  18.289  19.833   7.353
 8312POPC   C1B43231  18.162  19.609   6.453
 8312POPC   C2B43232  18.196  19.610   6.753
 8312POPC   C3B43233  18.172  19.580   7.053
 8312POPC   C4B43234  18.174  19.645   7.353
 8313POPC   NC343235  29.942   6.625   5.553
 8313POPC   PO443236  29.951   6.614   5.853
 8313POPC   GL143237  29.907   6.650   6.153
 8313POPC   GL243238  29.784   6.632   6.153
 8313POPC   C1A43239  29.961   6.636   6.453
 8313POPC   D2A43240  29.875   6.637   6.753
 8313POPC   C3A43241  29.907   6.618   7.053
 8313POPC   C4A43242  29.948   6.620   7.353
 8313POPC   C1B43243  29.668   6.661   6.453
 8313POPC   C2B43244  29.635   6.678   6.753
 8313POPC   C3B43245  29.655   6.637   7.053
 8313POPC   C4B43246  29.640   6.659   7.353
 8314POPC   NC343247  43.859  43.910   5.553
 8314POPC   PO443248  43.881  43.862   5.853
 8314POPC   GL143249  43.853  43.916   6.153
 8314POPC   GL243250  43.812  43.764   6.153
 8314POPC   C1A43251  43.890  43.849   6.453
 8314POPC   D2A43252  43.837  43.894   6.753
 8314POPC   C3A43253  43.843  43.844   7.053
 8314POPC   C4A43254  43.869  43.889   7.353
 8314POPC   C1B43255  43.657  43.705   6.453
 8314POPC   C2B43256  43.679  43.674   6.753
 8314POPC   C3B43257  43.667  43.769   7.053
 8314POPC   C4B43258  43.715  43.678   7.353
 8315POPC   NC343259  36.924   4.273   5.553
 8315POPC   PO443260  36.932   4.294   5.853
 8315POPC   GL143261  36.871   4.290   6.153
 8315POPC   GL243262  36.829   4.254   6.153
 8315POPC   C1A43263  36.868   4.357   6.453
 8315POPC   D2A43264  36.938   4.328   6.753
 8315POPC   C3A43265  36.891   4.359   7.053
 8315POPC   C4A43266  36.875   4.300   7.353
 8315POPC   C1B43267  36.620   4.196   6.453
 8315POPC   C2B43268  36.642   4.231   6.753
 8315POPC   C3B43269  36.709   4.253   7.053
 8315POPC   C4B43270  36.642   4.229   7.353
 8316POPC   NC343271  44.679  27.590   5.553
 8316POPC   PO443272  44.652  27.619   5.853
 8316POPC   GL143273  44.688  27.543   6.153
 8316POPC   GL243274  44.677  27.738   6.153
 8316POPC   C1A43275  44.707  27.605   6.453
 8316POPC   D2A43276  44.648  27.605   6.753
 8316POPC   C3A43277  44.625  27.619   7.053
 8316POPC   C4A43278  44.701  27.575   7.353
 8316POPC   C1B43279  44.725  27.841   6.453
 8316POPC   C2B43280  44.779  27.855   6.753
 8316POPC   C3B43281  44.710  27.819   7.053
 8316POPC   C4B43282  44.717  27.808   7.353
 8317POPC   NC343283  11.257  10.560   5.553
 8317POPC   PO443284  11.309  10.554   5.853
 8317POPC   GL143285  11.344  10.489   6.153
 8317POPC   GL243286  11.396  10.407   6.153
 8317POPC   C1A43287  11.291  10.518   6.453
 8317POPC   D2A43288  11.269  10.545   6.753
 8317POPC   C3A43289  11.302  10.493   7.053
 8317POPC   C4A43290  11.304  10.508   7.353
 8317POPC   C1B43291  11.467  10.297   6.453
 8317POPC   C2B43292  11.477  10.384   6.753
 8317POPC   C3B43293  11.512  10.303   7.053
 8317POPC   C4B43294  11.418  10.369   7.353
 8318POPC   NC343295  32.241  33.823   5.553
 8318POPC   PO443296  32.288  33.836   5.853
 8318POPC   GL143297  32.285  33.756   6.153
 8318POPC   GL243298  32.275  33.740   6.153
 8318POPC   C1A43299  32.277  33.777   6.453
 8318POPC   D2A43300  32.291  33.798   6.753
 8318POPC   C3A43301  32.233  33.804   7.053
 8318POPC   C4A43302  32.266  33.836   7.353
 8318POPC   C1B43303  32.355  33.637   6.453
 8318POPC   C2B43304  32.370  33.561   6.753
 8318POPC   C3B43305  32.359  33.593   7.053
 8318POPC   C4B43306  32.402  33.551   7.353
 8319POPC   NC343307  26.059  26.840   5.553
 8319POPC   PO443308  26.057  26.836   5.853
 8319POPC   GL143309  25.994  26.803   6.153
 8319POPC   GL243310  26.184  26.882   6.153
 8319POPC   C1A43311  26.010  26.863   6.453
 8319POPC   D2A43312  26.006  26.835   6.753
 8319POPC   C3A43313  26.046  26.839   7.053
 8319POPC   C4A43314  26.033  26.819   7.353
 8319POPC   C1B43315  26.276  26.947   6.453
 8319POPC   C2B43316  26.284  26.998   6.753
 8319POPC   C3B43317  26.223  27.000   7.053
 8319POPC   C4B43318  26.291  26.941   7.353
 8320POPC   NC343319  16.715  27.627   5.553
 8320POPC   PO443320  16.733  27.622   5.853
 8320POPC   GL143321  16.704  27.614   6.153
 8320POPC   GL243322  16.793  27.499   6.153
 8320POPC   C1A43323  16.737  27.555   6.453
 8320POPC   D2A43324  16.761  27.605   6.753
 8320POPC   C3A43325  16.688  27.628   7.053
 8320POPC   C4A43326  16.690  27.547   7.353
 8320POPC   C1B43327  16.836  27.392   6.453
 8320POPC   C2B43328  16.792  27.340   6.753
 8320POPC   C3B43329  16.801  27.348   7.053
 8320POPC   C4B43330  16.807  27.391   7.353
 8321POPC   NC343331  19.832  15.991   5.553
 8321POPC   PO443332  19.851  15.993   5.853
 8321POPC   GL143333  19.796  15.916   6.153
 8321POPC   GL243334  19.770  15.877   6.153
 8321POPC   C1A43335  19.828  15.922   6.453
 8321POPC   D2A43336  19.790  15.912   6.753
 8321POPC   C3A43337  19.841  15.996   7.053
 8321POPC   C4A43338  19.787  15.987   7.353
 8321POPC   C1B43339  19.721  15.737   6.453
 8321POPC   C2B43340  19.735  15.762   6.753
 8321POPC   C3B43341  19.765  15.762   7.053
 8321POPC   C4B43342  19.744  15.687   7.353
 8322POPC   NC343343  27.593  19.054   5.553
 8322POPC   PO443344  27.616  19.012   5.853
 8322POPC   GL143345  27.602  19.102   6.153
 8322POPC   GL243346  27.649  18.958   6.153
 8322POPC   C1A43347  27.586  19.059   6.453
 8322POPC   D2A43348  27.621  19.091   6.753
 8322POPC   C3A43349  27.553  19.102   7.053
 8322POPC   C4A43350  27.599  19.016   7.353
 8322POPC   C1B43351  27.670  18.871   6.453
 8322POPC   C2B43352  27.679  18.869   6.753
 8322POPC   C3B43353  27.707  18.842   7.053
 8322POPC   C4B43354  27.711  18.797   7.353
 8323POPC   NC343355  37.673  14.426   5.553
 8323POPC   PO443356  37.680  14.413   5.853
 8323POPC   GL143357  37.709  14.440   6.153
 8323POPC   GL243358  37.567  14.371   6.153
 8323POPC   C1A43359  37.632  14.358   6.453
 8323POPC   D2A43360  37.705  14.395   6.753
 8323POPC   C3A43361  37.635  14.409   7.053
 8323POPC   C4A43362  37.639  14.358   7.353
 8323POPC   C1B43363  37.507  14.301   6.453
 8323POPC   C2B43364  37.481  14.265   6.753
 8323POPC   C3B43365  37.424  14.297   7.053
 8323POPC   C4B43366  37.513  14.313   7.353
 8324POPC   NC343367  13.633  29.891   5.553
 8324POPC   PO443368  13.632  29.968   5.853
 8324POPC   GL143369  13.650  29.953   6.153
 8324POPC   GL243370  13.539  30.024   6.153
 8324POPC   C1A43371  13.654  29.890   6.453
 8324POPC   D2A43372  13.640  29.961   6.753
 8324POPC   C3A43373  13.652  29.874   7.053
 8324POPC   C4A43374  13.582  29.895   7.353
 8324POPC   C1B43375  13.417  30.066   6.453
 8324POPC   C2B43376  13.459  30.107   6.753
 8324POPC   C3B43377  13.409  30.056   7.053
 8324POPC   C4B43378  13.382  30.080   7.353
 8325POPC   NC343379  42.364  20.632   5.553
 8325POPC   PO443380  42.355  20.571   5.853
 8325POPC   GL143381  42.380  20.648   6.153
 8325POPC   GL243382  42.241  20.548   6.153
 8325POPC   C1A43383  42.356  20.591   6.453
 8325POPC   D2A43384  42.343  20.610   6.753
 8325POPC   C3A43385  42.285  20.636   7.053
 8325POPC   C4A43386  42.382  20.660   7.353
 8325POPC   C1B43387  42.112  20.598   6.453
 8325POPC   C2B43388  42.046  20.592   6.753
 8325POPC   C3B43389  42.059  20.558   7.053
 8325POPC   C4B43390  42.126  20.548   7.353
 8326POPC   NC343391  30.716  42.346   5.553
 8326POPC   PO443392  30.744  42.296   5.853
 8326POPC   GL143393  30.704  42.344   6.153
 8326POPC   GL243394  30.751  42.438   6.153
 8326POPC   C1A43395  30.732  42.307   6.453
 8326POPC   D2A43396  30.725  42.335   6.753
 8326POPC   C3A43397  30.727  42.351   7.053
 8326POPC   C4A43398  30.652  42.370   7.353
 8326POPC   C1B43399  30.718  42.563   6.453
 8326POPC   C2B43400  30.691  42.585   6.753
 8326POPC   C3B43401  30.700  42.552   7.053
 8326POPC   C4B43402  30.727  42.561   7.353
 8327POPC   NC343403  42.342   5.876   5.553
 8327POPC   PO443404  42.349   5.902   5.853
 8327POPC   GL143405  42.330   5.864   6.153
 8327POPC   GL243406  42.182   5.878   6.153
 8327POPC   C1A43407  42.343   5.913   6.453
 8327POPC   D2A43408  42.334   5.918   6.753
 8327POPC   C3A43409  42.290   5.905   7.053
 8327POPC   C4A43410  42.365   5.882   7.353
 8327POPC   C1B43411  42.043   5.811   6.453
 8327POPC   C2B43412  42.086   5.870   6.753
 8327POPC   C3B43413  42.080   5.817   7.053
 8327POPC   C4B43414  42.067   5.881   7.353
 8328POPC   NC343415  28.414  12.900   5.553
 8328POPC   PO443416  28.415  12.885   5.853
 8328POPC   GL143417  28.339  12.826   6.153
 8328POPC   GL243418  28.532  12.834   6.153
 8328POPC   C1A43419  28.338  12.870   6.453
 8328POPC   D2A43420  28.350  12.827   6.753
 8328POPC   C3A43421  28.414  12.868   7.053
 8328POPC   C4A43422  28.394  12.833   7.353
 8328POPC   C1B43423  28.660  12.845   6.453
 8328POPC   C2B43424  28.616  12.820   6.753
 8328POPC   C3B43425  28.616  12.815   7.053
 8328POPC   C4B43426  28.638  12.767   7.353
 8329POPC   NC343427  19.088   8.952   5.553
 8329POPC   PO443428  19.095   8.976   5.853
 8329POPC   GL143429  19.068   8.960   6.153
 8329POPC   GL243430  19.144   8.875   6.153
 8329POPC   C1A43431  19.082   8.937   6.453
 8329POPC   D2A43432  19.079   9.016   6.753
 8329POPC   C3A43433  19.098   8.982   7.053
 8329POPC   C4A43434  19.104   9.011   7.353
 8329POPC   C1B43435  19.161   8.798   6.453
 8329POPC   C2B43436  19.168   8.728   6.753
 8329POPC   C3B43437  19.178   8.809   7.053
 8329POPC   C4B43438  19.204   8.790   7.353
 8330POPC   NC343439  40.004  42.288   5.553
 8330POPC   PO443440  40.002  42.358   5.853
 8330POPC   GL143441  39.998  42.341   6.153
 8330POPC   GL243442  39.978  42.424   6.153
 8330POPC   C1A43443  39.972  42.347   6.453
 8330POPC   D2A43444  40.027  42.301   6.753
 8330POPC   C3A43445  40.033  42.336   7.053
 8330POPC   C4A43446  40.036  42.295   7.353
 8330POPC   C1B43447  39.863  42.570   6.453
 8330POPC   C2B43448  39.852  42.585   6.753
 8330POPC   C3B43449  39.858  42.544   7.053
 8330POPC   C4B43450  39.926  42.542   7.353
 8331POPC   NC343451  42.334  43.145   5.553
 8331POPC   PO443452  42.337  43.126   5.853
 8331POPC   GL143453  42.362  43.120   6.153
 8331POPC   GL243454  42.173  43.064   6.153
 8331POPC   C1A43455  42.311  43.064   6.453
 8331POPC   D2A43456  42.292  43.132   6.753
 8331POPC   C3A43457  42.372  43.155   7.053
 8331POPC   C4A43458  42.376  43.088   7.353
 8331POPC   C1B43459  42.050  43.078   6.453
 8331POPC   C2B43460  42.096  43.042   6.753
 8331POPC   C3B43461  42.064  43.071   7.053
 8331POPC   C4B43462  42.088  43.049   7.353
 8332POPC   NC343463  40.742  27.608   5.553
 8332POPC   PO443464  40.831  27.604   5.853
 8332POPC   GL143465  40.775  27.575   6.153
 8332POPC   GL243466  40.790  27.715   6.153
 8332POPC   C1A43467  40.778  27.569   6.453
 8332POPC   D2A43468  40.766  27.601   6.753
 8332POPC   C3A43469  40.793  27.634   7.053
 8332POPC   C4A43470  40.786  27.614   7.353
 8332POPC   C1B43471  40.734  27.866   6.453
 8332POPC   C2B43472  40.825  27.885   6.753
 8332POPC   C3B43473  40.795  27.801   7.053
 8332POPC   C4B43474  40.807  27.809   7.353
 8333POPC   NC343475   5.134   8.154   5.553
 8333POPC   PO443476   5.125   8.162   5.853
 8333POPC   GL143477   5.072   8.154   6.153
 8333POPC   GL243478   5.076   8.319   6.153
 8333POPC   C1A43479   5.092   8.196   6.453
 8333POPC   D2A43480   5.064   8.211   6.753
 8333POPC   C3A43481   5.081   8.159   7.053
 8333POPC   C4A43482   5.081   8.147   7.353
 8333POPC   C1B43483   5.010   8.416   6.453
 8333POPC   C2B43484   5.045   8.420   6.753
 8333POPC   C3B43485   5.066   8.481   7.053
 8333POPC   C4B43486   5.046   8.471   7.353
 8334POPC   NC343487  13.649  41.520   5.553
 8334POPC   PO443488  13.644  41.598   5.853
 8334POPC   GL143489  13.609  41.536   6.153
 8334POPC   GL243490  13.626  41.472   6.153
 8334POPC   C1A43491  13.587  41.531   6.453
 8334POPC   D2A43492  13.632  41.567   6.753
 8334POPC   C3A43493  13.643  41.582   7.053
 8334POPC   C4A43494  13.599  41.564   7.353
 8334POPC   C1B43495  13.514  41.363   6.453
 8334POPC   C2B43496  13.530  41.329   6.753
 8334POPC   C3B43497  13.595  41.347   7.053
 8334POPC   C4B43498  13.514  41.347   7.353
 8335POPC   NC343499  42.340  29.163   5.553
 8335POPC   PO443500  42.292  29.134   5.853
 8335POPC   GL143501  42.300  29.172   6.153
 8335POPC   GL243502  42.355  29.242   6.153
 8335POPC   C1A43503  42.352  29.143   6.453
 8335POPC   D2A43504  42.327  29.109   6.753
 8335POPC   C3A43505  42.343  29.105   7.053
 8335POPC   C4A43506  42.377  29.171   7.353
 8335POPC   C1B43507  42.404  29.403   6.453
 8335POPC   C2B43508  42.477  29.390   6.753
 8335POPC   C3B43509  42.413  29.335   7.053
 8335POPC   C4B43510  42.392  29.389   7.353
 8336POPC   NC343511  23.700  36.116   5.553
 8336POPC   PO443512  23.672  36.109   5.853
 8336POPC   GL143513  23.764  36.104   6.153
 8336POPC   GL243514  23.637  36.171   6.153
 8336POPC   C1A43515  23.672  36.106   6.453
 8336POPC   D2A43516  23.763  36.134   6.753
 8336POPC   C3A43517  23.714  36.107   7.053
 8336POPC   C4A43518  23.684  36.131   7.353
 8336POPC   C1B43519  23.540  36.241   6.453
 8336POPC   C2B43520  23.479  36.226   6.753
 8336POPC   C3B43521  23.507  36.208   7.053
 8336POPC   C4B43522  23.507  36.268   7.353
 8337POPC   NC343523  30.725  29.096   5.553
 8337POPC   PO443524  30.741  29.155   5.853
 8337POPC   GL143525  30.728  29.127   6.153
 8337POPC   GL243526  30.777  29.209   6.153
 8337POPC   C1A43527  30.666  29.118   6.453
 8337POPC   D2A43528  30.670  29.165   6.753
 8337POPC   C3A43529  30.699  29.170   7.053
 8337POPC   C4A43530  30.743  29.131   7.353
 8337POPC   C1B43531  30.894  29.206   6.453
 8337POPC   C2B43532  30.889  29.257   6.753
 8337POPC   C3B43533  30.908  29.209   7.053
 8337POPC   C4B43534  30.949  29.241   7.353
 8338POPC   NC343535  13.625   4.268   5.553
 8338POPC   PO443536  13.653   4.329   5.853
 8338POPC   GL143537  13.601   4.354   6.153
 8338POPC   GL243538  13.475   4.289   6.153
 8338POPC   C1A43539  13.582   4.291   6.453
 8338POPC   D2A43540  13.630   4.268   6.753
 8338POPC   C3A43541  13.589   4.316   7.053
 8338POPC   C4A43542  13.671   4.339   7.353
 8338POPC   C1B43543  13.442   4.153   6.453
 8338POPC   C2B43544  13.379   4.160   6.753
 8338POPC   C3B43545  13.404   4.212   7.053
 8338POPC   C4B43546  13.367   4.162   7.353
 8339POPC   NC343547  39.974  30.725   5.553
 8339POPC   PO443548  40.021  30.717   5.853
 8339POPC   GL143549  40.036  30.697   6.153
 8339POPC   GL243550  40.041  30.580   6.153
 8339POPC   C1A43551  39.995  30.738   6.453
 8339POPC   D2A43552  39.985  30.742   6.753
 8339POPC   C3A43553  40.023  30.652   7.053
 8339POPC   C4A43554  39.963  30.726   7.353
 8339POPC   C1B43555  39.962  30.421   6.453
 8339POPC   C2B43556  40.008  30.462   6.753
 8339POPC   C3B43557  39.990  30.482   7.053
 8339POPC   C4B43558  40.025  30.496   7.353
 8340POPC   NC343559   0.444  36.921   5.553
 8340POPC   PO443560   0.444  36.928   5.853
 8340POPC   GL143561   0.460  36.902   6.153
 8340POPC   GL243562   0.532  37.012   6.153
 8340POPC   C1A43563   0.461  36.920   6.453
 8340POPC   D2A43564   0.391  36.876   6.753
 8340POPC   C3A43565   0.441  36.894   7.053
 8340POPC   C4A43566   0.394  36.898   7.353
 8340POPC   C1B43567   0.550  37.081   6.453
 8340POPC   C2B43568   0.574  37.082   6.753
 8340POPC   C3B43569   0.539  37.088   7.053
 8340POPC   C4B43570   0.564  37.145   7.353
 8341POPC   NC343571  41.546  40.042   5.553
 8341POPC   PO443572  41.543  40.031   5.853
 8341POPC   GL143573  41.509  39.973   6.153
 8341POPC   GL243574  41.421  39.970   6.153
 8341POPC   C1A43575  41.605  39.961   6.453
 8341POPC   D2A43576  41.566  40.028   6.753
 8341POPC   C3A43577  41.580  40.008   7.053
 8341POPC   C4A43578  41.603  40.054   7.353
 8341POPC   C1B43579  41.313  39.883   6.453
 8341POPC   C2B43580  41.353  39.889   6.753
 8341POPC   C3B43581  41.354  39.953   7.053
 8341POPC   C4B43582  41.352  39.885   7.353
 8342POPC   NC343583  28.357  14.438   5.553
 8342POPC   PO443584  28.347  14.405   5.853
 8342POPC   GL143585  28.408  14.431   6.153
 8342POPC   GL243586  28.523  14.382   6.153
 8342POPC   C1A43587  28.382  14.375   6.453
 8342POPC   D2A43588  28.380  14.402   6.753
 8342POPC   C3A43589  28.368  14.418   7.053
 8342POPC   C4A43590  28.357  14.452   7.353
 8342POPC   C1B43591  28.618  14.341   6.453
 8342POPC   C2B43592  28.581  14.394   6.753
 8342POPC   C3B43593  28.636  14.403   7.053
 8342POPC   C4B43594  28.655  14.416   7.353
 8343POPC   NC343595   3.523  43.089   5.553
 8343POPC   PO443596   3.508  43.118   5.853
 8343POPC   GL143597   3.580  43.139   6.153
 8343POPC   GL243598   3.687  43.081   6.153
 8343POPC   C1A43599   3.564  43.129   6.453
 8343POPC   D2A43600   3.584  43.145   6.753
 8343POPC   C3A43601   3.528  43.140   7.053
 8343POPC   C4A43602   3.513  43.146   7.353
 8343POPC   C1B43603   3.774  43.099   6.453
 8343POPC   C2B43604   3.817  43.157   6.753
 8343POPC   C3B43605   3.818  43.104   7.053
 8343POPC   C4B43606   3.820  43.173   7.353
 8344POPC   NC343607  25.218  14.438   5.553
 8344POPC   PO443608  25.276  14.362   5.853
 8344POPC   GL143609  25.281  14.429   6.153
 8344POPC   GL243610  25.390  14.399   6.153
 8344POPC   C1A43611  25.224  14.355   6.453
 8344POPC   D2A43612  25.309  14.376   6.753
 8344POPC   C3A43613  25.294  14.438   7.053
 8344POPC   C4A43614  25.216  14.424   7.353
 8344POPC   C1B43615  25.515  14.435   6.453
 8344POPC   C2B43616  25.526  14.426   6.753
 8344POPC   C3B43617  25.558  14.372   7.053
 8344POPC   C4B43618  25.545  14.366   7.353
 8345POPC   NC343619  41.522  12.816   5.553
 8345POPC   PO443620  41.581  12.892   5.853
 8345POPC   GL143621  41.520  12.810   6.153
 8345POPC   GL243622  41.663  12.900   6.153
 8345POPC   C1A43623  41.603  12.848   6.453
 8345POPC   D2A43624  41.544  12.820   6.753
 8345POPC   C3A43625  41.559  12.898   7.053
 8345POPC   C4A43626  41.516  12.833   7.353
 8345POPC   C1B43627  41.812  13.002   6.453
 8345POPC   C2B43628  41.778  12.966   6.753
 8345POPC   C3B43629  41.769  12.960   7.053
 8345POPC   C4B43630  41.749  12.926   7.353
 8346POPC   NC343631   9.706  14.373   5.553
 8346POPC   PO443632   9.757  14.421   5.853
 8346POPC   GL143633   9.715  14.385   6.153
 8346POPC   GL243634   9.645  14.339   6.153
 8346POPC   C1A43635   9.729  14.403   6.453
 8346POPC   D2A43636   9.797  14.406   6.753
 8346POPC   C3A43637   9.731  14.438   7.053
 8346POPC   C4A43638   9.769  14.400   7.353
 8346POPC   C1B43639   9.555  14.264   6.453
 8346POPC   C2B43640   9.498  14.294   6.753
 8346POPC   C3B43641   9.570  14.226   7.053
 8346POPC   C4B43642   9.516  14.289   7.353
 8347POPC   NC343643  29.186  15.179   5.553
 8347POPC   PO443644  29.191  15.149   5.853
 8347POPC   GL143645  29.117  15.142   6.153
 8347POPC   GL243646  29.102  15.115   6.153
 8347POPC   C1A43647  29.189  15.225   6.453
 8347POPC   D2A43648  29.165  15.169   6.753
 8347POPC   C3A43649  29.156  15.183   7.053
 8347POPC   C4A43650  29.133  15.195   7.353
 8347POPC   C1B43651  28.938  15.036   6.453
 8347POPC   C2B43652  28.966  15.000   6.753
 8347POPC   C3B43653  28.946  15.013   7.053
 8347POPC   C4B43654  28.918  15.052   7.353
 8348POPC   NC343655  39.978  43.061   5.553
 8348POPC   PO443656  40.012  43.160   5.853
 8348POPC   GL143657  39.988  43.150   6.153
 8348POPC   GL243658  39.950  43.025   6.153
 8348POPC   C1A43659  39.971  43.071   6.453
 8348POPC   D2A43660  40.032  43.145   6.753
 8348POPC   C3A43661  40.002  43.148   7.053
 8348POPC   C4A43662  40.006  43.060   7.353
 8348POPC   C1B43663  39.840  42.886   6.453
 8348POPC   C2B43664  39.834  42.859   6.753
 8348POPC   C3B43665  39.823  42.891   7.053
 8348POPC   C4B43666  39.893  42.920   7.353
 8349POPC   NC343667  33.835  24.462   5.553
 8349POPC   PO443668  33.754  24.524   5.853
 8349POPC   GL143669  33.844  24.499   6.153
 8349POPC   GL243670  33.705  24.389   6.153
 8349POPC   C1A43671  33.819  24.455   6.453
 8349POPC   D2A43672  33.825  24.511   6.753
 8349POPC   C3A43673  33.782  24.510   7.053
 8349POPC   C4A43674  33.766  24.485   7.353
 8349POPC   C1B43675  33.689  24.232   6.453
 8349POPC   C2B43676  33.676  24.262   6.753
 8349POPC   C3B43677  33.643  24.272   7.053
 8349POPC   C4B43678  33.657  24.278   7.353
 8350POPC   NC343679  29.930  16.736   5.553
 8350POPC   PO443680  29.912  16.751   5.853
 8350POPC   GL143681  29.942  16.748   6.153
 8350POPC   GL243682  30.022  16.687   6.153
 8350POPC   C1A43683  29.965  16.749   6.453
 8350POPC   D2A43684  29.924  16.688   6.753
 8350POPC   C3A43685  29.907  16.762   7.053
 8350POPC   C4A43686  29.957  16.706   7.353
 8350POPC   C1B43687  30.148  16.712   6.453
 8350POPC   C2B43688  30.189  16.638   6.753
 8350POPC   C3B43689  30.199  16.695   7.053
 8350POPC   C4B43690  30.162  16.727   7.353
 8351POPC   NC343691  10.574  14.418   5.553
 8351POPC   PO443692  10.483  14.434   5.853
 8351POPC   GL143693  10.571  14.378   6.153
 8351POPC   GL243694  10.570  14.541   6.153
 8351POPC   C1A43695  10.517  14.430   6.453
 8351POPC   D2A43696  10.553  14.431   6.753
 8351POPC   C3A43697  10.504  14.424   7.053
 8351POPC   C4A43698  10.500  14.385   7.353
 8351POPC   C1B43699  10.651  14.664   6.453
 8351POPC   C2B43700  10.569  14.651   6.753
 8351POPC   C3B43701  10.640  14.650   7.053
 8351POPC   C4B43702  10.632  14.632   7.353
 8352POPC   NC343703  33.003  23.740   5.553
 8352POPC   PO443704  32.998  23.723   5.853
 8352POPC   GL143705  33.032  23.749   6.153
 8352POPC   GL243706  32.953  23.773   6.153
 8352POPC   C1A43707  32.987  23.741   6.453
 8352POPC   D2A43708  33.021  23.721   6.753
 8352POPC   C3A43709  32.989  23.755   7.053
 8352POPC   C4A43710  33.040  23.716   7.353
 8352POPC   C1B43711  32.861  23.900   6.453
 8352POPC   C2B43712  32.814  23.840   6.753
 8352POPC   C3B43713  32.798  23.895   7.053
 8352POPC   C4B43714  32.813  23.858   7.353
 8353POPC   NC343715  42.311   4.345   5.553
 8353POPC   PO443716  42.331   4.309   5.853
 8353POPC   GL143717  42.314   4.359   6.153
 8353POPC   GL243718  42.254   4.401   6.153
 8353POPC   C1A43719  42.300   4.294   6.453
 8353POPC   D2A43720  42.309   4.298   6.753
 8353POPC   C3A43721  42.361   4.364   7.053
 8353POPC   C4A43722  42.325   4.354   7.353
 8353POPC   C1B43723  42.234   4.567   6.453
 8353POPC   C2B43724  42.255   4.597   6.753
 8353POPC   C3B43725  42.238   4.541   7.053
 8353POPC   C4B43726  42.251   4.570   7.353
 8354POPC   NC343727  19.857   8.168   5.553
 8354POPC   PO443728  19.786   8.237   5.853
 8354POPC   GL143729  19.789   8.211   6.153
 8354POPC   GL243730  19.910   8.075   6.153
 8354POPC   C1A43731  19.862   8.214   6.453
 8354POPC   D2A43732  19.882   8.218   6.753
 8354POPC   C3A43733  19.861   8.154   7.053
 8354POPC   C4A43734  19.867   8.227   7.353
 8354POPC   C1B43735  19.995   8.050   6.453
 8354POPC   C2B43736  20.081   8.093   6.753
 8354POPC   C3B43737  20.021   8.052   7.053
 8354POPC   C4B43738  20.040   8.056   7.353
 8355POPC   NC343739  18.240   0.480   5.553
 8355POPC   PO443740  18.321   0.416   5.853
 8355POPC   GL143741  18.244   0.465   6.153
 8355POPC   GL243742  18.253   0.356   6.153
 8355POPC   C1A43743  18.280   0.406   6.453
 8355POPC   D2A43744  18.283   0.391   6.753
 8355POPC   C3A43745  18.257   0.412   7.053
 8355POPC   C4A43746  18.266   0.457   7.353
 8355POPC   C1B43747  18.228   0.206   6.453
 8355POPC   C2B43748  18.240   0.212   6.753
 8355POPC   C3B43749  18.253   0.201   7.053
 8355POPC   C4B43750  18.240   0.202   7.353
 8356POPC   NC343751  30.735   7.402   5.553
 8356POPC   PO443752  30.669   7.468   5.853
 8356POPC   GL143753  30.710   7.468   6.153
 8356POPC   GL243754  30.638   7.361   6.153
 8356POPC   C1A43755  30.660   7.426   6.453
 8356POPC   D2A43756  30.678   7.454   6.753
 8356POPC   C3A43757  30.670   7.470   7.053
 8356POPC   C4A43758  30.730   7.406   7.353
 8356POPC   C1B43759  30.466   7.254   6.453
 8356POPC   C2B43760  30.470   7.243   6.753
 8356POPC   C3B43761  30.475   7.255   7.053
 8356POPC   C4B43762  30.480   7.252   7.353
 8357POPC   NC343763   2.016  29.919   5.553
 8357POPC   PO443764   1.972  29.956   5.853
 8357POPC   GL143765   1.963  29.918   6.153
 8357POPC   GL243766   1.939  29.761   6.153
 8357POPC   C1A43767   2.002  29.930   6.453
 8357POPC   D2A43768   2.017  29.885   6.753
 8357POPC   C3A43769   1.941  29.877   7.053
 8357POPC   C4A43770   1.974  29.952   7.353
 8357POPC   C1B43771   1.969  29.681   6.453
 8357POPC   C2B43772   1.988  29.661   6.753
 8357POPC   C3B43773   1.961  29.664   7.053
 8357POPC   C4B43774   1.987  29.698   7.353
 8358POPC   NC343775  16.739  41.604   5.553
 8358POPC   PO443776  16.760  41.517   5.853
 8358POPC   GL143777  16.701  41.514   6.153
 8358POPC   GL243778  16.768  41.654   6.153
 8358POPC   C1A43779  16.741  41.547   6.453
 8358POPC   D2A43780  16.705  41.560   6.753
 8358POPC   C3A43781  16.773  41.574   7.053
 8358POPC   C4A43782  16.707  41.552   7.353
 8358POPC   C1B43783  16.828  41.800   6.453
 8358POPC   C2B43784  16.790  41.838   6.753
 8358POPC   C3B43785  16.807  41.773   7.053
 8358POPC   C4B43786  16.851  41.786   7.353
 8359POPC   NC343787  29.115  14.381   5.553
 8359POPC   PO443788  29.101  14.364   5.853
 8359POPC   GL143789  29.181  14.367   6.153
 8359POPC   GL243790  29.228  14.396   6.153
 8359POPC   C1A43791  29.152  14.417   6.453
 8359POPC   D2A43792  29.159  14.433   6.753
 8359POPC   C3A43793  29.154  14.370   7.053
 8359POPC   C4A43794  29.169  14.408   7.353
 8359POPC   C1B43795  29.377  14.350   6.453
 8359POPC   C2B43796  29.349  14.413   6.753
 8359POPC   C3B43797  29.429  14.385   7.053
 8359POPC   C4B43798  29.345  14.369   7.353
 8360POPC   NC343799  25.268  15.134   5.553
 8360POPC   PO443800  25.254  15.190   5.853
 8360POPC   GL143801  25.244  15.146   6.153
 8360POPC   GL243802  25.373  15.244   6.153
 8360POPC   C1A43803  25.266  15.179   6.453
 8360POPC   D2A43804  25.244  15.158   6.753
 8360POPC   C3A43805  25.228  15.147   7.053
 8360POPC   C4A43806  25.241  15.228   7.353
 8360POPC   C1B43807  25.380  15.362   6.453
 8360POPC   C2B43808  25.397  15.384   6.753
 8360POPC   C3B43809  25.372  15.429   7.053
 8360POPC   C4B43810  25.431  15.396   7.353
 8361POPC   NC343811  43.129  33.812   5.553
 8361POPC   PO443812  43.086  33.837   5.853
 8361POPC   GL143813  43.102  33.837   6.153
 8361POPC   GL243814  43.110  33.725   6.153
 8361POPC   C1A43815  43.112  33.804   6.453
 8361POPC   D2A43816  43.089  33.752   6.753
 8361POPC   C3A43817  43.091  33.795   7.053
 8361POPC   C4A43818  43.140  33.758   7.353
 8361POPC   C1B43819  43.039  33.523   6.453
 8361POPC   C2B43820  43.081  33.562   6.753
 8361POPC   C3B43821  43.015  33.570   7.053
 8361POPC   C4B43822  43.066  33.549   7.353
 8362POPC   NC343823   3.514  12.827   5.553
 8362POPC   PO443824   3.511  12.897   5.853
 8362POPC   GL143825   3.546  12.809   6.153
 8362POPC   GL243826   3.625  12.920   6.153
 8362POPC   C1A43827   3.551  12.837   6.453
 8362POPC   D2A43828   3.492  12.881   6.753
 8362POPC   C3A43829   3.555  12.809   7.053
 8362POPC   C4A43830   3.573  12.814   7.353
 8362POPC   C1B43831   3.812  12.946   6.453
 8362POPC   C2B43832   3.803  12.962   6.753
 8362POPC   C3B43833   3.768  12.905   7.053
 8362POPC   C4B43834   3.754  12.896   7.353
 8363POPC   NC343835  39.227  37.691   5.553
 8363POPC   PO443836  39.232  37.647   5.853
 8363POPC   GL143837  39.252  37.674   6.153
 8363POPC   GL243838  39.299  37.752   6.153
 8363POPC   C1A43839  39.197  37.640   6.453
 8363POPC   D2A43840  39.222  37.670   6.753
 8363POPC   C3A43841  39.209  37.652   7.053
 8363POPC   C4A43842  39.243  37.673   7.353
 8363POPC   C1B43843  39.294  37.871   6.453
 8363POPC   C2B43844  39.353  37.890   6.753
 8363POPC   C3B43845  39.259  37.956   7.053
 8363POPC   C4B43846  39.293  37.874   7.353
 8364POPC   NC343847  42.382  26.052   5.553
 8364POPC   PO443848  42.368  26.064   5.853
 8364POPC   GL143849  42.364  26.085   6.153
 8364POPC   GL243850  42.291  25.939   6.153
 8364POPC   C1A43851  42.311  26.054   6.453
 8364POPC   D2A43852  42.370  26.050   6.753
 8364POPC   C3A43853  42.338  25.997   7.053
 8364POPC   C4A43854  42.308  26.059   7.353
 8364POPC   C1B43855  42.158  25.920   6.453
 8364POPC   C2B43856  42.193  25.871   6.753
 8364POPC   C3B43857  42.188  25.911   7.053
 8364POPC   C4B43858  42.192  25.838   7.353
 8365POPC   NC343859  33.803  21.425   5.553
 8365POPC   PO443860  33.779  21.356   5.853
 8365POPC   GL143861  33.823  21.359   6.153
 8365POPC   GL243862  33.716  21.268   6.153
 8365POPC   C1A43863  33.783  21.377   6.453
 8365POPC   D2A43864  33.800  21.430   6.753
 8365POPC   C3A43865  33.775  21.374   7.053
 8365POPC   C4A43866  33.761  21.393   7.353
 8365POPC   C1B43867  33.680  21.172   6.453
 8365POPC   C2B43868  33.677  21.190   6.753
 8365POPC   C3B43869  33.665  21.177   7.053
 8365POPC   C4B43870  33.637  21.167   7.353
 8366POPC   NC343871  35.341  21.435   5.553
 8366POPC   PO443872  35.365  21.405   5.853
 8366POPC   GL143873  35.363  21.370   6.153
 8366POPC   GL243874  35.387  21.475   6.153
 8366POPC   C1A43875  35.380  21.413   6.453
 8366POPC   D2A43876  35.390  21.349   6.753
 8366POPC   C3A43877  35.376  21.373   7.053
 8366POPC   C4A43878  35.395  21.389   7.353
 8366POPC   C1B43879  35.358  21.618   6.453
 8366POPC   C2B43880  35.333  21.591   6.753
 8366POPC   C3B43881  35.419  21.657   7.053
 8366POPC   C4B43882  35.386  21.639   7.353
 8367POPC   NC343883  31.495  18.304   5.553
 8367POPC   PO443884  31.490  18.263   5.853
 8367POPC   GL143885  31.447  18.320   6.153
 8367POPC   GL243886  31.575  18.320   6.153
 8367POPC   C1A43887  31.482  18.275   6.453
 8367POPC   D2A43888  31.514  18.259   6.753
 8367POPC   C3A43889  31.424  18.266   7.053
 8367POPC   C4A43890  31.461  18.271   7.353
 8367POPC   C1B43891  31.752  18.332   6.453
 8367POPC   C2B43892  31.738  18.353   6.753
 8367POPC   C3B43893  31.689  18.342   7.053
 8367POPC   C4B43894  31.752  18.314   7.353
 8368POPC   NC343895  29.925  15.984   5.553
 8368POPC   PO443896  29.882  15.919   5.853
 8368POPC   GL143897  29.902  15.953   6.153
 8368POPC   GL243898  29.838  15.887   6.153
 8368POPC   C1A43899  29.895  15.965   6.453
 8368POPC   D2A43900  29.956  15.949   6.753
 8368POPC   C3A43901  29.913  15.921   7.053
 8368POPC   C4A43902  29.965  15.987   7.353
 8368POPC   C1B43903  29.671  15.885   6.453
 8368POPC   C2B43904  29.643  15.879   6.753
 8368POPC   C3B43905  29.666  15.843   7.053
 8368POPC   C4B43906  29.651  15.866   7.353
 8369POPC   NC343907  43.124  28.378   5.553
 8369POPC   PO443908  43.094  28.413   5.853
 8369POPC   GL143909  43.087  28.347   6.153
 8369POPC   GL243910  43.061  28.472   6.153
 8369POPC   C1A43911  43.119  28.333   6.453
 8369POPC   D2A43912  43.090  28.327   6.753
 8369POPC   C3A43913  43.087  28.367   7.053
 8369POPC   C4A43914  43.110  28.345   7.353
 8369POPC   C1B43915  42.903  28.578   6.453
 8369POPC   C2B43916  42.912  28.587   6.753
 8369POPC   C3B43917  42.897  28.580   7.053
 8369POPC   C4B43918  42.898  28.542   7.353
 8370POPC   NC343919  22.934   8.166   5.553
 8370POPC   PO443920  22.953   8.233   5.853
 8370POPC   GL143921  22.930   8.231   6.153
 8370POPC   GL243922  23.014   8.275   6.153
 8370POPC   C1A43923  22.921   8.202   6.453
 8370POPC   D2A43924  22.891   8.209   6.753
 8370POPC   C3A43925  22.889   8.215   7.053
 8370POPC   C4A43926  22.952   8.229   7.353
 8370POPC   C1B43927  23.143   8.270   6.453
 8370POPC   C2B43928  23.175   8.306   6.753
 8370POPC   C3B43929  23.180   8.285   7.053
 8370POPC   C4B43930  23.155   8.321   7.353
 8371POPC   NC343931   9.796  25.994   5.553
 8371POPC   PO443932   9.712  26.074   5.853
 8371POPC   GL143933   9.730  26.090   6.153
 8371POPC   GL243934   9.884  25.968   6.153
 8371POPC   C1A43935   9.780  26.056   6.453
 8371POPC   D2A43936   9.739  26.077   6.753
 8371POPC   C3A43937   9.707  26.008   7.053
 8371POPC   C4A43938   9.718  26.054   7.353
 8371POPC   C1B43939   9.929  25.894   6.453
 8371POPC   C2B43940   9.966  25.861   6.753
 8371POPC   C3B43941   9.907  25.913   7.053
 8371POPC   C4B43942   9.980  25.853   7.353
 8372POPC   NC343943  12.843   9.788   5.553
 8372POPC   PO443944  12.881   9.729   5.853
 8372POPC   GL143945  12.809   9.714   6.153
 8372POPC   GL243946  12.771   9.657   6.153
 8372POPC   C1A43947  12.881   9.755   6.453
 8372POPC   D2A43948  12.810   9.731   6.753
 8372POPC   C3A43949  12.824   9.721   7.053
 8372POPC   C4A43950  12.880   9.770   7.353
 8372POPC   C1B43951  12.597   9.679   6.453
 8372POPC   C2B43952  12.631   9.669   6.753
 8372POPC   C3B43953  12.654   9.634   7.053
 8372POPC   C4B43954  12.648   9.637   7.353
 8373POPC   NC343955  12.892  13.667   5.553
 8373POPC   PO443956  12.832  13.601   5.853
 8373POPC   GL143957  12.866  13.588   6.153
 8373POPC   GL243958  12.770  13.764   6.153
 8373POPC   C1A43959  12.865  13.622   6.453
 8373POPC   D2A43960  12.818  13.627   6.753
 8373POPC   C3A43961  12.878  13.582   7.053
 8373POPC   C4A43962  12.853  13.584   7.353
 8373POPC   C1B43963  12.720  13.839   6.453
 8373POPC   C2B43964  12.708  13.837   6.753
 8373POPC   C3B43965  12.719  13.893   7.053
 8373POPC   C4B43966  12.741  13.888   7.353
 8374POPC   NC343967  12.028  25.313   5.553
 8374POPC   PO443968  12.086  25.281   5.853
 8374POPC   GL143969  12.123  25.292   6.153
 8374POPC   GL243970  12.108  25.396   6.153
 8374POPC   C1A43971  12.067  25.313   6.453
 8374POPC   D2A43972  12.075  25.288   6.753
 8374POPC   C3A43973  12.093  25.277   7.053
 8374POPC   C4A43974  12.063  25.284   7.353
 8374POPC   C1B43975  12.140  25.556   6.453
 8374POPC   C2B43976  12.075  25.493   6.753
 8374POPC   C3B43977  12.124  25.522   7.053
 8374POPC   C4B43978  12.073  25.535   7.353
 8375POPC   NC343979  31.507  21.356   5.553
 8375POPC   PO443980  31.431  21.424   5.853
 8375POPC   GL143981  31.502  21.399   6.153
 8375POPC   GL243982  31.406  21.458   6.153
 8375POPC   C1A43983  31.500  21.386   6.453
 8375POPC   D2A43984  31.517  21.379   6.753
 8375POPC   C3A43985  31.461  21.433   7.053
 8375POPC   C4A43986  31.506  21.376   7.353
 8375POPC   C1B43987  31.334  21.645   6.453
 8375POPC   C2B43988  31.347  21.647   6.753
 8375POPC   C3B43989  31.345  21.663   7.053
 8375POPC   C4B43990  31.396  21.572   7.353
 8376POPC   NC343991   2.798   0.439   5.553
 8376POPC   PO443992   2.760   0.426   5.853
 8376POPC   GL143993   2.771   0.447   6.153
 8376POPC   GL243994   2.749   0.534   6.153
 8376POPC   C1A43995   2.796   0.391   6.453
 8376POPC   D2A43996   2.813   0.482   6.753
 8376POPC   C3A43997   2.786   0.464   7.053
 8376POPC   C4A43998   2.773   0.483   7.353
 8376POPC   C1B43999   2.665   0.634   6.453
 8376POPC   C2B44000   2.668   0.642   6.753
 8376POPC   C3B44001   2.706   0.678   7.053
 8376POPC   C4B44002   2.742   0.689   7.353
 8377POPC   NC344003  18.255  12.894   5.553
 8377POPC   PO444004  18.317  12.804   5.853
 8377POPC   GL144005  18.303  12.822   6.153
 8377POPC   GL244006  18.364  12.713   6.153
 8377POPC   C1A44007  18.305  12.885   6.453
 8377POPC   D2A44008  18.308  12.834   6.753
 8377POPC   C3A44009  18.287  12.860   7.053
 8377POPC   C4A44010  18.262  12.850   7.353
 8377POPC   C1B44011  18.446  12.641   6.453
 8377POPC   C2B44012  18.396  12.604   6.753
 8377POPC   C3B44013  18.406  12.639   7.053
 8377POPC   C4B44014  18.422  12.627   7.353
 8378POPC   NC344015  21.433  40.742   5.553
 8378POPC   PO444016  21.346  40.776   5.853
 8378POPC   GL144017  21.375  40.820   6.153
 8378POPC   GL244018  21.243  40.868   6.153
 8378POPC   C1A44019  21.357  40.777   6.453
 8378POPC   D2A44020  21.377  40.766   6.753
 8378POPC   C3A44021  21.362  40.823   7.053
 8378POPC   C4A44022  21.369  40.766   7.353
 8378POPC   C1B44023  21.179  40.910   6.453
 8378POPC   C2B44024  21.178  40.915   6.753
 8378POPC   C3B44025  21.184  40.898   7.053
 8378POPC   C4B44026  21.222  40.898   7.353
 8379POPC   NC344027  20.642  19.020   5.553
 8379POPC   PO444028  20.576  19.062   5.853
 8379POPC   GL144029  20.645  19.051   6.153
 8379POPC   GL244030  20.630  18.897   6.153
 8379POPC   C1A44031  20.649  19.052   6.453
 8379POPC   D2A44032  20.564  19.091   6.753
 8379POPC   C3A44033  20.613  19.101   7.053
 8379POPC   C4A44034  20.607  19.021   7.353
 8379POPC   C1B44035  20.581  18.838   6.453
 8379POPC   C2B44036  20.573  18.793   6.753
 8379POPC   C3B44037  20.543  18.834   7.053
 8379POPC   C4B44038  20.565  18.833   7.353
 8380POPC   NC344039  33.033  40.797   5.553
 8380POPC   PO444040  33.013  40.735   5.853
 8380POPC   GL144041  32.999  40.820   6.153
 8380POPC   GL244042  33.025  40.939   6.153
 8380POPC   C1A44043  33.041  40.796   6.453
 8380POPC   D2A44044  33.015  40.795   6.753
 8380POPC   C3A44045  32.993  40.773   7.053
 8380POPC   C4A44046  32.978  40.752   7.353
 8380POPC   C1B44047  33.005  41.075   6.453
 8380POPC   C2B44048  33.004  40.985   6.753
 8380POPC   C3B44049  33.012  41.052   7.053
 8380POPC   C4B44050  33.058  41.047   7.353
 8381POPC   NC344051   2.792  43.924   5.553
 8381POPC   PO444052   2.796  43.934   5.853
 8381POPC   GL144053   2.728  43.844   6.153
 8381POPC   GL244054   2.817  43.978   6.153
 8381POPC   C1A44055   2.804  43.912   6.453
 8381POPC   D2A44056   2.738  43.914   6.753
 8381POPC   C3A44057   2.738  43.930   7.053
 8381POPC   C4A44058   2.772  43.840   7.353
 8381POPC   C1B44059   2.904  44.090   6.453
 8381POPC   C2B44060   2.829  44.130   6.753
 8381POPC   C3B44061   2.822  44.122   7.053
 8381POPC   C4B44062   2.812  44.157   7.353
 8382POPC   NC344063  31.436  25.261   5.553
 8382POPC   PO444064  31.520  25.221   5.853
 8382POPC   GL144065  31.432  25.250   6.153
 8382POPC   GL244066  31.567  25.139   6.153
 8382POPC   C1A44067  31.515  25.220   6.453
 8382POPC   D2A44068  31.506  25.254   6.753
 8382POPC   C3A44069  31.482  25.233   7.053
 8382POPC   C4A44070  31.473  25.256   7.353
 8382POPC   C1B44071  31.669  25.089   6.453
 8382POPC   C2B44072  31.651  25.113   6.753
 8382POPC   C3B44073  31.611  25.041   7.053
 8382POPC   C4B44074  31.648  25.073   7.353
 8383POPC   NC344075   0.484  13.654   5.553
 8383POPC   PO444076   0.409  13.676   5.853
 8383POPC   GL144077   0.421  13.643   6.153
 8383POPC   GL244078   0.447  13.730   6.153
 8383POPC   C1A44079   0.426  13.669   6.453
 8383POPC   D2A44080   0.453  13.661   6.753
 8383POPC   C3A44081   0.435  13.667   7.053
 8383POPC   C4A44082   0.398  13.654   7.353
 8383POPC   C1B44083   0.413  13.879   6.453
 8383POPC   C2B44084   0.475  13.906   6.753
 8383POPC   C3B44085   0.448  13.876   7.053
 8383POPC   C4B44086   0.451  13.877   7.353
 8384POPC   NC344087  22.977  42.340   5.553
 8384POPC   PO444088  22.905  42.305   5.853
 8384POPC   GL144089  22.957  42.294   6.153
 8384POPC   GL244090  22.888  42.218   6.153
 8384POPC   C1A44091  22.948  42.334   6.453
 8384POPC   D2A44092  22.959  42.312   6.753
 8384POPC   C3A44093  22.954  42.336   7.053
 8384POPC   C4A44094  22.908  42.376   7.353
 8384POPC   C1B44095  22.945  42.046   6.453
 8384POPC   C2B44096  22.907  42.103   6.753
 8384POPC   C3B44097  22.963  42.052   7.053
 8384POPC   C4B44098  22.972  42.082   7.353
 8385POPC   NC344099  37.650  42.288   5.553
 8385POPC   PO444100  37.705  42.355   5.853
 8385POPC   GL144101  37.690  42.346   6.153
 8385POPC   GL244102  37.652  42.424   6.153
 8385POPC   C1A44103  37.704  42.332   6.453
 8385POPC   D2A44104  37.699  42.290   6.753
 8385POPC   C3A44105  37.713  42.384   7.053
 8385POPC   C4A44106  37.630  42.324   7.353
 8385POPC   C1B44107  37.667  42.564   6.453
 8385POPC   C2B44108  37.727  42.601   6.753
 8385POPC   C3B44109  37.652  42.567   7.053
 8385POPC   C4B44110  37.646  42.547   7.353
 8386POPC   NC344111  35.349   5.121   5.553
 8386POPC   PO444112  35.387   5.108   5.853
 8386POPC   GL144113  35.316   5.130   6.153
 8386POPC   GL244114  35.286   5.181   6.153
 8386POPC   C1A44115  35.395   5.116   6.453
 8386POPC   D2A44116  35.401   5.131   6.753
 8386POPC   C3A44117  35.372   5.134   7.053
 8386POPC   C4A44118  35.308   5.139   7.353
 8386POPC   C1B44119  35.271   5.359   6.453
 8386POPC   C2B44120  35.287   5.337   6.753
 8386POPC   C3B44121  35.246   5.284   7.053
 8386POPC   C4B44122  35.267   5.289   7.353
 8387POPC   NC344123  37.650  35.319   5.553
 8387POPC   PO444124  37.715  35.347   5.853
 8387POPC   GL144125  37.709  35.388   6.153
 8387POPC   GL244126  37.802  35.347   6.153
 8387POPC   C1A44127  37.688  35.384   6.453
 8387POPC   D2A44128  37.707  35.400   6.753
 8387POPC   C3A44129  37.663  35.354   7.053
 8387POPC   C4A44130  37.645  35.320   7.353
 8387POPC   C1B44131  37.889  35.334   6.453
 8387POPC   C2B44132  37.976  35.324   6.753
 8387POPC   C3B44133  37.887  35.309   7.053
 8387POPC   C4B44134  37.901  35.322   7.353
 8388POPC   NC344135  27.556  40.815   5.553
 8388POPC   PO444136  27.587  40.781   5.853
 8388POPC   GL144137  27.546  40.807   6.153
 8388POPC   GL244138  27.605  40.680   6.153
 8388POPC   C1A44139  27.543  40.796   6.453
 8388POPC   D2A44140  27.634  40.764   6.753
 8388POPC   C3A44141  27.579  40.760   7.053
 8388POPC   C4A44142  27.588  40.746   7.353
 8388POPC   C1B44143  27.493  40.546   6.453
 8388POPC   C2B44144  27.570  40.575   6.753
 8388POPC   C3B44145  27.571  40.581   7.053
 8388POPC   C4B44146  27.531  40.587   7.353
 8389POPC   NC344147  39.236  41.600   5.553
 8389POPC   PO444148  39.263  41.583   5.853
 8389POPC   GL144149  39.259  41.546   6.153
 8389POPC   GL244150  39.306  41.441   6.153
 8389POPC   C1A44151  39.225  41.523   6.453
 8389POPC   D2A44152  39.191  41.595   6.753
 8389POPC   C3A44153  39.229  41.512   7.053
 8389POPC   C4A44154  39.199  41.574   7.353
 8389POPC   C1B44155  39.386  41.380   6.453
 8389POPC   C2B44156  39.411  41.387   6.753
 8389POPC   C3B44157  39.412  41.377   7.053
 8389POPC   C4B44158  39.368  41.306   7.353
 8390POPC   NC344159  13.625  34.563   5.553
 8390POPC   PO444160  13.588  34.625   5.853
 8390POPC   GL144161  13.586  34.528   6.153
 8390POPC   GL244162  13.580  34.483   6.153
 8390POPC   C1A44163  13.658  34.568   6.453
 8390POPC   D2A44164  13.640  34.585   6.753
 8390POPC   C3A44165  13.676  34.569   7.053
 8390POPC   C4A44166  13.664  34.573   7.353
 8390POPC   C1B44167  13.477  34.395   6.453
 8390POPC   C2B44168  13.500  34.322   6.753
 8390POPC   C3B44169  13.450  34.380   7.053
 8390POPC   C4B44170  13.460  34.414   7.353
 8391POPC   NC344171  39.189  26.055   5.553
 8391POPC   PO444172  39.239  26.015   5.853
 8391POPC   GL144173  39.213  26.084   6.153
 8391POPC   GL244174  39.302  26.103   6.153
 8391POPC   C1A44175  39.250  26.003   6.453
 8391POPC   D2A44176  39.214  26.080   6.753
 8391POPC   C3A44177  39.196  25.996   7.053
 8391POPC   C4A44178  39.246  26.035   7.353
 8391POPC   C1B44179  39.419  26.284   6.453
 8391POPC   C2B44180  39.412  26.269   6.753
 8391POPC   C3B44181  39.404  26.205   7.053
 8391POPC   C4B44182  39.418  26.193   7.353
 8392POPC   NC344183  32.207  36.113   5.553
 8392POPC   PO444184  32.251  36.129   5.853
 8392POPC   GL144185  32.241  36.102   6.153
 8392POPC   GL244186  32.200  36.291   6.153
 8392POPC   C1A44187  32.279  36.124   6.453
 8392POPC   D2A44188  32.280  36.106   6.753
 8392POPC   C3A44189  32.273  36.111   7.053
 8392POPC   C4A44190  32.218  36.137   7.353
 8392POPC   C1B44191  32.106  36.392   6.453
 8392POPC   C2B44192  32.116  36.321   6.753
 8392POPC   C3B44193  32.191  36.309   7.053
 8392POPC   C4B44194  32.193  36.394   7.353
 8393POPC   NC344195  21.411  14.394   5.553
 8393POPC   PO444196  21.387  14.373   5.853
 8393POPC   GL144197  21.399  14.421   6.153
 8393POPC   GL244198  21.459  14.347   6.153
 8393POPC   C1A44199  21.340  14.382   6.453
 8393POPC   D2A44200  21.428  14.440   6.753
 8393POPC   C3A44201  21.353  14.360   7.053
 8393POPC   C4A44202  21.381  14.365   7.353
 8393POPC   C1B44203  21.555  14.194   6.453
 8393POPC   C2B44204  21.551  14.263   6.753
 8393POPC   C3B44205  21.598  14.268   7.053
 8393POPC   C4B44206  21.610  14.224   7.353
 8394POPC   NC344207  19.023  30.707   5.553
 8394POPC   PO444208  19.011  30.683   5.853
 8394POPC   GL144209  19.107  30.727   6.153
 8394POPC   GL244210  19.136  30.775   6.153
 8394POPC   C1A44211  19.039  30.695   6.453
 8394POPC   D2A44212  19.037  30.714   6.753
 8394POPC   C3A44213  19.022  30.676   7.053
 8394POPC   C4A44214  19.058  30.714   7.353
 8394POPC   C1B44215  19.216  30.842   6.453
 8394POPC   C2B44216  19.205  30.897   6.753
 8394POPC   C3B44217  19.259  30.860   7.053
 8394POPC   C4B44218  19.265  30.900   7.353
 8395POPC   NC344219   9.735  39.278   5.553
 8395POPC   PO444220   9.706  39.187   5.853
 8395POPC   GL144221   9.746  39.194   6.153
 8395POPC   GL244222   9.770  39.170   6.153
 8395POPC   C1A44223   9.727  39.191   6.453
 8395POPC   D2A44224   9.767  39.260   6.753
 8395POPC   C3A44225   9.728  39.261   7.053
 8395POPC   C4A44226   9.737  39.273   7.353
 8395POPC   C1B44227   9.924  39.064   6.453
 8395POPC   C2B44228   9.899  39.053   6.753
 8395POPC   C3B44229   9.890  39.052   7.053
 8395POPC   C4B44230   9.914  38.979   7.353
 8396POPC   NC344231  33.038  22.179   5.553
 8396POPC   PO444232  32.994  22.185   5.853
 8396POPC   GL144233  33.034  22.138   6.153
 8396POPC   GL244234  33.068  22.228   6.153
 8396POPC   C1A44235  33.055  22.144   6.453
 8396POPC   D2A44236  33.063  22.209   6.753
 8396POPC   C3A44237  33.040  22.113   7.053
 8396POPC   C4A44238  32.994  22.145   7.353
 8396POPC   C1B44239  33.162  22.320   6.453
 8396POPC   C2B44240  33.224  22.380   6.753
 8396POPC   C3B44241  33.196  22.385   7.053
 8396POPC   C4B44242  33.202  22.312   7.353
 8397POPC   NC344243  39.964  34.598   5.553
 8397POPC   PO444244  40.012  34.592   5.853
 8397POPC   GL144245  40.032  34.576   6.153
 8397POPC   GL244246  39.982  34.452   6.153
 8397POPC   C1A44247  39.957  34.575   6.453
 8397POPC   D2A44248  40.050  34.596   6.753
 8397POPC   C3A44249  39.970  34.623   7.053
 8397POPC   C4A44250  39.992  34.589   7.353
 8397POPC   C1B44251  39.940  34.324   6.453
 8397POPC   C2B44252  39.959  34.349   6.753
 8397POPC   C3B44253  39.921  34.377   7.053
 8397POPC   C4B44254  39.969  34.317   7.353
 8398POPC   NC344255  10.526  24.529   5.553
 8398POPC   PO444256  10.525  24.478   5.853
 8398POPC   GL144257  10.527  24.540   6.153
 8398POPC   GL244258  10.436  24.533   6.153
 8398POPC   C1A44259  10.528  24.450   6.453
 8398POPC   D2A44260  10.533  24.470   6.753
 8398POPC   C3A44261  10.510  24.538   7.053
 8398POPC   C4A44262  10.562  24.535   7.353
 8398POPC   C1B44263  10.350  24.650   6.453
 8398POPC   C2B44264  10.306  24.602   6.753
 8398POPC   C3B44265  10.317  24.640   7.053
 8398POPC   C4B44266  10.366  24.654   7.353
 8399POPC   NC344267  32.292  15.197   5.553
 8399POPC   PO444268  32.283  15.223   5.853
 8399POPC   GL144269  32.279  15.189   6.153
 8399POPC   GL244270  32.310  15.025   6.153
 8399POPC   C1A44271  32.281  15.219   6.453
 8399POPC   D2A44272  32.286  15.169   6.753
 8399POPC   C3A44273  32.202  15.134   7.053
 8399POPC   C4A44274  32.264  15.180   7.353
 8399POPC   C1B44275  32.394  14.994   6.453
 8399POPC   C2B44276  32.419  14.924   6.753
 8399POPC   C3B44277  32.344  14.973   7.053
 8399POPC   C4B44278  32.428  14.992   7.353
 8400POPC   NC344279  10.529  15.951   5.553
 8400POPC   PO444280  10.560  15.921   5.853
 8400POPC   GL144281  10.563  15.960   6.153
 8400POPC   GL244282  10.447  15.834   6.153
 8400POPC   C1A44283  10.518  15.955   6.453
 8400POPC   D2A44284  10.530  15.949   6.753
 8400POPC   C3A44285  10.500  15.919   7.053
 8400POPC   C4A44286  10.504  15.996   7.353
 8400POPC   C1B44287  10.488  15.734   6.453
 8400POPC   C2B44288  10.463  15.694   6.753
 8400POPC   C3B44289  10.490  15.708   7.053
 8400POPC   C4B44290  10.480  15.718   7.353
 8401POPC   NC344291  42.289  44.663   5.553
 8401POPC   PO444292  42.326  44.647   5.853
 8401POPC   GL144293  42.310  44.651   6.153
 8401POPC   GL244294  42.244  44.716   6.153
 8401POPC   C1A44295  42.363  44.699   6.453
 8401POPC   D2A44296  42.319  44.636   6.753
 8401POPC   C3A44297  42.314  44.616   7.053
 8401POPC   C4A44298  42.337  44.655   7.353
 8401POPC   C1B44299  42.186  44.855   6.453
 8401POPC   C2B44300  42.093  44.802   6.753
 8401POPC   C3B44301  42.123  44.812   7.053
 8401POPC   C4B44302  42.153  44.838   7.353
 8402POPC   NC344303  11.349  37.690   5.553
 8402POPC   PO444304  11.347  37.710   5.853
 8402POPC   GL144305  11.260  37.634   6.153
 8402POPC   GL244306  11.363  37.645   6.153
 8402POPC   C1A44307  11.272  37.659   6.453
 8402POPC   D2A44308  11.329  37.721   6.753
 8402POPC   C3A44309  11.272  37.728   7.053
 8402POPC   C4A44310  11.274  37.665   7.353
 8402POPC   C1B44311  11.544  37.577   6.453
 8402POPC   C2B44312  11.553  37.559   6.753
 8402POPC   C3B44313  11.467  37.498   7.053
 8402POPC   C4B44314  11.486  37.541   7.353
 8403POPC   NC344315  40.002  13.633   5.553
 8403POPC   PO444316  40.042  13.632   5.853
 8403POPC   GL144317  40.012  13.663   6.153
 8403POPC   GL244318  39.895  13.743   6.153
 8403POPC   C1A44319  40.021  13.581   6.453
 8403POPC   D2A44320  40.052  13.605   6.753
 8403POPC   C3A44321  40.007  13.578   7.053
 8403POPC   C4A44322  40.053  13.658   7.353
 8403POPC   C1B44323  39.754  13.795   6.453
 8403POPC   C2B44324  39.786  13.739   6.753
 8403POPC   C3B44325  39.762  13.777   7.053
 8403POPC   C4B44326  39.836  13.764   7.353
 8404POPC   NC344327   8.950  18.330   5.553
 8404POPC   PO444328   8.940  18.240   5.853
 8404POPC   GL144329   8.973  18.292   6.153
 8404POPC   GL244330   8.912  18.386   6.153
 8404POPC   C1A44331   9.007  18.331   6.453
 8404POPC   D2A44332   9.005  18.234   6.753
 8404POPC   C3A44333   8.977  18.307   7.053
 8404POPC   C4A44334   9.002  18.235   7.353
 8404POPC   C1B44335   8.802  18.486   6.453
 8404POPC   C2B44336   8.815  18.475   6.753
 8404POPC   C3B44337   8.790  18.480   7.053
 8404POPC   C4B44338   8.787  18.460   7.353
 8405POPC   NC344339  20.635   5.071   5.553
 8405POPC   PO444340  20.644   5.083   5.853
 8405POPC   GL144341  20.597   5.061   6.153
 8405POPC   GL244342  20.503   5.031   6.153
 8405POPC   C1A44343  20.616   5.136   6.453
 8405POPC   D2A44344  20.609   5.068   6.753
 8405POPC   C3A44345  20.567   5.062   7.053
 8405POPC   C4A44346  20.580   5.108   7.353
 8405POPC   C1B44347  20.442   4.968   6.453
 8405POPC   C2B44348  20.395   4.957   6.753
 8405POPC   C3B44349  20.402   4.926   7.053
 8405POPC   C4B44350  20.430   4.876   7.353
 8406POPC   NC344351  20.612  11.318   5.553
 8406POPC   PO444352  20.568  11.272   5.853
 8406POPC   GL144353  20.638  11.275   6.153
 8406POPC   GL244354  20.544  11.427   6.153
 8406POPC   C1A44355  20.577  11.252   6.453
 8406POPC   D2A44356  20.598  11.278   6.753
 8406POPC   C3A44357  20.581  11.267   7.053
 8406POPC   C4A44358  20.592  11.319   7.353
 8406POPC   C1B44359  20.474  11.563   6.453
 8406POPC   C2B44360  20.432  11.505   6.753
 8406POPC   C3B44361  20.433  11.531   7.053
 8406POPC   C4B44362  20.496  11.525   7.353
 8407POPC   NC344363  25.293  38.471   5.553
 8407POPC   PO444364  25.216  38.456   5.853
 8407POPC   GL144365  25.233  38.419   6.153
 8407POPC   GL244366  25.301  38.592   6.153
 8407POPC   C1A44367  25.260  38.412   6.453
 8407POPC   D2A44368  25.279  38.498   6.753
 8407POPC   C3A44369  25.291  38.492   7.053
 8407POPC   C4A44370  25.285  38.467   7.353
 8407POPC   C1B44371  25.409  38.653   6.453
 8407POPC   C2B44372  25.428  38.686   6.753
 8407POPC   C3B44373  25.433  38.705   7.053
 8407POPC   C4B44374  25.399  38.679   7.353
 8408POPC   NC344375   6.666  29.883   5.553
 8408POPC   PO444376   6.632  29.879   5.853
 8408POPC   GL144377   6.691  29.968   6.153
 8408POPC   GL244378   6.809  29.844   6.153
 8408POPC   C1A44379   6.641  29.873   6.453
 8408POPC   D2A44380   6.596  29.882   6.753
 8408POPC   C3A44381   6.689  29.883   7.053
 8408POPC   C4A44382   6.641  29.942   7.353
 8408POPC   C1B44383   6.871  29.797   6.453
 8408POPC   C2B44384   6.854  29.848   6.753
 8408POPC   C3B44385   6.832  29.870   7.053
 8408POPC   C4B44386   6.918  29.818   7.353
 8409POPC   NC344387  16.743  10.569   5.553
 8409POPC   PO444388  16.734  10.494   5.853
 8409POPC   GL144389  16.764  10.496   6.153
 8409POPC   GL244390  16.689  10.406   6.153
 8409POPC   C1A44391  16.774  10.480   6.453
 8409POPC   D2A44392  16.699  10.504   6.753
 8409POPC   C3A44393  16.747  10.502   7.053
 8409POPC   C4A44394  16.692  10.532   7.353
 8409POPC   C1B44395  16.561  10.360   6.453
 8409POPC   C2B44396  16.570  10.342   6.753
 8409POPC   C3B44397  16.549  10.274   7.053
 8409POPC   C4B44398  16.547  10.349   7.353
 8410POPC   NC344399  31.432  30.669   5.553
 8410POPC   PO444400  31.488  30.727   5.853
 8410POPC   GL144401  31.469  30.683   6.153
 8410POPC   GL244402  31.416  30.806   6.153
 8410POPC   C1A44403  31.497  30.744   6.453
 8410POPC   D2A44404  31.487  30.684   6.753
 8410POPC   C3A44405  31.481  30.714   7.053
 8410POPC   C4A44406  31.448  30.649   7.353
 8410POPC   C1B44407  31.382  30.976   6.453
 8410POPC   C2B44408  31.416  30.932   6.753
 8410POPC   C3B44409  31.342  30.897   7.053
 8410POPC   C4B44410  31.425  30.930   7.353
 8411POPC   NC344411   5.102   8.944   5.553
 8411POPC   PO444412   5.058   8.975   5.853
 8411POPC   GL144413   5.084   8.995   6.153
 8411POPC   GL244414   5.011   8.994   6.153
 8411POPC   C1A44415   5.064   8.928   6.453
 8411POPC   D2A44416   5.135   8.941   6.753
 8411POPC   C3A44417   5.060   8.945   7.053
 8411POPC   C4A44418   5.067   8.971   7.353
 8411POPC   C1B44419   4.889   9.080   6.453
 8411POPC   C2B44420   4.808   9.023   6.753
 8411POPC   C3B44421   4.823   9.039   7.053
 8411POPC   C4B44422   4.878   9.040   7.353
 8412POPC   NC344423  40.767  28.350   5.553
 8412POPC   PO444424  40.774  28.346   5.853
 8412POPC   GL144425  40.804  28.336   6.153
 8412POPC   GL244426  40.816  28.199   6.153
 8412POPC   C1A44427  40.805  28.375   6.453
 8412POPC   D2A44428  40.754  28.407   6.753
 8412POPC   C3A44429  40.753  28.346   7.053
 8412POPC   C4A44430  40.773  28.403   7.353
 8412POPC   C1B44431  40.850  28.108   6.453
 8412POPC   C2B44432  40.855  28.104   6.753
 8412POPC   C3B44433  40.823  28.113   7.053
 8412POPC   C4B44434  40.759  28.114   7.353
 8413POPC   NC344435  28.343   2.795   5.553
 8413POPC   PO444436  28.397   2.779   5.853
 8413POPC   GL144437  28.409   2.752   6.153
 8413POPC   GL244438  28.252   2.689   6.153
 8413POPC   C1A44439  28.333   2.812   6.453
 8413POPC   D2A44440  28.386   2.799   6.753
 8413POPC   C3A44441  28.349   2.763   7.053
 8413POPC   C4A44442  28.336   2.736   7.353
 8413POPC   C1B44443  28.109   2.697   6.453
 8413POPC   C2B44444  28.179   2.649   6.753
 8413POPC   C3B44445  28.121   2.695   7.053
 8413POPC   C4B44446  28.135   2.676   7.353
 8414POPC   NC344447  25.312  34.537   5.553
 8414POPC   PO444448  25.245  34.559   5.853
 8414POPC   GL144449  25.265  34.593   6.153
 8414POPC   GL244450  25.227  34.660   6.153
 8414POPC   C1A44451  25.310  34.566   6.453
 8414POPC   D2A44452  25.265  34.553   6.753
 8414POPC   C3A44453  25.257  34.532   7.053
 8414POPC   C4A44454  25.218  34.537   7.353
 8414POPC   C1B44455  25.272  34.819   6.453
 8414POPC   C2B44456  25.250  34.845   6.753
 8414POPC   C3B44457  25.306  34.830   7.053
 8414POPC   C4B44458  25.305  34.871   7.353
 8415POPC   NC344459  17.496  34.527   5.553
 8415POPC   PO444460  17.520  34.527   5.853
 8415POPC   GL144461  17.478  34.580   6.153
 8415POPC   GL244462  17.360  34.596   6.153
 8415POPC   C1A44463  17.500  34.567   6.453
 8415POPC   D2A44464  17.535  34.591   6.753
 8415POPC   C3A44465  17.524  34.560   7.053
 8415POPC   C4A44466  17.556  34.569   7.353
 8415POPC   C1B44467  17.333  34.703   6.453
 8415POPC   C2B44468  17.336  34.722   6.753
 8415POPC   C3B44469  17.259  34.737   7.053
 8415POPC   C4B44470  17.334  34.745   7.353
 8416POPC   NC344471  24.452  33.005   5.553
 8416POPC   PO444472  24.509  33.007   5.853
 8416POPC   GL144473  24.478  32.985   6.153
 8416POPC   GL244474  24.455  32.900   6.153
 8416POPC   C1A44475  24.486  33.053   6.453
 8416POPC   D2A44476  24.471  33.050   6.753
 8416POPC   C3A44477  24.516  32.999   7.053
 8416POPC   C4A44478  24.527  33.015   7.353
 8416POPC   C1B44479  24.490  32.813   6.453
 8416POPC   C2B44480  24.560  32.747   6.753
 8416POPC   C3B44481  24.533  32.750   7.053
 8416POPC   C4B44482  24.549  32.815   7.353
 8417POPC   NC344483   3.521  34.547   5.553
 8417POPC   PO444484   3.538  34.618   5.853
 8417POPC   GL144485   3.556  34.616   6.153
 8417POPC   GL244486   3.410  34.606   6.153
 8417POPC   C1A44487   3.544  34.594   6.453
 8417POPC   D2A44488   3.538  34.599   6.753
 8417POPC   C3A44489   3.537  34.622   7.053
 8417POPC   C4A44490   3.516  34.612   7.353
 8417POPC   C1B44491   3.323  34.612   6.453
 8417POPC   C2B44492   3.338  34.590   6.753
 8417POPC   C3B44493   3.316  34.613   7.053
 8417POPC   C4B44494   3.255  34.559   7.353
 8418POPC   NC344495  10.560  12.875   5.553
 8418POPC   PO444496  10.527  12.874   5.853
 8418POPC   GL144497  10.508  12.863   6.153
 8418POPC   GL244498  10.501  12.986   6.153
 8418POPC   C1A44499  10.569  12.817   6.453
 8418POPC   D2A44500  10.515  12.887   6.753
 8418POPC   C3A44501  10.522  12.892   7.053
 8418POPC   C4A44502  10.534  12.850   7.353
 8418POPC   C1B44503  10.531  13.118   6.453
 8418POPC   C2B44504  10.518  13.080   6.753
 8418POPC   C3B44505  10.523  13.136   7.053
 8418POPC   C4B44506  10.491  13.149   7.353
 8419POPC   NC344507  21.374   2.026   5.553
 8419POPC   PO444508  21.371   2.022   5.853
 8419POPC   GL144509  21.353   1.974   6.153
 8419POPC   GL244510  21.315   1.858   6.153
 8419POPC   C1A44511  21.366   1.990   6.453
 8419POPC   D2A44512  21.348   1.945   6.753
 8419POPC   C3A44513  21.351   1.974   7.053
 8419POPC   C4A44514  21.415   1.951   7.353
 8419POPC   C1B44515  21.290   1.782   6.453
 8419POPC   C2B44516  21.250   1.729   6.753
 8419POPC   C3B44517  21.296   1.808   7.053
 8419POPC   C4B44518  21.256   1.809   7.353
 8420POPC   NC344519  18.278  26.847   5.553
 8420POPC   PO444520  18.331  26.767   5.853
 8420POPC   GL144521  18.319  26.838   6.153
 8420POPC   GL244522  18.302  26.957   6.153
 8420POPC   C1A44523  18.301  26.831   6.453
 8420POPC   D2A44524  18.266  26.807   6.753
 8420POPC   C3A44525  18.282  26.816   7.053
 8420POPC   C4A44526  18.247  26.798   7.353
 8420POPC   C1B44527  18.330  27.110   6.453
 8420POPC   C2B44528  18.277  27.046   6.753
 8420POPC   C3B44529  18.261  27.099   7.053
 8420POPC   C4B44530  18.283  27.041   7.353
 8421POPC   NC344531   6.634  15.920   5.553
 8421POPC   PO444532   6.635  15.918   5.853
 8421POPC   GL144533   6.678  15.917   6.153
 8421POPC   GL244534   6.520  15.845   6.153
 8421POPC   C1A44535   6.660  15.927   6.453
 8421POPC   D2A44536   6.634  15.925   6.753
 8421POPC   C3A44537   6.666  15.912   7.053
 8421POPC   C4A44538   6.651  15.952   7.353
 8421POPC   C1B44539   6.420  15.855   6.453
 8421POPC   C2B44540   6.412  15.806   6.753
 8421POPC   C3B44541   6.440  15.864   7.053
 8421POPC   C4B44542   6.465  15.813   7.353
 8422POPC   NC344543  26.011  29.908   5.553
 8422POPC   PO444544  26.027  29.878   5.853
 8422POPC   GL144545  26.034  29.920   6.153
 8422POPC   GL244546  25.976  29.969   6.153
 8422POPC   C1A44547  26.056  29.966   6.453
 8422POPC   D2A44548  26.022  29.910   6.753
 8422POPC   C3A44549  26.070  29.875   7.053
 8422POPC   C4A44550  26.069  29.896   7.353
 8422POPC   C1B44551  25.847  30.007   6.453
 8422POPC   C2B44552  25.827  30.013   6.753
 8422POPC   C3B44553  25.818  30.068   7.053
 8422POPC   C4B44554  25.777  30.032   7.353
 8423POPC   NC344555  14.415  32.269   5.553
 8423POPC   PO444556  14.414  32.233   5.853
 8423POPC   GL144557  14.356  32.289   6.153
 8423POPC   GL244558  14.491  32.248   6.153
 8423POPC   C1A44559  14.411  32.231   6.453
 8423POPC   D2A44560  14.394  32.288   6.753
 8423POPC   C3A44561  14.417  32.266   7.053
 8423POPC   C4A44562  14.452  32.217   7.353
 8423POPC   C1B44563  14.691  32.355   6.453
 8423POPC   C2B44564  14.660  32.294   6.753
 8423POPC   C3B44565  14.670  32.353   7.053
 8423POPC   C4B44566  14.595  32.333   7.353
 8424POPC   NC344567  29.908  37.699   5.553
 8424POPC   PO444568  29.954  37.714   5.853
 8424POPC   GL144569  29.919  37.635   6.153
 8424POPC   GL244570  30.013  37.545   6.153
 8424POPC   C1A44571  29.891  37.668   6.453
 8424POPC   D2A44572  29.946  37.701   6.753
 8424POPC   C3A44573  29.932  37.657   7.053
 8424POPC   C4A44574  29.880  37.685   7.353
 8424POPC   C1B44575  30.067  37.460   6.453
 8424POPC   C2B44576  30.140  37.474   6.753
 8424POPC   C3B44577  30.059  37.523   7.053
 8424POPC   C4B44578  30.144  37.488   7.353
 8425POPC   NC344579  43.875  22.889   5.553
 8425POPC   PO444580  43.895  22.914   5.853
 8425POPC   GL144581  43.838  22.900   6.153
 8425POPC   GL244582  43.981  22.836   6.153
 8425POPC   C1A44583  43.932  22.892   6.453
 8425POPC   D2A44584  43.860  22.976   6.753
 8425POPC   C3A44585  43.919  22.963   7.053
 8425POPC   C4A44586  43.896  22.913   7.353
 8425POPC   C1B44587  43.994  22.702   6.453
 8425POPC   C2B44588  43.989  22.735   6.753
 8425POPC   C3B44589  44.046  22.697   7.053
 8425POPC   C4B44590  44.025  22.684   7.353
 8426POPC   NC344591  38.426  39.245   5.553
 8426POPC   PO444592  38.426  39.246   5.853
 8426POPC   GL144593  38.410  39.270   6.153
 8426POPC   GL244594  38.554  39.175   6.153
 8426POPC   C1A44595  38.491  39.263   6.453
 8426POPC   D2A44596  38.420  39.263   6.753
 8426POPC   C3A44597  38.440  39.227   7.053
 8426POPC   C4A44598  38.466  39.241   7.353
 8426POPC   C1B44599  38.737  39.175   6.453
 8426POPC   C2B44600  38.744  39.194   6.753
 8426POPC   C3B44601  38.739  39.160   7.053
 8426POPC   C4B44602  38.708  39.208   7.353
 8427POPC   NC344603   0.484  12.892   5.553
 8427POPC   PO444604   0.470  12.805   5.853
 8427POPC   GL144605   0.401  12.824   6.153
 8427POPC   GL244606   0.437  12.777   6.153
 8427POPC   C1A44607   0.456  12.873   6.453
 8427POPC   D2A44608   0.442  12.868   6.753
 8427POPC   C3A44609   0.481  12.893   7.053
 8427POPC   C4A44610   0.483  12.831   7.353
 8427POPC   C1B44611   0.309  12.616   6.453
 8427POPC   C2B44612   0.386  12.580   6.753
 8427POPC   C3B44613   0.377  12.645   7.053
 8427POPC   C4B44614   0.372  12.611   7.353
 8428POPC   NC344615  22.893  37.677   5.553
 8428POPC   PO444616  22.889  37.721   5.853
 8428POPC   GL144617  22.983  37.718   6.153
 8428POPC   GL244618  22.987  37.534   6.153
 8428POPC   C1A44619  22.912  37.708   6.453
 8428POPC   D2A44620  22.921  37.645   6.753
 8428POPC   C3A44621  22.950  37.642   7.053
 8428POPC   C4A44622  22.972  37.665   7.353
 8428POPC   C1B44623  23.108  37.454   6.453
 8428POPC   C2B44624  23.092  37.514   6.753
 8428POPC   C3B44625  23.060  37.439   7.053
 8428POPC   C4B44626  23.086  37.490   7.353
 8429POPC   NC344627   5.867  18.302   5.553
 8429POPC   PO444628   5.870  18.286   5.853
 8429POPC   GL144629   5.874  18.254   6.153
 8429POPC   GL244630   5.976  18.375   6.153
 8429POPC   C1A44631   5.851  18.287   6.453
 8429POPC   D2A44632   5.914  18.282   6.753
 8429POPC   C3A44633   5.850  18.292   7.053
 8429POPC   C4A44634   5.893  18.324   7.353
 8429POPC   C1B44635   6.111  18.373   6.453
 8429POPC   C2B44636   6.097  18.460   6.753
 8429POPC   C3B44637   6.049  18.450   7.053
 8429POPC   C4B44638   6.117  18.417   7.353
 8430POPC   NC344639  38.410  24.469   5.553
 8430POPC   PO444640  38.466  24.529   5.853
 8430POPC   GL144641  38.464  24.449   6.153
 8430POPC   GL244642  38.532  24.509   6.153
 8430POPC   C1A44643  38.499  24.462   6.453
 8430POPC   D2A44644  38.408  24.537   6.753
 8430POPC   C3A44645  38.475  24.443   7.053
 8430POPC   C4A44646  38.438  24.444   7.353
 8430POPC   C1B44647  38.675  24.559   6.453
 8430POPC   C2B44648  38.714  24.485   6.753
 8430POPC   C3B44649  38.718  24.497   7.053
 8430POPC   C4B44650  38.739  24.498   7.353
 8431POPC   NC344651  32.247  32.982   5.553
 8431POPC   PO444652  32.285  33.002   5.853
 8431POPC   GL144653  32.212  33.031   6.153
 8431POPC   GL244654  32.225  32.854   6.153
 8431POPC   C1A44655  32.243  32.985   6.453
 8431POPC   D2A44656  32.216  33.069   6.753
 8431POPC   C3A44657  32.213  32.984   7.053
 8431POPC   C4A44658  32.295  32.999   7.353
 8431POPC   C1B44659  32.261  32.794   6.453
 8431POPC   C2B44660  32.190  32.728   6.753
 8431POPC   C3B44661  32.236  32.804   7.053
 8431POPC   C4B44662  32.270  32.772   7.353
 8432POPC   NC344663  35.358  11.342   5.553
 8432POPC   PO444664  35.330  11.349   5.853
 8432POPC   GL144665  35.319  11.284   6.153
 8432POPC   GL244666  35.271  11.281   6.153
 8432POPC   C1A44667  35.349  11.325   6.453
 8432POPC   D2A44668  35.391  11.329   6.753
 8432POPC   C3A44669  35.378  11.333   7.053
 8432POPC   C4A44670  35.348  11.323   7.353
 8432POPC   C1B44671  35.135  11.197   6.453
 8432POPC   C2B44672  35.059  11.216   6.753
 8432POPC   C3B44673  35.131  11.281   7.053
 8432POPC   C4B44674  35.126  11.222   7.353
 8433POPC   NC344675  22.926  13.606   5.553
 8433POPC   PO444676  22.914  13.627   5.853
 8433POPC   GL144677  22.980  13.614   6.153
 8433POPC   GL244678  22.945  13.479   6.153
 8433POPC   C1A44679  22.900  13.673   6.453
 8433POPC   D2A44680  22.909  13.628   6.753
 8433POPC   C3A44681  22.965  13.579   7.053
 8433POPC   C4A44682  22.949  13.620   7.353
 8433POPC   C1B44683  22.953  13.396   6.453
 8433POPC   C2B44684  22.956  13.431   6.753
 8433POPC   C3B44685  22.973  13.365   7.053
 8433POPC   C4B44686  22.957  13.394   7.353
 8434POPC   NC344687  24.461  37.652   5.553
 8434POPC   PO444688  24.526  37.670   5.853
 8434POPC   GL144689  24.443  37.638   6.153
 8434POPC   GL244690  24.393  37.740   6.153
 8434POPC   C1A44691  24.499  37.654   6.453
 8434POPC   D2A44692  24.475  37.728   6.753
 8434POPC   C3A44693  24.503  37.696   7.053
 8434POPC   C4A44694  24.490  37.636   7.353
 8434POPC   C1B44695  24.213  37.661   6.453
 8434POPC   C2B44696  24.222  37.685   6.753
 8434POPC   C3B44697  24.195  37.749   7.053
 8434POPC   C4B44698  24.285  37.689   7.353
 8435POPC   NC344699  40.015  12.901   5.553
 8435POPC   PO444700  40.013  12.830   5.853
 8435POPC   GL144701  40.035  12.813   6.153
 8435POPC   GL244702  40.110  12.773   6.153
 8435POPC   C1A44703  40.020  12.854   6.453
 8435POPC   D2A44704  40.051  12.826   6.753
 8435POPC   C3A44705  39.961  12.867   7.053
 8435POPC   C4A44706  39.963  12.815   7.353
 8435POPC   C1B44707  40.223  12.728   6.453
 8435POPC   C2B44708  40.238  12.729   6.753
 8435POPC   C3B44709  40.213  12.735   7.053
 8435POPC   C4B44710  40.272  12.782   7.353
 8436POPC   NC344711  14.368  24.472   5.553
 8436POPC   PO444712  14.434  24.463   5.853
 8436POPC   GL144713  14.439  24.493   6.153
 8436POPC   GL244714  14.323  24.514   6.153
 8436POPC   C1A44715  14.367  24.475   6.453
 8436POPC   D2A44716  14.435  24.475   6.753
 8436POPC   C3A44717  14.384  24.534   7.053
 8436POPC   C4A44718  14.394  24.479   7.353
 8436POPC   C1B44719  14.135  24.520   6.453
 8436POPC   C2B44720  14.138  24.469   6.753
 8436POPC   C3B44721  14.132  24.432   7.053
 8436POPC   C4B44722  14.136  24.501   7.353
 8437POPC   NC344723  26.833  29.876   5.553
 8437POPC   PO444724  26.838  29.876   5.853
 8437POPC   GL144725  26.784  29.965   6.153
 8437POPC   GL244726  26.946  29.859   6.153
 8437POPC   C1A44727  26.804  29.907   6.453
 8437POPC   D2A44728  26.816  29.910   6.753
 8437POPC   C3A44729  26.839  29.933   7.053
 8437POPC   C4A44730  26.770  29.884   7.353
 8437POPC   C1B44731  26.992  29.696   6.453
 8437POPC   C2B44732  27.036  29.758   6.753
 8437POPC   C3B44733  26.979  29.697   7.053
 8437POPC   C4B44734  26.957  29.717   7.353
 8438POPC   NC344735   7.458  42.373   5.553
 8438POPC   PO444736   7.447  42.362   5.853
 8438POPC   GL144737   7.429  42.317   6.153
 8438POPC   GL244738   7.446  42.493   6.153
 8438POPC   C1A44739   7.406  42.303   6.453
 8438POPC   D2A44740   7.396  42.309   6.753
 8438POPC   C3A44741   7.405  42.312   7.053
 8438POPC   C4A44742   7.372  42.372   7.353
 8438POPC   C1B44743   7.409  42.623   6.453
 8438POPC   C2B44744   7.465  42.613   6.753
 8438POPC   C3B44745   7.471  42.615   7.053
 8438POPC   C4B44746   7.393  42.596   7.353
 8439POPC   NC344747  38.454   2.737   5.553
 8439POPC   PO444748  38.433   2.780   5.853
 8439POPC   GL144749  38.439   2.719   6.153
 8439POPC   GL244750  38.547   2.671   6.153
 8439POPC   C1A44751  38.441   2.784   6.453
 8439POPC   D2A44752  38.420   2.775   6.753
 8439POPC   C3A44753  38.449   2.720   7.053
 8439POPC   C4A44754  38.444   2.747   7.353
 8439POPC   C1B44755  38.531   2.582   6.453
 8439POPC   C2B44756  38.607   2.545   6.753
 8439POPC   C3B44757  38.577   2.541   7.053
 8439POPC   C4B44758  38.611   2.580   7.353
 8440POPC   NC344759  20.612  19.821   5.553
 8440POPC   PO444760  20.655  19.861   5.853
 8440POPC   GL144761  20.578  19.853   6.153
 8440POPC   GL244762  20.598  19.734   6.153
 8440POPC   C1A44763  20.644  19.815   6.453
 8440POPC   D2A44764  20.618  19.833   6.753
 8440POPC   C3A44765  20.641  19.794   7.053
 8440POPC   C4A44766  20.580  19.832   7.353
 8440POPC   C1B44767  20.677  19.561   6.453
 8440POPC   C2B44768  20.629  19.614   6.753
 8440POPC   C3B44769  20.615  19.555   7.053
 8440POPC   C4B44770  20.640  19.615   7.353
 8441POPC   NC344771  25.308  30.719   5.553
 8441POPC   PO444772  25.275  30.679   5.853
 8441POPC   GL144773  25.237  30.660   6.153
 8441POPC   GL244774  25.319  30.616   6.153
 8441POPC   C1A44775  25.250  30.669   6.453
 8441POPC   D2A44776  25.278  30.679   6.753
 8441POPC   C3A44777  25.271  30.724   7.053
 8441POPC   C4A44778  25.260  30.664   7.353
 8441POPC   C1B44779  25.400  30.448   6.453
 8441POPC   C2B44780  25.402  30.459   6.753
 8441POPC   C3B44781  25.313  30.439   7.053
 8441POPC   C4B44782  25.338  30.448   7.353
 8442POPC   NC344783  20.626  31.471   5.553
 8442POPC   PO444784  20.611  31.492   5.853
 8442POPC   GL144785  20.624  31.451   6.153
 8442POPC   GL244786  20.626  31.604   6.153
 8442POPC   C1A44787  20.609  31.465   6.453
 8442POPC   D2A44788  20.568  31.479   6.753
 8442POPC   C3A44789  20.653  31.472   7.053
 8442POPC   C4A44790  20.571  31.441   7.353
 8442POPC   C1B44791  20.553  31.663   6.453
 8442POPC   C2B44792  20.571  31.736   6.753
 8442POPC   C3B44793  20.533  31.731   7.053
 8442POPC   C4B44794  20.561  31.727   7.353
 8443POPC   NC344795  36.103   8.932   5.553
 8443POPC   PO444796  36.170   8.944   5.853
 8443POPC   GL144797  36.093   8.973   6.153
 8443POPC   GL244798  35.988   9.100   6.153
 8443POPC   C1A44799  36.089   8.950   6.453
 8443POPC   D2A44800  36.166   8.965   6.753
 8443POPC   C3A44801  36.086   9.003   7.053
 8443POPC   C4A44802  36.094   9.020   7.353
 8443POPC   C1B44803  35.931   9.146   6.453
 8443POPC   C2B44804  35.982   9.103   6.753
 8443POPC   C3B44805  35.898   9.118   7.053
 8443POPC   C4B44806  35.941   9.157   7.353
 8444POPC   NC344807  27.552  14.398   5.553
 8444POPC   PO444808  27.577  14.358   5.853
 8444POPC   GL144809  27.627  14.434   6.153
 8444POPC   GL244810  27.520  14.500   6.153
 8444POPC   C1A44811  27.625  14.392   6.453
 8444POPC   D2A44812  27.570  14.362   6.753
 8444POPC   C3A44813  27.635  14.448   7.053
 8444POPC   C4A44814  27.614  14.364   7.353
 8444POPC   C1B44815  27.484  14.639   6.453
 8444POPC   C2B44816  27.541  14.607   6.753
 8444POPC   C3B44817  27.523  14.673   7.053
 8444POPC   C4B44818  27.534  14.615   7.353
 8445POPC   NC344819  18.275   7.386   5.553
 8445POPC   PO444820  18.275   7.436   5.853
 8445POPC   GL144821  18.238   7.421   6.153
 8445POPC   GL244822  18.407   7.465   6.153
 8445POPC   C1A44823  18.271   7.461   6.453
 8445POPC   D2A44824  18.292   7.372   6.753
 8445POPC   C3A44825  18.307   7.403   7.053
 8445POPC   C4A44826  18.312   7.379   7.353
 8445POPC   C1B44827  18.463   7.572   6.453
 8445POPC   C2B44828  18.474   7.546   6.753
 8445POPC   C3B44829  18.511   7.618   7.053
 8445POPC   C4B44830  18.524   7.621   7.353
 8446POPC   NC344831  24.461  16.728   5.553
 8446POPC   PO444832  24.455  16.710   5.853
 8446POPC   GL144833  24.454  16.705   6.153
 8446POPC   GL244834  24.384  16.705   6.153
 8446POPC   C1A44835  24.512  16.689   6.453
 8446POPC   D2A44836  24.531  16.739   6.753
 8446POPC   C3A44837  24.509  16.698   7.053
 8446POPC   C4A44838  24.513  16.765   7.353
 8446POPC   C1B44839  24.288  16.685   6.453
 8446POPC   C2B44840  24.264  16.673   6.753
 8446POPC   C3B44841  24.241  16.651   7.053
 8446POPC   C4B44842  24.251  16.705   7.353
 8447POPC   NC344843   1.963   6.603   5.553
 8447POPC   PO444844   1.965   6.603   5.853
 8447POPC   GL144845   1.946   6.617   6.153
 8447POPC   GL244846   2.155   6.653   6.153
 8447POPC   C1A44847   1.972   6.628   6.453
 8447POPC   D2A44848   1.967   6.647   6.753
 8447POPC   C3A44849   2.038   6.604   7.053
 8447POPC   C4A44850   2.001   6.672   7.353
 8447POPC   C1B44851   2.237   6.624   6.453
 8447POPC   C2B44852   2.217   6.673   6.753
 8447POPC   C3B44853   2.275   6.647   7.053
 8447POPC   C4B44854   2.210   6.648   7.353
 8448POPC   NC344855   8.978  11.302   5.553
 8448POPC   PO444856   9.021  11.279   5.853
 8448POPC   GL144857   8.985  11.329   6.153
 8448POPC   GL244858   8.883  11.358   6.153
 8448POPC   C1A44859   9.020  11.268   6.453
 8448POPC   D2A44860   8.980  11.250   6.753
 8448POPC   C3A44861   8.931  11.312   7.053
 8448POPC   C4A44862   8.952  11.298   7.353
 8448POPC   C1B44863   8.759  11.399   6.453
 8448POPC   C2B44864   8.757  11.435   6.753
 8448POPC   C3B44865   8.714  11.356   7.053
 8448POPC   C4B44866   8.776  11.349   7.353
 8449POPC   NC344867  28.320  29.126   5.553
 8449POPC   PO444868  28.337  29.129   5.853
 8449POPC   GL144869  28.403  29.164   6.153
 8449POPC   GL244870  28.498  29.158   6.153
 8449POPC   C1A44871  28.410  29.164   6.453
 8449POPC   D2A44872  28.367  29.108   6.753
 8449POPC   C3A44873  28.372  29.177   7.053
 8449POPC   C4A44874  28.416  29.155   7.353
 8449POPC   C1B44875  28.616  29.276   6.453
 8449POPC   C2B44876  28.630  29.223   6.753
 8449POPC   C3B44877  28.560  29.212   7.053
 8449POPC   C4B44878  28.550  29.290   7.353
 8450POPC   NC344879   9.719  22.908   5.553
 8450POPC   PO444880   9.766  22.977   5.853
 8450POPC   GL144881   9.775  22.922   6.153
 8450POPC   GL244882   9.810  23.027   6.153
 8450POPC   C1A44883   9.733  22.894   6.453
 8450POPC   D2A44884   9.709  22.918   6.753
 8450POPC   C3A44885   9.769  22.912   7.053
 8450POPC   C4A44886   9.701  22.949   7.353
 8450POPC   C1B44887   9.909  23.092   6.453
 8450POPC   C2B44888   9.946  23.133   6.753
 8450POPC   C3B44889   9.948  23.069   7.053
 8450POPC   C4B44890   9.911  23.112   7.353
 8451POPC   NC344891  21.336  34.557   5.553
 8451POPC   PO444892  21.337  34.613   5.853
 8451POPC   GL144893  21.430  34.583   6.153
 8451POPC   GL244894  21.459  34.702   6.153
 8451POPC   C1A44895  21.386  34.614   6.453
 8451POPC   D2A44896  21.427  34.608   6.753
 8451POPC   C3A44897  21.412  34.624   7.053
 8451POPC   C4A44898  21.370  34.532   7.353
 8451POPC   C1B44899  21.587  34.734   6.453
 8451POPC   C2B44900  21.573  34.725   6.753
 8451POPC   C3B44901  21.582  34.731   7.053
 8451POPC   C4B44902  21.564  34.741   7.353
 8452POPC   NC344903  21.368  33.841   5.553
 8452POPC   PO444904  21.422  33.771   5.853
 8452POPC   GL144905  21.412  33.787   6.153
 8452POPC   GL244906  21.415  33.729   6.153
 8452POPC   C1A44907  21.421  33.822   6.453
 8452POPC   D2A44908  21.387  33.849   6.753
 8452POPC   C3A44909  21.431  33.787   7.053
 8452POPC   C4A44910  21.402  33.805   7.353
 8452POPC   C1B44911  21.547  33.580   6.453
 8452POPC   C2B44912  21.513  33.590   6.753
 8452POPC   C3B44913  21.523  33.597   7.053
 8452POPC   C4B44914  21.490  33.529   7.353
 8453POPC   NC344915  33.796   8.244   5.553
 8453POPC   PO444916  33.815   8.176   5.853
 8453POPC   GL144917  33.803   8.175   6.153
 8453POPC   GL244918  33.902   8.271   6.153
 8453POPC   C1A44919  33.833   8.150   6.453
 8453POPC   D2A44920  33.804   8.210   6.753
 8453POPC   C3A44921  33.763   8.218   7.053
 8453POPC   C4A44922  33.773   8.192   7.353
 8453POPC   C1B44923  34.031   8.329   6.453
 8453POPC   C2B44924  33.971   8.385   6.753
 8453POPC   C3B44925  34.050   8.373   7.053
 8453POPC   C4B44926  33.969   8.332   7.353
 8454POPC   NC344927  21.362   5.108   5.553
 8454POPC   PO444928  21.396   5.106   5.853
 8454POPC   GL144929  21.362   5.053   6.153
 8454POPC   GL244930  21.502   5.011   6.153
 8454POPC   C1A44931  21.434   5.068   6.453
 8454POPC   D2A44932  21.365   5.142   6.753
 8454POPC   C3A44933  21.414   5.092   7.053
 8454POPC   C4A44934  21.375   5.129   7.353
 8454POPC   C1B44935  21.554   4.893   6.453
 8454POPC   C2B44936  21.555   4.897   6.753
 8454POPC   C3B44937  21.567   4.909   7.053
 8454POPC   C4B44938  21.591   4.909   7.353
 8455POPC   NC344939   8.203   8.166   5.553
 8455POPC   PO444940   8.149   8.195   5.853
 8455POPC   GL144941   8.174   8.217   6.153
 8455POPC   GL244942   8.039   8.240   6.153
 8455POPC   C1A44943   8.230   8.195   6.453
 8455POPC   D2A44944   8.208   8.205   6.753
 8455POPC   C3A44945   8.154   8.197   7.053
 8455POPC   C4A44946   8.219   8.224   7.353
 8455POPC   C1B44947   7.958   8.246   6.453
 8455POPC   C2B44948   7.938   8.223   6.753
 8455POPC   C3B44949   7.933   8.200   7.053
 8455POPC   C4B44950   7.949   8.221   7.353
 8456POPC   NC344951  36.129  36.907   5.553
 8456POPC   PO444952  36.147  36.930   5.853
 8456POPC   GL144953  36.168  36.861   6.153
 8456POPC   GL244954  36.065  37.027   6.153
 8456POPC   C1A44955  36.084  36.916   6.453
 8456POPC   D2A44956  36.112  36.948   6.753
 8456POPC   C3A44957  36.155  36.886   7.053
 8456POPC   C4A44958  36.127  36.885   7.353
 8456POPC   C1B44959  35.942  37.060   6.453
 8456POPC   C2B44960  35.901  37.070   6.753
 8456POPC   C3B44961  35.969  37.061   7.053
 8456POPC   C4B44962  35.915  37.096   7.353
 8457POPC   NC344963  26.824  12.808   5.553
 8457POPC   PO444964  26.773  12.839   5.853
 8457POPC   GL144965  26.804  12.854   6.153
 8457POPC   GL244966  26.713  12.894   6.153
 8457POPC   C1A44967  26.827  12.860   6.453
 8457POPC   D2A44968  26.842  12.900   6.753
 8457POPC   C3A44969  26.861  12.843   7.053
 8457POPC   C4A44970  26.794  12.812   7.353
 8457POPC   C1B44971  26.617  12.982   6.453
 8457POPC   C2B44972  26.643  12.994   6.753
 8457POPC   C3B44973  26.597  13.026   7.053
 8457POPC   C4B44974  26.595  13.027   7.353
 8458POPC   NC344975  19.072  22.903   5.553
 8458POPC   PO444976  19.095  22.982   5.853
 8458POPC   GL144977  19.052  22.952   6.153
 8458POPC   GL244978  19.071  22.849   6.153
 8458POPC   C1A44979  19.016  22.958   6.453
 8458POPC   D2A44980  19.016  22.937   6.753
 8458POPC   C3A44981  19.082  22.918   7.053
 8458POPC   C4A44982  19.053  22.961   7.353
 8458POPC   C1B44983  19.099  22.739   6.453
 8458POPC   C2B44984  19.156  22.713   6.753
 8458POPC   C3B44985  19.115  22.655   7.053
 8458POPC   C4B44986  19.177  22.711   7.353
 8459POPC   NC344987  29.949  32.249   5.553
 8459POPC   PO444988  29.935  32.200   5.853
 8459POPC   GL144989  29.900  32.252   6.153
 8459POPC   GL244990  29.909  32.139   6.153
 8459POPC   C1A44991  29.949  32.249   6.453
 8459POPC   D2A44992  29.913  32.222   6.753
 8459POPC   C3A44993  29.924  32.235   7.053
 8459POPC   C4A44994  29.923  32.276   7.353
 8459POPC   C1B44995  29.879  31.980   6.453
 8459POPC   C2B44996  29.888  32.004   6.753
 8459POPC   C3B44997  29.860  31.972   7.053
 8459POPC   C4B44998  29.928  32.020   7.353
 8460POPC   NC344999  31.520  27.642   5.553
 8460POPC   PO445000  31.499  27.583   5.853
 8460POPC   GL145001  31.431  27.619   6.153
 8460POPC   GL245002  31.546  27.635   6.153
 8460POPC   C1A45003  31.463  27.597   6.453
 8460POPC   D2A45004  31.426  27.602   6.753
 8460POPC   C3A45005  31.424  27.635   7.053
 8460POPC   C4A45006  31.424  27.556   7.353
 8460POPC   C1B45007  31.723  27.760   6.453
 8460POPC   C2B45008  31.670  27.738   6.753
 8460POPC   C3B45009  31.690  27.750   7.053
 8460POPC   C4B45010  31.642  27.745   7.353
 8461POPC   NC345011  38.423   9.787   5.553
 8461POPC   PO445012  38.458   9.748   5.853
 8461POPC   GL145013  38.492   9.732   6.153
 8461POPC   GL245014  38.528   9.811   6.153
 8461POPC   C1A45015  38.464   9.749   6.453
 8461POPC   D2A45016  38.428   9.779   6.753
 8461POPC   C3A45017  38.501   9.784   7.053
 8461POPC   C4A45018  38.448   9.702   7.353
 8461POPC   C1B45019  38.619   9.923   6.453
 8461POPC   C2B45020  38.635   9.918   6.753
 8461POPC   C3B45021  38.623   9.938   7.053
 8461POPC   C4B45022  38.644   9.970   7.353
 8462POPC   NC345023  22.897  12.052   5.553
 8462POPC   PO445024  22.958  12.094   5.853
 8462POPC   GL145025  22.985  12.048   6.153
 8462POPC   GL245026  22.946  11.925   6.153
 8462POPC   C1A45027  22.939  12.104   6.453
 8462POPC   D2A45028  22.932  12.091   6.753
 8462POPC   C3A45029  22.902  12.060   7.053
 8462POPC   C4A45030  22.951  12.032   7.353
 8462POPC   C1B45031  22.875  11.843   6.453
 8462POPC   C2B45032  22.931  11.854   6.753
 8462POPC   C3B45033  22.852  11.861   7.053
 8462POPC   C4B45034  22.915  11.877   7.353
 8463POPC   NC345035  22.140   5.125   5.553
 8463POPC   PO445036  22.176   5.047   5.853
 8463POPC   GL145037  22.190   5.124   6.153
 8463POPC   GL245038  22.294   5.150   6.153
 8463POPC   C1A45039  22.130   5.087   6.453
 8463POPC   D2A45040  22.145   5.080   6.753
 8463POPC   C3A45041  22.192   5.054   7.053
 8463POPC   C4A45042  22.177   5.054   7.353
 8463POPC   C1B45043  22.377   5.245   6.453
 8463POPC   C2B45044  22.393   5.272   6.753
 8463POPC   C3B45045  22.316   5.282   7.053
 8463POPC   C4B45046  22.363   5.303   7.353
 8464POPC   NC345047  28.333  33.798   5.553
 8464POPC   PO445048  28.334  33.828   5.853
 8464POPC   GL145049  28.416  33.848   6.153
 8464POPC   GL245050  28.447  33.755   6.153
 8464POPC   C1A45051  28.387  33.752   6.453
 8464POPC   D2A45052  28.362  33.775   6.753
 8464POPC   C3A45053  28.410  33.795   7.053
 8464POPC   C4A45054  28.415  33.840   7.353
 8464POPC   C1B45055  28.586  33.666   6.453
 8464POPC   C2B45056  28.565  33.684   6.753
 8464POPC   C3B45057  28.553  33.620   7.053
 8464POPC   C4B45058  28.533  33.706   7.353
 8465POPC   NC345059  22.190   3.555   5.553
 8465POPC   PO445060  22.198   3.521   5.853
 8465POPC   GL145061  22.153   3.589   6.153
 8465POPC   GL245062  22.243   3.619   6.153
 8465POPC   C1A45063  22.128   3.557   6.453
 8465POPC   D2A45064  22.205   3.544   6.753
 8465POPC   C3A45065  22.182   3.566   7.053
 8465POPC   C4A45066  22.178   3.547   7.353
 8465POPC   C1B45067  22.372   3.720   6.453
 8465POPC   C2B45068  22.400   3.665   6.753
 8465POPC   C3B45069  22.360   3.661   7.053
 8465POPC   C4B45070  22.360   3.652   7.353
 8466POPC   NC345071  44.620   5.131   5.553
 8466POPC   PO445072  44.644   5.065   5.853
 8466POPC   GL145073  44.674   5.110   6.153
 8466POPC   GL245074  44.796   5.189   6.153
 8466POPC   C1A45075  44.693   5.121   6.453
 8466POPC   D2A45076  44.687   5.076   6.753
 8466POPC   C3A45077  44.672   5.052   7.053
 8466POPC   C4A45078  44.661   5.112   7.353
 8466POPC   C1B45079  44.900   5.220   6.453
 8466POPC   C2B45080  44.905   5.198   6.753
 8466POPC   C3B45081  44.894   5.228   7.053
 8466POPC   C4B45082  44.869   5.161   7.353
 8467POPC   NC345083  37.659  38.414   5.553
 8467POPC   PO445084  37.695  38.427   5.853
 8467POPC   GL145085  37.700  38.436   6.153
 8467POPC   GL245086  37.563  38.554   6.153
 8467POPC   C1A45087  37.664  38.433   6.453
 8467POPC   D2A45088  37.639  38.463   6.753
 8467POPC   C3A45089  37.700  38.489   7.053
 8467POPC   C4A45090  37.670  38.422   7.353
 8467POPC   C1B45091  37.470  38.606   6.453
 8467POPC   C2B45092  37.461  38.646   6.753
 8467POPC   C3B45093  37.485  38.605   7.053
 8467POPC   C4B45094  37.520  38.643   7.353
 8468POPC   NC345095  33.826  31.451   5.553
 8468POPC   PO445096  33.819  31.484   5.853
 8468POPC   GL145097  33.754  31.453   6.153
 8468POPC   GL245098  33.876  31.570   6.153
 8468POPC   C1A45099  33.770  31.431   6.453
 8468POPC   D2A45100  33.827  31.515   6.753
 8468POPC   C3A45101  33.840  31.503   7.053
 8468POPC   C4A45102  33.845  31.517   7.353
 8468POPC   C1B45103  34.024  31.542   6.453
 8468POPC   C2B45104  34.063  31.622   6.753
 8468POPC   C3B45105  33.984  31.530   7.053
 8468POPC   C4B45106  33.983  31.546   7.353
 8469POPC   NC345107  12.043  29.893   5.553
 8469POPC   PO445108  12.059  29.920   5.853
 8469POPC   GL145109  12.064  29.942   6.153
 8469POPC   GL245110  12.064  30.070   6.153
 8469POPC   C1A45111  12.090  29.914   6.453
 8469POPC   D2A45112  12.045  29.964   6.753
 8469POPC   C3A45113  12.102  29.942   7.053
 8469POPC   C4A45114  12.073  29.920   7.353
 8469POPC   C1B45115  11.987  30.194   6.453
 8469POPC   C2B45116  11.959  30.119   6.753
 8469POPC   C3B45117  11.920  30.188   7.053
 8469POPC   C4B45118  12.013  30.132   7.353
 8470POPC   NC345119  44.708  28.332   5.553
 8470POPC   PO445120  44.660  28.376   5.853
 8470POPC   GL145121  44.645  28.384   6.153
 8470POPC   GL245122  44.510  28.374   6.153
 8470POPC   C1A45123  44.688  28.396   6.453
 8470POPC   D2A45124  44.674  28.371   6.753
 8470POPC   C3A45125  44.667  28.376   7.053
 8470POPC   C4A45126  44.660  28.333   7.353
 8470POPC   C1B45127  44.475  28.243   6.453
 8470POPC   C2B45128  44.399  28.271   6.753
 8470POPC   C3B45129  44.396  28.298   7.053
 8470POPC   C4B45130  44.465  28.304   7.353
 8471POPC   NC345131  38.486   4.351   5.553
 8471POPC   PO445132  38.412   4.360   5.853
 8471POPC   GL145133  38.423   4.289   6.153
 8471POPC   GL245134  38.546   4.390   6.153
 8471POPC   C1A45135  38.411   4.330   6.453
 8471POPC   D2A45136  38.459   4.350   6.753
 8471POPC   C3A45137  38.415   4.287   7.053
 8471POPC   C4A45138  38.498   4.269   7.353
 8471POPC   C1B45139  38.629   4.491   6.453
 8471POPC   C2B45140  38.602   4.521   6.753
 8471POPC   C3B45141  38.669   4.496   7.053
 8471POPC   C4B45142  38.635   4.504   7.353
 8472POPC   NC345143  16.700  29.143   5.553
 8472POPC   PO445144  16.705  29.134   5.853
 8472POPC   GL145145  16.761  29.135   6.153
 8472POPC   GL245146  16.765  29.301   6.153
 8472POPC   C1A45147  16.746  29.168   6.453
 8472POPC   D2A45148  16.751  29.178   6.753
 8472POPC   C3A45149  16.768  29.144   7.053
 8472POPC   C4A45150  16.740  29.115   7.353
 8472POPC   C1B45151  16.783  29.348   6.453
 8472POPC   C2B45152  16.832  29.371   6.753
 8472POPC   C3B45153  16.744  29.407   7.053
 8472POPC   C4B45154  16.743  29.390   7.353
 8473POPC   NC345155   9.775   6.614   5.553
 8473POPC   PO445156   9.708   6.665   5.853
 8473POPC   GL145157   9.701   6.660   6.153
 8473POPC   GL245158   9.900   6.586   6.153
 8473POPC   C1A45159   9.788   6.681   6.453
 8473POPC   D2A45160   9.780   6.619   6.753
 8473POPC   C3A45161   9.722   6.661   7.053
 8473POPC   C4A45162   9.719   6.664   7.353
 8473POPC   C1B45163   9.914   6.556   6.453
 8473POPC   C2B45164   9.959   6.540   6.753
 8473POPC   C3B45165   9.950   6.508   7.053
 8473POPC   C4B45166  10.006   6.506   7.353
 8474POPC   NC345167  35.382  40.784   5.553
 8474POPC   PO445168  35.361  40.784   5.853
 8474POPC   GL145169  35.386  40.824   6.153
 8474POPC   GL245170  35.296  40.876   6.153
 8474POPC   C1A45171  35.376  40.768   6.453
 8474POPC   D2A45172  35.393  40.792   6.753
 8474POPC   C3A45173  35.364  40.752   7.053
 8474POPC   C4A45174  35.331  40.750   7.353
 8474POPC   C1B45175  35.122  40.917   6.453
 8474POPC   C2B45176  35.189  40.929   6.753
 8474POPC   C3B45177  35.103  40.936   7.053
 8474POPC   C4B45178  35.102  40.950   7.353
 8475POPC   NC345179  20.632   8.929   5.553
 8475POPC   PO445180  20.595   9.018   5.853
 8475POPC   GL145181  20.642   8.927   6.153
 8475POPC   GL245182  20.711   9.121   6.153
 8475POPC   C1A45183  20.576   8.990   6.453
 8475POPC   D2A45184  20.593   8.933   6.753
 8475POPC   C3A45185  20.645   8.955   7.053
 8475POPC   C4A45186  20.643   8.962   7.353
 8475POPC   C1B45187  20.754   9.132   6.453
 8475POPC   C2B45188  20.771   9.166   6.753
 8475POPC   C3B45189  20.771   9.191   7.053
 8475POPC   C4B45190  20.797   9.168   7.353
 8476POPC   NC345191  43.126  15.975   5.553
 8476POPC   PO445192  43.149  15.927   5.853
 8476POPC   GL145193  43.125  15.970   6.153
 8476POPC   GL245194  43.232  15.923   6.153
 8476POPC   C1A45195  43.069  15.971   6.453
 8476POPC   D2A45196  43.131  16.001   6.753
 8476POPC   C3A45197  43.079  16.001   7.053
 8476POPC   C4A45198  43.155  15.990   7.353
 8476POPC   C1B45199  43.284  15.844   6.453
 8476POPC   C2B45200  43.289  15.846   6.753
 8476POPC   C3B45201  43.320  15.857   7.053
 8476POPC   C4B45202  43.282  15.812   7.353
 8477POPC   NC345203  42.331   3.532   5.553
 8477POPC   PO445204  42.325   3.525   5.853
 8477POPC   GL145205  42.374   3.561   6.153
 8477POPC   GL245206  42.214   3.439   6.153
 8477POPC   C1A45207  42.315   3.561   6.453
 8477POPC   D2A45208  42.337   3.581   6.753
 8477POPC   C3A45209  42.349   3.591   7.053
 8477POPC   C4A45210  42.360   3.537   7.353
 8477POPC   C1B45211  42.128   3.349   6.453
 8477POPC   C2B45212  42.145   3.325   6.753
 8477POPC   C3B45213  42.165   3.363   7.053
 8477POPC   C4B45214  42.196   3.390   7.353
 8478POPC   NC345215  13.623  42.335   5.553
 8478POPC   PO445216  13.655  42.363   5.853
 8478POPC   GL145217  13.675  42.311   6.153
 8478POPC   GL245218  13.707  42.269   6.153
 8478POPC   C1A45219  13.611  42.331   6.453
 8478POPC   D2A45220  13.592  42.374   6.753
 8478POPC   C3A45221  13.628  42.316   7.053
 8478POPC   C4A45222  13.674  42.350   7.353
 8478POPC   C1B45223  13.874  42.312   6.453
 8478POPC   C2B45224  13.905  42.283   6.753
 8478POPC   C3B45225  13.878  42.292   7.053
 8478POPC   C4B45226  13.887  42.261   7.353
 8479POPC   NC345227   1.995   9.022   5.553
 8479POPC   PO445228   2.018   8.978   5.853
 8479POPC   GL145229   1.999   8.924   6.153
 8479POPC   GL245230   2.058   8.919   6.153
 8479POPC   C1A45231   1.995   8.933   6.453
 8479POPC   D2A45232   1.944   8.924   6.753
 8479POPC   C3A45233   2.027   8.974   7.053
 8479POPC   C4A45234   1.953   8.981   7.353
 8479POPC   C1B45235   2.186   8.862   6.453
 8479POPC   C2B45236   2.248   8.824   6.753
 8479POPC   C3B45237   2.155   8.801   7.053
 8479POPC   C4B45238   2.182   8.817   7.353
 8480POPC   NC345239  29.137  13.593   5.553
 8480POPC   PO445240  29.097  13.668   5.853
 8480POPC   GL145241  29.112  13.632   6.153
 8480POPC   GL245242  29.090  13.516   6.153
 8480POPC   C1A45243  29.138  13.581   6.453
 8480POPC   D2A45244  29.145  13.629   6.753
 8480POPC   C3A45245  29.177  13.598   7.053
 8480POPC   C4A45246  29.150  13.647   7.353
 8480POPC   C1B45247  29.057  13.430   6.453
 8480POPC   C2B45248  29.059  13.390   6.753
 8480POPC   C3B45249  29.052  13.390   7.053
 8480POPC   C4B45250  29.026  13.439   7.353
 8481POPC   NC345251   1.977  40.767   5.553
 8481POPC   PO445252   2.033  40.782   5.853
 8481POPC   GL145253   2.024  40.796   6.153
 8481POPC   GL245254   1.840  40.787   6.153
 8481POPC   C1A45255   1.975  40.810   6.453
 8481POPC   D2A45256   1.955  40.771   6.753
 8481POPC   C3A45257   1.940  40.765   7.053
 8481POPC   C4A45258   1.951  40.765   7.353
 8481POPC   C1B45259   1.727  40.698   6.453
 8481POPC   C2B45260   1.761  40.751   6.753
 8481POPC   C3B45261   1.693  40.695   7.053
 8481POPC   C4B45262   1.715  40.750   7.353
 8482POPC   NC345263  27.548   1.209   5.553
 8482POPC   PO445264  27.641   1.238   5.853
 8482POPC   GL145265  27.576   1.170   6.153
 8482POPC   GL245266  27.681   1.143   6.153
 8482POPC   C1A45267  27.599   1.176   6.453
 8482POPC   D2A45268  27.575   1.222   6.753
 8482POPC   C3A45269  27.545   1.216   7.053
 8482POPC   C4A45270  27.579   1.216   7.353
 8482POPC   C1B45271  27.709   1.023   6.453
 8482POPC   C2B45272  27.723   0.974   6.753
 8482POPC   C3B45273  27.740   0.982   7.053
 8482POPC   C4B45274  27.768   1.004   7.353
 8483POPC   NC345275   3.538   5.844   5.553
 8483POPC   PO445276   3.576   5.842   5.853
 8483POPC   GL145277   3.496   5.859   6.153
 8483POPC   GL245278   3.546   5.967   6.153
 8483POPC   C1A45279   3.531   5.842   6.453
 8483POPC   D2A45280   3.492   5.885   6.753
 8483POPC   C3A45281   3.494   5.903   7.053
 8483POPC   C4A45282   3.563   5.819   7.353
 8483POPC   C1B45283   3.646   6.126   6.453
 8483POPC   C2B45284   3.682   6.112   6.753
 8483POPC   C3B45285   3.642   6.071   7.053
 8483POPC   C4B45286   3.613   6.049   7.353
 8484POPC   NC345287   7.469   8.148   5.553
 8484POPC   PO445288   7.388   8.221   5.853
 8484POPC   GL145289   7.396   8.155   6.153
 8484POPC   GL245290   7.345   8.137   6.153
 8484POPC   C1A45291   7.414   8.235   6.453
 8484POPC   D2A45292   7.420   8.213   6.753
 8484POPC   C3A45293   7.447   8.240   7.053
 8484POPC   C4A45294   7.399   8.208   7.353
 8484POPC   C1B45295   7.301   8.020   6.453
 8484POPC   C2B45296   7.258   8.021   6.753
 8484POPC   C3B45297   7.303   8.018   7.053
 8484POPC   C4B45298   7.324   7.956   7.353
 8485POPC   NC345299  33.801  14.429   5.553
 8485POPC   PO445300  33.757  14.376   5.853
 8485POPC   GL145301  33.769  14.355   6.153
 8485POPC   GL245302  33.835  14.265   6.153
 8485POPC   C1A45303  33.775  14.449   6.453
 8485POPC   D2A45304  33.769  14.426   6.753
 8485POPC   C3A45305  33.797  14.388   7.053
 8485POPC   C4A45306  33.761  14.432   7.353
 8485POPC   C1B45307  33.881  14.158   6.453
 8485POPC   C2B45308  33.879  14.111   6.753
 8485POPC   C3B45309  33.869  14.204   7.053
 8485POPC   C4B45310  33.838  14.127   7.353
 8486POPC   NC345311  28.354  41.525   5.553
 8486POPC   PO445312  28.415  41.536   5.853
 8486POPC   GL145313  28.328  41.516   6.153
 8486POPC   GL245314  28.331  41.707   6.153
 8486POPC   C1A45315  28.322  41.603   6.453
 8486POPC   D2A45316  28.336  41.594   6.753
 8486POPC   C3A45317  28.409  41.588   7.053
 8486POPC   C4A45318  28.350  41.536   7.353
 8486POPC   C1B45319  28.177  41.753   6.453
 8486POPC   C2B45320  28.266  41.739   6.753
 8486POPC   C3B45321  28.231  41.804   7.053
 8486POPC   C4B45322  28.176  41.735   7.353
 8487POPC   NC345323  37.671   7.374   5.553
 8487POPC   PO445324  37.649   7.455   5.853
 8487POPC   GL145325  37.634   7.443   6.153
 8487POPC   GL245326  37.814   7.398   6.153
 8487POPC   C1A45327  37.727   7.425   6.453
 8487POPC   D2A45328  37.708   7.384   6.753
 8487POPC   C3A45329  37.638   7.385   7.053
 8487POPC   C4A45330  37.692   7.441   7.353
 8487POPC   C1B45331  37.892   7.369   6.453
 8487POPC   C2B45332  37.867   7.356   6.753
 8487POPC   C3B45333  37.891   7.293   7.053
 8487POPC   C4B45334  37.915   7.322   7.353
 8488POPC   NC345335  43.104   2.787   5.553
 8488POPC   PO445336  43.075   2.799   5.853
 8488POPC   GL145337  43.120   2.765   6.153
 8488POPC   GL245338  43.030   2.806   6.153
 8488POPC   C1A45339  43.137   2.802   6.453
 8488POPC   D2A45340  43.062   2.755   6.753
 8488POPC   C3A45341  43.155   2.730   7.053
 8488POPC   C4A45342  43.090   2.815   7.353
 8488POPC   C1B45343  42.899   2.737   6.453
 8488POPC   C2B45344  42.865   2.771   6.753
 8488POPC   C3B45345  42.893   2.804   7.053
 8488POPC   C4B45346  42.857   2.715   7.353
 8489POPC   NC345347   4.290  28.351   5.553
 8489POPC   PO445348   4.350  28.405   5.853
 8489POPC   GL145349   4.311  28.365   6.153
 8489POPC   GL245350   4.351  28.275   6.153
 8489POPC   C1A45351   4.333  28.324   6.453
 8489POPC   D2A45352   4.337  28.390   6.753
 8489POPC   C3A45353   4.280  28.387   7.053
 8489POPC   C4A45354   4.360  28.417   7.353
 8489POPC   C1B45355   4.335  28.131   6.453
 8489POPC   C2B45356   4.351  28.159   6.753
 8489POPC   C3B45357   4.364  28.111   7.053
 8489POPC   C4B45358   4.355  28.132   7.353
 8490POPC   NC345359  36.095  15.975   5.553
 8490POPC   PO445360  36.173  15.964   5.853
 8490POPC   GL145361  36.137  15.944   6.153
 8490POPC   GL245362  36.187  16.037   6.153
 8490POPC   C1A45363  36.094  15.934   6.453
 8490POPC   D2A45364  36.078  15.952   6.753
 8490POPC   C3A45365  36.153  15.975   7.053
 8490POPC   C4A45366  36.087  15.971   7.353
 8490POPC   C1B45367  36.257  16.115   6.453
 8490POPC   C2B45368  36.254  16.124   6.753
 8490POPC   C3B45369  36.271  16.094   7.053
 8490POPC   C4B45370  36.340  16.144   7.353
 8491POPC   NC345371  10.528  18.258   5.553
 8491POPC   PO445372  10.533  18.310   5.853
 8491POPC   GL145373  10.493  18.299   6.153
 8491POPC   GL245374  10.576  18.375   6.153
 8491POPC   C1A45375  10.500  18.268   6.453
 8491POPC   D2A45376  10.520  18.233   6.753
 8491POPC   C3A45377  10.553  18.286   7.053
 8491POPC   C4A45378  10.519  18.324   7.353
 8491POPC   C1B45379  10.687  18.436   6.453
 8491POPC   C2B45380  10.647  18.490   6.753
 8491POPC   C3B45381  10.674  18.525   7.053
 8491POPC   C4B45382  10.680  18.461   7.353
 8492POPC   NC345383  35.343  10.559   5.553
 8492POPC   PO445384  35.379  10.477   5.853
 8492POPC   GL145385  35.306  10.516   6.153
 8492POPC   GL245386  35.243  10.570   6.153
 8492POPC   C1A45387  35.366  10.510   6.453
 8492POPC   D2A45388  35.326  10.505   6.753
 8492POPC   C3A45389  35.330  10.501   7.053
 8492POPC   C4A45390  35.305  10.492   7.353
 8492POPC   C1B45391  35.118  10.640   6.453
 8492POPC   C2B45392  35.158  10.639   6.753
 8492POPC   C3B45393  35.070  10.630   7.053
 8492POPC   C4B45394  35.136  10.609   7.353
 8493POPC   NC345395   5.902  15.987   5.553
 8493POPC   PO445396   5.889  15.941   5.853
 8493POPC   GL145397   5.856  15.938   6.153
 8493POPC   GL245398   5.960  15.888   6.153
 8493POPC   C1A45399   5.892  16.004   6.453
 8493POPC   D2A45400   5.893  15.983   6.753
 8493POPC   C3A45401   5.826  15.945   7.053
 8493POPC   C4A45402   5.858  15.945   7.353
 8493POPC   C1B45403   6.147  15.896   6.453
 8493POPC   C2B45404   6.137  15.931   6.753
 8493POPC   C3B45405   6.144  15.858   7.053
 8493POPC   C4B45406   6.060  15.886   7.353
 8494POPC   NC345407   9.020  22.143   5.553
 8494POPC   PO445408   9.015  22.152   5.853
 8494POPC   GL145409   8.982  22.189   6.153
 8494POPC   GL245410   9.085  22.221   6.153
 8494POPC   C1A45411   8.976  22.200   6.453
 8494POPC   D2A45412   8.974  22.204   6.753
 8494POPC   C3A45413   9.007  22.161   7.053
 8494POPC   C4A45414   8.989  22.147   7.353
 8494POPC   C1B45415   9.140  22.345   6.453
 8494POPC   C2B45416   9.216  22.267   6.753
 8494POPC   C3B45417   9.209  22.292   7.053
 8494POPC   C4B45418   9.225  22.325   7.353
 8495POPC   NC345419  29.104  15.978   5.553
 8495POPC   PO445420  29.165  15.963   5.853
 8495POPC   GL145421  29.141  15.988   6.153
 8495POPC   GL245422  29.209  15.850   6.153
 8495POPC   C1A45423  29.161  15.922   6.453
 8495POPC   D2A45424  29.148  16.005   6.753
 8495POPC   C3A45425  29.174  15.931   7.053
 8495POPC   C4A45426  29.099  15.979   7.353
 8495POPC   C1B45427  29.390  15.846   6.453
 8495POPC   C2B45428  29.337  15.785   6.753
 8495POPC   C3B45429  29.344  15.835   7.053
 8495POPC   C4B45430  29.348  15.800   7.353
 8496POPC   NC345431   1.262  41.556   5.553
 8496POPC   PO445432   1.240  41.522   5.853
 8496POPC   GL145433   1.261  41.558   6.153
 8496POPC   GL245434   1.277  41.729   6.153
 8496POPC   C1A45435   1.182  41.513   6.453
 8496POPC   D2A45436   1.182  41.601   6.753
 8496POPC   C3A45437   1.197  41.525   7.053
 8496POPC   C4A45438   1.230  41.593   7.353
 8496POPC   C1B45439   1.277  41.808   6.453
 8496POPC   C2B45440   1.281  41.795   6.753
 8496POPC   C3B45441   1.264  41.770   7.053
 8496POPC   C4B45442   1.258  41.850   7.353
 8497POPC   NC345443  23.702  25.295   5.553
 8497POPC   PO445444  23.728  25.237   5.853
 8497POPC   GL145445  23.671  25.267   6.153
 8497POPC   GL245446  23.752  25.183   6.153
 8497POPC   C1A45447  23.723  25.278   6.453
 8497POPC   D2A45448  23.734  25.266   6.753
 8497POPC   C3A45449  23.720  25.315   7.053
 8497POPC   C4A45450  23.674  25.256   7.353
 8497POPC   C1B45451  23.833  25.088   6.453
 8497POPC   C2B45452  23.843  25.054   6.753
 8497POPC   C3B45453  23.833  25.065   7.053
 8497POPC   C4B45454  23.857  25.033   7.353
 8498POPC   NC345455  38.460  33.001   5.553
 8498POPC   PO445456  38.499  33.005   5.853
 8498POPC   GL145457  38.472  32.977   6.153
 8498POPC   GL245458  38.313  33.049   6.153
 8498POPC   C1A45459  38.489  33.015   6.453
 8498POPC   D2A45460  38.445  33.064   6.753
 8498POPC   C3A45461  38.425  33.026   7.053
 8498POPC   C4A45462  38.482  33.044   7.353
 8498POPC   C1B45463  38.199  33.087   6.453
 8498POPC   C2B45464  38.197  33.023   6.753
 8498POPC   C3B45465  38.251  33.031   7.053
 8498POPC   C4B45466  38.171  33.055   7.353
 8499POPC   NC345467  11.305  36.087   5.553
 8499POPC   PO445468  11.252  36.174   5.853
 8499POPC   GL145469  11.343  36.110   6.153
 8499POPC   GL245470  11.295  35.994   6.153
 8499POPC   C1A45471  11.256  36.164   6.453
 8499POPC   D2A45472  11.296  36.085   6.753
 8499POPC   C3A45473  11.323  36.167   7.053
 8499POPC   C4A45474  11.299  36.170   7.353
 8499POPC   C1B45475  11.167  35.876   6.453
 8499POPC   C2B45476  11.223  35.869   6.753
 8499POPC   C3B45477  11.195  35.888   7.053
 8499POPC   C4B45478  11.165  35.872   7.353
 8500POPC   NC345479  36.088  24.515   5.553
 8500POPC   PO445480  36.084  24.440   5.853
 8500POPC   GL145481  36.169  24.478   6.153
 8500POPC   GL245482  36.080  24.393   6.153
 8500POPC   C1A45483  36.121  24.499   6.453
 8500POPC   D2A45484  36.164  24.494   6.753
 8500POPC   C3A45485  36.143  24.478   7.053
 8500POPC   C4A45486  36.110  24.517   7.353
 8500POPC   C1B45487  35.994  24.247   6.453
 8500POPC   C2B45488  36.012  24.327   6.753
 8500POPC   C3B45489  35.947  24.250   7.053
 8500POPC   C4B45490  35.989  24.320   7.353
 8501POPC   NC345491   8.948  36.949   5.553
 8501POPC   PO445492   8.937  36.897   5.853
 8501POPC   GL145493   9.013  36.897   6.153
 8501POPC   GL245494   9.029  36.757   6.153
 8501POPC   C1A45495   8.968  36.941   6.453
 8501POPC   D2A45496   8.955  36.930   6.753
 8501POPC   C3A45497   8.937  36.916   7.053
 8501POPC   C4A45498   8.985  36.913   7.353
 8501POPC   C1B45499   9.064  36.713   6.453
 8501POPC   C2B45500   9.002  36.641   6.753
 8501POPC   C3B45501   9.006  36.694   7.053
 8501POPC   C4B45502   9.023  36.660   7.353
 8502POPC   NC345503   0.406  22.143   5.553
 8502POPC   PO445504   0.395  22.172   5.853
 8502POPC   GL145505   0.422  22.160   6.153
 8502POPC   GL245506   0.500  22.284   6.153
 8502POPC   C1A45507   0.438  22.208   6.453
 8502POPC   D2A45508   0.408  22.154   6.753
 8502POPC   C3A45509   0.485  22.168   7.053
 8502POPC   C4A45510   0.456  22.193   7.353
 8502POPC   C1B45511   0.573  22.382   6.453
 8502POPC   C2B45512   0.550  22.342   6.753
 8502POPC   C3B45513   0.592  22.381   7.053
 8502POPC   C4B45514   0.612  22.358   7.353
 8503POPC   NC345515  16.745  40.763   5.553
 8503POPC   PO445516  16.758  40.810   5.853
 8503POPC   GL145517  16.752  40.753   6.153
 8503POPC   GL245518  16.659  40.910   6.153
 8503POPC   C1A45519  16.684  40.797   6.453
 8503POPC   D2A45520  16.738  40.831   6.753
 8503POPC   C3A45521  16.779  40.763   7.053
 8503POPC   C4A45522  16.747  40.802   7.353
 8503POPC   C1B45523  16.718  41.046   6.453
 8503POPC   C2B45524  16.711  41.066   6.753
 8503POPC   C3B45525  16.702  41.015   7.053
 8503POPC   C4B45526  16.710  40.979   7.353
 8504POPC   NC345527  36.855  26.840   5.553
 8504POPC   PO445528  36.881  26.767   5.853
 8504POPC   GL145529  36.876  26.809   6.153
 8504POPC   GL245530  36.909  26.936   6.153
 8504POPC   C1A45531  36.861  26.798   6.453
 8504POPC   D2A45532  36.920  26.818   6.753
 8504POPC   C3A45533  36.937  26.832   7.053
 8504POPC   C4A45534  36.941  26.812   7.353
 8504POPC   C1B45535  36.976  27.064   6.453
 8504POPC   C2B45536  36.928  27.051   6.753
 8504POPC   C3B45537  36.980  27.017   7.053
 8504POPC   C4B45538  36.984  27.105   7.353
 8505POPC   NC345539   6.689  15.155   5.553
 8505POPC   PO445540   6.634  15.138   5.853
 8505POPC   GL145541   6.633  15.130   6.153
 8505POPC   GL245542   6.619  15.263   6.153
 8505POPC   C1A45543   6.601  15.200   6.453
 8505POPC   D2A45544   6.667  15.167   6.753
 8505POPC   C3A45545   6.640  15.201   7.053
 8505POPC   C4A45546   6.632  15.135   7.353
 8505POPC   C1B45547   6.571  15.390   6.453
 8505POPC   C2B45548   6.549  15.424   6.753
 8505POPC   C3B45549   6.630  15.460   7.053
 8505POPC   C4B45550   6.633  15.398   7.353
 8506POPC   NC345551  12.851  12.825   5.553
 8506POPC   PO445552  12.832  12.804   5.853
 8506POPC   GL145553  12.875  12.889   6.153
 8506POPC   GL245554  12.967  12.770   6.153
 8506POPC   C1A45555  12.817  12.867   6.453
 8506POPC   D2A45556  12.831  12.888   6.753
 8506POPC   C3A45557  12.847  12.807   7.053
 8506POPC   C4A45558  12.816  12.805   7.353
 8506POPC   C1B45559  12.997  12.645   6.453
 8506POPC   C2B45560  12.981  12.673   6.753
 8506POPC   C3B45561  13.011  12.648   7.053
 8506POPC   C4B45562  12.982  12.683   7.353
 8507POPC   NC345563  34.598  44.665   5.553
 8507POPC   PO445564  34.569  44.646   5.853
 8507POPC   GL145565  34.538  44.693   6.153
 8507POPC   GL245566  34.454  44.704   6.153
 8507POPC   C1A45567  34.616  44.641   6.453
 8507POPC   D2A45568  34.620  44.665   6.753
 8507POPC   C3A45569  34.621  44.653   7.053
 8507POPC   C4A45570  34.549  44.627   7.353
 8507POPC   C1B45571  34.349  44.833   6.453
 8507POPC   C2B45572  34.374  44.842   6.753
 8507POPC   C3B45573  34.403  44.868   7.053
 8507POPC   C4B45574  34.423  44.819   7.353
 8508POPC   NC345575  21.432   3.528   5.553
 8508POPC   PO445576  21.389   3.527   5.853
 8508POPC   GL145577  21.424   3.522   6.153
 8508POPC   GL245578  21.490   3.437   6.153
 8508POPC   C1A45579  21.370   3.589   6.453
 8508POPC   D2A45580  21.395   3.577   6.753
 8508POPC   C3A45581  21.356   3.528   7.053
 8508POPC   C4A45582  21.418   3.523   7.353
 8508POPC   C1B45583  21.650   3.469   6.453
 8508POPC   C2B45584  21.582   3.466   6.753
 8508POPC   C3B45585  21.584   3.435   7.053
 8508POPC   C4B45586  21.608   3.400   7.353
 8509POPC   NC345587  39.964  24.444   5.553
 8509POPC   PO445588  40.045  24.452   5.853
 8509POPC   GL145589  39.967  24.495   6.153
 8509POPC   GL245590  39.944  24.484   6.153
 8509POPC   C1A45591  39.963  24.530   6.453
 8509POPC   D2A45592  39.997  24.460   6.753
 8509POPC   C3A45593  39.980  24.479   7.053
 8509POPC   C4A45594  39.958  24.486   7.353
 8509POPC   C1B45595  39.831  24.387   6.453
 8509POPC   C2B45596  39.766  24.334   6.753
 8509POPC   C3B45597  39.814  24.391   7.053
 8509POPC   C4B45598  39.808  24.416   7.353
 8510POPC   NC345599  37.696  21.350   5.553
 8510POPC   PO445600  37.681  21.370   5.853
 8510POPC   GL145601  37.688  21.364   6.153
 8510POPC   GL245602  37.571  21.442   6.153
 8510POPC   C1A45603  37.631  21.415   6.453
 8510POPC   D2A45604  37.666  21.349   6.753
 8510POPC   C3A45605  37.680  21.434   7.053
 8510POPC   C4A45606  37.702  21.359   7.353
 8510POPC   C1B45607  37.449  21.564   6.453
 8510POPC   C2B45608  37.487  21.555   6.753
 8510POPC   C3B45609  37.432  21.507   7.053
 8510POPC   C4B45610  37.475  21.504   7.353
 8511POPC   NC345611  29.177  12.809   5.553
 8511POPC   PO445612  29.168  12.820   5.853
 8511POPC   GL145613  29.157  12.811   6.153
 8511POPC   GL245614  29.206  12.804   6.153
 8511POPC   C1A45615  29.172  12.868   6.453
 8511POPC   D2A45616  29.104  12.845   6.753
 8511POPC   C3A45617  29.121  12.840   7.053
 8511POPC   C4A45618  29.189  12.818   7.353
 8511POPC   C1B45619  29.385  12.683   6.453
 8511POPC   C2B45620  29.344  12.689   6.753
 8511POPC   C3B45621  29.303  12.743   7.053
 8511POPC   C4B45622  29.312  12.725   7.353
 8512POPC   NC345623   9.713  40.828   5.553
 8512POPC   PO445624   9.782  40.831   5.853
 8512POPC   GL145625   9.721  40.781   6.153
 8512POPC   GL245626   9.837  40.639   6.153
 8512POPC   C1A45627   9.772  40.789   6.453
 8512POPC   D2A45628   9.709  40.784   6.753
 8512POPC   C3A45629   9.763  40.745   7.053
 8512POPC   C4A45630   9.785  40.743   7.353
 8512POPC   C1B45631   9.906  40.599   6.453
 8512POPC   C2B45632   9.924  40.525   6.753
 8512POPC   C3B45633   9.930  40.585   7.053
 8512POPC   C4B45634   9.912  40.603   7.353
 8513POPC   NC345635  26.025  27.584   5.553
 8513POPC   PO445636  26.056  27.543   5.853
 8513POPC   GL145637  26.003  27.547   6.153
 8513POPC   GL245638  26.103  27.501   6.153
 8513POPC   C1A45639  26.000  27.643   6.453
 8513POPC   D2A45640  26.035  27.626   6.753
 8513POPC   C3A45641  26.038  27.596   7.053
 8513POPC   C4A45642  26.020  27.628   7.353
 8513POPC   C1B45643  26.106  27.390   6.453
 8513POPC   C2B45644  26.051  27.344   6.753
 8513POPC   C3B45645  26.138  27.349   7.053
 8513POPC   C4B45646  26.048  27.377   7.353
 8514POPC   NC345647  43.861   5.067   5.553
 8514POPC   PO445648  43.837   5.121   5.853
 8514POPC   GL145649  43.846   5.083   6.153
 8514POPC   GL245650  43.973   5.171   6.153
 8514POPC   C1A45651  43.893   5.099   6.453
 8514POPC   D2A45652  43.921   5.059   6.753
 8514POPC   C3A45653  43.863   5.080   7.053
 8514POPC   C4A45654  43.860   5.061   7.353
 8514POPC   C1B45655  44.161   5.213   6.453
 8514POPC   C2B45656  44.109   5.134   6.753
 8514POPC   C3B45657  44.137   5.188   7.053
 8514POPC   C4B45658  44.088   5.130   7.353
 8515POPC   NC345659  29.966  42.296   5.553
 8515POPC   PO445660  29.934  42.304   5.853
 8515POPC   GL145661  29.970  42.361   6.153
 8515POPC   GL245662  29.972  42.423   6.153
 8515POPC   C1A45663  29.946  42.334   6.453
 8515POPC   D2A45664  29.912  42.298   6.753
 8515POPC   C3A45665  29.885  42.373   7.053
 8515POPC   C4A45666  29.937  42.368   7.353
 8515POPC   C1B45667  30.070  42.529   6.453
 8515POPC   C2B45668  30.068  42.596   6.753
 8515POPC   C3B45669  30.039  42.592   7.053
 8515POPC   C4B45670  30.041  42.590   7.353
 8516POPC   NC345671  30.667  22.913   5.553
 8516POPC   PO445672  30.662  22.940   5.853
 8516POPC   GL145673  30.701  22.948   6.153
 8516POPC   GL245674  30.787  22.813   6.153
 8516POPC   C1A45675  30.677  22.933   6.453
 8516POPC   D2A45676  30.703  22.978   6.753
 8516POPC   C3A45677  30.719  22.939   7.053
 8516POPC   C4A45678  30.724  22.918   7.353
 8516POPC   C1B45679  30.825  22.786   6.453
 8516POPC   C2B45680  30.901  22.745   6.753
 8516POPC   C3B45681  30.834  22.755   7.053
 8516POPC   C4B45682  30.859  22.729   7.353
 8517POPC   NC345683   8.967   7.373   5.553
 8517POPC   PO445684   8.930   7.417   5.853
 8517POPC   GL145685   8.975   7.382   6.153
 8517POPC   GL245686   9.098   7.381   6.153
 8517POPC   C1A45687   8.981   7.448   6.453
 8517POPC   D2A45688   8.933   7.406   6.753
 8517POPC   C3A45689   8.985   7.428   7.053
 8517POPC   C4A45690   8.990   7.452   7.353
 8517POPC   C1B45691   9.176   7.220   6.453
 8517POPC   C2B45692   9.193   7.264   6.753
 8517POPC   C3B45693   9.122   7.307   7.053
 8517POPC   C4B45694   9.141   7.309   7.353
 8518POPC   NC345695  31.446  10.500   5.553
 8518POPC   PO445696  31.443  10.500   5.853
 8518POPC   GL145697  31.454  10.537   6.153
 8518POPC   GL245698  31.596  10.487   6.153
 8518POPC   C1A45699  31.457  10.559   6.453
 8518POPC   D2A45700  31.516  10.540   6.753
 8518POPC   C3A45701  31.456  10.519   7.053
 8518POPC   C4A45702  31.514  10.547   7.353
 8518POPC   C1B45703  31.681  10.516   6.453
 8518POPC   C2B45704  31.731  10.489   6.753
 8518POPC   C3B45705  31.681  10.585   7.053
 8518POPC   C4B45706  31.674  10.530   7.353
 8519POPC   NC345707   1.998  15.911   5.553
 8519POPC   PO445708   1.993  15.978   5.853
 8519POPC   GL145709   2.005  15.920   6.153
 8519POPC   GL245710   1.828  15.932   6.153
 8519POPC   C1A45711   1.970  15.915   6.453
 8519POPC   D2A45712   1.971  16.003   6.753
 8519POPC   C3A45713   1.972  15.975   7.053
 8519POPC   C4A45714   1.972  15.921   7.353
 8519POPC   C1B45715   1.696  15.878   6.453
 8519POPC   C2B45716   1.724  15.936   6.753
 8519POPC   C3B45717   1.769  15.878   7.053
 8519POPC   C4B45718   1.706  15.919   7.353
 8520POPC   NC345719  20.628  28.355   5.553
 8520POPC   PO445720  20.635  28.321   5.853
 8520POPC   GL145721  20.648  28.385   6.153
 8520POPC   GL245722  20.526  28.369   6.153
 8520POPC   C1A45723  20.608  28.361   6.453
 8520POPC   D2A45724  20.611  28.360   6.753
 8520POPC   C3A45725  20.645  28.375   7.053
 8520POPC   C4A45726  20.577  28.348   7.353
 8520POPC   C1B45727  20.322  28.375   6.453
 8520POPC   C2B45728  20.395  28.415   6.753
 8520POPC   C3B45729  20.377  28.431   7.053
 8520POPC   C4B45730  20.321  28.392   7.353
 8521POPC   NC345731  39.234  44.685   5.553
 8521POPC   PO445732  39.268  44.711   5.853
 8521POPC   GL145733  39.226  44.653   6.153
 8521POPC   GL245734  39.137  44.555   6.153
 8521POPC   C1A45735  39.201  44.644   6.453
 8521POPC   D2A45736  39.219  44.687   6.753
 8521POPC   C3A45737  39.213  44.622   7.053
 8521POPC   C4A45738  39.197  44.620   7.353
 8521POPC   C1B45739  39.089  44.481   6.453
 8521POPC   C2B45740  39.029  44.494   6.753
 8521POPC   C3B45741  39.068  44.481   7.053
 8521POPC   C4B45742  39.067  44.490   7.353
 8522POPC   NC345743  35.323  22.139   5.553
 8522POPC   PO445744  35.325  22.165   5.853
 8522POPC   GL145745  35.331  22.131   6.153
 8522POPC   GL245746  35.458  22.175   6.153
 8522POPC   C1A45747  35.373  22.211   6.453
 8522POPC   D2A45748  35.361  22.179   6.753
 8522POPC   C3A45749  35.392  22.203   7.053
 8522POPC   C4A45750  35.383  22.192   7.353
 8522POPC   C1B45751  35.639  22.188   6.453
 8522POPC   C2B45752  35.598  22.188   6.753
 8522POPC   C3B45753  35.598  22.211   7.053
 8522POPC   C4B45754  35.564  22.158   7.353
 8523POPC   NC345755  25.231  28.413   5.553
 8523POPC   PO445756  25.298  28.321   5.853
 8523POPC   GL145757  25.269  28.414   6.153
 8523POPC   GL245758  25.391  28.282   6.153
 8523POPC   C1A45759  25.305  28.368   6.453
 8523POPC   D2A45760  25.313  28.333   6.753
 8523POPC   C3A45761  25.251  28.358   7.053
 8523POPC   C4A45762  25.261  28.369   7.353
 8523POPC   C1B45763  25.390  28.212   6.453
 8523POPC   C2B45764  25.448  28.152   6.753
 8523POPC   C3B45765  25.388  28.169   7.053
 8523POPC   C4B45766  25.429  28.203   7.353
 8524POPC   NC345767   2.774  35.307   5.553
 8524POPC   PO445768   2.778  35.334   5.853
 8524POPC   GL145769   2.747  35.388   6.153
 8524POPC   GL245770   2.862  35.244   6.153
 8524POPC   C1A45771   2.753  35.394   6.453
 8524POPC   D2A45772   2.813  35.356   6.753
 8524POPC   C3A45773   2.772  35.378   7.053
 8524POPC   C4A45774   2.771  35.307   7.353
 8524POPC   C1B45775   2.944  35.252   6.453
 8524POPC   C2B45776   2.997  35.247   6.753
 8524POPC   C3B45777   2.972  35.220   7.053
 8524POPC   C4B45778   2.951  35.186   7.353
 8525POPC   NC345779  31.492  26.026   5.553
 8525POPC   PO445780  31.443  26.017   5.853
 8525POPC   GL145781  31.481  26.060   6.153
 8525POPC   GL245782  31.351  26.079   6.153
 8525POPC   C1A45783  31.459  26.025   6.453
 8525POPC   D2A45784  31.460  26.058   6.753
 8525POPC   C3A45785  31.432  26.052   7.053
 8525POPC   C4A45786  31.473  26.088   7.353
 8525POPC   C1B45787  31.325  26.223   6.453
 8525POPC   C2B45788  31.266  26.161   6.753
 8525POPC   C3B45789  31.260  26.180   7.053
 8525POPC   C4B45790  31.248  26.186   7.353
 8526POPC   NC345791  17.546  25.310   5.553
 8526POPC   PO445792  17.489  25.259   5.853
 8526POPC   GL145793  17.537  25.275   6.153
 8526POPC   GL245794  17.396  25.387   6.153
 8526POPC   C1A45795  17.499  25.275   6.453
 8526POPC   D2A45796  17.491  25.229   6.753
 8526POPC   C3A45797  17.514  25.272   7.053
 8526POPC   C4A45798  17.540  25.223   7.353
 8526POPC   C1B45799  17.297  25.406   6.453
 8526POPC   C2B45800  17.348  25.373   6.753
 8526POPC   C3B45801  17.352  25.422   7.053
 8526POPC   C4B45802  17.349  25.424   7.353
 8527POPC   NC345803  21.374  26.033   5.553
 8527POPC   PO445804  21.388  26.006   5.853
 8527POPC   GL145805  21.369  26.085   6.153
 8527POPC   GL245806  21.254  26.097   6.153
 8527POPC   C1A45807  21.435  26.005   6.453
 8527POPC   D2A45808  21.385  26.089   6.753
 8527POPC   C3A45809  21.420  26.046   7.053
 8527POPC   C4A45810  21.436  26.029   7.353
 8527POPC   C1B45811  21.184  26.123   6.453
 8527POPC   C2B45812  21.096  26.143   6.753
 8527POPC   C3B45813  21.121  26.134   7.053
 8527POPC   C4B45814  21.102  26.151   7.353
 8528POPC   NC345815   2.735  22.962   5.553
 8528POPC   PO445816   2.763  22.902   5.853
 8528POPC   GL145817   2.720  22.935   6.153
 8528POPC   GL245818   2.779  22.782   6.153
 8528POPC   C1A45819   2.739  22.949   6.453
 8528POPC   D2A45820   2.719  22.964   6.753
 8528POPC   C3A45821   2.806  22.929   7.053
 8528POPC   C4A45822   2.815  22.924   7.353
 8528POPC   C1B45823   2.860  22.771   6.453
 8528POPC   C2B45824   2.871  22.706   6.753
 8528POPC   C3B45825   2.864  22.731   7.053
 8528POPC   C4B45826   2.935  22.760   7.353
 8529POPC   NC345827   8.191  36.910   5.553
 8529POPC   PO445828   8.154  36.931   5.853
 8529POPC   GL145829   8.243  36.948   6.153
 8529POPC   GL245830   8.214  37.007   6.153
 8529POPC   C1A45831   8.148  36.906   6.453
 8529POPC   D2A45832   8.229  36.889   6.753
 8529POPC   C3A45833   8.155  36.887   7.053
 8529POPC   C4A45834   8.185  36.901   7.353
 8529POPC   C1B45835   8.200  37.111   6.453
 8529POPC   C2B45836   8.192  37.121   6.753
 8529POPC   C3B45837   8.221  37.139   7.053
 8529POPC   C4B45838   8.249  37.148   7.353
 8530POPC   NC345839  17.547   6.664   5.553
 8530POPC   PO445840  17.467   6.693   5.853
 8530POPC   GL145841  17.512   6.692   6.153
 8530POPC   GL245842  17.615   6.573   6.153
 8530POPC   C1A45843  17.543   6.644   6.453
 8530POPC   D2A45844  17.462   6.670   6.753
 8530POPC   C3A45845  17.526   6.627   7.053
 8530POPC   C4A45846  17.546   6.629   7.353
 8530POPC   C1B45847  17.747   6.493   6.453
 8530POPC   C2B45848  17.684   6.524   6.753
 8530POPC   C3B45849  17.740   6.505   7.053
 8530POPC   C4B45850  17.774   6.516   7.353
 8531POPC   NC345851  29.878  26.830   5.553
 8531POPC   PO445852  29.905  26.781   5.853
 8531POPC   GL145853  29.937  26.788   6.153
 8531POPC   GL245854  29.817  26.766   6.153
 8531POPC   C1A45855  29.876  26.823   6.453
 8531POPC   D2A45856  29.923  26.787   6.753
 8531POPC   C3A45857  29.894  26.784   7.053
 8531POPC   C4A45858  29.872  26.806   7.353
 8531POPC   C1B45859  29.711  26.717   6.453
 8531POPC   C2B45860  29.721  26.786   6.753
 8531POPC   C3B45861  29.649  26.777   7.053
 8531POPC   C4B45862  29.663  26.718   7.353
 8532POPC   NC345863   5.066  39.194   5.553
 8532POPC   PO445864   5.076  39.206   5.853
 8532POPC   GL145865   5.114  39.213   6.153
 8532POPC   GL245866   5.047  39.074   6.153
 8532POPC   C1A45867   5.097  39.197   6.453
 8532POPC   D2A45868   5.117  39.258   6.753
 8532POPC   C3A45869   5.045  39.227   7.053
 8532POPC   C4A45870   5.048  39.232   7.353
 8532POPC   C1B45871   4.938  38.978   6.453
 8532POPC   C2B45872   4.987  39.029   6.753
 8532POPC   C3B45873   4.954  39.041   7.053
 8532POPC   C4B45874   4.961  38.981   7.353
 8533POPC   NC345875   4.306  21.371   5.553
 8533POPC   PO445876   4.288  21.403   5.853
 8533POPC   GL145877   4.349  21.427   6.153
 8533POPC   GL245878   4.464  21.364   6.153
 8533POPC   C1A45879   4.296  21.371   6.453
 8533POPC   D2A45880   4.349  21.371   6.753
 8533POPC   C3A45881   4.340  21.431   7.053
 8533POPC   C4A45882   4.268  21.426   7.353
 8533POPC   C1B45883   4.597  21.395   6.453
 8533POPC   C2B45884   4.569  21.395   6.753
 8533POPC   C3B45885   4.604  21.419   7.053
 8533POPC   C4B45886   4.575  21.391   7.353
 8534POPC   NC345887   8.222  12.087   5.553
 8534POPC   PO445888   8.147  12.092   5.853
 8534POPC   GL145889   8.232  12.027   6.153
 8534POPC   GL245890   8.241  12.194   6.153
 8534POPC   C1A45891   8.186  12.087   6.453
 8534POPC   D2A45892   8.237  12.045   6.753
 8534POPC   C3A45893   8.245  12.117   7.053
 8534POPC   C4A45894   8.176  12.054   7.353
 8534POPC   C1B45895   8.410  12.194   6.453
 8534POPC   C2B45896   8.374  12.280   6.753
 8534POPC   C3B45897   8.389  12.281   7.053
 8534POPC   C4B45898   8.343  12.199   7.353
 8535POPC   NC345899   1.197  18.291   5.553
 8535POPC   PO445900   1.176  18.262   5.853
 8535POPC   GL145901   1.214  18.272   6.153
 8535POPC   GL245902   1.351  18.180   6.153
 8535POPC   C1A45903   1.201  18.254   6.453
 8535POPC   D2A45904   1.210  18.315   6.753
 8535POPC   C3A45905   1.202  18.266   7.053
 8535POPC   C4A45906   1.251  18.234   7.353
 8535POPC   C1B45907   1.463  18.110   6.453
 8535POPC   C2B45908   1.423  18.120   6.753
 8535POPC   C3B45909   1.381  18.141   7.053
 8535POPC   C4B45910   1.410  18.163   7.353
 8536POPC   NC345911  32.985  40.008   5.553
 8536POPC   PO445912  33.028  39.961   5.853
 8536POPC   GL145913  33.053  40.036   6.153
 8536POPC   GL245914  33.007  40.131   6.153
 8536POPC   C1A45915  32.987  39.966   6.453
 8536POPC   D2A45916  33.029  39.959   6.753
 8536POPC   C3A45917  33.046  40.032   7.053
 8536POPC   C4A45918  33.052  39.996   7.353
 8536POPC   C1B45919  33.019  40.220   6.453
 8536POPC   C2B45920  32.993  40.303   6.753
 8536POPC   C3B45921  32.957  40.289   7.053
 8536POPC   C4B45922  32.939  40.208   7.353
 8537POPC   NC345923   8.987  24.509   5.553
 8537POPC   PO445924   8.968  24.485   5.853
 8537POPC   GL145925   8.933  24.468   6.153
 8537POPC   GL245926   8.956  24.347   6.153
 8537POPC   C1A45927   8.985  24.504   6.453
 8537POPC   D2A45928   8.998  24.476   6.753
 8537POPC   C3A45929   8.950  24.445   7.053
 8537POPC   C4A45930   9.000  24.528   7.353
 8537POPC   C1B45931   8.964  24.235   6.453
 8537POPC   C2B45932   8.953  24.269   6.753
 8537POPC   C3B45933   8.948  24.200   7.053
 8537POPC   C4B45934   9.021  24.254   7.353
 8538POPC   NC345935  39.223  26.808   5.553
 8538POPC   PO445936  39.254  26.827   5.853
 8538POPC   GL145937  39.220  26.805   6.153
 8538POPC   GL245938  39.155  26.931   6.153
 8538POPC   C1A45939  39.193  26.852   6.453
 8538POPC   D2A45940  39.247  26.782   6.753
 8538POPC   C3A45941  39.199  26.819   7.053
 8538POPC   C4A45942  39.279  26.823   7.353
 8538POPC   C1B45943  39.186  27.094   6.453
 8538POPC   C2B45944  39.115  27.048   6.753
 8538POPC   C3B45945  39.116  27.054   7.053
 8538POPC   C4B45946  39.183  27.070   7.353
 8539POPC   NC345947  15.209  17.462   5.553
 8539POPC   PO445948  15.170  17.485   5.853
 8539POPC   GL145949  15.147  17.524   6.153
 8539POPC   GL245950  15.263  17.378   6.153
 8539POPC   C1A45951  15.178  17.527   6.453
 8539POPC   D2A45952  15.186  17.518   6.753
 8539POPC   C3A45953  15.176  17.517   7.053
 8539POPC   C4A45954  15.209  17.540   7.353
 8539POPC   C1B45955  15.285  17.314   6.453
 8539POPC   C2B45956  15.224  17.252   6.753
 8539POPC   C3B45957  15.290  17.272   7.053
 8539POPC   C4B45958  15.301  17.273   7.353
 8540POPC   NC345959  25.251  32.202   5.553
 8540POPC   PO445960  25.245  32.246   5.853
 8540POPC   GL145961  25.239  32.282   6.153
 8540POPC   GL245962  25.386  32.324   6.153
 8540POPC   C1A45963  25.262  32.268   6.453
 8540POPC   D2A45964  25.256  32.222   6.753
 8540POPC   C3A45965  25.225  32.274   7.053
 8540POPC   C4A45966  25.306  32.256   7.353
 8540POPC   C1B45967  25.470  32.408   6.453
 8540POPC   C2B45968  25.466  32.418   6.753
 8540POPC   C3B45969  25.403  32.451   7.053
 8540POPC   C4B45970  25.488  32.411   7.353
 8541POPC   NC345971  13.599  12.817   5.553
 8541POPC   PO445972  13.586  12.892   5.853
 8541POPC   GL145973  13.588  12.872   6.153
 8541POPC   GL245974  13.724  12.911   6.153
 8541POPC   C1A45975  13.619  12.872   6.453
 8541POPC   D2A45976  13.601  12.811   6.753
 8541POPC   C3A45977  13.619  12.899   7.053
 8541POPC   C4A45978  13.640  12.902   7.353
 8541POPC   C1B45979  13.901  12.933   6.453
 8541POPC   C2B45980  13.885  12.956   6.753
 8541POPC   C3B45981  13.830  12.964   7.053
 8541POPC   C4B45982  13.883  12.963   7.353
 8542POPC   NC345983   2.031  42.312   5.553
 8542POPC   PO445984   1.963  42.368   5.853
 8542POPC   GL145985   1.965  42.384   6.153
 8542POPC   GL245986   1.856  42.335   6.153
 8542POPC   C1A45987   1.988  42.294   6.453
 8542POPC   D2A45988   2.014  42.355   6.753
 8542POPC   C3A45989   1.946  42.291   7.053
 8542POPC   C4A45990   2.032  42.368   7.353
 8542POPC   C1B45991   1.780  42.311   6.453
 8542POPC   C2B45992   1.734  42.279   6.753
 8542POPC   C3B45993   1.774  42.340   7.053
 8542POPC   C4B45994   1.692  42.262   7.353
 8543POPC   NC345995  13.647   5.132   5.553
 8543POPC   PO445996  13.623   5.080   5.853
 8543POPC   GL145997  13.608   5.046   6.153
 8543POPC   GL245998  13.766   5.151   6.153
 8543POPC   C1A45999  13.620   5.123   6.453
 8543POPC   D2A46000  13.674   5.133   6.753
 8543POPC   C3A46001  13.621   5.092   7.053
 8543POPC   C4A46002  13.624   5.105   7.353
 8543POPC   C1B46003  13.794   5.287   6.453
 8543POPC   C2B46004  13.855   5.261   6.753
 8543POPC   C3B46005  13.843   5.274   7.053
 8543POPC   C4B46006  13.838   5.203   7.353
 8544POPC   NC346007   4.357  39.967   5.553
 8544POPC   PO446008   4.327  40.008   5.853
 8544POPC   GL146009   4.341  39.981   6.153
 8544POPC   GL246010   4.182  39.962   6.153
 8544POPC   C1A46011   4.343  39.992   6.453
 8544POPC   D2A46012   4.362  39.990   6.753
 8544POPC   C3A46013   4.328  40.009   7.053
 8544POPC   C4A46014   4.326  40.042   7.353
 8544POPC   C1B46015   4.046  39.963   6.453
 8544POPC   C2B46016   4.108  39.950   6.753
 8544POPC   C3B46017   4.108  40.028   7.053
 8544POPC   C4B46018   4.108  40.016   7.353
 8545POPC   NC346019  28.406  25.232   5.553
 8545POPC   PO446020  28.337  25.286   5.853
 8545POPC   GL146021  28.331  25.238   6.153
 8545POPC   GL246022  28.432  25.401   6.153
 8545POPC   C1A46023  28.370  25.270   6.453
 8545POPC   D2A46024  28.320  25.252   6.753
 8545POPC   C3A46025  28.355  25.247   7.053
 8545POPC   C4A46026  28.330  25.216   7.353
 8545POPC   C1B46027  28.485  25.467   6.453
 8545POPC   C2B46028  28.490  25.516   6.753
 8545POPC   C3B46029  28.488  25.513   7.053
 8545POPC   C4B46030  28.513  25.503   7.353
 8546POPC   NC346031  37.641  44.646   5.553
 8546POPC   PO446032  37.690  44.652   5.853
 8546POPC   GL146033  37.640  44.691   6.153
 8546POPC   GL246034  37.619  44.734   6.153
 8546POPC   C1A46035  37.635  44.650   6.453
 8546POPC   D2A46036  37.703  44.669   6.753
 8546POPC   C3A46037  37.651  44.616   7.053
 8546POPC   C4A46038  37.679  44.634   7.353
 8546POPC   C1B46039  37.616  44.919   6.453
 8546POPC   C2B46040  37.606  44.865   6.753
 8546POPC   C3B46041  37.588  44.922   7.053
 8546POPC   C4B46042  37.548  44.934   7.353
 8547POPC   NC346043  33.834  10.571   5.553
 8547POPC   PO446044  33.821  10.533   5.853
 8547POPC   GL146045  33.769  10.529   6.153
 8547POPC   GL246046  33.841  10.406   6.153
 8547POPC   C1A46047  33.760  10.551   6.453
 8547POPC   D2A46048  33.847  10.533   6.753
 8547POPC   C3A46049  33.831  10.549   7.053
 8547POPC   C4A46050  33.760  10.502   7.353
 8547POPC   C1B46051  33.940  10.302   6.453
 8547POPC   C2B46052  33.940  10.313   6.753
 8547POPC   C3B46053  33.884  10.290   7.053
 8547POPC   C4B46054  33.879  10.347   7.353
 8548POPC   NC346055  26.013  42.369   5.553
 8548POPC   PO446056  25.993  42.338   5.853
 8548POPC   GL146057  25.992  42.361   6.153
 8548POPC   GL246058  25.894  42.256   6.153
 8548POPC   C1A46059  26.080  42.382   6.453
 8548POPC   D2A46060  25.998  42.321   6.753
 8548POPC   C3A46061  25.993  42.315   7.053
 8548POPC   C4A46062  26.049  42.378   7.353
 8548POPC   C1B46063  25.779  42.210   6.453
 8548POPC   C2B46064  25.798  42.195   6.753
 8548POPC   C3B46065  25.761  42.268   7.053
 8548POPC   C4B46066  25.794  42.215   7.353
 8549POPC   NC346067  14.360  11.286   5.553
 8549POPC   PO446068  14.363  11.286   5.853
 8549POPC   GL146069  14.419  11.335   6.153
 8549POPC   GL246070  14.472  11.442   6.153
 8549POPC   C1A46071  14.396  11.264   6.453
 8549POPC   D2A46072  14.365  11.265   6.753
 8549POPC   C3A46073  14.404  11.315   7.053
 8549POPC   C4A46074  14.406  11.340   7.353
 8549POPC   C1B46075  14.522  11.536   6.453
 8549POPC   C2B46076  14.463  11.530   6.753
 8549POPC   C3B46077  14.474  11.555   7.053
 8549POPC   C4B46078  14.507  11.522   7.353
 8550POPC   NC346079  39.234   5.843   5.553
 8550POPC   PO446080  39.245   5.857   5.853
 8550POPC   GL146081  39.189   5.881   6.153
 8550POPC   GL246082  39.257   5.756   6.153
 8550POPC   C1A46083  39.247   5.905   6.453
 8550POPC   D2A46084  39.239   5.879   6.753
 8550POPC   C3A46085  39.248   5.834   7.053
 8550POPC   C4A46086  39.190   5.918   7.353
 8550POPC   C1B46087  39.249   5.630   6.453
 8550POPC   C2B46088  39.163   5.634   6.753
 8550POPC   C3B46089  39.189   5.649   7.053
 8550POPC   C4B46090  39.234   5.612   7.353
 8551POPC   NC346091   2.020  36.941   5.553
 8551POPC   PO446092   2.016  36.929   5.853
 8551POPC   GL146093   1.957  36.900   6.153
 8551POPC   GL246094   1.889  36.800   6.153
 8551POPC   C1A46095   2.033  36.949   6.453
 8551POPC   D2A46096   1.969  36.882   6.753
 8551POPC   C3A46097   2.008  36.935   7.053
 8551POPC   C4A46098   2.027  36.871   7.353
 8551POPC   C1B46099   1.823  36.760   6.453
 8551POPC   C2B46100   1.733  36.729   6.753
 8551POPC   C3B46101   1.803  36.769   7.053
 8551POPC   C4B46102   1.787  36.816   7.353
 8552POPC   NC346103  18.235   1.213   5.553
 8552POPC   PO446104  18.283   1.208   5.853
 8552POPC   GL146105  18.248   1.195   6.153
 8552POPC   GL246106  18.368   1.127   6.153
 8552POPC   C1A46107  18.299   1.165   6.453
 8552POPC   D2A46108  18.286   1.218   6.753
 8552POPC   C3A46109  18.276   1.181   7.053
 8552POPC   C4A46110  18.311   1.262   7.353
 8552POPC   C1B46111  18.530   1.051   6.453
 8552POPC   C2B46112  18.467   1.082   6.753
 8552POPC   C3B46113  18.442   1.121   7.053
 8552POPC   C4B46114  18.514   1.025   7.353
 8553POPC   NC346115  26.041   2.767   5.553
 8553POPC   PO446116  26.065   2.785   5.853
 8553POPC   GL146117  26.062   2.770   6.153
 8553POPC   GL246118  25.894   2.836   6.153
 8553POPC   C1A46119  26.057   2.729   6.453
 8553POPC   D2A46120  26.000   2.726   6.753
 8553POPC   C3A46121  26.062   2.752   7.053
 8553POPC   C4A46122  26.052   2.747   7.353
 8553POPC   C1B46123  25.861   2.827   6.453
 8553POPC   C2B46124  25.788   2.832   6.753
 8553POPC   C3B46125  25.791   2.817   7.053
 8553POPC   C4B46126  25.850   2.907   7.353
 8554POPC   NC346127  15.976  30.704   5.553
 8554POPC   PO446128  15.922  30.670   5.853
 8554POPC   GL146129  15.962  30.708   6.153
 8554POPC   GL246130  15.790  30.691   6.153
 8554POPC   C1A46131  15.965  30.660   6.453
 8554POPC   D2A46132  15.999  30.671   6.753
 8554POPC   C3A46133  15.958  30.724   7.053
 8554POPC   C4A46134  15.907  30.693   7.353
 8554POPC   C1B46135  15.730  30.692   6.453
 8554POPC   C2B46136  15.737  30.629   6.753
 8554POPC   C3B46137  15.724  30.623   7.053
 8554POPC   C4B46138  15.667  30.661   7.353
 8555POPC   NC346139  22.928  41.561   5.553
 8555POPC   PO446140  22.928  41.594   5.853
 8555POPC   GL146141  22.963  41.547   6.153
 8555POPC   GL246142  23.025  41.561   6.153
 8555POPC   C1A46143  22.954  41.510   6.453
 8555POPC   D2A46144  22.972  41.596   6.753
 8555POPC   C3A46145  22.909  41.510   7.053
 8555POPC   C4A46146  22.949  41.512   7.353
 8555POPC   C1B46147  23.215  41.695   6.453
 8555POPC   C2B46148  23.136  41.668   6.753
 8555POPC   C3B46149  23.154  41.642   7.053
 8555POPC   C4B46150  23.171  41.694   7.353
 8556POPC   NC346151   6.653  29.182   5.553
 8556POPC   PO446152   6.605  29.176   5.853
 8556POPC   GL146153   6.646  29.157   6.153
 8556POPC   GL246154   6.745  29.063   6.153
 8556POPC   C1A46155   6.668  29.148   6.453
 8556POPC   D2A46156   6.650  29.116   6.753
 8556POPC   C3A46157   6.663  29.177   7.053
 8556POPC   C4A46158   6.694  29.144   7.353
 8556POPC   C1B46159   6.843  28.896   6.453
 8556POPC   C2B46160   6.757  28.994   6.753
 8556POPC   C3B46161   6.756  28.933   7.053
 8556POPC   C4B46162   6.803  28.930   7.353
 8557POPC   NC346163  19.108  10.478   5.553
 8557POPC   PO446164  19.065  10.573   5.853
 8557POPC   GL146165  19.076  10.498   6.153
 8557POPC   GL246166  19.147  10.369   6.153
 8557POPC   C1A46167  19.075  10.483   6.453
 8557POPC   D2A46168  19.085  10.532   6.753
 8557POPC   C3A46169  19.051  10.520   7.053
 8557POPC   C4A46170  19.055  10.510   7.353
 8557POPC   C1B46171  19.207  10.273   6.453
 8557POPC   C2B46172  19.127  10.312   6.753
 8557POPC   C3B46173  19.188  10.293   7.053
 8557POPC   C4B46174  19.150  10.279   7.353
 8558POPC   NC346175  16.776  17.538   5.553
 8558POPC   PO446176  16.773  17.549   5.853
 8558POPC   GL146177  16.734  17.484   6.153
 8558POPC   GL246178  16.825  17.553   6.153
 8558POPC   C1A46179  16.699  17.553   6.453
 8558POPC   D2A46180  16.715  17.471   6.753
 8558POPC   C3A46181  16.691  17.542   7.053
 8558POPC   C4A46182  16.721  17.546   7.353
 8558POPC   C1B46183  16.946  17.610   6.453
 8558POPC   C2B46184  16.922  17.615   6.753
 8558POPC   C3B46185  16.961  17.582   7.053
 8558POPC   C4B46186  16.989  17.549   7.353
 8559POPC   NC346187  22.135  27.554   5.553
 8559POPC   PO446188  22.183  27.566   5.853
 8559POPC   GL146189  22.171  27.606   6.153
 8559POPC   GL246190  22.098  27.690   6.153
 8559POPC   C1A46191  22.163  27.551   6.453
 8559POPC   D2A46192  22.134  27.595   6.753
 8559POPC   C3A46193  22.181  27.630   7.053
 8559POPC   C4A46194  22.192  27.579   7.353
 8559POPC   C1B46195  22.070  27.778   6.453
 8559POPC   C2B46196  22.066  27.821   6.753
 8559POPC   C3B46197  22.007  27.863   7.053
 8559POPC   C4B46198  22.090  27.823   7.353
 8560POPC   NC346199   3.528   9.019   5.553
 8560POPC   PO446200   3.563   9.015   5.853
 8560POPC   GL146201   3.569   8.985   6.153
 8560POPC   GL246202   3.685   9.030   6.153
 8560POPC   C1A46203   3.508   9.008   6.453
 8560POPC   D2A46204   3.555   8.964   6.753
 8560POPC   C3A46205   3.540   8.959   7.053
 8560POPC   C4A46206   3.591   8.989   7.353
 8560POPC   C1B46207   3.746   9.056   6.453
 8560POPC   C2B46208   3.745   8.979   6.753
 8560POPC   C3B46209   3.775   9.002   7.053
 8560POPC   C4B46210   3.829   9.046   7.353
 8561POPC   NC346211  39.257  36.157   5.553
 8561POPC   PO446212  39.235  36.127   5.853
 8561POPC   GL146213  39.275  36.103   6.153
 8561POPC   GL246214  39.309  36.220   6.153
 8561POPC   C1A46215  39.199  36.136   6.453
 8561POPC   D2A46216  39.214  36.165   6.753
 8561POPC   C3A46217  39.211  36.141   7.053
 8561POPC   C4A46218  39.210  36.134   7.353
 8561POPC   C1B46219  39.288  36.347   6.453
 8561POPC   C2B46220  39.303  36.342   6.753
 8561POPC   C3B46221  39.273  36.313   7.053
 8561POPC   C4B46222  39.356  36.314   7.353
 8562POPC   NC346223  14.376  29.873   5.553
 8562POPC   PO446224  14.364  29.901   5.853
 8562POPC   GL146225  14.383  29.938   6.153
 8562POPC   GL246226  14.232  29.937   6.153
 8562POPC   C1A46227  14.432  29.918   6.453
 8562POPC   D2A46228  14.356  29.956   6.753
 8562POPC   C3A46229  14.438  29.960   7.053
 8562POPC   C4A46230  14.441  29.889   7.353
 8562POPC   C1B46231  14.195  29.922   6.453
 8562POPC   C2B46232  14.124  29.936   6.753
 8562POPC   C3B46233  14.196  29.924   7.053
 8562POPC   C4B46234  14.123  29.864   7.353
 8563POPC   NC346235  33.023  28.416   5.553
 8563POPC   PO446236  32.999  28.396   5.853
 8563POPC   GL146237  32.997  28.337   6.153
 8563POPC   GL246238  33.121  28.427   6.153
 8563POPC   C1A46239  32.974  28.353   6.453
 8563POPC   D2A46240  32.979  28.370   6.753
 8563POPC   C3A46241  33.010  28.412   7.053
 8563POPC   C4A46242  33.053  28.349   7.353
 8563POPC   C1B46243  33.184  28.602   6.453
 8563POPC   C2B46244  33.213  28.532   6.753
 8563POPC   C3B46245  33.185  28.530   7.053
 8563POPC   C4B46246  33.133  28.606   7.353
 8564POPC   NC346247  36.090   3.518   5.553
 8564POPC   PO446248  36.097   3.576   5.853
 8564POPC   GL146249  36.157   3.574   6.153
 8564POPC   GL246250  36.137   3.708   6.153
 8564POPC   C1A46251  36.107   3.505   6.453
 8564POPC   D2A46252  36.078   3.557   6.753
 8564POPC   C3A46253  36.139   3.519   7.053
 8564POPC   C4A46254  36.092   3.584   7.353
 8564POPC   C1B46255  36.168   3.813   6.453
 8564POPC   C2B46256  36.169   3.773   6.753
 8564POPC   C3B46257  36.171   3.802   7.053
 8564POPC   C4B46258  36.109   3.788   7.353
 8565POPC   NC346259  43.148  31.521   5.553
 8565POPC   PO446260  43.147  31.439   5.853
 8565POPC   GL146261  43.086  31.462   6.153
 8565POPC   GL246262  43.202  31.410   6.153
 8565POPC   C1A46263  43.079  31.456   6.453
 8565POPC   D2A46264  43.061  31.519   6.753
 8565POPC   C3A46265  43.144  31.516   7.053
 8565POPC   C4A46266  43.102  31.474   7.353
 8565POPC   C1B46267  43.359  31.342   6.453
 8565POPC   C2B46268  43.347  31.305   6.753
 8565POPC   C3B46269  43.307  31.378   7.053
 8565POPC   C4B46270  43.377  31.373   7.353
 8566POPC   NC346271  20.622  22.162   5.553
 8566POPC   PO446272  20.658  22.123   5.853
 8566POPC   GL146273  20.651  22.209   6.153
 8566POPC   GL246274  20.683  22.105   6.153
 8566POPC   C1A46275  20.620  22.161   6.453
 8566POPC   D2A46276  20.626  22.146   6.753
 8566POPC   C3A46277  20.627  22.158   7.053
 8566POPC   C4A46278  20.586  22.168   7.353
 8566POPC   C1B46279  20.791  21.972   6.453
 8566POPC   C2B46280  20.798  22.001   6.753
 8566POPC   C3B46281  20.785  22.007   7.053
 8566POPC   C4B46282  20.807  22.041   7.353
 8567POPC   NC346283  17.531  35.358   5.553
 8567POPC   PO446284  17.546  35.314   5.853
 8567POPC   GL146285  17.546  35.399   6.153
 8567POPC   GL246286  17.615  35.268   6.153
 8567POPC   C1A46287  17.555  35.331   6.453
 8567POPC   D2A46288  17.549  35.386   6.753
 8567POPC   C3A46289  17.543  35.338   7.053
 8567POPC   C4A46290  17.457  35.380   7.353
 8567POPC   C1B46291  17.703  35.161   6.453
 8567POPC   C2B46292  17.709  35.159   6.753
 8567POPC   C3B46293  17.647  35.132   7.053
 8567POPC   C4B46294  17.665  35.165   7.353
 8568POPC   NC346295   6.640  16.719   5.553
 8568POPC   PO446296   6.670  16.707   5.853
 8568POPC   GL146297   6.613  16.772   6.153
 8568POPC   GL246298   6.506  16.621   6.153
 8568POPC   C1A46299   6.618  16.683   6.453
 8568POPC   D2A46300   6.643  16.710   6.753
 8568POPC   C3A46301   6.672  16.719   7.053
 8568POPC   C4A46302   6.694  16.733   7.353
 8568POPC   C1B46303   6.430  16.605   6.453
 8568POPC   C2B46304   6.416  16.553   6.753
 8568POPC   C3B46305   6.444  16.534   7.053
 8568POPC   C4B46306   6.450  16.574   7.353
 8569POPC   NC346307  36.117  22.966   5.553
 8569POPC   PO446308  36.139  22.935   5.853
 8569POPC   GL146309  36.126  22.936   6.153
 8569POPC   GL246310  36.232  22.830   6.153
 8569POPC   C1A46311  36.105  22.950   6.453
 8569POPC   D2A46312  36.120  22.940   6.753
 8569POPC   C3A46313  36.119  22.985   7.053
 8569POPC   C4A46314  36.103  22.889   7.353
 8569POPC   C1B46315  36.251  22.724   6.453
 8569POPC   C2B46316  36.255  22.742   6.753
 8569POPC   C3B46317  36.282  22.752   7.053
 8569POPC   C4B46318  36.206  22.671   7.353
 8570POPC   NC346319  17.535  16.765   5.553
 8570POPC   PO446320  17.545  16.752   5.853
 8570POPC   GL146321  17.541  16.689   6.153
 8570POPC   GL246322  17.359  16.664   6.153
 8570POPC   C1A46323  17.509  16.683   6.453
 8570POPC   D2A46324  17.460  16.715   6.753
 8570POPC   C3A46325  17.505  16.685   7.053
 8570POPC   C4A46326  17.507  16.723   7.353
 8570POPC   C1B46327  17.306  16.645   6.453
 8570POPC   C2B46328  17.306  16.590   6.753
 8570POPC   C3B46329  17.238  16.580   7.053
 8570POPC   C4B46330  17.326  16.628   7.353
 8571POPC   NC346331   9.702  15.213   5.553
 8571POPC   PO446332   9.743  15.183   5.853
 8571POPC   GL146333   9.768  15.162   6.153
 8571POPC   GL246334   9.902  15.154   6.153
 8571POPC   C1A46335   9.726  15.169   6.453
 8571POPC   D2A46336   9.756  15.190   6.753
 8571POPC   C3A46337   9.718  15.165   7.053
 8571POPC   C4A46338   9.742  15.227   7.353
 8571POPC   C1B46339   9.970  15.119   6.453
 8571POPC   C2B46340  10.030  15.127   6.753
 8571POPC   C3B46341  10.022  15.120   7.053
 8571POPC   C4B46342   9.975  15.142   7.353
 8572POPC   NC346343   5.820   7.459   5.553
 8572POPC   PO446344   5.876   7.466   5.853
 8572POPC   GL146345   5.845   7.428   6.153
 8572POPC   GL246346   5.852   7.247   6.153
 8572POPC   C1A46347   5.846   7.447   6.453
 8572POPC   D2A46348   5.891   7.394   6.753
 8572POPC   C3A46349   5.867   7.461   7.053
 8572POPC   C4A46350   5.844   7.467   7.353
 8572POPC   C1B46351   5.864   7.126   6.453
 8572POPC   C2B46352   5.805   7.188   6.753
 8572POPC   C3B46353   5.845   7.147   7.053
 8572POPC   C4B46354   5.884   7.175   7.353
 8573POPC   NC346355  13.674  18.265   5.553
 8573POPC   PO446356  13.607  18.293   5.853
 8573POPC   GL146357  13.601  18.285   6.153
 8573POPC   GL246358  13.769  18.222   6.153
 8573POPC   C1A46359  13.589  18.298   6.453
 8573POPC   D2A46360  13.614  18.319   6.753
 8573POPC   C3A46361  13.675  18.291   7.053
 8573POPC   C4A46362  13.647  18.302   7.353
 8573POPC   C1B46363  13.795  18.156   6.453
 8573POPC   C2B46364  13.810  18.118   6.753
 8573POPC   C3B46365  13.832  18.124   7.053
 8573POPC   C4B46366  13.783  18.141   7.353
 8574POPC   NC346367  44.692  12.081   5.553
 8574POPC   PO446368  44.622  12.029   5.853
 8574POPC   GL146369  44.634  12.094   6.153
 8574POPC   GL246370  44.594  11.968   6.153
 8574POPC   C1A46371  44.703  12.033   6.453
 8574POPC   D2A46372  44.631  12.091   6.753
 8574POPC   C3A46373  44.693  12.093   7.053
 8574POPC   C4A46374  44.618  12.063   7.353
 8574POPC   C1B46375  44.524  11.878   6.453
 8574POPC   C2B46376  44.487  11.850   6.753
 8574POPC   C3B46377  44.489  11.845   7.053
 8574POPC   C4B46378  44.557  11.841   7.353
 8575POPC   NC346379   4.310   9.715   5.553
 8575POPC   PO446380   4.354   9.762   5.853
 8575POPC   GL146381   4.315   9.732   6.153
 8575POPC   GL246382   4.308   9.843   6.153
 8575POPC   C1A46383   4.297   9.731   6.453
 8575POPC   D2A46384   4.306   9.786   6.753
 8575POPC   C3A46385   4.295   9.760   7.053
 8575POPC   C4A46386   4.298   9.713   7.353
 8575POPC   C1B46387   4.204   9.986   6.453
 8575POPC   C2B46388   4.217  10.011   6.753
 8575POPC   C3B46389   4.256   9.955   7.053
 8575POPC   C4B46390   4.216   9.993   7.353
 8576POPC   NC346391  36.165  30.730   5.553
 8576POPC   PO446392  36.164  30.648   5.853
 8576POPC   GL146393  36.139  30.673   6.153
 8576POPC   GL246394  36.055  30.815   6.153
 8576POPC   C1A46395  36.104  30.715   6.453
 8576POPC   D2A46396  36.172  30.672   6.753
 8576POPC   C3A46397  36.151  30.692   7.053
 8576POPC   C4A46398  36.114  30.697   7.353
 8576POPC   C1B46399  35.939  30.906   6.453
 8576POPC   C2B46400  35.958  30.922   6.753
 8576POPC   C3B46401  35.955  30.867   7.053
 8576POPC   C4B46402  35.984  30.905   7.353
 8577POPC   NC346403  20.609  37.686   5.553
 8577POPC   PO446404  20.620  37.676   5.853
 8577POPC   GL146405  20.652  37.682   6.153
 8577POPC   GL246406  20.702  37.804   6.153
 8577POPC   C1A46407  20.612  37.675   6.453
 8577POPC   D2A46408  20.643  37.701   6.753
 8577POPC   C3A46409  20.645  37.671   7.053
 8577POPC   C4A46410  20.605  37.650   7.353
 8577POPC   C1B46411  20.706  37.894   6.453
 8577POPC   C2B46412  20.764  37.911   6.753
 8577POPC   C3B46413  20.744  37.923   7.053
 8577POPC   C4B46414  20.699  37.905   7.353
 8578POPC   NC346415  43.140   5.823   5.553
 8578POPC   PO446416  43.071   5.841   5.853
 8578POPC   GL146417  43.085   5.881   6.153
 8578POPC   GL246418  43.039   5.832   6.153
 8578POPC   C1A46419  43.077   5.836   6.453
 8578POPC   D2A46420  43.127   5.893   6.753
 8578POPC   C3A46421  43.110   5.886   7.053
 8578POPC   C4A46422  43.091   5.889   7.353
 8578POPC   C1B46423  42.878   5.698   6.453
 8578POPC   C2B46424  42.865   5.742   6.753
 8578POPC   C3B46425  42.931   5.772   7.053
 8578POPC   C4B46426  42.905   5.699   7.353
 8579POPC   NC346427  36.950  25.305   5.553
 8579POPC   PO446428  36.858  25.251   5.853
 8579POPC   GL146429  36.895  25.229   6.153
 8579POPC   GL246430  36.801  25.203   6.153
 8579POPC   C1A46431  36.854  25.231   6.453
 8579POPC   D2A46432  36.920  25.297   6.753
 8579POPC   C3A46433  36.946  25.286   7.053
 8579POPC   C4A46434  36.953  25.310   7.353
 8579POPC   C1B46435  36.778  25.000   6.453
 8579POPC   C2B46436  36.788  25.024   6.753
 8579POPC   C3B46437  36.825  25.023   7.053
 8579POPC   C4B46438  36.817  25.078   7.353
 8580POPC   NC346439   9.712  19.846   5.553
 8580POPC   PO446440   9.746  19.841   5.853
 8580POPC   GL146441   9.722  19.792   6.153
 8580POPC   GL246442   9.650  19.960   6.153
 8580POPC   C1A46443   9.748  19.883   6.453
 8580POPC   D2A46444   9.793  19.864   6.753
 8580POPC   C3A46445   9.742  19.842   7.053
 8580POPC   C4A46446   9.760  19.838   7.353
 8580POPC   C1B46447   9.584  19.947   6.453
 8580POPC   C2B46448   9.562  20.029   6.753
 8580POPC   C3B46449   9.562  19.977   7.053
 8580POPC   C4B46450   9.531  19.983   7.353
 8581POPC   NC346451  19.822  38.435   5.553
 8581POPC   PO446452  19.883  38.459   5.853
 8581POPC   GL146453  19.790  38.408   6.153
 8581POPC   GL246454  19.820  38.318   6.153
 8581POPC   C1A46455  19.837  38.423   6.453
 8581POPC   D2A46456  19.785  38.453   6.753
 8581POPC   C3A46457  19.801  38.500   7.053
 8581POPC   C4A46458  19.845  38.497   7.353
 8581POPC   C1B46459  19.728  38.198   6.453
 8581POPC   C2B46460  19.768  38.252   6.753
 8581POPC   C3B46461  19.718  38.214   7.053
 8581POPC   C4B46462  19.675  38.276   7.353
 8582POPC   NC346463   0.392  24.538   5.553
 8582POPC   PO446464   0.425  24.531   5.853
 8582POPC   GL146465   0.483  24.459   6.153
 8582POPC   GL246466   0.406  24.610   6.153
 8582POPC   C1A46467   0.431  24.466   6.453
 8582POPC   D2A46468   0.427  24.525   6.753
 8582POPC   C3A46469   0.467  24.531   7.053
 8582POPC   C4A46470   0.443  24.478   7.353
 8582POPC   C1B46471   0.410  24.728   6.453
 8582POPC   C2B46472   0.379  24.759   6.753
 8582POPC   C3B46473   0.438  24.723   7.053
 8582POPC   C4B46474   0.435  24.712   7.353
 8583POPC   NC346475  14.361  25.991   5.553
 8583POPC   PO446476  14.414  26.024   5.853
 8583POPC   GL146477  14.426  26.002   6.153
 8583POPC   GL246478  14.289  26.068   6.153
 8583POPC   C1A46479  14.365  25.996   6.453
 8583POPC   D2A46480  14.354  26.086   6.753
 8583POPC   C3A46481  14.438  25.999   7.053
 8583POPC   C4A46482  14.402  26.001   7.353
 8583POPC   C1B46483  14.168  26.091   6.453
 8583POPC   C2B46484  14.164  26.121   6.753
 8583POPC   C3B46485  14.115  26.128   7.053
 8583POPC   C4B46486  14.151  26.125   7.353
 8584POPC   NC346487  22.964  36.135   5.553
 8584POPC   PO446488  22.982  36.142   5.853
 8584POPC   GL146489  22.903  36.128   6.153
 8584POPC   GL246490  22.848  36.134   6.153
 8584POPC   C1A46491  22.974  36.113   6.453
 8584POPC   D2A46492  22.915  36.154   6.753
 8584POPC   C3A46493  22.948  36.151   7.053
 8584POPC   C4A46494  22.943  36.109   7.353
 8584POPC   C1B46495  22.700  36.136   6.453
 8584POPC   C2B46496  22.652  36.136   6.753
 8584POPC   C3B46497  22.655  36.092   7.053
 8584POPC   C4B46498  22.651  36.147   7.353
 8585POPC   NC346499  44.692   1.982   5.553
 8585POPC   PO446500  44.663   1.973   5.853
 8585POPC   GL146501  44.712   1.982   6.153
 8585POPC   GL246502  44.603   2.050   6.153
 8585POPC   C1A46503  44.663   1.962   6.453
 8585POPC   D2A46504  44.707   1.944   6.753
 8585POPC   C3A46505  44.662   2.029   7.053
 8585POPC   C4A46506  44.673   1.988   7.353
 8585POPC   C1B46507  44.446   2.129   6.453
 8585POPC   C2B46508  44.505   2.162   6.753
 8585POPC   C3B46509  44.491   2.128   7.053
 8585POPC   C4B46510  44.512   2.139   7.353
 8586POPC   NC346511  31.427   6.639   5.553
 8586POPC   PO446512  31.491   6.676   5.853
 8586POPC   GL146513  31.464   6.669   6.153
 8586POPC   GL246514  31.321   6.641   6.153
 8586POPC   C1A46515  31.472   6.614   6.453
 8586POPC   D2A46516  31.437   6.667   6.753
 8586POPC   C3A46517  31.469   6.691   7.053
 8586POPC   C4A46518  31.491   6.610   7.353
 8586POPC   C1B46519  31.270   6.698   6.453
 8586POPC   C2B46520  31.243   6.665   6.753
 8586POPC   C3B46521  31.254   6.715   7.053
 8586POPC   C4B46522  31.257   6.695   7.353
 8587POPC   NC346523  38.480   6.631   5.553
 8587POPC   PO446524  38.425   6.654   5.853
 8587POPC   GL146525  38.432   6.683   6.153
 8587POPC   GL246526  38.359   6.738   6.153
 8587POPC   C1A46527  38.455   6.640   6.453
 8587POPC   D2A46528  38.477   6.620   6.753
 8587POPC   C3A46529  38.406   6.661   7.053
 8587POPC   C4A46530  38.412   6.651   7.353
 8587POPC   C1B46531  38.250   6.778   6.453
 8587POPC   C2B46532  38.194   6.707   6.753
 8587POPC   C3B46533  38.260   6.749   7.053
 8587POPC   C4B46534  38.229   6.708   7.353
 8588POPC   NC346535  39.223  40.823   5.553
 8588POPC   PO446536  39.279  40.784   5.853
 8588POPC   GL146537  39.226  40.761   6.153
 8588POPC   GL246538  39.219  40.853   6.153
 8588POPC   C1A46539  39.210  40.802   6.453
 8588POPC   D2A46540  39.189  40.786   6.753
 8588POPC   C3A46541  39.276  40.771   7.053
 8588POPC   C4A46542  39.279  40.809   7.353
 8588POPC   C1B46543  39.157  40.958   6.453
 8588POPC   C2B46544  39.166  41.048   6.753
 8588POPC   C3B46545  39.166  40.958   7.053
 8588POPC   C4B46546  39.079  40.977   7.353
 8589POPC   NC346547  31.471  33.807   5.553
 8589POPC   PO446548  31.500  33.751   5.853
 8589POPC   GL146549  31.470  33.793   6.153
 8589POPC   GL246550  31.571  33.728   6.153
 8589POPC   C1A46551  31.511  33.762   6.453
 8589POPC   D2A46552  31.495  33.812   6.753
 8589POPC   C3A46553  31.503  33.762   7.053
 8589POPC   C4A46554  31.425  33.839   7.353
 8589POPC   C1B46555  31.602  33.600   6.453
 8589POPC   C2B46556  31.530  33.554   6.753
 8589POPC   C3B46557  31.533  33.618   7.053
 8589POPC   C4B46558  31.582  33.573   7.353
 8590POPC   NC346559  40.032   5.907   5.553
 8590POPC   PO446560  39.987   5.899   5.853
 8590POPC   GL146561  40.052   5.905   6.153
 8590POPC   GL246562  39.902   5.774   6.153
 8590POPC   C1A46563  39.998   5.838   6.453
 8590POPC   D2A46564  40.028   5.878   6.753
 8590POPC   C3A46565  40.036   5.839   7.053
 8590POPC   C4A46566  40.029   5.868   7.353
 8590POPC   C1B46567  39.761   5.699   6.453
 8590POPC   C2B46568  39.781   5.673   6.753
 8590POPC   C3B46569  39.775   5.686   7.053
 8590POPC   C4B46570  39.770   5.746   7.353
 8591POPC   NC346571  29.161  17.507   5.553
 8591POPC   PO446572  29.178  17.508   5.853
 8591POPC   GL146573  29.176  17.492   6.153
 8591POPC   GL246574  29.159  17.628   6.153
 8591POPC   C1A46575  29.095  17.467   6.453
 8591POPC   D2A46576  29.138  17.554   6.753
 8591POPC   C3A46577  29.101  17.548   7.053
 8591POPC   C4A46578  29.158  17.510   7.353
 8591POPC   C1B46579  29.097  17.728   6.453
 8591POPC   C2B46580  29.125  17.779   6.753
 8591POPC   C3B46581  29.141  17.721   7.053
 8591POPC   C4B46582  29.099  17.770   7.353
 8592POPC   NC346583   4.285  43.139   5.553
 8592POPC   PO446584   4.350  43.132   5.853
 8592POPC   GL146585   4.272  43.106   6.153
 8592POPC   GL246586   4.476  43.053   6.153
 8592POPC   C1A46587   4.269  43.079   6.453
 8592POPC   D2A46588   4.305  43.122   6.753
 8592POPC   C3A46589   4.294  43.079   7.053
 8592POPC   C4A46590   4.342  43.120   7.353
 8592POPC   C1B46591   4.515  43.057   6.453
 8592POPC   C2B46592   4.557  43.003   6.753
 8592POPC   C3B46593   4.563  43.055   7.053
 8592POPC   C4B46594   4.511  43.013   7.353
 8593POPC   NC346595  30.702  12.808   5.553
 8593POPC   PO446596  30.736  12.856   5.853
 8593POPC   GL146597  30.696  12.830   6.153
 8593POPC   GL246598  30.604  12.785   6.153
 8593POPC   C1A46599  30.684  12.854   6.453
 8593POPC   D2A46600  30.735  12.888   6.753
 8593POPC   C3A46601  30.690  12.876   7.053
 8593POPC   C4A46602  30.681  12.850   7.353
 8593POPC   C1B46603  30.496  12.785   6.453
 8593POPC   C2B46604  30.486  12.740   6.753
 8593POPC   C3B46605  30.496  12.779   7.053
 8593POPC   C4B46606  30.414  12.792   7.353
 8594POPC   NC346607  42.381  36.175   5.553
 8594POPC   PO446608  42.354  36.100   5.853
 8594POPC   GL146609  42.298  36.127   6.153
 8594POPC   GL246610  42.377  35.993   6.153
 8594POPC   C1A46611  42.306  36.170   6.453
 8594POPC   D2A46612  42.311  36.095   6.753
 8594POPC   C3A46613  42.364  36.146   7.053
 8594POPC   C4A46614  42.294  36.106   7.353
 8594POPC   C1B46615  42.443  35.851   6.453
 8594POPC   C2B46616  42.422  35.917   6.753
 8594POPC   C3B46617  42.461  35.888   7.053
 8594POPC   C4B46618  42.392  35.853   7.353
 8595POPC   NC346619  41.579  20.624   5.553
 8595POPC   PO446620  41.544  20.588   5.853
 8595POPC   GL146621  41.552  20.622   6.153
 8595POPC   GL246622  41.714  20.564   6.153
 8595POPC   C1A46623  41.521  20.570   6.453
 8595POPC   D2A46624  41.546  20.582   6.753
 8595POPC   C3A46625  41.543  20.567   7.053
 8595POPC   C4A46626  41.514  20.627   7.353
 8595POPC   C1B46627  41.756  20.463   6.453
 8595POPC   C2B46628  41.822  20.495   6.753
 8595POPC   C3B46629  41.794  20.487   7.053
 8595POPC   C4B46630  41.826  20.499   7.353
 8596POPC   NC346631  28.352  35.377   5.553
 8596POPC   PO446632  28.408  35.365   5.853
 8596POPC   GL146633  28.391  35.343   6.153
 8596POPC   GL246634  28.455  35.364   6.153
 8596POPC   C1A46635  28.399  35.316   6.453
 8596POPC   D2A46636  28.387  35.367   6.753
 8596POPC   C3A46637  28.400  35.367   7.053
 8596POPC   C4A46638  28.368  35.321   7.353
 8596POPC   C1B46639  28.627  35.262   6.453
 8596POPC   C2B46640  28.625  35.256   6.753
 8596POPC   C3B46641  28.573  35.311   7.053
 8596POPC   C4B46642  28.635  35.293   7.353
 8597POPC   NC346643  36.943  43.863   5.553
 8597POPC   PO446644  36.922  43.876   5.853
 8597POPC   GL146645  36.934  43.904   6.153
 8597POPC   GL246646  36.991  43.787   6.153
 8597POPC   C1A46647  36.940  43.843   6.453
 8597POPC   D2A46648  36.876  43.893   6.753
 8597POPC   C3A46649  36.880  43.891   7.053
 8597POPC   C4A46650  36.925  43.916   7.353
 8597POPC   C1B46651  36.997  43.613   6.453
 8597POPC   C2B46652  36.969  43.642   6.753
 8597POPC   C3B46653  37.028  43.636   7.053
 8597POPC   C4B46654  37.006  43.647   7.353
 8598POPC   NC346655   1.218   7.435   5.553
 8598POPC   PO446656   1.231   7.381   5.853
 8598POPC   GL146657   1.190   7.451   6.153
 8598POPC   GL246658   1.224   7.255   6.153
 8598POPC   C1A46659   1.173   7.372   6.453
 8598POPC   D2A46660   1.224   7.458   6.753
 8598POPC   C3A46661   1.186   7.381   7.053
 8598POPC   C4A46662   1.201   7.413   7.353
 8598POPC   C1B46663   1.187   7.180   6.453
 8598POPC   C2B46664   1.198   7.156   6.753
 8598POPC   C3B46665   1.227   7.128   7.053
 8598POPC   C4B46666   1.252   7.207   7.353
 8599POPC   NC346667  43.149  43.919   5.553
 8599POPC   PO446668  43.082  43.928   5.853
 8599POPC   GL146669  43.066  43.875   6.153
 8599POPC   GL246670  43.162  43.927   6.153
 8599POPC   C1A46671  43.126  43.892   6.453
 8599POPC   D2A46672  43.099  43.881   6.753
 8599POPC   C3A46673  43.111  43.861   7.053
 8599POPC   C4A46674  43.150  43.935   7.353
 8599POPC   C1B46675  43.288  44.028   6.453
 8599POPC   C2B46676  43.341  44.016   6.753
 8599POPC   C3B46677  43.289  44.053   7.053
 8599POPC   C4B46678  43.334  44.049   7.353
 8600POPC   NC346679  31.500  43.858   5.553
 8600POPC   PO446680  31.464  43.903   5.853
 8600POPC   GL146681  31.430  43.876   6.153
 8600POPC   GL246682  31.350  43.902   6.153
 8600POPC   C1A46683  31.473  43.852   6.453
 8600POPC   D2A46684  31.447  43.839   6.753
 8600POPC   C3A46685  31.499  43.920   7.053
 8600POPC   C4A46686  31.444  43.923   7.353
 8600POPC   C1B46687  31.256  43.883   6.453
 8600POPC   C2B46688  31.262  43.896   6.753
 8600POPC   C3B46689  31.268  43.945   7.053
 8600POPC   C4B46690  31.241  43.957   7.353
 8601POPC   NC346691  22.967  38.482   5.553
 8601POPC   PO446692  22.941  38.425   5.853
 8601POPC   GL146693  22.983  38.426   6.153
 8601POPC   GL246694  22.811  38.365   6.153
 8601POPC   C1A46695  22.927  38.484   6.453
 8601POPC   D2A46696  22.944  38.453   6.753
 8601POPC   C3A46697  22.980  38.504   7.053
 8601POPC   C4A46698  22.977  38.501   7.353
 8601POPC   C1B46699  22.747  38.309   6.453
 8601POPC   C2B46700  22.676  38.332   6.753
 8601POPC   C3B46701  22.729  38.349   7.053
 8601POPC   C4B46702  22.679  38.320   7.353
 8602POPC   NC346703   3.521  17.553   5.553
 8602POPC   PO446704   3.502  17.548   5.853
 8602POPC   GL146705   3.544  17.539   6.153
 8602POPC   GL246706   3.568  17.388   6.153
 8602POPC   C1A46707   3.580  17.490   6.453
 8602POPC   D2A46708   3.505  17.473   6.753
 8602POPC   C3A46709   3.532  17.499   7.053
 8602POPC   C4A46710   3.565  17.491   7.353
 8602POPC   C1B46711   3.531  17.267   6.453
 8602POPC   C2B46712   3.585  17.209   6.753
 8602POPC   C3B46713   3.562  17.255   7.053
 8602POPC   C4B46714   3.537  17.283   7.353
 8603POPC   NC346715  19.794  33.763   5.553
 8603POPC   PO446716  19.794  33.756   5.853
 8603POPC   GL146717  19.790  33.843   6.153
 8603POPC   GL246718  19.842  33.884   6.153
 8603POPC   C1A46719  19.870  33.809   6.453
 8603POPC   D2A46720  19.840  33.783   6.753
 8603POPC   C3A46721  19.803  33.757   7.053
 8603POPC   C4A46722  19.850  33.817   7.353
 8603POPC   C1B46723  19.907  33.987   6.453
 8603POPC   C2B46724  19.911  33.989   6.753
 8603POPC   C3B46725  19.956  34.049   7.053
 8603POPC   C4B46726  19.990  33.981   7.353
 8604POPC   NC346727  36.923   3.522   5.553
 8604POPC   PO446728  36.869   3.570   5.853
 8604POPC   GL146729  36.888   3.555   6.153
 8604POPC   GL246730  37.029   3.519   6.153
 8604POPC   C1A46731  36.907   3.530   6.453
 8604POPC   D2A46732  36.863   3.512   6.753
 8604POPC   C3A46733  36.922   3.569   7.053
 8604POPC   C4A46734  36.931   3.568   7.353
 8604POPC   C1B46735  37.148   3.482   6.453
 8604POPC   C2B46736  37.177   3.467   6.753
 8604POPC   C3B46737  37.161   3.428   7.053
 8604POPC   C4B46738  37.169   3.418   7.353
 8605POPC   NC346739  36.913  22.944   5.553
 8605POPC   PO446740  36.930  22.888   5.853
 8605POPC   GL146741  36.862  22.900   6.153
 8605POPC   GL246742  36.954  22.786   6.153
 8605POPC   C1A46743  36.937  22.889   6.453
 8605POPC   D2A46744  36.877  22.931   6.753
 8605POPC   C3A46745  36.914  22.937   7.053
 8605POPC   C4A46746  36.939  22.956   7.353
 8605POPC   C1B46747  37.006  22.696   6.453
 8605POPC   C2B46748  37.072  22.749   6.753
 8605POPC   C3B46749  37.072  22.744   7.053
 8605POPC   C4B46750  37.053  22.706   7.353
 8606POPC   NC346751  18.276  39.987   5.553
 8606POPC   PO446752  18.257  40.001   5.853
 8606POPC   GL146753  18.235  40.050   6.153
 8606POPC   GL246754  18.390  40.144   6.153
 8606POPC   C1A46755  18.266  39.978   6.453
 8606POPC   D2A46756  18.264  40.014   6.753
 8606POPC   C3A46757  18.239  39.979   7.053
 8606POPC   C4A46758  18.314  39.978   7.353
 8606POPC   C1B46759  18.467  40.183   6.453
 8606POPC   C2B46760  18.457  40.155   6.753
 8606POPC   C3B46761  18.427  40.160   7.053
 8606POPC   C4B46762  18.498  40.181   7.353
 8607POPC   NC346763  39.203  12.105   5.553
 8607POPC   PO446764  39.208  12.085   5.853
 8607POPC   GL146765  39.261  12.106   6.153
 8607POPC   GL246766  39.158  12.183   6.153
 8607POPC   C1A46767  39.260  12.052   6.453
 8607POPC   D2A46768  39.197  12.066   6.753
 8607POPC   C3A46769  39.206  12.061   7.053
 8607POPC   C4A46770  39.206  12.032   7.353
 8607POPC   C1B46771  39.026  12.190   6.453
 8607POPC   C2B46772  39.059  12.218   6.753
 8607POPC   C3B46773  39.037  12.247   7.053
 8607POPC   C4B46774  38.992  12.208   7.353
 8608POPC   NC346775  12.848  10.567   5.553
 8608POPC   PO446776  12.826  10.523   5.853
 8608POPC   GL146777  12.838  10.484   6.153
 8608POPC   GL246778  12.918  10.678   6.153
 8608POPC   C1A46779  12.869  10.518   6.453
 8608POPC   D2A46780  12.871  10.477   6.753
 8608POPC   C3A46781  12.839  10.558   7.053
 8608POPC   C4A46782  12.811  10.545   7.353
 8608POPC   C1B46783  12.940  10.783   6.453
 8608POPC   C2B46784  12.959  10.725   6.753
 8608POPC   C3B46785  12.878  10.788   7.053
 8608POPC   C4B46786  12.940  10.810   7.353
 8609POPC   NC346787   4.307  26.841   5.553
 8609POPC   PO446788   4.276  26.840   5.853
 8609POPC   GL146789   4.270  26.796   6.153
 8609POPC   GL246790   4.432  26.787   6.153
 8609POPC   C1A46791   4.351  26.809   6.453
 8609POPC   D2A46792   4.288  26.790   6.753
 8609POPC   C3A46793   4.271  26.846   7.053
 8609POPC   C4A46794   4.338  26.775   7.353
 8609POPC   C1B46795   4.582  26.812   6.453
 8609POPC   C2B46796   4.581  26.771   6.753
 8609POPC   C3B46797   4.609  26.828   7.053
 8609POPC   C4B46798   4.523  26.797   7.353
 8610POPC   NC346799  20.572  38.429   5.553
 8610POPC   PO446800  20.641  38.467   5.853
 8610POPC   GL146801  20.564  38.461   6.153
 8610POPC   GL246802  20.562  38.519   6.153
 8610POPC   C1A46803  20.656  38.426   6.453
 8610POPC   D2A46804  20.604  38.460   6.753
 8610POPC   C3A46805  20.646  38.427   7.053
 8610POPC   C4A46806  20.613  38.453   7.353
 8610POPC   C1B46807  20.447  38.656   6.453
 8610POPC   C2B46808  20.492  38.606   6.753
 8610POPC   C3B46809  20.496  38.615   7.053
 8610POPC   C4B46810  20.412  38.646   7.353
 8611POPC   NC346811  12.846  24.519   5.553
 8611POPC   PO446812  12.809  24.458   5.853
 8611POPC   GL146813  12.836  24.530   6.153
 8611POPC   GL246814  12.867  24.399   6.153
 8611POPC   C1A46815  12.849  24.451   6.453
 8611POPC   D2A46816  12.817  24.504   6.753
 8611POPC   C3A46817  12.874  24.502   7.053
 8611POPC   C4A46818  12.869  24.500   7.353
 8611POPC   C1B46819  12.814  24.246   6.453
 8611POPC   C2B46820  12.751  24.289   6.753
 8611POPC   C3B46821  12.762  24.265   7.053
 8611POPC   C4B46822  12.829  24.252   7.353
 8612POPC   NC346823  11.343  26.047   5.553
 8612POPC   PO446824  11.260  26.044   5.853
 8612POPC   GL146825  11.270  26.060   6.153
 8612POPC   GL246826  11.167  26.009   6.153
 8612POPC   C1A46827  11.335  26.024   6.453
 8612POPC   D2A46828  11.338  26.068   6.753
 8612POPC   C3A46829  11.313  26.050   7.053
 8612POPC   C4A46830  11.253  26.035   7.353
 8612POPC   C1B46831  11.028  26.091   6.453
 8612POPC   C2B46832  11.073  26.065   6.753
 8612POPC   C3B46833  11.007  26.057   7.053
 8612POPC   C4B46834  11.073  26.112   7.353
 8613POPC   NC346835  10.475   8.241   5.553
 8613POPC   PO446836  10.494   8.194   5.853
 8613POPC   GL146837  10.564   8.240   6.153
 8613POPC   GL246838  10.441   8.134   6.153
 8613POPC   C1A46839  10.518   8.153   6.453
 8613POPC   D2A46840  10.509   8.212   6.753
 8613POPC   C3A46841  10.475   8.194   7.053
 8613POPC   C4A46842  10.502   8.226   7.353
 8613POPC   C1B46843  10.344   7.993   6.453
 8613POPC   C2B46844  10.407   7.997   6.753
 8613POPC   C3B46845  10.376   7.964   7.053
 8613POPC   C4B46846  10.407   8.029   7.353
 8614POPC   NC346847   8.976  43.884   5.553
 8614POPC   PO446848   8.925  43.851   5.853
 8614POPC   GL146849   9.000  43.892   6.153
 8614POPC   GL246850   8.933  43.776   6.153
 8614POPC   C1A46851   8.965  43.896   6.453
 8614POPC   D2A46852   8.936  43.894   6.753
 8614POPC   C3A46853   9.001  43.838   7.053
 8614POPC   C4A46854   8.941  43.863   7.353
 8614POPC   C1B46855   8.987  43.598   6.453
 8614POPC   C2B46856   8.943  43.639   6.753
 8614POPC   C3B46857   8.988  43.672   7.053
 8614POPC   C4B46858   9.017  43.589   7.353
 8615POPC   NC346859  34.621  41.593   5.553
 8615POPC   PO446860  34.621  41.557   5.853
 8615POPC   GL146861  34.527  41.594   6.153
 8615POPC   GL246862  34.568  41.425   6.153
 8615POPC   C1A46863  34.626  41.592   6.453
 8615POPC   D2A46864  34.530  41.573   6.753
 8615POPC   C3A46865  34.571  41.547   7.053
 8615POPC   C4A46866  34.537  41.530   7.353
 8615POPC   C1B46867  34.469  41.353   6.453
 8615POPC   C2B46868  34.459  41.333   6.753
 8615POPC   C3B46869  34.456  41.330   7.053
 8615POPC   C4B46870  34.457  41.320   7.353
 8616POPC   NC346871   9.713  19.049   5.553
 8616POPC   PO446872   9.707  19.075   5.853
 8616POPC   GL146873   9.774  19.075   6.153
 8616POPC   GL246874   9.871  19.046   6.153
 8616POPC   C1A46875   9.703  19.085   6.453
 8616POPC   D2A46876   9.725  19.046   6.753
 8616POPC   C3A46877   9.717  19.048   7.053
 8616POPC   C4A46878   9.724  19.105   7.353
 8616POPC   C1B46879   9.978  19.029   6.453
 8616POPC   C2B46880  10.001  19.037   6.753
 8616POPC   C3B46881   9.975  18.985   7.053
 8616POPC   C4B46882   9.964  19.040   7.353
 8617POPC   NC346883  43.145  25.289   5.553
 8617POPC   PO446884  43.145  25.309   5.853
 8617POPC   GL146885  43.102  25.304   6.153
 8617POPC   GL246886  43.189  25.183   6.153
 8617POPC   C1A46887  43.079  25.223   6.453
 8617POPC   D2A46888  43.132  25.315   6.753
 8617POPC   C3A46889  43.081  25.244   7.053
 8617POPC   C4A46890  43.078  25.253   7.353
 8617POPC   C1B46891  43.278  25.111   6.453
 8617POPC   C2B46892  43.284  25.118   6.753
 8617POPC   C3B46893  43.325  25.046   7.053
 8617POPC   C4B46894  43.257  25.105   7.353
 8618POPC   NC346895  33.777  40.020   5.553
 8618POPC   PO446896  33.765  40.000   5.853
 8618POPC   GL146897  33.803  40.052   6.153
 8618POPC   GL246898  33.864  39.859   6.153
 8618POPC   C1A46899  33.782  39.971   6.453
 8618POPC   D2A46900  33.835  39.964   6.753
 8618POPC   C3A46901  33.827  39.977   7.053
 8618POPC   C4A46902  33.831  39.989   7.353
 8618POPC   C1B46903  33.916  39.829   6.453
 8618POPC   C2B46904  33.913  39.847   6.753
 8618POPC   C3B46905  33.972  39.791   7.053
 8618POPC   C4B46906  33.947  39.800   7.353
 8619POPC   NC346907  12.070  29.171   5.553
 8619POPC   PO446908  12.028  29.108   5.853
 8619POPC   GL146909  12.057  29.192   6.153
 8619POPC   GL246910  12.202  29.037   6.153
 8619POPC   C1A46911  12.054  29.156   6.453
 8619POPC   D2A46912  12.123  29.102   6.753
 8619POPC   C3A46913  12.052  29.170   7.053
 8619POPC   C4A46914  12.072  29.159   7.353
 8619POPC   C1B46915  12.244  28.987   6.453
 8619POPC   C2B46916  12.244  28.931   6.753
 8619POPC   C3B46917  12.275  28.997   7.053
 8619POPC   C4B46918  12.239  28.934   7.353
 8620POPC   NC346919  43.916   4.321   5.553
 8620POPC   PO446920  43.900   4.291   5.853
 8620POPC   GL146921  43.924   4.336   6.153
 8620POPC   GL246922  43.801   4.305   6.153
 8620POPC   C1A46923  43.922   4.328   6.453
 8620POPC   D2A46924  43.885   4.283   6.753
 8620POPC   C3A46925  43.918   4.268   7.053
 8620POPC   C4A46926  43.877   4.339   7.353
 8620POPC   C1B46927  43.660   4.313   6.453
 8620POPC   C2B46928  43.590   4.286   6.753
 8620POPC   C3B46929  43.668   4.364   7.053
 8620POPC   C4B46930  43.616   4.287   7.353
 8621POPC   NC346931  17.485  18.291   5.553
 8621POPC   PO446932  17.458  18.328   5.853
 8621POPC   GL146933  17.480  18.261   6.153
 8621POPC   GL246934  17.619  18.381   6.153
 8621POPC   C1A46935  17.522  18.328   6.453
 8621POPC   D2A46936  17.510  18.256   6.753
 8621POPC   C3A46937  17.485  18.325   7.053
 8621POPC   C4A46938  17.462  18.239   7.353
 8621POPC   C1B46939  17.714  18.480   6.453
 8621POPC   C2B46940  17.736  18.436   6.753
 8621POPC   C3B46941  17.716  18.495   7.053
 8621POPC   C4B46942  17.681  18.493   7.353
 8622POPC   NC346943  15.142   9.773   5.553
 8622POPC   PO446944  15.133   9.710   5.853
 8622POPC   GL146945  15.141   9.702   6.153
 8622POPC   GL246946  15.235   9.586   6.153
 8622POPC   C1A46947  15.165   9.743   6.453
 8622POPC   D2A46948  15.169   9.745   6.753
 8622POPC   C3A46949  15.193   9.747   7.053
 8622POPC   C4A46950  15.228   9.743   7.353
 8622POPC   C1B46951  15.245   9.548   6.453
 8622POPC   C2B46952  15.326   9.533   6.753
 8622POPC   C3B46953  15.335   9.483   7.053
 8622POPC   C4B46954  15.310   9.570   7.353
 8623POPC   NC346955  22.892  43.160   5.553
 8623POPC   PO446956  22.975  43.118   5.853
 8623POPC   GL146957  22.955  43.102   6.153
 8623POPC   GL246958  23.070  43.006   6.153
 8623POPC   C1A46959  22.909  43.130   6.453
 8623POPC   D2A46960  22.982  43.121   6.753
 8623POPC   C3A46961  22.891  43.133   7.053
 8623POPC   C4A46962  22.940  43.121   7.353
 8623POPC   C1B46963  23.137  42.968   6.453
 8623POPC   C2B46964  23.095  42.926   6.753
 8623POPC   C3B46965  23.103  42.971   7.053
 8623POPC   C4B46966  23.089  42.927   7.353
 8624POPC   NC346967  21.424   2.781   5.553
 8624POPC   PO446968  21.346   2.790   5.853
 8624POPC   GL146969  21.358   2.736   6.153
 8624POPC   GL246970  21.405   2.653   6.153
 8624POPC   C1A46971  21.399   2.734   6.453
 8624POPC   D2A46972  21.363   2.722   6.753
 8624POPC   C3A46973  21.400   2.751   7.053
 8624POPC   C4A46974  21.379   2.806   7.353
 8624POPC   C1B46975  21.438   2.500   6.453
 8624POPC   C2B46976  21.479   2.572   6.753
 8624POPC   C3B46977  21.497   2.555   7.053
 8624POPC   C4B46978  21.480   2.522   7.353
 8625POPC   NC346979   7.455   9.698   5.553
 8625POPC   PO446980   7.376   9.708   5.853
 8625POPC   GL146981   7.454   9.749   6.153
 8625POPC   GL246982   7.443   9.610   6.153
 8625POPC   C1A46983   7.425   9.753   6.453
 8625POPC   D2A46984   7.384   9.717   6.753
 8625POPC   C3A46985   7.460   9.746   7.053
 8625POPC   C4A46986   7.406   9.766   7.353
 8625POPC   C1B46987   7.520   9.547   6.453
 8625POPC   C2B46988   7.534   9.511   6.753
 8625POPC   C3B46989   7.512   9.521   7.053
 8625POPC   C4B46990   7.593   9.533   7.353
 8626POPC   NC346991  15.997  19.066   5.553
 8626POPC   PO446992  15.924  19.060   5.853
 8626POPC   GL146993  15.987  19.099   6.153
 8626POPC   GL246994  15.915  18.971   6.153
 8626POPC   C1A46995  15.954  19.075   6.453
 8626POPC   D2A46996  15.909  19.037   6.753
 8626POPC   C3A46997  15.912  19.076   7.053
 8626POPC   C4A46998  15.932  19.058   7.353
 8626POPC   C1B46999  15.809  18.816   6.453
 8626POPC   C2B47000  15.834  18.890   6.753
 8626POPC   C3B47001  15.843  18.863   7.053
 8626POPC   C4B47002  15.762  18.868   7.353
 8627POPC   NC347003  24.522  24.501   5.553
 8627POPC   PO447004  24.530  24.513   5.853
 8627POPC   GL147005  24.457  24.458   6.153
 8627POPC   GL247006  24.497  24.611   6.153
 8627POPC   C1A47007  24.494  24.464   6.453
 8627POPC   D2A47008  24.473  24.517   6.753
 8627POPC   C3A47009  24.483  24.468   7.053
 8627POPC   C4A47010  24.498  24.443   7.353
 8627POPC   C1B47011  24.559  24.778   6.453
 8627POPC   C2B47012  24.487  24.771   6.753
 8627POPC   C3B47013  24.571  24.745   7.053
 8627POPC   C4B47014  24.525  24.724   7.353
 8628POPC   NC347015  17.547  26.768   5.553
 8628POPC   PO447016  17.486  26.819   5.853
 8628POPC   GL147017  17.512  26.789   6.153
 8628POPC   GL247018  17.360  26.737   6.153
 8628POPC   C1A47019  17.532  26.849   6.453
 8628POPC   D2A47020  17.478  26.823   6.753
 8628POPC   C3A47021  17.468  26.802   7.053
 8628POPC   C4A47022  17.473  26.802   7.353
 8628POPC   C1B47023  17.244  26.777   6.453
 8628POPC   C2B47024  17.292  26.785   6.753
 8628POPC   C3B47025  17.277  26.757   7.053
 8628POPC   C4B47026  17.265  26.701   7.353
 8629POPC   NC347027  21.338  12.121   5.553
 8629POPC   PO447028  21.435  12.047   5.853
 8629POPC   GL147029  21.349  12.125   6.153
 8629POPC   GL247030  21.514  12.163   6.153
 8629POPC   C1A47031  21.343  12.091   6.453
 8629POPC   D2A47032  21.351  12.043   6.753
 8629POPC   C3A47033  21.363  12.029   7.053
 8629POPC   C4A47034  21.377  12.082   7.353
 8629POPC   C1B47035  21.646  12.223   6.453
 8629POPC   C2B47036  21.654  12.141   6.753
 8629POPC   C3B47037  21.637  12.195   7.053
 8629POPC   C4B47038  21.618  12.182   7.353
 8630POPC   NC347039  31.510   7.383   5.553
 8630POPC   PO447040  31.487   7.458   5.853
 8630POPC   GL147041  31.503   7.385   6.153
 8630POPC   GL247042  31.334   7.449   6.153
 8630POPC   C1A47043  31.462   7.395   6.453
 8630POPC   D2A47044  31.426   7.391   6.753
 8630POPC   C3A47045  31.436   7.454   7.053
 8630POPC   C4A47046  31.470   7.461   7.353
 8630POPC   C1B47047  31.203   7.472   6.453
 8630POPC   C2B47048  31.278   7.559   6.753
 8630POPC   C3B47049  31.220   7.487   7.053
 8630POPC   C4B47050  31.263   7.556   7.353
 8631POPC   NC347051  36.910  40.786   5.553
 8631POPC   PO447052  36.932  40.737   5.853
 8631POPC   GL147053  36.946  40.769   6.153
 8631POPC   GL247054  36.760  40.668   6.153
 8631POPC   C1A47055  36.909  40.770   6.453
 8631POPC   D2A47056  36.938  40.806   6.753
 8631POPC   C3A47057  36.911  40.737   7.053
 8631POPC   C4A47058  36.938  40.829   7.353
 8631POPC   C1B47059  36.748  40.608   6.453
 8631POPC   C2B47060  36.736  40.665   6.753
 8631POPC   C3B47061  36.705  40.609   7.053
 8631POPC   C4B47062  36.703  40.674   7.353
 8632POPC   NC347063  29.132  23.715   5.553
 8632POPC   PO447064  29.113  23.700   5.853
 8632POPC   GL147065  29.100  23.673   6.153
 8632POPC   GL247066  29.277  23.741   6.153
 8632POPC   C1A47067  29.117  23.692   6.453
 8632POPC   D2A47068  29.124  23.679   6.753
 8632POPC   C3A47069  29.161  23.759   7.053
 8632POPC   C4A47070  29.100  23.749   7.353
 8632POPC   C1B47071  29.394  23.714   6.453
 8632POPC   C2B47072  29.415  23.696   6.753
 8632POPC   C3B47073  29.434  23.670   7.053
 8632POPC   C4B47074  29.366  23.647   7.353
 8633POPC   NC347075  36.118  12.883   5.553
 8633POPC   PO447076  36.132  12.831   5.853
 8633POPC   GL147077  36.158  12.884   6.153
 8633POPC   GL247078  36.290  12.848   6.153
 8633POPC   C1A47079  36.176  12.866   6.453
 8633POPC   D2A47080  36.120  12.881   6.753
 8633POPC   C3A47081  36.084  12.834   7.053
 8633POPC   C4A47082  36.091  12.846   7.353
 8633POPC   C1B47083  36.335  12.746   6.453
 8633POPC   C2B47084  36.382  12.742   6.753
 8633POPC   C3B47085  36.338  12.703   7.053
 8633POPC   C4B47086  36.406  12.712   7.353
 8634POPC   NC347087   2.026  32.214   5.553
 8634POPC   PO447088   2.019  32.297   5.853
 8634POPC   GL147089   1.991  32.265   6.153
 8634POPC   GL247090   1.859  32.222   6.153
 8634POPC   C1A47091   1.953  32.236   6.453
 8634POPC   D2A47092   2.031  32.215   6.753
 8634POPC   C3A47093   1.965  32.200   7.053
 8634POPC   C4A47094   1.969  32.217   7.353
 8634POPC   C1B47095   1.706  32.161   6.453
 8634POPC   C2B47096   1.709  32.195   6.753
 8634POPC   C3B47097   1.701  32.226   7.053
 8634POPC   C4B47098   1.767  32.152   7.353
 8635POPC   NC347099   6.637   8.199   5.553
 8635POPC   PO447100   6.599   8.152   5.853
 8635POPC   GL147101   6.658   8.194   6.153
 8635POPC   GL247102   6.791   8.265   6.153
 8635POPC   C1A47103   6.660   8.236   6.453
 8635POPC   D2A47104   6.649   8.182   6.753
 8635POPC   C3A47105   6.622   8.159   7.053
 8635POPC   C4A47106   6.605   8.174   7.353
 8635POPC   C1B47107   6.858   8.318   6.453
 8635POPC   C2B47108   6.810   8.345   6.753
 8635POPC   C3B47109   6.815   8.346   7.053
 8635POPC   C4B47110   6.879   8.314   7.353
 8636POPC   NC347111  20.572  18.330   5.553
 8636POPC   PO447112  20.621  18.328   5.853
 8636POPC   GL147113  20.608  18.278   6.153
 8636POPC   GL247114  20.655  18.119   6.153
 8636POPC   C1A47115  20.632  18.328   6.453
 8636POPC   D2A47116  20.642  18.331   6.753
 8636POPC   C3A47117  20.641  18.315   7.053
 8636POPC   C4A47118  20.659  18.312   7.353
 8636POPC   C1B47119  20.655  18.046   6.453
 8636POPC   C2B47120  20.715  18.072   6.753
 8636POPC   C3B47121  20.708  17.997   7.053
 8636POPC   C4B47122  20.694  18.000   7.353
 8637POPC   NC347123  37.654   4.351   5.553
 8637POPC   PO447124  37.725   4.280   5.853
 8637POPC   GL147125  37.669   4.278   6.153
 8637POPC   GL247126  37.602   4.341   6.153
 8637POPC   C1A47127  37.700   4.320   6.453
 8637POPC   D2A47128  37.698   4.330   6.753
 8637POPC   C3A47129  37.635   4.325   7.053
 8637POPC   C4A47130  37.727   4.326   7.353
 8637POPC   C1B47131  37.479   4.392   6.453
 8637POPC   C2B47132  37.394   4.328   6.753
 8637POPC   C3B47133  37.437   4.382   7.053
 8637POPC   C4B47134  37.481   4.340   7.353
 8638POPC   NC347135   0.466   1.989   5.553
 8638POPC   PO447136   0.476   1.963   5.853
 8638POPC   GL147137   0.432   2.013   6.153
 8638POPC   GL247138   0.487   2.055   6.153
 8638POPC   C1A47139   0.436   2.029   6.453
 8638POPC   D2A47140   0.402   2.018   6.753
 8638POPC   C3A47141   0.457   1.954   7.053
 8638POPC   C4A47142   0.481   1.988   7.353
 8638POPC   C1B47143   0.591   2.187   6.453
 8638POPC   C2B47144   0.629   2.183   6.753
 8638POPC   C3B47145   0.573   2.145   7.053
 8638POPC   C4B47146   0.570   2.240   7.353
 8639POPC   NC347147  21.419  15.949   5.553
 8639POPC   PO447148  21.433  15.922   5.853
 8639POPC   GL147149  21.373  15.906   6.153
 8639POPC   GL247150  21.488  15.868   6.153
 8639POPC   C1A47151  21.421  15.974   6.453
 8639POPC   D2A47152  21.422  15.990   6.753
 8639POPC   C3A47153  21.347  15.948   7.053
 8639POPC   C4A47154  21.390  15.906   7.353
 8639POPC   C1B47155  21.493  15.779   6.453
 8639POPC   C2B47156  21.541  15.771   6.753
 8639POPC   C3B47157  21.548  15.740   7.053
 8639POPC   C4B47158  21.509  15.751   7.353
 8640POPC   NC347159   7.438  43.110   5.553
 8640POPC   PO447160   7.440  43.089   5.853
 8640POPC   GL147161   7.429  43.069   6.153
 8640POPC   GL247162   7.325  43.210   6.153
 8640POPC   C1A47163   7.390  43.087   6.453
 8640POPC   D2A47164   7.456  43.071   6.753
 8640POPC   C3A47165   7.382  43.088   7.053
 8640POPC   C4A47166   7.411  43.103   7.353
 8640POPC   C1B47167   7.352  43.371   6.453
 8640POPC   C2B47168   7.277  43.319   6.753
 8640POPC   C3B47169   7.263  43.309   7.053
 8640POPC   C4B47170   7.329  43.285   7.353
 8641POPC   NC347171  22.155  16.692   5.553
 8641POPC   PO447172  22.172  16.781   5.853
 8641POPC   GL147173  22.175  16.723   6.153
 8641POPC   GL247174  22.089  16.669   6.153
 8641POPC   C1A47175  22.149  16.778   6.453
 8641POPC   D2A47176  22.166  16.685   6.753
 8641POPC   C3A47177  22.142  16.758   7.053
 8641POPC   C4A47178  22.148  16.713   7.353
 8641POPC   C1B47179  22.032  16.511   6.453
 8641POPC   C2B47180  22.073  16.493   6.753
 8641POPC   C3B47181  22.074  16.488   7.053
 8641POPC   C4B47182  22.028  16.551   7.353
 8642POPC   NC347183  34.567  27.576   5.553
 8642POPC   PO447184  34.547  27.628   5.853
 8642POPC   GL147185  34.610  27.639   6.153
 8642POPC   GL247186  34.580  27.739   6.153
 8642POPC   C1A47187  34.532  27.638   6.453
 8642POPC   D2A47188  34.610  27.596   6.753
 8642POPC   C3A47189  34.611  27.564   7.053
 8642POPC   C4A47190  34.554  27.589   7.353
 8642POPC   C1B47191  34.567  27.856   6.453
 8642POPC   C2B47192  34.621  27.827   6.753
 8642POPC   C3B47193  34.639  27.856   7.053
 8642POPC   C4B47194  34.608  27.887   7.353
 8643POPC   NC347195   5.829   4.343   5.553
 8643POPC   PO447196   5.910   4.354   5.853
 8643POPC   GL147197   5.917   4.269   6.153
 8643POPC   GL247198   5.750   4.250   6.153
 8643POPC   C1A47199   5.877   4.314   6.453
 8643POPC   D2A47200   5.898   4.299   6.753
 8643POPC   C3A47201   5.882   4.310   7.053
 8643POPC   C4A47202   5.835   4.334   7.353
 8643POPC   C1B47203   5.622   4.286   6.453
 8643POPC   C2B47204   5.581   4.212   6.753
 8643POPC   C3B47205   5.655   4.304   7.053
 8643POPC   C4B47206   5.616   4.244   7.353
 8644POPC   NC347207  19.806   1.200   5.553
 8644POPC   PO447208  19.813   1.254   5.853
 8644POPC   GL147209  19.841   1.186   6.153
 8644POPC   GL247210  19.777   1.299   6.153
 8644POPC   C1A47211  19.835   1.180   6.453
 8644POPC   D2A47212  19.836   1.170   6.753
 8644POPC   C3A47213  19.834   1.164   7.053
 8644POPC   C4A47214  19.812   1.174   7.353
 8644POPC   C1B47215  19.797   1.441   6.453
 8644POPC   C2B47216  19.710   1.436   6.753
 8644POPC   C3B47217  19.731   1.439   7.053
 8644POPC   C4B47218  19.705   1.477   7.353
 8645POPC   NC347219  14.412  33.761   5.553
 8645POPC   PO447220  14.403  33.816   5.853
 8645POPC   GL147221  14.440  33.784   6.153
 8645POPC   GL247222  14.459  33.693   6.153
 8645POPC   C1A47223  14.432  33.836   6.453
 8645POPC   D2A47224  14.371  33.840   6.753
 8645POPC   C3A47225  14.426  33.758   7.053
 8645POPC   C4A47226  14.365  33.804   7.353
 8645POPC   C1B47227  14.455  33.608   6.453
 8645POPC   C2B47228  14.430  33.593   6.753
 8645POPC   C3B47229  14.471  33.563   7.053
 8645POPC   C4B47230  14.470  33.514   7.353
 8646POPC   NC347231   5.888  43.065   5.553
 8646POPC   PO447232   5.863  43.064   5.853
 8646POPC   GL147233   5.880  43.080   6.153
 8646POPC   GL247234   5.781  43.035   6.153
 8646POPC   C1A47235   5.866  43.103   6.453
 8646POPC   D2A47236   5.861  43.148   6.753
 8646POPC   C3A47237   5.896  43.129   7.053
 8646POPC   C4A47238   5.878  43.084   7.353
 8646POPC   C1B47239   5.751  42.942   6.453
 8646POPC   C2B47240   5.781  42.926   6.753
 8646POPC   C3B47241   5.784  42.850   7.053
 8646POPC   C4B47242   5.729  42.911   7.353
 8647POPC   NC347243  24.458  40.792   5.553
 8647POPC   PO447244  24.494  40.795   5.853
 8647POPC   GL147245  24.491  40.818   6.153
 8647POPC   GL247246  24.547  40.895   6.153
 8647POPC   C1A47247  24.538  40.816   6.453
 8647POPC   D2A47248  24.517  40.739   6.753
 8647POPC   C3A47249  24.507  40.814   7.053
 8647POPC   C4A47250  24.520  40.786   7.353
 8647POPC   C1B47251  24.711  40.930   6.453
 8647POPC   C2B47252  24.646  40.898   6.753
 8647POPC   C3B47253  24.639  40.947   7.053
 8647POPC   C4B47254  24.671  40.887   7.353
 8648POPC   NC347255  31.463   8.224   5.553
 8648POPC   PO447256  31.456   8.240   5.853
 8648POPC   GL147257  31.452   8.206   6.153
 8648POPC   GL247258  31.369   8.288   6.153
 8648POPC   C1A47259  31.483   8.183   6.453
 8648POPC   D2A47260  31.423   8.208   6.753
 8648POPC   C3A47261  31.522   8.171   7.053
 8648POPC   C4A47262  31.467   8.178   7.353
 8648POPC   C1B47263  31.278   8.329   6.453
 8648POPC   C2B47264  31.290   8.411   6.753
 8648POPC   C3B47265  31.289   8.361   7.053
 8648POPC   C4B47266  31.241   8.400   7.353
 8649POPC   NC347267  39.224  39.272   5.553
 8649POPC   PO447268  39.227  39.279   5.853
 8649POPC   GL147269  39.253  39.213   6.153
 8649POPC   GL247270  39.394  39.320   6.153
 8649POPC   C1A47271  39.228  39.270   6.453
 8649POPC   D2A47272  39.278  39.185   6.753
 8649POPC   C3A47273  39.280  39.235   7.053
 8649POPC   C4A47274  39.215  39.255   7.353
 8649POPC   C1B47275  39.449  39.318   6.453
 8649POPC   C2B47276  39.508  39.311   6.753
 8649POPC   C3B47277  39.509  39.283   7.053
 8649POPC   C4B47278  39.438  39.314   7.353
 8650POPC   NC347279  36.878  24.478   5.553
 8650POPC   PO447280  36.919  24.533   5.853
 8650POPC   GL147281  36.887  24.441   6.153
 8650POPC   GL247282  36.818  24.328   6.153
 8650POPC   C1A47283  36.901  24.475   6.453
 8650POPC   D2A47284  36.932  24.441   6.753
 8650POPC   C3A47285  36.856  24.462   7.053
 8650POPC   C4A47286  36.899  24.465   7.353
 8650POPC   C1B47287  36.830  24.204   6.453
 8650POPC   C2B47288  36.870  24.276   6.753
 8650POPC   C3B47289  36.842  24.219   7.053
 8650POPC   C4B47290  36.831  24.269   7.353
 8651POPC   NC347291  26.089  33.837   5.553
 8651POPC   PO447292  26.014  33.799   5.853
 8651POPC   GL147293  26.006  33.846   6.153
 8651POPC   GL247294  25.963  33.917   6.153
 8651POPC   C1A47295  25.998  33.759   6.453
 8651POPC   D2A47296  26.003  33.766   6.753
 8651POPC   C3A47297  26.066  33.802   7.053
 8651POPC   C4A47298  26.064  33.798   7.353
 8651POPC   C1B47299  25.854  33.960   6.453
 8651POPC   C2B47300  25.838  33.992   6.753
 8651POPC   C3B47301  25.866  33.921   7.053
 8651POPC   C4B47302  25.883  33.927   7.353
 8652POPC   NC347303   9.001   8.195   5.553
 8652POPC   PO447304   8.966   8.156   5.853
 8652POPC   GL147305   8.983   8.233   6.153
 8652POPC   GL247306   8.951   8.086   6.153
 8652POPC   C1A47307   8.943   8.234   6.453
 8652POPC   D2A47308   8.954   8.182   6.753
 8652POPC   C3A47309   8.942   8.189   7.053
 8652POPC   C4A47310   8.927   8.191   7.353
 8652POPC   C1B47311   9.020   7.948   6.453
 8652POPC   C2B47312   8.943   7.916   6.753
 8652POPC   C3B47313   9.013   7.983   7.053
 8652POPC   C4B47314   9.003   7.985   7.353
 8653POPC   NC347315  29.875  19.016   5.553
 8653POPC   PO447316  29.909  19.024   5.853
 8653POPC   GL147317  29.906  19.081   6.153
 8653POPC   GL247318  30.070  19.099   6.153
 8653POPC   C1A47319  29.874  19.108   6.453
 8653POPC   D2A47320  29.943  19.028   6.753
 8653POPC   C3A47321  29.907  19.075   7.053
 8653POPC   C4A47322  29.884  19.053   7.353
 8653POPC   C1B47323  30.205  19.126   6.453
 8653POPC   C2B47324  30.151  19.061   6.753
 8653POPC   C3B47325  30.134  19.040   7.053
 8653POPC   C4B47326  30.180  19.125   7.353
 8654POPC   NC347327  10.513  38.483   5.553
 8654POPC   PO447328  10.537  38.472   5.853
 8654POPC   GL147329  10.501  38.457   6.153
 8654POPC   GL247330  10.495  38.620   6.153
 8654POPC   C1A47331  10.527  38.414   6.453
 8654POPC   D2A47332  10.533  38.447   6.753
 8654POPC   C3A47333  10.481  38.428   7.053
 8654POPC   C4A47334  10.475  38.408   7.353
 8654POPC   C1B47335  10.533  38.734   6.453
 8654POPC   C2B47336  10.531  38.714   6.753
 8654POPC   C3B47337  10.530  38.738   7.053
 8654POPC   C4B47338  10.586  38.717   7.353
 8655POPC   NC347339   6.680  11.268   5.553
 8655POPC   PO447340   6.693  11.279   5.853
 8655POPC   GL147341   6.627  11.302   6.153
 8655POPC   GL247342   6.766  11.240   6.153
 8655POPC   C1A47343   6.612  11.259   6.453
 8655POPC   D2A47344   6.606  11.289   6.753
 8655POPC   C3A47345   6.645  11.337   7.053
 8655POPC   C4A47346   6.656  11.255   7.353
 8655POPC   C1B47347   6.763  11.137   6.453
 8655POPC   C2B47348   6.790  11.080   6.753
 8655POPC   C3B47349   6.761  11.099   7.053
 8655POPC   C4B47350   6.784  11.142   7.353
 8656POPC   NC347351  13.616   7.469   5.553
 8656POPC   PO447352  13.623   7.462   5.853
 8656POPC   GL147353  13.632   7.440   6.153
 8656POPC   GL247354  13.527   7.484   6.153
 8656POPC   C1A47355  13.580   7.386   6.453
 8656POPC   D2A47356  13.629   7.441   6.753
 8656POPC   C3A47357  13.622   7.398   7.053
 8656POPC   C4A47358  13.605   7.459   7.353
 8656POPC   C1B47359  13.416   7.538   6.453
 8656POPC   C2B47360  13.422   7.582   6.753
 8656POPC   C3B47361  13.450   7.536   7.053
 8656POPC   C4B47362  13.429   7.580   7.353
 8657POPC   NC347363  15.151   7.399   5.553
 8657POPC   PO447364  15.133   7.402   5.853
 8657POPC   GL147365  15.164   7.393   6.153
 8657POPC   GL247366  15.211   7.255   6.153
 8657POPC   C1A47367  15.220   7.414   6.453
 8657POPC   D2A47368  15.211   7.426   6.753
 8657POPC   C3A47369  15.219   7.390   7.053
 8657POPC   C4A47370  15.186   7.427   7.353
 8657POPC   C1B47371  15.176   7.146   6.453
 8657POPC   C2B47372  15.160   7.159   6.753
 8657POPC   C3B47373  15.182   7.214   7.053
 8657POPC   C4B47374  15.148   7.125   7.353
 8658POPC   NC347375  29.149  19.103   5.553
 8658POPC   PO447376  29.104  19.108   5.853
 8658POPC   GL147377  29.128  19.033   6.153
 8658POPC   GL247378  29.129  18.992   6.153
 8658POPC   C1A47379  29.176  19.052   6.453
 8658POPC   D2A47380  29.143  19.013   6.753
 8658POPC   C3A47381  29.157  19.041   7.053
 8658POPC   C4A47382  29.195  19.019   7.353
 8658POPC   C1B47383  29.075  18.827   6.453
 8658POPC   C2B47384  28.989  18.865   6.753
 8658POPC   C3B47385  29.043  18.880   7.053
 8658POPC   C4B47386  28.997  18.853   7.353
 8659POPC   NC347387  10.557   5.858   5.553
 8659POPC   PO447388  10.552   5.870   5.853
 8659POPC   GL147389  10.556   5.866   6.153
 8659POPC   GL247390  10.415   5.773   6.153
 8659POPC   C1A47391  10.511   5.844   6.453
 8659POPC   D2A47392  10.502   5.888   6.753
 8659POPC   C3A47393  10.500   5.892   7.053
 8659POPC   C4A47394  10.509   5.915   7.353
 8659POPC   C1B47395  10.285   5.714   6.453
 8659POPC   C2B47396  10.295   5.744   6.753
 8659POPC   C3B47397  10.288   5.749   7.053
 8659POPC   C4B47398  10.365   5.694   7.353
 8660POPC   NC347399   5.870  12.882   5.553
 8660POPC   PO447400   5.852  12.835   5.853
 8660POPC   GL147401   5.852  12.857   6.153
 8660POPC   GL247402   6.035  12.788   6.153
 8660POPC   C1A47403   5.840  12.845   6.453
 8660POPC   D2A47404   5.915  12.825   6.753
 8660POPC   C3A47405   5.844  12.822   7.053
 8660POPC   C4A47406   5.820  12.820   7.353
 8660POPC   C1B47407   6.082  12.727   6.453
 8660POPC   C2B47408   6.128  12.777   6.753
 8660POPC   C3B47409   6.088  12.749   7.053
 8660POPC   C4B47410   6.108  12.730   7.353
 8661POPC   NC347411   1.185  39.278   5.553
 8661POPC   PO447412   1.217  39.187   5.853
 8661POPC   GL147413   1.184  39.240   6.153
 8661POPC   GL247414   1.097  39.241   6.153
 8661POPC   C1A47415   1.254  39.248   6.453
 8661POPC   D2A47416   1.182  39.232   6.753
 8661POPC   C3A47417   1.231  39.252   7.053
 8661POPC   C4A47418   1.243  39.225   7.353
 8661POPC   C1B47419   0.929  39.242   6.453
 8661POPC   C2B47420   0.920  39.191   6.753
 8661POPC   C3B47421   0.952  39.205   7.053
 8661POPC   C4B47422   1.012  39.195   7.353
 8662POPC   NC347423   2.007  20.596   5.553
 8662POPC   PO447424   1.948  20.579   5.853
 8662POPC   GL147425   1.975  20.622   6.153
 8662POPC   GL247426   1.908  20.695   6.153
 8662POPC   C1A47427   2.007  20.585   6.453
 8662POPC   D2A47428   1.977  20.596   6.753
 8662POPC   C3A47429   1.974  20.615   7.053
 8662POPC   C4A47430   1.992  20.591   7.353
 8662POPC   C1B47431   1.745  20.746   6.453
 8662POPC   C2B47432   1.814  20.731   6.753
 8662POPC   C3B47433   1.772  20.802   7.053
 8662POPC   C4B47434   1.777  20.746   7.353
 8663POPC   NC347435   5.073  33.788   5.553
 8663POPC   PO447436   5.086  33.811   5.853
 8663POPC   GL147437   5.093  33.757   6.153
 8663POPC   GL247438   5.016  33.814   6.153
 8663POPC   C1A47439   5.088  33.834   6.453
 8663POPC   D2A47440   5.045  33.835   6.753
 8663POPC   C3A47441   5.143  33.793   7.053
 8663POPC   C4A47442   5.049  33.783   7.353
 8663POPC   C1B47443   4.871  33.832   6.453
 8663POPC   C2B47444   4.862  33.799   6.753
 8663POPC   C3B47445   4.845  33.757   7.053
 8663POPC   C4B47446   4.881  33.828   7.353
 8664POPC   NC347447  18.275  28.323   5.553
 8664POPC   PO447448  18.288  28.383   5.853
 8664POPC   GL147449  18.263  28.364   6.153
 8664POPC   GL247450  18.417  28.391   6.153
 8664POPC   C1A47451  18.256  28.412   6.453
 8664POPC   D2A47452  18.333  28.363   6.753
 8664POPC   C3A47453  18.279  28.350   7.053
 8664POPC   C4A47454  18.266  28.331   7.353
 8664POPC   C1B47455  18.542  28.301   6.453
 8664POPC   C2B47456  18.523  28.344   6.753
 8664POPC   C3B47457  18.515  28.327   7.053
 8664POPC   C4B47458  18.569  28.374   7.353
 8665POPC   NC347459  34.581  23.696   5.553
 8665POPC   PO447460  34.563  23.743   5.853
 8665POPC   GL147461  34.595  23.667   6.153
 8665POPC   GL247462  34.468  23.767   6.153
 8665POPC   C1A47463  34.582  23.744   6.453
 8665POPC   D2A47464  34.621  23.727   6.753
 8665POPC   C3A47465  34.606  23.695   7.053
 8665POPC   C4A47466  34.597  23.687   7.353
 8665POPC   C1B47467  34.433  23.902   6.453
 8665POPC   C2B47468  34.428  23.875   6.753
 8665POPC   C3B47469  34.386  23.891   7.053
 8665POPC   C4B47470  34.388  23.850   7.353
 8666POPC   NC347471   1.174   1.963   5.553
 8666POPC   PO447472   1.181   1.993   5.853
 8666POPC   GL147473   1.202   1.955   6.153
 8666POPC   GL247474   1.137   1.889   6.153
 8666POPC   C1A47475   1.251   2.023   6.453
 8666POPC   D2A47476   1.257   1.958   6.753
 8666POPC   C3A47477   1.215   2.018   7.053
 8666POPC   C4A47478   1.245   1.981   7.353
 8666POPC   C1B47479   1.023   1.810   6.453
 8666POPC   C2B47480   0.980   1.834   6.753
 8666POPC   C3B47481   1.072   1.846   7.053
 8666POPC   C4B47482   0.978   1.816   7.353
 8667POPC   NC347483  16.695  11.266   5.553
 8667POPC   PO447484  16.722  11.336   5.853
 8667POPC   GL147485  16.732  11.346   6.153
 8667POPC   GL247486  16.874  11.338   6.153
 8667POPC   C1A47487  16.764  11.268   6.453
 8667POPC   D2A47488  16.718  11.258   6.753
 8667POPC   C3A47489  16.766  11.339   7.053
 8667POPC   C4A47490  16.729  11.297   7.353
 8667POPC   C1B47491  16.990  11.385   6.453
 8667POPC   C2B47492  16.930  11.409   6.753
 8667POPC   C3B47493  16.918  11.351   7.053
 8667POPC   C4B47494  16.992  11.373   7.353
 8668POPC   NC347495   1.252  14.427   5.553
 8668POPC   PO447496   1.165  14.368   5.853
 8668POPC   GL147497   1.238  14.403   6.153
 8668POPC   GL247498   1.351  14.432   6.153
 8668POPC   C1A47499   1.246  14.358   6.453
 8668POPC   D2A47500   1.254  14.416   6.753
 8668POPC   C3A47501   1.229  14.382   7.053
 8668POPC   C4A47502   1.197  14.426   7.353
 8668POPC   C1B47503   1.423  14.534   6.453
 8668POPC   C2B47504   1.489  14.504   6.753
 8668POPC   C3B47505   1.489  14.467   7.053
 8668POPC   C4B47506   1.436  14.494   7.353
 8669POPC   NC347507  18.309  35.316   5.553
 8669POPC   PO447508  18.248  35.303   5.853
 8669POPC   GL147509  18.321  35.362   6.153
 8669POPC   GL247510  18.156  35.305   6.153
 8669POPC   C1A47511  18.323  35.305   6.453
 8669POPC   D2A47512  18.316  35.380   6.753
 8669POPC   C3A47513  18.236  35.346   7.053
 8669POPC   C4A47514  18.246  35.361   7.353
 8669POPC   C1B47515  18.002  35.352   6.453
 8669POPC   C2B47516  17.988  35.268   6.753
 8669POPC   C3B47517  18.070  35.273   7.053
 8669POPC   C4B47518  17.992  35.338   7.353
 8670POPC   NC347519  41.519   4.339   5.553
 8670POPC   PO447520  41.556   4.307   5.853
 8670POPC   GL147521  41.535   4.300   6.153
 8670POPC   GL247522  41.470   4.259   6.153
 8670POPC   C1A47523  41.511   4.292   6.453
 8670POPC   D2A47524  41.560   4.304   6.753
 8670POPC   C3A47525  41.539   4.304   7.053
 8670POPC   C4A47526  41.519   4.307   7.353
 8670POPC   C1B47527  41.347   4.256   6.453
 8670POPC   C2B47528  41.296   4.303   6.753
 8670POPC   C3B47529  41.328   4.318   7.053
 8670POPC   C4B47530  41.310   4.247   7.353
 8671POPC   NC347531  16.769   9.710   5.553
 8671POPC   PO447532  16.742   9.724   5.853
 8671POPC   GL147533  16.686   9.731   6.153
 8671POPC   GL247534  16.792   9.883   6.153
 8671POPC   C1A47535  16.715   9.712   6.453
 8671POPC   D2A47536  16.683   9.712   6.753
 8671POPC   C3A47537  16.688   9.729   7.053
 8671POPC   C4A47538  16.768   9.705   7.353
 8671POPC   C1B47539  16.777   9.993   6.453
 8671POPC   C2B47540  16.770   9.998   6.753
 8671POPC   C3B47541  16.802  10.026   7.053
 8671POPC   C4B47542  16.761  10.015   7.353
 8672POPC   NC347543  13.607  19.084   5.553
 8672POPC   PO447544  13.671  19.044   5.853
 8672POPC   GL147545  13.596  19.021   6.153
 8672POPC   GL247546  13.758  19.145   6.153
 8672POPC   C1A47547  13.589  19.062   6.453
 8672POPC   D2A47548  13.601  19.086   6.753
 8672POPC   C3A47549  13.677  19.069   7.053
 8672POPC   C4A47550  13.664  19.048   7.353
 8672POPC   C1B47551  13.868  19.164   6.453
 8672POPC   C2B47552  13.890  19.146   6.753
 8672POPC   C3B47553  13.822  19.159   7.053
 8672POPC   C4B47554  13.882  19.132   7.353
 8673POPC   NC347555  15.160  43.935   5.553
 8673POPC   PO447556  15.212  43.892   5.853
 8673POPC   GL147557  15.203  43.884   6.153
 8673POPC   GL247558  15.258  43.776   6.153
 8673POPC   C1A47559  15.146  43.911   6.453
 8673POPC   D2A47560  15.156  43.859   6.753
 8673POPC   C3A47561  15.221  43.847   7.053
 8673POPC   C4A47562  15.197  43.925   7.353
 8673POPC   C1B47563  15.341  43.759   6.453
 8673POPC   C2B47564  15.363  43.750   6.753
 8673POPC   C3B47565  15.364  43.757   7.053
 8673POPC   C4B47566  15.315  43.727   7.353
 8674POPC   NC347567  15.940   8.160   5.553
 8674POPC   PO447568  15.939   8.227   5.853
 8674POPC   GL147569  15.913   8.183   6.153
 8674POPC   GL247570  16.011   8.345   6.153
 8674POPC   C1A47571  15.952   8.221   6.453
 8674POPC   D2A47572  16.001   8.165   6.753
 8674POPC   C3A47573  15.928   8.235   7.053
 8674POPC   C4A47574  15.946   8.172   7.353
 8674POPC   C1B47575  16.112   8.409   6.453
 8674POPC   C2B47576  16.058   8.404   6.753
 8674POPC   C3B47577  16.132   8.379   7.053
 8674POPC   C4B47578  16.055   8.395   7.353
 8675POPC   NC347579   1.953  30.743   5.553
 8675POPC   PO447580   2.031  30.667   5.853
 8675POPC   GL147581   1.985  30.699   6.153
 8675POPC   GL247582   1.939  30.586   6.153
 8675POPC   C1A47583   1.989  30.719   6.453
 8675POPC   D2A47584   2.015  30.743   6.753
 8675POPC   C3A47585   1.952  30.683   7.053
 8675POPC   C4A47586   1.976  30.735   7.353
 8675POPC   C1B47587   1.876  30.510   6.453
 8675POPC   C2B47588   1.856  30.475   6.753
 8675POPC   C3B47589   1.847  30.529   7.053
 8675POPC   C4B47590   1.864  30.493   7.353
 8676POPC   NC347591   0.481  34.607   5.553
 8676POPC   PO447592   0.448  34.531   5.853
 8676POPC   GL147593   0.394  34.597   6.153
 8676POPC   GL247594   0.586  34.570   6.153
 8676POPC   C1A47595   0.426  34.575   6.453
 8676POPC   D2A47596   0.422  34.541   6.753
 8676POPC   C3A47597   0.404  34.567   7.053
 8676POPC   C4A47598   0.487  34.531   7.353
 8676POPC   C1B47599   0.698  34.503   6.453
 8676POPC   C2B47600   0.707  34.429   6.753
 8676POPC   C3B47601   0.617  34.455   7.053
 8676POPC   C4B47602   0.630  34.485   7.353
 8677POPC   NC347603   8.236   3.517   5.553
 8677POPC   PO447604   8.158   3.524   5.853
 8677POPC   GL147605   8.219   3.560   6.153
 8677POPC   GL247606   8.246   3.669   6.153
 8677POPC   C1A47607   8.214   3.533   6.453
 8677POPC   D2A47608   8.205   3.567   6.753
 8677POPC   C3A47609   8.153   3.578   7.053
 8677POPC   C4A47610   8.227   3.536   7.353
 8677POPC   C1B47611   8.313   3.740   6.453
 8677POPC   C2B47612   8.246   3.747   6.753
 8677POPC   C3B47613   8.325   3.734   7.053
 8677POPC   C4B47614   8.231   3.769   7.353
 8678POPC   NC347615  13.673   5.877   5.553
 8678POPC   PO447616  13.602   5.863   5.853
 8678POPC   GL147617  13.666   5.830   6.153
 8678POPC   GL247618  13.560   6.013   6.153
 8678POPC   C1A47619  13.652   5.867   6.453
 8678POPC   D2A47620  13.622   5.875   6.753
 8678POPC   C3A47621  13.589   5.877   7.053
 8678POPC   C4A47622  13.581   5.917   7.353
 8678POPC   C1B47623  13.520   6.149   6.453
 8678POPC   C2B47624  13.557   6.093   6.753
 8678POPC   C3B47625  13.497   6.114   7.053
 8678POPC   C4B47626  13.565   6.155   7.353
 8679POPC   NC347627  22.155  31.430   5.553
 8679POPC   PO447628  22.193  31.437   5.853
 8679POPC   GL147629  22.154  31.488   6.153
 8679POPC   GL247630  22.109  31.627   6.153
 8679POPC   C1A47631  22.125  31.443   6.453
 8679POPC   D2A47632  22.169  31.508   6.753
 8679POPC   C3A47633  22.165  31.462   7.053
 8679POPC   C4A47634  22.175  31.452   7.353
 8679POPC   C1B47635  22.097  31.740   6.453
 8679POPC   C2B47636  22.112  31.708   6.753
 8679POPC   C3B47637  22.085  31.682   7.053
 8679POPC   C4B47638  22.033  31.752   7.353
 8680POPC   NC347639  29.146  25.286   5.553
 8680POPC   PO447640  29.097  25.273   5.853
 8680POPC   GL147641  29.181  25.255   6.153
 8680POPC   GL247642  29.110  25.361   6.153
 8680POPC   C1A47643  29.151  25.283   6.453
 8680POPC   D2A47644  29.131  25.245   6.753
 8680POPC   C3A47645  29.125  25.302   7.053
 8680POPC   C4A47646  29.184  25.247   7.353
 8680POPC   C1B47647  29.158  25.543   6.453
 8680POPC   C2B47648  29.121  25.533   6.753
 8680POPC   C3B47649  29.137  25.515   7.053
 8680POPC   C4B47650  29.123  25.481   7.353
 8681POPC   NC347651  36.162  35.325   5.553
 8681POPC   PO447652  36.105  35.326   5.853
 8681POPC   GL147653  36.169  35.400   6.153
 8681POPC   GL247654  36.254  35.267   6.153
 8681POPC   C1A47655  36.141  35.353   6.453
 8681POPC   D2A47656  36.115  35.303   6.753
 8681POPC   C3A47657  36.110  35.399   7.053
 8681POPC   C4A47658  36.090  35.341   7.353
 8681POPC   C1B47659  36.322  35.302   6.453
 8681POPC   C2B47660  36.393  35.293   6.753
 8681POPC   C3B47661  36.408  35.252   7.053
 8681POPC   C4B47662  36.340  35.271   7.353
 8682POPC   NC347663  39.190  12.831   5.553
 8682POPC   PO447664  39.222  12.888   5.853
 8682POPC   GL147665  39.186  12.816   6.153
 8682POPC   GL247666  39.207  12.972   6.153
 8682POPC   C1A47667  39.243  12.812   6.453
 8682POPC   D2A47668  39.269  12.831   6.753
 8682POPC   C3A47669  39.213  12.807   7.053
 8682POPC   C4A47670  39.267  12.889   7.353
 8682POPC   C1B47671  39.218  13.055   6.453
 8682POPC   C2B47672  39.154  13.064   6.753
 8682POPC   C3B47673  39.172  13.141   7.053
 8682POPC   C4B47674  39.224  13.125   7.353
 8683POPC   NC347675  23.712  43.152   5.553
 8683POPC   PO447676  23.703  43.086   5.853
 8683POPC   GL147677  23.712  43.083   6.153
 8683POPC   GL247678  23.693  43.238   6.153
 8683POPC   C1A47679  23.691  43.111   6.453
 8683POPC   D2A47680  23.686  43.126   6.753
 8683POPC   C3A47681  23.703  43.092   7.053
 8683POPC   C4A47682  23.723  43.155   7.353
 8683POPC   C1B47683  23.694  43.310   6.453
 8683POPC   C2B47684  23.700  43.339   6.753
 8683POPC   C3B47685  23.659  43.316   7.053
 8683POPC   C4B47686  23.697  43.394   7.353
 8684POPC   NC347687  22.144  29.887   5.553
 8684POPC   PO447688  22.185  29.895   5.853
 8684POPC   GL147689  22.146  29.915   6.153
 8684POPC   GL247690  22.111  30.068   6.153
 8684POPC   C1A47691  22.167  29.884   6.453
 8684POPC   D2A47692  22.185  29.884   6.753
 8684POPC   C3A47693  22.126  29.896   7.053
 8684POPC   C4A47694  22.179  29.927   7.353
 8684POPC   C1B47695  22.157  30.131   6.453
 8684POPC   C2B47696  22.113  30.175   6.753
 8684POPC   C3B47697  22.127  30.141   7.053
 8684POPC   C4B47698  22.098  30.204   7.353
 8685POPC   NC347699  36.102   2.022   5.553
 8685POPC   PO447700  36.126   1.987   5.853
 8685POPC   GL147701  36.114   1.948   6.153
 8685POPC   GL247702  36.225   1.919   6.153
 8685POPC   C1A47703  36.155   2.018   6.453
 8685POPC   D2A47704  36.079   1.987   6.753
 8685POPC   C3A47705  36.141   2.015   7.053
 8685POPC   C4A47706  36.145   1.956   7.353
 8685POPC   C1B47707  36.327   1.919   6.453
 8685POPC   C2B47708  36.374   1.899   6.753
 8685POPC   C3B47709  36.359   1.888   7.053
 8685POPC   C4B47710  36.383   1.833   7.353
 8686POPC   NC347711  19.038   4.321   5.553
 8686POPC   PO447712  19.023   4.359   5.853
 8686POPC   GL147713  19.097   4.293   6.153
 8686POPC   GL247714  19.207   4.218   6.153
 8686POPC   C1A47715  19.047   4.365   6.453
 8686POPC   D2A47716  19.060   4.336   6.753
 8686POPC   C3A47717  19.084   4.362   7.053
 8686POPC   C4A47718  19.073   4.295   7.353
 8686POPC   C1B47719  19.236   4.169   6.453
 8686POPC   C2B47720  19.304   4.175   6.753
 8686POPC   C3B47721  19.243   4.153   7.053
 8686POPC   C4B47722  19.301   4.235   7.353
 8687POPC   NC347723  21.387  22.128   5.553
 8687POPC   PO447724  21.377  22.199   5.853
 8687POPC   GL147725  21.378  22.134   6.153
 8687POPC   GL247726  21.398  22.272   6.153
 8687POPC   C1A47727  21.420  22.117   6.453
 8687POPC   D2A47728  21.410  22.189   6.753
 8687POPC   C3A47729  21.339  22.193   7.053
 8687POPC   C4A47730  21.399  22.162   7.353
 8687POPC   C1B47731  21.434  22.418   6.453
 8687POPC   C2B47732  21.452  22.429   6.753
 8687POPC   C3B47733  21.459  22.400   7.053
 8687POPC   C4B47734  21.451  22.354   7.353
 8688POPC   NC347735   6.685  10.544   5.553
 8688POPC   PO447736   6.691  10.500   5.853
 8688POPC   GL147737   6.658  10.508   6.153
 8688POPC   GL247738   6.619  10.380   6.153
 8688POPC   C1A47739   6.639  10.532   6.453
 8688POPC   D2A47740   6.648  10.566   6.753
 8688POPC   C3A47741   6.601  10.536   7.053
 8688POPC   C4A47742   6.686  10.513   7.353
 8688POPC   C1B47743   6.563  10.270   6.453
 8688POPC   C2B47744   6.613  10.230   6.753
 8688POPC   C3B47745   6.639  10.267   7.053
 8688POPC   C4B47746   6.628  10.243   7.353
 8689POPC   NC347747  19.035  12.865   5.553
 8689POPC   PO447748  19.059  12.808   5.853
 8689POPC   GL147749  19.055  12.862   6.153
 8689POPC   GL247750  19.201  12.844   6.153
 8689POPC   C1A47751  19.061  12.840   6.453
 8689POPC   D2A47752  19.087  12.883   6.753
 8689POPC   C3A47753  19.098  12.808   7.053
 8689POPC   C4A47754  19.105  12.884   7.353
 8689POPC   C1B47755  19.252  12.806   6.453
 8689POPC   C2B47756  19.275  12.795   6.753
 8689POPC   C3B47757  19.250  12.803   7.053
 8689POPC   C4B47758  19.282  12.718   7.353
 8690POPC   NC347759  16.730   5.859   5.553
 8690POPC   PO447760  16.730   5.917   5.853
 8690POPC   GL147761  16.716   5.871   6.153
 8690POPC   GL247762  16.604   5.792   6.153
 8690POPC   C1A47763  16.778   5.859   6.453
 8690POPC   D2A47764  16.685   5.909   6.753
 8690POPC   C3A47765  16.701   5.871   7.053
 8690POPC   C4A47766  16.777   5.865   7.353
 8690POPC   C1B47767  16.546   5.755   6.453
 8690POPC   C2B47768  16.533   5.703   6.753
 8690POPC   C3B47769  16.518   5.690   7.053
 8690POPC   C4B47770  16.553   5.679   7.353
 8691POPC   NC347771  16.002  17.490   5.553
 8691POPC   PO447772  15.996  17.481   5.853
 8691POPC   GL147773  15.913  17.504   6.153
 8691POPC   GL247774  15.874  17.459   6.153
 8691POPC   C1A47775  15.955  17.476   6.453
 8691POPC   D2A47776  15.992  17.479   6.753
 8691POPC   C3A47777  15.926  17.502   7.053
 8691POPC   C4A47778  15.975  17.497   7.353
 8691POPC   C1B47779  15.675  17.538   6.453
 8691POPC   C2B47780  15.671  17.538   6.753
 8691POPC   C3B47781  15.671  17.534   7.053
 8691POPC   C4B47782  15.710  17.544   7.353
 8692POPC   NC347783   5.095  20.580   5.553
 8692POPC   PO447784   5.140  20.576   5.853
 8692POPC   GL147785   5.099  20.585   6.153
 8692POPC   GL247786   5.024  20.681   6.153
 8692POPC   C1A47787   5.076  20.601   6.453
 8692POPC   D2A47788   5.076  20.563   6.753
 8692POPC   C3A47789   5.133  20.604   7.053
 8692POPC   C4A47790   5.126  20.628   7.353
 8692POPC   C1B47791   4.823  20.688   6.453
 8692POPC   C2B47792   4.855  20.725   6.753
 8692POPC   C3B47793   4.891  20.661   7.053
 8692POPC   C4B47794   4.879  20.723   7.353
 8693POPC   NC347795   3.562  43.921   5.553
 8693POPC   PO447796   3.549  43.856   5.853
 8693POPC   GL147797   3.556  43.857   6.153
 8693POPC   GL247798   3.549  43.996   6.153
 8693POPC   C1A47799   3.538  43.836   6.453
 8693POPC   D2A47800   3.509  43.922   6.753
 8693POPC   C3A47801   3.566  43.859   7.053
 8693POPC   C4A47802   3.497  43.844   7.353
 8693POPC   C1B47803   3.488  44.121   6.453
 8693POPC   C2B47804   3.444  44.109   6.753
 8693POPC   C3B47805   3.442  44.088   7.053
 8693POPC   C4B47806   3.441  44.081   7.353
 8694POPC   NC347807  25.314  36.126   5.553
 8694POPC   PO447808  25.256  36.086   5.853
 8694POPC   GL147809  25.282  36.138   6.153
 8694POPC   GL247810  25.345  36.145   6.153
 8694POPC   C1A47811  25.229  36.112   6.453
 8694POPC   D2A47812  25.279  36.177   6.753
 8694POPC   C3A47813  25.293  36.177   7.053
 8694POPC   C4A47814  25.260  36.082   7.353
 8694POPC   C1B47815  25.504  36.115   6.453
 8694POPC   C2B47816  25.524  36.081   6.753
 8694POPC   C3B47817  25.555  36.143   7.053
 8694POPC   C4B47818  25.562  36.118   7.353
 8695POPC   NC347819  34.583  39.257   5.553
 8695POPC   PO447820  34.597  39.280   5.853
 8695POPC   GL147821  34.602  39.279   6.153
 8695POPC   GL247822  34.501  39.344   6.153
 8695POPC   C1A47823  34.588  39.280   6.453
 8695POPC   D2A47824  34.603  39.265   6.753
 8695POPC   C3A47825  34.582  39.274   7.053
 8695POPC   C4A47826  34.621  39.279   7.353
 8695POPC   C1B47827  34.489  39.498   6.453
 8695POPC   C2B47828  34.506  39.458   6.753
 8695POPC   C3B47829  34.509  39.494   7.053
 8695POPC   C4B47830  34.504  39.487   7.353
 8696POPC   NC347831   5.128  35.373   5.553
 8696POPC   PO447832   5.063  35.383   5.853
 8696POPC   GL147833   5.070  35.331   6.153
 8696POPC   GL247834   5.067  35.512   6.153
 8696POPC   C1A47835   5.053  35.317   6.453
 8696POPC   D2A47836   5.120  35.329   6.753
 8696POPC   C3A47837   5.083  35.373   7.053
 8696POPC   C4A47838   5.108  35.353   7.353
 8696POPC   C1B47839   5.007  35.567   6.453
 8696POPC   C2B47840   4.999  35.600   6.753
 8696POPC   C3B47841   5.035  35.589   7.053
 8696POPC   C4B47842   5.012  35.629   7.353
 8697POPC   NC347843  29.880  38.425   5.553
 8697POPC   PO447844  29.940  38.499   5.853
 8697POPC   GL147845  29.943  38.496   6.153
 8697POPC   GL247846  30.028  38.541   6.153
 8697POPC   C1A47847  29.950  38.422   6.453
 8697POPC   D2A47848  29.896  38.430   6.753
 8697POPC   C3A47849  29.941  38.485   7.053
 8697POPC   C4A47850  29.911  38.501   7.353
 8697POPC   C1B47851  30.093  38.705   6.453
 8697POPC   C2B47852  30.067  38.711   6.753
 8697POPC   C3B47853  30.109  38.703   7.053
 8697POPC   C4B47854  30.091  38.635   7.353
 8698POPC   NC347855  27.600  18.270   5.553
 8698POPC   PO447856  27.556  18.308   5.853
 8698POPC   GL147857  27.634  18.301   6.153
 8698POPC   GL247858  27.547  18.132   6.153
 8698POPC   C1A47859  27.632  18.304   6.453
 8698POPC   D2A47860  27.630  18.260   6.753
 8698POPC   C3A47861  27.618  18.329   7.053
 8698POPC   C4A47862  27.596  18.296   7.353
 8698POPC   C1B47863  27.610  18.010   6.453
 8698POPC   C2B47864  27.594  17.998   6.753
 8698POPC   C3B47865  27.580  18.031   7.053
 8698POPC   C4B47866  27.565  17.988   7.353
 8699POPC   NC347867  38.406  27.561   5.553
 8699POPC   PO447868  38.487  27.548   5.853
 8699POPC   GL147869  38.422  27.639   6.153
 8699POPC   GL247870  38.514  27.493   6.153
 8699POPC   C1A47871  38.458  27.552   6.453
 8699POPC   D2A47872  38.462  27.642   6.753
 8699POPC   C3A47873  38.473  27.622   7.053
 8699POPC   C4A47874  38.490  27.603   7.353
 8699POPC   C1B47875  38.646  27.395   6.453
 8699POPC   C2B47876  38.689  27.457   6.753
 8699POPC   C3B47877  38.684  27.414   7.053
 8699POPC   C4B47878  38.603  27.377   7.353
 8700POPC   NC347879   2.787  42.287   5.553
 8700POPC   PO447880   2.734  42.297   5.853
 8700POPC   GL147881   2.727  42.333   6.153
 8700POPC   GL247882   2.741  42.225   6.153
 8700POPC   C1A47883   2.748  42.285   6.453
 8700POPC   D2A47884   2.727  42.383   6.753
 8700POPC   C3A47885   2.777  42.332   7.053
 8700POPC   C4A47886   2.801  42.366   7.353
 8700POPC   C1B47887   2.745  42.056   6.453
 8700POPC   C2B47888   2.759  42.069   6.753
 8700POPC   C3B47889   2.714  42.044   7.053
 8700POPC   C4B47890   2.771  42.125   7.353
 8701POPC   NC347891  36.100  10.476   5.553
 8701POPC   PO447892  36.157  10.559   5.853
 8701POPC   GL147893  36.120  10.530   6.153
 8701POPC   GL247894  36.293  10.506   6.153
 8701POPC   C1A47895  36.139  10.496   6.453
 8701POPC   D2A47896  36.136  10.558   6.753
 8701POPC   C3A47897  36.103  10.557   7.053
 8701POPC   C4A47898  36.081  10.528   7.353
 8701POPC   C1B47899  36.325  10.427   6.453
 8701POPC   C2B47900  36.378  10.484   6.753
 8701POPC   C3B47901  36.388  10.420   7.053
 8701POPC   C4B47902  36.371  10.420   7.353
 8702POPC   NC347903  17.549   3.546   5.553
 8702POPC   PO447904  17.519   3.498   5.853
 8702POPC   GL147905  17.509   3.590   6.153
 8702POPC   GL247906  17.547   3.471   6.153
 8702POPC   C1A47907  17.535   3.511   6.453
 8702POPC   D2A47908  17.543   3.512   6.753
 8702POPC   C3A47909  17.556   3.565   7.053
 8702POPC   C4A47910  17.548   3.508   7.353
 8702POPC   C1B47911  17.620   3.329   6.453
 8702POPC   C2B47912  17.619   3.332   6.753
 8702POPC   C3B47913  17.620   3.316   7.053
 8702POPC   C4B47914  17.626   3.281   7.353
 8703POPC   NC347915  44.677  31.475   5.553
 8703POPC   PO447916  44.631  31.513   5.853
 8703POPC   GL147917  44.631  31.459   6.153
 8703POPC   GL247918  44.545  31.525   6.153
 8703POPC   C1A47919  44.681  31.453   6.453
 8703POPC   D2A47920  44.688  31.429   6.753
 8703POPC   C3A47921  44.649  31.517   7.053
 8703POPC   C4A47922  44.654  31.499   7.353
 8703POPC   C1B47923  44.440  31.598   6.453
 8703POPC   C2B47924  44.476  31.571   6.753
 8703POPC   C3B47925  44.475  31.632   7.053
 8703POPC   C4B47926  44.478  31.627   7.353
 8704POPC   NC347927  33.819  39.208   5.553
 8704POPC   PO447928  33.799  39.270   5.853
 8704POPC   GL147929  33.791  39.198   6.153
 8704POPC   GL247930  33.740  39.142   6.153
 8704POPC   C1A47931  33.799  39.234   6.453
 8704POPC   D2A47932  33.849  39.195   6.753
 8704POPC   C3A47933  33.844  39.244   7.053
 8704POPC   C4A47934  33.756  39.183   7.353
 8704POPC   C1B47935  33.627  39.099   6.453
 8704POPC   C2B47936  33.617  39.070   6.753
 8704POPC   C3B47937  33.614  39.150   7.053
 8704POPC   C4B47938  33.569  39.111   7.353
 8705POPC   NC347939  31.489  29.961   5.553
 8705POPC   PO447940  31.485  29.943   5.853
 8705POPC   GL147941  31.424  29.961   6.153
 8705POPC   GL247942  31.506  29.821   6.153
 8705POPC   C1A47943  31.504  29.941   6.453
 8705POPC   D2A47944  31.469  29.946   6.753
 8705POPC   C3A47945  31.455  29.943   7.053
 8705POPC   C4A47946  31.501  29.942   7.353
 8705POPC   C1B47947  31.672  29.773   6.453
 8705POPC   C2B47948  31.645  29.687   6.753
 8705POPC   C3B47949  31.605  29.677   7.053
 8705POPC   C4B47950  31.592  29.755   7.353
 8706POPC   NC347951  43.845   5.882   5.553
 8706POPC   PO447952  43.896   5.847   5.853
 8706POPC   GL147953  43.872   5.899   6.153
 8706POPC   GL247954  43.731   5.934   6.153
 8706POPC   C1A47955  43.900   5.822   6.453
 8706POPC   D2A47956  43.925   5.897   6.753
 8706POPC   C3A47957  43.871   5.834   7.053
 8706POPC   C4A47958  43.845   5.860   7.353
 8706POPC   C1B47959  43.634   5.982   6.453
 8706POPC   C2B47960  43.685   5.979   6.753
 8706POPC   C3B47961  43.650   6.039   7.053
 8706POPC   C4B47962  43.625   5.996   7.353
 8707POPC   NC347963   7.470   1.213   5.553
 8707POPC   PO447964   7.426   1.191   5.853
 8707POPC   GL147965   7.401   1.212   6.153
 8707POPC   GL247966   7.371   1.160   6.153
 8707POPC   C1A47967   7.385   1.232   6.453
 8707POPC   D2A47968   7.449   1.217   6.753
 8707POPC   C3A47969   7.439   1.187   7.053
 8707POPC   C4A47970   7.442   1.225   7.353
 8707POPC   C1B47971   7.232   1.053   6.453
 8707POPC   C2B47972   7.185   1.070   6.753
 8707POPC   C3B47973   7.187   1.067   7.053
 8707POPC   C4B47974   7.255   1.034   7.353
 8708POPC   NC347975   0.434   2.746   5.553
 8708POPC   PO447976   0.450   2.747   5.853
 8708POPC   GL147977   0.402   2.742   6.153
 8708POPC   GL247978   0.588   2.833   6.153
 8708POPC   C1A47979   0.415   2.746   6.453
 8708POPC   D2A47980   0.487   2.799   6.753
 8708POPC   C3A47981   0.452   2.812   7.053
 8708POPC   C4A47982   0.420   2.747   7.353
 8708POPC   C1B47983   0.643   2.906   6.453
 8708POPC   C2B47984   0.592   2.864   6.753
 8708POPC   C3B47985   0.675   2.873   7.053
 8708POPC   C4B47986   0.661   2.901   7.353
 8709POPC   NC347987   8.924  27.617   5.553
 8709POPC   PO447988   8.939  27.635   5.853
 8709POPC   GL147989   8.976  27.563   6.153
 8709POPC   GL247990   9.068  27.652   6.153
 8709POPC   C1A47991   8.986  27.600   6.453
 8709POPC   D2A47992   8.955  27.594   6.753
 8709POPC   C3A47993   8.990  27.597   7.053
 8709POPC   C4A47994   9.000  27.585   7.353
 8709POPC   C1B47995   9.172  27.665   6.453
 8709POPC   C2B47996   9.215  27.637   6.753
 8709POPC   C3B47997   9.220  27.730   7.053
 8709POPC   C4B47998   9.166  27.709   7.353
 8710POPC   NC347999  35.380  18.249   5.553
 8710POPC   PO448000  35.363  18.237   5.853
 8710POPC   GL148001  35.374  18.236   6.153
 8710POPC   GL248002  35.188  18.197   6.153
 8710POPC   C1A48003  35.356  18.306   6.453
 8710POPC   D2A48004  35.341  18.275   6.753
 8710POPC   C3A48005  35.353  18.313   7.053
 8710POPC   C4A48006  35.322  18.280   7.353
 8710POPC   C1B48007  35.102  18.229   6.453
 8710POPC   C2B48008  35.155  18.252   6.753
 8710POPC   C3B48009  35.064  18.190   7.053
 8710POPC   C4B48010  35.134  18.185   7.353
 8711POPC   NC348011   3.579  22.123   5.553
 8711POPC   PO448012   3.500  22.146   5.853
 8711POPC   GL148013   3.574  22.188   6.153
 8711POPC   GL248014   3.395  22.165   6.153
 8711POPC   C1A48015   3.498  22.166   6.453
 8711POPC   D2A48016   3.519  22.136   6.753
 8711POPC   C3A48017   3.540  22.185   7.053
 8711POPC   C4A48018   3.586  22.159   7.353
 8711POPC   C1B48019   3.302  22.104   6.453
 8711POPC   C2B48020   3.322  22.168   6.753
 8711POPC   C3B48021   3.311  22.087   7.053
 8711POPC   C4B48022   3.299  22.168   7.353
 8712POPC   NC348023  13.614  17.475   5.553
 8712POPC   PO448024  13.660  17.517   5.853
 8712POPC   GL148025  13.655  17.473   6.153
 8712POPC   GL248026  13.737  17.432   6.153
 8712POPC   C1A48027  13.651  17.530   6.453
 8712POPC   D2A48028  13.629  17.474   6.753
 8712POPC   C3A48029  13.604  17.477   7.053
 8712POPC   C4A48030  13.590  17.493   7.353
 8712POPC   C1B48031  13.765  17.293   6.453
 8712POPC   C2B48032  13.798  17.304   6.753
 8712POPC   C3B48033  13.789  17.343   7.053
 8712POPC   C4B48034  13.795  17.276   7.353
 8713POPC   NC348035  29.936  18.244   5.553
 8713POPC   PO448036  29.882  18.241   5.853
 8713POPC   GL148037  29.931  18.311   6.153
 8713POPC   GL248038  30.005  18.434   6.153
 8713POPC   C1A48039  29.931  18.279   6.453
 8713POPC   D2A48040  29.938  18.268   6.753
 8713POPC   C3A48041  29.967  18.263   7.053
 8713POPC   C4A48042  29.952  18.268   7.353
 8713POPC   C1B48043  29.987  18.532   6.453
 8713POPC   C2B48044  30.071  18.472   6.753
 8713POPC   C3B48045  30.035  18.466   7.053
 8713POPC   C4B48046  30.056  18.532   7.353
 8714POPC   NC348047  32.199  26.081   5.553
 8714POPC   PO448048  32.255  26.002   5.853
 8714POPC   GL148049  32.257  26.005   6.153
 8714POPC   GL248050  32.131  26.093   6.153
 8714POPC   C1A48051  32.274  26.009   6.453
 8714POPC   D2A48052  32.293  26.075   6.753
 8714POPC   C3A48053  32.214  26.071   7.053
 8714POPC   C4A48054  32.228  26.087   7.353
 8714POPC   C1B48055  32.058  26.213   6.453
 8714POPC   C2B48056  32.075  26.286   6.753
 8714POPC   C3B48057  32.061  26.203   7.053
 8714POPC   C4B48058  32.140  26.258   7.353
 8715POPC   NC348059  19.100  38.440   5.553
 8715POPC   PO448060  19.012  38.433   5.853
 8715POPC   GL148061  19.034  38.439   6.153
 8715POPC   GL248062  18.894  38.446   6.153
 8715POPC   C1A48063  19.022  38.494   6.453
 8715POPC   D2A48064  19.079  38.461   6.753
 8715POPC   C3A48065  19.041  38.416   7.053
 8715POPC   C4A48066  19.076  38.447   7.353
 8715POPC   C1B48067  18.776  38.562   6.453
 8715POPC   C2B48068  18.771  38.533   6.753
 8715POPC   C3B48069  18.866  38.476   7.053
 8715POPC   C4B48070  18.771  38.548   7.353
 8716POPC   NC348071  36.894  23.730   5.553
 8716POPC   PO448072  36.861  23.683   5.853
 8716POPC   GL148073  36.867  23.760   6.153
 8716POPC   GL248074  36.776  23.692   6.153
 8716POPC   C1A48075  36.857  23.747   6.453
 8716POPC   D2A48076  36.942  23.746   6.753
 8716POPC   C3A48077  36.867  23.728   7.053
 8716POPC   C4A48078  36.906  23.695   7.353
 8716POPC   C1B48079  36.709  23.571   6.453
 8716POPC   C2B48080  36.713  23.554   6.753
 8716POPC   C3B48081  36.738  23.588   7.053
 8716POPC   C4B48082  36.651  23.619   7.353
 8717POPC   NC348083   5.879  40.784   5.553
 8717POPC   PO448084   5.857  40.774   5.853
 8717POPC   GL148085   5.848  40.829   6.153
 8717POPC   GL248086   5.722  40.799   6.153
 8717POPC   C1A48087   5.863  40.767   6.453
 8717POPC   D2A48088   5.888  40.828   6.753
 8717POPC   C3A48089   5.836  40.804   7.053
 8717POPC   C4A48090   5.823  40.754   7.353
 8717POPC   C1B48091   5.615  40.766   6.453
 8717POPC   C2B48092   5.646  40.802   6.753
 8717POPC   C3B48093   5.588  40.788   7.053
 8717POPC   C4B48094   5.662  40.756   7.353
 8718POPC   NC348095   9.764  12.032   5.553
 8718POPC   PO448096   9.786  12.110   5.853
 8718POPC   GL148097   9.728  12.087   6.153
 8718POPC   GL248098   9.685  12.011   6.153
 8718POPC   C1A48099   9.725  12.090   6.453
 8718POPC   D2A48100   9.787  12.103   6.753
 8718POPC   C3A48101   9.758  12.079   7.053
 8718POPC   C4A48102   9.750  12.042   7.353
 8718POPC   C1B48103   9.547  11.895   6.453
 8718POPC   C2B48104   9.585  11.902   6.753
 8718POPC   C3B48105   9.598  11.918   7.053
 8718POPC   C4B48106   9.587  11.932   7.353
 8719POPC   NC348107  42.367  27.622   5.553
 8719POPC   PO448108  42.371  27.604   5.853
 8719POPC   GL148109  42.346  27.603   6.153
 8719POPC   GL248110  42.342  27.712   6.153
 8719POPC   C1A48111  42.318  27.570   6.453
 8719POPC   D2A48112  42.301  27.610   6.753
 8719POPC   C3A48113  42.361  27.548   7.053
 8719POPC   C4A48114  42.356  27.637   7.353
 8719POPC   C1B48115  42.277  27.876   6.453
 8719POPC   C2B48116  42.311  27.839   6.753
 8719POPC   C3B48117  42.352  27.844   7.053
 8719POPC   C4B48118  42.334  27.890   7.353
 8720POPC   NC348119  22.889  39.959   5.553
 8720POPC   PO448120  22.956  39.992   5.853
 8720POPC   GL148121  22.905  39.994   6.153
 8720POPC   GL248122  22.827  40.007   6.153
 8720POPC   C1A48123  22.914  40.039   6.453
 8720POPC   D2A48124  22.901  39.979   6.753
 8720POPC   C3A48125  22.970  39.961   7.053
 8720POPC   C4A48126  22.945  39.968   7.353
 8720POPC   C1B48127  22.715  39.985   6.453
 8720POPC   C2B48128  22.700  40.062   6.753
 8720POPC   C3B48129  22.673  39.990   7.053
 8720POPC   C4B48130  22.698  40.037   7.353
 8721POPC   NC348131  44.700  22.158   5.553
 8721POPC   PO448132  44.636  22.156   5.853
 8721POPC   GL148133  44.702  22.187   6.153
 8721POPC   GL248134  44.682  22.032   6.153
 8721POPC   C1A48135  44.661  22.131   6.453
 8721POPC   D2A48136  44.626  22.116   6.753
 8721POPC   C3A48137  44.708  22.172   7.053
 8721POPC   C4A48138  44.668  22.119   7.353
 8721POPC   C1B48139  44.704  21.876   6.453
 8721POPC   C2B48140  44.725  21.882   6.753
 8721POPC   C3B48141  44.683  21.899   7.053
 8721POPC   C4B48142  44.697  21.902   7.353
 8722POPC   NC348143   9.013  36.151   5.553
 8722POPC   PO448144   9.022  36.177   5.853
 8722POPC   GL148145   8.927  36.133   6.153
 8722POPC   GL248146   8.934  36.269   6.153
 8722POPC   C1A48147   9.006  36.125   6.453
 8722POPC   D2A48148   8.998  36.106   6.753
 8722POPC   C3A48149   8.925  36.099   7.053
 8722POPC   C4A48150   8.996  36.113   7.353
 8722POPC   C1B48151   8.878  36.342   6.453
 8722POPC   C2B48152   8.847  36.370   6.753
 8722POPC   C3B48153   8.816  36.306   7.053
 8722POPC   C4B48154   8.829  36.302   7.353
 8723POPC   NC348155  42.359  32.287   5.553
 8723POPC   PO448156  42.333  32.224   5.853
 8723POPC   GL148157  42.370  32.243   6.153
 8723POPC   GL248158  42.254  32.183   6.153
 8723POPC   C1A48159  42.318  32.236   6.453
 8723POPC   D2A48160  42.352  32.248   6.753
 8723POPC   C3A48161  42.342  32.231   7.053
 8723POPC   C4A48162  42.308  32.283   7.353
 8723POPC   C1B48163  42.214  32.098   6.453
 8723POPC   C2B48164  42.226  32.053   6.753
 8723POPC   C3B48165  42.163  32.074   7.053
 8723POPC   C4B48166  42.163  32.044   7.353
 8724POPC   NC348167  18.310  15.161   5.553
 8724POPC   PO448168  18.261  15.184   5.853
 8724POPC   GL148169  18.244  15.196   6.153
 8724POPC   GL248170  18.382  15.249   6.153
 8724POPC   C1A48171  18.235  15.179   6.453
 8724POPC   D2A48172  18.257  15.206   6.753
 8724POPC   C3A48173  18.262  15.167   7.053
 8724POPC   C4A48174  18.319  15.205   7.353
 8724POPC   C1B48175  18.445  15.306   6.453
 8724POPC   C2B48176  18.487  15.351   6.753
 8724POPC   C3B48177  18.462  15.357   7.053
 8724POPC   C4B48178  18.519  15.330   7.353
 8725POPC   NC348179  38.493   1.205   5.553
 8725POPC   PO448180  38.499   1.254   5.853
 8725POPC   GL148181  38.497   1.172   6.153
 8725POPC   GL248182  38.397   1.125   6.153
 8725POPC   C1A48183  38.457   1.234   6.453
 8725POPC   D2A48184  38.484   1.167   6.753
 8725POPC   C3A48185  38.474   1.170   7.053
 8725POPC   C4A48186  38.419   1.165   7.353
 8725POPC   C1B48187  38.220   1.064   6.453
 8725POPC   C2B48188  38.299   1.059   6.753
 8725POPC   C3B48189  38.283   1.025   7.053
 8725POPC   C4B48190  38.257   1.090   7.353
 8726POPC   NC348191  44.644  33.813   5.553
 8726POPC   PO448192  44.648  33.770   5.853
 8726POPC   GL148193  44.658  33.789   6.153
 8726POPC   GL248194  44.533  33.779   6.153
 8726POPC   C1A48195  44.649  33.844   6.453
 8726POPC   D2A48196  44.640  33.824   6.753
 8726POPC   C3A48197  44.687  33.781   7.053
 8726POPC   C4A48198  44.662  33.816   7.353
 8726POPC   C1B48199  44.420  33.756   6.453
 8726POPC   C2B48200  44.371  33.739   6.753
 8726POPC   C3B48201  44.429  33.797   7.053
 8726POPC   C4B48202  44.457  33.741   7.353
 8727POPC   NC348203  10.511  23.728   5.553
 8727POPC   PO448204  10.528  23.724   5.853
 8727POPC   GL148205  10.493  23.707   6.153
 8727POPC   GL248206  10.609  23.656   6.153
 8727POPC   C1A48207  10.565  23.706   6.453
 8727POPC   D2A48208  10.559  23.678   6.753
 8727POPC   C3A48209  10.547  23.698   7.053
 8727POPC   C4A48210  10.573  23.694   7.353
 8727POPC   C1B48211  10.650  23.508   6.453
 8727POPC   C2B48212  10.698  23.477   6.753
 8727POPC   C3B48213  10.692  23.519   7.053
 8727POPC   C4B48214  10.674  23.520   7.353
 8728POPC   NC348215  33.770  42.323   5.553
 8728POPC   PO448216  33.847  42.361   5.853
 8728POPC   GL148217  33.785  42.333   6.153
 8728POPC   GL248218  33.669  42.356   6.153
 8728POPC   C1A48219  33.778  42.375   6.453
 8728POPC   D2A48220  33.846  42.362   6.753
 8728POPC   C3A48221  33.833  42.297   7.053
 8728POPC   C4A48222  33.779  42.287   7.353
 8728POPC   C1B48223  33.575  42.319   6.453
 8728POPC   C2B48224  33.530  42.343   6.753
 8728POPC   C3B48225  33.570  42.329   7.053
 8728POPC   C4B48226  33.516  42.342   7.353
 8729POPC   NC348227  20.565  12.864   5.553
 8729POPC   PO448228  20.611  12.852   5.853
 8729POPC   GL148229  20.570  12.893   6.153
 8729POPC   GL248230  20.689  12.813   6.153
 8729POPC   C1A48231  20.600  12.835   6.453
 8729POPC   D2A48232  20.562  12.826   6.753
 8729POPC   C3A48233  20.613  12.854   7.053
 8729POPC   C4A48234  20.648  12.876   7.353
 8729POPC   C1B48235  20.874  12.757   6.453
 8729POPC   C2B48236  20.822  12.783   6.753
 8729POPC   C3B48237  20.835  12.779   7.053
 8729POPC   C4B48238  20.815  12.745   7.353
 8730POPC   NC348239  26.860  26.830   5.553
 8730POPC   PO448240  26.805  26.837   5.853
 8730POPC   GL148241  26.861  26.769   6.153
 8730POPC   GL248242  26.738  26.982   6.153
 8730POPC   C1A48243  26.795  26.819   6.453
 8730POPC   D2A48244  26.784  26.809   6.753
 8730POPC   C3A48245  26.842  26.849   7.053
 8730POPC   C4A48246  26.777  26.812   7.353
 8730POPC   C1B48247  26.758  27.045   6.453
 8730POPC   C2B48248  26.717  27.077   6.753
 8730POPC   C3B48249  26.759  27.034   7.053
 8730POPC   C4B48250  26.798  27.020   7.353
 8731POPC   NC348251  22.965   5.131   5.553
 8731POPC   PO448252  22.906   5.082   5.853
 8731POPC   GL148253  22.918   5.140   6.153
 8731POPC   GL248254  23.039   5.196   6.153
 8731POPC   C1A48255  22.907   5.057   6.453
 8731POPC   D2A48256  22.888   5.075   6.753
 8731POPC   C3A48257  22.921   5.094   7.053
 8731POPC   C4A48258  22.905   5.065   7.353
 8731POPC   C1B48259  23.127   5.206   6.453
 8731POPC   C2B48260  23.160   5.221   6.753
 8731POPC   C3B48261  23.164   5.267   7.053
 8731POPC   C4B48262  23.111   5.222   7.353
 8732POPC   NC348263  27.592  28.343   5.553
 8732POPC   PO448264  27.598  28.395   5.853
 8732POPC   GL148265  27.614  28.361   6.153
 8732POPC   GL248266  27.666  28.469   6.153
 8732POPC   C1A48267  27.601  28.408   6.453
 8732POPC   D2A48268  27.585  28.390   6.753
 8732POPC   C3A48269  27.629  28.381   7.053
 8732POPC   C4A48270  27.589  28.370   7.353
 8732POPC   C1B48271  27.853  28.431   6.453
 8732POPC   C2B48272  27.790  28.450   6.753
 8732POPC   C3B48273  27.775  28.471   7.053
 8732POPC   C4B48274  27.833  28.502   7.353
 8733POPC   NC348275  12.111  12.879   5.553
 8733POPC   PO448276  12.052  12.894   5.853
 8733POPC   GL148277  12.087  12.885   6.153
 8733POPC   GL248278  12.226  12.829   6.153
 8733POPC   C1A48279  12.072  12.824   6.453
 8733POPC   D2A48280  12.096  12.824   6.753
 8733POPC   C3A48281  12.034  12.863   7.053
 8733POPC   C4A48282  12.061  12.887   7.353
 8733POPC   C1B48283  12.351  12.771   6.453
 8733POPC   C2B48284  12.311  12.792   6.753
 8733POPC   C3B48285  12.311  12.811   7.053
 8733POPC   C4B48286  12.338  12.785   7.353
 8734POPC   NC348287  14.369   8.235   5.553
 8734POPC   PO448288  14.414   8.246   5.853
 8734POPC   GL148289  14.409   8.152   6.153
 8734POPC   GL248290  14.450   8.333   6.153
 8734POPC   C1A48291  14.354   8.216   6.453
 8734POPC   D2A48292  14.369   8.224   6.753
 8734POPC   C3A48293  14.384   8.166   7.053
 8734POPC   C4A48294  14.436   8.206   7.353
 8734POPC   C1B48295  14.536   8.428   6.453
 8734POPC   C2B48296  14.530   8.421   6.753
 8734POPC   C3B48297  14.510   8.371   7.053
 8734POPC   C4B48298  14.532   8.421   7.353
 8735POPC   NC348299  38.454  19.834   5.553
 8735POPC   PO448300  38.406  19.796   5.853
 8735POPC   GL148301  38.457  19.856   6.153
 8735POPC   GL248302  38.372  19.748   6.153
 8735POPC   C1A48303  38.421  19.799   6.453
 8735POPC   D2A48304  38.460  19.818   6.753
 8735POPC   C3A48305  38.490  19.788   7.053
 8735POPC   C4A48306  38.448  19.850   7.353
 8735POPC   C1B48307  38.231  19.736   6.453
 8735POPC   C2B48308  38.252  19.705   6.753
 8735POPC   C3B48309  38.276  19.697   7.053
 8735POPC   C4B48310  38.278  19.703   7.353
 8736POPC   NC348311   1.197   6.686   5.553
 8736POPC   PO448312   1.247   6.684   5.853
 8736POPC   GL148313   1.195   6.694   6.153
 8736POPC   GL248314   1.144   6.742   6.153
 8736POPC   C1A48315   1.252   6.633   6.453
 8736POPC   D2A48316   1.169   6.600   6.753
 8736POPC   C3A48317   1.165   6.636   7.053
 8736POPC   C4A48318   1.215   6.678   7.353
 8736POPC   C1B48319   1.008   6.733   6.453
 8736POPC   C2B48320   0.957   6.727   6.753
 8736POPC   C3B48321   1.038   6.708   7.053
 8736POPC   C4B48322   1.006   6.718   7.353
 8737POPC   NC348323  42.287  17.514   5.553
 8737POPC   PO448324  42.303  17.525   5.853
 8737POPC   GL148325  42.318  17.542   6.153
 8737POPC   GL248326  42.317  17.641   6.153
 8737POPC   C1A48327  42.328  17.531   6.453
 8737POPC   D2A48328  42.312  17.494   6.753
 8737POPC   C3A48329  42.364  17.552   7.053
 8737POPC   C4A48330  42.325  17.542   7.353
 8737POPC   C1B48331  42.238  17.718   6.453
 8737POPC   C2B48332  42.246  17.711   6.753
 8737POPC   C3B48333  42.261  17.735   7.053
 8737POPC   C4B48334  42.264  17.698   7.353
 8738POPC   NC348335   8.156   1.940   5.553
 8738POPC   PO448336   8.170   1.998   5.853
 8738POPC   GL148337   8.235   2.035   6.153
 8738POPC   GL248338   8.122   2.098   6.153
 8738POPC   C1A48339   8.172   2.006   6.453
 8738POPC   D2A48340   8.240   1.952   6.753
 8738POPC   C3A48341   8.221   1.995   7.053
 8738POPC   C4A48342   8.153   1.952   7.353
 8738POPC   C1B48343   8.063   2.170   6.453
 8738POPC   C2B48344   8.088   2.186   6.753
 8738POPC   C3B48345   8.006   2.203   7.053
 8738POPC   C4B48346   8.023   2.178   7.353
 8739POPC   NC348347  26.042  36.859   5.553
 8739POPC   PO448348  25.999  36.891   5.853
 8739POPC   GL148349  26.077  36.925   6.153
 8739POPC   GL248350  25.951  37.032   6.153
 8739POPC   C1A48351  26.080  36.861   6.453
 8739POPC   D2A48352  26.080  36.856   6.753
 8739POPC   C3A48353  26.008  36.858   7.053
 8739POPC   C4A48354  26.004  36.888   7.353
 8739POPC   C1B48355  25.909  37.162   6.453
 8739POPC   C2B48356  25.964  37.088   6.753
 8739POPC   C3B48357  25.916  37.116   7.053
 8739POPC   C4B48358  25.896  37.167   7.353
 8740POPC   NC348359   7.413  36.908   5.553
 8740POPC   PO448360   7.423  36.854   5.853
 8740POPC   GL148361   7.444  36.870   6.153
 8740POPC   GL248362   7.405  36.826   6.153
 8740POPC   C1A48363   7.467  36.952   6.453
 8740POPC   D2A48364   7.461  36.893   6.753
 8740POPC   C3A48365   7.421  36.889   7.053
 8740POPC   C4A48366   7.437  36.943   7.353
 8740POPC   C1B48367   7.487  36.638   6.453
 8740POPC   C2B48368   7.414  36.669   6.753
 8740POPC   C3B48369   7.478  36.620   7.053
 8740POPC   C4B48370   7.450  36.694   7.353
 8741POPC   NC348371  22.968  31.441   5.553
 8741POPC   PO448372  22.929  31.442   5.853
 8741POPC   GL148373  22.970  31.519   6.153
 8741POPC   GL248374  22.856  31.464   6.153
 8741POPC   C1A48375  22.953  31.479   6.453
 8741POPC   D2A48376  22.953  31.519   6.753
 8741POPC   C3A48377  22.934  31.513   7.053
 8741POPC   C4A48378  22.954  31.431   7.353
 8741POPC   C1B48379  22.679  31.533   6.453
 8741POPC   C2B48380  22.712  31.574   6.753
 8741POPC   C3B48381  22.678  31.585   7.053
 8741POPC   C4B48382  22.711  31.588   7.353
 8742POPC   NC348383   6.624  18.259   5.553
 8742POPC   PO448384   6.653  18.263   5.853
 8742POPC   GL148385   6.615  18.286   6.153
 8742POPC   GL248386   6.556  18.193   6.153
 8742POPC   C1A48387   6.597  18.264   6.453
 8742POPC   D2A48388   6.616  18.251   6.753
 8742POPC   C3A48389   6.645  18.318   7.053
 8742POPC   C4A48390   6.672  18.314   7.353
 8742POPC   C1B48391   6.455  18.087   6.453
 8742POPC   C2B48392   6.490  18.114   6.753
 8742POPC   C3B48393   6.433  18.092   7.053
 8742POPC   C4B48394   6.437  18.066   7.353
 8743POPC   NC348395  14.428  25.310   5.553
 8743POPC   PO448396  14.387  25.288   5.853
 8743POPC   GL148397  14.406  25.253   6.153
 8743POPC   GL248398  14.307  25.344   6.153
 8743POPC   C1A48399  14.383  25.303   6.453
 8743POPC   D2A48400  14.433  25.229   6.753
 8743POPC   C3A48401  14.401  25.270   7.053
 8743POPC   C4A48402  14.372  25.304   7.353
 8743POPC   C1B48403  14.180  25.465   6.453
 8743POPC   C2B48404  14.189  25.380   6.753
 8743POPC   C3B48405  14.178  25.420   7.053
 8743POPC   C4B48406  14.207  25.386   7.353
 8744POPC   NC348407  40.762  24.468   5.553
 8744POPC   PO448408  40.821  24.480   5.853
 8744POPC   GL148409  40.744  24.522   6.153
 8744POPC   GL248410  40.722  24.564   6.153
 8744POPC   C1A48411  40.808  24.493   6.453
 8744POPC   D2A48412  40.787  24.490   6.753
 8744POPC   C3A48413  40.754  24.537   7.053
 8744POPC   C4A48414  40.772  24.444   7.353
 8744POPC   C1B48415  40.758  24.719   6.453
 8744POPC   C2B48416  40.753  24.698   6.753
 8744POPC   C3B48417  40.722  24.783   7.053
 8744POPC   C4B48418  40.702  24.701   7.353
 8745POPC   NC348419  37.712  24.467   5.553
 8745POPC   PO448420  37.719  24.485   5.853
 8745POPC   GL148421  37.648  24.486   6.153
 8745POPC   GL248422  37.654  24.380   6.153
 8745POPC   C1A48423  37.683  24.522   6.453
 8745POPC   D2A48424  37.727  24.539   6.753
 8745POPC   C3A48425  37.708  24.448   7.053
 8745POPC   C4A48426  37.646  24.475   7.353
 8745POPC   C1B48427  37.595  24.264   6.453
 8745POPC   C2B48428  37.612  24.264   6.753
 8745POPC   C3B48429  37.634  24.238   7.053
 8745POPC   C4B48430  37.618  24.282   7.353
 8746POPC   NC348431   4.356  12.849   5.553
 8746POPC   PO448432   4.271  12.882   5.853
 8746POPC   GL148433   4.349  12.858   6.153
 8746POPC   GL248434   4.146  12.834   6.153
 8746POPC   C1A48435   4.343  12.843   6.453
 8746POPC   D2A48436   4.331  12.900   6.753
 8746POPC   C3A48437   4.348  12.874   7.053
 8746POPC   C4A48438   4.346  12.870   7.353
 8746POPC   C1B48439   4.039  12.879   6.453
 8746POPC   C2B48440   4.088  12.868   6.753
 8746POPC   C3B48441   4.113  12.822   7.053
 8746POPC   C4B48442   4.050  12.812   7.353
 8747POPC   NC348443  35.373  42.306   5.553
 8747POPC   PO448444  35.308  42.334   5.853
 8747POPC   GL148445  35.388  42.343   6.153
 8747POPC   GL248446  35.463  42.387   6.153
 8747POPC   C1A48447  35.388  42.307   6.453
 8747POPC   D2A48448  35.306  42.344   6.753
 8747POPC   C3A48449  35.305  42.383   7.053
 8747POPC   C4A48450  35.352  42.380   7.353
 8747POPC   C1B48451  35.613  42.429   6.453
 8747POPC   C2B48452  35.586  42.365   6.753
 8747POPC   C3B48453  35.589  42.427   7.053
 8747POPC   C4B48454  35.559  42.358   7.353
 8748POPC   NC348455  19.828   2.726   5.553
 8748POPC   PO448456  19.837   2.766   5.853
 8748POPC   GL148457  19.813   2.799   6.153
 8748POPC   GL248458  19.940   2.729   6.153
 8748POPC   C1A48459  19.793   2.777   6.453
 8748POPC   D2A48460  19.860   2.803   6.753
 8748POPC   C3A48461  19.826   2.778   7.053
 8748POPC   C4A48462  19.877   2.726   7.353
 8748POPC   C1B48463  20.088   2.711   6.453
 8748POPC   C2B48464  20.073   2.640   6.753
 8748POPC   C3B48465  20.063   2.698   7.053
 8748POPC   C4B48466  20.118   2.716   7.353
 8749POPC   NC348467  32.203  12.832   5.553
 8749POPC   PO448468  32.255  12.816   5.853
 8749POPC   GL148469  32.263  12.886   6.153
 8749POPC   GL248470  32.347  12.849   6.153
 8749POPC   C1A48471  32.220  12.842   6.453
 8749POPC   D2A48472  32.264  12.817   6.753
 8749POPC   C3A48473  32.282  12.873   7.053
 8749POPC   C4A48474  32.276  12.869   7.353
 8749POPC   C1B48475  32.473  12.978   6.453
 8749POPC   C2B48476  32.450  12.890   6.753
 8749POPC   C3B48477  32.479  12.919   7.053
 8749POPC   C4B48478  32.471  12.889   7.353
 8750POPC   NC348479  19.057  15.980   5.553
 8750POPC   PO448480  19.072  15.911   5.853
 8750POPC   GL148481  19.071  15.931   6.153
 8750POPC   GL248482  18.939  15.844   6.153
 8750POPC   C1A48483  19.023  15.977   6.453
 8750POPC   D2A48484  19.094  15.952   6.753
 8750POPC   C3A48485  19.019  16.005   7.053
 8750POPC   C4A48486  19.029  15.931   7.353
 8750POPC   C1B48487  18.864  15.779   6.453
 8750POPC   C2B48488  18.938  15.719   6.753
 8750POPC   C3B48489  18.929  15.753   7.053
 8750POPC   C4B48490  18.870  15.787   7.353
 8751POPC   NC348491  26.820  43.125   5.553
 8751POPC   PO448492  26.854  43.096   5.853
 8751POPC   GL148493  26.843  43.145   6.153
 8751POPC   GL248494  26.847  43.217   6.153
 8751POPC   C1A48495  26.837  43.111   6.453
 8751POPC   D2A48496  26.842  43.139   6.753
 8751POPC   C3A48497  26.824  43.107   7.053
 8751POPC   C4A48498  26.850  43.080   7.353
 8751POPC   C1B48499  26.810  43.392   6.453
 8751POPC   C2B48500  26.829  43.347   6.753
 8751POPC   C3B48501  26.807  43.318   7.053
 8751POPC   C4B48502  26.839  43.347   7.353
 8752POPC   NC348503  44.617  43.068   5.553
 8752POPC   PO448504  44.698  43.156   5.853
 8752POPC   GL148505  44.653  43.088   6.153
 8752POPC   GL248506  44.640  43.186   6.153
 8752POPC   C1A48507  44.653  43.105   6.453
 8752POPC   D2A48508  44.620  43.136   6.753
 8752POPC   C3A48509  44.709  43.096   7.053
 8752POPC   C4A48510  44.681  43.076   7.353
 8752POPC   C1B48511  44.630  43.384   6.453
 8752POPC   C2B48512  44.613  43.318   6.753
 8752POPC   C3B48513  44.601  43.334   7.053
 8752POPC   C4B48514  44.619  43.353   7.353
 8753POPC   NC348515  31.439  11.269   5.553
 8753POPC   PO448516  31.476  11.284   5.853
 8753POPC   GL148517  31.460  11.298   6.153
 8753POPC   GL248518  31.436  11.203   6.153
 8753POPC   C1A48519  31.440  11.255   6.453
 8753POPC   D2A48520  31.473  11.330   6.753
 8753POPC   C3A48521  31.431  11.332   7.053
 8753POPC   C4A48522  31.502  11.339   7.353
 8753POPC   C1B48523  31.293  11.132   6.453
 8753POPC   C2B48524  31.342  11.157   6.753
 8753POPC   C3B48525  31.259  11.105   7.053
 8753POPC   C4B48526  31.297  11.121   7.353
 8754POPC   NC348527  19.838  20.585   5.553
 8754POPC   PO448528  19.821  20.614   5.853
 8754POPC   GL148529  19.834  20.656   6.153
 8754POPC   GL248530  19.761  20.546   6.153
 8754POPC   C1A48531  19.826  20.596   6.453
 8754POPC   D2A48532  19.867  20.585   6.753
 8754POPC   C3A48533  19.788  20.627   7.053
 8754POPC   C4A48534  19.817  20.594   7.353
 8754POPC   C1B48535  19.554  20.556   6.453
 8754POPC   C2B48536  19.645  20.516   6.753
 8754POPC   C3B48537  19.578  20.492   7.053
 8754POPC   C4B48538  19.554  20.524   7.353
 8755POPC   NC348539   4.286  17.466   5.553
 8755POPC   PO448540   4.290  17.486   5.853
 8755POPC   GL148541   4.315  17.546   6.153
 8755POPC   GL248542   4.197  17.552   6.153
 8755POPC   C1A48543   4.317  17.521   6.453
 8755POPC   D2A48544   4.271  17.502   6.753
 8755POPC   C3A48545   4.335  17.518   7.053
 8755POPC   C4A48546   4.280  17.546   7.353
 8755POPC   C1B48547   4.183  17.700   6.453
 8755POPC   C2B48548   4.098  17.635   6.753
 8755POPC   C3B48549   4.170  17.640   7.053
 8755POPC   C4B48550   4.173  17.726   7.353
 8756POPC   NC348551   5.913  29.121   5.553
 8756POPC   PO448552   5.868  29.182   5.853
 8756POPC   GL148553   5.822  29.133   6.153
 8756POPC   GL248554   5.980  29.098   6.153
 8756POPC   C1A48555   5.847  29.096   6.453
 8756POPC   D2A48556   5.880  29.176   6.753
 8756POPC   C3A48557   5.861  29.168   7.053
 8756POPC   C4A48558   5.863  29.187   7.353
 8756POPC   C1B48559   6.096  29.027   6.453
 8756POPC   C2B48560   6.031  29.017   6.753
 8756POPC   C3B48561   6.077  29.000   7.053
 8756POPC   C4B48562   6.028  29.009   7.353
 8757POPC   NC348563  19.798  28.401   5.553
 8757POPC   PO448564  19.840  28.361   5.853
 8757POPC   GL148565  19.836  28.370   6.153
 8757POPC   GL248566  19.979  28.257   6.153
 8757POPC   C1A48567  19.816  28.358   6.453
 8757POPC   D2A48568  19.883  28.331   6.753
 8757POPC   C3A48569  19.824  28.371   7.053
 8757POPC   C4A48570  19.855  28.393   7.353
 8757POPC   C1B48571  20.050  28.239   6.453
 8757POPC   C2B48572  20.075  28.267   6.753
 8757POPC   C3B48573  20.010  28.257   7.053
 8757POPC   C4B48574  20.057  28.210   7.353
 8758POPC   NC348575  28.371  16.780   5.553
 8758POPC   PO448576  28.374  16.686   5.853
 8758POPC   GL148577  28.320  16.705   6.153
 8758POPC   GL248578  28.437  16.613   6.153
 8758POPC   C1A48579  28.357  16.683   6.453
 8758POPC   D2A48580  28.354  16.695   6.753
 8758POPC   C3A48581  28.323  16.698   7.053
 8758POPC   C4A48582  28.339  16.748   7.353
 8758POPC   C1B48583  28.465  16.535   6.453
 8758POPC   C2B48584  28.461  16.521   6.753
 8758POPC   C3B48585  28.465  16.562   7.053
 8758POPC   C4B48586  28.528  16.534   7.353
 8759POPC   NC348587  43.069  18.300   5.553
 8759POPC   PO448588  43.088  18.304   5.853
 8759POPC   GL148589  43.149  18.301   6.153
 8759POPC   GL248590  43.005  18.236   6.153
 8759POPC   C1A48591  43.104  18.258   6.453
 8759POPC   D2A48592  43.129  18.268   6.753
 8759POPC   C3A48593  43.157  18.264   7.053
 8759POPC   C4A48594  43.160  18.298   7.353
 8759POPC   C1B48595  42.918  18.231   6.453
 8759POPC   C2B48596  42.924  18.147   6.753
 8759POPC   C3B48597  42.877  18.234   7.053
 8759POPC   C4B48598  42.836  18.151   7.353
 8760POPC   NC348599  22.899  40.812   5.553
 8760POPC   PO448600  22.962  40.742   5.853
 8760POPC   GL148601  22.945  40.817   6.153
 8760POPC   GL248602  22.783  40.739   6.153
 8760POPC   C1A48603  22.925  40.828   6.453
 8760POPC   D2A48604  22.918  40.792   6.753
 8760POPC   C3A48605  22.891  40.820   7.053
 8760POPC   C4A48606  22.963  40.795   7.353
 8760POPC   C1B48607  22.714  40.764   6.453
 8760POPC   C2B48608  22.644  40.734   6.753
 8760POPC   C3B48609  22.651  40.749   7.053
 8760POPC   C4B48610  22.676  40.719   7.353
 8761POPC   NC348611  24.521  28.350   5.553
 8761POPC   PO448612  24.476  28.371   5.853
 8761POPC   GL148613  24.537  28.333   6.153
 8761POPC   GL248614  24.414  28.250   6.153
 8761POPC   C1A48615  24.504  28.358   6.453
 8761POPC   D2A48616  24.522  28.414   6.753
 8761POPC   C3A48617  24.491  28.385   7.053
 8761POPC   C4A48618  24.450  28.323   7.353
 8761POPC   C1B48619  24.308  28.157   6.453
 8761POPC   C2B48620  24.359  28.150   6.753
 8761POPC   C3B48621  24.355  28.157   7.053
 8761POPC   C4B48622  24.327  28.157   7.353
 8762POPC   NC348623  29.935  29.108   5.553
 8762POPC   PO448624  29.922  29.099   5.853
 8762POPC   GL148625  29.967  29.114   6.153
 8762POPC   GL248626  29.775  29.244   6.153
 8762POPC   C1A48627  29.926  29.136   6.453
 8762POPC   D2A48628  29.947  29.183   6.753
 8762POPC   C3A48629  29.964  29.124   7.053
 8762POPC   C4A48630  29.895  29.129   7.353
 8762POPC   C1B48631  29.704  29.269   6.453
 8762POPC   C2B48632  29.744  29.302   6.753
 8762POPC   C3B48633  29.743  29.230   7.053
 8762POPC   C4B48634  29.655  29.232   7.353
 8763POPC   NC348635  12.833  25.272   5.553
 8763POPC   PO448636  12.835  25.276   5.853
 8763POPC   GL148637  12.803  25.263   6.153
 8763POPC   GL248638  12.770  25.142   6.153
 8763POPC   C1A48639  12.886  25.229   6.453
 8763POPC   D2A48640  12.824  25.282   6.753
 8763POPC   C3A48641  12.815  25.282   7.053
 8763POPC   C4A48642  12.811  25.300   7.353
 8763POPC   C1B48643  12.798  25.076   6.453
 8763POPC   C2B48644  12.766  24.997   6.753
 8763POPC   C3B48645  12.794  25.023   7.053
 8763POPC   C4B48646  12.786  25.003   7.353
 8764POPC   NC348647  36.148  20.606   5.553
 8764POPC   PO448648  36.153  20.604   5.853
 8764POPC   GL148649  36.172  20.571   6.153
 8764POPC   GL248650  36.034  20.619   6.153
 8764POPC   C1A48651  36.164  20.644   6.453
 8764POPC   D2A48652  36.101  20.605   6.753
 8764POPC   C3A48653  36.141  20.599   7.053
 8764POPC   C4A48654  36.140  20.598   7.353
 8764POPC   C1B48655  35.831  20.536   6.453
 8764POPC   C2B48656  35.915  20.563   6.753
 8764POPC   C3B48657  35.919  20.527   7.053
 8764POPC   C4B48658  35.841  20.606   7.353
 8765POPC   NC348659  41.527  25.232   5.553
 8765POPC   PO448660  41.517  25.270   5.853
 8765POPC   GL148661  41.545  25.274   6.153
 8765POPC   GL248662  41.566  25.435   6.153
 8765POPC   C1A48663  41.591  25.306   6.453
 8765POPC   D2A48664  41.537  25.276   6.753
 8765POPC   C3A48665  41.547  25.223   7.053
 8765POPC   C4A48666  41.515  25.313   7.353
 8765POPC   C1B48667  41.473  25.466   6.453
 8765POPC   C2B48668  41.509  25.541   6.753
 8765POPC   C3B48669  41.457  25.539   7.053
 8765POPC   C4B48670  41.447  25.551   7.353
 8766POPC   NC348671  16.747  43.876   5.553
 8766POPC   PO448672  16.767  43.842   5.853
 8766POPC   GL148673  16.774  43.923   6.153
 8766POPC   GL248674  16.851  43.828   6.153
 8766POPC   C1A48675  16.768  43.841   6.453
 8766POPC   D2A48676  16.777  43.856   6.753
 8766POPC   C3A48677  16.739  43.917   7.053
 8766POPC   C4A48678  16.706  43.922   7.353
 8766POPC   C1B48679  16.924  43.683   6.453
 8766POPC   C2B48680  16.870  43.735   6.753
 8766POPC   C3B48681  16.898  43.701   7.053
 8766POPC   C4B48682  16.869  43.661   7.353
 8767POPC   NC348683   0.424  30.725   5.553
 8767POPC   PO448684   0.422  30.715   5.853
 8767POPC   GL148685   0.442  30.738   6.153
 8767POPC   GL248686   0.440  30.620   6.153
 8767POPC   C1A48687   0.436  30.681   6.453
 8767POPC   D2A48688   0.472  30.746   6.753
 8767POPC   C3A48689   0.483  30.690   7.053
 8767POPC   C4A48690   0.455  30.693   7.353
 8767POPC   C1B48691   0.326  30.495   6.453
 8767POPC   C2B48692   0.393  30.449   6.753
 8767POPC   C3B48693   0.325  30.511   7.053
 8767POPC   C4B48694   0.346  30.506   7.353
 8768POPC   NC348695  26.838   4.298   5.553
 8768POPC   PO448696  26.853   4.338   5.853
 8768POPC   GL148697  26.828   4.330   6.153
 8768POPC   GL248698  26.939   4.323   6.153
 8768POPC   C1A48699  26.828   4.313   6.453
 8768POPC   D2A48700  26.845   4.280   6.753
 8768POPC   C3A48701  26.814   4.342   7.053
 8768POPC   C4A48702  26.834   4.294   7.353
 8768POPC   C1B48703  27.023   4.304   6.453
 8768POPC   C2B48704  27.067   4.266   6.753
 8768POPC   C3B48705  27.105   4.285   7.053
 8768POPC   C4B48706  27.026   4.246   7.353
 8769POPC   NC348707  34.533  38.412   5.553
 8769POPC   PO448708  34.541  38.497   5.853
 8769POPC   GL148709  34.603  38.467   6.153
 8769POPC   GL248710  34.602  38.372   6.153
 8769POPC   C1A48711  34.595  38.426   6.453
 8769POPC   D2A48712  34.575  38.407   6.753
 8769POPC   C3A48713  34.533  38.434   7.053
 8769POPC   C4A48714  34.536  38.459   7.353
 8769POPC   C1B48715  34.701  38.221   6.453
 8769POPC   C2B48716  34.774  38.207   6.753
 8769POPC   C3B48717  34.704  38.289   7.053
 8769POPC   C4B48718  34.753  38.282   7.353
 8770POPC   NC348719  41.578   1.950   5.553
 8770POPC   PO448720  41.567   2.026   5.853
 8770POPC   GL148721  41.525   2.035   6.153
 8770POPC   GL248722  41.434   1.970   6.153
 8770POPC   C1A48723  41.536   1.954   6.453
 8770POPC   D2A48724  41.518   2.002   6.753
 8770POPC   C3A48725  41.578   1.964   7.053
 8770POPC   C4A48726  41.567   1.945   7.353
 8770POPC   C1B48727  41.308   1.892   6.453
 8770POPC   C2B48728  41.346   1.893   6.753
 8770POPC   C3B48729  41.289   1.902   7.053
 8770POPC   C4B48730  41.351   1.892   7.353
 8771POPC   NC348731   8.158  44.699   5.553
 8771POPC   PO448732   8.193  44.697   5.853
 8771POPC   GL148733   8.203  44.688   6.153
 8771POPC   GL248734   8.254  44.611   6.153
 8771POPC   C1A48735   8.227  44.697   6.453
 8771POPC   D2A48736   8.170  44.704   6.753
 8771POPC   C3A48737   8.184  44.706   7.053
 8771POPC   C4A48738   8.166  44.626   7.353
 8771POPC   C1B48739   8.361  44.460   6.453
 8771POPC   C2B48740   8.382  44.457   6.753
 8771POPC   C3B48741   8.326  44.489   7.053
 8771POPC   C4B48742   8.329  44.511   7.353
 8772POPC   NC348743  36.162  41.583   5.553
 8772POPC   PO448744  36.082  41.519   5.853
 8772POPC   GL148745  36.173  41.538   6.153
 8772POPC   GL248746  36.037  41.521   6.153
 8772POPC   C1A48747  36.081  41.555   6.453
 8772POPC   D2A48748  36.122  41.524   6.753
 8772POPC   C3A48749  36.089  41.566   7.053
 8772POPC   C4A48750  36.171  41.521   7.353
 8772POPC   C1B48751  35.927  41.455   6.453
 8772POPC   C2B48752  35.953  41.376   6.753
 8772POPC   C3B48753  35.963  41.382   7.053
 8772POPC   C4B48754  35.892  41.357   7.353
 8773POPC   NC348755   9.007  43.071   5.553
 8773POPC   PO448756   8.994  43.119   5.853
 8773POPC   GL148757   8.971  43.093   6.153
 8773POPC   GL248758   8.942  43.261   6.153
 8773POPC   C1A48759   9.001  43.084   6.453
 8773POPC   D2A48760   9.011  43.073   6.753
 8773POPC   C3A48761   8.931  43.069   7.053
 8773POPC   C4A48762   8.962  43.150   7.353
 8773POPC   C1B48763   8.900  43.339   6.453
 8773POPC   C2B48764   8.886  43.310   6.753
 8773POPC   C3B48765   8.907  43.337   7.053
 8773POPC   C4B48766   8.823  43.349   7.353
 8774POPC   NC348767  40.010  14.388   5.553
 8774POPC   PO448768  40.010  14.373   5.853
 8774POPC   GL148769  40.039  14.359   6.153
 8774POPC   GL248770  40.156  14.514   6.153
 8774POPC   C1A48771  40.012  14.366   6.453
 8774POPC   D2A48772  39.998  14.388   6.753
 8774POPC   C3A48773  40.035  14.381   7.053
 8774POPC   C4A48774  40.013  14.388   7.353
 8774POPC   C1B48775  40.243  14.548   6.453
 8774POPC   C2B48776  40.185  14.524   6.753
 8774POPC   C3B48777  40.228  14.494   7.053
 8774POPC   C4B48778  40.185  14.503   7.353
 8775POPC   NC348779  15.939   3.574   5.553
 8775POPC   PO448780  15.954   3.557   5.853
 8775POPC   GL148781  15.939   3.571   6.153
 8775POPC   GL248782  16.116   3.545   6.153
 8775POPC   C1A48783  15.990   3.589   6.453
 8775POPC   D2A48784  15.912   3.576   6.753
 8775POPC   C3A48785  15.960   3.503   7.053
 8775POPC   C4A48786  16.001   3.537   7.353
 8775POPC   C1B48787  16.195   3.562   6.453
 8775POPC   C2B48788  16.206   3.507   6.753
 8775POPC   C3B48789  16.234   3.573   7.053
 8775POPC   C4B48790  16.194   3.568   7.353
 8776POPC   NC348791  22.191  17.480   5.553
 8776POPC   PO448792  22.170  17.544   5.853
 8776POPC   GL148793  22.145  17.526   6.153
 8776POPC   GL248794  22.120  17.636   6.153
 8776POPC   C1A48795  22.117  17.518   6.453
 8776POPC   D2A48796  22.212  17.522   6.753
 8776POPC   C3A48797  22.206  17.477   7.053
 8776POPC   C4A48798  22.160  17.520   7.353
 8776POPC   C1B48799  22.155  17.712   6.453
 8776POPC   C2B48800  22.159  17.744   6.753
 8776POPC   C3B48801  22.178  17.771   7.053
 8776POPC   C4B48802  22.204  17.709   7.353
 8777POPC   NC348803  31.453  41.572   5.553
 8777POPC   PO448804  31.430  41.541   5.853
 8777POPC   GL148805  31.457  41.593   6.153
 8777POPC   GL248806  31.383  41.517   6.153
 8777POPC   C1A48807  31.461  41.532   6.453
 8777POPC   D2A48808  31.444  41.514   6.753
 8777POPC   C3A48809  31.473  41.567   7.053
 8777POPC   C4A48810  31.514  41.514   7.353
 8777POPC   C1B48811  31.208  41.431   6.453
 8777POPC   C2B48812  31.217  41.439   6.753
 8777POPC   C3B48813  31.275  41.447   7.053
 8777POPC   C4B48814  31.209  41.496   7.353
 8778POPC   NC348815  36.934  41.593   5.553
 8778POPC   PO448816  36.892  41.604   5.853
 8778POPC   GL148817  36.942  41.540   6.153
 8778POPC   GL248818  36.818  41.430   6.153
 8778POPC   C1A48819  36.933  41.533   6.453
 8778POPC   D2A48820  36.886  41.558   6.753
 8778POPC   C3A48821  36.911  41.597   7.053
 8778POPC   C4A48822  36.857  41.510   7.353
 8778POPC   C1B48823  36.833  41.297   6.453
 8778POPC   C2B48824  36.792  41.336   6.753
 8778POPC   C3B48825  36.807  41.318   7.053
 8778POPC   C4B48826  36.768  41.341   7.353
 8779POPC   NC348827  43.853  36.858   5.553
 8779POPC   PO448828  43.933  36.879   5.853
 8779POPC   GL148829  43.882  36.926   6.153
 8779POPC   GL248830  43.904  36.761   6.153
 8779POPC   C1A48831  43.904  36.936   6.453
 8779POPC   D2A48832  43.890  36.904   6.753
 8779POPC   C3A48833  43.930  36.885   7.053
 8779POPC   C4A48834  43.870  36.858   7.353
 8779POPC   C1B48835  43.891  36.659   6.453
 8779POPC   C2B48836  43.930  36.610   6.753
 8779POPC   C3B48837  43.914  36.659   7.053
 8779POPC   C4B48838  43.898  36.613   7.353
 8780POPC   NC348839   0.469  42.384   5.553
 8780POPC   PO448840   0.433  42.293   5.853
 8780POPC   GL148841   0.430  42.370   6.153
 8780POPC   GL248842   0.350  42.346   6.153
 8780POPC   C1A48843   0.435  42.357   6.453
 8780POPC   D2A48844   0.439  42.303   6.753
 8780POPC   C3A48845   0.393  42.348   7.053
 8780POPC   C4A48846   0.430  42.320   7.353
 8780POPC   C1B48847   0.200  42.257   6.453
 8780POPC   C2B48848   0.234  42.312   6.753
 8780POPC   C3B48849   0.208  42.234   7.053
 8780POPC   C4B48850   0.164  42.266   7.353
 8781POPC   NC348851  12.896   9.008   5.553
 8781POPC   PO448852  12.868   9.019   5.853
 8781POPC   GL148853  12.888   8.950   6.153
 8781POPC   GL248854  12.826   8.831   6.153
 8781POPC   C1A48855  12.881   9.004   6.453
 8781POPC   D2A48856  12.852   9.006   6.753
 8781POPC   C3A48857  12.846   8.974   7.053
 8781POPC   C4A48858  12.837   8.928   7.353
 8781POPC   C1B48859  12.709   8.809   6.453
 8781POPC   C2B48860  12.707   8.760   6.753
 8781POPC   C3B48861  12.687   8.803   7.053
 8781POPC   C4B48862  12.714   8.817   7.353
 8782POPC   NC348863  19.074  13.615   5.553
 8782POPC   PO448864  19.045  13.590   5.853
 8782POPC   GL148865  19.014  13.615   6.153
 8782POPC   GL248866  19.048  13.538   6.153
 8782POPC   C1A48867  19.108  13.649   6.453
 8782POPC   D2A48868  19.105  13.675   6.753
 8782POPC   C3A48869  19.085  13.642   7.053
 8782POPC   C4A48870  19.087  13.578   7.353
 8782POPC   C1B48871  19.106  13.397   6.453
 8782POPC   C2B48872  19.095  13.383   6.753
 8782POPC   C3B48873  19.045  13.343   7.053
 8782POPC   C4B48874  19.034  13.419   7.353
 8783POPC   NC348875   6.628  41.571   5.553
 8783POPC   PO448876   6.657  41.560   5.853
 8783POPC   GL148877   6.622  41.550   6.153
 8783POPC   GL248878   6.750  41.682   6.153
 8783POPC   C1A48879   6.652  41.512   6.453
 8783POPC   D2A48880   6.678  41.524   6.753
 8783POPC   C3A48881   6.608  41.599   7.053
 8783POPC   C4A48882   6.613  41.533   7.353
 8783POPC   C1B48883   6.791  41.790   6.453
 8783POPC   C2B48884   6.824  41.766   6.753
 8783POPC   C3B48885   6.829  41.747   7.053
 8783POPC   C4B48886   6.765  41.710   7.353
 8784POPC   NC348887  24.455   6.648   5.553
 8784POPC   PO448888  24.504   6.610   5.853
 8784POPC   GL148889  24.510   6.652   6.153
 8784POPC   GL248890  24.532   6.530   6.153
 8784POPC   C1A48891  24.527   6.619   6.453
 8784POPC   D2A48892  24.471   6.633   6.753
 8784POPC   C3A48893  24.532   6.625   7.053
 8784POPC   C4A48894  24.488   6.602   7.353
 8784POPC   C1B48895  24.481   6.369   6.453
 8784POPC   C2B48896  24.466   6.399   6.753
 8784POPC   C3B48897  24.497   6.351   7.053
 8784POPC   C4B48898  24.531   6.361   7.353
 8785POPC   NC348899  12.092  19.818   5.553
 8785POPC   PO448900  12.079  19.804   5.853
 8785POPC   GL148901  12.027  19.803   6.153
 8785POPC   GL248902  12.199  19.861   6.153
 8785POPC   C1A48903  12.062  19.881   6.453
 8785POPC   D2A48904  12.053  19.786   6.753
 8785POPC   C3A48905  12.114  19.846   7.053
 8785POPC   C4A48906  12.109  19.820   7.353
 8785POPC   C1B48907  12.294  19.913   6.453
 8785POPC   C2B48908  12.346  19.887   6.753
 8785POPC   C3B48909  12.271  19.940   7.053
 8785POPC   C4B48910  12.286  19.911   7.353
 8786POPC   NC348911   7.457  19.786   5.553
 8786POPC   PO448912   7.408  19.879   5.853
 8786POPC   GL148913   7.408  19.811   6.153
 8786POPC   GL248914   7.354  19.715   6.153
 8786POPC   C1A48915   7.439  19.835   6.453
 8786POPC   D2A48916   7.415  19.833   6.753
 8786POPC   C3A48917   7.438  19.841   7.053
 8786POPC   C4A48918   7.427  19.881   7.353
 8786POPC   C1B48919   7.331  19.621   6.453
 8786POPC   C2B48920   7.374  19.628   6.753
 8786POPC   C3B48921   7.351  19.558   7.053
 8786POPC   C4B48922   7.334  19.588   7.353
 8787POPC   NC348923  35.400  20.626   5.553
 8787POPC   PO448924  35.342  20.590   5.853
 8787POPC   GL148925  35.320  20.606   6.153
 8787POPC   GL248926  35.327  20.437   6.153
 8787POPC   C1A48927  35.349  20.660   6.453
 8787POPC   D2A48928  35.397  20.574   6.753
 8787POPC   C3A48929  35.315  20.597   7.053
 8787POPC   C4A48930  35.385  20.584   7.353
 8787POPC   C1B48931  35.332  20.384   6.453
 8787POPC   C2B48932  35.330  20.332   6.753
 8787POPC   C3B48933  35.367  20.339   7.053
 8787POPC   C4B48934  35.324  20.389   7.353
 8788POPC   NC348935  26.785  28.413   5.553
 8788POPC   PO448936  26.854  28.361   5.853
 8788POPC   GL148937  26.795  28.336   6.153
 8788POPC   GL248938  26.842  28.231   6.153
 8788POPC   C1A48939  26.768  28.377   6.453
 8788POPC   D2A48940  26.822  28.411   6.753
 8788POPC   C3A48941  26.851  28.393   7.053
 8788POPC   C4A48942  26.813  28.372   7.353
 8788POPC   C1B48943  26.847  28.176   6.453
 8788POPC   C2B48944  26.894  28.109   6.753
 8788POPC   C3B48945  26.946  28.142   7.053
 8788POPC   C4B48946  26.925  28.173   7.353
 8789POPC   NC348947  26.785  32.259   5.553
 8789POPC   PO448948  26.788  32.217   5.853
 8789POPC   GL148949  26.850  32.292   6.153
 8789POPC   GL248950  26.679  32.263   6.153
 8789POPC   C1A48951  26.805  32.256   6.453
 8789POPC   D2A48952  26.857  32.232   6.753
 8789POPC   C3A48953  26.822  32.251   7.053
 8789POPC   C4A48954  26.775  32.264   7.353
 8789POPC   C1B48955  26.584  32.262   6.453
 8789POPC   C2B48956  26.527  32.259   6.753
 8789POPC   C3B48957  26.540  32.186   7.053
 8789POPC   C4B48958  26.549  32.262   7.353
 8790POPC   NC348959  19.075   5.830   5.553
 8790POPC   PO448960  19.075   5.820   5.853
 8790POPC   GL148961  19.032   5.837   6.153
 8790POPC   GL248962  19.184   5.864   6.153
 8790POPC   C1A48963  19.084   5.897   6.453
 8790POPC   D2A48964  19.048   5.914   6.753
 8790POPC   C3A48965  19.085   5.862   7.053
 8790POPC   C4A48966  19.023   5.829   7.353
 8790POPC   C1B48967  19.306   5.816   6.453
 8790POPC   C2B48968  19.303   5.847   6.753
 8790POPC   C3B48969  19.301   5.793   7.053
 8790POPC   C4B48970  19.320   5.785   7.353
 8791POPC   NC348971  32.988  38.430   5.553
 8791POPC   PO448972  33.002  38.455   5.853
 8791POPC   GL148973  33.048  38.446   6.153
 8791POPC   GL248974  33.130  38.449   6.153
 8791POPC   C1A48975  33.003  38.472   6.453
 8791POPC   D2A48976  33.037  38.475   6.753
 8791POPC   C3A48977  33.028  38.437   7.053
 8791POPC   C4A48978  33.009  38.411   7.353
 8791POPC   C1B48979  33.314  38.418   6.453
 8791POPC   C2B48980  33.249  38.364   6.753
 8791POPC   C3B48981  33.256  38.415   7.053
 8791POPC   C4B48982  33.288  38.380   7.353
 8792POPC   NC348983  37.665   5.076   5.553
 8792POPC   PO448984  37.708   5.130   5.853
 8792POPC   GL148985  37.725   5.106   6.153
 8792POPC   GL248986  37.654   5.247   6.153
 8792POPC   C1A48987  37.670   5.118   6.453
 8792POPC   D2A48988  37.663   5.125   6.753
 8792POPC   C3A48989  37.724   5.085   7.053
 8792POPC   C4A48990  37.699   5.057   7.353
 8792POPC   C1B48991  37.569   5.355   6.453
 8792POPC   C2B48992  37.622   5.309   6.753
 8792POPC   C3B48993  37.657   5.320   7.053
 8792POPC   C4B48994  37.576   5.375   7.353
 8793POPC   NC348995   1.261   5.107   5.553
 8793POPC   PO448996   1.177   5.070   5.853
 8793POPC   GL148997   1.171   5.092   6.153
 8793POPC   GL248998   1.138   4.932   6.153
 8793POPC   C1A48999   1.239   5.067   6.453
 8793POPC   D2A49000   1.180   5.089   6.753
 8793POPC   C3A49001   1.200   5.080   7.053
 8793POPC   C4A49002   1.176   5.139   7.353
 8793POPC   C1B49003   1.080   4.822   6.453
 8793POPC   C2B49004   1.108   4.849   6.753
 8793POPC   C3B49005   1.161   4.879   7.053
 8793POPC   C4B49006   1.083   4.872   7.353
 8794POPC   NC349007   5.101  22.185   5.553
 8794POPC   PO449008   5.132  22.122   5.853
 8794POPC   GL149009   5.131  22.156   6.153
 8794POPC   GL249010   5.089  22.313   6.153
 8794POPC   C1A49011   5.125  22.122   6.453
 8794POPC   D2A49012   5.081  22.179   6.753
 8794POPC   C3A49013   5.077  22.202   7.053
 8794POPC   C4A49014   5.066  22.156   7.353
 8794POPC   C1B49015   5.160  22.431   6.453
 8794POPC   C2B49016   5.070  22.385   6.753
 8794POPC   C3B49017   5.141  22.403   7.053
 8794POPC   C4B49018   5.164  22.411   7.353
 8795POPC   NC349019  23.706  14.375   5.553
 8795POPC   PO449020  23.671  14.427   5.853
 8795POPC   GL149021  23.676  14.440   6.153
 8795POPC   GL249022  23.823  14.417   6.153
 8795POPC   C1A49023  23.695  14.401   6.453
 8795POPC   D2A49024  23.707  14.355   6.753
 8795POPC   C3A49025  23.707  14.450   7.053
 8795POPC   C4A49026  23.755  14.409   7.353
 8795POPC   C1B49027  23.916  14.465   6.453
 8795POPC   C2B49028  23.930  14.392   6.753
 8795POPC   C3B49029  23.983  14.470   7.053
 8795POPC   C4B49030  23.928  14.468   7.353
 8796POPC   NC349031   5.908  13.581   5.553
 8796POPC   PO449032   5.831  13.646   5.853
 8796POPC   GL149033   5.881  13.677   6.153
 8796POPC   GL249034   5.788  13.520   6.153
 8796POPC   C1A49035   5.857  13.608   6.453
 8796POPC   D2A49036   5.854  13.617   6.753
 8796POPC   C3A49037   5.861  13.583   7.053
 8796POPC   C4A49038   5.917  13.646   7.353
 8796POPC   C1B49039   5.754  13.379   6.453
 8796POPC   C2B49040   5.690  13.407   6.753
 8796POPC   C3B49041   5.763  13.473   7.053
 8796POPC   C4B49042   5.696  13.386   7.353
 8797POPC   NC349043  44.636  25.311   5.553
 8797POPC   PO449044  44.649  25.308   5.853
 8797POPC   GL149045  44.684  25.284   6.153
 8797POPC   GL249046  44.785  25.333   6.153
 8797POPC   C1A49047  44.703  25.281   6.453
 8797POPC   D2A49048  44.641  25.291   6.753
 8797POPC   C3A49049  44.614  25.230   7.053
 8797POPC   C4A49050  44.695  25.216   7.353
 8797POPC   C1B49051  44.848  25.415   6.453
 8797POPC   C2B49052  44.833  25.442   6.753
 8797POPC   C3B49053  44.775  25.497   7.053
 8797POPC   C4B49054  44.848  25.479   7.353
 8798POPC   NC349055  32.234  31.425   5.553
 8798POPC   PO449056  32.256  31.484   5.853
 8798POPC   GL149057  32.261  31.481   6.153
 8798POPC   GL249058  32.260  31.396   6.153
 8798POPC   C1A49059  32.204  31.448   6.453
 8798POPC   D2A49060  32.205  31.512   6.753
 8798POPC   C3A49061  32.266  31.519   7.053
 8798POPC   C4A49062  32.220  31.462   7.353
 8798POPC   C1B49063  32.174  31.187   6.453
 8798POPC   C2B49064  32.204  31.257   6.753
 8798POPC   C3B49065  32.216  31.230   7.053
 8798POPC   C4B49066  32.263  31.271   7.353
 8799POPC   NC349067  35.397  14.368   5.553
 8799POPC   PO449068  35.365  14.436   5.853
 8799POPC   GL149069  35.308  14.428   6.153
 8799POPC   GL249070  35.457  14.452   6.153
 8799POPC   C1A49071  35.394  14.416   6.453
 8799POPC   D2A49072  35.348  14.371   6.753
 8799POPC   C3A49073  35.372  14.436   7.053
 8799POPC   C4A49074  35.350  14.414   7.353
 8799POPC   C1B49075  35.617  14.516   6.453
 8799POPC   C2B49076  35.578  14.449   6.753
 8799POPC   C3B49077  35.612  14.520   7.053
 8799POPC   C4B49078  35.611  14.500   7.353
 8800POPC   NC349079  25.307  27.636   5.553
 8800POPC   PO449080  25.240  27.546   5.853
 8800POPC   GL149081  25.309  27.613   6.153
 8800POPC   GL249082  25.182  27.523   6.153
 8800POPC   C1A49083  25.300  27.602   6.453
 8800POPC   D2A49084  25.291  27.638   6.753
 8800POPC   C3A49085  25.242  27.623   7.053
 8800POPC   C4A49086  25.305  27.564   7.353
 8800POPC   C1B49087  25.062  27.391   6.453
 8800POPC   C2B49088  25.101  27.445   6.753
 8800POPC   C3B49089  25.112  27.454   7.053
 8800POPC   C4B49090  25.113  27.397   7.353
 8801POPC   NC349091  32.231   7.419   5.553
 8801POPC   PO449092  32.237   7.455   5.853
 8801POPC   GL149093  32.214   7.375   6.153
 8801POPC   GL249094  32.272   7.309   6.153
 8801POPC   C1A49095  32.234   7.440   6.453
 8801POPC   D2A49096  32.251   7.391   6.753
 8801POPC   C3A49097  32.228   7.461   7.053
 8801POPC   C4A49098  32.232   7.458   7.353
 8801POPC   C1B49099  32.381   7.187   6.453
 8801POPC   C2B49100  32.357   7.161   6.753
 8801POPC   C3B49101  32.364   7.249   7.053
 8801POPC   C4B49102  32.370   7.232   7.353
 8802POPC   NC349103  25.285  39.962   5.553
 8802POPC   PO449104  25.219  39.971   5.853
 8802POPC   GL149105  25.308  40.042   6.153
 8802POPC   GL249106  25.381  39.897   6.153
 8802POPC   C1A49107  25.268  40.021   6.453
 8802POPC   D2A49108  25.218  39.964   6.753
 8802POPC   C3A49109  25.311  40.008   7.053
 8802POPC   C4A49110  25.255  40.023   7.353
 8802POPC   C1B49111  25.409  39.811   6.453
 8802POPC   C2B49112  25.374  39.808   6.753
 8802POPC   C3B49113  25.460  39.804   7.053
 8802POPC   C4B49114  25.370  39.800   7.353
 8803POPC   NC349115   2.809  32.989   5.553
 8803POPC   PO449116   2.758  32.978   5.853
 8803POPC   GL149117   2.721  33.036   6.153
 8803POPC   GL249118   2.659  32.917   6.153
 8803POPC   C1A49119   2.815  32.988   6.453
 8803POPC   D2A49120   2.768  33.030   6.753
 8803POPC   C3A49121   2.771  33.039   7.053
 8803POPC   C4A49122   2.770  33.062   7.353
 8803POPC   C1B49123   2.529  32.860   6.453
 8803POPC   C2B49124   2.581  32.908   6.753
 8803POPC   C3B49125   2.538  32.896   7.053
 8803POPC   C4B49126   2.556  32.903   7.353
 8804POPC   NC349127   1.988  33.807   5.553
 8804POPC   PO449128   1.941  33.763   5.853
 8804POPC   GL149129   2.003  33.820   6.153
 8804POPC   GL249130   2.102  33.917   6.153
 8804POPC   C1A49131   1.958  33.848   6.453
 8804POPC   D2A49132   2.007  33.838   6.753
 8804POPC   C3A49133   1.966  33.766   7.053
 8804POPC   C4A49134   1.996  33.827   7.353
 8804POPC   C1B49135   2.173  33.999   6.453
 8804POPC   C2B49136   2.165  33.917   6.753
 8804POPC   C3B49137   2.213  33.928   7.053
 8804POPC   C4B49138   2.176  33.966   7.353
 8805POPC   NC349139  39.999  40.039   5.553
 8805POPC   PO449140  40.036  40.001   5.853
 8805POPC   GL149141  39.970  39.991   6.153
 8805POPC   GL249142  39.944  39.893   6.153
 8805POPC   C1A49143  39.997  40.001   6.453
 8805POPC   D2A49144  39.964  39.992   6.753
 8805POPC   C3A49145  39.994  39.986   7.053
 8805POPC   C4A49146  40.009  40.002   7.353
 8805POPC   C1B49147  39.964  39.738   6.453
 8805POPC   C2B49148  39.985  39.726   6.753
 8805POPC   C3B49149  39.906  39.804   7.053
 8805POPC   C4B49150  39.960  39.738   7.353
 8806POPC   NC349151   6.679  31.474   5.553
 8806POPC   PO449152   6.661  31.499   5.853
 8806POPC   GL149153   6.612  31.466   6.153
 8806POPC   GL249154   6.615  31.316   6.153
 8806POPC   C1A49155   6.659  31.496   6.453
 8806POPC   D2A49156   6.637  31.503   6.753
 8806POPC   C3A49157   6.639  31.510   7.053
 8806POPC   C4A49158   6.673  31.428   7.353
 8806POPC   C1B49159   6.557  31.270   6.453
 8806POPC   C2B49160   6.567  31.212   6.753
 8806POPC   C3B49161   6.530  31.283   7.053
 8806POPC   C4B49162   6.612  31.199   7.353
 8807POPC   NC349163  41.514  39.192   5.553
 8807POPC   PO449164  41.535  39.230   5.853
 8807POPC   GL149165  41.601  39.227   6.153
 8807POPC   GL249166  41.639  39.176   6.153
 8807POPC   C1A49167  41.584  39.249   6.453
 8807POPC   D2A49168  41.586  39.207   6.753
 8807POPC   C3A49169  41.560  39.234   7.053
 8807POPC   C4A49170  41.531  39.182   7.353
 8807POPC   C1B49171  41.846  39.131   6.453
 8807POPC   C2B49172  41.754  39.189   6.753
 8807POPC   C3B49173  41.756  39.146   7.053
 8807POPC   C4B49174  41.831  39.206   7.353
 8808POPC   NC349175   8.946  29.179   5.553
 8808POPC   PO449176   9.000  29.190   5.853
 8808POPC   GL149177   8.997  29.175   6.153
 8808POPC   GL249178   8.869  29.044   6.153
 8808POPC   C1A49179   8.993  29.113   6.453
 8808POPC   D2A49180   8.938  29.140   6.753
 8808POPC   C3A49181   9.003  29.195   7.053
 8808POPC   C4A49182   8.961  29.171   7.353
 8808POPC   C1B49183   8.763  29.037   6.453
 8808POPC   C2B49184   8.763  28.952   6.753
 8808POPC   C3B49185   8.722  28.973   7.053
 8808POPC   C4B49186   8.780  29.001   7.353
 8809POPC   NC349187   7.441  22.210   5.553
 8809POPC   PO449188   7.465  22.135   5.853
 8809POPC   GL149189   7.381  22.126   6.153
 8809POPC   GL249190   7.371  22.045   6.153
 8809POPC   C1A49191   7.440  22.162   6.453
 8809POPC   D2A49192   7.417  22.117   6.753
 8809POPC   C3A49193   7.442  22.161   7.053
 8809POPC   C4A49194   7.457  22.163   7.353
 8809POPC   C1B49195   7.215  21.974   6.453
 8809POPC   C2B49196   7.218  22.025   6.753
 8809POPC   C3B49197   7.186  22.011   7.053
 8809POPC   C4B49198   7.225  22.004   7.353
 8810POPC   NC349199   3.534  22.988   5.553
 8810POPC   PO449200   3.537  22.923   5.853
 8810POPC   GL149201   3.579  22.944   6.153
 8810POPC   GL249202   3.479  22.863   6.153
 8810POPC   C1A49203   3.499  22.908   6.453
 8810POPC   D2A49204   3.580  22.954   6.753
 8810POPC   C3A49205   3.584  22.908   7.053
 8810POPC   C4A49206   3.500  22.904   7.353
 8810POPC   C1B49207   3.467  22.705   6.453
 8810POPC   C2B49208   3.488  22.666   6.753
 8810POPC   C3B49209   3.462  22.685   7.053
 8810POPC   C4B49210   3.439  22.718   7.353
 8811POPC   NC349211  11.341  27.631   5.553
 8811POPC   PO449212  11.313  27.615   5.853
 8811POPC   GL149213  11.275  27.592   6.153
 8811POPC   GL249214  11.130  27.560   6.153
 8811POPC   C1A49215  11.272  27.588   6.453
 8811POPC   D2A49216  11.338  27.578   6.753
 8811POPC   C3A49217  11.318  27.595   7.053
 8811POPC   C4A49218  11.303  27.577   7.353
 8811POPC   C1B49219  11.021  27.535   6.453
 8811POPC   C2B49220  11.077  27.625   6.753
 8811POPC   C3B49221  11.073  27.540   7.053
 8811POPC   C4B49222  11.014  27.563   7.353
 8812POPC   NC349223  12.890  15.138   5.553
 8812POPC   PO449224  12.854  15.197   5.853
 8812POPC   GL149225  12.807  15.228   6.153
 8812POPC   GL249226  12.749  15.278   6.153
 8812POPC   C1A49227  12.828  15.145   6.453
 8812POPC   D2A49228  12.871  15.197   6.753
 8812POPC   C3A49229  12.852  15.159   7.053
 8812POPC   C4A49230  12.828  15.176   7.353
 8812POPC   C1B49231  12.705  15.355   6.453
 8812POPC   C2B49232  12.717  15.380   6.753
 8812POPC   C3B49233  12.739  15.373   7.053
 8812POPC   C4B49234  12.674  15.382   7.353
 8813POPC   NC349235  23.758   1.173   5.553
 8813POPC   PO449236  23.752   1.195   5.853
 8813POPC   GL149237  23.715   1.251   6.153
 8813POPC   GL249238  23.791   1.298   6.153
 8813POPC   C1A49239  23.713   1.175   6.453
 8813POPC   D2A49240  23.699   1.244   6.753
 8813POPC   C3A49241  23.699   1.261   7.053
 8813POPC   C4A49242  23.719   1.234   7.353
 8813POPC   C1B49243  23.767   1.420   6.453
 8813POPC   C2B49244  23.721   1.502   6.753
 8813POPC   C3B49245  23.776   1.500   7.053
 8813POPC   C4B49246  23.728   1.457   7.353
 8814POPC   NC349247  36.919  12.890   5.553
 8814POPC   PO449248  36.855  12.821   5.853
 8814POPC   GL149249  36.909  12.809   6.153
 8814POPC   GL249250  37.025  12.909   6.153
 8814POPC   C1A49251  36.876  12.830   6.453
 8814POPC   D2A49252  36.952  12.824   6.753
 8814POPC   C3A49253  36.927  12.855   7.053
 8814POPC   C4A49254  36.948  12.813   7.353
 8814POPC   C1B49255  37.090  13.045   6.453
 8814POPC   C2B49256  37.067  13.010   6.753
 8814POPC   C3B49257  37.060  13.007   7.053
 8814POPC   C4B49258  37.056  13.019   7.353
 8815POPC   NC349259  20.652  26.803   5.553
 8815POPC   PO449260  20.634  26.825   5.853
 8815POPC   GL149261  20.562  26.772   6.153
 8815POPC   GL249262  20.740  26.745   6.153
 8815POPC   C1A49263  20.601  26.825   6.453
 8815POPC   D2A49264  20.566  26.824   6.753
 8815POPC   C3A49265  20.589  26.820   7.053
 8815POPC   C4A49266  20.636  26.808   7.353
 8815POPC   C1B49267  20.870  26.808   6.453
 8815POPC   C2B49268  20.896  26.800   6.753
 8815POPC   C3B49269  20.840  26.714   7.053
 8815POPC   C4B49270  20.846  26.715   7.353
 8816POPC   NC349271  39.251   1.992   5.553
 8816POPC   PO449272  39.277   1.967   5.853
 8816POPC   GL149273  39.268   1.978   6.153
 8816POPC   GL249274  39.327   1.967   6.153
 8816POPC   C1A49275  39.244   2.010   6.453
 8816POPC   D2A49276  39.215   1.997   6.753
 8816POPC   C3A49277  39.252   1.985   7.053
 8816POPC   C4A49278  39.275   2.008   7.353
 8816POPC   C1B49279  39.477   2.025   6.453
 8816POPC   C2B49280  39.489   2.036   6.753
 8816POPC   C3B49281  39.509   2.045   7.053
 8816POPC   C4B49282  39.474   1.984   7.353
 8817POPC   NC349283  22.181  12.117   5.553
 8817POPC   PO449284  22.115  12.120   5.853
 8817POPC   GL149285  22.182  12.096   6.153
 8817POPC   GL249286  22.194  11.994   6.153
 8817POPC   C1A49287  22.159  12.055   6.453
 8817POPC   D2A49288  22.119  12.113   6.753
 8817POPC   C3A49289  22.136  12.078   7.053
 8817POPC   C4A49290  22.173  12.029   7.353
 8817POPC   C1B49291  22.149  11.849   6.453
 8817POPC   C2B49292  22.172  11.844   6.753
 8817POPC   C3B49293  22.205  11.803   7.053
 8817POPC   C4B49294  22.173  11.857   7.353
 8818POPC   NC349295  17.471  15.916   5.553
 8818POPC   PO449296  17.505  15.992   5.853
 8818POPC   GL149297  17.540  15.949   6.153
 8818POPC   GL249298  17.542  15.879   6.153
 8818POPC   C1A49299  17.550  15.989   6.453
 8818POPC   D2A49300  17.476  15.928   6.753
 8818POPC   C3A49301  17.473  15.906   7.053
 8818POPC   C4A49302  17.505  15.931   7.353
 8818POPC   C1B49303  17.655  15.742   6.453
 8818POPC   C2B49304  17.675  15.776   6.753
 8818POPC   C3B49305  17.652  15.737   7.053
 8818POPC   C4B49306  17.639  15.697   7.353
 8819POPC   NC349307  41.593   5.850   5.553
 8819POPC   PO449308  41.600   5.849   5.853
 8819POPC   GL149309  41.533   5.840   6.153
 8819POPC   GL249310  41.534   5.756   6.153
 8819POPC   C1A49311  41.592   5.864   6.453
 8819POPC   D2A49312  41.522   5.889   6.753
 8819POPC   C3A49313  41.557   5.854   7.053
 8819POPC   C4A49314  41.573   5.834   7.353
 8819POPC   C1B49315  41.556   5.636   6.453
 8819POPC   C2B49316  41.531   5.590   6.753
 8819POPC   C3B49317  41.535   5.577   7.053
 8819POPC   C4B49318  41.593   5.637   7.353
 8820POPC   NC349319  41.519  29.161   5.553
 8820POPC   PO449320  41.533  29.189   5.853
 8820POPC   GL149321  41.584  29.150   6.153
 8820POPC   GL249322  41.466  29.205   6.153
 8820POPC   C1A49323  41.569  29.142   6.453
 8820POPC   D2A49324  41.543  29.190   6.753
 8820POPC   C3A49325  41.511  29.178   7.053
 8820POPC   C4A49326  41.570  29.137   7.353
 8820POPC   C1B49327  41.482  29.324   6.453
 8820POPC   C2B49328  41.404  29.393   6.753
 8820POPC   C3B49329  41.436  29.338   7.053
 8820POPC   C4B49330  41.394  29.322   7.353
 8821POPC   NC349331   4.345  35.340   5.553
 8821POPC   PO449332   4.337  35.390   5.853
 8821POPC   GL149333   4.301  35.337   6.153
 8821POPC   GL249334   4.339  35.224   6.153
 8821POPC   C1A49335   4.275  35.315   6.453
 8821POPC   D2A49336   4.362  35.307   6.753
 8821POPC   C3A49337   4.353  35.318   7.053
 8821POPC   C4A49338   4.346  35.376   7.353
 8821POPC   C1B49339   4.333  35.083   6.453
 8821POPC   C2B49340   4.347  35.083   6.753
 8821POPC   C3B49341   4.370  35.097   7.053
 8821POPC   C4B49342   4.320  35.112   7.353
 8822POPC   NC349343  18.304   8.973   5.553
 8822POPC   PO449344  18.252   9.003   5.853
 8822POPC   GL149345  18.280   8.941   6.153
 8822POPC   GL249346  18.377   8.938   6.153
 8822POPC   C1A49347  18.316   8.957   6.453
 8822POPC   D2A49348  18.288   8.995   6.753
 8822POPC   C3A49349  18.297   9.002   7.053
 8822POPC   C4A49350  18.276   8.948   7.353
 8822POPC   C1B49351  18.525   8.905   6.453
 8822POPC   C2B49352  18.542   8.964   6.753
 8822POPC   C3B49353  18.486   8.928   7.053
 8822POPC   C4B49354  18.541   8.949   7.353
 8823POPC   NC349355  41.534  42.287   5.553
 8823POPC   PO449356  41.533  42.307   5.853
 8823POPC   GL149357  41.525  42.345   6.153
 8823POPC   GL249358  41.467  42.199   6.153
 8823POPC   C1A49359  41.580  42.372   6.453
 8823POPC   D2A49360  41.557  42.332   6.753
 8823POPC   C3A49361  41.599  42.329   7.053
 8823POPC   C4A49362  41.596  42.303   7.353
 8823POPC   C1B49363  41.393  42.114   6.453
 8823POPC   C2B49364  41.401  42.105   6.753
 8823POPC   C3B49365  41.402  42.087   7.053
 8823POPC   C4B49366  41.471  42.102   7.353
 8824POPC   NC349367  19.861   8.987   5.553
 8824POPC   PO449368  19.821   8.952   5.853
 8824POPC   GL149369  19.868   8.949   6.153
 8824POPC   GL249370  19.692   8.961   6.153
 8824POPC   C1A49371  19.866   8.970   6.453
 8824POPC   D2A49372  19.803   8.986   6.753
 8824POPC   C3A49373  19.856   8.953   7.053
 8824POPC   C4A49374  19.786   8.928   7.353
 8824POPC   C1B49375  19.630   8.871   6.453
 8824POPC   C2B49376  19.610   8.910   6.753
 8824POPC   C3B49377  19.601   8.903   7.053
 8824POPC   C4B49378  19.569   8.874   7.353
 8825POPC   NC349379  40.759  26.821   5.553
 8825POPC   PO449380  40.811  26.810   5.853
 8825POPC   GL149381  40.830  26.833   6.153
 8825POPC   GL249382  40.874  26.755   6.153
 8825POPC   C1A49383  40.820  26.776   6.453
 8825POPC   D2A49384  40.806  26.816   6.753
 8825POPC   C3A49385  40.758  26.801   7.053
 8825POPC   C4A49386  40.803  26.789   7.353
 8825POPC   C1B49387  41.019  26.744   6.453
 8825POPC   C2B49388  41.019  26.672   6.753
 8825POPC   C3B49389  40.990  26.759   7.053
 8825POPC   C4B49390  41.014  26.765   7.353
 8826POPC   NC349391   8.925  15.963   5.553
 8826POPC   PO449392   8.986  15.997   5.853
 8826POPC   GL149393   9.007  15.987   6.153
 8826POPC   GL249394   9.069  15.954   6.153
 8826POPC   C1A49395   8.994  15.914   6.453
 8826POPC   D2A49396   8.953  15.960   6.753
 8826POPC   C3A49397   8.982  15.953   7.053
 8826POPC   C4A49398   8.937  15.947   7.353
 8826POPC   C1B49399   9.248  15.891   6.453
 8826POPC   C2B49400   9.215  15.891   6.753
 8826POPC   C3B49401   9.183  15.933   7.053
 8826POPC   C4B49402   9.257  15.887   7.353
 8827POPC   NC349403  38.486  28.351   5.553
 8827POPC   PO449404  38.485  28.388   5.853
 8827POPC   GL149405  38.408  28.360   6.153
 8827POPC   GL249406  38.504  28.465   6.153
 8827POPC   C1A49407  38.410  28.362   6.453
 8827POPC   D2A49408  38.421  28.329   6.753
 8827POPC   C3A49409  38.500  28.350   7.053
 8827POPC   C4A49410  38.429  28.374   7.353
 8827POPC   C1B49411  38.627  28.559   6.453
 8827POPC   C2B49412  38.649  28.529   6.753
 8827POPC   C3B49413  38.650  28.592   7.053
 8827POPC   C4B49414  38.597  28.579   7.353
 8828POPC   NC349415  44.615   1.181   5.553
 8828POPC   PO449416  44.679   1.179   5.853
 8828POPC   GL149417  44.640   1.203   6.153
 8828POPC   GL249418  44.642   1.125   6.153
 8828POPC   C1A49419  44.698   1.200   6.453
 8828POPC   D2A49420  44.679   1.173   6.753
 8828POPC   C3A49421  44.691   1.192   7.053
 8828POPC   C4A49422  44.660   1.196   7.353
 8828POPC   C1B49423  44.660   0.948   6.453
 8828POPC   C2B49424  44.719   0.960   6.753
 8828POPC   C3B49425  44.672   0.930   7.053
 8828POPC   C4B49426  44.688   0.985   7.353
 8829POPC   NC349427  37.666   6.688   5.553
 8829POPC   PO449428  37.699   6.615   5.853
 8829POPC   GL149429  37.664   6.631   6.153
 8829POPC   GL249430  37.849   6.629   6.153
 8829POPC   C1A49431  37.709   6.638   6.453
 8829POPC   D2A49432  37.706   6.633   6.753
 8829POPC   C3A49433  37.693   6.629   7.053
 8829POPC   C4A49434  37.700   6.643   7.353
 8829POPC   C1B49435  37.972   6.721   6.453
 8829POPC   C2B49436  37.922   6.669   6.753
 8829POPC   C3B49437  37.969   6.697   7.053
 8829POPC   C4B49438  37.907   6.715   7.353
 8830POPC   NC349439  15.152  10.534   5.553
 8830POPC   PO449440  15.199  10.552   5.853
 8830POPC   GL149441  15.221  10.509   6.153
 8830POPC   GL249442  15.022  10.478   6.153
 8830POPC   C1A49443  15.136  10.542   6.453
 8830POPC   D2A49444  15.146  10.544   6.753
 8830POPC   C3A49445  15.229  10.527   7.053
 8830POPC   C4A49446  15.178  10.535   7.353
 8830POPC   C1B49447  14.978  10.412   6.453
 8830POPC   C2B49448  14.986  10.442   6.753
 8830POPC   C3B49449  14.898  10.445   7.053
 8830POPC   C4B49450  14.986  10.450   7.353
 8831POPC   NC349451  19.878  40.016   5.553
 8831POPC   PO449452  19.834  39.993   5.853
 8831POPC   GL149453  19.836  40.026   6.153
 8831POPC   GL249454  19.852  39.901   6.153
 8831POPC   C1A49455  19.857  39.966   6.453
 8831POPC   D2A49456  19.824  40.052   6.753
 8831POPC   C3A49457  19.806  39.988   7.053
 8831POPC   C4A49458  19.816  39.975   7.353
 8831POPC   C1B49459  19.734  39.794   6.453
 8831POPC   C2B49460  19.784  39.779   6.753
 8831POPC   C3B49461  19.790  39.782   7.053
 8831POPC   C4B49462  19.784  39.790   7.353
 8832POPC   NC349463  26.042  14.359   5.553
 8832POPC   PO449464  26.039  14.437   5.853
 8832POPC   GL149465  26.087  14.443   6.153
 8832POPC   GL249466  26.156  14.290   6.153
 8832POPC   C1A49467  26.067  14.447   6.453
 8832POPC   D2A49468  26.036  14.414   6.753
 8832POPC   C3A49469  26.062  14.370   7.053
 8832POPC   C4A49470  26.039  14.432   7.353
 8832POPC   C1B49471  26.215  14.201   6.453
 8832POPC   C2B49472  26.151  14.223   6.753
 8832POPC   C3B49473  26.150  14.164   7.053
 8832POPC   C4B49474  26.215  14.218   7.353
 8833POPC   NC349475  36.155  23.673   5.553
 8833POPC   PO449476  36.110  23.728   5.853
 8833POPC   GL149477  36.127  23.718   6.153
 8833POPC   GL249478  36.224  23.562   6.153
 8833POPC   C1A49479  36.120  23.703   6.453
 8833POPC   D2A49480  36.085  23.668   6.753
 8833POPC   C3A49481  36.113  23.744   7.053
 8833POPC   C4A49482  36.154  23.735   7.353
 8833POPC   C1B49483  36.219  23.499   6.453
 8833POPC   C2B49484  36.192  23.457   6.753
 8833POPC   C3B49485  36.188  23.432   7.053
 8833POPC   C4B49486  36.252  23.447   7.353
 8834POPC   NC349487  22.193  39.983   5.553
 8834POPC   PO449488  22.154  40.055   5.853
 8834POPC   GL149489  22.132  40.057   6.153
 8834POPC   GL249490  22.030  39.968   6.153
 8834POPC   C1A49491  22.179  40.039   6.453
 8834POPC   D2A49492  22.212  40.027   6.753
 8834POPC   C3A49493  22.171  40.001   7.053
 8834POPC   C4A49494  22.209  39.989   7.353
 8834POPC   C1B49495  21.977  39.934   6.453
 8834POPC   C2B49496  21.908  39.915   6.753
 8834POPC   C3B49497  21.891  39.955   7.053
 8834POPC   C4B49498  21.938  39.873   7.353
 8835POPC   NC349499  16.766  37.686   5.553
 8835POPC   PO449500  16.747  37.636   5.853
 8835POPC   GL149501  16.722  37.701   6.153
 8835POPC   GL249502  16.754  37.515   6.153
 8835POPC   C1A49503  16.700  37.683   6.453
 8835POPC   D2A49504  16.688  37.697   6.753
 8835POPC   C3A49505  16.779  37.711   7.053
 8835POPC   C4A49506  16.682  37.696   7.353
 8835POPC   C1B49507  16.804  37.452   6.453
 8835POPC   C2B49508  16.814  37.483   6.753
 8835POPC   C3B49509  16.846  37.453   7.053
 8835POPC   C4B49510  16.774  37.402   7.353
 8836POPC   NC349511  37.678  41.608   5.553
 8836POPC   PO449512  37.679  41.529   5.853
 8836POPC   GL149513  37.703  41.549   6.153
 8836POPC   GL249514  37.707  41.420   6.153
 8836POPC   C1A49515  37.691  41.520   6.453
 8836POPC   D2A49516  37.729  41.600   6.753
 8836POPC   C3A49517  37.706  41.592   7.053
 8836POPC   C4A49518  37.652  41.554   7.353
 8836POPC   C1B49519  37.660  41.320   6.453
 8836POPC   C2B49520  37.634  41.306   6.753
 8836POPC   C3B49521  37.685  41.264   7.053
 8836POPC   C4B49522  37.655  41.347   7.353
 8837POPC   NC349523   7.453   2.737   5.553
 8837POPC   PO449524   7.402   2.751   5.853
 8837POPC   GL149525   7.468   2.739   6.153
 8837POPC   GL249526   7.499   2.858   6.153
 8837POPC   C1A49527   7.415   2.727   6.453
 8837POPC   D2A49528   7.393   2.776   6.753
 8837POPC   C3A49529   7.439   2.727   7.053
 8837POPC   C4A49530   7.465   2.790   7.353
 8837POPC   C1B49531   7.600   2.950   6.453
 8837POPC   C2B49532   7.645   2.941   6.753
 8837POPC   C3B49533   7.576   2.916   7.053
 8837POPC   C4B49534   7.623   2.886   7.353
 8838POPC   NC349535   1.998   2.791   5.553
 8838POPC   PO449536   1.951   2.769   5.853
 8838POPC   GL149537   2.001   2.726   6.153
 8838POPC   GL249538   1.993   2.847   6.153
 8838POPC   C1A49539   2.023   2.759   6.453
 8838POPC   D2A49540   2.025   2.739   6.753
 8838POPC   C3A49541   1.989   2.720   7.053
 8838POPC   C4A49542   1.947   2.781   7.353
 8838POPC   C1B49543   1.990   2.975   6.453
 8838POPC   C2B49544   1.901   2.973   6.753
 8838POPC   C3B49545   1.984   2.979   7.053
 8838POPC   C4B49546   1.916   2.967   7.353
 8839POPC   NC349547  10.514  40.020   5.553
 8839POPC   PO449548  10.539  39.963   5.853
 8839POPC   GL149549  10.515  39.963   6.153
 8839POPC   GL249550  10.671  40.084   6.153
 8839POPC   C1A49551  10.536  40.020   6.453
 8839POPC   D2A49552  10.486  39.982   6.753
 8839POPC   C3A49553  10.485  40.000   7.053
 8839POPC   C4A49554  10.568  40.036   7.353
 8839POPC   C1B49555  10.698  40.115   6.453
 8839POPC   C2B49556  10.714  40.191   6.753
 8839POPC   C3B49557  10.707  40.174   7.053
 8839POPC   C4B49558  10.696  40.148   7.353
 8840POPC   NC349559  26.000  36.128   5.553
 8840POPC   PO449560  26.008  36.176   5.853
 8840POPC   GL149561  26.066  36.108   6.153
 8840POPC   GL249562  25.973  36.025   6.153
 8840POPC   C1A49563  26.091  36.150   6.453
 8840POPC   D2A49564  26.004  36.120   6.753
 8840POPC   C3A49565  26.037  36.113   7.053
 8840POPC   C4A49566  26.077  36.145   7.353
 8840POPC   C1B49567  25.907  35.969   6.453
 8840POPC   C2B49568  25.872  35.974   6.753
 8840POPC   C3B49569  25.851  35.939   7.053
 8840POPC   C4B49570  25.911  35.976   7.353
 8841POPC   NC349571  25.998  34.579   5.553
 8841POPC   PO449572  26.006  34.622   5.853
 8841POPC   GL149573  25.995  34.599   6.153
 8841POPC   GL249574  25.876  34.591   6.153
 8841POPC   C1A49575  26.005  34.577   6.453
 8841POPC   D2A49576  26.028  34.538   6.753
 8841POPC   C3A49577  26.027  34.600   7.053
 8841POPC   C4A49578  26.057  34.607   7.353
 8841POPC   C1B49579  25.783  34.612   6.453
 8841POPC   C2B49580  25.772  34.579   6.753
 8841POPC   C3B49581  25.800  34.605   7.053
 8841POPC   C4B49582  25.751  34.618   7.353
 8842POPC   NC349583  28.387  20.575   5.553
 8842POPC   PO449584  28.355  20.574   5.853
 8842POPC   GL149585  28.361  20.592   6.153
 8842POPC   GL249586  28.393  20.504   6.153
 8842POPC   C1A49587  28.393  20.582   6.453
 8842POPC   D2A49588  28.406  20.586   6.753
 8842POPC   C3A49589  28.411  20.575   7.053
 8842POPC   C4A49590  28.397  20.598   7.353
 8842POPC   C1B49591  28.411  20.356   6.453
 8842POPC   C2B49592  28.443  20.319   6.753
 8842POPC   C3B49593  28.383  20.409   7.053
 8842POPC   C4B49594  28.401  20.400   7.353
 8843POPC   NC349595  41.586  43.907   5.553
 8843POPC   PO449596  41.599  43.932   5.853
 8843POPC   GL149597  41.553  43.864   6.153
 8843POPC   GL249598  41.423  43.868   6.153
 8843POPC   C1A49599  41.580  43.842   6.453
 8843POPC   D2A49600  41.566  43.862   6.753
 8843POPC   C3A49601  41.547  43.914   7.053
 8843POPC   C4A49602  41.591  43.907   7.353
 8843POPC   C1B49603  41.275  43.829   6.453
 8843POPC   C2B49604  41.300  43.842   6.753
 8843POPC   C3B49605  41.302  43.830   7.053
 8843POPC   C4B49606  41.318  43.808   7.353
 8844POPC   NC349607  32.248  41.558   5.553
 8844POPC   PO449608  32.234  41.567   5.853
 8844POPC   GL149609  32.235  41.516   6.153
 8844POPC   GL249610  32.234  41.729   6.153
 8844POPC   C1A49611  32.297  41.583   6.453
 8844POPC   D2A49612  32.249  41.593   6.753
 8844POPC   C3A49613  32.219  41.561   7.053
 8844POPC   C4A49614  32.298  41.560   7.353
 8844POPC   C1B49615  32.192  41.794   6.453
 8844POPC   C2B49616  32.277  41.760   6.753
 8844POPC   C3B49617  32.214  41.818   7.053
 8844POPC   C4B49618  32.241  41.782   7.353
 8845POPC   NC349619  21.384  33.002   5.553
 8845POPC   PO449620  21.406  33.013   5.853
 8845POPC   GL149621  21.366  32.988   6.153
 8845POPC   GL249622  21.499  32.957   6.153
 8845POPC   C1A49623  21.414  33.046   6.453
 8845POPC   D2A49624  21.379  33.002   6.753
 8845POPC   C3A49625  21.376  32.989   7.053
 8845POPC   C4A49626  21.413  32.977   7.353
 8845POPC   C1B49627  21.579  32.823   6.453
 8845POPC   C2B49628  21.576  32.885   6.753
 8845POPC   C3B49629  21.588  32.827   7.053
 8845POPC   C4B49630  21.605  32.891   7.353
 8846POPC   NC349631  40.035  39.254   5.553
 8846POPC   PO449632  39.996  39.208   5.853
 8846POPC   GL149633  40.005  39.252   6.153
 8846POPC   GL249634  39.917  39.331   6.153
 8846POPC   C1A49635  40.020  39.225   6.453
 8846POPC   D2A49636  40.017  39.194   6.753
 8846POPC   C3A49637  40.030  39.193   7.053
 8846POPC   C4A49638  39.964  39.226   7.353
 8846POPC   C1B49639  39.853  39.417   6.453
 8846POPC   C2B49640  39.847  39.492   6.753
 8846POPC   C3B49641  39.836  39.396   7.053
 8846POPC   C4B49642  39.851  39.428   7.353
 8847POPC   NC349643  42.336  12.874   5.553
 8847POPC   PO449644  42.290  12.884   5.853
 8847POPC   GL149645  42.296  12.899   6.153
 8847POPC   GL249646  42.281  12.942   6.153
 8847POPC   C1A49647  42.375  12.857   6.453
 8847POPC   D2A49648  42.315  12.893   6.753
 8847POPC   C3A49649  42.343  12.892   7.053
 8847POPC   C4A49650  42.365  12.815   7.353
 8847POPC   C1B49651  42.131  13.030   6.453
 8847POPC   C2B49652  42.145  13.005   6.753
 8847POPC   C3B49653  42.221  13.001   7.053
 8847POPC   C4B49654  42.155  13.042   7.353
 8848POPC   NC349655  39.959  44.615   5.553
 8848POPC   PO449656  40.019  44.645   5.853
 8848POPC   GL149657  40.020  44.664   6.153
 8848POPC   GL249658  39.998  44.792   6.153
 8848POPC   C1A49659  40.010  44.633   6.453
 8848POPC   D2A49660  39.993  44.643   6.753
 8848POPC   C3A49661  40.022  44.680   7.053
 8848POPC   C4A49662  39.977  44.663   7.353
 8848POPC   C1B49663  40.101  44.932   6.453
 8848POPC   C2B49664  40.058  44.903   6.753
 8848POPC   C3B49665  40.033  44.942   7.053
 8848POPC   C4B49666  40.075  44.914   7.353
 8849POPC   NC349667  40.045   6.686   5.553
 8849POPC   PO449668  40.006   6.672   5.853
 8849POPC   GL149669  40.016   6.628   6.153
 8849POPC   GL249670  40.085   6.779   6.153
 8849POPC   C1A49671  39.972   6.631   6.453
 8849POPC   D2A49672  40.038   6.652   6.753
 8849POPC   C3A49673  40.032   6.693   7.053
 8849POPC   C4A49674  40.006   6.651   7.353
 8849POPC   C1B49675  40.122   6.889   6.453
 8849POPC   C2B49676  40.102   6.826   6.753
 8849POPC   C3B49677  40.141   6.892   7.053
 8849POPC   C4B49678  40.120   6.920   7.353
 8850POPC   NC349679  32.247  23.684   5.553
 8850POPC   PO449680  32.275  23.741   5.853
 8850POPC   GL149681  32.292  23.675   6.153
 8850POPC   GL249682  32.257  23.617   6.153
 8850POPC   C1A49683  32.265  23.712   6.453
 8850POPC   D2A49684  32.265  23.690   6.753
 8850POPC   C3A49685  32.250  23.672   7.053
 8850POPC   C4A49686  32.199  23.710   7.353
 8850POPC   C1B49687  32.310  23.434   6.453
 8850POPC   C2B49688  32.305  23.501   6.753
 8850POPC   C3B49689  32.298  23.525   7.053
 8850POPC   C4B49690  32.340  23.500   7.353
 8851POPC   NC349691  34.609  22.916   5.553
 8851POPC   PO449692  34.553  22.922   5.853
 8851POPC   GL149693  34.530  22.930   6.153
 8851POPC   GL249694  34.645  22.870   6.153
 8851POPC   C1A49695  34.545  22.945   6.453
 8851POPC   D2A49696  34.578  22.974   6.753
 8851POPC   C3A49697  34.570  22.926   7.053
 8851POPC   C4A49698  34.582  22.973   7.353
 8851POPC   C1B49699  34.797  22.814   6.453
 8851POPC   C2B49700  34.782  22.747   6.753
 8851POPC   C3B49701  34.798  22.827   7.053
 8851POPC   C4B49702  34.770  22.787   7.353
 8852POPC   NC349703   7.411  15.995   5.553
 8852POPC   PO449704   7.403  15.927   5.853
 8852POPC   GL149705   7.439  15.915   6.153
 8852POPC   GL249706   7.470  15.920   6.153
 8852POPC   C1A49707   7.390  15.941   6.453
 8852POPC   D2A49708   7.424  15.985   6.753
 8852POPC   C3A49709   7.373  15.948   7.053
 8852POPC   C4A49710   7.458  15.966   7.353
 8852POPC   C1B49711   7.591  15.764   6.453
 8852POPC   C2B49712   7.651  15.779   6.753
 8852POPC   C3B49713   7.647  15.822   7.053
 8852POPC   C4B49714   7.622  15.778   7.353
 8853POPC   NC349715   4.283  15.993   5.553
 8853POPC   PO449716   4.354  15.994   5.853
 8853POPC   GL149717   4.342  15.950   6.153
 8853POPC   GL249718   4.364  16.041   6.153
 8853POPC   C1A49719   4.336  15.962   6.453
 8853POPC   D2A49720   4.308  15.957   6.753
 8853POPC   C3A49721   4.286  16.004   7.053
 8853POPC   C4A49722   4.350  15.980   7.353
 8853POPC   C1B49723   4.487  16.179   6.453
 8853POPC   C2B49724   4.528  16.112   6.753
 8853POPC   C3B49725   4.460  16.164   7.053
 8853POPC   C4B49726   4.496  16.118   7.353
 8854POPC   NC349727  40.008  26.001   5.553
 8854POPC   PO449728  39.991  26.070   5.853
 8854POPC   GL149729  40.017  26.087   6.153
 8854POPC   GL249730  40.161  25.996   6.153
 8854POPC   C1A49731  39.961  26.060   6.453
 8854POPC   D2A49732  39.994  26.058   6.753
 8854POPC   C3A49733  39.975  26.070   7.053
 8854POPC   C4A49734  39.990  26.072   7.353
 8854POPC   C1B49735  40.233  25.961   6.453
 8854POPC   C2B49736  40.195  25.970   6.753
 8854POPC   C3B49737  40.260  25.934   7.053
 8854POPC   C4B49738  40.272  25.936   7.353
 8855POPC   NC349739  15.952  31.506   5.553
 8855POPC   PO449740  15.918  31.452   5.853
 8855POPC   GL149741  15.985  31.470   6.153
 8855POPC   GL249742  15.843  31.499   6.153
 8855POPC   C1A49743  15.961  31.484   6.453
 8855POPC   D2A49744  16.004  31.455   6.753
 8855POPC   C3A49745  15.933  31.462   7.053
 8855POPC   C4A49746  15.957  31.491   7.353
 8855POPC   C1B49747  15.748  31.558   6.453
 8855POPC   C2B49748  15.753  31.610   6.753
 8855POPC   C3B49749  15.708  31.623   7.053
 8855POPC   C4B49750  15.784  31.564   7.353
 8856POPC   NC349751   2.760  19.841   5.553
 8856POPC   PO449752   2.764  19.818   5.853
 8856POPC   GL149753   2.774  19.803   6.153
 8856POPC   GL249754   2.885  19.757   6.153
 8856POPC   C1A49755   2.783  19.855   6.453
 8856POPC   D2A49756   2.745  19.795   6.753
 8856POPC   C3A49757   2.772  19.792   7.053
 8856POPC   C4A49758   2.799  19.827   7.353
 8856POPC   C1B49759   2.974  19.704   6.453
 8856POPC   C2B49760   2.926  19.707   6.753
 8856POPC   C3B49761   2.925  19.701   7.053
 8856POPC   C4B49762   2.926  19.672   7.353
 8857POPC   NC349763  27.602  40.053   5.553
 8857POPC   PO449764  27.548  40.042   5.853
 8857POPC   GL149765  27.640  40.014   6.153
 8857POPC   GL249766  27.495  40.107   6.153
 8857POPC   C1A49767  27.562  39.972   6.453
 8857POPC   D2A49768  27.569  40.032   6.753
 8857POPC   C3A49769  27.608  40.037   7.053
 8857POPC   C4A49770  27.627  39.975   7.353
 8857POPC   C1B49771  27.338  40.146   6.453
 8857POPC   C2B49772  27.356  40.100   6.753
 8857POPC   C3B49773  27.322  40.091   7.053
 8857POPC   C4B49774  27.361  40.063   7.353
 8858POPC   NC349775   2.035  33.001   5.553
 8858POPC   PO449776   1.991  32.987   5.853
 8858POPC   GL149777   1.998  32.977   6.153
 8858POPC   GL249778   2.101  32.916   6.153
 8858POPC   C1A49779   1.966  33.030   6.453
 8858POPC   D2A49780   1.987  32.989   6.753
 8858POPC   C3A49781   1.961  32.994   7.053
 8858POPC   C4A49782   2.000  32.988   7.353
 8858POPC   C1B49783   2.158  32.883   6.453
 8858POPC   C2B49784   2.147  32.841   6.753
 8858POPC   C3B49785   2.183  32.879   7.053
 8858POPC   C4B49786   2.147  32.889   7.353
 8859POPC   NC349787  15.178   6.595   5.553
 8859POPC   PO449788  15.162   6.604   5.853
 8859POPC   GL149789  15.130   6.692   6.153
 8859POPC   GL249790  15.119   6.512   6.153
 8859POPC   C1A49791  15.207   6.640   6.453
 8859POPC   D2A49792  15.197   6.618   6.753
 8859POPC   C3A49793  15.154   6.604   7.053
 8859POPC   C4A49794  15.185   6.618   7.353
 8859POPC   C1B49795  15.064   6.460   6.453
 8859POPC   C2B49796  15.037   6.398   6.753
 8859POPC   C3B49797  15.013   6.400   7.053
 8859POPC   C4B49798  15.067   6.427   7.353
 8860POPC   NC349799  19.091  19.093   5.553
 8860POPC   PO449800  19.041  19.089   5.853
 8860POPC   GL149801  19.009  19.082   6.153
 8860POPC   GL249802  19.023  19.165   6.153
 8860POPC   C1A49803  19.047  19.049   6.453
 8860POPC   D2A49804  19.071  19.047   6.753
 8860POPC   C3A49805  19.105  19.012   7.053
 8860POPC   C4A49806  19.019  19.013   7.353
 8860POPC   C1B49807  18.874  19.235   6.453
 8860POPC   C2B49808  18.865  19.252   6.753
 8860POPC   C3B49809  18.941  19.248   7.053
 8860POPC   C4B49810  18.871  19.303   7.353
 8861POPC   NC349811  22.908  34.588   5.553
 8861POPC   PO449812  22.977  34.534   5.853
 8861POPC   GL149813  22.903  34.621   6.153
 8861POPC   GL249814  22.916  34.475   6.153
 8861POPC   C1A49815  22.960  34.607   6.453
 8861POPC   D2A49816  22.960  34.528   6.753
 8861POPC   C3A49817  22.952  34.579   7.053
 8861POPC   C4A49818  22.971  34.599   7.353
 8861POPC   C1B49819  22.891  34.354   6.453
 8861POPC   C2B49820  22.888  34.319   6.753
 8861POPC   C3B49821  22.921  34.320   7.053
 8861POPC   C4B49822  22.917  34.333   7.353
 8862POPC   NC349823  33.793  22.985   5.553
 8862POPC   PO449824  33.753  22.959   5.853
 8862POPC   GL149825  33.809  22.915   6.153
 8862POPC   GL249826  33.931  22.986   6.153
 8862POPC   C1A49827  33.785  22.920   6.453
 8862POPC   D2A49828  33.792  22.922   6.753
 8862POPC   C3A49829  33.842  22.910   7.053
 8862POPC   C4A49830  33.812  22.898   7.353
 8862POPC   C1B49831  34.023  23.073   6.453
 8862POPC   C2B49832  33.992  23.086   6.753
 8862POPC   C3B49833  33.961  23.119   7.053
 8862POPC   C4B49834  33.951  23.093   7.353
 8863POPC   NC349835   9.704  37.721   5.553
 8863POPC   PO449836   9.763  37.660   5.853
 8863POPC   GL149837   9.732  37.706   6.153
 8863POPC   GL249838   9.671  37.770   6.153
 8863POPC   C1A49839   9.722  37.634   6.453
 8863POPC   D2A49840   9.746  37.644   6.753
 8863POPC   C3A49841   9.756  37.669   7.053
 8863POPC   C4A49842   9.789  37.715   7.353
 8863POPC   C1B49843   9.694  37.954   6.453
 8863POPC   C2B49844   9.650  37.888   6.753
 8863POPC   C3B49845   9.642  37.922   7.053
 8863POPC   C4B49846   9.737  37.939   7.353
 8864POPC   NC349847  29.171  36.094   5.553
 8864POPC   PO449848  29.131  36.104   5.853
 8864POPC   GL149849  29.189  36.135   6.153
 8864POPC   GL249850  29.284  36.130   6.153
 8864POPC   C1A49851  29.140  36.126   6.453
 8864POPC   D2A49852  29.143  36.100   6.753
 8864POPC   C3A49853  29.155  36.091   7.053
 8864POPC   C4A49854  29.110  36.137   7.353
 8864POPC   C1B49855  29.350  36.137   6.453
 8864POPC   C2B49856  29.409  36.077   6.753
 8864POPC   C3B49857  29.378  36.068   7.053
 8864POPC   C4B49858  29.366  36.090   7.353
 8865POPC   NC349859  39.270  42.372   5.553
 8865POPC   PO449860  39.230  42.366   5.853
 8865POPC   GL149861  39.184  42.287   6.153
 8865POPC   GL249862  39.337  42.407   6.153
 8865POPC   C1A49863  39.246  42.305   6.453
 8865POPC   D2A49864  39.221  42.298   6.753
 8865POPC   C3A49865  39.244  42.351   7.053
 8865POPC   C4A49866  39.216  42.364   7.353
 8865POPC   C1B49867  39.445  42.399   6.453
 8865POPC   C2B49868  39.463  42.436   6.753
 8865POPC   C3B49869  39.488  42.428   7.053
 8865POPC   C4B49870  39.486  42.421   7.353
 8866POPC   NC349871   2.018  27.595   5.553
 8866POPC   PO449872   2.020  27.620   5.853
 8866POPC   GL149873   2.008  27.591   6.153
 8866POPC   GL249874   1.859  27.666   6.153
 8866POPC   C1A49875   1.949  27.604   6.453
 8866POPC   D2A49876   1.959  27.634   6.753
 8866POPC   C3A49877   1.994  27.543   7.053
 8866POPC   C4A49878   2.029  27.624   7.353
 8866POPC   C1B49879   1.763  27.682   6.453
 8866POPC   C2B49880   1.783  27.635   6.753
 8866POPC   C3B49881   1.759  27.695   7.053
 8866POPC   C4B49882   1.768  27.722   7.353
 8867POPC   NC349883  41.509  13.597   5.553
 8867POPC   PO449884  41.583  13.614   5.853
 8867POPC   GL149885  41.519  13.584   6.153
 8867POPC   GL249886  41.617  13.506   6.153
 8867POPC   C1A49887  41.603  13.624   6.453
 8867POPC   D2A49888  41.528  13.624   6.753
 8867POPC   C3A49889  41.545  13.584   7.053
 8867POPC   C4A49890  41.585  13.671   7.353
 8867POPC   C1B49891  41.695  13.409   6.453
 8867POPC   C2B49892  41.736  13.453   6.753
 8867POPC   C3B49893  41.720  13.409   7.053
 8867POPC   C4B49894  41.758  13.486   7.353
 8868POPC   NC349895   9.729  42.381   5.553
 8868POPC   PO449896   9.726  42.290   5.853
 8868POPC   GL149897   9.730  42.378   6.153
 8868POPC   GL249898   9.601  42.266   6.153
 8868POPC   C1A49899   9.746  42.343   6.453
 8868POPC   D2A49900   9.738  42.322   6.753
 8868POPC   C3A49901   9.702  42.287   7.053
 8868POPC   C4A49902   9.712  42.351   7.353
 8868POPC   C1B49903   9.508  42.216   6.453
 8868POPC   C2B49904   9.554  42.196   6.753
 8868POPC   C3B49905   9.568  42.221   7.053
 8868POPC   C4B49906   9.518  42.197   7.353
 8869POPC   NC349907  38.413  44.669   5.553
 8869POPC   PO449908  38.466  44.680   5.853
 8869POPC   GL149909  38.460  44.626   6.153
 8869POPC   GL249910  38.351  44.700   6.153
 8869POPC   C1A49911  38.430  44.670   6.453
 8869POPC   D2A49912  38.438  44.670   6.753
 8869POPC   C3A49913  38.492  44.655   7.053
 8869POPC   C4A49914  38.435  44.655   7.353
 8869POPC   C1B49915  38.305  44.800   6.453
 8869POPC   C2B49916  38.251  44.864   6.753
 8869POPC   C3B49917  38.295  44.846   7.053
 8869POPC   C4B49918  38.295  44.862   7.353
 8870POPC   NC349919  32.983  26.864   5.553
 8870POPC   PO449920  33.005  26.845   5.853
 8870POPC   GL149921  33.028  26.858   6.153
 8870POPC   GL249922  33.089  26.967   6.153
 8870POPC   C1A49923  33.070  26.834   6.453
 8870POPC   D2A49924  32.996  26.781   6.753
 8870POPC   C3A49925  33.066  26.867   7.053
 8870POPC   C4A49926  32.986  26.805   7.353
 8870POPC   C1B49927  33.068  27.014   6.453
 8870POPC   C2B49928  33.031  27.036   6.753
 8870POPC   C3B49929  33.106  27.074   7.053
 8870POPC   C4B49930  33.071  27.026   7.353
 8871POPC   NC349931  28.399  36.081   5.553
 8871POPC   PO449932  28.385  36.086   5.853
 8871POPC   GL149933  28.379  36.111   6.153
 8871POPC   GL249934  28.477  36.070   6.153
 8871POPC   C1A49935  28.356  36.133   6.453
 8871POPC   D2A49936  28.407  36.150   6.753
 8871POPC   C3A49937  28.321  36.129   7.053
 8871POPC   C4A49938  28.381  36.095   7.353
 8871POPC   C1B49939  28.471  35.922   6.453
 8871POPC   C2B49940  28.549  35.885   6.753
 8871POPC   C3B49941  28.516  35.953   7.053
 8871POPC   C4B49942  28.553  35.907   7.353
 8872POPC   NC349943  20.584   9.772   5.553
 8872POPC   PO449944  20.657   9.748   5.853
 8872POPC   GL149945  20.584   9.761   6.153
 8872POPC   GL249946  20.778   9.726   6.153
 8872POPC   C1A49947  20.641   9.731   6.453
 8872POPC   D2A49948  20.588   9.769   6.753
 8872POPC   C3A49949  20.632   9.774   7.053
 8872POPC   C4A49950  20.609   9.798   7.353
 8872POPC   C1B49951  20.861   9.766   6.453
 8872POPC   C2B49952  20.876   9.792   6.753
 8872POPC   C3B49953  20.814   9.748   7.053
 8872POPC   C4B49954  20.810   9.734   7.353
 8873POPC   NC349955  23.744  44.670   5.553
 8873POPC   PO449956  23.752  44.684   5.853
 8873POPC   GL149957  23.750  44.706   6.153
 8873POPC   GL249958  23.870  44.734   6.153
 8873POPC   C1A49959  23.756  44.665   6.453
 8873POPC   D2A49960  23.732  44.646   6.753
 8873POPC   C3A49961  23.743  44.646   7.053
 8873POPC   C4A49962  23.717  44.613   7.353
 8873POPC   C1B49963  23.921  44.717   6.453
 8873POPC   C2B49964  23.977  44.754   6.753
 8873POPC   C3B49965  23.917  44.700   7.053
 8873POPC   C4B49966  23.936  44.763   7.353
 8874POPC   NC349967  44.665  19.076   5.553
 8874POPC   PO449968  44.667  19.032   5.853
 8874POPC   GL149969  44.681  19.017   6.153
 8874POPC   GL249970  44.603  18.982   6.153
 8874POPC   C1A49971  44.651  19.081   6.453
 8874POPC   D2A49972  44.676  19.049   6.753
 8874POPC   C3A49973  44.689  19.093   7.053
 8874POPC   C4A49974  44.695  19.065   7.353
 8874POPC   C1B49975  44.512  18.831   6.453
 8874POPC   C2B49976  44.542  18.882   6.753
 8874POPC   C3B49977  44.537  18.829   7.053
 8874POPC   C4B49978  44.565  18.798   7.353
 8875POPC   NC349979  43.061  30.700   5.553
 8875POPC   PO449980  43.124  30.723   5.853
 8875POPC   GL149981  43.105  30.743   6.153
 8875POPC   GL249982  43.115  30.821   6.153
 8875POPC   C1A49983  43.077  30.689   6.453
 8875POPC   D2A49984  43.082  30.691   6.753
 8875POPC   C3A49985  43.062  30.742   7.053
 8875POPC   C4A49986  43.141  30.733   7.353
 8875POPC   C1B49987  43.179  30.941   6.453
 8875POPC   C2B49988  43.251  30.945   6.753
 8875POPC   C3B49989  43.230  30.970   7.053
 8875POPC   C4B49990  43.249  30.894   7.353
 8876POPC   NC349991   1.999   3.536   5.553
 8876POPC   PO449992   1.953   3.577   5.853
 8876POPC   GL149993   1.958   3.500   6.153
 8876POPC   GL249994   2.006   3.370   6.153
 8876POPC   C1A49995   1.962   3.567   6.453
 8876POPC   D2A49996   1.969   3.513   6.753
 8876POPC   C3A49997   2.025   3.587   7.053
 8876POPC   C4A49998   1.962   3.577   7.353
 8876POPC   C1B49999   1.897   3.309   6.453
 8876POPC   C2B50000   1.902   3.264   6.753
 8876POPC   C3B50001   1.889   3.336   7.053
 8876POPC   C4B50002   1.960   3.264   7.353
 8877POPC   NC350003  39.235  10.520   5.553
 8877POPC   PO450004  39.263  10.536   5.853
 8877POPC   GL150005  39.266  10.574   6.153
 8877POPC   GL250006  39.075  10.564   6.153
 8877POPC   C1A50007  39.230  10.492   6.453
 8877POPC   D2A50008  39.233  10.552   6.753
 8877POPC   C3A50009  39.198  10.549   7.053
 8877POPC   C4A50010  39.243  10.522   7.353
 8877POPC   C1B50011  38.982  10.691   6.453
 8877POPC   C2B50012  38.996  10.640   6.753
 8877POPC   C3B50013  38.998  10.606   7.053
 8877POPC   C4B50014  38.971  10.630   7.353
 8878POPC   NC350015  37.657  37.661   5.553
 8878POPC   PO450016  37.630  37.678   5.853
 8878POPC   GL150017  37.654  37.649   6.153
 8878POPC   GL250018  37.843  37.648   6.153
 8878POPC   C1A50019  37.671  37.686   6.453
 8878POPC   D2A50020  37.704  37.639   6.753
 8878POPC   C3A50021  37.648  37.707   7.053
 8878POPC   C4A50022  37.687  37.638   7.353
 8878POPC   C1B50023  37.933  37.678   6.453
 8878POPC   C2B50024  37.909  37.717   6.753
 8878POPC   C3B50025  37.964  37.743   7.053
 8878POPC   C4B50026  37.933  37.689   7.353
 8879POPC   NC350027  12.082  21.357   5.553
 8879POPC   PO450028  12.034  21.343   5.853
 8879POPC   GL150029  12.076  21.395   6.153
 8879POPC   GL250030  12.049  21.286   6.153
 8879POPC   C1A50031  12.061  21.416   6.453
 8879POPC   D2A50032  12.125  21.397   6.753
 8879POPC   C3A50033  12.088  21.400   7.053
 8879POPC   C4A50034  12.046  21.412   7.353
 8879POPC   C1B50035  12.053  21.088   6.453
 8879POPC   C2B50036  12.082  21.127   6.753
 8879POPC   C3B50037  12.139  21.134   7.053
 8879POPC   C4B50038  12.129  21.156   7.353
 8880POPC   NC350039  22.923  30.656   5.553
 8880POPC   PO450040  22.979  30.689   5.853
 8880POPC   GL150041  22.927  30.742   6.153
 8880POPC   GL250042  22.790  30.648   6.153
 8880POPC   C1A50043  22.938  30.744   6.453
 8880POPC   D2A50044  22.975  30.704   6.753
 8880POPC   C3A50045  22.923  30.717   7.053
 8880POPC   C4A50046  22.936  30.680   7.353
 8880POPC   C1B50047  22.694  30.535   6.453
 8880POPC   C2B50048  22.773  30.578   6.753
 8880POPC   C3B50049  22.780  30.558   7.053
 8880POPC   C4B50050  22.764  30.530   7.353
 8881POPC   NC350051   8.943  12.824   5.553
 8881POPC   PO450052   8.932  12.883   5.853
 8881POPC   GL150053   8.926  12.806   6.153
 8881POPC   GL250054   8.935  12.688   6.153
 8881POPC   C1A50055   9.017  12.875   6.453
 8881POPC   D2A50056   8.934  12.803   6.753
 8881POPC   C3A50057   8.924  12.824   7.053
 8881POPC   C4A50058   8.987  12.833   7.353
 8881POPC   C1B50059   8.938  12.587   6.453
 8881POPC   C2B50060   8.957  12.562   6.753
 8881POPC   C3B50061   8.935  12.574   7.053
 8881POPC   C4B50062   8.924  12.630   7.353
 8882POPC   NC350063   5.917  37.715   5.553
 8882POPC   PO450064   5.823  37.665   5.853
 8882POPC   GL150065   5.859  37.685   6.153
 8882POPC   GL250066   5.708  37.633   6.153
 8882POPC   C1A50067   5.824  37.671   6.453
 8882POPC   D2A50068   5.854  37.723   6.753
 8882POPC   C3A50069   5.903  37.710   7.053
 8882POPC   C4A50070   5.891  37.636   7.353
 8882POPC   C1B50071   5.665  37.568   6.453
 8882POPC   C2B50072   5.612  37.587   6.753
 8882POPC   C3B50073   5.622  37.571   7.053
 8882POPC   C4B50074   5.656  37.635   7.353
 8883POPC   NC350075  26.852  16.762   5.553
 8883POPC   PO450076  26.850  16.699   5.853
 8883POPC   GL150077  26.783  16.754   6.153
 8883POPC   GL250078  26.939  16.802   6.153
 8883POPC   C1A50079  26.786  16.682   6.453
 8883POPC   D2A50080  26.844  16.708   6.753
 8883POPC   C3A50081  26.861  16.697   7.053
 8883POPC   C4A50082  26.853  16.733   7.353
 8883POPC   C1B50083  27.031  16.880   6.453
 8883POPC   C2B50084  27.020  16.876   6.753
 8883POPC   C3B50085  27.011  16.883   7.053
 8883POPC   C4B50086  26.982  16.869   7.353
 8884POPC   NC350087  16.732  44.665   5.553
 8884POPC   PO450088  16.771  44.702   5.853
 8884POPC   GL150089  16.720  44.618   6.153
 8884POPC   GL250090  16.571  44.643   6.153
 8884POPC   C1A50091  16.757  44.680   6.453
 8884POPC   D2A50092  16.749  44.656   6.753
 8884POPC   C3A50093  16.722  44.648   7.053
 8884POPC   C4A50094  16.771  44.691   7.353
 8884POPC   C1B50095  16.522  44.599   6.453
 8884POPC   C2B50096  16.485  44.559   6.753
 8884POPC   C3B50097  16.503  44.585   7.053
 8884POPC   C4B50098  16.483  44.535   7.353
 8885POPC   NC350099  18.302  37.664   5.553
 8885POPC   PO450100  18.331  37.729   5.853
 8885POPC   GL150101  18.236  37.635   6.153
 8885POPC   GL250102  18.232  37.599   6.153
 8885POPC   C1A50103  18.324  37.676   6.453
 8885POPC   D2A50104  18.307  37.690   6.753
 8885POPC   C3A50105  18.302  37.713   7.053
 8885POPC   C4A50106  18.321  37.679   7.353
 8885POPC   C1B50107  18.162  37.421   6.453
 8885POPC   C2B50108  18.239  37.449   6.753
 8885POPC   C3B50109  18.222  37.441   7.053
 8885POPC   C4B50110  18.240  37.416   7.353
 8886POPC   NC350111   6.603   2.724   5.553
 8886POPC   PO450112   6.618   2.786   5.853
 8886POPC   GL150113   6.677   2.746   6.153
 8886POPC   GL250114   6.603   2.658   6.153
 8886POPC   C1A50115   6.633   2.812   6.453
 8886POPC   D2A50116   6.650   2.751   6.753
 8886POPC   C3A50117   6.612   2.809   7.053
 8886POPC   C4A50118   6.621   2.716   7.353
 8886POPC   C1B50119   6.521   2.575   6.453
 8886POPC   C2B50120   6.465   2.590   6.753
 8886POPC   C3B50121   6.476   2.565   7.053
 8886POPC   C4B50122   6.515   2.525   7.353
 8887POPC   NC350123  30.734  29.876   5.553
 8887POPC   PO450124  30.690  29.967   5.853
 8887POPC   GL150125  30.665  29.883   6.153
 8887POPC   GL250126  30.719  29.796   6.153
 8887POPC   C1A50127  30.720  29.940   6.453
 8887POPC   D2A50128  30.667  29.892   6.753
 8887POPC   C3A50129  30.683  29.892   7.053
 8887POPC   C4A50130  30.665  29.964   7.353
 8887POPC   C1B50131  30.859  29.753   6.453
 8887POPC   C2B50132  30.812  29.751   6.753
 8887POPC   C3B50133  30.789  29.749   7.053
 8887POPC   C4B50134  30.807  29.683   7.353
 8888POPC   NC350135  22.179  44.651   5.553
 8888POPC   PO450136  22.194  44.629   5.853
 8888POPC   GL150137  22.116  44.712   6.153
 8888POPC   GL250138  22.282  44.807   6.153
 8888POPC   C1A50139  22.211  44.662   6.453
 8888POPC   D2A50140  22.153  44.654   6.753
 8888POPC   C3A50141  22.175  44.689   7.053
 8888POPC   C4A50142  22.193  44.685   7.353
 8888POPC   C1B50143  22.324  44.826   6.453
 8888POPC   C2B50144  22.265  44.830   6.753
 8888POPC   C3B50145  22.282  44.869   7.053
 8888POPC   C4B50146  22.304  44.880   7.353
 8889POPC   NC350147  25.257  18.289   5.553
 8889POPC   PO450148  25.234  18.313   5.853
 8889POPC   GL150149  25.265  18.287   6.153
 8889POPC   GL250150  25.128  18.383   6.153
 8889POPC   C1A50151  25.295  18.252   6.453
 8889POPC   D2A50152  25.247  18.314   6.753
 8889POPC   C3A50153  25.269  18.313   7.053
 8889POPC   C4A50154  25.292  18.280   7.353
 8889POPC   C1B50155  25.075  18.421   6.453
 8889POPC   C2B50156  25.026  18.413   6.753
 8889POPC   C3B50157  25.087  18.447   7.053
 8889POPC   C4B50158  25.018  18.384   7.353
 8890POPC   NC350159  26.036  33.028   5.553
 8890POPC   PO450160  26.005  33.022   5.853
 8890POPC   GL150161  26.073  33.026   6.153
 8890POPC   GL250162  26.133  32.950   6.153
 8890POPC   C1A50163  26.018  32.976   6.453
 8890POPC   D2A50164  26.007  33.048   6.753
 8890POPC   C3A50165  26.049  33.055   7.053
 8890POPC   C4A50166  26.019  33.001   7.353
 8890POPC   C1B50167  26.172  32.777   6.453
 8890POPC   C2B50168  26.211  32.841   6.753
 8890POPC   C3B50169  26.183  32.820   7.053
 8890POPC   C4B50170  26.135  32.786   7.353
 8891POPC   NC350171  19.060  39.263   5.553
 8891POPC   PO450172  19.032  39.207   5.853
 8891POPC   GL150173  19.057  39.233   6.153
 8891POPC   GL250174  19.165  39.267   6.153
 8891POPC   C1A50175  19.036  39.276   6.453
 8891POPC   D2A50176  19.011  39.232   6.753
 8891POPC   C3A50177  19.059  39.222   7.053
 8891POPC   C4A50178  19.099  39.274   7.353
 8891POPC   C1B50179  19.267  39.356   6.453
 8891POPC   C2B50180  19.225  39.413   6.753
 8891POPC   C3B50181  19.220  39.367   7.053
 8891POPC   C4B50182  19.217  39.358   7.353
 8892POPC   NC350183   2.739  41.555   5.553
 8892POPC   PO450184   2.745  41.568   5.853
 8892POPC   GL150185   2.764  41.596   6.153
 8892POPC   GL250186   2.867  41.684   6.153
 8892POPC   C1A50187   2.755  41.529   6.453
 8892POPC   D2A50188   2.753  41.535   6.753
 8892POPC   C3A50189   2.758  41.603   7.053
 8892POPC   C4A50190   2.799  41.591   7.353
 8892POPC   C1B50191   2.936  41.691   6.453
 8892POPC   C2B50192   2.974  41.727   6.753
 8892POPC   C3B50193   2.936  41.701   7.053
 8892POPC   C4B50194   2.955  41.696   7.353
 8893POPC   NC350195  39.250   8.949   5.553
 8893POPC   PO450196  39.200   8.963   5.853
 8893POPC   GL150197  39.254   9.015   6.153
 8893POPC   GL250198  39.156   8.985   6.153
 8893POPC   C1A50199  39.201   8.929   6.453
 8893POPC   D2A50200  39.182   8.923   6.753
 8893POPC   C3A50201  39.217   8.927   7.053
 8893POPC   C4A50202  39.215   9.016   7.353
 8893POPC   C1B50203  38.985   8.918   6.453
 8893POPC   C2B50204  38.947   8.957   6.753
 8893POPC   C3B50205  39.017   8.926   7.053
 8893POPC   C4B50206  39.013   8.988   7.353
 8894POPC   NC350207  43.907  25.233   5.553
 8894POPC   PO450208  43.900  25.218   5.853
 8894POPC   GL150209  43.869  25.284   6.153
 8894POPC   GL250210  43.842  25.365   6.153
 8894POPC   C1A50211  43.861  25.285   6.453
 8894POPC   D2A50212  43.927  25.224   6.753
 8894POPC   C3A50213  43.928  25.219   7.053
 8894POPC   C4A50214  43.936  25.284   7.353
 8894POPC   C1B50215  43.813  25.514   6.453
 8894POPC   C2B50216  43.791  25.459   6.753
 8894POPC   C3B50217  43.749  25.529   7.053
 8894POPC   C4B50218  43.766  25.481   7.353
 8895POPC   NC350219  35.313  23.698   5.553
 8895POPC   PO450220  35.332  23.696   5.853
 8895POPC   GL150221  35.371  23.756   6.153
 8895POPC   GL250222  35.421  23.669   6.153
 8895POPC   C1A50223  35.321  23.733   6.453
 8895POPC   D2A50224  35.378  23.763   6.753
 8895POPC   C3A50225  35.366  23.666   7.053
 8895POPC   C4A50226  35.366  23.737   7.353
 8895POPC   C1B50227  35.526  23.607   6.453
 8895POPC   C2B50228  35.589  23.617   6.753
 8895POPC   C3B50229  35.582  23.578   7.053
 8895POPC   C4B50230  35.540  23.613   7.353
 8896POPC   NC350231   9.710  38.458   5.553
 8896POPC   PO450232   9.705  38.453   5.853
 8896POPC   GL150233   9.744  38.478   6.153
 8896POPC   GL250234   9.855  38.562   6.153
 8896POPC   C1A50235   9.730  38.471   6.453
 8896POPC   D2A50236   9.702  38.426   6.753
 8896POPC   C3A50237   9.775  38.465   7.053
 8896POPC   C4A50238   9.765  38.436   7.353
 8896POPC   C1B50239   9.940  38.594   6.453
 8896POPC   C2B50240   9.927  38.640   6.753
 8896POPC   C3B50241   9.922  38.619   7.053
 8896POPC   C4B50242   9.932  38.597   7.353
 8897POPC   NC350243   2.019  31.522   5.553
 8897POPC   PO450244   2.012  31.461   5.853
 8897POPC   GL150245   1.950  31.479   6.153
 8897POPC   GL250246   2.053  31.579   6.153
 8897POPC   C1A50247   1.982  31.460   6.453
 8897POPC   D2A50248   2.003  31.494   6.753
 8897POPC   C3A50249   2.007  31.512   7.053
 8897POPC   C4A50250   1.943  31.432   7.353
 8897POPC   C1B50251   2.131  31.714   6.453
 8897POPC   C2B50252   2.085  31.703   6.753
 8897POPC   C3B50253   2.079  31.730   7.053
 8897POPC   C4B50254   2.069  31.658   7.353
 8898POPC   NC350255  16.699   1.955   5.553
 8898POPC   PO450256  16.716   1.949   5.853
 8898POPC   GL150257  16.741   2.039   6.153
 8898POPC   GL250258  16.724   1.882   6.153
 8898POPC   C1A50259  16.704   1.958   6.453
 8898POPC   D2A50260  16.717   1.963   6.753
 8898POPC   C3A50261  16.779   2.019   7.053
 8898POPC   C4A50262  16.759   1.989   7.353
 8898POPC   C1B50263  16.685   1.711   6.453
 8898POPC   C2B50264  16.686   1.732   6.753
 8898POPC   C3B50265  16.641   1.746   7.053
 8898POPC   C4B50266  16.659   1.702   7.353
 8899POPC   NC350267  23.731  12.875   5.553
 8899POPC   PO450268  23.738  12.823   5.853
 8899POPC   GL150269  23.676  12.891   6.153
 8899POPC   GL250270  23.653  13.017   6.153
 8899POPC   C1A50271  23.670  12.859   6.453
 8899POPC   D2A50272  23.743  12.809   6.753
 8899POPC   C3A50273  23.665  12.859   7.053
 8899POPC   C4A50274  23.676  12.898   7.353
 8899POPC   C1B50275  23.652  13.095   6.453
 8899POPC   C2B50276  23.625  13.070   6.753
 8899POPC   C3B50277  23.640  13.082   7.053
 8899POPC   C4B50278  23.639  13.081   7.353
 8900POPC   NC350279  42.326  31.510   5.553
 8900POPC   PO450280  42.306  31.516   5.853
 8900POPC   GL150281  42.352  31.510   6.153
 8900POPC   GL250282  42.244  31.457   6.153
 8900POPC   C1A50283  42.288  31.458   6.453
 8900POPC   D2A50284  42.316  31.445   6.753
 8900POPC   C3A50285  42.333  31.508   7.053
 8900POPC   C4A50286  42.366  31.455   7.353
 8900POPC   C1B50287  42.131  31.523   6.453
 8900POPC   C2B50288  42.079  31.506   6.753
 8900POPC   C3B50289  42.112  31.462   7.053
 8900POPC   C4B50290  42.068  31.472   7.353
 8901POPC   NC350291  16.768  16.759   5.553
 8901POPC   PO450292  16.732  16.767   5.853
 8901POPC   GL150293  16.742  16.698   6.153
 8901POPC   GL250294  16.719  16.872   6.153
 8901POPC   C1A50295  16.702  16.707   6.453
 8901POPC   D2A50296  16.707  16.694   6.753
 8901POPC   C3A50297  16.687  16.703   7.053
 8901POPC   C4A50298  16.778  16.751   7.353
 8901POPC   C1B50299  16.633  16.904   6.453
 8901POPC   C2B50300  16.621  16.933   6.753
 8901POPC   C3B50301  16.592  16.950   7.053
 8901POPC   C4B50302  16.585  16.943   7.353
 8902POPC   NC350303   2.017  44.628   5.553
 8902POPC   PO450304   1.956  44.691   5.853
 8902POPC   GL150305   2.004  44.710   6.153
 8902POPC   GL250306   2.075  44.677   6.153
 8902POPC   C1A50307   1.980  44.613   6.453
 8902POPC   D2A50308   1.993  44.694   6.753
 8902POPC   C3A50309   1.953  44.693   7.053
 8902POPC   C4A50310   1.947  44.621   7.353
 8902POPC   C1B50311   2.172  44.761   6.453
 8902POPC   C2B50312   2.183  44.781   6.753
 8902POPC   C3B50313   2.217  44.813   7.053
 8902POPC   C4B50314   2.218  44.802   7.353
 8903POPC   NC350315   1.202  13.599   5.553
 8903POPC   PO450316   1.225  13.658   5.853
 8903POPC   GL150317   1.174  13.602   6.153
 8903POPC   GL250318   1.133  13.539   6.153
 8903POPC   C1A50319   1.261  13.640   6.453
 8903POPC   D2A50320   1.217  13.669   6.753
 8903POPC   C3A50321   1.204  13.657   7.053
 8903POPC   C4A50322   1.187  13.671   7.353
 8903POPC   C1B50323   1.062  13.398   6.453
 8903POPC   C2B50324   1.091  13.477   6.753
 8903POPC   C3B50325   1.050  13.423   7.053
 8903POPC   C4B50326   1.086  13.427   7.353
 8904POPC   NC350327  29.108  21.340   5.553
 8904POPC   PO450328  29.177  21.359   5.853
 8904POPC   GL150329  29.114  21.421   6.153
 8904POPC   GL250330  29.182  21.214   6.153
 8904POPC   C1A50331  29.177  21.385   6.453
 8904POPC   D2A50332  29.161  21.348   6.753
 8904POPC   C3A50333  29.162  21.397   7.053
 8904POPC   C4A50334  29.139  21.392   7.353
 8904POPC   C1B50335  29.153  21.142   6.453
 8904POPC   C2B50336  29.129  21.099   6.753
 8904POPC   C3B50337  29.107  21.181   7.053
 8904POPC   C4B50338  29.109  21.127   7.353
 8905POPC   NC350339  12.864  12.070   5.553
 8905POPC   PO450340  12.827  12.054   5.853
 8905POPC   GL150341  12.837  12.111   6.153
 8905POPC   GL250342  12.998  12.016   6.153
 8905POPC   C1A50343  12.894  12.028   6.453
 8905POPC   D2A50344  12.900  12.124   6.753
 8905POPC   C3A50345  12.882  12.102   7.053
 8905POPC   C4A50346  12.837  12.069   7.353
 8905POPC   C1B50347  13.126  12.080   6.453
 8905POPC   C2B50348  13.139  12.016   6.753
 8905POPC   C3B50349  13.123  12.052   7.053
 8905POPC   C4B50350  13.141  12.010   7.353
 8906POPC   NC350351  29.877  31.449   5.553
 8906POPC   PO450352  29.964  31.486   5.853
 8906POPC   GL150353  29.960  31.458   6.153
 8906POPC   GL250354  30.043  31.412   6.153
 8906POPC   C1A50355  29.968  31.503   6.453
 8906POPC   D2A50356  29.891  31.449   6.753
 8906POPC   C3A50357  29.893  31.423   7.053
 8906POPC   C4A50358  29.906  31.424   7.353
 8906POPC   C1B50359  30.136  31.340   6.453
 8906POPC   C2B50360  30.109  31.327   6.753
 8906POPC   C3B50361  30.071  31.362   7.053
 8906POPC   C4B50362  30.151  31.360   7.353
 8907POPC   NC350363  27.547  34.613   5.553
 8907POPC   PO450364  27.589  34.574   5.853
 8907POPC   GL150365  27.574  34.559   6.153
 8907POPC   GL250366  27.726  34.590   6.153
 8907POPC   C1A50367  27.612  34.584   6.453
 8907POPC   D2A50368  27.572  34.554   6.753
 8907POPC   C3A50369  27.582  34.599   7.053
 8907POPC   C4A50370  27.641  34.530   7.353
 8907POPC   C1B50371  27.809  34.638   6.453
 8907POPC   C2B50372  27.788  34.661   6.753
 8907POPC   C3B50373  27.788  34.583   7.053
 8907POPC   C4B50374  27.806  34.652   7.353
 8908POPC   NC350375  42.295  12.113   5.553
 8908POPC   PO450376  42.312  12.081   5.853
 8908POPC   GL150377  42.359  12.097   6.153
 8908POPC   GL250378  42.477  12.115   6.153
 8908POPC   C1A50379  42.307  12.087   6.453
 8908POPC   D2A50380  42.326  12.062   6.753
 8908POPC   C3A50381  42.317  12.086   7.053
 8908POPC   C4A50382  42.345  12.055   7.353
 8908POPC   C1B50383  42.570  12.144   6.453
 8908POPC   C2B50384  42.590  12.191   6.753
 8908POPC   C3B50385  42.525  12.164   7.053
 8908POPC   C4B50386  42.547  12.126   7.353
 8909POPC   NC350387   9.757   5.867   5.553
 8909POPC   PO450388   9.756   5.892   5.853
 8909POPC   GL150389   9.717   5.828   6.153
 8909POPC   GL250390   9.716   5.953   6.153
 8909POPC   C1A50391   9.787   5.905   6.453
 8909POPC   D2A50392   9.779   5.835   6.753
 8909POPC   C3A50393   9.758   5.912   7.053
 8909POPC   C4A50394   9.792   5.864   7.353
 8909POPC   C1B50395   9.547   6.020   6.453
 8909POPC   C2B50396   9.623   6.032   6.753
 8909POPC   C3B50397   9.637   6.025   7.053
 8909POPC   C4B50398   9.597   6.073   7.353
 8910POPC   NC350399  31.446  43.074   5.553
 8910POPC   PO450400  31.506  43.077   5.853
 8910POPC   GL150401  31.483  43.119   6.153
 8910POPC   GL250402  31.409  43.220   6.153
 8910POPC   C1A50403  31.474  43.138   6.453
 8910POPC   D2A50404  31.436  43.083   6.753
 8910POPC   C3A50405  31.516  43.158   7.053
 8910POPC   C4A50406  31.442  43.074   7.353
 8910POPC   C1B50407  31.424  43.337   6.453
 8910POPC   C2B50408  31.384  43.393   6.753
 8910POPC   C3B50409  31.375  43.392   7.053
 8910POPC   C4B50410  31.428  43.403   7.353
 8911POPC   NC350411   6.682   1.962   5.553
 8911POPC   PO450412   6.634   2.017   5.853
 8911POPC   GL150413   6.627   1.985   6.153
 8911POPC   GL250414   6.587   2.047   6.153
 8911POPC   C1A50415   6.693   2.016   6.453
 8911POPC   D2A50416   6.633   2.030   6.753
 8911POPC   C3A50417   6.650   1.972   7.053
 8911POPC   C4A50418   6.646   1.951   7.353
 8911POPC   C1B50419   6.390   2.146   6.453
 8911POPC   C2B50420   6.473   2.117   6.753
 8911POPC   C3B50421   6.473   2.116   7.053
 8911POPC   C4B50422   6.403   2.089   7.353
 8912POPC   NC350423  43.872  22.196   5.553
 8912POPC   PO450424  43.914  22.183   5.853
 8912POPC   GL150425  43.934  22.134   6.153
 8912POPC   GL250426  43.988  22.180   6.153
 8912POPC   C1A50427  43.914  22.143   6.453
 8912POPC   D2A50428  43.912  22.113   6.753
 8912POPC   C3A50429  43.920  22.120   7.053
 8912POPC   C4A50430  43.881  22.135   7.353
 8912POPC   C1B50431  44.148  22.120   6.453
 8912POPC   C2B50432  44.087  22.145   6.753
 8912POPC   C3B50433  44.179  22.187   7.053
 8912POPC   C4B50434  44.100  22.131   7.353
 8913POPC   NC350435  26.053  15.960   5.553
 8913POPC   PO450436  26.077  15.927   5.853
 8913POPC   GL150437  26.080  15.913   6.153
 8913POPC   GL250438  26.053  16.103   6.153
 8913POPC   C1A50439  26.005  15.973   6.453
 8913POPC   D2A50440  26.034  15.939   6.753
 8913POPC   C3A50441  26.054  15.995   7.053
 8913POPC   C4A50442  26.001  15.907   7.353
 8913POPC   C1B50443  26.114  16.228   6.453
 8913POPC   C2B50444  26.052  16.219   6.753
 8913POPC   C3B50445  26.099  16.233   7.053
 8913POPC   C4B50446  26.089  16.175   7.353
 8914POPC   NC350447  35.396   5.871   5.553
 8914POPC   PO450448  35.325   5.845   5.853
 8914POPC   GL150449  35.314   5.897   6.153
 8914POPC   GL250450  35.466   5.922   6.153
 8914POPC   C1A50451  35.308   5.900   6.453
 8914POPC   D2A50452  35.310   5.830   6.753
 8914POPC   C3A50453  35.331   5.896   7.053
 8914POPC   C4A50454  35.400   5.901   7.353
 8914POPC   C1B50455  35.575   5.901   6.453
 8914POPC   C2B50456  35.592   5.965   6.753
 8914POPC   C3B50457  35.594   5.942   7.053
 8914POPC   C4B50458  35.597   5.950   7.353
 8915POPC   NC350459   6.601  30.696   5.553
 8915POPC   PO450460   6.687  30.730   5.853
 8915POPC   GL150461   6.622  30.705   6.153
 8915POPC   GL250462   6.746  30.597   6.153
 8915POPC   C1A50463   6.646  30.720   6.453
 8915POPC   D2A50464   6.650  30.652   6.753
 8915POPC   C3A50465   6.694  30.655   7.053
 8915POPC   C4A50466   6.597  30.732   7.353
 8915POPC   C1B50467   6.870  30.540   6.453
 8915POPC   C2B50468   6.846  30.561   6.753
 8915POPC   C3B50469   6.902  30.569   7.053
 8915POPC   C4B50470   6.878  30.613   7.353
 8916POPC   NC350471  12.879  42.334   5.553
 8916POPC   PO450472  12.821  42.298   5.853
 8916POPC   GL150473  12.896  42.297   6.153
 8916POPC   GL250474  12.982  42.386   6.153
 8916POPC   C1A50475  12.822  42.351   6.453
 8916POPC   D2A50476  12.877  42.304   6.753
 8916POPC   C3A50477  12.874  42.301   7.053
 8916POPC   C4A50478  12.849  42.319   7.353
 8916POPC   C1B50479  13.130  42.458   6.453
 8916POPC   C2B50480  13.045  42.394   6.753
 8916POPC   C3B50481  13.066  42.403   7.053
 8916POPC   C4B50482  13.131  42.394   7.353
 8917POPC   NC350483  18.253   2.782   5.553
 8917POPC   PO450484  18.272   2.740   5.853
 8917POPC   GL150485  18.267   2.758   6.153
 8917POPC   GL250486  18.272   2.894   6.153
 8917POPC   C1A50487  18.257   2.758   6.453
 8917POPC   D2A50488  18.259   2.805   6.753
 8917POPC   C3A50489  18.269   2.792   7.053
 8917POPC   C4A50490  18.317   2.793   7.353
 8917POPC   C1B50491  18.277   3.035   6.453
 8917POPC   C2B50492  18.345   2.975   6.753
 8917POPC   C3B50493  18.279   3.027   7.053
 8917POPC   C4B50494  18.281   3.009   7.353
 8918POPC   NC350495  13.666   6.657   5.553
 8918POPC   PO450496  13.603   6.612   5.853
 8918POPC   GL150497  13.651   6.595   6.153
 8918POPC   GL250498  13.537   6.645   6.153
 8918POPC   C1A50499  13.615   6.606   6.453
 8918POPC   D2A50500  13.585   6.695   6.753
 8918POPC   C3A50501  13.617   6.641   7.053
 8918POPC   C4A50502  13.604   6.657   7.353
 8918POPC   C1B50503  13.337   6.620   6.453
 8918POPC   C2B50504  13.371   6.602   6.753
 8918POPC   C3B50505  13.338   6.582   7.053
 8918POPC   C4B50506  13.416   6.570   7.353
 8919POPC   NC350507  14.406  30.696   5.553
 8919POPC   PO450508  14.378  30.712   5.853
 8919POPC   GL150509  14.375  30.660   6.153
 8919POPC   GL250510  14.497  30.825   6.153
 8919POPC   C1A50511  14.425  30.654   6.453
 8919POPC   D2A50512  14.440  30.702   6.753
 8919POPC   C3A50513  14.432  30.652   7.053
 8919POPC   C4A50514  14.355  30.711   7.353
 8919POPC   C1B50515  14.536  30.918   6.453
 8919POPC   C2B50516  14.545  30.903   6.753
 8919POPC   C3B50517  14.562  30.940   7.053
 8919POPC   C4B50518  14.555  30.880   7.353
 8920POPC   NC350519  10.542  11.293   5.553
 8920POPC   PO450520  10.558  11.290   5.853
 8920POPC   GL150521  10.554  11.339   6.153
 8920POPC   GL250522  10.639  11.389   6.153
 8920POPC   C1A50523  10.523  11.310   6.453
 8920POPC   D2A50524  10.572  11.304   6.753
 8920POPC   C3A50525  10.541  11.313   7.053
 8920POPC   C4A50526  10.558  11.317   7.353
 8920POPC   C1B50527  10.743  11.453   6.453
 8920POPC   C2B50528  10.705  11.444   6.753
 8920POPC   C3B50529  10.793  11.445   7.053
 8920POPC   C4B50530  10.766  11.448   7.353
 8921POPC   NC350531  16.725   6.595   5.553
 8921POPC   PO450532  16.758   6.610   5.853
 8921POPC   GL150533  16.729   6.693   6.153
 8921POPC   GL250534  16.588   6.752   6.153
 8921POPC   C1A50535  16.763   6.679   6.453
 8921POPC   D2A50536  16.758   6.608   6.753
 8921POPC   C3A50537  16.692   6.619   7.053
 8921POPC   C4A50538  16.699   6.681   7.353
 8921POPC   C1B50539  16.512   6.773   6.453
 8921POPC   C2B50540  16.508   6.808   6.753
 8921POPC   C3B50541  16.538   6.732   7.053
 8921POPC   C4B50542  16.499   6.751   7.353
 8922POPC   NC350543  31.479   5.896   5.553
 8922POPC   PO450544  31.477   5.911   5.853
 8922POPC   GL150545  31.504   5.875   6.153
 8922POPC   GL250546  31.614   5.864   6.153
 8922POPC   C1A50547  31.451   5.890   6.453
 8922POPC   D2A50548  31.473   5.892   6.753
 8922POPC   C3A50549  31.423   5.847   7.053
 8922POPC   C4A50550  31.462   5.830   7.353
 8922POPC   C1B50551  31.699   5.903   6.453
 8922POPC   C2B50552  31.721   5.898   6.753
 8922POPC   C3B50553  31.721   5.826   7.053
 8922POPC   C4B50554  31.768   5.848   7.353
 8923POPC   NC350555  19.055  19.790   5.553
 8923POPC   PO450556  19.073  19.807   5.853
 8923POPC   GL150557  19.084  19.873   6.153
 8923POPC   GL250558  18.977  19.865   6.153
 8923POPC   C1A50559  19.104  19.813   6.453
 8923POPC   D2A50560  19.101  19.785   6.753
 8923POPC   C3A50561  19.067  19.849   7.053
 8923POPC   C4A50562  19.098  19.837   7.353
 8923POPC   C1B50563  18.786  19.812   6.453
 8923POPC   C2B50564  18.854  19.761   6.753
 8923POPC   C3B50565  18.822  19.813   7.053
 8923POPC   C4B50566  18.841  19.800   7.353
 8924POPC   NC350567  27.595  22.150   5.553
 8924POPC   PO450568  27.641  22.197   5.853
 8924POPC   GL150569  27.620  22.182   6.153
 8924POPC   GL250570  27.700  22.053   6.153
 8924POPC   C1A50571  27.588  22.189   6.453
 8924POPC   D2A50572  27.574  22.134   6.753
 8924POPC   C3A50573  27.616  22.204   7.053
 8924POPC   C4A50574  27.642  22.121   7.353
 8924POPC   C1B50575  27.741  21.971   6.453
 8924POPC   C2B50576  27.752  21.903   6.753
 8924POPC   C3B50577  27.722  21.960   7.053
 8924POPC   C4B50578  27.694  21.957   7.353
 8925POPC   NC350579   9.702   1.188   5.553
 8925POPC   PO450580   9.781   1.166   5.853
 8925POPC   GL150581   9.739   1.235   6.153
 8925POPC   GL250582   9.803   1.097   6.153
 8925POPC   C1A50583   9.772   1.219   6.453
 8925POPC   D2A50584   9.708   1.202   6.753
 8925POPC   C3A50585   9.776   1.193   7.053
 8925POPC   C4A50586   9.763   1.179   7.353
 8925POPC   C1B50587   9.955   1.037   6.453
 8925POPC   C2B50588   9.953   1.089   6.753
 8925POPC   C3B50589   9.911   1.098   7.053
 8925POPC   C4B50590   9.977   1.093   7.353
 8926POPC   NC350591   4.345  40.819   5.553
 8926POPC   PO450592   4.355  40.751   5.853
 8926POPC   GL150593   4.296  40.776   6.153
 8926POPC   GL250594   4.410  40.662   6.153
 8926POPC   C1A50595   4.354  40.773   6.453
 8926POPC   D2A50596   4.293  40.738   6.753
 8926POPC   C3A50597   4.335  40.812   7.053
 8926POPC   C4A50598   4.302  40.784   7.353
 8926POPC   C1B50599   4.460  40.609   6.453
 8926POPC   C2B50600   4.437  40.578   6.753
 8926POPC   C3B50601   4.474  40.546   7.053
 8926POPC   C4B50602   4.466  40.603   7.353
 8927POPC   NC350603  25.290  31.450   5.553
 8927POPC   PO450604  25.253  31.495   5.853
 8927POPC   GL150605  25.311  31.520   6.153
 8927POPC   GL250606  25.186  31.440   6.153
 8927POPC   C1A50607  25.257  31.438   6.453
 8927POPC   D2A50608  25.296  31.468   6.753
 8927POPC   C3A50609  25.228  31.478   7.053
 8927POPC   C4A50610  25.274  31.491   7.353
 8927POPC   C1B50611  24.984  31.378   6.453
 8927POPC   C2B50612  25.039  31.384   6.753
 8927POPC   C3B50613  25.012  31.406   7.053
 8927POPC   C4B50614  25.037  31.369   7.353
 8928POPC   NC350615  19.792  18.295   5.553
 8928POPC   PO450616  19.803  18.325   5.853
 8928POPC   GL150617  19.829  18.333   6.153
 8928POPC   GL250618  20.009  18.263   6.153
 8928POPC   C1A50619  19.799  18.276   6.453
 8928POPC   D2A50620  19.796  18.326   6.753
 8928POPC   C3A50621  19.807  18.253   7.053
 8928POPC   C4A50622  19.855  18.328   7.353
 8928POPC   C1B50623  20.089  18.259   6.453
 8928POPC   C2B50624  20.072  18.286   6.753
 8928POPC   C3B50625  20.047  18.251   7.053
 8928POPC   C4B50626  20.120  18.298   7.353
 8929POPC   NC350627  43.109  22.122   5.553
 8929POPC   PO450628  43.106  22.118   5.853
 8929POPC   GL150629  43.160  22.168   6.153
 8929POPC   GL250630  42.971  22.070   6.153
 8929POPC   C1A50631  43.087  22.124   6.453
 8929POPC   D2A50632  43.064  22.134   6.753
 8929POPC   C3A50633  43.128  22.123   7.053
 8929POPC   C4A50634  43.068  22.147   7.353
 8929POPC   C1B50635  42.869  22.046   6.453
 8929POPC   C2B50636  42.879  22.106   6.753
 8929POPC   C3B50637  42.891  22.089   7.053
 8929POPC   C4B50638  42.873  22.084   7.353
 8930POPC   NC350639  24.458   0.477   5.553
 8930POPC   PO450640  24.495   0.401   5.853
 8930POPC   GL150641  24.502   0.469   6.153
 8930POPC   GL250642  24.371   0.480   6.153
 8930POPC   C1A50643  24.528   0.487   6.453
 8930POPC   D2A50644  24.502   0.407   6.753
 8930POPC   C3A50645  24.466   0.430   7.053
 8930POPC   C4A50646  24.512   0.455   7.353
 8930POPC   C1B50647  24.243   0.443   6.453
 8930POPC   C2B50648  24.232   0.417   6.753
 8930POPC   C3B50649  24.225   0.445   7.053
 8930POPC   C4B50650  24.251   0.445   7.353
 8931POPC   NC350651  16.707  42.287   5.553
 8931POPC   PO450652  16.717  42.384   5.853
 8931POPC   GL150653  16.717  42.362   6.153
 8931POPC   GL250654  16.678  42.189   6.153
 8931POPC   C1A50655  16.730  42.288   6.453
 8931POPC   D2A50656  16.767  42.321   6.753
 8931POPC   C3A50657  16.683  42.309   7.053
 8931POPC   C4A50658  16.720  42.289   7.353
 8931POPC   C1B50659  16.596  42.085   6.453
 8931POPC   C2B50660  16.648  42.056   6.753
 8931POPC   C3B50661  16.689  42.138   7.053
 8931POPC   C4B50662  16.672  42.071   7.353
 8932POPC   NC350663  18.238   5.050   5.553
 8932POPC   PO450664  18.252   5.066   5.853
 8932POPC   GL150665  18.315   5.047   6.153
 8932POPC   GL250666  18.395   5.035   6.153
 8932POPC   C1A50667  18.322   5.142   6.453
 8932POPC   D2A50668  18.317   5.132   6.753
 8932POPC   C3A50669  18.315   5.056   7.053
 8932POPC   C4A50670  18.279   5.136   7.353
 8932POPC   C1B50671  18.393   4.894   6.453
 8932POPC   C2B50672  18.409   4.892   6.753
 8932POPC   C3B50673  18.411   4.870   7.053
 8932POPC   C4B50674  18.409   4.874   7.353
 8933POPC   NC350675  19.096  43.875   5.553
 8933POPC   PO450676  19.085  43.924   5.853
 8933POPC   GL150677  19.064  43.915   6.153
 8933POPC   GL250678  18.895  43.854   6.153
 8933POPC   C1A50679  19.022  43.850   6.453
 8933POPC   D2A50680  19.063  43.860   6.753
 8933POPC   C3A50681  19.067  43.845   7.053
 8933POPC   C4A50682  19.014  43.922   7.353
 8933POPC   C1B50683  18.848  43.830   6.453
 8933POPC   C2B50684  18.831  43.806   6.753
 8933POPC   C3B50685  18.873  43.820   7.053
 8933POPC   C4B50686  18.850  43.792   7.353
 8934POPC   NC350687  20.592  33.002   5.553
 8934POPC   PO450688  20.595  33.018   5.853
 8934POPC   GL150689  20.633  32.989   6.153
 8934POPC   GL250690  20.541  32.956   6.153
 8934POPC   C1A50691  20.597  33.016   6.453
 8934POPC   D2A50692  20.643  33.032   6.753
 8934POPC   C3A50693  20.648  32.982   7.053
 8934POPC   C4A50694  20.591  33.010   7.353
 8934POPC   C1B50695  20.456  32.852   6.453
 8934POPC   C2B50696  20.446  32.822   6.753
 8934POPC   C3B50697  20.469  32.840   7.053
 8934POPC   C4B50698  20.401  32.832   7.353
 8935POPC   NC350699  36.170  36.171   5.553
 8935POPC   PO450700  36.144  36.117   5.853
 8935POPC   GL150701  36.084  36.099   6.153
 8935POPC   GL250702  36.182  36.259   6.153
 8935POPC   C1A50703  36.167  36.107   6.453
 8935POPC   D2A50704  36.138  36.094   6.753
 8935POPC   C3A50705  36.150  36.144   7.053
 8935POPC   C4A50706  36.135  36.092   7.353
 8935POPC   C1B50707  36.144  36.352   6.453
 8935POPC   C2B50708  36.177  36.337   6.753
 8935POPC   C3B50709  36.202  36.372   7.053
 8935POPC   C4B50710  36.144  36.400   7.353
 8936POPC   NC350711  23.694   4.282   5.553
 8936POPC   PO450712  23.670   4.363   5.853
 8936POPC   GL150713  23.690   4.326   6.153
 8936POPC   GL250714  23.703   4.477   6.153
 8936POPC   C1A50715  23.756   4.340   6.453
 8936POPC   D2A50716  23.672   4.323   6.753
 8936POPC   C3A50717  23.749   4.364   7.053
 8936POPC   C4A50718  23.679   4.303   7.353
 8936POPC   C1B50719  23.803   4.526   6.453
 8936POPC   C2B50720  23.821   4.571   6.753
 8936POPC   C3B50721  23.731   4.516   7.053
 8936POPC   C4B50722  23.757   4.546   7.353
 8937POPC   NC350723   6.626  36.171   5.553
 8937POPC   PO450724   6.683  36.091   5.853
 8937POPC   GL150725   6.675  36.084   6.153
 8937POPC   GL250726   6.722  36.155   6.153
 8937POPC   C1A50727   6.602  36.148   6.453
 8937POPC   D2A50728   6.655  36.167   6.753
 8937POPC   C3A50729   6.620  36.123   7.053
 8937POPC   C4A50730   6.596  36.119   7.353
 8937POPC   C1B50731   6.848  36.255   6.453
 8937POPC   C2B50732   6.917  36.224   6.753
 8937POPC   C3B50733   6.926  36.173   7.053
 8937POPC   C4B50734   6.848  36.232   7.353
 8938POPC   NC350735  33.770  17.523   5.553
 8938POPC   PO450736  33.795  17.525   5.853
 8938POPC   GL150737  33.807  17.507   6.153
 8938POPC   GL250738  33.961  17.500   6.153
 8938POPC   C1A50739  33.782  17.486   6.453
 8938POPC   D2A50740  33.848  17.474   6.753
 8938POPC   C3A50741  33.816  17.494   7.053
 8938POPC   C4A50742  33.777  17.499   7.353
 8938POPC   C1B50743  33.990  17.430   6.453
 8938POPC   C2B50744  33.984  17.397   6.753
 8938POPC   C3B50745  34.031  17.391   7.053
 8938POPC   C4B50746  34.070  17.439   7.353
 8939POPC   NC350747  21.339  40.001   5.553
 8939POPC   PO450748  21.361  40.017   5.853
 8939POPC   GL150749  21.436  40.018   6.153
 8939POPC   GL250750  21.448  39.870   6.153
 8939POPC   C1A50751  21.355  40.038   6.453
 8939POPC   D2A50752  21.429  40.015   6.753
 8939POPC   C3A50753  21.398  39.986   7.053
 8939POPC   C4A50754  21.362  40.051   7.353
 8939POPC   C1B50755  21.512  39.833   6.453
 8939POPC   C2B50756  21.554  39.815   6.753
 8939POPC   C3B50757  21.539  39.773   7.053
 8939POPC   C4B50758  21.484  39.829   7.353
 8940POPC   NC350759  40.009  26.779   5.553
 8940POPC   PO450760  39.986  26.853   5.853
 8940POPC   GL150761  40.002  26.866   6.153
 8940POPC   GL250762  40.002  26.673   6.153
 8940POPC   C1A50763  40.012  26.846   6.453
 8940POPC   D2A50764  40.017  26.782   6.753
 8940POPC   C3A50765  39.973  26.772   7.053
 8940POPC   C4A50766  39.982  26.847   7.353
 8940POPC   C1B50767  40.129  26.541   6.453
 8940POPC   C2B50768  40.098  26.620   6.753
 8940POPC   C3B50769  40.072  26.555   7.053
 8940POPC   C4B50770  40.091  26.539   7.353
 8941POPC   NC350771  26.858  18.241   5.553
 8941POPC   PO450772  26.770  18.246   5.853
 8941POPC   GL150773  26.804  18.259   6.153
 8941POPC   GL250774  26.820  18.392   6.153
 8941POPC   C1A50775  26.855  18.242   6.453
 8941POPC   D2A50776  26.857  18.310   6.753
 8941POPC   C3A50777  26.787  18.297   7.053
 8941POPC   C4A50778  26.828  18.254   7.353
 8941POPC   C1B50779  26.849  18.578   6.453
 8941POPC   C2B50780  26.825  18.551   6.753
 8941POPC   C3B50781  26.832  18.524   7.053
 8941POPC   C4B50782  26.780  18.544   7.353
 8942POPC   NC350783  10.485  26.783   5.553
 8942POPC   PO450784  10.513  26.818   5.853
 8942POPC   GL150785  10.540  26.850   6.153
 8942POPC   GL250786  10.460  26.654   6.153
 8942POPC   C1A50787  10.538  26.858   6.453
 8942POPC   D2A50788  10.543  26.816   6.753
 8942POPC   C3A50789  10.541  26.854   7.053
 8942POPC   C4A50790  10.567  26.774   7.353
 8942POPC   C1B50791  10.369  26.624   6.453
 8942POPC   C2B50792  10.400  26.592   6.753
 8942POPC   C3B50793  10.428  26.607   7.053
 8942POPC   C4B50794  10.417  26.562   7.353
 8943POPC   NC350795  36.148   7.379   5.553
 8943POPC   PO450796  36.138   7.414   5.853
 8943POPC   GL150797  36.142   7.441   6.153
 8943POPC   GL250798  36.223   7.553   6.153
 8943POPC   C1A50799  36.094   7.418   6.453
 8943POPC   D2A50800  36.162   7.411   6.753
 8943POPC   C3A50801  36.171   7.451   7.053
 8943POPC   C4A50802  36.107   7.423   7.353
 8943POPC   C1B50803  36.316   7.615   6.453
 8943POPC   C2B50804  36.348   7.568   6.753
 8943POPC   C3B50805  36.279   7.549   7.053
 8943POPC   C4B50806  36.293   7.552   7.353
 8944POPC   NC350807  36.159  11.324   5.553
 8944POPC   PO450808  36.105  11.338   5.853
 8944POPC   GL150809  36.101  11.304   6.153
 8944POPC   GL250810  36.215  11.409   6.153
 8944POPC   C1A50811  36.084  11.324   6.453
 8944POPC   D2A50812  36.124  11.320   6.753
 8944POPC   C3A50813  36.124  11.281   7.053
 8944POPC   C4A50814  36.079  11.258   7.353
 8944POPC   C1B50815  36.240  11.497   6.453
 8944POPC   C2B50816  36.234  11.480   6.753
 8944POPC   C3B50817  36.231  11.486   7.053
 8944POPC   C4B50818  36.216  11.543   7.353
 8945POPC   NC350819  12.096   7.450   5.553
 8945POPC   PO450820  12.112   7.444   5.853
 8945POPC   GL150821  12.066   7.440   6.153
 8945POPC   GL250822  12.182   7.464   6.153
 8945POPC   C1A50823  12.063   7.409   6.453
 8945POPC   D2A50824  12.105   7.426   6.753
 8945POPC   C3A50825  12.067   7.465   7.053
 8945POPC   C4A50826  12.027   7.374   7.353
 8945POPC   C1B50827  12.239   7.574   6.453
 8945POPC   C2B50828  12.293   7.542   6.753
 8945POPC   C3B50829  12.230   7.606   7.053
 8945POPC   C4B50830  12.256   7.599   7.353
 8946POPC   NC350831   7.378   5.909   5.553
 8946POPC   PO450832   7.429   5.893   5.853
 8946POPC   GL150833   7.409   5.852   6.153
 8946POPC   GL250834   7.451   5.737   6.153
 8946POPC   C1A50835   7.410   5.833   6.453
 8946POPC   D2A50836   7.385   5.899   6.753
 8946POPC   C3A50837   7.457   5.866   7.053
 8946POPC   C4A50838   7.374   5.869   7.353
 8946POPC   C1B50839   7.559   5.669   6.453
 8946POPC   C2B50840   7.575   5.636   6.753
 8946POPC   C3B50841   7.517   5.696   7.053
 8946POPC   C4B50842   7.509   5.648   7.353
 8947POPC   NC350843  32.232  24.511   5.553
 8947POPC   PO450844  32.292  24.517   5.853
 8947POPC   GL150845  32.216  24.508   6.153
 8947POPC   GL250846  32.395  24.423   6.153
 8947POPC   C1A50847  32.250  24.526   6.453
 8947POPC   D2A50848  32.212  24.534   6.753
 8947POPC   C3A50849  32.218  24.490   7.053
 8947POPC   C4A50850  32.297  24.455   7.353
 8947POPC   C1B50851  32.485  24.354   6.453
 8947POPC   C2B50852  32.483  24.404   6.753
 8947POPC   C3B50853  32.505  24.336   7.053
 8947POPC   C4B50854  32.443  24.346   7.353
 8948POPC   NC350855   5.909   1.984   5.553
 8948POPC   PO450856   5.826   2.031   5.853
 8948POPC   GL150857   5.853   2.033   6.153
 8948POPC   GL250858   5.741   1.929   6.153
 8948POPC   C1A50859   5.862   2.014   6.453
 8948POPC   D2A50860   5.845   1.986   6.753
 8948POPC   C3A50861   5.885   1.945   7.053
 8948POPC   C4A50862   5.918   1.948   7.353
 8948POPC   C1B50863   5.671   1.894   6.453
 8948POPC   C2B50864   5.680   1.958   6.753
 8948POPC   C3B50865   5.618   1.875   7.053
 8948POPC   C4B50866   5.609   1.906   7.353
 8949POPC   NC350867  11.346  22.897   5.553
 8949POPC   PO450868  11.310  22.945   5.853
 8949POPC   GL150869  11.316  22.920   6.153
 8949POPC   GL250870  11.404  22.910   6.153
 8949POPC   C1A50871  11.275  22.919   6.453
 8949POPC   D2A50872  11.265  22.955   6.753
 8949POPC   C3A50873  11.339  22.905   7.053
 8949POPC   C4A50874  11.305  22.976   7.353
 8949POPC   C1B50875  11.533  22.935   6.453
 8949POPC   C2B50876  11.514  22.977   6.753
 8949POPC   C3B50877  11.536  22.916   7.053
 8949POPC   C4B50878  11.588  22.938   7.353
 8950POPC   NC350879  33.830  40.823   5.553
 8950POPC   PO450880  33.806  40.808   5.853
 8950POPC   GL150881  33.766  40.793   6.153
 8950POPC   GL250882  33.815  40.652   6.153
 8950POPC   C1A50883  33.764  40.757   6.453
 8950POPC   D2A50884  33.804  40.796   6.753
 8950POPC   C3A50885  33.757  40.762   7.053
 8950POPC   C4A50886  33.810  40.803   7.353
 8950POPC   C1B50887  33.789  40.486   6.453
 8950POPC   C2B50888  33.793  40.525   6.753
 8950POPC   C3B50889  33.734  40.507   7.053
 8950POPC   C4B50890  33.811  40.534   7.353
 8951POPC   NC350891  41.512  23.745   5.553
 8951POPC   PO450892  41.521  23.682   5.853
 8951POPC   GL150893  41.598  23.715   6.153
 8951POPC   GL250894  41.592  23.645   6.153
 8951POPC   C1A50895  41.561  23.666   6.453
 8951POPC   D2A50896  41.552  23.735   6.753
 8951POPC   C3A50897  41.518  23.719   7.053
 8951POPC   C4A50898  41.554  23.720   7.353
 8951POPC   C1B50899  41.673  23.499   6.453
 8951POPC   C2B50900  41.657  23.465   6.753
 8951POPC   C3B50901  41.663  23.544   7.053
 8951POPC   C4B50902  41.715  23.500   7.353
 8952POPC   NC350903  43.127   5.052   5.553
 8952POPC   PO450904  43.115   5.109   5.853
 8952POPC   GL150905  43.125   5.095   6.153
 8952POPC   GL250906  43.136   5.222   6.153
 8952POPC   C1A50907  43.156   5.131   6.453
 8952POPC   D2A50908  43.153   5.057   6.753
 8952POPC   C3A50909  43.137   5.112   7.053
 8952POPC   C4A50910  43.128   5.095   7.353
 8952POPC   C1B50911  43.098   5.374   6.453
 8952POPC   C2B50912  43.095   5.360   6.753
 8952POPC   C3B50913  43.133   5.322   7.053
 8952POPC   C4B50914  43.095   5.308   7.353
 8953POPC   NC350915   5.911  43.897   5.553
 8953POPC   PO450916   5.863  43.880   5.853
 8953POPC   GL150917   5.873  43.843   6.153
 8953POPC   GL250918   5.862  43.982   6.153
 8953POPC   C1A50919   5.863  43.896   6.453
 8953POPC   D2A50920   5.914  43.853   6.753
 8953POPC   C3A50921   5.838  43.928   7.053
 8953POPC   C4A50922   5.848  43.873   7.353
 8953POPC   C1B50923   5.925  44.148   6.453
 8953POPC   C2B50924   5.915  44.093   6.753
 8953POPC   C3B50925   5.961  44.134   7.053
 8953POPC   C4B50926   5.950  44.165   7.353
 8954POPC   NC350927  23.696   7.435   5.553
 8954POPC   PO450928  23.668   7.385   5.853
 8954POPC   GL150929  23.736   7.435   6.153
 8954POPC   GL250930  23.738   7.347   6.153
 8954POPC   C1A50931  23.679   7.422   6.453
 8954POPC   D2A50932  23.743   7.382   6.753
 8954POPC   C3A50933  23.759   7.454   7.053
 8954POPC   C4A50934  23.711   7.425   7.353
 8954POPC   C1B50935  23.853   7.161   6.453
 8954POPC   C2B50936  23.834   7.244   6.753
 8954POPC   C3B50937  23.849   7.236   7.053
 8954POPC   C4B50938  23.810   7.161   7.353
 8955POPC   NC350939  29.116  19.854   5.553
 8955POPC   PO450940  29.166  19.866   5.853
 8955POPC   GL150941  29.148  19.791   6.153
 8955POPC   GL250942  29.065  19.864   6.153
 8955POPC   C1A50943  29.142  19.850   6.453
 8955POPC   D2A50944  29.140  19.884   6.753
 8955POPC   C3A50945  29.101  19.860   7.053
 8955POPC   C4A50946  29.150  19.803   7.353
 8955POPC   C1B50947  28.939  19.790   6.453
 8955POPC   C2B50948  28.901  19.823   6.753
 8955POPC   C3B50949  28.858  19.833   7.053
 8955POPC   C4B50950  28.913  19.826   7.353
 8956POPC   NC350951   1.178  43.925   5.553
 8956POPC   PO450952   1.263  43.850   5.853
 8956POPC   GL150953   1.173  43.875   6.153
 8956POPC   GL250954   1.241  43.788   6.153
 8956POPC   C1A50955   1.172  43.846   6.453
 8956POPC   D2A50956   1.249  43.906   6.753
 8956POPC   C3A50957   1.256  43.909   7.053
 8956POPC   C4A50958   1.220  43.915   7.353
 8956POPC   C1B50959   1.348  43.655   6.453
 8956POPC   C2B50960   1.284  43.669   6.753
 8956POPC   C3B50961   1.299  43.619   7.053
 8956POPC   C4B50962   1.266  43.695   7.353
 8957POPC   NC350963   8.232  12.840   5.553
 8957POPC   PO450964   8.235  12.891   5.853
 8957POPC   GL150965   8.232  12.834   6.153
 8957POPC   GL250966   8.057  12.789   6.153
 8957POPC   C1A50967   8.161  12.849   6.453
 8957POPC   D2A50968   8.242  12.869   6.753
 8957POPC   C3A50969   8.235  12.887   7.053
 8957POPC   C4A50970   8.180  12.822   7.353
 8957POPC   C1B50971   7.996  12.797   6.453
 8957POPC   C2B50972   7.939  12.795   6.753
 8957POPC   C3B50973   7.976  12.822   7.053
 8957POPC   C4B50974   7.963  12.758   7.353
 8958POPC   NC350975   3.587  44.694   5.553
 8958POPC   PO450976   3.552  44.614   5.853
 8958POPC   GL150977   3.544  44.645   6.153
 8958POPC   GL250978   3.433  44.683   6.153
 8958POPC   C1A50979   3.582  44.706   6.453
 8958POPC   D2A50980   3.498  44.653   6.753
 8958POPC   C3A50981   3.519  44.700   7.053
 8958POPC   C4A50982   3.543  44.655   7.353
 8958POPC   C1B50983   3.287  44.808   6.453
 8958POPC   C2B50984   3.277  44.730   6.753
 8958POPC   C3B50985   3.337  44.747   7.053
 8958POPC   C4B50986   3.296  44.752   7.353
 8959POPC   NC350987   1.224  22.186   5.553
 8959POPC   PO450988   1.244  22.126   5.853
 8959POPC   GL150989   1.247  22.125   6.153
 8959POPC   GL250990   1.347  22.105   6.153
 8959POPC   C1A50991   1.245  22.149   6.453
 8959POPC   D2A50992   1.169  22.188   6.753
 8959POPC   C3A50993   1.195  22.138   7.053
 8959POPC   C4A50994   1.264  22.163   7.353
 8959POPC   C1B50995   1.488  22.158   6.453
 8959POPC   C2B50996   1.415  22.145   6.753
 8959POPC   C3B50997   1.430  22.122   7.053
 8959POPC   C4B50998   1.500  22.119   7.353
 8960POPC   NC350999   3.570  16.729   5.553
 8960POPC   PO451000   3.545  16.723   5.853
 8960POPC   GL151001   3.527  16.750   6.153
 8960POPC   GL251002   3.455  16.710   6.153
 8960POPC   C1A51003   3.502  16.685   6.453
 8960POPC   D2A51004   3.571  16.695   6.753
 8960POPC   C3A51005   3.554  16.697   7.053
 8960POPC   C4A51006   3.541  16.757   7.353
 8960POPC   C1B51007   3.303  16.695   6.453
 8960POPC   C2B51008   3.329  16.651   6.753
 8960POPC   C3B51009   3.290  16.626   7.053
 8960POPC   C4B51010   3.317  16.650   7.353
 8961POPC   NC351011  38.408   8.923   5.553
 8961POPC   PO451012  38.437   8.940   5.853
 8961POPC   GL151013  38.461   9.007   6.153
 8961POPC   GL251014  38.299   9.059   6.153
 8961POPC   C1A51015  38.449   8.993   6.453
 8961POPC   D2A51016  38.472   8.935   6.753
 8961POPC   C3A51017  38.485   9.019   7.053
 8961POPC   C4A51018  38.446   8.958   7.353
 8961POPC   C1B51019  38.235   9.087   6.453
 8961POPC   C2B51020  38.281   9.136   6.753
 8961POPC   C3B51021  38.226   9.125   7.053
 8961POPC   C4B51022  38.241   9.088   7.353
 8962POPC   NC351023   6.601  37.663   5.553
 8962POPC   PO451024   6.678  37.635   5.853
 8962POPC   GL151025   6.614  37.643   6.153
 8962POPC   GL251026   6.757  37.647   6.153
 8962POPC   C1A51027   6.678  37.684   6.453
 8962POPC   D2A51028   6.625  37.645   6.753
 8962POPC   C3A51029   6.649  37.675   7.053
 8962POPC   C4A51030   6.653  37.698   7.353
 8962POPC   C1B51031   6.863  37.543   6.453
 8962POPC   C2B51032   6.869  37.545   6.753
 8962POPC   C3B51033   6.902  37.624   7.053
 8962POPC   C4B51034   6.920  37.581   7.353
 8963POPC   NC351035  22.199  29.176   5.553
 8963POPC   PO451036  22.210  29.100   5.853
 8963POPC   GL151037  22.161  29.159   6.153
 8963POPC   GL251038  22.327  29.175   6.153
 8963POPC   C1A51039  22.169  29.151   6.453
 8963POPC   D2A51040  22.191  29.132   6.753
 8963POPC   C3A51041  22.131  29.161   7.053
 8963POPC   C4A51042  22.136  29.165   7.353
 8963POPC   C1B51043  22.432  29.240   6.453
 8963POPC   C2B51044  22.385  29.233   6.753
 8963POPC   C3B51045  22.383  29.198   7.053
 8963POPC   C4B51046  22.369  29.164   7.353
 8964POPC   NC351047  20.623  24.457   5.553
 8964POPC   PO451048  20.589  24.480   5.853
 8964POPC   GL151049  20.642  24.461   6.153
 8964POPC   GL251050  20.745  24.578   6.153
 8964POPC   C1A51051  20.655  24.465   6.453
 8964POPC   D2A51052  20.592  24.538   6.753
 8964POPC   C3A51053  20.647  24.511   7.053
 8964POPC   C4A51054  20.616  24.444   7.353
 8964POPC   C1B51055  20.872  24.564   6.453
 8964POPC   C2B51056  20.789  24.556   6.753
 8964POPC   C3B51057  20.860  24.605   7.053
 8964POPC   C4B51058  20.827  24.607   7.353
 8965POPC   NC351059   0.471  15.925   5.553
 8965POPC   PO451060   0.420  15.918   5.853
 8965POPC   GL151061   0.441  15.949   6.153
 8965POPC   GL251062   0.373  16.108   6.153
 8965POPC   C1A51063   0.399  15.954   6.453
 8965POPC   D2A51064   0.435  15.990   6.753
 8965POPC   C3A51065   0.430  15.950   7.053
 8965POPC   C4A51066   0.453  15.960   7.353
 8965POPC   C1B51067   0.386  16.160   6.453
 8965POPC   C2B51068   0.384  16.188   6.753
 8965POPC   C3B51069   0.374  16.228   7.053
 8965POPC   C4B51070   0.367  16.173   7.353
 8966POPC   NC351071  44.660  29.876   5.553
 8966POPC   PO451072  44.666  29.883   5.853
 8966POPC   GL151073  44.690  29.888   6.153
 8966POPC   GL251074  44.783  30.012   6.153
 8966POPC   C1A51075  44.674  29.946   6.453
 8966POPC   D2A51076  44.644  29.956   6.753
 8966POPC   C3A51077  44.666  29.876   7.053
 8966POPC   C4A51078  44.691  29.907   7.353
 8966POPC   C1B51079  44.886  30.132   6.453
 8966POPC   C2B51080  44.851  30.048   6.753
 8966POPC   C3B51081  44.816  30.086   7.053
 8966POPC   C4B51082  44.876  30.116   7.353
 8967POPC   NC351083  14.403   9.745   5.553
 8967POPC   PO451084  14.452   9.717   5.853
 8967POPC   GL151085  14.409   9.706   6.153
 8967POPC   GL251086  14.499   9.652   6.153
 8967POPC   C1A51087  14.419   9.779   6.453
 8967POPC   D2A51088  14.366   9.783   6.753
 8967POPC   C3A51089  14.451   9.725   7.053
 8967POPC   C4A51090  14.393   9.757   7.353
 8967POPC   C1B51091  14.596   9.563   6.453
 8967POPC   C2B51092  14.532   9.552   6.753
 8967POPC   C3B51093  14.536   9.601   7.053
 8967POPC   C4B51094  14.576   9.600   7.353
 8968POPC   NC351095  25.260  35.376   5.553
 8968POPC   PO451096  25.267  35.342   5.853
 8968POPC   GL151097  25.252  35.357   6.153
 8968POPC   GL251098  25.272  35.444   6.153
 8968POPC   C1A51099  25.262  35.382   6.453
 8968POPC   D2A51100  25.293  35.327   6.753
 8968POPC   C3A51101  25.271  35.348   7.053
 8968POPC   C4A51102  25.253  35.348   7.353
 8968POPC   C1B51103  25.352  35.644   6.453
 8968POPC   C2B51104  25.326  35.590   6.753
 8968POPC   C3B51105  25.291  35.549   7.053
 8968POPC   C4B51106  25.355  35.610   7.353
 8969POPC   NC351107  12.854  16.727   5.553
 8969POPC   PO451108  12.901  16.694   5.853
 8969POPC   GL151109  12.808  16.702   6.153
 8969POPC   GL251110  12.958  16.681   6.153
 8969POPC   C1A51111  12.858  16.732   6.453
 8969POPC   D2A51112  12.886  16.715   6.753
 8969POPC   C3A51113  12.877  16.731   7.053
 8969POPC   C4A51114  12.900  16.704   7.353
 8969POPC   C1B51115  13.057  16.590   6.453
 8969POPC   C2B51116  13.090  16.569   6.753
 8969POPC   C3B51117  13.057  16.620   7.053
 8969POPC   C4B51118  13.099  16.588   7.353
 8970POPC   NC351119  20.571  44.682   5.553
 8970POPC   PO451120  20.635  44.671   5.853
 8970POPC   GL151121  20.600  44.622   6.153
 8970POPC   GL251122  20.701  44.679   6.153
 8970POPC   C1A51123  20.640  44.644   6.453
 8970POPC   D2A51124  20.620  44.671   6.753
 8970POPC   C3A51125  20.573  44.630   7.053
 8970POPC   C4A51126  20.637  44.673   7.353
 8970POPC   C1B51127  20.837  44.644   6.453
 8970POPC   C2B51128  20.837  44.661   6.753
 8970POPC   C3B51129  20.861  44.643   7.053
 8970POPC   C4B51130  20.873  44.703   7.353
 8971POPC   NC351131  38.443  26.785   5.553
 8971POPC   PO451132  38.473  26.824   5.853
 8971POPC   GL151133  38.482  26.791   6.153
 8971POPC   GL251134  38.555  26.909   6.153
 8971POPC   C1A51135  38.418  26.855   6.453
 8971POPC   D2A51136  38.493  26.772   6.753
 8971POPC   C3A51137  38.433  26.821   7.053
 8971POPC   C4A51138  38.425  26.814   7.353
 8971POPC   C1B51139  38.641  26.908   6.453
 8971POPC   C2B51140  38.697  26.946   6.753
 8971POPC   C3B51141  38.708  26.914   7.053
 8971POPC   C4B51142  38.621  26.947   7.353
 8972POPC   NC351143  23.696  18.296   5.553
 8972POPC   PO451144  23.764  18.289   5.853
 8972POPC   GL151145  23.710  18.295   6.153
 8972POPC   GL251146  23.703  18.141   6.153
 8972POPC   C1A51147  23.726  18.311   6.453
 8972POPC   D2A51148  23.735  18.259   6.753
 8972POPC   C3A51149  23.688  18.245   7.053
 8972POPC   C4A51150  23.703  18.266   7.353
 8972POPC   C1B51151  23.561  18.010   6.453
 8972POPC   C2B51152  23.567  18.018   6.753
 8972POPC   C3B51153  23.638  18.107   7.053
 8972POPC   C4B51154  23.569  18.053   7.353
 8973POPC   NC351155  39.966  12.092   5.553
 8973POPC   PO451156  39.971  12.068   5.853
 8973POPC   GL151157  39.958  12.084   6.153
 8973POPC   GL251158  40.111  12.064   6.153
 8973POPC   C1A51159  39.970  12.090   6.453
 8973POPC   D2A51160  39.995  12.048   6.753
 8973POPC   C3A51161  40.034  12.114   7.053
 8973POPC   C4A51162  39.964  12.094   7.353
 8973POPC   C1B51163  40.300  12.126   6.453
 8973POPC   C2B51164  40.221  12.150   6.753
 8973POPC   C3B51165  40.270  12.092   7.053
 8973POPC   C4B51166  40.248  12.122   7.353
 8974POPC   NC351167  32.243  43.127   5.553
 8974POPC   PO451168  32.259  43.071   5.853
 8974POPC   GL151169  32.226  43.077   6.153
 8974POPC   GL251170  32.287  43.008   6.153
 8974POPC   C1A51171  32.275  43.092   6.453
 8974POPC   D2A51172  32.293  43.085   6.753
 8974POPC   C3A51173  32.287  43.139   7.053
 8974POPC   C4A51174  32.290  43.077   7.353
 8974POPC   C1B51175  32.276  42.893   6.453
 8974POPC   C2B51176  32.297  42.871   6.753
 8974POPC   C3B51177  32.289  42.885   7.053
 8974POPC   C4B51178  32.328  42.883   7.353
 8975POPC   NC351179  33.837  29.901   5.553
 8975POPC   PO451180  33.850  29.914   5.853
 8975POPC   GL151181  33.757  29.915   6.153
 8975POPC   GL251182  33.659  29.930   6.153
 8975POPC   C1A51183  33.804  29.935   6.453
 8975POPC   D2A51184  33.752  29.931   6.753
 8975POPC   C3A51185  33.803  29.966   7.053
 8975POPC   C4A51186  33.770  29.881   7.353
 8975POPC   C1B51187  33.562  29.963   6.453
 8975POPC   C2B51188  33.588  29.945   6.753
 8975POPC   C3B51189  33.566  29.964   7.053
 8975POPC   C4B51190  33.605  29.969   7.353
 8976POPC   NC351191   2.745   5.115   5.553
 8976POPC   PO451192   2.795   5.101   5.853
 8976POPC   GL151193   2.778   5.075   6.153
 8976POPC   GL251194   2.845   5.007   6.153
 8976POPC   C1A51195   2.779   5.116   6.453
 8976POPC   D2A51196   2.753   5.082   6.753
 8976POPC   C3A51197   2.813   5.095   7.053
 8976POPC   C4A51198   2.781   5.141   7.353
 8976POPC   C1B51199   2.907   4.862   6.453
 8976POPC   C2B51200   2.935   4.893   6.753
 8976POPC   C3B51201   2.904   4.907   7.053
 8976POPC   C4B51202   2.890   4.841   7.353
 8977POPC   NC351203  19.808  32.280   5.553
 8977POPC   PO451204  19.791  32.207   5.853
 8977POPC   GL151205  19.877  32.214   6.153
 8977POPC   GL251206  19.943  32.280   6.153
 8977POPC   C1A51207  19.816  32.201   6.453
 8977POPC   D2A51208  19.854  32.276   6.753
 8977POPC   C3A51209  19.803  32.263   7.053
 8977POPC   C4A51210  19.814  32.206   7.353
 8977POPC   C1B51211  20.068  32.222   6.453
 8977POPC   C2B51212  20.102  32.245   6.753
 8977POPC   C3B51213  20.085  32.269   7.053
 8977POPC   C4B51214  20.127  32.270   7.353
 8978POPC   NC351215  33.756  30.738   5.553
 8978POPC   PO451216  33.774  30.726   5.853
 8978POPC   GL151217  33.762  30.694   6.153
 8978POPC   GL251218  33.767  30.554   6.153
 8978POPC   C1A51219  33.781  30.668   6.453
 8978POPC   D2A51220  33.804  30.651   6.753
 8978POPC   C3A51221  33.801  30.746   7.053
 8978POPC   C4A51222  33.802  30.704   7.353
 8978POPC   C1B51223  33.660  30.499   6.453
 8978POPC   C2B51224  33.683  30.525   6.753
 8978POPC   C3B51225  33.694  30.511   7.053
 8978POPC   C4B51226  33.659  30.551   7.353
 8979POPC   NC351227  37.634  36.129   5.553
 8979POPC   PO451228  37.702  36.119   5.853
 8979POPC   GL151229  37.652  36.137   6.153
 8979POPC   GL251230  37.824  36.042   6.153
 8979POPC   C1A51231  37.670  36.119   6.453
 8979POPC   D2A51232  37.694  36.127   6.753
 8979POPC   C3A51233  37.711  36.147   7.053
 8979POPC   C4A51234  37.692  36.099   7.353
 8979POPC   C1B51235  37.864  35.957   6.453
 8979POPC   C2B51236  37.857  36.029   6.753
 8979POPC   C3B51237  37.921  35.949   7.053
 8979POPC   C4B51238  37.856  35.980   7.353
 8980POPC   NC351239   4.268  13.633   5.553
 8980POPC   PO451240   4.302  13.596   5.853
 8980POPC   GL151241   4.362  13.578   6.153
 8980POPC   GL251242   4.279  13.713   6.153
 8980POPC   C1A51243   4.346  13.653   6.453
 8980POPC   D2A51244   4.295  13.615   6.753
 8980POPC   C3A51245   4.312  13.654   7.053
 8980POPC   C4A51246   4.317  13.601   7.353
 8980POPC   C1B51247   4.136  13.800   6.453
 8980POPC   C2B51248   4.184  13.868   6.753
 8980POPC   C3B51249   4.142  13.877   7.053
 8980POPC   C4B51250   4.200  13.806   7.353
 8981POPC   NC351251   5.059  39.958   5.553
 8981POPC   PO451252   5.079  40.017   5.853
 8981POPC   GL151253   5.058  40.008   6.153
 8981POPC   GL251254   5.077  40.158   6.153
 8981POPC   C1A51255   5.110  40.054   6.453
 8981POPC   D2A51256   5.122  39.974   6.753
 8981POPC   C3A51257   5.131  39.965   7.053
 8981POPC   C4A51258   5.065  40.028   7.353
 8981POPC   C1B51259   5.084  40.261   6.453
 8981POPC   C2B51260   5.086  40.289   6.753
 8981POPC   C3B51261   5.111  40.238   7.053
 8981POPC   C4B51262   5.048  40.264   7.353
 8982POPC   NC351263   1.238  25.240   5.553
 8982POPC   PO451264   1.246  25.309   5.853
 8982POPC   GL151265   1.183  25.304   6.153
 8982POPC   GL251266   1.202  25.348   6.153
 8982POPC   C1A51267   1.231  25.286   6.453
 8982POPC   D2A51268   1.180  25.302   6.753
 8982POPC   C3A51269   1.209  25.282   7.053
 8982POPC   C4A51270   1.178  25.234   7.353
 8982POPC   C1B51271   1.194  25.533   6.453
 8982POPC   C2B51272   1.163  25.558   6.753
 8982POPC   C3B51273   1.149  25.507   7.053
 8982POPC   C4B51274   1.245  25.510   7.353
 8983POPC   NC351275   5.135  31.491   5.553
 8983POPC   PO451276   5.106  31.438   5.853
 8983POPC   GL151277   5.095  31.521   6.153
 8983POPC   GL251278   5.019  31.580   6.153
 8983POPC   C1A51279   5.084  31.469   6.453
 8983POPC   D2A51280   5.110  31.471   6.753
 8983POPC   C3A51281   5.098  31.425   7.053
 8983POPC   C4A51282   5.053  31.496   7.353
 8983POPC   C1B51283   5.074  31.728   6.453
 8983POPC   C2B51284   5.034  31.757   6.753
 8983POPC   C3B51285   5.034  31.765   7.053
 8983POPC   C4B51286   5.040  31.733   7.353
 8984POPC   NC351287  36.086   9.762   5.553
 8984POPC   PO451288  36.169   9.702   5.853
 8984POPC   GL151289  36.158   9.723   6.153
 8984POPC   GL251290  36.210   9.671   6.153
 8984POPC   C1A51291  36.125   9.781   6.453
 8984POPC   D2A51292  36.167   9.731   6.753
 8984POPC   C3A51293  36.103   9.756   7.053
 8984POPC   C4A51294  36.164   9.783   7.353
 8984POPC   C1B51295  36.340   9.559   6.453
 8984POPC   C2B51296  36.277   9.601   6.753
 8984POPC   C3B51297  36.265   9.578   7.053
 8984POPC   C4B51298  36.261   9.526   7.353
 8985POPC   NC351299   7.454  10.538   5.553
 8985POPC   PO451300   7.374  10.554   5.853
 8985POPC   GL151301   7.399  10.572   6.153
 8985POPC   GL251302   7.285  10.483   6.153
 8985POPC   C1A51303   7.375  10.530   6.453
 8985POPC   D2A51304   7.375  10.524   6.753
 8985POPC   C3A51305   7.461  10.572   7.053
 8985POPC   C4A51306   7.372  10.505   7.353
 8985POPC   C1B51307   7.218  10.465   6.453
 8985POPC   C2B51308   7.137  10.488   6.753
 8985POPC   C3B51309   7.142  10.449   7.053
 8985POPC   C4B51310   7.186  10.466   7.353
 8986POPC   NC351311   3.492   3.537   5.553
 8986POPC   PO451312   3.539   3.538   5.853
 8986POPC   GL151313   3.562   3.587   6.153
 8986POPC   GL251314   3.443   3.526   6.153
 8986POPC   C1A51315   3.512   3.535   6.453
 8986POPC   D2A51316   3.587   3.590   6.753
 8986POPC   C3A51317   3.492   3.555   7.053
 8986POPC   C4A51318   3.590   3.558   7.353
 8986POPC   C1B51319   3.298   3.473   6.453
 8986POPC   C2B51320   3.346   3.466   6.753
 8986POPC   C3B51321   3.322   3.526   7.053
 8986POPC   C4B51322   3.322   3.437   7.353
 8987POPC   NC351323  33.051  15.133   5.553
 8987POPC   PO451324  32.992  15.211   5.853
 8987POPC   GL151325  32.982  15.229   6.153
 8987POPC   GL251326  33.198  15.207   6.153
 8987POPC   C1A51327  32.990  15.207   6.453
 8987POPC   D2A51328  33.017  15.196   6.753
 8987POPC   C3A51329  33.047  15.203   7.053
 8987POPC   C4A51330  33.034  15.172   7.353
 8987POPC   C1B51331  33.272  15.233   6.453
 8987POPC   C2B51332  33.290  15.241   6.753
 8987POPC   C3B51333  33.253  15.188   7.053
 8987POPC   C4B51334  33.265  15.235   7.353
 8988POPC   NC351335  29.189   0.480   5.553
 8988POPC   PO451336  29.164   0.476   5.853
 8988POPC   GL151337  29.140   0.447   6.153
 8988POPC   GL251338  29.138   0.347   6.153
 8988POPC   C1A51339  29.130   0.404   6.453
 8988POPC   D2A51340  29.109   0.390   6.753
 8988POPC   C3A51341  29.151   0.425   7.053
 8988POPC   C4A51342  29.142   0.409   7.353
 8988POPC   C1B51343  29.109   0.204   6.453
 8988POPC   C2B51344  29.071   0.188   6.753
 8988POPC   C3B51345  29.137   0.149   7.053
 8988POPC   C4B51346  29.081   0.163   7.353
 8989POPC   NC351347  40.057   1.230   5.553
 8989POPC   PO451348  40.043   1.247   5.853
 8989POPC   GL151349  40.034   1.259   6.153
 8989POPC   GL251350  39.894   1.173   6.153
 8989POPC   C1A51351  40.021   1.202   6.453
 8989POPC   D2A51352  40.046   1.230   6.753
 8989POPC   C3A51353  39.960   1.200   7.053
 8989POPC   C4A51354  39.959   1.207   7.353
 8989POPC   C1B51355  39.817   1.137   6.453
 8989POPC   C2B51356  39.785   1.134   6.753
 8989POPC   C3B51357  39.751   1.098   7.053
 8989POPC   C4B51358  39.812   1.125   7.353
 8990POPC   NC351359  24.515  38.412   5.553
 8990POPC   PO451360  24.523  38.496   5.853
 8990POPC   GL151361  24.508  38.441   6.153
 8990POPC   GL251362  24.553  38.542   6.153
 8990POPC   C1A51363  24.538  38.460   6.453
 8990POPC   D2A51364  24.469  38.446   6.753
 8990POPC   C3A51365  24.469  38.500   7.053
 8990POPC   C4A51366  24.478  38.461   7.353
 8990POPC   C1B51367  24.552  38.657   6.453
 8990POPC   C2B51368  24.568  38.743   6.753
 8990POPC   C3B51369  24.517  38.699   7.053
 8990POPC   C4B51370  24.568  38.722   7.353
 8991POPC   NC351371  20.631  29.176   5.553
 8991POPC   PO451372  20.645  29.143   5.853
 8991POPC   GL151373  20.612  29.163   6.153
 8991POPC   GL251374  20.492  29.157   6.153
 8991POPC   C1A51375  20.587  29.159   6.453
 8991POPC   D2A51376  20.595  29.146   6.753
 8991POPC   C3A51377  20.589  29.126   7.053
 8991POPC   C4A51378  20.599  29.164   7.353
 8991POPC   C1B51379  20.343  29.039   6.453
 8991POPC   C2B51380  20.413  29.043   6.753
 8991POPC   C3B51381  20.397  29.120   7.053
 8991POPC   C4B51382  20.392  29.051   7.353
 8992POPC   NC351383   2.035  10.568   5.553
 8992POPC   PO451384   1.941  10.507   5.853
 8992POPC   GL151385   1.967  10.562   6.153
 8992POPC   GL251386   2.049  10.610   6.153
 8992POPC   C1A51387   2.027  10.502   6.453
 8992POPC   D2A51388   1.997  10.574   6.753
 8992POPC   C3A51389   1.940  10.567   7.053
 8992POPC   C4A51390   1.964  10.571   7.353
 8992POPC   C1B51391   2.184  10.733   6.453
 8992POPC   C2B51392   2.170  10.752   6.753
 8992POPC   C3B51393   2.135  10.739   7.053
 8992POPC   C4B51394   2.141  10.683   7.353
 8993POPC   NC351395   1.941  17.498   5.553
 8993POPC   PO451396   2.034  17.485   5.853
 8993POPC   GL151397   2.030  17.463   6.153
 8993POPC   GL251398   2.115  17.520   6.153
 8993POPC   C1A51399   1.942  17.554   6.453
 8993POPC   D2A51400   1.969  17.535   6.753
 8993POPC   C3A51401   1.991  17.479   7.053
 8993POPC   C4A51402   1.991  17.534   7.353
 8993POPC   C1B51403   2.242  17.441   6.453
 8993POPC   C2B51404   2.258  17.436   6.753
 8993POPC   C3B51405   2.268  17.467   7.053
 8993POPC   C4B51406   2.246  17.436   7.353
 8994POPC   NC351407  22.985  18.318   5.553
 8994POPC   PO451408  22.909  18.276   5.853
 8994POPC   GL151409  22.965  18.311   6.153
 8994POPC   GL251410  22.928  18.378   6.153
 8994POPC   C1A51411  22.957  18.308   6.453
 8994POPC   D2A51412  22.976  18.240   6.753
 8994POPC   C3A51413  22.919  18.313   7.053
 8994POPC   C4A51414  22.962  18.328   7.353
 8994POPC   C1B51415  22.968  18.535   6.453
 8994POPC   C2B51416  22.984  18.477   6.753
 8994POPC   C3B51417  22.975  18.508   7.053
 8994POPC   C4B51418  22.972  18.568   7.353
 8995POPC   NC351419  11.319  14.398   5.553
 8995POPC   PO451420  11.325  14.393   5.853
 8995POPC   GL151421  11.274  14.376   6.153
 8995POPC   GL251422  11.389  14.342   6.153
 8995POPC   C1A51423  11.254  14.433   6.453
 8995POPC   D2A51424  11.345  14.385   6.753
 8995POPC   C3A51425  11.322  14.431   7.053
 8995POPC   C4A51426  11.307  14.375   7.353
 8995POPC   C1B51427  11.476  14.334   6.453
 8995POPC   C2B51428  11.504  14.330   6.753
 8995POPC   C3B51429  11.500  14.260   7.053
 8995POPC   C4B51430  11.567  14.293   7.353
 8996POPC   NC351431   4.273   0.407   5.553
 8996POPC   PO451432   4.362   0.466   5.853
 8996POPC   GL151433   4.292   0.445   6.153
 8996POPC   GL251434   4.315   0.298   6.153
 8996POPC   C1A51435   4.275   0.451   6.453
 8996POPC   D2A51436   4.311   0.474   6.753
 8996POPC   C3A51437   4.344   0.482   7.053
 8996POPC   C4A51438   4.306   0.455   7.353
 8996POPC   C1B51439   4.272   0.193   6.453
 8996POPC   C2B51440   4.254   0.144   6.753
 8996POPC   C3B51441   4.216   0.155   7.053
 8996POPC   C4B51442   4.293   0.145   7.353
 8997POPC   NC351443  14.382   4.303   5.553
 8997POPC   PO451444  14.449   4.347   5.853
 8997POPC   GL151445  14.446   4.344   6.153
 8997POPC   GL251446  14.408   4.441   6.153
 8997POPC   C1A51447  14.400   4.345   6.453
 8997POPC   D2A51448  14.414   4.288   6.753
 8997POPC   C3A51449  14.438   4.330   7.053
 8997POPC   C4A51450  14.409   4.324   7.353
 8997POPC   C1B51451  14.408   4.542   6.453
 8997POPC   C2B51452  14.471   4.522   6.753
 8997POPC   C3B51453  14.432   4.599   7.053
 8997POPC   C4B51454  14.446   4.549   7.353
 8998POPC   NC351455  27.627  44.700   5.553
 8998POPC   PO451456  27.552  44.618   5.853
 8998POPC   GL151457  27.559  44.626   6.153
 8998POPC   GL251458  27.543  44.554   6.153
 8998POPC   C1A51459  27.570  44.675   6.453
 8998POPC   D2A51460  27.612  44.639   6.753
 8998POPC   C3A51461  27.553  44.676   7.053
 8998POPC   C4A51462  27.603  44.637   7.353
 8998POPC   C1B51463  27.419  44.498   6.453
 8998POPC   C2B51464  27.449  44.461   6.753
 8998POPC   C3B51465  27.430  44.490   7.053
 8998POPC   C4B51466  27.458  44.453   7.353
 8999POPC   NC351467  40.025  36.149   5.553
 8999POPC   PO451468  40.050  36.139   5.853
 8999POPC   GL151469  39.989  36.131   6.153
 8999POPC   GL251470  39.880  36.103   6.153
 8999POPC   C1A51471  39.965  36.128   6.453
 8999POPC   D2A51472  39.997  36.165   6.753
 8999POPC   C3A51473  39.961  36.135   7.053
 8999POPC   C4A51474  40.024  36.134   7.353
 8999POPC   C1B51475  39.772  36.056   6.453
 8999POPC   C2B51476  39.804  36.146   6.753
 8999POPC   C3B51477  39.721  36.064   7.053
 8999POPC   C4B51478  39.727  36.102   7.353
 9000POPC   NC351479  19.076   8.210   5.553
 9000POPC   PO451480  19.053   8.233   5.853
 9000POPC   GL151481  19.053   8.222   6.153
 9000POPC   GL251482  18.929   8.261   6.153
 9000POPC   C1A51483  19.029   8.182   6.453
 9000POPC   D2A51484  19.025   8.223   6.753
 9000POPC   C3A51485  19.088   8.234   7.053
 9000POPC   C4A51486  19.100   8.239   7.353
 9000POPC   C1B51487  18.832   8.365   6.453
 9000POPC   C2B51488  18.892   8.309   6.753
 9000POPC   C3B51489  18.857   8.321   7.053
 9000POPC   C4B51490  18.887   8.387   7.353
 9001POPC   NC351491  21.381  29.955   5.553
 9001POPC   PO451492  21.375  29.896   5.853
 9001POPC   GL151493  21.435  29.882   6.153
 9001POPC   GL251494  21.489  29.853   6.153
 9001POPC   C1A51495  21.337  29.949   6.453
 9001POPC   D2A51496  21.390  29.915   6.753
 9001POPC   C3A51497  21.338  29.951   7.053
 9001POPC   C4A51498  21.375  29.913   7.353
 9001POPC   C1B51499  21.652  29.850   6.453
 9001POPC   C2B51500  21.655  29.824   6.753
 9001POPC   C3B51501  21.626  29.824   7.053
 9001POPC   C4B51502  21.593  29.803   7.353
 9002POPC   NC351503  39.965   2.016   5.553
 9002POPC   PO451504  40.017   2.005   5.853
 9002POPC   GL151505  40.019   2.021   6.153
 9002POPC   GL251506  40.129   1.883   6.153
 9002POPC   C1A51507  39.993   1.955   6.453
 9002POPC   D2A51508  40.004   1.940   6.753
 9002POPC   C3A51509  40.041   2.016   7.053
 9002POPC   C4A51510  39.994   1.989   7.353
 9002POPC   C1B51511  40.219   1.827   6.453
 9002POPC   C2B51512  40.191   1.887   6.753
 9002POPC   C3B51513  40.234   1.843   7.053
 9002POPC   C4B51514  40.228   1.883   7.353
 9003POPC   NC351515   2.717  15.141   5.553
 9003POPC   PO451516   2.785  15.187   5.853
 9003POPC   GL151517   2.728  15.211   6.153
 9003POPC   GL251518   2.882  15.134   6.153
 9003POPC   C1A51519   2.778  15.175   6.453
 9003POPC   D2A51520   2.727  15.163   6.753
 9003POPC   C3A51521   2.815  15.139   7.053
 9003POPC   C4A51522   2.762  15.187   7.353
 9003POPC   C1B51523   2.993  15.119   6.453
 9003POPC   C2B51524   3.003  15.132   6.753
 9003POPC   C3B51525   3.004  15.169   7.053
 9003POPC   C4B51526   3.024  15.099   7.353
 9004POPC   NC351527   5.891  11.254   5.553
 9004POPC   PO451528   5.836  11.256   5.853
 9004POPC   GL151529   5.903  11.313   6.153
 9004POPC   GL251530   5.848  11.371   6.153
 9004POPC   C1A51531   5.889  11.289   6.453
 9004POPC   D2A51532   5.846  11.315   6.753
 9004POPC   C3A51533   5.901  11.318   7.053
 9004POPC   C4A51534   5.890  11.262   7.353
 9004POPC   C1B51535   5.763  11.494   6.453
 9004POPC   C2B51536   5.816  11.527   6.753
 9004POPC   C3B51537   5.774  11.565   7.053
 9004POPC   C4B51538   5.758  11.580   7.353
 9005POPC   NC351539  30.743  33.773   5.553
 9005POPC   PO451540  30.712  33.828   5.853
 9005POPC   GL151541  30.668  33.798   6.153
 9005POPC   GL251542  30.791  33.734   6.153
 9005POPC   C1A51543  30.690  33.775   6.453
 9005POPC   D2A51544  30.718  33.766   6.753
 9005POPC   C3A51545  30.729  33.846   7.053
 9005POPC   C4A51546  30.704  33.820   7.353
 9005POPC   C1B51547  30.897  33.684   6.453
 9005POPC   C2B51548  30.889  33.717   6.753
 9005POPC   C3B51549  30.976  33.693   7.053
 9005POPC   C4B51550  30.891  33.668   7.353
 9006POPC   NC351551  23.705  28.384   5.553
 9006POPC   PO451552  23.724  28.361   5.853
 9006POPC   GL151553  23.695  28.326   6.153
 9006POPC   GL251554  23.712  28.487   6.153
 9006POPC   C1A51555  23.713  28.335   6.453
 9006POPC   D2A51556  23.750  28.371   6.753
 9006POPC   C3A51557  23.694  28.361   7.053
 9006POPC   C4A51558  23.722  28.402   7.353
 9006POPC   C1B51559  23.716  28.596   6.453
 9006POPC   C2B51560  23.720  28.658   6.753
 9006POPC   C3B51561  23.695  28.569   7.053
 9006POPC   C4B51562  23.630  28.576   7.353
 9007POPC   NC351563  13.623  25.260   5.553
 9007POPC   PO451564  13.662  25.268   5.853
 9007POPC   GL151565  13.618  25.266   6.153
 9007POPC   GL251566  13.746  25.198   6.153
 9007POPC   C1A51567  13.619  25.299   6.453
 9007POPC   D2A51568  13.604  25.275   6.753
 9007POPC   C3A51569  13.658  25.283   7.053
 9007POPC   C4A51570  13.603  25.275   7.353
 9007POPC   C1B51571  13.840  25.171   6.453
 9007POPC   C2B51572  13.820  25.144   6.753
 9007POPC   C3B51573  13.863  25.150   7.053
 9007POPC   C4B51574  13.839  25.200   7.353
 9008POPC   NC351575  33.059  32.285   5.553
 9008POPC   PO451576  32.979  32.235   5.853
 9008POPC   GL151577  33.020  32.258   6.153
 9008POPC   GL251578  33.033  32.388   6.153
 9008POPC   C1A51579  33.043  32.219   6.453
 9008POPC   D2A51580  33.062  32.202   6.753
 9008POPC   C3A51581  33.059  32.220   7.053
 9008POPC   C4A51582  33.069  32.262   7.353
 9008POPC   C1B51583  33.130  32.520   6.453
 9008POPC   C2B51584  33.104  32.461   6.753
 9008POPC   C3B51585  33.117  32.472   7.053
 9008POPC   C4B51586  33.075  32.447   7.353
 9009POPC   NC351587   9.729   5.082   5.553
 9009POPC   PO451588   9.712   5.066   5.853
 9009POPC   GL151589   9.795   5.089   6.153
 9009POPC   GL251590   9.659   5.054   6.153
 9009POPC   C1A51591   9.726   5.087   6.453
 9009POPC   D2A51592   9.774   5.130   6.753
 9009POPC   C3A51593   9.789   5.121   7.053
 9009POPC   C4A51594   9.776   5.093   7.353
 9009POPC   C1B51595   9.538   5.031   6.453
 9009POPC   C2B51596   9.481   4.940   6.753
 9009POPC   C3B51597   9.560   4.955   7.053
 9009POPC   C4B51598   9.486   4.964   7.353
 9010POPC   NC351599  40.833  12.854   5.553
 9010POPC   PO451600  40.751  12.844   5.853
 9010POPC   GL151601  40.764  12.894   6.153
 9010POPC   GL251602  40.910  12.925   6.153
 9010POPC   C1A51603  40.805  12.852   6.453
 9010POPC   D2A51604  40.787  12.820   6.753
 9010POPC   C3A51605  40.812  12.817   7.053
 9010POPC   C4A51606  40.733  12.828   7.353
 9010POPC   C1B51607  41.057  12.895   6.453
 9010POPC   C2B51608  40.983  12.934   6.753
 9010POPC   C3B51609  41.050  12.942   7.053
 9010POPC   C4B51610  40.993  12.948   7.353
 9011POPC   NC351611   8.230  20.564   5.553
 9011POPC   PO451612   8.147  20.651   5.853
 9011POPC   GL151613   8.219  20.599   6.153
 9011POPC   GL251614   8.219  20.533   6.153
 9011POPC   C1A51615   8.187  20.642   6.453
 9011POPC   D2A51616   8.174  20.578   6.753
 9011POPC   C3A51617   8.160  20.632   7.053
 9011POPC   C4A51618   8.195  20.660   7.353
 9011POPC   C1B51619   8.187  20.331   6.453
 9011POPC   C2B51620   8.138  20.320   6.753
 9011POPC   C3B51621   8.156  20.340   7.053
 9011POPC   C4B51622   8.106  20.347   7.353
 9012POPC   NC351623  22.155  28.418   5.553
 9012POPC   PO451624  22.148  28.325   5.853
 9012POPC   GL151625  22.117  28.362   6.153
 9012POPC   GL251626  22.179  28.476   6.153
 9012POPC   C1A51627  22.156  28.330   6.453
 9012POPC   D2A51628  22.142  28.342   6.753
 9012POPC   C3A51629  22.212  28.340   7.053
 9012POPC   C4A51630  22.156  28.402   7.353
 9012POPC   C1B51631  22.251  28.634   6.453
 9012POPC   C2B51632  22.249  28.617   6.753
 9012POPC   C3B51633  22.304  28.626   7.053
 9012POPC   C4B51634  22.237  28.589   7.353
 9013POPC   NC351635  42.336  29.967   5.553
 9013POPC   PO451636  42.328  29.959   5.853
 9013POPC   GL151637  42.306  29.970   6.153
 9013POPC   GL251638  42.327  30.037   6.153
 9013POPC   C1A51639  42.370  29.884   6.453
 9013POPC   D2A51640  42.308  29.917   6.753
 9013POPC   C3A51641  42.286  29.885   7.053
 9013POPC   C4A51642  42.357  29.885   7.353
 9013POPC   C1B51643  42.292  30.130   6.453
 9013POPC   C2B51644  42.282  30.174   6.753
 9013POPC   C3B51645  42.261  30.204   7.053
 9013POPC   C4B51646  42.316  30.163   7.353
 9014POPC   NC351647  35.319  31.429   5.553
 9014POPC   PO451648  35.371  31.429   5.853
 9014POPC   GL151649  35.371  31.517   6.153
 9014POPC   GL251650  35.492  31.347   6.153
 9014POPC   C1A51651  35.306  31.498   6.453
 9014POPC   D2A51652  35.387  31.484   6.753
 9014POPC   C3A51653  35.311  31.464   7.053
 9014POPC   C4A51654  35.368  31.423   7.353
 9014POPC   C1B51655  35.579  31.274   6.453
 9014POPC   C2B51656  35.543  31.326   6.753
 9014POPC   C3B51657  35.558  31.322   7.053
 9014POPC   C4B51658  35.556  31.322   7.353
 9015POPC   NC351659  24.479   2.745   5.553
 9015POPC   PO451660  24.494   2.773   5.853
 9015POPC   GL151661  24.474   2.718   6.153
 9015POPC   GL251662  24.377   2.657   6.153
 9015POPC   C1A51663  24.518   2.750   6.453
 9015POPC   D2A51664  24.528   2.724   6.753
 9015POPC   C3A51665  24.441   2.727   7.053
 9015POPC   C4A51666  24.469   2.770   7.353
 9015POPC   C1B51667  24.247   2.618   6.453
 9015POPC   C2B51668  24.232   2.620   6.753
 9015POPC   C3B51669  24.260   2.688   7.053
 9015POPC   C4B51670  24.266   2.651   7.353
 9016POPC   NC351671  20.614  40.040   5.553
 9016POPC   PO451672  20.653  39.982   5.853
 9016POPC   GL151673  20.621  40.044   6.153
 9016POPC   GL251674  20.607  40.082   6.153
 9016POPC   C1A51675  20.626  39.965   6.453
 9016POPC   D2A51676  20.587  40.007   6.753
 9016POPC   C3A51677  20.612  40.036   7.053
 9016POPC   C4A51678  20.641  40.005   7.353
 9016POPC   C1B51679  20.664  40.284   6.453
 9016POPC   C2B51680  20.732  40.227   6.753
 9016POPC   C3B51681  20.637  40.223   7.053
 9016POPC   C4B51682  20.679  40.219   7.353
 9017POPC   NC351683   4.305   3.526   5.553
 9017POPC   PO451684   4.364   3.573   5.853
 9017POPC   GL151685   4.288   3.505   6.153
 9017POPC   GL251686   4.477   3.543   6.153
 9017POPC   C1A51687   4.363   3.564   6.453
 9017POPC   D2A51688   4.323   3.518   6.753
 9017POPC   C3A51689   4.344   3.590   7.053
 9017POPC   C4A51690   4.312   3.557   7.353
 9017POPC   C1B51691   4.532   3.654   6.453
 9017POPC   C2B51692   4.537   3.665   6.753
 9017POPC   C3B51693   4.595   3.648   7.053
 9017POPC   C4B51694   4.591   3.588   7.353
 9018POPC   NC351695  27.604  25.270   5.553
 9018POPC   PO451696  27.551  25.269   5.853
 9018POPC   GL151697  27.587  25.315   6.153
 9018POPC   GL251698  27.585  25.112   6.153
 9018POPC   C1A51699  27.587  25.235   6.453
 9018POPC   D2A51700  27.586  25.299   6.753
 9018POPC   C3A51701  27.549  25.273   7.053
 9018POPC   C4A51702  27.576  25.293   7.353
 9018POPC   C1B51703  27.666  24.989   6.453
 9018POPC   C2B51704  27.660  25.019   6.753
 9018POPC   C3B51705  27.708  25.022   7.053
 9018POPC   C4B51706  27.639  25.031   7.353
 9019POPC   NC351707  43.065  20.561   5.553
 9019POPC   PO451708  43.090  20.576   5.853
 9019POPC   GL151709  43.099  20.603   6.153
 9019POPC   GL251710  42.982  20.700   6.153
 9019POPC   C1A51711  43.155  20.587   6.453
 9019POPC   D2A51712  43.141  20.593   6.753
 9019POPC   C3A51713  43.152  20.648   7.053
 9019POPC   C4A51714  43.063  20.570   7.353
 9019POPC   C1B51715  42.959  20.762   6.453
 9019POPC   C2B51716  42.904  20.773   6.753
 9019POPC   C3B51717  42.953  20.731   7.053
 9019POPC   C4B51718  42.957  20.817   7.353
 9020POPC   NC351719  19.868  17.556   5.553
 9020POPC   PO451720  19.807  17.543   5.853
 9020POPC   GL151721  19.834  17.460   6.153
 9020POPC   GL251722  19.782  17.623   6.153
 9020POPC   C1A51723  19.798  17.527   6.453
 9020POPC   D2A51724  19.805  17.543   6.753
 9020POPC   C3A51725  19.831  17.457   7.053
 9020POPC   C4A51726  19.811  17.549   7.353
 9020POPC   C1B51727  19.779  17.754   6.453
 9020POPC   C2B51728  19.768  17.762   6.753
 9020POPC   C3B51729  19.775  17.774   7.053
 9020POPC   C4B51730  19.723  17.741   7.353
 9021POPC   NC351731  22.202  15.937   5.553
 9021POPC   PO451732  22.125  15.954   5.853
 9021POPC   GL151733  22.171  15.968   6.153
 9021POPC   GL251734  22.318  15.956   6.153
 9021POPC   C1A51735  22.128  15.960   6.453
 9021POPC   D2A51736  22.148  15.944   6.753
 9021POPC   C3A51737  22.205  15.966   7.053
 9021POPC   C4A51738  22.146  15.962   7.353
 9021POPC   C1B51739  22.401  15.907   6.453
 9021POPC   C2B51740  22.383  15.958   6.753
 9021POPC   C3B51741  22.451  15.925   7.053
 9021POPC   C4B51742  22.373  15.962   7.353
 9022POPC   NC351743  39.220   7.380   5.553
 9022POPC   PO451744  39.214   7.440   5.853
 9022POPC   GL151745  39.238   7.384   6.153
 9022POPC   GL251746  39.281   7.545   6.153
 9022POPC   C1A51747  39.192   7.420   6.453
 9022POPC   D2A51748  39.204   7.380   6.753
 9022POPC   C3A51749  39.184   7.384   7.053
 9022POPC   C4A51750  39.240   7.387   7.353
 9022POPC   C1B51751  39.364   7.646   6.453
 9022POPC   C2B51752  39.303   7.688   6.753
 9022POPC   C3B51753  39.323   7.650   7.053
 9022POPC   C4B51754  39.395   7.687   7.353
 9023POPC   NC351755  29.925  35.397   5.553
 9023POPC   PO451756  29.958  35.364   5.853
 9023POPC   GL151757  29.911  35.356   6.153
 9023POPC   GL251758  29.839  35.278   6.153
 9023POPC   C1A51759  29.968  35.345   6.453
 9023POPC   D2A51760  29.926  35.395   6.753
 9023POPC   C3A51761  29.933  35.331   7.053
 9023POPC   C4A51762  29.920  35.340   7.353
 9023POPC   C1B51763  29.802  35.182   6.453
 9023POPC   C2B51764  29.769  35.209   6.753
 9023POPC   C3B51765  29.712  35.197   7.053
 9023POPC   C4B51766  29.752  35.144   7.353
 9024POPC   NC351767  23.707  43.868   5.553
 9024POPC   PO451768  23.734  43.928   5.853
 9024POPC   GL151769  23.709  43.918   6.153
 9024POPC   GL251770  23.603  43.888   6.153
 9024POPC   C1A51771  23.705  43.929   6.453
 9024POPC   D2A51772  23.665  43.869   6.753
 9024POPC   C3A51773  23.668  43.932   7.053
 9024POPC   C4A51774  23.679  43.920   7.353
 9024POPC   C1B51775  23.473  43.908   6.453
 9024POPC   C2B51776  23.442  43.901   6.753
 9024POPC   C3B51777  23.425  43.902   7.053
 9024POPC   C4B51778  23.418  43.887   7.353
 9025POPC   NC351779  27.558  26.866   5.553
 9025POPC   PO451780  27.577  26.834   5.853
 9025POPC   GL151781  27.600  26.780   6.153
 9025POPC   GL251782  27.482  26.783   6.153
 9025POPC   C1A51783  27.621  26.834   6.453
 9025POPC   D2A51784  27.590  26.867   6.753
 9025POPC   C3A51785  27.632  26.780   7.053
 9025POPC   C4A51786  27.638  26.782   7.353
 9025POPC   C1B51787  27.401  26.704   6.453
 9025POPC   C2B51788  27.308  26.798   6.753
 9025POPC   C3B51789  27.401  26.711   7.053
 9025POPC   C4B51790  27.386  26.763   7.353
 9026POPC   NC351791  12.105  23.708   5.553
 9026POPC   PO451792  12.062  23.683   5.853
 9026POPC   GL151793  12.061  23.684   6.153
 9026POPC   GL251794  12.069  23.545   6.153
 9026POPC   C1A51795  12.051  23.694   6.453
 9026POPC   D2A51796  12.074  23.742   6.753
 9026POPC   C3A51797  12.094  23.699   7.053
 9026POPC   C4A51798  12.048  23.706   7.353
 9026POPC   C1B51799  12.111  23.466   6.453
 9026POPC   C2B51800  12.159  23.461   6.753
 9026POPC   C3B51801  12.182  23.446   7.053
 9026POPC   C4B51802  12.148  23.439   7.353
 9027POPC   NC351803  12.849  33.003   5.553
 9027POPC   PO451804  12.853  33.038   5.853
 9027POPC   GL151805  12.890  32.998   6.153
 9027POPC   GL251806  12.825  32.879   6.153
 9027POPC   C1A51807  12.882  33.044   6.453
 9027POPC   D2A51808  12.895  32.980   6.753
 9027POPC   C3A51809  12.873  32.975   7.053
 9027POPC   C4A51810  12.844  33.073   7.353
 9027POPC   C1B51811  12.760  32.847   6.453
 9027POPC   C2B51812  12.710  32.812   6.753
 9027POPC   C3B51813  12.782  32.757   7.053
 9027POPC   C4B51814  12.698  32.822   7.353
 9028POPC   NC351815  43.143  39.270   5.553
 9028POPC   PO451816  43.074  39.191   5.853
 9028POPC   GL151817  43.121  39.216   6.153
 9028POPC   GL251818  42.995  39.131   6.153
 9028POPC   C1A51819  43.098  39.258   6.453
 9028POPC   D2A51820  43.121  39.241   6.753
 9028POPC   C3A51821  43.151  39.190   7.053
 9028POPC   C4A51822  43.108  39.184   7.353
 9028POPC   C1B51823  42.929  39.098   6.453
 9028POPC   C2B51824  42.972  39.082   6.753
 9028POPC   C3B51825  42.974  39.095   7.053
 9028POPC   C4B51826  42.898  39.034   7.353
 9029POPC   NC351827  15.964   8.951   5.553
 9029POPC   PO451828  15.951   8.940   5.853
 9029POPC   GL151829  15.914   9.013   6.153
 9029POPC   GL251830  15.980   8.843   6.153
 9029POPC   C1A51831  15.974   9.009   6.453
 9029POPC   D2A51832  15.935   8.938   6.753
 9029POPC   C3A51833  15.963   8.972   7.053
 9029POPC   C4A51834  15.999   8.957   7.353
 9029POPC   C1B51835  16.142   8.759   6.453
 9029POPC   C2B51836  16.139   8.729   6.753
 9029POPC   C3B51837  16.110   8.751   7.053
 9029POPC   C4B51838  16.083   8.746   7.353
 9030POPC   NC351839  26.825  44.632   5.553
 9030POPC   PO451840  26.835  44.680   5.853
 9030POPC   GL151841  26.865  44.621   6.153
 9030POPC   GL251842  26.963  44.604   6.153
 9030POPC   C1A51843  26.864  44.711   6.453
 9030POPC   D2A51844  26.856  44.642   6.753
 9030POPC   C3A51845  26.861  44.702   7.053
 9030POPC   C4A51846  26.847  44.612   7.353
 9030POPC   C1B51847  27.091  44.572   6.453
 9030POPC   C2B51848  27.108  44.632   6.753
 9030POPC   C3B51849  27.076  44.648   7.053
 9030POPC   C4B51850  27.044  44.649   7.353
 9031POPC   NC351851  21.340  37.719   5.553
 9031POPC   PO451852  21.431  37.684   5.853
 9031POPC   GL151853  21.358  37.724   6.153
 9031POPC   GL251854  21.319  37.621   6.153
 9031POPC   C1A51855  21.354  37.668   6.453
 9031POPC   D2A51856  21.402  37.647   6.753
 9031POPC   C3A51857  21.414  37.647   7.053
 9031POPC   C4A51858  21.342  37.646   7.353
 9031POPC   C1B51859  21.193  37.449   6.453
 9031POPC   C2B51860  21.274  37.484   6.753
 9031POPC   C3B51861  21.280  37.485   7.053
 9031POPC   C4B51862  21.261  37.514   7.353
 9032POPC   NC351863  22.965   4.291   5.553
 9032POPC   PO451864  22.920   4.296   5.853
 9032POPC   GL151865  22.967   4.361   6.153
 9032POPC   GL251866  22.772   4.287   6.153
 9032POPC   C1A51867  22.973   4.297   6.453
 9032POPC   D2A51868  22.976   4.346   6.753
 9032POPC   C3A51869  22.889   4.358   7.053
 9032POPC   C4A51870  22.910   4.301   7.353
 9032POPC   C1B51871  22.723   4.399   6.453
 9032POPC   C2B51872  22.642   4.315   6.753
 9032POPC   C3B51873  22.700   4.317   7.053
 9032POPC   C4B51874  22.726   4.372   7.353
 9033POPC   NC351875  35.320  35.361   5.553
 9033POPC   PO451876  35.375  35.335   5.853
 9033POPC   GL151877  35.356  35.354   6.153
 9033POPC   GL251878  35.337  35.423   6.153
 9033POPC   C1A51879  35.387  35.372   6.453
 9033POPC   D2A51880  35.401  35.371   6.753
 9033POPC   C3A51881  35.367  35.392   7.053
 9033POPC   C4A51882  35.373  35.367   7.353
 9033POPC   C1B51883  35.274  35.607   6.453
 9033POPC   C2B51884  35.223  35.538   6.753
 9033POPC   C3B51885  35.278  35.615   7.053
 9033POPC   C4B51886  35.287  35.601   7.353
 9034POPC   NC351887  38.471  40.823   5.553
 9034POPC   PO451888  38.473  40.739   5.853
 9034POPC   GL151889  38.471  40.752   6.153
 9034POPC   GL251890  38.384  40.717   6.153
 9034POPC   C1A51891  38.500  40.831   6.453
 9034POPC   D2A51892  38.436  40.818   6.753
 9034POPC   C3A51893  38.455  40.763   7.053
 9034POPC   C4A51894  38.453  40.803   7.353
 9034POPC   C1B51895  38.271  40.560   6.453
 9034POPC   C2B51896  38.340  40.595   6.753
 9034POPC   C3B51897  38.275  40.586   7.053
 9034POPC   C4B51898  38.348  40.623   7.353
 9035POPC   NC351899  16.716  26.013   5.553
 9035POPC   PO451900  16.725  26.056   5.853
 9035POPC   GL151901  16.757  26.054   6.153
 9035POPC   GL251902  16.839  25.969   6.153
 9035POPC   C1A51903  16.708  26.021   6.453
 9035POPC   D2A51904  16.721  26.012   6.753
 9035POPC   C3A51905  16.701  26.028   7.053
 9035POPC   C4A51906  16.779  26.052   7.353
 9035POPC   C1B51907  16.933  25.910   6.453
 9035POPC   C2B51908  16.936  25.873   6.753
 9035POPC   C3B51909  16.925  25.876   7.053
 9035POPC   C4B51910  16.976  25.888   7.353
 9036POPC   NC351911  36.901  21.349   5.553
 9036POPC   PO451912  36.880  21.340   5.853
 9036POPC   GL151913  36.889  21.400   6.153
 9036POPC   GL251914  37.029  21.345   6.153
 9036POPC   C1A51915  36.924  21.425   6.453
 9036POPC   D2A51916  36.948  21.410   6.753
 9036POPC   C3A51917  36.882  21.386   7.053
 9036POPC   C4A51918  36.917  21.397   7.353
 9036POPC   C1B51919  37.074  21.267   6.453
 9036POPC   C2B51920  37.110  21.241   6.753
 9036POPC   C3B51921  37.132  21.258   7.053
 9036POPC   C4B51922  37.085  21.259   7.353
 9037POPC   NC351923  43.841  13.617   5.553
 9037POPC   PO451924  43.868  13.656   5.853
 9037POPC   GL151925  43.856  13.584   6.153
 9037POPC   GL251926  43.993  13.680   6.153
 9037POPC   C1A51927  43.884  13.668   6.453
 9037POPC   D2A51928  43.846  13.625   6.753
 9037POPC   C3A51929  43.864  13.653   7.053
 9037POPC   C4A51930  43.858  13.615   7.353
 9037POPC   C1B51931  44.143  13.740   6.453
 9037POPC   C2B51932  44.095  13.707   6.753
 9037POPC   C3B51933  44.150  13.696   7.053
 9037POPC   C4B51934  44.102  13.745   7.353
 9038POPC   NC351935  18.251  14.421   5.553
 9038POPC   PO451936  18.236  14.410   5.853
 9038POPC   GL151937  18.238  14.451   6.153
 9038POPC   GL251938  18.363  14.525   6.153
 9038POPC   C1A51939  18.324  14.420   6.453
 9038POPC   D2A51940  18.255  14.355   6.753
 9038POPC   C3A51941  18.258  14.360   7.053
 9038POPC   C4A51942  18.234  14.405   7.353
 9038POPC   C1B51943  18.387  14.642   6.453
 9038POPC   C2B51944  18.393  14.640   6.753
 9038POPC   C3B51945  18.455  14.618   7.053
 9038POPC   C4B51946  18.453  14.597   7.353
 9039POPC   NC351947  12.802  29.883   5.553
 9039POPC   PO451948  12.897  29.934   5.853
 9039POPC   GL151949  12.893  29.884   6.153
 9039POPC   GL251950  12.931  29.803   6.153
 9039POPC   C1A51951  12.878  29.887   6.453
 9039POPC   D2A51952  12.861  29.948   6.753
 9039POPC   C3A51953  12.832  29.962   7.053
 9039POPC   C4A51954  12.813  29.963   7.353
 9039POPC   C1B51955  12.898  29.671   6.453
 9039POPC   C2B51956  12.902  29.650   6.753
 9039POPC   C3B51957  12.907  29.642   7.053
 9039POPC   C4B51958  12.919  29.703   7.353
 9040POPC   NC351959  30.653  21.339   5.553
 9040POPC   PO451960  30.684  21.376   5.853
 9040POPC   GL151961  30.741  21.338   6.153
 9040POPC   GL251962  30.818  21.342   6.153
 9040POPC   C1A51963  30.662  21.384   6.453
 9040POPC   D2A51964  30.705  21.432   6.753
 9040POPC   C3A51965  30.731  21.408   7.053
 9040POPC   C4A51966  30.716  21.417   7.353
 9040POPC   C1B51967  30.866  21.259   6.453
 9040POPC   C2B51968  30.883  21.221   6.753
 9040POPC   C3B51969  30.865  21.228   7.053
 9040POPC   C4B51970  30.903  21.210   7.353
 9041POPC   NC351971  40.770  39.972   5.553
 9041POPC   PO451972  40.753  40.041   5.853
 9041POPC   GL151973  40.810  40.023   6.153
 9041POPC   GL251974  40.852  39.934   6.153
 9041POPC   C1A51975  40.817  40.046   6.453
 9041POPC   D2A51976  40.781  40.001   6.753
 9041POPC   C3A51977  40.733  40.029   7.053
 9041POPC   C4A51978  40.803  40.047   7.353
 9041POPC   C1B51979  40.993  39.812   6.453
 9041POPC   C2B51980  40.971  39.816   6.753
 9041POPC   C3B51981  40.992  39.782   7.053
 9041POPC   C4B51982  40.949  39.795   7.353
 9042POPC   NC351983  33.070  29.953   5.553
 9042POPC   PO451984  33.052  29.940   5.853
 9042POPC   GL151985  32.977  29.913   6.153
 9042POPC   GL251986  33.164  29.839   6.153
 9042POPC   C1A51987  33.041  29.919   6.453
 9042POPC   D2A51988  32.976  29.945   6.753
 9042POPC   C3A51989  32.990  29.896   7.053
 9042POPC   C4A51990  33.070  29.902   7.353
 9042POPC   C1B51991  33.281  29.844   6.453
 9042POPC   C2B51992  33.290  29.792   6.753
 9042POPC   C3B51993  33.298  29.856   7.053
 9042POPC   C4B51994  33.271  29.792   7.353
 9043POPC   NC351995  27.630  37.686   5.553
 9043POPC   PO451996  27.584  37.684   5.853
 9043POPC   GL151997  27.612  37.693   6.153
 9043POPC   GL251998  27.455  37.690   6.153
 9043POPC   C1A51999  27.554  37.682   6.453
 9043POPC   D2A52000  27.631  37.693   6.753
 9043POPC   C3A52001  27.618  37.701   7.053
 9043POPC   C4A52002  27.580  37.648   7.353
 9043POPC   C1B52003  27.373  37.604   6.453
 9043POPC   C2B52004  27.295  37.673   6.753
 9043POPC   C3B52005  27.393  37.622   7.053
 9043POPC   C4B52006  27.382  37.649   7.353
 9044POPC   NC352007   4.339   2.716   5.553
 9044POPC   PO452008   4.307   2.810   5.853
 9044POPC   GL152009   4.362   2.722   6.153
 9044POPC   GL252010   4.350   2.683   6.153
 9044POPC   C1A52011   4.338   2.726   6.453
 9044POPC   D2A52012   4.309   2.735   6.753
 9044POPC   C3A52013   4.295   2.767   7.053
 9044POPC   C4A52014   4.363   2.786   7.353
 9044POPC   C1B52015   4.275   2.548   6.453
 9044POPC   C2B52016   4.324   2.547   6.753
 9044POPC   C3B52017   4.262   2.482   7.053
 9044POPC   C4B52018   4.325   2.558   7.353
 9045POPC   NC352019  40.756  39.278   5.553
 9045POPC   PO452020  40.735  39.235   5.853
 9045POPC   GL152021  40.808  39.208   6.153
 9045POPC   GL252022  40.841  39.098   6.153
 9045POPC   C1A52023  40.792  39.246   6.453
 9045POPC   D2A52024  40.742  39.272   6.753
 9045POPC   C3A52025  40.805  39.258   7.053
 9045POPC   C4A52026  40.824  39.203   7.353
 9045POPC   C1B52027  40.777  39.005   6.453
 9045POPC   C2B52028  40.830  39.010   6.753
 9045POPC   C3B52029  40.820  38.986   7.053
 9045POPC   C4B52030  40.852  38.938   7.353
 9046POPC   NC352031  30.666  15.929   5.553
 9046POPC   PO452032  30.728  15.998   5.853
 9046POPC   GL152033  30.647  16.003   6.153
 9046POPC   GL252034  30.761  16.041   6.153
 9046POPC   C1A52035  30.664  15.940   6.453
 9046POPC   D2A52036  30.737  15.955   6.753
 9046POPC   C3A52037  30.716  15.946   7.053
 9046POPC   C4A52038  30.675  15.940   7.353
 9046POPC   C1B52039  30.859  16.146   6.453
 9046POPC   C2B52040  30.913  16.106   6.753
 9046POPC   C3B52041  30.826  16.165   7.053
 9046POPC   C4B52042  30.839  16.101   7.353
 9047POPC   NC352043  20.593  35.346   5.553
 9047POPC   PO452044  20.640  35.398   5.853
 9047POPC   GL152045  20.568  35.360   6.153
 9047POPC   GL252046  20.517  35.260   6.153
 9047POPC   C1A52047  20.566  35.389   6.453
 9047POPC   D2A52048  20.586  35.328   6.753
 9047POPC   C3A52049  20.624  35.390   7.053
 9047POPC   C4A52050  20.658  35.355   7.353
 9047POPC   C1B52051  20.339  35.290   6.453
 9047POPC   C2B52052  20.349  35.224   6.753
 9047POPC   C3B52053  20.377  35.219   7.053
 9047POPC   C4B52054  20.408  35.213   7.353
 9048POPC   NC352055   0.394  41.526   5.553
 9048POPC   PO452056   0.480  41.582   5.853
 9048POPC   GL152057   0.470  41.562   6.153
 9048POPC   GL252058   0.317  41.463   6.153
 9048POPC   C1A52059   0.408  41.522   6.453
 9048POPC   D2A52060   0.480  41.560   6.753
 9048POPC   C3A52061   0.456  41.606   7.053
 9048POPC   C4A52062   0.481  41.584   7.353
 9048POPC   C1B52063   0.278  41.313   6.453
 9048POPC   C2B52064   0.264  41.350   6.753
 9048POPC   C3B52065   0.312  41.397   7.053
 9048POPC   C4B52066   0.311  41.341   7.353
 9049POPC   NC352067  19.791   6.617   5.553
 9049POPC   PO452068  19.865   6.660   5.853
 9049POPC   GL152069  19.834   6.660   6.153
 9049POPC   GL252070  19.734   6.745   6.153
 9049POPC   C1A52071  19.789   6.692   6.453
 9049POPC   D2A52072  19.882   6.615   6.753
 9049POPC   C3A52073  19.840   6.599   7.053
 9049POPC   C4A52074  19.790   6.619   7.353
 9049POPC   C1B52075  19.671   6.821   6.453
 9049POPC   C2B52076  19.671   6.804   6.753
 9049POPC   C3B52077  19.734   6.807   7.053
 9049POPC   C4B52078  19.733   6.798   7.353
 9050POPC   NC352079  17.552   2.028   5.553
 9050POPC   PO452080  17.476   1.955   5.853
 9050POPC   GL152081  17.458   1.964   6.153
 9050POPC   GL252082  17.601   2.106   6.153
 9050POPC   C1A52083  17.533   2.032   6.453
 9050POPC   D2A52084  17.522   1.943   6.753
 9050POPC   C3A52085  17.517   2.037   7.053
 9050POPC   C4A52086  17.480   1.985   7.353
 9050POPC   C1B52087  17.609   2.243   6.453
 9050POPC   C2B52088  17.622   2.225   6.753
 9050POPC   C3B52089  17.669   2.177   7.053
 9050POPC   C4B52090  17.677   2.243   7.353
 9051POPC   NC352091  26.024  16.752   5.553
 9051POPC   PO452092  26.000  16.696   5.853
 9051POPC   GL152093  26.019  16.775   6.153
 9051POPC   GL252094  26.106  16.651   6.153
 9051POPC   C1A52095  26.075  16.749   6.453
 9051POPC   D2A52096  26.034  16.747   6.753
 9051POPC   C3A52097  26.066  16.730   7.053
 9051POPC   C4A52098  26.047  16.733   7.353
 9051POPC   C1B52099  26.266  16.599   6.453
 9051POPC   C2B52100  26.214  16.645   6.753
 9051POPC   C3B52101  26.279  16.562   7.053
 9051POPC   C4B52102  26.229  16.618   7.353
 9052POPC   NC352103   0.479  20.571   5.553
 9052POPC   PO452104   0.466  20.592   5.853
 9052POPC   GL152105   0.426  20.583   6.153
 9052POPC   GL252106   0.510  20.708   6.153
 9052POPC   C1A52107   0.389  20.631   6.453
 9052POPC   D2A52108   0.438  20.655   6.753
 9052POPC   C3A52109   0.483  20.602   7.053
 9052POPC   C4A52110   0.446  20.595   7.353
 9052POPC   C1B52111   0.622  20.703   6.453
 9052POPC   C2B52112   0.639  20.717   6.753
 9052POPC   C3B52113   0.620  20.750   7.053
 9052POPC   C4B52114   0.648  20.703   7.353
 9053POPC   NC352115  12.111  33.004   5.553
 9053POPC   PO452116  12.075  33.066   5.853
 9053POPC   GL152117  12.041  32.987   6.153
 9053POPC   GL252118  12.036  33.077   6.153
 9053POPC   C1A52119  12.058  33.011   6.453
 9053POPC   D2A52120  12.026  33.042   6.753
 9053POPC   C3A52121  12.108  33.072   7.053
 9053POPC   C4A52122  12.104  32.999   7.353
 9053POPC   C1B52123  11.940  33.183   6.453
 9053POPC   C2B52124  11.963  33.207   6.753
 9053POPC   C3B52125  11.965  33.173   7.053
 9053POPC   C4B52126  11.887  33.241   7.353
 9054POPC   NC352127  34.569  29.949   5.553
 9054POPC   PO452128  34.530  29.903   5.853
 9054POPC   GL152129  34.591  29.905   6.153
 9054POPC   GL252130  34.445  29.854   6.153
 9054POPC   C1A52131  34.608  29.940   6.453
 9054POPC   D2A52132  34.607  29.890   6.753
 9054POPC   C3A52133  34.527  29.915   7.053
 9054POPC   C4A52134  34.595  29.900   7.353
 9054POPC   C1B52135  34.295  29.898   6.453
 9054POPC   C2B52136  34.306  29.838   6.753
 9054POPC   C3B52137  34.372  29.896   7.053
 9054POPC   C4B52138  34.352  29.850   7.353
 9055POPC   NC352139  39.269   6.658   5.553
 9055POPC   PO452140  39.250   6.634   5.853
 9055POPC   GL152141  39.231   6.637   6.153
 9055POPC   GL252142  39.321   6.663   6.153
 9055POPC   C1A52143  39.187   6.601   6.453
 9055POPC   D2A52144  39.182   6.617   6.753
 9055POPC   C3A52145  39.235   6.686   7.053
 9055POPC   C4A52146  39.216   6.604   7.353
 9055POPC   C1B52147  39.469   6.686   6.453
 9055POPC   C2B52148  39.424   6.756   6.753
 9055POPC   C3B52149  39.510   6.698   7.053
 9055POPC   C4B52150  39.431   6.762   7.353
 9056POPC   NC352151  44.650  29.132   5.553
 9056POPC   PO452152  44.624  29.122   5.853
 9056POPC   GL152153  44.633  29.137   6.153
 9056POPC   GL252154  44.606  29.094   6.153
 9056POPC   C1A52155  44.709  29.151   6.453
 9056POPC   D2A52156  44.617  29.186   6.753
 9056POPC   C3A52157  44.632  29.161   7.053
 9056POPC   C4A52158  44.645  29.132   7.353
 9056POPC   C1B52159  44.440  29.000   6.453
 9056POPC   C2B52160  44.460  29.037   6.753
 9056POPC   C3B52161  44.414  29.001   7.053
 9056POPC   C4B52162  44.484  29.009   7.353
 9057POPC   NC352163  44.710  23.703   5.553
 9057POPC   PO452164  44.619  23.737   5.853
 9057POPC   GL152165  44.697  23.730   6.153
 9057POPC   GL252166  44.628  23.791   6.153
 9057POPC   C1A52167  44.667  23.701   6.453
 9057POPC   D2A52168  44.673  23.722   6.753
 9057POPC   C3A52169  44.655  23.671   7.053
 9057POPC   C4A52170  44.706  23.738   7.353
 9057POPC   C1B52171  44.498  23.882   6.453
 9057POPC   C2B52172  44.543  23.920   6.753
 9057POPC   C3B52173  44.534  23.909   7.053
 9057POPC   C4B52174  44.560  23.887   7.353
 9058POPC   NC352175  18.259   5.866   5.553
 9058POPC   PO452176  18.296   5.875   5.853
 9058POPC   GL152177  18.307   5.892   6.153
 9058POPC   GL252178  18.358   5.889   6.153
 9058POPC   C1A52179  18.320   5.889   6.453
 9058POPC   D2A52180  18.242   5.887   6.753
 9058POPC   C3A52181  18.332   5.836   7.053
 9058POPC   C4A52182  18.298   5.908   7.353
 9058POPC   C1B52183  18.553   5.968   6.453
 9058POPC   C2B52184  18.474   5.941   6.753
 9058POPC   C3B52185  18.514   5.989   7.053
 9058POPC   C4B52186  18.497   5.963   7.353
 9059POPC   NC352187  41.515   2.806   5.553
 9059POPC   PO452188  41.553   2.815   5.853
 9059POPC   GL152189  41.542   2.781   6.153
 9059POPC   GL252190  41.596   2.689   6.153
 9059POPC   C1A52191  41.515   2.783   6.453
 9059POPC   D2A52192  41.534   2.764   6.753
 9059POPC   C3A52193  41.609   2.754   7.053
 9059POPC   C4A52194  41.516   2.756   7.353
 9059POPC   C1B52195  41.692   2.561   6.453
 9059POPC   C2B52196  41.686   2.578   6.753
 9059POPC   C3B52197  41.722   2.577   7.053
 9059POPC   C4B52198  41.717   2.597   7.353
 9060POPC   NC352199  15.205  11.288   5.553
 9060POPC   PO452200  15.198  11.338   5.853
 9060POPC   GL152201  15.130  11.315   6.153
 9060POPC   GL252202  15.061  11.236   6.153
 9060POPC   C1A52203  15.151  11.271   6.453
 9060POPC   D2A52204  15.146  11.288   6.753
 9060POPC   C3A52205  15.210  11.347   7.053
 9060POPC   C4A52206  15.217  11.308   7.353
 9060POPC   C1B52207  14.895  11.287   6.453
 9060POPC   C2B52208  14.925  11.244   6.753
 9060POPC   C3B52209  14.896  11.237   7.053
 9060POPC   C4B52210  14.913  11.222   7.353
 9061POPC   NC352211  41.534  15.200   5.553
 9061POPC   PO452212  41.606  15.166   5.853
 9061POPC   GL152213  41.596  15.204   6.153
 9061POPC   GL252214  41.701  15.231   6.153
 9061POPC   C1A52215  41.519  15.184   6.453
 9061POPC   D2A52216  41.524  15.139   6.753
 9061POPC   C3A52217  41.587  15.182   7.053
 9061POPC   C4A52218  41.579  15.178   7.353
 9061POPC   C1B52219  41.733  15.300   6.453
 9061POPC   C2B52220  41.745  15.260   6.753
 9061POPC   C3B52221  41.796  15.311   7.053
 9061POPC   C4B52222  41.812  15.281   7.353
 9062POPC   NC352223  27.628  36.887   5.553
 9062POPC   PO452224  27.545  36.927   5.853
 9062POPC   GL152225  27.561  36.861   6.153
 9062POPC   GL252226  27.566  36.764   6.153
 9062POPC   C1A52227  27.553  36.895   6.453
 9062POPC   D2A52228  27.594  36.888   6.753
 9062POPC   C3A52229  27.638  36.872   7.053
 9062POPC   C4A52230  27.579  36.913   7.353
 9062POPC   C1B52231  27.404  36.727   6.453
 9062POPC   C2B52232  27.427  36.726   6.753
 9062POPC   C3B52233  27.501  36.695   7.053
 9062POPC   C4B52234  27.426  36.652   7.353
 9063POPC   NC352235  35.374  38.443   5.553
 9063POPC   PO452236  35.326  38.479   5.853
 9063POPC   GL152237  35.313  38.504   6.153
 9063POPC   GL252238  35.336  38.623   6.153
 9063POPC   C1A52239  35.318  38.501   6.453
 9063POPC   D2A52240  35.385  38.491   6.753
 9063POPC   C3A52241  35.359  38.446   7.053
 9063POPC   C4A52242  35.376  38.428   7.353
 9063POPC   C1B52243  35.285  38.656   6.453
 9063POPC   C2B52244  35.317  38.741   6.753
 9063POPC   C3B52245  35.330  38.657   7.053
 9063POPC   C4B52246  35.254  38.713   7.353
 9064POPC   NC352247  30.664  31.473   5.553
 9064POPC   PO452248  30.717  31.484   5.853
 9064POPC   GL152249  30.732  31.442   6.153
 9064POPC   GL252250  30.843  31.464   6.153
 9064POPC   C1A52251  30.677  31.436   6.453
 9064POPC   D2A52252  30.653  31.485   6.753
 9064POPC   C3A52253  30.651  31.457   7.053
 9064POPC   C4A52254  30.668  31.506   7.353
 9064POPC   C1B52255  30.895  31.404   6.453
 9064POPC   C2B52256  30.890  31.407   6.753
 9064POPC   C3B52257  30.969  31.366   7.053
 9064POPC   C4B52258  30.921  31.355   7.353
 9065POPC   NC352259  22.174  26.849   5.553
 9065POPC   PO452260  22.144  26.851   5.853
 9065POPC   GL152261  22.140  26.768   6.153
 9065POPC   GL252262  22.215  26.976   6.153
 9065POPC   C1A52263  22.184  26.778   6.453
 9065POPC   D2A52264  22.208  26.796   6.753
 9065POPC   C3A52265  22.127  26.839   7.053
 9065POPC   C4A52266  22.174  26.787   7.353
 9065POPC   C1B52267  22.323  26.997   6.453
 9065POPC   C2B52268  22.234  27.062   6.753
 9065POPC   C3B52269  22.317  27.006   7.053
 9065POPC   C4B52270  22.238  27.014   7.353
 9066POPC   NC352271  41.509  36.946   5.553
 9066POPC   PO452272  41.547  36.918   5.853
 9066POPC   GL152273  41.545  36.878   6.153
 9066POPC   GL252274  41.443  36.885   6.153
 9066POPC   C1A52275  41.540  36.945   6.453
 9066POPC   D2A52276  41.565  36.922   6.753
 9066POPC   C3A52277  41.525  36.907   7.053
 9066POPC   C4A52278  41.531  36.919   7.353
 9066POPC   C1B52279  41.282  36.822   6.453
 9066POPC   C2B52280  41.293  36.856   6.753
 9066POPC   C3B52281  41.278  36.898   7.053
 9066POPC   C4B52282  41.330  36.843   7.353
 9067POPC   NC352283  32.264  40.808   5.553
 9067POPC   PO452284  32.274  40.785   5.853
 9067POPC   GL152285  32.279  40.735   6.153
 9067POPC   GL252286  32.232  40.670   6.153
 9067POPC   C1A52287  32.224  40.829   6.453
 9067POPC   D2A52288  32.242  40.805   6.753
 9067POPC   C3A52289  32.278  40.802   7.053
 9067POPC   C4A52290  32.225  40.831   7.353
 9067POPC   C1B52291  32.220  40.498   6.453
 9067POPC   C2B52292  32.177  40.505   6.753
 9067POPC   C3B52293  32.191  40.557   7.053
 9067POPC   C4B52294  32.236  40.555   7.353
 9068POPC   NC352295  24.521   5.882   5.553
 9068POPC   PO452296  24.513   5.903   5.853
 9068POPC   GL152297  24.484   5.901   6.153
 9068POPC   GL252298  24.413   5.916   6.153
 9068POPC   C1A52299  24.454   5.825   6.453
 9068POPC   D2A52300  24.483   5.916   6.753
 9068POPC   C3A52301  24.490   5.883   7.053
 9068POPC   C4A52302  24.537   5.864   7.353
 9068POPC   C1B52303  24.371   6.022   6.453
 9068POPC   C2B52304  24.377   6.027   6.753
 9068POPC   C3B52305  24.281   6.068   7.053
 9068POPC   C4B52306  24.318   6.082   7.353
 9069POPC   NC352307  29.886  43.083   5.553
 9069POPC   PO452308  29.951  43.127   5.853
 9069POPC   GL152309  29.934  43.070   6.153
 9069POPC   GL252310  29.912  43.009   6.153
 9069POPC   C1A52311  29.931  43.131   6.453
 9069POPC   D2A52312  29.952  43.071   6.753
 9069POPC   C3A52313  29.955  43.064   7.053
 9069POPC   C4A52314  29.919  43.153   7.353
 9069POPC   C1B52315  29.798  42.910   6.453
 9069POPC   C2B52316  29.883  42.830   6.753
 9069POPC   C3B52317  29.807  42.886   7.053
 9069POPC   C4B52318  29.812  42.899   7.353
 9070POPC   NC352319  36.952  13.641   5.553
 9070POPC   PO452320  36.907  13.660   5.853
 9070POPC   GL152321  36.947  13.660   6.153
 9070POPC   GL252322  36.847  13.704   6.153
 9070POPC   C1A52323  36.886  13.614   6.453
 9070POPC   D2A52324  36.927  13.655   6.753
 9070POPC   C3A52325  36.908  13.618   7.053
 9070POPC   C4A52326  36.923  13.646   7.353
 9070POPC   C1B52327  36.807  13.911   6.453
 9070POPC   C2B52328  36.897  13.865   6.753
 9070POPC   C3B52329  36.870  13.871   7.053
 9070POPC   C4B52330  36.808  13.822   7.353
 9071POPC   NC352331  30.675  44.659   5.553
 9071POPC   PO452332  30.673  44.632   5.853
 9071POPC   GL152333  30.666  44.709   6.153
 9071POPC   GL252334  30.847  44.686   6.153
 9071POPC   C1A52335  30.735  44.688   6.453
 9071POPC   D2A52336  30.658  44.691   6.753
 9071POPC   C3A52337  30.724  44.710   7.053
 9071POPC   C4A52338  30.688  44.617   7.353
 9071POPC   C1B52339  30.944  44.614   6.453
 9071POPC   C2B52340  30.961  44.670   6.753
 9071POPC   C3B52341  30.943  44.671   7.053
 9071POPC   C4B52342  30.945  44.647   7.353
 9072POPC   NC352343  22.201  14.373   5.553
 9072POPC   PO452344  22.161  14.379   5.853
 9072POPC   GL152345  22.181  14.405   6.153
 9072POPC   GL252346  22.144  14.503   6.153
 9072POPC   C1A52347  22.136  14.437   6.453
 9072POPC   D2A52348  22.173  14.449   6.753
 9072POPC   C3A52349  22.181  14.355   7.053
 9072POPC   C4A52350  22.190  14.410   7.353
 9072POPC   C1B52351  22.064  14.663   6.453
 9072POPC   C2B52352  22.138  14.658   6.753
 9072POPC   C3B52353  22.093  14.674   7.053
 9072POPC   C4B52354  22.068  14.668   7.353
 9073POPC   NC352355  17.533  30.668   5.553
 9073POPC   PO452356  17.549  30.734   5.853
 9073POPC   GL152357  17.504  30.688   6.153
 9073POPC   GL252358  17.608  30.782   6.153
 9073POPC   C1A52359  17.501  30.698   6.453
 9073POPC   D2A52360  17.491  30.690   6.753
 9073POPC   C3A52361  17.553  30.738   7.053
 9073POPC   C4A52362  17.487  30.718   7.353
 9073POPC   C1B52363  17.761  30.841   6.453
 9073POPC   C2B52364  17.727  30.773   6.753
 9073POPC   C3B52365  17.770  30.772   7.053
 9073POPC   C4B52366  17.717  30.759   7.353
 9074POPC   NC352367  19.100  11.308   5.553
 9074POPC   PO452368  19.088  11.258   5.853
 9074POPC   GL152369  19.103  11.319   6.153
 9074POPC   GL252370  19.183  11.250   6.153
 9074POPC   C1A52371  19.037  11.294   6.453
 9074POPC   D2A52372  19.085  11.338   6.753
 9074POPC   C3A52373  19.091  11.252   7.053
 9074POPC   C4A52374  19.028  11.343   7.353
 9074POPC   C1B52375  19.279  11.288   6.453
 9074POPC   C2B52376  19.343  11.236   6.753
 9074POPC   C3B52377  19.268  11.221   7.053
 9074POPC   C4B52378  19.308  11.289   7.353
 9075POPC   NC352379  39.993  27.564   5.553
 9075POPC   PO452380  40.020  27.559   5.853
 9075POPC   GL152381  40.020  27.563   6.153
 9075POPC   GL252382  39.992  27.480   6.153
 9075POPC   C1A52383  40.028  27.612   6.453
 9075POPC   D2A52384  40.006  27.563   6.753
 9075POPC   C3A52385  40.027  27.594   7.053
 9075POPC   C4A52386  40.044  27.612   7.353
 9075POPC   C1B52387  39.877  27.372   6.453
 9075POPC   C2B52388  39.860  27.395   6.753
 9075POPC   C3B52389  39.884  27.333   7.053
 9075POPC   C4B52390  39.924  27.393   7.353
 9076POPC   NC352391  36.164  33.058   5.553
 9076POPC   PO452392  36.167  33.049   5.853
 9076POPC   GL152393  36.144  33.029   6.153
 9076POPC   GL252394  36.214  32.969   6.153
 9076POPC   C1A52395  36.133  33.061   6.453
 9076POPC   D2A52396  36.106  32.991   6.753
 9076POPC   C3A52397  36.092  33.005   7.053
 9076POPC   C4A52398  36.172  33.056   7.353
 9076POPC   C1B52399  36.289  32.878   6.453
 9076POPC   C2B52400  36.331  32.918   6.753
 9076POPC   C3B52401  36.368  32.929   7.053
 9076POPC   C4B52402  36.359  32.893   7.353
 9077POPC   NC352403  12.040  18.245   5.553
 9077POPC   PO452404  12.119  18.278   5.853
 9077POPC   GL152405  12.081  18.328   6.153
 9077POPC   GL252406  12.009  18.371   6.153
 9077POPC   C1A52407  12.038  18.315   6.453
 9077POPC   D2A52408  12.093  18.329   6.753
 9077POPC   C3A52409  12.091  18.260   7.053
 9077POPC   C4A52410  12.033  18.298   7.353
 9077POPC   C1B52411  12.061  18.537   6.453
 9077POPC   C2B52412  12.079  18.565   6.753
 9077POPC   C3B52413  12.042  18.531   7.053
 9077POPC   C4B52414  12.057  18.509   7.353
 9078POPC   NC352415  43.852  14.403   5.553
 9078POPC   PO452416  43.878  14.429   5.853
 9078POPC   GL152417  43.853  14.407   6.153
 9078POPC   GL252418  43.750  14.497   6.153
 9078POPC   C1A52419  43.899  14.381   6.453
 9078POPC   D2A52420  43.840  14.433   6.753
 9078POPC   C3A52421  43.925  14.429   7.053
 9078POPC   C4A52422  43.929  14.445   7.353
 9078POPC   C1B52423  43.698  14.562   6.453
 9078POPC   C2B52424  43.660  14.530   6.753
 9078POPC   C3B52425  43.654  14.607   7.053
 9078POPC   C4B52426  43.725  14.526   7.353
 9079POPC   NC352427  12.114  13.587   5.553
 9079POPC   PO452428  12.070  13.646   5.853
 9079POPC   GL152429  12.097  13.598   6.153
 9079POPC   GL252430  11.940  13.701   6.153
 9079POPC   C1A52431  12.107  13.596   6.453
 9079POPC   D2A52432  12.078  13.590   6.753
 9079POPC   C3A52433  12.043  13.654   7.053
 9079POPC   C4A52434  12.031  13.619   7.353
 9079POPC   C1B52435  11.823  13.728   6.453
 9079POPC   C2B52436  11.859  13.666   6.753
 9079POPC   C3B52437  11.803  13.740   7.053
 9079POPC   C4B52438  11.830  13.747   7.353
 9080POPC   NC352439  33.014  19.848   5.553
 9080POPC   PO452440  33.059  19.860   5.853
 9080POPC   GL152441  32.995  19.820   6.153
 9080POPC   GL252442  33.101  19.779   6.153
 9080POPC   C1A52443  33.065  19.824   6.453
 9080POPC   D2A52444  32.990  19.785   6.753
 9080POPC   C3A52445  33.004  19.845   7.053
 9080POPC   C4A52446  33.005  19.867   7.353
 9080POPC   C1B52447  33.225  19.774   6.453
 9080POPC   C2B52448  33.279  19.812   6.753
 9080POPC   C3B52449  33.294  19.812   7.053
 9080POPC   C4B52450  33.259  19.851   7.353
 9081POPC   NC352451  23.673  33.809   5.553
 9081POPC   PO452452  23.697  33.800   5.853
 9081POPC   GL152453  23.707  33.789   6.153
 9081POPC   GL252454  23.829  33.841   6.153
 9081POPC   C1A52455  23.687  33.810   6.453
 9081POPC   D2A52456  23.739  33.766   6.753
 9081POPC   C3A52457  23.708  33.761   7.053
 9081POPC   C4A52458  23.727  33.821   7.353
 9081POPC   C1B52459  23.930  33.866   6.453
 9081POPC   C2B52460  23.948  33.947   6.753
 9081POPC   C3B52461  23.918  33.920   7.053
 9081POPC   C4B52462  23.968  33.937   7.353
 9082POPC   NC352463  19.068   2.723   5.553
 9082POPC   PO452464  19.054   2.808   5.853
 9082POPC   GL152465  19.023   2.812   6.153
 9082POPC   GL252466  18.909   2.758   6.153
 9082POPC   C1A52467  19.016   2.805   6.453
 9082POPC   D2A52468  19.057   2.767   6.753
 9082POPC   C3A52469  19.030   2.757   7.053
 9082POPC   C4A52470  19.022   2.815   7.353
 9082POPC   C1B52471  18.825   2.708   6.453
 9082POPC   C2B52472  18.808   2.745   6.753
 9082POPC   C3B52473  18.856   2.733   7.053
 9082POPC   C4B52474  18.818   2.678   7.353
 9083POPC   NC352475  39.964  29.168   5.553
 9083POPC   PO452476  39.996  29.161   5.853
 9083POPC   GL152477  39.959  29.178   6.153
 9083POPC   GL252478  39.988  29.240   6.153
 9083POPC   C1A52479  39.994  29.131   6.453
 9083POPC   D2A52480  40.041  29.119   6.753
 9083POPC   C3A52481  39.963  29.151   7.053
 9083POPC   C4A52482  40.008  29.098   7.353
 9083POPC   C1B52483  39.953  29.414   6.453
 9083POPC   C2B52484  39.952  29.345   6.753
 9083POPC   C3B52485  39.962  29.400   7.053
 9083POPC   C4B52486  39.937  29.397   7.353
 9084POPC   NC352487   5.050  19.094   5.553
 9084POPC   PO452488   5.044  19.045   5.853
 9084POPC   GL152489   5.101  19.029   6.153
 9084POPC   GL252490   5.068  18.978   6.153
 9084POPC   C1A52491   5.071  19.052   6.453
 9084POPC   D2A52492   5.096  19.073   6.753
 9084POPC   C3A52493   5.090  19.083   7.053
 9084POPC   C4A52494   5.069  19.108   7.353
 9084POPC   C1B52495   5.131  18.853   6.453
 9084POPC   C2B52496   5.094  18.805   6.753
 9084POPC   C3B52497   5.089  18.843   7.053
 9084POPC   C4B52498   5.102  18.830   7.353
 9085POPC   NC352499  18.239   9.699   5.553
 9085POPC   PO452500  18.285   9.743   5.853
 9085POPC   GL152501  18.268   9.766   6.153
 9085POPC   GL252502  18.207   9.740   6.153
 9085POPC   C1A52503  18.269   9.737   6.453
 9085POPC   D2A52504  18.279   9.744   6.753
 9085POPC   C3A52505  18.253   9.772   7.053
 9085POPC   C4A52506  18.233   9.712   7.353
 9085POPC   C1B52507  18.082   9.636   6.453
 9085POPC   C2B52508  18.052   9.624   6.753
 9085POPC   C3B52509  18.022   9.652   7.053
 9085POPC   C4B52510  18.030   9.709   7.353
 9086POPC   NC352511  41.515  24.478   5.553
 9086POPC   PO452512  41.511  24.449   5.853
 9086POPC   GL152513  41.589  24.442   6.153
 9086POPC   GL252514  41.603  24.630   6.153
 9086POPC   C1A52515  41.554  24.454   6.453
 9086POPC   D2A52516  41.567  24.444   6.753
 9086POPC   C3A52517  41.589  24.469   7.053
 9086POPC   C4A52518  41.541  24.494   7.353
 9086POPC   C1B52519  41.584  24.704   6.453
 9086POPC   C2B52520  41.522  24.696   6.753
 9086POPC   C3B52521  41.600  24.789   7.053
 9086POPC   C4B52522  41.532  24.707   7.353
 9087POPC   NC352523   2.725  15.925   5.553
 9087POPC   PO452524   2.797  15.949   5.853
 9087POPC   GL152525   2.750  15.917   6.153
 9087POPC   GL252526   2.683  15.952   6.153
 9087POPC   C1A52527   2.775  15.939   6.453
 9087POPC   D2A52528   2.747  15.983   6.753
 9087POPC   C3A52529   2.774  15.914   7.053
 9087POPC   C4A52530   2.716  16.002   7.353
 9087POPC   C1B52531   2.512  15.896   6.453
 9087POPC   C2B52532   2.488  15.874   6.753
 9087POPC   C3B52533   2.532  15.884   7.053
 9087POPC   C4B52534   2.508  15.894   7.353
 9088POPC   NC352535   6.639  35.358   5.553
 9088POPC   PO452536   6.595  35.345   5.853
 9088POPC   GL152537   6.621  35.364   6.153
 9088POPC   GL252538   6.733  35.357   6.153
 9088POPC   C1A52539   6.672  35.339   6.453
 9088POPC   D2A52540   6.610  35.326   6.753
 9088POPC   C3A52541   6.639  35.372   7.053
 9088POPC   C4A52542   6.653  35.345   7.353
 9088POPC   C1B52543   6.894  35.437   6.453
 9088POPC   C2B52544   6.935  35.380   6.753
 9088POPC   C3B52545   6.926  35.424   7.053
 9088POPC   C4B52546   6.935  35.405   7.353
 9089POPC   NC352547  22.937   1.219   5.553
 9089POPC   PO452548  22.917   1.263   5.853
 9089POPC   GL152549  22.927   1.185   6.153
 9089POPC   GL252550  22.858   1.195   6.153
 9089POPC   C1A52551  22.905   1.172   6.453
 9089POPC   D2A52552  22.932   1.252   6.753
 9089POPC   C3A52553  22.958   1.205   7.053
 9089POPC   C4A52554  22.923   1.180   7.353
 9089POPC   C1B52555  22.743   1.303   6.453
 9089POPC   C2B52556  22.673   1.282   6.753
 9089POPC   C3B52557  22.693   1.269   7.053
 9089POPC   C4B52558  22.679   1.281   7.353
 9090POPC   NC352559   6.632  43.150   5.553
 9090POPC   PO452560   6.656  43.127   5.853
 9090POPC   GL152561   6.606  43.088   6.153
 9090POPC   GL252562   6.725  43.026   6.153
 9090POPC   C1A52563   6.639  43.116   6.453
 9090POPC   D2A52564   6.676  43.123   6.753
 9090POPC   C3A52565   6.680  43.099   7.053
 9090POPC   C4A52566   6.620  43.094   7.353
 9090POPC   C1B52567   6.857  42.942   6.453
 9090POPC   C2B52568   6.795  42.963   6.753
 9090POPC   C3B52569   6.791  42.895   7.053
 9090POPC   C4B52570   6.826  42.947   7.353
 9091POPC   NC352571  28.327  13.653   5.553
 9091POPC   PO452572  28.379  13.586   5.853
 9091POPC   GL152573  28.328  13.636   6.153
 9091POPC   GL252574  28.520  13.694   6.153
 9091POPC   C1A52575  28.393  13.654   6.453
 9091POPC   D2A52576  28.331  13.601   6.753
 9091POPC   C3A52577  28.348  13.674   7.053
 9091POPC   C4A52578  28.359  13.669   7.353
 9091POPC   C1B52579  28.610  13.766   6.453
 9091POPC   C2B52580  28.624  13.764   6.753
 9091POPC   C3B52581  28.594  13.734   7.053
 9091POPC   C4B52582  28.589  13.782   7.353
 9092POPC   NC352583  44.700  15.917   5.553
 9092POPC   PO452584  44.676  15.949   5.853
 9092POPC   GL152585  44.711  15.911   6.153
 9092POPC   GL252586  44.614  15.881   6.153
 9092POPC   C1A52587  44.701  15.917   6.453
 9092POPC   D2A52588  44.712  15.997   6.753
 9092POPC   C3A52589  44.682  15.912   7.053
 9092POPC   C4A52590  44.679  15.972   7.353
 9092POPC   C1B52591  44.621  15.695   6.453
 9092POPC   C2B52592  44.594  15.690   6.753
 9092POPC   C3B52593  44.566  15.724   7.053
 9092POPC   C4B52594  44.613  15.674   7.353
 9093POPC   NC352595  33.755  32.281   5.553
 9093POPC   PO452596  33.831  32.235   5.853
 9093POPC   GL152597  33.818  32.227   6.153
 9093POPC   GL252598  33.849  32.366   6.153
 9093POPC   C1A52599  33.764  32.275   6.453
 9093POPC   D2A52600  33.768  32.244   6.753
 9093POPC   C3A52601  33.815  32.269   7.053
 9093POPC   C4A52602  33.783  32.244   7.353
 9093POPC   C1B52603  33.865  32.455   6.453
 9093POPC   C2B52604  33.890  32.526   6.753
 9093POPC   C3B52605  33.863  32.455   7.053
 9093POPC   C4B52606  33.878  32.541   7.353
 9094POPC   NC352607  41.551  26.090   5.553
 9094POPC   PO452608  41.608  26.064   5.853
 9094POPC   GL152609  41.515  26.075   6.153
 9094POPC   GL252610  41.674  25.950   6.153
 9094POPC   C1A52611  41.527  26.083   6.453
 9094POPC   D2A52612  41.587  26.079   6.753
 9094POPC   C3A52613  41.606  26.036   7.053
 9094POPC   C4A52614  41.578  26.075   7.353
 9094POPC   C1B52615  41.770  25.900   6.453
 9094POPC   C2B52616  41.762  25.945   6.753
 9094POPC   C3B52617  41.804  25.959   7.053
 9094POPC   C4B52618  41.748  25.925   7.353
 9095POPC   NC352619  18.304  29.105   5.553
 9095POPC   PO452620  18.237  29.106   5.853
 9095POPC   GL152621  18.291  29.126   6.153
 9095POPC   GL252622  18.388  29.224   6.153
 9095POPC   C1A52623  18.318  29.126   6.453
 9095POPC   D2A52624  18.269  29.105   6.753
 9095POPC   C3A52625  18.251  29.181   7.053
 9095POPC   C4A52626  18.315  29.126   7.353
 9095POPC   C1B52627  18.540  29.213   6.453
 9095POPC   C2B52628  18.562  29.213   6.753
 9095POPC   C3B52629  18.509  29.231   7.053
 9095POPC   C4B52630  18.548  29.253   7.353
 9096POPC   NC352631   8.194   9.717   5.553
 9096POPC   PO452632   8.179   9.779   5.853
 9096POPC   GL152633   8.192   9.748   6.153
 9096POPC   GL252634   8.228   9.574   6.153
 9096POPC   C1A52635   8.191   9.732   6.453
 9096POPC   D2A52636   8.203   9.706   6.753
 9096POPC   C3A52637   8.230   9.706   7.053
 9096POPC   C4A52638   8.225   9.772   7.353
 9096POPC   C1B52639   8.264   9.538   6.453
 9096POPC   C2B52640   8.193   9.460   6.753
 9096POPC   C3B52641   8.214   9.468   7.053
 9096POPC   C4B52642   8.259   9.512   7.353
 9097POPC   NC352643   0.408  40.053   5.553
 9097POPC   PO452644   0.450  40.018   5.853
 9097POPC   GL152645   0.407  39.996   6.153
 9097POPC   GL252646   0.382  39.864   6.153
 9097POPC   C1A52647   0.458  39.984   6.453
 9097POPC   D2A52648   0.475  40.024   6.753
 9097POPC   C3A52649   0.397  40.040   7.053
 9097POPC   C4A52650   0.430  40.042   7.353
 9097POPC   C1B52651   0.436  39.757   6.453
 9097POPC   C2B52652   0.366  39.770   6.753
 9097POPC   C3B52653   0.429  39.720   7.053
 9097POPC   C4B52654   0.363  39.774   7.353
 9098POPC   NC352655  17.466   8.975   5.553
 9098POPC   PO452656  17.516   8.970   5.853
 9098POPC   GL152657  17.534   8.948   6.153
 9098POPC   GL252658  17.556   8.880   6.153
 9098POPC   C1A52659  17.505   8.964   6.453
 9098POPC   D2A52660  17.458   8.960   6.753
 9098POPC   C3A52661  17.525   8.948   7.053
 9098POPC   C4A52662  17.467   8.965   7.353
 9098POPC   C1B52663  17.666   8.778   6.453
 9098POPC   C2B52664  17.702   8.804   6.753
 9098POPC   C3B52665  17.688   8.751   7.053
 9098POPC   C4B52666  17.694   8.821   7.353
 9099POPC   NC352667  40.802   5.111   5.553
 9099POPC   PO452668  40.778   5.070   5.853
 9099POPC   GL152669  40.741   5.064   6.153
 9099POPC   GL252670  40.712   5.241   6.153
 9099POPC   C1A52671  40.774   5.100   6.453
 9099POPC   D2A52672  40.800   5.112   6.753
 9099POPC   C3A52673  40.749   5.100   7.053
 9099POPC   C4A52674  40.756   5.095   7.353
 9099POPC   C1B52675  40.723   5.321   6.453
 9099POPC   C2B52676  40.770   5.319   6.753
 9099POPC   C3B52677  40.714   5.334   7.053
 9099POPC   C4B52678  40.760   5.316   7.353
 9100POPC   NC352679  29.153  33.072   5.553
 9100POPC   PO452680  29.191  32.988   5.853
 9100POPC   GL152681  29.185  32.989   6.153
 9100POPC   GL252682  29.020  32.964   6.153
 9100POPC   C1A52683  29.180  33.051   6.453
 9100POPC   D2A52684  29.156  33.020   6.753
 9100POPC   C3A52685  29.187  33.016   7.053
 9100POPC   C4A52686  29.108  33.036   7.353
 9100POPC   C1B52687  28.886  32.891   6.453
 9100POPC   C2B52688  28.903  32.899   6.753
 9100POPC   C3B52689  28.955  32.904   7.053
 9100POPC   C4B52690  28.872  32.964   7.353
 9101POPC   NC352691  18.245  31.504   5.553
 9101POPC   PO452692  18.249  31.429   5.853
 9101POPC   GL152693  18.266  31.477   6.153
 9101POPC   GL252694  18.234  31.609   6.153
 9101POPC   C1A52695  18.290  31.443   6.453
 9101POPC   D2A52696  18.314  31.485   6.753
 9101POPC   C3A52697  18.253  31.491   7.053
 9101POPC   C4A52698  18.255  31.458   7.353
 9101POPC   C1B52699  18.084  31.640   6.453
 9101POPC   C2B52700  18.130  31.711   6.753
 9101POPC   C3B52701  18.155  31.689   7.053
 9101POPC   C4B52702  18.133  31.658   7.353
 9102POPC   NC352703  15.906   0.461   5.553
 9102POPC   PO452704  15.987   0.484   5.853
 9102POPC   GL152705  15.925   0.483   6.153
 9102POPC   GL252706  16.076   0.428   6.153
 9102POPC   C1A52707  15.926   0.411   6.453
 9102POPC   D2A52708  15.980   0.392   6.753
 9102POPC   C3A52709  15.917   0.389   7.053
 9102POPC   C4A52710  15.944   0.446   7.353
 9102POPC   C1B52711  16.166   0.447   6.453
 9102POPC   C2B52712  16.184   0.382   6.753
 9102POPC   C3B52713  16.178   0.397   7.053
 9102POPC   C4B52714  16.188   0.400   7.353
 9103POPC   NC352715  24.517  31.495   5.553
 9103POPC   PO452716  24.512  31.508   5.853
 9103POPC   GL152717  24.501  31.470   6.153
 9103POPC   GL252718  24.508  31.331   6.153
 9103POPC   C1A52719  24.520  31.473   6.453
 9103POPC   D2A52720  24.453  31.473   6.753
 9103POPC   C3A52721  24.530  31.463   7.053
 9103POPC   C4A52722  24.479  31.513   7.353
 9103POPC   C1B52723  24.547  31.254   6.453
 9103POPC   C2B52724  24.541  31.274   6.753
 9103POPC   C3B52725  24.529  31.258   7.053
 9103POPC   C4B52726  24.546  31.201   7.353
 9104POPC   NC352727  23.744  39.228   5.553
 9104POPC   PO452728  23.682  39.187   5.853
 9104POPC   GL152729  23.701  39.242   6.153
 9104POPC   GL252730  23.604  39.188   6.153
 9104POPC   C1A52731  23.692  39.253   6.453
 9104POPC   D2A52732  23.718  39.258   6.753
 9104POPC   C3A52733  23.698  39.199   7.053
 9104POPC   C4A52734  23.687  39.213   7.353
 9104POPC   C1B52735  23.559  39.057   6.453
 9104POPC   C2B52736  23.543  39.018   6.753
 9104POPC   C3B52737  23.524  39.065   7.053
 9104POPC   C4B52738  23.549  39.075   7.353
 9105POPC   NC352739  43.095  34.605   5.553
 9105POPC   PO452740  43.137  34.542   5.853
 9105POPC   GL152741  43.078  34.582   6.153
 9105POPC   GL252742  43.097  34.425   6.153
 9105POPC   C1A52743  43.150  34.576   6.453
 9105POPC   D2A52744  43.140  34.605   6.753
 9105POPC   C3A52745  43.098  34.574   7.053
 9105POPC   C4A52746  43.109  34.599   7.353
 9105POPC   C1B52747  43.196  34.358   6.453
 9105POPC   C2B52748  43.135  34.335   6.753
 9105POPC   C3B52749  43.186  34.315   7.053
 9105POPC   C4B52750  43.218  34.352   7.353
 9106POPC   NC352751   1.188  24.484   5.553
 9106POPC   PO452752   1.229  24.483   5.853
 9106POPC   GL152753   1.212  24.442   6.153
 9106POPC   GL252754   1.100  24.493   6.153
 9106POPC   C1A52755   1.167  24.453   6.453
 9106POPC   D2A52756   1.235  24.441   6.753
 9106POPC   C3A52757   1.225  24.473   7.053
 9106POPC   C4A52758   1.215  24.523   7.353
 9106POPC   C1B52759   1.005  24.453   6.453
 9106POPC   C2B52760   0.987  24.428   6.753
 9106POPC   C3B52761   0.985  24.496   7.053
 9106POPC   C4B52762   1.004  24.439   7.353
 9107POPC   NC352763  20.582  27.575   5.553
 9107POPC   PO452764  20.618  27.641   5.853
 9107POPC   GL152765  20.602  27.587   6.153
 9107POPC   GL252766  20.498  27.663   6.153
 9107POPC   C1A52767  20.600  27.596   6.453
 9107POPC   D2A52768  20.598  27.580   6.753
 9107POPC   C3A52769  20.636  27.559   7.053
 9107POPC   C4A52770  20.644  27.637   7.353
 9107POPC   C1B52771  20.441  27.787   6.453
 9107POPC   C2B52772  20.436  27.810   6.753
 9107POPC   C3B52773  20.422  27.739   7.053
 9107POPC   C4B52774  20.472  27.753   7.353
 9108POPC   NC352775  33.062  12.873   5.553
 9108POPC   PO452776  33.053  12.853   5.853
 9108POPC   GL152777  33.036  12.878   6.153
 9108POPC   GL252778  32.916  12.928   6.153
 9108POPC   C1A52779  33.023  12.867   6.453
 9108POPC   D2A52780  33.025  12.893   6.753
 9108POPC   C3A52781  33.069  12.873   7.053
 9108POPC   C4A52782  32.987  12.826   7.353
 9108POPC   C1B52783  32.947  13.058   6.453
 9108POPC   C2B52784  32.932  13.076   6.753
 9108POPC   C3B52785  32.857  13.043   7.053
 9108POPC   C4B52786  32.866  13.041   7.353
 9109POPC   NC352787  42.375  42.304   5.553
 9109POPC   PO452788  42.364  42.364   5.853
 9109POPC   GL152789  42.357  42.335   6.153
 9109POPC   GL252790  42.354  42.460   6.153
 9109POPC   C1A52791  42.298  42.313   6.453
 9109POPC   D2A52792  42.363  42.368   6.753
 9109POPC   C3A52793  42.322  42.311   7.053
 9109POPC   C4A52794  42.301  42.293   7.353
 9109POPC   C1B52795  42.449  42.549   6.453
 9109POPC   C2B52796  42.425  42.601   6.753
 9109POPC   C3B52797  42.423  42.585   7.053
 9109POPC   C4B52798  42.434  42.589   7.353
 9110POPC   NC352799  28.384  30.656   5.553
 9110POPC   PO452800  28.340  30.697   5.853
 9110POPC   GL152801  28.363  30.709   6.153
 9110POPC   GL252802  28.469  30.762   6.153
 9110POPC   C1A52803  28.405  30.667   6.453
 9110POPC   D2A52804  28.331  30.709   6.753
 9110POPC   C3A52805  28.394  30.741   7.053
 9110POPC   C4A52806  28.379  30.675   7.353
 9110POPC   C1B52807  28.473  30.873   6.453
 9110POPC   C2B52808  28.497  30.897   6.753
 9110POPC   C3B52809  28.497  30.919   7.053
 9110POPC   C4B52810  28.525  30.887   7.353
 9111POPC   NC352811  33.058  44.641   5.553
 9111POPC   PO452812  33.072  44.624   5.853
 9111POPC   GL152813  33.017  44.621   6.153
 9111POPC   GL252814  33.107  44.746   6.153
 9111POPC   C1A52815  33.068  44.649   6.453
 9111POPC   D2A52816  33.026  44.697   6.753
 9111POPC   C3A52817  33.052  44.709   7.053
 9111POPC   C4A52818  32.981  44.682   7.353
 9111POPC   C1B52819  33.197  44.845   6.453
 9111POPC   C2B52820  33.251  44.822   6.753
 9111POPC   C3B52821  33.255  44.823   7.053
 9111POPC   C4B52822  33.243  44.785   7.353
 9112POPC   NC352823  30.672  38.408   5.553
 9112POPC   PO452824  30.655  38.491   5.853
 9112POPC   GL152825  30.701  38.482   6.153
 9112POPC   GL252826  30.790  38.429   6.153
 9112POPC   C1A52827  30.733  38.501   6.453
 9112POPC   D2A52828  30.647  38.452   6.753
 9112POPC   C3A52829  30.678  38.490   7.053
 9112POPC   C4A52830  30.676  38.421   7.353
 9112POPC   C1B52831  30.931  38.426   6.453
 9112POPC   C2B52832  30.922  38.506   6.753
 9112POPC   C3B52833  30.940  38.442   7.053
 9112POPC   C4B52834  30.972  38.500   7.353
 9113POPC   NC352835  28.350  34.607   5.553
 9113POPC   PO452836  28.340  34.537   5.853
 9113POPC   GL152837  28.358  34.590   6.153
 9113POPC   GL252838  28.525  34.585   6.153
 9113POPC   C1A52839  28.334  34.568   6.453
 9113POPC   D2A52840  28.331  34.546   6.753
 9113POPC   C3A52841  28.390  34.570   7.053
 9113POPC   C4A52842  28.377  34.607   7.353
 9113POPC   C1B52843  28.617  34.554   6.453
 9113POPC   C2B52844  28.647  34.463   6.753
 9113POPC   C3B52845  28.591  34.478   7.053
 9113POPC   C4B52846  28.658  34.535   7.353
 9114POPC   NC352847  33.825   9.723   5.553
 9114POPC   PO452848  33.768   9.795   5.853
 9114POPC   GL152849  33.762   9.783   6.153
 9114POPC   GL252850  33.775   9.643   6.153
 9114POPC   C1A52851  33.798   9.770   6.453
 9114POPC   D2A52852  33.811   9.775   6.753
 9114POPC   C3A52853  33.759   9.708   7.053
 9114POPC   C4A52854  33.831   9.735   7.353
 9114POPC   C1B52855  33.839   9.550   6.453
 9114POPC   C2B52856  33.787   9.479   6.753
 9114POPC   C3B52857  33.880   9.521   7.053
 9114POPC   C4B52858  33.826   9.527   7.353
 9115POPC   NC352859  28.352   5.131   5.553
 9115POPC   PO452860  28.393   5.070   5.853
 9115POPC   GL152861  28.401   5.104   6.153
 9115POPC   GL252862  28.328   4.985   6.153
 9115POPC   C1A52863  28.329   5.094   6.453
 9115POPC   D2A52864  28.408   5.085   6.753
 9115POPC   C3A52865  28.376   5.097   7.053
 9115POPC   C4A52866  28.353   5.102   7.353
 9115POPC   C1B52867  28.288   4.818   6.453
 9115POPC   C2B52868  28.286   4.883   6.753
 9115POPC   C3B52869  28.325   4.873   7.053
 9115POPC   C4B52870  28.294   4.886   7.353
 9116POPC   NC352871  24.534  12.064   5.553
 9116POPC   PO452872  24.515  12.094   5.853
 9116POPC   GL152873  24.529  12.071   6.153
 9116POPC   GL252874  24.423  12.154   6.153
 9116POPC   C1A52875  24.535  12.078   6.453
 9116POPC   D2A52876  24.531  12.060   6.753
 9116POPC   C3A52877  24.447  12.120   7.053
 9116POPC   C4A52878  24.490  12.046   7.353
 9116POPC   C1B52879  24.390  12.263   6.453
 9116POPC   C2B52880  24.428  12.281   6.753
 9116POPC   C3B52881  24.420  12.324   7.053
 9116POPC   C4B52882  24.394  12.318   7.353
 9117POPC   NC352883  18.256  13.616   5.553
 9117POPC   PO452884  18.247  13.639   5.853
 9117POPC   GL152885  18.311  13.657   6.153
 9117POPC   GL252886  18.448  13.668   6.153
 9117POPC   C1A52887  18.327  13.653   6.453
 9117POPC   D2A52888  18.324  13.591   6.753
 9117POPC   C3A52889  18.269  13.579   7.053
 9117POPC   C4A52890  18.280  13.615   7.353
 9117POPC   C1B52891  18.579  13.603   6.453
 9117POPC   C2B52892  18.499  13.646   6.753
 9117POPC   C3B52893  18.550  13.578   7.053
 9117POPC   C4B52894  18.526  13.606   7.353
 9118POPC   NC352895  43.890   2.732   5.553
 9118POPC   PO452896  43.923   2.725   5.853
 9118POPC   GL152897  43.879   2.769   6.153
 9118POPC   GL252898  43.894   2.635   6.153
 9118POPC   C1A52899  43.884   2.722   6.453
 9118POPC   D2A52900  43.858   2.776   6.753
 9118POPC   C3A52901  43.883   2.732   7.053
 9118POPC   C4A52902  43.919   2.807   7.353
 9118POPC   C1B52903  44.000   2.569   6.453
 9118POPC   C2B52904  44.017   2.525   6.753
 9118POPC   C3B52905  43.933   2.570   7.053
 9118POPC   C4B52906  43.934   2.488   7.353
 9119POPC   NC352907  15.910  25.998   5.553
 9119POPC   PO452908  15.963  26.086   5.853
 9119POPC   GL152909  15.942  26.070   6.153
 9119POPC   GL252910  15.816  26.064   6.153
 9119POPC   C1A52911  15.911  25.993   6.453
 9119POPC   D2A52912  15.947  26.058   6.753
 9119POPC   C3A52913  15.907  25.996   7.053
 9119POPC   C4A52914  15.954  26.027   7.353
 9119POPC   C1B52915  15.689  26.071   6.453
 9119POPC   C2B52916  15.719  26.077   6.753
 9119POPC   C3B52917  15.712  26.013   7.053
 9119POPC   C4B52918  15.706  26.066   7.353
 9120POPC   NC352919  27.582   3.560   5.553
 9120POPC   PO452920  27.637   3.570   5.853
 9120POPC   GL152921  27.605   3.556   6.153
 9120POPC   GL252922  27.541   3.406   6.153
 9120POPC   C1A52923  27.638   3.495   6.453
 9120POPC   D2A52924  27.619   3.531   6.753
 9120POPC   C3A52925  27.622   3.507   7.053
 9120POPC   C4A52926  27.605   3.527   7.353
 9120POPC   C1B52927  27.542   3.259   6.453
 9120POPC   C2B52928  27.483   3.291   6.753
 9120POPC   C3B52929  27.567   3.258   7.053
 9120POPC   C4B52930  27.565   3.338   7.353
 9121POPC   NC352931  29.902  36.876   5.553
 9121POPC   PO452932  29.963  36.893   5.853
 9121POPC   GL152933  29.957  36.870   6.153
 9121POPC   GL252934  29.945  36.981   6.153
 9121POPC   C1A52935  29.915  36.864   6.453
 9121POPC   D2A52936  29.913  36.865   6.753
 9121POPC   C3A52937  29.965  36.869   7.053
 9121POPC   C4A52938  29.940  36.870   7.353
 9121POPC   C1B52939  30.019  37.118   6.453
 9121POPC   C2B52940  30.039  37.121   6.753
 9121POPC   C3B52941  30.041  37.103   7.053
 9121POPC   C4B52942  30.032  37.138   7.353
 9122POPC   NC352943  20.649  15.985   5.553
 9122POPC   PO452944  20.629  15.952   5.853
 9122POPC   GL152945  20.650  16.003   6.153
 9122POPC   GL252946  20.445  16.026   6.153
 9122POPC   C1A52947  20.599  15.957   6.453
 9122POPC   D2A52948  20.568  15.974   6.753
 9122POPC   C3A52949  20.653  15.944   7.053
 9122POPC   C4A52950  20.623  15.995   7.353
 9122POPC   C1B52951  20.340  15.994   6.453
 9122POPC   C2B52952  20.352  15.984   6.753
 9122POPC   C3B52953  20.378  16.025   7.053
 9122POPC   C4B52954  20.328  16.022   7.353
 9123POPC   NC352955  23.710   5.074   5.553
 9123POPC   PO452956  23.747   5.069   5.853
 9123POPC   GL152957  23.678   5.092   6.153
 9123POPC   GL252958  23.616   5.211   6.153
 9123POPC   C1A52959  23.689   5.100   6.453
 9123POPC   D2A52960  23.725   5.137   6.753
 9123POPC   C3A52961  23.670   5.107   7.053
 9123POPC   C4A52962  23.683   5.126   7.353
 9123POPC   C1B52963  23.492   5.251   6.453
 9123POPC   C2B52964  23.564   5.315   6.753
 9123POPC   C3B52965  23.579   5.275   7.053
 9123POPC   C4B52966  23.551   5.247   7.353
 9124POPC   NC352967  36.127  39.993   5.553
 9124POPC   PO452968  36.141  39.976   5.853
 9124POPC   GL152969  36.124  40.029   6.153
 9124POPC   GL252970  35.963  40.073   6.153
 9124POPC   C1A52971  36.103  39.961   6.453
 9124POPC   D2A52972  36.143  40.011   6.753
 9124POPC   C3A52973  36.098  40.021   7.053
 9124POPC   C4A52974  36.124  40.026   7.353
 9124POPC   C1B52975  35.906  40.093   6.453
 9124POPC   C2B52976  35.885  40.138   6.753
 9124POPC   C3B52977  35.922  40.153   7.053
 9124POPC   C4B52978  35.910  40.098   7.353
 9125POPC   NC352979  23.698  32.994   5.553
 9125POPC   PO452980  23.738  33.047   5.853
 9125POPC   GL152981  23.735  33.024   6.153
 9125POPC   GL252982  23.590  32.937   6.153
 9125POPC   C1A52983  23.673  33.034   6.453
 9125POPC   D2A52984  23.740  33.025   6.753
 9125POPC   C3A52985  23.741  32.990   7.053
 9125POPC   C4A52986  23.690  33.055   7.353
 9125POPC   C1B52987  23.505  32.939   6.453
 9125POPC   C2B52988  23.476  32.861   6.753
 9125POPC   C3B52989  23.467  32.930   7.053
 9125POPC   C4B52990  23.490  32.921   7.353
 9126POPC   NC352991  19.091  16.762   5.553
 9126POPC   PO452992  19.075  16.745   5.853
 9126POPC   GL152993  19.107  16.745   6.153
 9126POPC   GL252994  19.003  16.832   6.153
 9126POPC   C1A52995  19.038  16.683   6.453
 9126POPC   D2A52996  19.099  16.697   6.753
 9126POPC   C3A52997  19.015  16.732   7.053
 9126POPC   C4A52998  19.108  16.755   7.353
 9126POPC   C1B52999  18.913  16.891   6.453
 9126POPC   C2B53000  18.834  16.862   6.753
 9126POPC   C3B53001  18.896  16.881   7.053
 9126POPC   C4B53002  18.830  16.941   7.353
 9127POPC   NC353003  38.464   5.062   5.553
 9127POPC   PO453004  38.470   5.089   5.853
 9127POPC   GL153005  38.489   5.118   6.153
 9127POPC   GL253006  38.345   5.042   6.153
 9127POPC   C1A53007  38.460   5.115   6.453
 9127POPC   D2A53008  38.479   5.074   6.753
 9127POPC   C3A53009  38.493   5.054   7.053
 9127POPC   C4A53010  38.500   5.134   7.353
 9127POPC   C1B53011  38.250   5.083   6.453
 9127POPC   C2B53012  38.254   5.087   6.753
 9127POPC   C3B53013  38.227   5.081   7.053
 9127POPC   C4B53014  38.202   5.041   7.353
 9128POPC   NC353015  14.447   6.654   5.553
 9128POPC   PO453016  14.383   6.679   5.853
 9128POPC   GL153017  14.431   6.628   6.153
 9128POPC   GL253018  14.455   6.528   6.153
 9128POPC   C1A53019  14.399   6.685   6.453
 9128POPC   D2A53020  14.387   6.613   6.753
 9128POPC   C3A53021  14.445   6.647   7.053
 9128POPC   C4A53022  14.413   6.604   7.353
 9128POPC   C1B53023  14.502   6.445   6.453
 9128POPC   C2B53024  14.528   6.363   6.753
 9128POPC   C3B53025  14.532   6.362   7.053
 9128POPC   C4B53026  14.501   6.394   7.353
 9129POPC   NC353027   4.339  38.428   5.553
 9129POPC   PO453028   4.286  38.414   5.853
 9129POPC   GL153029   4.358  38.409   6.153
 9129POPC   GL253030   4.432  38.593   6.153
 9129POPC   C1A53031   4.333  38.439   6.453
 9129POPC   D2A53032   4.307  38.421   6.753
 9129POPC   C3A53033   4.343  38.478   7.053
 9129POPC   C4A53034   4.302  38.457   7.353
 9129POPC   C1B53035   4.460  38.671   6.453
 9129POPC   C2B53036   4.509  38.685   6.753
 9129POPC   C3B53037   4.493  38.621   7.053
 9129POPC   C4B53038   4.461  38.657   7.353
 9130POPC   NC353039  20.627  21.350   5.553
 9130POPC   PO453040  20.626  21.381   5.853
 9130POPC   GL153041  20.621  21.359   6.153
 9130POPC   GL253042  20.747  21.458   6.153
 9130POPC   C1A53043  20.578  21.343   6.453
 9130POPC   D2A53044  20.572  21.391   6.753
 9130POPC   C3A53045  20.594  21.427   7.053
 9130POPC   C4A53046  20.563  21.389   7.353
 9130POPC   C1B53047  20.855  21.492   6.453
 9130POPC   C2B53048  20.873  21.512   6.753
 9130POPC   C3B53049  20.841  21.461   7.053
 9130POPC   C4B53050  20.883  21.462   7.353
 9131POPC   NC353051   1.234   0.416   5.553
 9131POPC   PO453052   1.204   0.446   5.853
 9131POPC   GL153053   1.189   0.428   6.153
 9131POPC   GL253054   1.091   0.379   6.153
 9131POPC   C1A53055   1.242   0.440   6.453
 9131POPC   D2A53056   1.237   0.407   6.753
 9131POPC   C3A53057   1.258   0.461   7.053
 9131POPC   C4A53058   1.244   0.454   7.353
 9131POPC   C1B53059   0.965   0.341   6.453
 9131POPC   C2B53060   1.009   0.401   6.753
 9131POPC   C3B53061   1.022   0.363   7.053
 9131POPC   C4B53062   1.008   0.325   7.353
 9132POPC   NC353063  33.020  22.972   5.553
 9132POPC   PO453064  32.983  22.920   5.853
 9132POPC   GL153065  32.979  22.889   6.153
 9132POPC   GL253066  33.016  23.066   6.153
 9132POPC   C1A53067  33.045  22.911   6.453
 9132POPC   D2A53068  33.067  22.957   6.753
 9132POPC   C3A53069  33.036  22.941   7.053
 9132POPC   C4A53070  33.069  22.910   7.353
 9132POPC   C1B53071  33.006  23.171   6.453
 9132POPC   C2B53072  32.986  23.152   6.753
 9132POPC   C3B53073  32.981  23.182   7.053
 9132POPC   C4B53074  32.976  23.156   7.353
 9133POPC   NC353075   5.086  32.262   5.553
 9133POPC   PO453076   5.098  32.282   5.853
 9133POPC   GL153077   5.112  32.200   6.153
 9133POPC   GL253078   5.227  32.256   6.153
 9133POPC   C1A53079   5.084  32.223   6.453
 9133POPC   D2A53080   5.133  32.248   6.753
 9133POPC   C3A53081   5.063  32.205   7.053
 9133POPC   C4A53082   5.131  32.209   7.353
 9133POPC   C1B53083   5.366  32.271   6.453
 9133POPC   C2B53084   5.317  32.250   6.753
 9133POPC   C3B53085   5.304  32.282   7.053
 9133POPC   C4B53086   5.298  32.268   7.353
 9134POPC   NC353087  39.270  29.951   5.553
 9134POPC   PO453088  39.241  29.940   5.853
 9134POPC   GL153089  39.182  29.954   6.153
 9134POPC   GL253090  39.120  30.001   6.153
 9134POPC   C1A53091  39.261  29.941   6.453
 9134POPC   D2A53092  39.187  29.916   6.753
 9134POPC   C3A53093  39.268  29.904   7.053
 9134POPC   C4A53094  39.242  29.922   7.353
 9134POPC   C1B53095  39.058  30.083   6.453
 9134POPC   C2B53096  39.061  30.136   6.753
 9134POPC   C3B53097  39.059  30.139   7.053
 9134POPC   C4B53098  39.066  30.082   7.353
 9135POPC   NC353099   8.969  40.029   5.553
 9135POPC   PO453100   8.994  40.031   5.853
 9135POPC   GL153101   9.011  40.033   6.153
 9135POPC   GL253102   8.827  39.996   6.153
 9135POPC   C1A53103   8.976  39.974   6.453
 9135POPC   D2A53104   8.964  39.967   6.753
 9135POPC   C3A53105   9.021  39.989   7.053
 9135POPC   C4A53106   8.934  39.994   7.353
 9135POPC   C1B53107   8.710  39.944   6.453
 9135POPC   C2B53108   8.762  39.906   6.753
 9135POPC   C3B53109   8.764  39.949   7.053
 9135POPC   C4B53110   8.769  39.909   7.353
 9136POPC   NC353111  33.072  33.763   5.553
 9136POPC   PO453112  32.986  33.763   5.853
 9136POPC   GL153113  32.987  33.795   6.153
 9136POPC   GL253114  32.997  33.732   6.153
 9136POPC   C1A53115  33.040  33.756   6.453
 9136POPC   D2A53116  32.979  33.763   6.753
 9136POPC   C3A53117  32.991  33.828   7.053
 9136POPC   C4A53118  33.053  33.786   7.353
 9136POPC   C1B53119  32.906  33.560   6.453
 9136POPC   C2B53120  32.917  33.636   6.753
 9136POPC   C3B53121  32.909  33.588   7.053
 9136POPC   C4B53122  32.932  33.589   7.353
 9137POPC   NC353123  13.601  24.443   5.553
 9137POPC   PO453124  13.601  24.510   5.853
 9137POPC   GL153125  13.625  24.518   6.153
 9137POPC   GL253126  13.704  24.577   6.153
 9137POPC   C1A53127  13.651  24.499   6.453
 9137POPC   D2A53128  13.624  24.519   6.753
 9137POPC   C3A53129  13.587  24.528   7.053
 9137POPC   C4A53130  13.601  24.502   7.353
 9137POPC   C1B53131  13.882  24.546   6.453
 9137POPC   C2B53132  13.881  24.596   6.753
 9137POPC   C3B53133  13.855  24.543   7.053
 9137POPC   C4B53134  13.909  24.524   7.353
 9138POPC   NC353135  13.637  43.129   5.553
 9138POPC   PO453136  13.590  43.155   5.853
 9138POPC   GL153137  13.646  43.152   6.153
 9138POPC   GL253138  13.675  43.020   6.153
 9138POPC   C1A53139  13.627  43.144   6.453
 9138POPC   D2A53140  13.619  43.136   6.753
 9138POPC   C3A53141  13.668  43.079   7.053
 9138POPC   C4A53142  13.674  43.071   7.353
 9138POPC   C1B53143  13.660  42.841   6.453
 9138POPC   C2B53144  13.624  42.847   6.753
 9138POPC   C3B53145  13.692  42.870   7.053
 9138POPC   C4B53146  13.708  42.912   7.353
 9139POPC   NC353147  19.022   1.191   5.553
 9139POPC   PO453148  19.083   1.251   5.853
 9139POPC   GL153149  19.102   1.229   6.153
 9139POPC   GL253150  19.197   1.111   6.153
 9139POPC   C1A53151  19.054   1.207   6.453
 9139POPC   D2A53152  19.103   1.181   6.753
 9139POPC   C3A53153  19.062   1.236   7.053
 9139POPC   C4A53154  19.107   1.240   7.353
 9139POPC   C1B53155  19.243   1.004   6.453
 9139POPC   C2B53156  19.196   1.057   6.753
 9139POPC   C3B53157  19.206   1.035   7.053
 9139POPC   C4B53158  19.282   1.023   7.353
 9140POPC   NC353159   7.470  16.714   5.553
 9140POPC   PO453160   7.426  16.754   5.853
 9140POPC   GL153161   7.395  16.705   6.153
 9140POPC   GL253162   7.501  16.683   6.153
 9140POPC   C1A53163   7.377  16.752   6.453
 9140POPC   D2A53164   7.381  16.739   6.753
 9140POPC   C3A53165   7.373  16.753   7.053
 9140POPC   C4A53166   7.457  16.752   7.353
 9140POPC   C1B53167   7.677  16.646   6.453
 9140POPC   C2B53168   7.685  16.636   6.753
 9140POPC   C3B53169   7.668  16.632   7.053
 9140POPC   C4B53170   7.612  16.605   7.353
 9141POPC   NC353171  43.122  44.712   5.553
 9141POPC   PO453172  43.152  44.675   5.853
 9141POPC   GL153173  43.110  44.639   6.153
 9141POPC   GL253174  43.062  44.722   6.153
 9141POPC   C1A53175  43.076  44.643   6.453
 9141POPC   D2A53176  43.141  44.637   6.753
 9141POPC   C3A53177  43.128  44.667   7.053
 9141POPC   C4A53178  43.073  44.667   7.353
 9141POPC   C1B53179  42.945  44.807   6.453
 9141POPC   C2B53180  42.949  44.844   6.753
 9141POPC   C3B53181  42.950  44.854   7.053
 9141POPC   C4B53182  42.978  44.812   7.353
 9142POPC   NC353183   1.940  29.183   5.553
 9142POPC   PO453184   1.946  29.163   5.853
 9142POPC   GL153185   1.962  29.159   6.153
 9142POPC   GL253186   1.880  29.127   6.153
 9142POPC   C1A53187   1.955  29.187   6.453
 9142POPC   D2A53188   2.028  29.105   6.753
 9142POPC   C3A53189   2.028  29.149   7.053
 9142POPC   C4A53190   2.016  29.166   7.353
 9142POPC   C1B53191   1.731  29.109   6.453
 9142POPC   C2B53192   1.778  29.170   6.753
 9142POPC   C3B53193   1.691  29.182   7.053
 9142POPC   C4B53194   1.723  29.189   7.353
 9143POPC   NC353195  36.177  29.946   5.553
 9143POPC   PO453196  36.151  29.894   5.853
 9143POPC   GL153197  36.091  29.880   6.153
 9143POPC   GL253198  36.291  29.955   6.153
 9143POPC   C1A53199  36.112  29.942   6.453
 9143POPC   D2A53200  36.125  29.968   6.753
 9143POPC   C3A53201  36.162  29.960   7.053
 9143POPC   C4A53202  36.160  29.921   7.353
 9143POPC   C1B53203  36.371  29.983   6.453
 9143POPC   C2B53204  36.331  30.059   6.753
 9143POPC   C3B53205  36.307  30.005   7.053
 9143POPC   C4B53206  36.362  29.986   7.353
 9144POPC   NC353207  22.198  26.076   5.553
 9144POPC   PO453208  22.172  26.008   5.853
 9144POPC   GL153209  22.200  26.061   6.153
 9144POPC   GL253210  22.062  26.165   6.153
 9144POPC   C1A53211  22.169  26.043   6.453
 9144POPC   D2A53212  22.200  26.083   6.753
 9144POPC   C3A53213  22.209  26.064   7.053
 9144POPC   C4A53214  22.155  26.018   7.353
 9144POPC   C1B53215  21.996  26.284   6.453
 9144POPC   C2B53216  22.013  26.270   6.753
 9144POPC   C3B53217  22.073  26.259   7.053
 9144POPC   C4B53218  22.059  26.258   7.353
 9145POPC   NC353219  38.407   2.022   5.553
 9145POPC   PO453220  38.409   2.028   5.853
 9145POPC   GL153221  38.479   2.030   6.153
 9145POPC   GL253222  38.321   1.951   6.153
 9145POPC   C1A53223  38.489   1.959   6.453
 9145POPC   D2A53224  38.411   2.020   6.753
 9145POPC   C3A53225  38.502   2.034   7.053
 9145POPC   C4A53226  38.408   1.960   7.353
 9145POPC   C1B53227  38.206   1.893   6.453
 9145POPC   C2B53228  38.225   1.866   6.753
 9145POPC   C3B53229  38.193   1.898   7.053
 9145POPC   C4B53230  38.238   1.907   7.353
 9146POPC   NC353231  33.767  16.751   5.553
 9146POPC   PO453232  33.835  16.682   5.853
 9146POPC   GL153233  33.766  16.746   6.153
 9146POPC   GL253234  33.650  16.749   6.153
 9146POPC   C1A53235  33.781  16.691   6.453
 9146POPC   D2A53236  33.846  16.699   6.753
 9146POPC   C3A53237  33.760  16.711   7.053
 9146POPC   C4A53238  33.819  16.699   7.353
 9146POPC   C1B53239  33.573  16.707   6.453
 9146POPC   C2B53240  33.598  16.627   6.753
 9146POPC   C3B53241  33.516  16.680   7.053
 9146POPC   C4B53242  33.588  16.659   7.353
 9147POPC   NC353243   7.417   8.935   5.553
 9147POPC   PO453244   7.384   8.933   5.853
 9147POPC   GL153245   7.406   8.949   6.153
 9147POPC   GL253246   7.595   8.986   6.153
 9147POPC   C1A53247   7.371   8.951   6.453
 9147POPC   D2A53248   7.425   9.015   6.753
 9147POPC   C3A53249   7.432   8.941   7.053
 9147POPC   C4A53250   7.413   8.981   7.353
 9147POPC   C1B53251   7.710   8.977   6.453
 9147POPC   C2B53252   7.707   8.938   6.753
 9147POPC   C3B53253   7.678   8.938   7.053
 9147POPC   C4B53254   7.718   8.957   7.353
 9148POPC   NC353255  38.438   5.915   5.553
 9148POPC   PO453256  38.471   5.919   5.853
 9148POPC   GL153257  38.502   5.864   6.153
 9148POPC   GL253258  38.574   5.811   6.153
 9148POPC   C1A53259  38.438   5.884   6.453
 9148POPC   D2A53260  38.440   5.824   6.753
 9148POPC   C3A53261  38.479   5.860   7.053
 9148POPC   C4A53262  38.456   5.834   7.353
 9148POPC   C1B53263  38.682   5.669   6.453
 9148POPC   C2B53264  38.616   5.688   6.753
 9148POPC   C3B53265  38.613   5.748   7.053
 9148POPC   C4B53266  38.605   5.742   7.353
 9149POPC   NC353267  16.713  12.077   5.553
 9149POPC   PO453268  16.726  12.083   5.853
 9149POPC   GL153269  16.773  12.048   6.153
 9149POPC   GL253270  16.580  12.108   6.153
 9149POPC   C1A53271  16.750  12.104   6.453
 9149POPC   D2A53272  16.760  12.110   6.753
 9149POPC   C3A53273  16.706  12.080   7.053
 9149POPC   C4A53274  16.691  12.061   7.353
 9149POPC   C1B53275  16.491  12.144   6.453
 9149POPC   C2B53276  16.471  12.096   6.753
 9149POPC   C3B53277  16.494  12.129   7.053
 9149POPC   C4B53278  16.510  12.084   7.353
 9150POPC   NC353279   5.882   0.400   5.553
 9150POPC   PO453280   5.865   0.393   5.853
 9150POPC   GL153281   5.882   0.399   6.153
 9150POPC   GL253282   5.741   0.380   6.153
 9150POPC   C1A53283   5.872   0.433   6.453
 9150POPC   D2A53284   5.825   0.486   6.753
 9150POPC   C3A53285   5.911   0.411   7.053
 9150POPC   C4A53286   5.845   0.464   7.353
 9150POPC   C1B53287   5.634   0.306   6.453
 9150POPC   C2B53288   5.621   0.272   6.753
 9150POPC   C3B53289   5.603   0.344   7.053
 9150POPC   C4B53290   5.640   0.348   7.353
 9151POPC   NC353291   5.875  16.711   5.553
 9151POPC   PO453292   5.910  16.768   5.853
 9151POPC   GL153293   5.825  16.781   6.153
 9151POPC   GL253294   5.982  16.575   6.153
 9151POPC   C1A53295   5.911  16.692   6.453
 9151POPC   D2A53296   5.843  16.730   6.753
 9151POPC   C3A53297   5.896  16.716   7.053
 9151POPC   C4A53298   5.883  16.708   7.353
 9151POPC   C1B53299   5.955  16.512   6.453
 9151POPC   C2B53300   5.967  16.477   6.753
 9151POPC   C3B53301   5.958  16.559   7.053
 9151POPC   C4B53302   5.966  16.537   7.353
 9152POPC   NC353303  33.828  19.811   5.553
 9152POPC   PO453304  33.795  19.828   5.853
 9152POPC   GL153305  33.825  19.815   6.153
 9152POPC   GL253306  33.662  19.887   6.153
 9152POPC   C1A53307  33.791  19.823   6.453
 9152POPC   D2A53308  33.813  19.877   6.753
 9152POPC   C3A53309  33.824  19.876   7.053
 9152POPC   C4A53310  33.777  19.836   7.353
 9152POPC   C1B53311  33.509  19.932   6.453
 9152POPC   C2B53312  33.595  19.838   6.753
 9152POPC   C3B53313  33.553  19.855   7.053
 9152POPC   C4B53314  33.541  19.895   7.353
 9153POPC   NC353315  31.517   8.999   5.553
 9153POPC   PO453316  31.510   8.927   5.853
 9153POPC   GL153317  31.484   8.926   6.153
 9153POPC   GL253318  31.327   8.921   6.153
 9153POPC   C1A53319  31.440   8.977   6.453
 9153POPC   D2A53320  31.470   8.967   6.753
 9153POPC   C3A53321  31.517   8.989   7.053
 9153POPC   C4A53322  31.434   8.947   7.353
 9153POPC   C1B53323  31.214   8.943   6.453
 9153POPC   C2B53324  31.200   8.993   6.753
 9153POPC   C3B53325  31.256   8.923   7.053
 9153POPC   C4B53326  31.188   8.979   7.353
 9154POPC   NC353327  39.208   9.734   5.553
 9154POPC   PO453328  39.262   9.741   5.853
 9154POPC   GL153329  39.266   9.714   6.153
 9154POPC   GL253330  39.185   9.822   6.153
 9154POPC   C1A53331  39.278   9.732   6.453
 9154POPC   D2A53332  39.254   9.747   6.753
 9154POPC   C3A53333  39.228   9.782   7.053
 9154POPC   C4A53334  39.205   9.736   7.353
 9154POPC   C1B53335  39.074   9.912   6.453
 9154POPC   C2B53336  39.116   9.909   6.753
 9154POPC   C3B53337  39.143   9.910   7.053
 9154POPC   C4B53338  39.076   9.979   7.353
 9155POPC   NC353339  15.957   6.599   5.553
 9155POPC   PO453340  15.945   6.635   5.853
 9155POPC   GL153341  15.912   6.677   6.153
 9155POPC   GL253342  15.904   6.746   6.153
 9155POPC   C1A53343  15.953   6.689   6.453
 9155POPC   D2A53344  15.953   6.604   6.753
 9155POPC   C3A53345  15.911   6.606   7.053
 9155POPC   C4A53346  15.944   6.676   7.353
 9155POPC   C1B53347  15.897   6.930   6.453
 9155POPC   C2B53348  15.919   6.837   6.753
 9155POPC   C3B53349  15.920   6.916   7.053
 9155POPC   C4B53350  15.859   6.855   7.353
 9156POPC   NC353351  20.567  13.589   5.553
 9156POPC   PO453352  20.651  13.596   5.853
 9156POPC   GL153353  20.654  13.648   6.153
 9156POPC   GL253354  20.447  13.535   6.153
 9156POPC   C1A53355  20.630  13.668   6.453
 9156POPC   D2A53356  20.592  13.608   6.753
 9156POPC   C3A53357  20.570  13.653   7.053
 9156POPC   C4A53358  20.618  13.639   7.353
 9156POPC   C1B53359  20.352  13.512   6.453
 9156POPC   C2B53360  20.389  13.548   6.753
 9156POPC   C3B53361  20.364  13.562   7.053
 9156POPC   C4B53362  20.411  13.523   7.353
 9157POPC   NC353363  12.027  28.396   5.553
 9157POPC   PO453364  12.067  28.390   5.853
 9157POPC   GL153365  12.086  28.386   6.153
 9157POPC   GL253366  12.022  28.472   6.153
 9157POPC   C1A53367  12.123  28.324   6.453
 9157POPC   D2A53368  12.077  28.400   6.753
 9157POPC   C3A53369  12.114  28.354   7.053
 9157POPC   C4A53370  12.084  28.370   7.353
 9157POPC   C1B53371  11.957  28.624   6.453
 9157POPC   C2B53372  12.028  28.589   6.753
 9157POPC   C3B53373  11.980  28.582   7.053
 9157POPC   C4B53374  11.950  28.629   7.353
 9158POPC   NC353375  11.330  18.269   5.553
 9158POPC   PO453376  11.331  18.313   5.853
 9158POPC   GL153377  11.341  18.324   6.153
 9158POPC   GL253378  11.219  18.238   6.153
 9158POPC   C1A53379  11.283  18.325   6.453
 9158POPC   D2A53380  11.269  18.256   6.753
 9158POPC   C3A53381  11.253  18.321   7.053
 9158POPC   C4A53382  11.311  18.313   7.353
 9158POPC   C1B53383  11.056  18.281   6.453
 9158POPC   C2B53384  11.035  18.220   6.753
 9158POPC   C3B53385  11.025  18.242   7.053
 9158POPC   C4B53386  11.010  18.280   7.353
 9159POPC   NC353387  22.894  12.854   5.553
 9159POPC   PO453388  22.908  12.842   5.853
 9159POPC   GL153389  22.919  12.807   6.153
 9159POPC   GL253390  22.796  12.788   6.153
 9159POPC   C1A53391  22.910  12.871   6.453
 9159POPC   D2A53392  22.918  12.858   6.753
 9159POPC   C3A53393  22.892  12.870   7.053
 9159POPC   C4A53394  22.907  12.862   7.353
 9159POPC   C1B53395  22.714  12.842   6.453
 9159POPC   C2B53396  22.666  12.800   6.753
 9159POPC   C3B53397  22.718  12.873   7.053
 9159POPC   C4B53398  22.691  12.835   7.353
 9160POPC   NC353399  43.918  35.339   5.553
 9160POPC   PO453400  43.924  35.376   5.853
 9160POPC   GL153401  43.888  35.344   6.153
 9160POPC   GL253402  43.883  35.211   6.153
 9160POPC   C1A53403  43.858  35.376   6.453
 9160POPC   D2A53404  43.913  35.349   6.753
 9160POPC   C3A53405  43.934  35.351   7.053
 9160POPC   C4A53406  43.886  35.394   7.353
 9160POPC   C1B53407  43.840  35.140   6.453
 9160POPC   C2B53408  43.867  35.129   6.753
 9160POPC   C3B53409  43.783  35.088   7.053
 9160POPC   C4B53410  43.812  35.123   7.353
 9161POPC   NC353411  16.737  15.970   5.553
 9161POPC   PO453412  16.749  15.986   5.853
 9161POPC   GL153413  16.684  15.990   6.153
 9161POPC   GL253414  16.892  15.974   6.153
 9161POPC   C1A53415  16.712  15.952   6.453
 9161POPC   D2A53416  16.731  15.970   6.753
 9161POPC   C3A53417  16.772  15.925   7.053
 9161POPC   C4A53418  16.726  15.934   7.353
 9161POPC   C1B53419  16.918  16.077   6.453
 9161POPC   C2B53420  16.917  16.070   6.753
 9161POPC   C3B53421  16.932  16.019   7.053
 9161POPC   C4B53422  16.926  16.090   7.353
 9162POPC   NC353423  33.798   0.430   5.553
 9162POPC   PO453424  33.780   0.390   5.853
 9162POPC   GL153425  33.845   0.425   6.153
 9162POPC   GL253426  33.895   0.516   6.153
 9162POPC   C1A53427  33.835   0.438   6.453
 9162POPC   D2A53428  33.806   0.475   6.753
 9162POPC   C3A53429  33.766   0.482   7.053
 9162POPC   C4A53430  33.847   0.485   7.353
 9162POPC   C1B53431  34.043   0.604   6.453
 9162POPC   C2B53432  34.049   0.572   6.753
 9162POPC   C3B53433  34.015   0.607   7.053
 9162POPC   C4B53434  33.957   0.540   7.353
 9163POPC   NC353435  31.468  31.430   5.553
 9163POPC   PO453436  31.483  31.442   5.853
 9163POPC   GL153437  31.427  31.449   6.153
 9163POPC   GL253438  31.574  31.503   6.153
 9163POPC   C1A53439  31.506  31.434   6.453
 9163POPC   D2A53440  31.499  31.483   6.753
 9163POPC   C3A53441  31.485  31.426   7.053
 9163POPC   C4A53442  31.488  31.495   7.353
 9163POPC   C1B53443  31.722  31.527   6.453
 9163POPC   C2B53444  31.680  31.576   6.753
 9163POPC   C3B53445  31.665  31.538   7.053
 9163POPC   C4B53446  31.749  31.567   7.353
 9164POPC   NC353447  25.994  19.849   5.553
 9164POPC   PO453448  26.045  19.842   5.853
 9164POPC   GL153449  26.016  19.828   6.153
 9164POPC   GL253450  26.129  19.685   6.153
 9164POPC   C1A53451  26.031  19.823   6.453
 9164POPC   D2A53452  26.038  19.826   6.753
 9164POPC   C3A53453  26.067  19.828   7.053
 9164POPC   C4A53454  26.034  19.849   7.353
 9164POPC   C1B53455  26.151  19.604   6.453
 9164POPC   C2B53456  26.078  19.607   6.753
 9164POPC   C3B53457  26.098  19.606   7.053
 9164POPC   C4B53458  26.098  19.646   7.353
 9165POPC   NC353459   9.747  27.620   5.553
 9165POPC   PO453460   9.790  27.564   5.853
 9165POPC   GL153461   9.755  27.631   6.153
 9165POPC   GL253462   9.695  27.678   6.153
 9165POPC   C1A53463   9.777  27.631   6.453
 9165POPC   D2A53464   9.782  27.641   6.753
 9165POPC   C3A53465   9.757  27.593   7.053
 9165POPC   C4A53466   9.739  27.567   7.353
 9165POPC   C1B53467   9.600  27.725   6.453
 9165POPC   C2B53468   9.573  27.725   6.753
 9165POPC   C3B53469   9.575  27.818   7.053
 9165POPC   C4B53470   9.545  27.774   7.353
 9166POPC   NC353471  12.830  26.803   5.553
 9166POPC   PO453472  12.873  26.782   5.853
 9166POPC   GL153473  12.841  26.773   6.153
 9166POPC   GL253474  12.741  26.776   6.153
 9166POPC   C1A53475  12.805  26.772   6.453
 9166POPC   D2A53476  12.818  26.836   6.753
 9166POPC   C3A53477  12.900  26.842   7.053
 9166POPC   C4A53478  12.887  26.808   7.353
 9166POPC   C1B53479  12.595  26.810   6.453
 9166POPC   C2B53480  12.555  26.837   6.753
 9166POPC   C3B53481  12.627  26.784   7.053
 9166POPC   C4B53482  12.640  26.827   7.353
 9167POPC   NC353483  17.504   4.301   5.553
 9167POPC   PO453484  17.521   4.358   5.853
 9167POPC   GL153485  17.521   4.273   6.153
 9167POPC   GL253486  17.338   4.349   6.153
 9167POPC   C1A53487  17.552   4.314   6.453
 9167POPC   D2A53488  17.540   4.339   6.753
 9167POPC   C3A53489  17.487   4.305   7.053
 9167POPC   C4A53490  17.459   4.364   7.353
 9167POPC   C1B53491  17.269   4.306   6.453
 9167POPC   C2B53492  17.246   4.291   6.753
 9167POPC   C3B53493  17.221   4.342   7.053
 9167POPC   C4B53494  17.236   4.331   7.353
 9168POPC   NC353495  21.435  41.568   5.553
 9168POPC   PO453496  21.364  41.605   5.853
 9168POPC   GL153497  21.390  41.595   6.153
 9168POPC   GL253498  21.370  41.694   6.153
 9168POPC   C1A53499  21.392  41.523   6.453
 9168POPC   D2A53500  21.389  41.580   6.753
 9168POPC   C3A53501  21.372  41.588   7.053
 9168POPC   C4A53502  21.398  41.588   7.353
 9168POPC   C1B53503  21.411  41.796   6.453
 9168POPC   C2B53504  21.377  41.775   6.753
 9168POPC   C3B53505  21.410  41.803   7.053
 9168POPC   C4B53506  21.396  41.794   7.353
 9169POPC   NC353507  15.138   5.853   5.553
 9169POPC   PO453508  15.210   5.871   5.853
 9169POPC   GL153509  15.186   5.842   6.153
 9169POPC   GL253510  15.089   5.884   6.153
 9169POPC   C1A53511  15.170   5.830   6.453
 9169POPC   D2A53512  15.152   5.866   6.753
 9169POPC   C3A53513  15.200   5.912   7.053
 9169POPC   C4A53514  15.168   5.844   7.353
 9169POPC   C1B53515  14.895   5.849   6.453
 9169POPC   C2B53516  14.885   5.876   6.753
 9169POPC   C3B53517  14.944   5.817   7.053
 9169POPC   C4B53518  14.917   5.799   7.353
 9170POPC   NC353519   9.724  11.302   5.553
 9170POPC   PO453520   9.717  11.258   5.853
 9170POPC   GL153521   9.757  11.252   6.153
 9170POPC   GL253522   9.671  11.460   6.153
 9170POPC   C1A53523   9.709  11.323   6.453
 9170POPC   D2A53524   9.784  11.285   6.753
 9170POPC   C3A53525   9.793  11.330   7.053
 9170POPC   C4A53526   9.702  11.266   7.353
 9170POPC   C1B53527   9.653  11.566   6.453
 9170POPC   C2B53528   9.726  11.508   6.753
 9170POPC   C3B53529   9.722  11.501   7.053
 9170POPC   C4B53530   9.642  11.558   7.353
 9171POPC   NC353531  26.821  19.081   5.553
 9171POPC   PO453532  26.865  19.102   5.853
 9171POPC   GL153533  26.774  19.074   6.153
 9171POPC   GL253534  26.727  19.164   6.153
 9171POPC   C1A53535  26.788  19.098   6.453
 9171POPC   D2A53536  26.792  19.070   6.753
 9171POPC   C3A53537  26.779  19.086   7.053
 9171POPC   C4A53538  26.806  19.026   7.353
 9171POPC   C1B53539  26.581  19.141   6.453
 9171POPC   C2B53540  26.578  19.186   6.753
 9171POPC   C3B53541  26.637  19.162   7.053
 9171POPC   C4B53542  26.557  19.215   7.353
 9172POPC   NC353543  28.364  26.012   5.553
 9172POPC   PO453544  28.410  26.014   5.853
 9172POPC   GL153545  28.404  26.017   6.153
 9172POPC   GL253546  28.266  26.074   6.153
 9172POPC   C1A53547  28.343  26.030   6.453
 9172POPC   D2A53548  28.340  26.084   6.753
 9172POPC   C3A53549  28.321  26.025   7.053
 9172POPC   C4A53550  28.396  26.032   7.353
 9172POPC   C1B53551  28.112  26.041   6.453
 9172POPC   C2B53552  28.084  26.065   6.753
 9172POPC   C3B53553  28.137  26.074   7.053
 9172POPC   C4B53554  28.158  26.089   7.353
 9173POPC   NC353555  17.525  24.452   5.553
 9173POPC   PO453556  17.550  24.532   5.853
 9173POPC   GL153557  17.467  24.453   6.153
 9173POPC   GL253558  17.510  24.607   6.153
 9173POPC   C1A53559  17.472  24.490   6.453
 9173POPC   D2A53560  17.482  24.454   6.753
 9173POPC   C3A53561  17.463  24.514   7.053
 9173POPC   C4A53562  17.525  24.475   7.353
 9173POPC   C1B53563  17.427  24.773   6.453
 9173POPC   C2B53564  17.463  24.729   6.753
 9173POPC   C3B53565  17.444  24.757   7.053
 9173POPC   C4B53566  17.380  24.714   7.353
 9174POPC   NC353567  29.941  21.402   5.553
 9174POPC   PO453568  29.958  21.374   5.853
 9174POPC   GL153569  29.910  21.380   6.153
 9174POPC   GL253570  29.970  21.286   6.153
 9174POPC   C1A53571  29.939  21.360   6.453
 9174POPC   D2A53572  29.907  21.400   6.753
 9174POPC   C3A53573  29.908  21.426   7.053
 9174POPC   C4A53574  29.953  21.352   7.353
 9174POPC   C1B53575  29.902  21.121   6.453
 9174POPC   C2B53576  29.983  21.182   6.753
 9174POPC   C3B53577  29.955  21.095   7.053
 9174POPC   C4B53578  29.936  21.139   7.353
 9175POPC   NC353579  41.515  33.776   5.553
 9175POPC   PO453580  41.601  33.768   5.853
 9175POPC   GL153581  41.518  33.806   6.153
 9175POPC   GL253582  41.579  33.663   6.153
 9175POPC   C1A53583  41.589  33.817   6.453
 9175POPC   D2A53584  41.574  33.823   6.753
 9175POPC   C3A53585  41.587  33.797   7.053
 9175POPC   C4A53586  41.576  33.826   7.353
 9175POPC   C1B53587  41.547  33.569   6.453
 9175POPC   C2B53588  41.575  33.521   6.753
 9175POPC   C3B53589  41.595  33.527   7.053
 9175POPC   C4B53590  41.507  33.575   7.353
 9176POPC   NC353591  19.079  40.010   5.553
 9176POPC   PO453592  19.063  40.022   5.853
 9176POPC   GL153593  19.090  40.006   6.153
 9176POPC   GL253594  18.950  40.097   6.153
 9176POPC   C1A53595  19.049  40.041   6.453
 9176POPC   D2A53596  19.047  40.010   6.753
 9176POPC   C3A53597  19.051  40.057   7.053
 9176POPC   C4A53598  19.076  39.970   7.353
 9176POPC   C1B53599  18.838  40.150   6.453
 9176POPC   C2B53600  18.825  40.138   6.753
 9176POPC   C3B53601  18.873  40.128   7.053
 9176POPC   C4B53602  18.881  40.168   7.353
 9177POPC   NC353603  29.120  39.974   5.553
 9177POPC   PO453604  29.128  39.982   5.853
 9177POPC   GL153605  29.185  40.026   6.153
 9177POPC   GL253606  29.103  40.145   6.153
 9177POPC   C1A53607  29.179  40.055   6.453
 9177POPC   D2A53608  29.159  40.031   6.753
 9177POPC   C3A53609  29.162  39.992   7.053
 9177POPC   C4A53610  29.182  39.977   7.353
 9177POPC   C1B53611  29.096  40.269   6.453
 9177POPC   C2B53612  29.109  40.267   6.753
 9177POPC   C3B53613  29.120  40.288   7.053
 9177POPC   C4B53614  29.099  40.256   7.353
 9178POPC   NC353615  15.165  41.575   5.553
 9178POPC   PO453616  15.208  41.554   5.853
 9178POPC   GL153617  15.192  41.580   6.153
 9178POPC   GL253618  15.222  41.488   6.153
 9178POPC   C1A53619  15.158  41.559   6.453
 9178POPC   D2A53620  15.170  41.564   6.753
 9178POPC   C3A53621  15.169  41.511   7.053
 9178POPC   C4A53622  15.140  41.565   7.353
 9178POPC   C1B53623  15.374  41.397   6.453
 9178POPC   C2B53624  15.372  41.370   6.753
 9178POPC   C3B53625  15.354  41.353   7.053
 9178POPC   C4B53626  15.367  41.347   7.353
 9179POPC   NC353627  27.630  43.128   5.553
 9179POPC   PO453628  27.551  43.097   5.853
 9179POPC   GL153629  27.557  43.093   6.153
 9179POPC   GL253630  27.647  43.017   6.153
 9179POPC   C1A53631  27.565  43.069   6.453
 9179POPC   D2A53632  27.592  43.093   6.753
 9179POPC   C3A53633  27.635  43.082   7.053
 9179POPC   C4A53634  27.557  43.108   7.353
 9179POPC   C1B53635  27.631  42.850   6.453
 9179POPC   C2B53636  27.595  42.842   6.753
 9179POPC   C3B53637  27.624  42.838   7.053
 9179POPC   C4B53638  27.611  42.886   7.353
 9180POPC   NC353639   3.530  13.617   5.553
 9180POPC   PO453640   3.521  13.605   5.853
 9180POPC   GL153641   3.570  13.650   6.153
 9180POPC   GL253642   3.595  13.776   6.153
 9180POPC   C1A53643   3.559  13.664   6.453
 9180POPC   D2A53644   3.575  13.586   6.753
 9180POPC   C3A53645   3.531  13.601   7.053
 9180POPC   C4A53646   3.556  13.675   7.353
 9180POPC   C1B53647   3.610  13.887   6.453
 9180POPC   C2B53648   3.579  13.829   6.753
 9180POPC   C3B53649   3.557  13.881   7.053
 9180POPC   C4B53650   3.584  13.894   7.353
 9181POPC   NC353651  20.637  30.723   5.553
 9181POPC   PO453652  20.610  30.703   5.853
 9181POPC   GL153653  20.631  30.704   6.153
 9181POPC   GL253654  20.592  30.866   6.153
 9181POPC   C1A53655  20.598  30.671   6.453
 9181POPC   D2A53656  20.564  30.708   6.753
 9181POPC   C3A53657  20.572  30.716   7.053
 9181POPC   C4A53658  20.561  30.660   7.353
 9181POPC   C1B53659  20.573  30.961   6.453
 9181POPC   C2B53660  20.550  30.920   6.753
 9181POPC   C3B53661  20.539  30.922   7.053
 9181POPC   C4B53662  20.556  30.976   7.353
 9182POPC   NC353663  21.342  35.304   5.553
 9182POPC   PO453664  21.337  35.397   5.853
 9182POPC   GL153665  21.368  35.336   6.153
 9182POPC   GL253666  21.368  35.461   6.153
 9182POPC   C1A53667  21.363  35.380   6.453
 9182POPC   D2A53668  21.414  35.327   6.753
 9182POPC   C3A53669  21.421  35.376   7.053
 9182POPC   C4A53670  21.406  35.359   7.353
 9182POPC   C1B53671  21.386  35.555   6.453
 9182POPC   C2B53672  21.462  35.572   6.753
 9182POPC   C3B53673  21.406  35.637   7.053
 9182POPC   C4B53674  21.462  35.624   7.353
 9183POPC   NC353675  19.031  27.598   5.553
 9183POPC   PO453676  19.058  27.637   5.853
 9183POPC   GL153677  19.087  27.554   6.153
 9183POPC   GL253678  19.201  27.641   6.153
 9183POPC   C1A53679  19.038  27.546   6.453
 9183POPC   D2A53680  19.086  27.576   6.753
 9183POPC   C3A53681  19.034  27.593   7.053
 9183POPC   C4A53682  19.089  27.637   7.353
 9183POPC   C1B53683  19.254  27.599   6.453
 9183POPC   C2B53684  19.293  27.655   6.753
 9183POPC   C3B53685  19.296  27.654   7.053
 9183POPC   C4B53686  19.340  27.653   7.353
 9184POPC   NC353687  44.674  26.031   5.553
 9184POPC   PO453688  44.635  26.084   5.853
 9184POPC   GL153689  44.710  26.050   6.153
 9184POPC   GL253690  44.685  25.889   6.153
 9184POPC   C1A53691  44.649  26.013   6.453
 9184POPC   D2A53692  44.624  26.023   6.753
 9184POPC   C3A53693  44.634  26.049   7.053
 9184POPC   C4A53694  44.654  26.034   7.353
 9184POPC   C1B53695  44.644  25.822   6.453
 9184POPC   C2B53696  44.643  25.750   6.753
 9184POPC   C3B53697  44.576  25.791   7.053
 9184POPC   C4B53698  44.620  25.755   7.353
 9185POPC   NC353699  31.468  14.398   5.553
 9185POPC   PO453700  31.518  14.373   5.853
 9185POPC   GL153701  31.507  14.420   6.153
 9185POPC   GL253702  31.524  14.567   6.153
 9185POPC   C1A53703  31.520  14.418   6.453
 9185POPC   D2A53704  31.444  14.392   6.753
 9185POPC   C3A53705  31.485  14.436   7.053
 9185POPC   C4A53706  31.458  14.375   7.353
 9185POPC   C1B53707  31.554  14.637   6.453
 9185POPC   C2B53708  31.577  14.612   6.753
 9185POPC   C3B53709  31.585  14.617   7.053
 9185POPC   C4B53710  31.562  14.649   7.353
 9186POPC   NC353711  43.096  23.707   5.553
 9186POPC   PO453712  43.070  23.752   5.853
 9186POPC   GL153713  43.121  23.737   6.153
 9186POPC   GL253714  43.173  23.678   6.153
 9186POPC   C1A53715  43.083  23.691   6.453
 9186POPC   D2A53716  43.070  23.740   6.753
 9186POPC   C3A53717  43.154  23.685   7.053
 9186POPC   C4A53718  43.106  23.761   7.353
 9186POPC   C1B53719  43.352  23.594   6.453
 9186POPC   C2B53720  43.366  23.619   6.753
 9186POPC   C3B53721  43.338  23.567   7.053
 9186POPC   C4B53722  43.321  23.614   7.353
 9187POPC   NC353723  26.838   1.983   5.553
 9187POPC   PO453724  26.847   1.982   5.853
 9187POPC   GL153725  26.791   1.967   6.153
 9187POPC   GL253726  26.918   2.033   6.153
 9187POPC   C1A53727  26.855   2.019   6.453
 9187POPC   D2A53728  26.791   1.964   6.753
 9187POPC   C3A53729  26.849   1.954   7.053
 9187POPC   C4A53730  26.809   1.965   7.353
 9187POPC   C1B53731  27.065   2.103   6.453
 9187POPC   C2B53732  27.101   2.053   6.753
 9187POPC   C3B53733  27.055   2.064   7.053
 9187POPC   C4B53734  27.091   2.043   7.353
 9188POPC   NC353735  35.354  24.451   5.553
 9188POPC   PO453736  35.377  24.507   5.853
 9188POPC   GL153737  35.344  24.510   6.153
 9188POPC   GL253738  35.287  24.396   6.153
 9188POPC   C1A53739  35.326  24.539   6.453
 9188POPC   D2A53740  35.367  24.458   6.753
 9188POPC   C3A53741  35.334  24.537   7.053
 9188POPC   C4A53742  35.366  24.499   7.353
 9188POPC   C1B53743  35.191  24.268   6.453
 9188POPC   C2B53744  35.200  24.313   6.753
 9188POPC   C3B53745  35.153  24.327   7.053
 9188POPC   C4B53746  35.177  24.250   7.353
 9189POPC   NC353747  15.163  27.630   5.553
 9189POPC   PO453748  15.228  27.641   5.853
 9189POPC   GL153749  15.146  27.581   6.153
 9189POPC   GL253750  15.333  27.572   6.153
 9189POPC   C1A53751  15.214  27.551   6.453
 9189POPC   D2A53752  15.204  27.554   6.753
 9189POPC   C3A53753  15.154  27.608   7.053
 9189POPC   C4A53754  15.199  27.575   7.353
 9189POPC   C1B53755  15.394  27.517   6.453
 9189POPC   C2B53756  15.436  27.510   6.753
 9189POPC   C3B53757  15.414  27.440   7.053
 9189POPC   C4B53758  15.418  27.483   7.353
 9190POPC   NC353759  13.613  13.630   5.553
 9190POPC   PO453760  13.603  13.636   5.853
 9190POPC   GL153761  13.675  13.605   6.153
 9190POPC   GL253762  13.707  13.764   6.153
 9190POPC   C1A53763  13.617  13.603   6.453
 9190POPC   D2A53764  13.585  13.617   6.753
 9190POPC   C3A53765  13.656  13.607   7.053
 9190POPC   C4A53766  13.635  13.579   7.353
 9190POPC   C1B53767  13.724  13.862   6.453
 9190POPC   C2B53768  13.703  13.850   6.753
 9190POPC   C3B53769  13.680  13.854   7.053
 9190POPC   C4B53770  13.707  13.879   7.353
 9191POPC   NC353771  34.540  36.086   5.553
 9191POPC   PO453772  34.609  36.131   5.853
 9191POPC   GL153773  34.603  36.148   6.153
 9191POPC   GL253774  34.679  36.019   6.153
 9191POPC   C1A53775  34.607  36.172   6.453
 9191POPC   D2A53776  34.603  36.104   6.753
 9191POPC   C3A53777  34.532  36.148   7.053
 9191POPC   C4A53778  34.566  36.091   7.353
 9191POPC   C1B53779  34.752  35.961   6.453
 9191POPC   C2B53780  34.770  35.907   6.753
 9191POPC   C3B53781  34.720  35.911   7.053
 9191POPC   C4B53782  34.735  35.899   7.353
 9192POPC   NC353783  36.172  13.583   5.553
 9192POPC   PO453784  36.094  13.611   5.853
 9192POPC   GL153785  36.088  13.664   6.153
 9192POPC   GL253786  36.277  13.588   6.153
 9192POPC   C1A53787  36.136  13.587   6.453
 9192POPC   D2A53788  36.079  13.654   6.753
 9192POPC   C3A53789  36.142  13.631   7.053
 9192POPC   C4A53790  36.141  13.596   7.353
 9192POPC   C1B53791  36.354  13.640   6.453
 9192POPC   C2B53792  36.414  13.619   6.753
 9192POPC   C3B53793  36.333  13.609   7.053
 9192POPC   C4B53794  36.356  13.599   7.353
 9193POPC   NC353795  12.853  43.154   5.553
 9193POPC   PO453796  12.884  43.125   5.853
 9193POPC   GL153797  12.844  43.120   6.153
 9193POPC   GL253798  12.682  43.133   6.153
 9193POPC   C1A53799  12.860  43.084   6.453
 9193POPC   D2A53800  12.838  43.069   6.753
 9193POPC   C3A53801  12.872  43.073   7.053
 9193POPC   C4A53802  12.844  43.121   7.353
 9193POPC   C1B53803  12.582  43.107   6.453
 9193POPC   C2B53804  12.599  43.103   6.753
 9193POPC   C3B53805  12.616  43.086   7.053
 9193POPC   C4B53806  12.570  43.092   7.353
 9194POPC   NC353807  41.521  19.797   5.553
 9194POPC   PO453808  41.547  19.833   5.853
 9194POPC   GL153809  41.540  19.825   6.153
 9194POPC   GL253810  41.643  19.916   6.153
 9194POPC   C1A53811  41.605  19.862   6.453
 9194POPC   D2A53812  41.518  19.845   6.753
 9194POPC   C3A53813  41.564  19.858   7.053
 9194POPC   C4A53814  41.513  19.815   7.353
 9194POPC   C1B53815  41.769  19.930   6.453
 9194POPC   C2B53816  41.795  20.001   6.753
 9194POPC   C3B53817  41.800  19.929   7.053
 9194POPC   C4B53818  41.757  19.957   7.353
 9195POPC   NC353819  43.917  40.021   5.553
 9195POPC   PO453820  43.874  39.970   5.853
 9195POPC   GL153821  43.929  39.984   6.153
 9195POPC   GL253822  44.016  39.967   6.153
 9195POPC   C1A53823  43.873  40.010   6.453
 9195POPC   D2A53824  43.884  40.047   6.753
 9195POPC   C3A53825  43.867  40.053   7.053
 9195POPC   C4A53826  43.936  40.054   7.353
 9195POPC   C1B53827  44.103  39.934   6.453
 9195POPC   C2B53828  44.135  39.961   6.753
 9195POPC   C3B53829  44.140  40.013   7.053
 9195POPC   C4B53830  44.172  39.961   7.353
 9196POPC   NC353831  23.734  26.043   5.553
 9196POPC   PO453832  23.720  26.036   5.853
 9196POPC   GL153833  23.726  26.062   6.153
 9196POPC   GL253834  23.787  25.904   6.153
 9196POPC   C1A53835  23.758  26.043   6.453
 9196POPC   D2A53836  23.671  26.047   6.753
 9196POPC   C3A53837  23.679  26.034   7.053
 9196POPC   C4A53838  23.688  26.048   7.353
 9196POPC   C1B53839  23.826  25.821   6.453
 9196POPC   C2B53840  23.887  25.837   6.753
 9196POPC   C3B53841  23.821  25.791   7.053
 9196POPC   C4B53842  23.845  25.881   7.353
 9197POPC   NC353843   5.852  34.607   5.553
 9197POPC   PO453844   5.883  34.567   5.853
 9197POPC   GL153845   5.869  34.532   6.153
 9197POPC   GL253846   5.830  34.700   6.153
 9197POPC   C1A53847   5.833  34.539   6.453
 9197POPC   D2A53848   5.866  34.619   6.753
 9197POPC   C3A53849   5.877  34.613   7.053
 9197POPC   C4A53850   5.863  34.610   7.353
 9197POPC   C1B53851   5.810  34.800   6.453
 9197POPC   C2B53852   5.761  34.844   6.753
 9197POPC   C3B53853   5.841  34.799   7.053
 9197POPC   C4B53854   5.819  34.829   7.353
 9198POPC   NC353855  41.537  30.658   5.553
 9198POPC   PO453856  41.562  30.709   5.853
 9198POPC   GL153857  41.535  30.704   6.153
 9198POPC   GL253858  41.511  30.565   6.153
 9198POPC   C1A53859  41.526  30.716   6.453
 9198POPC   D2A53860  41.577  30.740   6.753
 9198POPC   C3A53861  41.526  30.683   7.053
 9198POPC   C4A53862  41.585  30.680   7.353
 9198POPC   C1B53863  41.539  30.472   6.453
 9198POPC   C2B53864  41.460  30.478   6.753
 9198POPC   C3B53865  41.497  30.468   7.053
 9198POPC   C4B53866  41.519  30.458   7.353
 9199POPC   NC353867  23.727  15.159   5.553
 9199POPC   PO453868  23.684  15.217   5.853
 9199POPC   GL153869  23.677  15.209   6.153
 9199POPC   GL253870  23.621  15.242   6.153
 9199POPC   C1A53871  23.709  15.212   6.453
 9199POPC   D2A53872  23.705  15.225   6.753
 9199POPC   C3A53873  23.691  15.206   7.053
 9199POPC   C4A53874  23.671  15.213   7.353
 9199POPC   C1B53875  23.647  15.409   6.453
 9199POPC   C2B53876  23.584  15.414   6.753
 9199POPC   C3B53877  23.583  15.379   7.053
 9199POPC   C4B53878  23.585  15.379   7.353
 9200POPC   NC353879  43.137  14.373   5.553
 9200POPC   PO453880  43.080  14.428   5.853
 9200POPC   GL153881  43.131  14.423   6.153
 9200POPC   GL253882  43.186  14.419   6.153
 9200POPC   C1A53883  43.094  14.375   6.453
 9200POPC   D2A53884  43.107  14.417   6.753
 9200POPC   C3A53885  43.082  14.390   7.053
 9200POPC   C4A53886  43.155  14.362   7.353
 9200POPC   C1B53887  43.314  14.400   6.453
 9200POPC   C2B53888  43.351  14.335   6.753
 9200POPC   C3B53889  43.337  14.352   7.053
 9200POPC   C4B53890  43.336  14.363   7.353
 9201POPC   NC353891  26.854  34.570   5.553
 9201POPC   PO453892  26.826  34.619   5.853
 9201POPC   GL153893  26.780  34.576   6.153
 9201POPC   GL253894  26.938  34.457   6.153
 9201POPC   C1A53895  26.831  34.570   6.453
 9201POPC   D2A53896  26.804  34.531   6.753
 9201POPC   C3A53897  26.801  34.575   7.053
 9201POPC   C4A53898  26.824  34.605   7.353
 9201POPC   C1B53899  26.951  34.383   6.453
 9201POPC   C2B53900  26.978  34.324   6.753
 9201POPC   C3B53901  26.954  34.407   7.053
 9201POPC   C4B53902  26.964  34.375   7.353
 9202POPC   NC353903  34.533  30.679   5.553
 9202POPC   PO453904  34.551  30.718   5.853
 9202POPC   GL153905  34.622  30.702   6.153
 9202POPC   GL253906  34.600  30.599   6.153
 9202POPC   C1A53907  34.573  30.693   6.453
 9202POPC   D2A53908  34.542  30.688   6.753
 9202POPC   C3A53909  34.616  30.689   7.053
 9202POPC   C4A53910  34.542  30.697   7.353
 9202POPC   C1B53911  34.622  30.483   6.453
 9202POPC   C2B53912  34.688  30.425   6.753
 9202POPC   C3B53913  34.665  30.501   7.053
 9202POPC   C4B53914  34.622  30.471   7.353
 9203POPC   NC353915  19.010  25.313   5.553
 9203POPC   PO453916  19.063  25.307   5.853
 9203POPC   GL153917  19.019  25.262   6.153
 9203POPC   GL253918  18.897  25.304   6.153
 9203POPC   C1A53919  19.095  25.229   6.453
 9203POPC   D2A53920  19.029  25.293   6.753
 9203POPC   C3A53921  19.108  25.304   7.053
 9203POPC   C4A53922  19.016  25.262   7.353
 9203POPC   C1B53923  18.844  25.291   6.453
 9203POPC   C2B53924  18.852  25.346   6.753
 9203POPC   C3B53925  18.768  25.275   7.053
 9203POPC   C4B53926  18.794  25.280   7.353
 9204POPC   NC353927  38.410  39.971   5.553
 9204POPC   PO453928  38.491  39.999   5.853
 9204POPC   GL153929  38.465  39.961   6.153
 9204POPC   GL253930  38.544  39.879   6.153
 9204POPC   C1A53931  38.464  40.042   6.453
 9204POPC   D2A53932  38.500  39.975   6.753
 9204POPC   C3A53933  38.479  39.996   7.053
 9204POPC   C4A53934  38.467  40.052   7.353
 9204POPC   C1B53935  38.570  39.767   6.453
 9204POPC   C2B53936  38.566  39.757   6.753
 9204POPC   C3B53937  38.558  39.794   7.053
 9204POPC   C4B53938  38.603  39.769   7.353
 9205POPC   NC353939  43.889  42.289   5.553
 9205POPC   PO453940  43.929  42.292   5.853
 9205POPC   GL153941  43.912  42.368   6.153
 9205POPC   GL253942  43.832  42.279   6.153
 9205POPC   C1A53943  43.898  42.323   6.453
 9205POPC   D2A53944  43.838  42.362   6.753
 9205POPC   C3A53945  43.862  42.360   7.053
 9205POPC   C4A53946  43.874  42.295   7.353
 9205POPC   C1B53947  43.679  42.141   6.453
 9205POPC   C2B53948  43.738  42.153   6.753
 9205POPC   C3B53949  43.710  42.141   7.053
 9205POPC   C4B53950  43.693  42.160   7.353
 9206POPC   NC353951  33.001   8.214   5.553
 9206POPC   PO453952  33.032   8.223   5.853
 9206POPC   GL153953  32.995   8.217   6.153
 9206POPC   GL253954  33.126   8.295   6.153
 9206POPC   C1A53955  32.987   8.220   6.453
 9206POPC   D2A53956  33.013   8.229   6.753
 9206POPC   C3A53957  32.995   8.238   7.053
 9206POPC   C4A53958  32.998   8.184   7.353
 9206POPC   C1B53959  33.234   8.318   6.453
 9206POPC   C2B53960  33.224   8.381   6.753
 9206POPC   C3B53961  33.237   8.330   7.053
 9206POPC   C4B53962  33.190   8.314   7.353
 9207POPC   NC353963  16.725  13.614   5.553
 9207POPC   PO453964  16.720  13.627   5.853
 9207POPC   GL153965  16.697  13.583   6.153
 9207POPC   GL253966  16.771  13.479   6.153
 9207POPC   C1A53967  16.727  13.661   6.453
 9207POPC   D2A53968  16.748  13.610   6.753
 9207POPC   C3A53969  16.718  13.668   7.053
 9207POPC   C4A53970  16.685  13.596   7.353
 9207POPC   C1B53971  16.787  13.424   6.453
 9207POPC   C2B53972  16.771  13.352   6.753
 9207POPC   C3B53973  16.779  13.359   7.053
 9207POPC   C4B53974  16.769  13.366   7.353
 9208POPC   NC353975  35.302   1.243   5.553
 9208POPC   PO453976  35.384   1.238   5.853
 9208POPC   GL153977  35.313   1.203   6.153
 9208POPC   GL253978  35.311   1.156   6.153
 9208POPC   C1A53979  35.321   1.243   6.453
 9208POPC   D2A53980  35.373   1.218   6.753
 9208POPC   C3A53981  35.327   1.199   7.053
 9208POPC   C4A53982  35.330   1.257   7.353
 9208POPC   C1B53983  35.192   1.031   6.453
 9208POPC   C2B53984  35.201   1.059   6.753
 9208POPC   C3B53985  35.142   1.033   7.053
 9208POPC   C4B53986  35.214   1.007   7.353
 9209POPC   NC353987  18.241  25.997   5.553
 9209POPC   PO453988  18.250  26.023   5.853
 9209POPC   GL153989  18.294  26.076   6.153
 9209POPC   GL253990  18.338  26.078   6.153
 9209POPC   C1A53991  18.243  26.068   6.453
 9209POPC   D2A53992  18.279  26.035   6.753
 9209POPC   C3A53993  18.331  26.025   7.053
 9209POPC   C4A53994  18.298  26.023   7.353
 9209POPC   C1B53995  18.466  26.200   6.453
 9209POPC   C2B53996  18.497  26.245   6.753
 9209POPC   C3B53997  18.447  26.171   7.053
 9209POPC   C4B53998  18.416  26.213   7.353
 9210POPC   NC353999   5.074   1.952   5.553
 9210POPC   PO454000   5.059   2.016   5.853
 9210POPC   GL154001   5.051   1.955   6.153
 9210POPC   GL254002   5.199   1.979   6.153
 9210POPC   C1A54003   5.062   2.028   6.453
 9210POPC   D2A54004   5.075   1.966   6.753
 9210POPC   C3A54005   5.074   1.945   7.053
 9210POPC   C4A54006   5.141   1.964   7.353
 9210POPC   C1B54007   5.358   1.999   6.453
 9210POPC   C2B54008   5.293   1.964   6.753
 9210POPC   C3B54009   5.341   1.998   7.053
 9210POPC   C4B54010   5.324   2.056   7.353
 9211POPC   NC354011   9.777  10.529   5.553
 9211POPC   PO454012   9.792  10.573   5.853
 9211POPC   GL154013   9.767  10.510   6.153
 9211POPC   GL254014   9.708  10.415   6.153
 9211POPC   C1A54015   9.733  10.549   6.453
 9211POPC   D2A54016   9.713  10.558   6.753
 9211POPC   C3A54017   9.785  10.559   7.053
 9211POPC   C4A54018   9.794  10.481   7.353
 9211POPC   C1B54019   9.520  10.328   6.453
 9211POPC   C2B54020   9.535  10.316   6.753
 9211POPC   C3B54021   9.556  10.383   7.053
 9211POPC   C4B54022   9.587  10.397   7.353
 9212POPC   NC354023  27.563   2.036   5.553
 9212POPC   PO454024  27.596   2.030   5.853
 9212POPC   GL154025  27.588   2.030   6.153
 9212POPC   GL254026  27.440   2.032   6.153
 9212POPC   C1A54027  27.617   2.029   6.453
 9212POPC   D2A54028  27.626   1.949   6.753
 9212POPC   C3A54029  27.636   1.953   7.053
 9212POPC   C4A54030  27.587   2.030   7.353
 9212POPC   C1B54031  27.352   2.013   6.453
 9212POPC   C2B54032  27.367   1.942   6.753
 9212POPC   C3B54033  27.295   2.001   7.053
 9212POPC   C4B54034  27.297   1.986   7.353
 9213POPC   NC354035   5.870  31.501   5.553
 9213POPC   PO454036   5.835  31.470   5.853
 9213POPC   GL154037   5.890  31.519   6.153
 9213POPC   GL254038   5.787  31.321   6.153
 9213POPC   C1A54039   5.890  31.438   6.453
 9213POPC   D2A54040   5.871  31.433   6.753
 9213POPC   C3A54041   5.903  31.510   7.053
 9213POPC   C4A54042   5.854  31.473   7.353
 9213POPC   C1B54043   5.752  31.288   6.453
 9213POPC   C2B54044   5.716  31.261   6.753
 9213POPC   C3B54045   5.761  31.224   7.053
 9213POPC   C4B54046   5.724  31.215   7.353
 9214POPC   NC354047  23.672   6.655   5.553
 9214POPC   PO454048  23.701   6.680   5.853
 9214POPC   GL154049  23.683   6.610   6.153
 9214POPC   GL254050  23.671   6.541   6.153
 9214POPC   C1A54051  23.743   6.620   6.453
 9214POPC   D2A54052  23.697   6.638   6.753
 9214POPC   C3A54053  23.738   6.652   7.053
 9214POPC   C4A54054  23.752   6.667   7.353
 9214POPC   C1B54055  23.619   6.408   6.453
 9214POPC   C2B54056  23.541   6.402   6.753
 9214POPC   C3B54057  23.615   6.439   7.053
 9214POPC   C4B54058  23.558   6.413   7.353
 9215POPC   NC354059   1.233  31.426   5.553
 9215POPC   PO454060   1.204  31.426   5.853
 9215POPC   GL154061   1.219  31.468   6.153
 9215POPC   GL254062   1.119  31.408   6.153
 9215POPC   C1A54063   1.248  31.445   6.453
 9215POPC   D2A54064   1.165  31.489   6.753
 9215POPC   C3A54065   1.227  31.435   7.053
 9215POPC   C4A54066   1.234  31.489   7.353
 9215POPC   C1B54067   1.027  31.295   6.453
 9215POPC   C2B54068   1.031  31.328   6.753
 9215POPC   C3B54069   0.998  31.286   7.053
 9215POPC   C4B54070   0.991  31.295   7.353
 9216POPC   NC354071  27.642  41.548   5.553
 9216POPC   PO454072  27.620  41.553   5.853
 9216POPC   GL154073  27.631  41.531   6.153
 9216POPC   GL254074  27.679  41.551   6.153
 9216POPC   C1A54075  27.580  41.564   6.453
 9216POPC   D2A54076  27.595  41.556   6.753
 9216POPC   C3A54077  27.642  41.534   7.053
 9216POPC   C4A54078  27.576  41.534   7.353
 9216POPC   C1B54079  27.800  41.497   6.453
 9216POPC   C2B54080  27.795  41.435   6.753
 9216POPC   C3B54081  27.840  41.410   7.053
 9216POPC   C4B54082  27.833  41.480   7.353
 9217POPC   NC354083   1.213  29.136   5.553
 9217POPC   PO454084   1.238  29.119   5.853
 9217POPC   GL154085   1.250  29.124   6.153
 9217POPC   GL254086   1.262  29.057   6.153
 9217POPC   C1A54087   1.174  29.154   6.453
 9217POPC   D2A54088   1.223  29.168   6.753
 9217POPC   C3A54089   1.222  29.144   7.053
 9217POPC   C4A54090   1.216  29.116   7.353
 9217POPC   C1B54091   1.228  28.872   6.453
 9217POPC   C2B54092   1.185  28.934   6.753
 9217POPC   C3B54093   1.189  28.923   7.053
 9217POPC   C4B54094   1.210  28.895   7.353
 9218POPC   NC354095   0.404  28.333   5.553
 9218POPC   PO454096   0.465  28.386   5.853
 9218POPC   GL154097   0.441  28.407   6.153
 9218POPC   GL254098   0.358  28.219   6.153
 9218POPC   C1A54099   0.398  28.391   6.453
 9218POPC   D2A54100   0.464  28.333   6.753
 9218POPC   C3A54101   0.434  28.413   7.053
 9218POPC   C4A54102   0.485  28.364   7.353
 9218POPC   C1B54103   0.350  28.104   6.453
 9218POPC   C2B54104   0.330  28.116   6.753
 9218POPC   C3B54105   0.345  28.165   7.053
 9218POPC   C4B54106   0.367  28.106   7.353
 9219POPC   NC354107  22.962  24.491   5.553
 9219POPC   PO454108  22.946  24.449   5.853
 9219POPC   GL154109  22.936  24.509   6.153
 9219POPC   GL254110  22.982  24.399   6.153
 9219POPC   C1A54111  22.972  24.456   6.453
 9219POPC   D2A54112  22.962  24.488   6.753
 9219POPC   C3A54113  22.952  24.532   7.053
 9219POPC   C4A54114  22.939  24.466   7.353
 9219POPC   C1B54115  23.072  24.309   6.453
 9219POPC   C2B54116  23.092  24.286   6.753
 9219POPC   C3B54117  23.110  24.283   7.053
 9219POPC   C4B54118  23.125  24.265   7.353
 9220POPC   NC354119  14.411  16.766   5.553
 9220POPC   PO454120  14.364  16.745   5.853
 9220POPC   GL154121  14.413  16.763   6.153
 9220POPC   GL254122  14.323  16.789   6.153
 9220POPC   C1A54123  14.412  16.722   6.453
 9220POPC   D2A54124  14.446  16.726   6.753
 9220POPC   C3A54125  14.414  16.681   7.053
 9220POPC   C4A54126  14.441  16.701   7.353
 9220POPC   C1B54127  14.147  16.815   6.453
 9220POPC   C2B54128  14.206  16.853   6.753
 9220POPC   C3B54129  14.161  16.853   7.053
 9220POPC   C4B54130  14.162  16.833   7.353
 9221POPC   NC354131  25.308  43.087   5.553
 9221POPC   PO454132  25.244  43.090   5.853
 9221POPC   GL154133  25.260  43.144   6.153
 9221POPC   GL254134  25.257  42.988   6.153
 9221POPC   C1A54135  25.287  43.088   6.453
 9221POPC   D2A54136  25.253  43.159   6.753
 9221POPC   C3A54137  25.278  43.068   7.053
 9221POPC   C4A54138  25.289  43.062   7.353
 9221POPC   C1B54139  25.147  42.883   6.453
 9221POPC   C2B54140  25.159  42.876   6.753
 9221POPC   C3B54141  25.109  42.898   7.053
 9221POPC   C4B54142  25.147  42.852   7.353
 9222POPC   NC354143  33.064  15.990   5.553
 9222POPC   PO454144  32.982  15.960   5.853
 9222POPC   GL154145  33.051  15.923   6.153
 9222POPC   GL254146  32.980  15.890   6.153
 9222POPC   C1A54147  33.053  15.916   6.453
 9222POPC   D2A54148  33.001  15.969   6.753
 9222POPC   C3A54149  32.996  15.999   7.053
 9222POPC   C4A54150  32.974  15.970   7.353
 9222POPC   C1B54151  32.854  15.750   6.453
 9222POPC   C2B54152  32.900  15.769   6.753
 9222POPC   C3B54153  32.852  15.777   7.053
 9222POPC   C4B54154  32.889  15.806   7.353
 9223POPC   NC354155   8.930  15.209   5.553
 9223POPC   PO454156   8.981  15.196   5.853
 9223POPC   GL154157   8.975  15.217   6.153
 9223POPC   GL254158   8.864  15.044   6.153
 9223POPC   C1A54159   8.925  15.171   6.453
 9223POPC   D2A54160   8.966  15.160   6.753
 9223POPC   C3A54161   8.931  15.197   7.053
 9223POPC   C4A54162   8.975  15.185   7.353
 9223POPC   C1B54163   8.816  14.987   6.453
 9223POPC   C2B54164   8.867  14.952   6.753
 9223POPC   C3B54165   8.811  14.950   7.053
 9223POPC   C4B54166   8.854  14.959   7.353
 9224POPC   NC354167  12.110  36.098   5.553
 9224POPC   PO454168  12.067  36.117   5.853
 9224POPC   GL154169  12.036  36.169   6.153
 9224POPC   GL254170  11.970  36.212   6.153
 9224POPC   C1A54171  12.071  36.146   6.453
 9224POPC   D2A54172  12.057  36.106   6.753
 9224POPC   C3A54173  12.121  36.145   7.053
 9224POPC   C4A54174  12.112  36.100   7.353
 9224POPC   C1B54175  11.862  36.214   6.453
 9224POPC   C2B54176  11.794  36.177   6.753
 9224POPC   C3B54177  11.880  36.192   7.053
 9224POPC   C4B54178  11.854  36.171   7.353
 9225POPC   NC354179   8.173  38.480   5.553
 9225POPC   PO454180   8.231  38.464   5.853
 9225POPC   GL154181   8.236  38.452   6.153
 9225POPC   GL254182   8.305  38.369   6.153
 9225POPC   C1A54183   8.216  38.435   6.453
 9225POPC   D2A54184   8.188  38.464   6.753
 9225POPC   C3A54185   8.185  38.482   7.053
 9225POPC   C4A54186   8.236  38.481   7.353
 9225POPC   C1B54187   8.329  38.283   6.453
 9225POPC   C2B54188   8.341  38.325   6.753
 9225POPC   C3B54189   8.410  38.311   7.053
 9225POPC   C4B54190   8.334  38.311   7.353
 9226POPC   NC354191  22.209  42.327   5.553
 9226POPC   PO454192  22.159  42.295   5.853
 9226POPC   GL154193  22.134  42.368   6.153
 9226POPC   GL254194  22.280  42.430   6.153
 9226POPC   C1A54195  22.200  42.352   6.453
 9226POPC   D2A54196  22.154  42.380   6.753
 9226POPC   C3A54197  22.157  42.312   7.053
 9226POPC   C4A54198  22.127  42.326   7.353
 9226POPC   C1B54199  22.388  42.453   6.453
 9226POPC   C2B54200  22.416  42.440   6.753
 9226POPC   C3B54201  22.343  42.425   7.053
 9226POPC   C4B54202  22.339  42.488   7.353
 9227POPC   NC354203  16.002  43.152   5.553
 9227POPC   PO454204  15.908  43.096   5.853
 9227POPC   GL154205  15.950  43.098   6.153
 9227POPC   GL254206  15.958  43.029   6.153
 9227POPC   C1A54207  16.002  43.066   6.453
 9227POPC   D2A54208  15.944  43.130   6.753
 9227POPC   C3A54209  15.966  43.088   7.053
 9227POPC   C4A54210  15.942  43.104   7.353
 9227POPC   C1B54211  16.020  42.866   6.453
 9227POPC   C2B54212  15.949  42.821   6.753
 9227POPC   C3B54213  15.987  42.816   7.053
 9227POPC   C4B54214  16.018  42.823   7.353
 9228POPC   NC354215   2.790  44.663   5.553
 9228POPC   PO454216   2.734  44.634   5.853
 9228POPC   GL154217   2.813  44.686   6.153
 9228POPC   GL254218   2.723  44.786   6.153
 9228POPC   C1A54219   2.796  44.657   6.453
 9228POPC   D2A54220   2.780  44.685   6.753
 9228POPC   C3A54221   2.720  44.656   7.053
 9228POPC   C4A54222   2.790  44.649   7.353
 9228POPC   C1B54223   2.701  44.860   6.453
 9228POPC   C2B54224   2.673  44.941   6.753
 9228POPC   C3B54225   2.639  44.868   7.053
 9228POPC   C4B54226   2.724  44.902   7.353
 9229POPC   NC354227  22.906  27.589   5.553
 9229POPC   PO454228  22.951  27.619   5.853
 9229POPC   GL154229  22.943  27.641   6.153
 9229POPC   GL254230  22.948  27.440   6.153
 9229POPC   C1A54231  22.907  27.601   6.453
 9229POPC   D2A54232  22.980  27.640   6.753
 9229POPC   C3A54233  22.950  27.605   7.053
 9229POPC   C4A54234  22.910  27.556   7.353
 9229POPC   C1B54235  22.982  27.322   6.453
 9229POPC   C2B54236  22.965  27.313   6.753
 9229POPC   C3B54237  22.963  27.385   7.053
 9229POPC   C4B54238  23.037  27.310   7.353
 9230POPC   NC354239  36.864  43.114   5.553
 9230POPC   PO454240  36.915  43.142   5.853
 9230POPC   GL154241  36.862  43.118   6.153
 9230POPC   GL254242  36.990  43.212   6.153
 9230POPC   C1A54243  36.881  43.112   6.453
 9230POPC   D2A54244  36.913  43.134   6.753
 9230POPC   C3A54245  36.915  43.082   7.053
 9230POPC   C4A54246  36.863  43.079   7.353
 9230POPC   C1B54247  37.078  43.223   6.453
 9230POPC   C2B54248  37.147  43.297   6.753
 9230POPC   C3B54249  37.089  43.218   7.053
 9230POPC   C4B54250  37.089  43.266   7.353
 9231POPC   NC354251  30.653  43.853   5.553
 9231POPC   PO454252  30.701  43.861   5.853
 9231POPC   GL154253  30.715  43.909   6.153
 9231POPC   GL254254  30.630  43.781   6.153
 9231POPC   C1A54255  30.738  43.882   6.453
 9231POPC   D2A54256  30.684  43.871   6.753
 9231POPC   C3A54257  30.674  43.840   7.053
 9231POPC   C4A54258  30.686  43.889   7.353
 9231POPC   C1B54259  30.547  43.682   6.453
 9231POPC   C2B54260  30.535  43.749   6.753
 9231POPC   C3B54261  30.566  43.689   7.053
 9231POPC   C4B54262  30.525  43.697   7.353
 9232POPC   NC354263  12.883  11.317   5.553
 9232POPC   PO454264  12.864  11.288   5.853
 9232POPC   GL154265  12.817  11.294   6.153
 9232POPC   GL254266  12.827  11.393   6.153
 9232POPC   C1A54267  12.887  11.254   6.453
 9232POPC   D2A54268  12.857  11.260   6.753
 9232POPC   C3A54269  12.813  11.258   7.053
 9232POPC   C4A54270  12.854  11.316   7.353
 9232POPC   C1B54271  12.695  11.477   6.453
 9232POPC   C2B54272  12.692  11.530   6.753
 9232POPC   C3B54273  12.691  11.534   7.053
 9232POPC   C4B54274  12.705  11.481   7.353
 9233POPC   NC354275  19.103  37.690   5.553
 9233POPC   PO454276  19.066  37.706   5.853
 9233POPC   GL154277  19.012  37.634   6.153
 9233POPC   GL254278  18.959  37.704   6.153
 9233POPC   C1A54279  19.063  37.729   6.453
 9233POPC   D2A54280  19.031  37.704   6.753
 9233POPC   C3A54281  19.031  37.709   7.053
 9233POPC   C4A54282  19.083  37.680   7.353
 9233POPC   C1B54283  18.803  37.717   6.453
 9233POPC   C2B54284  18.766  37.696   6.753
 9233POPC   C3B54285  18.842  37.754   7.053
 9233POPC   C4B54286  18.849  37.745   7.353
 9234POPC   NC354287  39.278  24.449   5.553
 9234POPC   PO454288  39.258  24.537   5.853
 9234POPC   GL154289  39.203  24.500   6.153
 9234POPC   GL254290  39.231  24.395   6.153
 9234POPC   C1A54291  39.193  24.453   6.453
 9234POPC   D2A54292  39.214  24.484   6.753
 9234POPC   C3A54293  39.242  24.489   7.053
 9234POPC   C4A54294  39.201  24.480   7.353
 9234POPC   C1B54295  39.309  24.251   6.453
 9234POPC   C2B54296  39.288  24.225   6.753
 9234POPC   C3B54297  39.296  24.252   7.053
 9234POPC   C4B54298  39.277  24.234   7.353
 9235POPC   NC354299  44.622   6.694   5.553
 9235POPC   PO454300  44.663   6.605   5.853
 9235POPC   GL154301  44.643   6.690   6.153
 9235POPC   GL254302  44.581   6.565   6.153
 9235POPC   C1A54303  44.694   6.641   6.453
 9235POPC   D2A54304  44.643   6.620   6.753
 9235POPC   C3A54305  44.686   6.666   7.053
 9235POPC   C4A54306  44.675   6.666   7.353
 9235POPC   C1B54307  44.570   6.460   6.453
 9235POPC   C2B54308  44.497   6.416   6.753
 9235POPC   C3B54309  44.514   6.390   7.053
 9235POPC   C4B54310  44.528   6.397   7.353
 9236POPC   NC354311   7.412  40.025   5.553
 9236POPC   PO454312   7.423  39.982   5.853
 9236POPC   GL154313   7.436  39.976   6.153
 9236POPC   GL254314   7.327  39.937   6.153
 9236POPC   C1A54315   7.453  39.976   6.453
 9236POPC   D2A54316   7.422  39.962   6.753
 9236POPC   C3A54317   7.444  39.976   7.053
 9236POPC   C4A54318   7.455  40.013   7.353
 9236POPC   C1B54319   7.194  39.831   6.453
 9236POPC   C2B54320   7.263  39.860   6.753
 9236POPC   C3B54321   7.185  39.883   7.053
 9236POPC   C4B54322   7.206  39.863   7.353
 9237POPC   NC354323  18.242  21.352   5.553
 9237POPC   PO454324  18.282  21.413   5.853
 9237POPC   GL154325  18.327  21.415   6.153
 9237POPC   GL254326  18.166  21.297   6.153
 9237POPC   C1A54327  18.315  21.408   6.453
 9237POPC   D2A54328  18.288  21.338   6.753
 9237POPC   C3A54329  18.314  21.381   7.053
 9237POPC   C4A54330  18.304  21.341   7.353
 9237POPC   C1B54331  18.073  21.266   6.453
 9237POPC   C2B54332  18.064  21.249   6.753
 9237POPC   C3B54333  18.073  21.259   7.053
 9237POPC   C4B54334  18.033  21.260   7.353
 9238POPC   NC354335  25.234   3.580   5.553
 9238POPC   PO454336  25.218   3.575   5.853
 9238POPC   GL154337  25.225   3.521   6.153
 9238POPC   GL254338  25.282   3.649   6.153
 9238POPC   C1A54339  25.259   3.565   6.453
 9238POPC   D2A54340  25.304   3.557   6.753
 9238POPC   C3A54341  25.230   3.501   7.053
 9238POPC   C4A54342  25.231   3.570   7.353
 9238POPC   C1B54343  25.308   3.832   6.453
 9238POPC   C2B54344  25.321   3.768   6.753
 9238POPC   C3B54345  25.322   3.735   7.053
 9238POPC   C4B54346  25.311   3.794   7.353
 9239POPC   NC354347  41.553  40.800   5.553
 9239POPC   PO454348  41.561  40.815   5.853
 9239POPC   GL154349  41.532  40.770   6.153
 9239POPC   GL254350  41.482  40.780   6.153
 9239POPC   C1A54351  41.564  40.761   6.453
 9239POPC   D2A54352  41.512  40.784   6.753
 9239POPC   C3A54353  41.520  40.772   7.053
 9239POPC   C4A54354  41.521  40.807   7.353
 9239POPC   C1B54355  41.331  40.819   6.453
 9239POPC   C2B54356  41.346  40.815   6.753
 9239POPC   C3B54357  41.309  40.773   7.053
 9239POPC   C4B54358  41.337  40.836   7.353
 9240POPC   NC354359  19.042  23.681   5.553
 9240POPC   PO454360  19.065  23.760   5.853
 9240POPC   GL154361  19.045  23.727   6.153
 9240POPC   GL254362  19.136  23.620   6.153
 9240POPC   C1A54363  19.092  23.689   6.453
 9240POPC   D2A54364  19.018  23.673   6.753
 9240POPC   C3A54365  19.097  23.681   7.053
 9240POPC   C4A54366  19.085  23.736   7.353
 9240POPC   C1B54367  19.249  23.578   6.453
 9240POPC   C2B54368  19.338  23.650   6.753
 9240POPC   C3B54369  19.254  23.664   7.053
 9240POPC   C4B54370  19.327  23.662   7.353
 9241POPC   NC354371  18.307  15.919   5.553
 9241POPC   PO454372  18.291  15.984   5.853
 9241POPC   GL154373  18.282  15.990   6.153
 9241POPC   GL254374  18.190  16.037   6.153
 9241POPC   C1A54375  18.318  16.000   6.453
 9241POPC   D2A54376  18.278  15.943   6.753
 9241POPC   C3A54377  18.268  15.939   7.053
 9241POPC   C4A54378  18.290  15.963   7.353
 9241POPC   C1B54379  18.146  16.199   6.453
 9241POPC   C2B54380  18.101  16.205   6.753
 9241POPC   C3B54381  18.109  16.124   7.053
 9241POPC   C4B54382  18.116  16.126   7.353
 9242POPC   NC354383  26.029   5.107   5.553
 9242POPC   PO454384  26.032   5.098   5.853
 9242POPC   GL154385  26.019   5.142   6.153
 9242POPC   GL254386  25.922   5.145   6.153
 9242POPC   C1A54387  26.027   5.067   6.453
 9242POPC   D2A54388  26.077   5.124   6.753
 9242POPC   C3A54389  26.032   5.122   7.053
 9242POPC   C4A54390  26.043   5.134   7.353
 9242POPC   C1B54391  25.806   5.171   6.453
 9242POPC   C2B54392  25.785   5.151   6.753
 9242POPC   C3B54393  25.781   5.111   7.053
 9242POPC   C4B54394  25.751   5.157   7.353
 9243POPC   NC354395  12.036  15.212   5.553
 9243POPC   PO454396  12.037  15.166   5.853
 9243POPC   GL154397  12.088  15.136   6.153
 9243POPC   GL254398  12.107  15.109   6.153
 9243POPC   C1A54399  12.080  15.174   6.453
 9243POPC   D2A54400  12.079  15.155   6.753
 9243POPC   C3A54401  12.036  15.192   7.053
 9243POPC   C4A54402  12.100  15.215   7.353
 9243POPC   C1B54403  12.270  14.977   6.453
 9243POPC   C2B54404  12.232  14.939   6.753
 9243POPC   C3B54405  12.261  15.005   7.053
 9243POPC   C4B54406  12.202  14.946   7.353
 9244POPC   NC354407  26.058  41.551   5.553
 9244POPC   PO454408  26.089  41.561   5.853
 9244POPC   GL154409  26.005  41.517   6.153
 9244POPC   GL254410  25.949  41.415   6.153
 9244POPC   C1A54411  26.005  41.559   6.453
 9244POPC   D2A54412  26.059  41.561   6.753
 9244POPC   C3A54413  26.019  41.565   7.053
 9244POPC   C4A54414  26.004  41.534   7.353
 9244POPC   C1B54415  25.961  41.294   6.453
 9244POPC   C2B54416  25.913  41.307   6.753
 9244POPC   C3B54417  25.892  41.308   7.053
 9244POPC   C4B54418  25.912  41.349   7.353
 9245POPC   NC354419   3.518  33.026   5.553
 9245POPC   PO454420   3.563  33.069   5.853
 9245POPC   GL154421   3.551  33.050   6.153
 9245POPC   GL254422   3.438  32.968   6.153
 9245POPC   C1A54423   3.498  33.046   6.453
 9245POPC   D2A54424   3.535  33.018   6.753
 9245POPC   C3A54425   3.503  33.020   7.053
 9245POPC   C4A54426   3.492  32.980   7.353
 9245POPC   C1B54427   3.338  32.884   6.453
 9245POPC   C2B54428   3.344  32.792   6.753
 9245POPC   C3B54429   3.398  32.859   7.053
 9245POPC   C4B54430   3.334  32.887   7.353
 9246POPC   NC354431   2.007  12.834   5.553
 9246POPC   PO454432   1.977  12.842   5.853
 9246POPC   GL154433   2.035  12.896   6.153
 9246POPC   GL254434   1.822  12.906   6.153
 9246POPC   C1A54435   1.960  12.819   6.453
 9246POPC   D2A54436   1.998  12.805   6.753
 9246POPC   C3A54437   2.021  12.819   7.053
 9246POPC   C4A54438   1.987  12.815   7.353
 9246POPC   C1B54439   1.760  12.931   6.453
 9246POPC   C2B54440   1.727  12.972   6.753
 9246POPC   C3B54441   1.773  12.909   7.053
 9246POPC   C4B54442   1.735  12.901   7.353
 9247POPC   NC354443   2.036   4.325   5.553
 9247POPC   PO454444   1.943   4.303   5.853
 9247POPC   GL154445   2.013   4.320   6.153
 9247POPC   GL254446   2.113   4.254   6.153
 9247POPC   C1A54447   1.980   4.272   6.453
 9247POPC   D2A54448   2.012   4.352   6.753
 9247POPC   C3A54449   1.988   4.356   7.053
 9247POPC   C4A54450   2.000   4.327   7.353
 9247POPC   C1B54451   2.181   4.210   6.453
 9247POPC   C2B54452   2.182   4.153   6.753
 9247POPC   C3B54453   2.205   4.213   7.053
 9247POPC   C4B54454   2.223   4.139   7.353
 9248POPC   NC354455  43.881  19.824   5.553
 9248POPC   PO454456  43.902  19.838   5.853
 9248POPC   GL154457  43.840  19.796   6.153
 9248POPC   GL254458  43.941  19.885   6.153
 9248POPC   C1A54459  43.888  19.836   6.453
 9248POPC   D2A54460  43.906  19.832   6.753
 9248POPC   C3A54461  43.899  19.793   7.053
 9248POPC   C4A54462  43.907  19.812   7.353
 9248POPC   C1B54463  44.008  20.046   6.453
 9248POPC   C2B54464  44.036  20.023   6.753
 9248POPC   C3B54465  44.024  19.995   7.053
 9248POPC   C4B54466  44.035  20.021   7.353
 9249POPC   NC354467  18.244  22.889   5.553
 9249POPC   PO454468  18.239  22.984   5.853
 9249POPC   GL154469  18.327  22.892   6.153
 9249POPC   GL254470  18.132  22.961   6.153
 9249POPC   C1A54471  18.311  22.971   6.453
 9249POPC   D2A54472  18.240  22.894   6.753
 9249POPC   C3A54473  18.302  22.907   7.053
 9249POPC   C4A54474  18.242  22.973   7.353
 9249POPC   C1B54475  18.065  22.940   6.453
 9249POPC   C2B54476  18.068  22.936   6.753
 9249POPC   C3B54477  18.036  22.926   7.053
 9249POPC   C4B54478  18.021  22.936   7.353
 9250POPC   NC354479  11.281  28.344   5.553
 9250POPC   PO454480  11.321  28.341   5.853
 9250POPC   GL154481  11.258  28.327   6.153
 9250POPC   GL254482  11.142  28.444   6.153
 9250POPC   C1A54483  11.279  28.409   6.453
 9250POPC   D2A54484  11.311  28.348   6.753
 9250POPC   C3A54485  11.335  28.385   7.053
 9250POPC   C4A54486  11.283  28.387   7.353
 9250POPC   C1B54487  11.080  28.408   6.453
 9250POPC   C2B54488  11.027  28.433   6.753
 9250POPC   C3B54489  11.008  28.426   7.053
 9250POPC   C4B54490  11.079  28.397   7.353
 9251POPC   NC354491  12.084  12.107   5.553
 9251POPC   PO454492  12.036  12.116   5.853
 9251POPC   GL154493  12.106  12.029   6.153
 9251POPC   GL254494  12.084  12.004   6.153
 9251POPC   C1A54495  12.037  12.099   6.453
 9251POPC   D2A54496  12.065  12.093   6.753
 9251POPC   C3A54497  12.040  12.089   7.053
 9251POPC   C4A54498  12.106  12.076   7.353
 9251POPC   C1B54499  12.048  11.868   6.453
 9251POPC   C2B54500  12.041  11.843   6.753
 9251POPC   C3B54501  12.056  11.800   7.053
 9251POPC   C4B54502  11.998  11.814   7.353
 9252POPC   NC354503  41.525  29.963   5.553
 9252POPC   PO454504  41.584  29.931   5.853
 9252POPC   GL154505  41.566  29.961   6.153
 9252POPC   GL254506  41.520  29.836   6.153
 9252POPC   C1A54507  41.556  29.897   6.453
 9252POPC   D2A54508  41.587  29.966   6.753
 9252POPC   C3A54509  41.534  29.883   7.053
 9252POPC   C4A54510  41.552  29.871   7.353
 9252POPC   C1B54511  41.485  29.668   6.453
 9252POPC   C2B54512  41.414  29.749   6.753
 9252POPC   C3B54513  41.466  29.705   7.053
 9252POPC   C4B54514  41.466  29.679   7.353
 9253POPC   NC354515  38.432  32.250   5.553
 9253POPC   PO454516  38.504  32.258   5.853
 9253POPC   GL154517  38.478  32.265   6.153
 9253POPC   GL254518  38.313  32.319   6.153
 9253POPC   C1A54519  38.436  32.213   6.453
 9253POPC   D2A54520  38.497  32.234   6.753
 9253POPC   C3A54521  38.475  32.214   7.053
 9253POPC   C4A54522  38.492  32.240   7.353
 9253POPC   C1B54523  38.280  32.356   6.453
 9253POPC   C2B54524  38.210  32.311   6.753
 9253POPC   C3B54525  38.200  32.387   7.053
 9253POPC   C4B54526  38.183  32.338   7.353
 9254POPC   NC354527  41.553  27.547   5.553
 9254POPC   PO454528  41.600  27.557   5.853
 9254POPC   GL154529  41.572  27.613   6.153
 9254POPC   GL254530  41.420  27.589   6.153
 9254POPC   C1A54531  41.549  27.623   6.453
 9254POPC   D2A54532  41.510  27.629   6.753
 9254POPC   C3A54533  41.592  27.634   7.053
 9254POPC   C4A54534  41.536  27.590   7.353
 9254POPC   C1B54535  41.346  27.510   6.453
 9254POPC   C2B54536  41.331  27.525   6.753
 9254POPC   C3B54537  41.317  27.508   7.053
 9254POPC   C4B54538  41.317  27.530   7.353
 9255POPC   NC354539   8.221  40.023   5.553
 9255POPC   PO454540   8.179  39.983   5.853
 9255POPC   GL154541   8.159  40.044   6.153
 9255POPC   GL254542   8.288  39.951   6.153
 9255POPC   C1A54543   8.177  39.964   6.453
 9255POPC   D2A54544   8.242  40.044   6.753
 9255POPC   C3A54545   8.156  40.043   7.053
 9255POPC   C4A54546   8.199  39.990   7.353
 9255POPC   C1B54547   8.432  39.831   6.453
 9255POPC   C2B54548   8.389  39.863   6.753
 9255POPC   C3B54549   8.414  39.924   7.053
 9255POPC   C4B54550   8.419  39.844   7.353
 9256POPC   NC354551   0.459  33.837   5.553
 9256POPC   PO454552   0.399  33.790   5.853
 9256POPC   GL154553   0.417  33.754   6.153
 9256POPC   GL254554   0.314  33.692   6.153
 9256POPC   C1A54555   0.410  33.848   6.453
 9256POPC   D2A54556   0.407  33.791   6.753
 9256POPC   C3A54557   0.393  33.822   7.053
 9256POPC   C4A54558   0.408  33.774   7.353
 9256POPC   C1B54559   0.270  33.622   6.453
 9256POPC   C2B54560   0.243  33.640   6.753
 9256POPC   C3B54561   0.295  33.600   7.053
 9256POPC   C4B54562   0.242  33.628   7.353
 9257POPC   NC354563  17.525  44.623   5.553
 9257POPC   PO454564  17.524  44.628   5.853
 9257POPC   GL154565  17.522  44.690   6.153
 9257POPC   GL254566  17.383  44.642   6.153
 9257POPC   C1A54567  17.461  44.635   6.453
 9257POPC   D2A54568  17.513  44.666   6.753
 9257POPC   C3A54569  17.533  44.705   7.053
 9257POPC   C4A54570  17.463  44.622   7.353
 9257POPC   C1B54571  17.271  44.573   6.453
 9257POPC   C2B54572  17.283  44.617   6.753
 9257POPC   C3B54573  17.287  44.586   7.053
 9257POPC   C4B54574  17.255  44.623   7.353
 9258POPC   NC354575  34.560  28.389   5.553
 9258POPC   PO454576  34.611  28.345   5.853
 9258POPC   GL154577  34.541  28.412   6.153
 9258POPC   GL254578  34.622  28.465   6.153
 9258POPC   C1A54579  34.527  28.375   6.453
 9258POPC   D2A54580  34.591  28.416   6.753
 9258POPC   C3A54581  34.542  28.353   7.053
 9258POPC   C4A54582  34.558  28.333   7.353
 9258POPC   C1B54583  34.662  28.642   6.453
 9258POPC   C2B54584  34.654  28.574   6.753
 9258POPC   C3B54585  34.629  28.613   7.053
 9258POPC   C4B54586  34.591  28.607   7.353
 9259POPC   NC354587   5.846  12.051   5.553
 9259POPC   PO454588   5.893  12.040   5.853
 9259POPC   GL154589   5.914  12.125   6.153
 9259POPC   GL254590   5.952  12.014   6.153
 9259POPC   C1A54591   5.830  12.037   6.453
 9259POPC   D2A54592   5.887  12.093   6.753
 9259POPC   C3A54593   5.863  12.087   7.053
 9259POPC   C4A54594   5.914  12.028   7.353
 9259POPC   C1B54595   6.018  11.881   6.453
 9259POPC   C2B54596   6.011  11.924   6.753
 9259POPC   C3B54597   6.066  11.871   7.053
 9259POPC   C4B54598   6.012  11.898   7.353
 9260POPC   NC354599  12.096  26.858   5.553
 9260POPC   PO454600  12.122  26.792   5.853
 9260POPC   GL154601  12.080  26.768   6.153
 9260POPC   GL254602  12.048  26.738   6.153
 9260POPC   C1A54603  12.109  26.791   6.453
 9260POPC   D2A54604  12.118  26.817   6.753
 9260POPC   C3A54605  12.110  26.771   7.053
 9260POPC   C4A54606  12.104  26.776   7.353
 9260POPC   C1B54607  12.097  26.603   6.453
 9260POPC   C2B54608  12.075  26.580   6.753
 9260POPC   C3B54609  12.127  26.613   7.053
 9260POPC   C4B54610  12.101  26.573   7.353
 9261POPC   NC354611  26.050   5.889   5.553
 9261POPC   PO454612  26.084   5.880   5.853
 9261POPC   GL154613  26.071   5.918   6.153
 9261POPC   GL254614  26.033   5.789   6.153
 9261POPC   C1A54615  26.020   5.823   6.453
 9261POPC   D2A54616  26.080   5.883   6.753
 9261POPC   C3A54617  26.084   5.907   7.053
 9261POPC   C4A54618  26.044   5.829   7.353
 9261POPC   C1B54619  26.062   5.657   6.453
 9261POPC   C2B54620  26.066   5.593   6.753
 9261POPC   C3B54621  26.058   5.621   7.053
 9261POPC   C4B54622  26.118   5.668   7.353
 9262POPC   NC354623  39.979  35.351   5.553
 9262POPC   PO454624  39.981  35.334   5.853
 9262POPC   GL154625  40.031  35.364   6.153
 9262POPC   GL254626  39.995  35.467   6.153
 9262POPC   C1A54627  40.048  35.323   6.453
 9262POPC   D2A54628  39.963  35.348   6.753
 9262POPC   C3A54629  40.038  35.325   7.053
 9262POPC   C4A54630  40.015  35.370   7.353
 9262POPC   C1B54631  39.853  35.562   6.453
 9262POPC   C2B54632  39.932  35.620   6.753
 9262POPC   C3B54633  39.879  35.602   7.053
 9262POPC   C4B54634  39.890  35.566   7.353
 9263POPC   NC354635  32.199  18.247   5.553
 9263POPC   PO454636  32.236  18.271   5.853
 9263POPC   GL154637  32.253  18.238   6.153
 9263POPC   GL254638  32.355  18.153   6.153
 9263POPC   C1A54639  32.217  18.275   6.453
 9263POPC   D2A54640  32.270  18.268   6.753
 9263POPC   C3A54641  32.198  18.299   7.053
 9263POPC   C4A54642  32.234  18.299   7.353
 9263POPC   C1B54643  32.455  18.089   6.453
 9263POPC   C2B54644  32.387  18.144   6.753
 9263POPC   C3B54645  32.458  18.106   7.053
 9263POPC   C4B54646  32.466  18.144   7.353
 9264POPC   NC354647  20.644  40.824   5.553
 9264POPC   PO454648  20.637  40.789   5.853
 9264POPC   GL154649  20.567  40.776   6.153
 9264POPC   GL254650  20.523  40.705   6.153
 9264POPC   C1A54651  20.630  40.740   6.453
 9264POPC   D2A54652  20.654  40.749   6.753
 9264POPC   C3A54653  20.625  40.765   7.053
 9264POPC   C4A54654  20.583  40.737   7.353
 9264POPC   C1B54655  20.429  40.550   6.453
 9264POPC   C2B54656  20.411  40.617   6.753
 9264POPC   C3B54657  20.417  40.572   7.053
 9264POPC   C4B54658  20.405  40.638   7.353
 9265POPC   NC354659  25.229  26.058   5.553
 9265POPC   PO454660  25.244  26.067   5.853
 9265POPC   GL154661  25.303  26.068   6.153
 9265POPC   GL254662  25.326  26.158   6.153
 9265POPC   C1A54663  25.272  26.006   6.453
 9265POPC   D2A54664  25.263  26.016   6.753
 9265POPC   C3A54665  25.268  26.013   7.053
 9265POPC   C4A54666  25.279  26.028   7.353
 9265POPC   C1B54667  25.392  26.215   6.453
 9265POPC   C2B54668  25.367  26.222   6.753
 9265POPC   C3B54669  25.440  26.247   7.053
 9265POPC   C4B54670  25.408  26.229   7.353
 9266POPC   NC354671  33.022  14.453   5.553
 9266POPC   PO454672  33.057  14.417   5.853
 9266POPC   GL154673  33.034  14.365   6.153
 9266POPC   GL254674  32.960  14.331   6.153
 9266POPC   C1A54675  33.035  14.444   6.453
 9266POPC   D2A54676  32.996  14.420   6.753
 9266POPC   C3A54677  33.045  14.406   7.053
 9266POPC   C4A54678  33.016  14.383   7.353
 9266POPC   C1B54679  32.768  14.303   6.453
 9266POPC   C2B54680  32.808  14.238   6.753
 9266POPC   C3B54681  32.769  14.325   7.053
 9266POPC   C4B54682  32.772  14.317   7.353
 9267POPC   NC354683   7.388  37.682   5.553
 9267POPC   PO454684   7.386  37.679   5.853
 9267POPC   GL154685   7.460  37.725   6.153
 9267POPC   GL254686   7.567  37.585   6.153
 9267POPC   C1A54687   7.436  37.692   6.453
 9267POPC   D2A54688   7.431  37.718   6.753
 9267POPC   C3A54689   7.429  37.684   7.053
 9267POPC   C4A54690   7.453  37.648   7.353
 9267POPC   C1B54691   7.612  37.536   6.453
 9267POPC   C2B54692   7.669  37.554   6.753
 9267POPC   C3B54693   7.642  37.592   7.053
 9267POPC   C4B54694   7.643  37.554   7.353
 9268POPC   NC354695  42.368  22.942   5.553
 9268POPC   PO454696  42.296  22.958   5.853
 9268POPC   GL154697  42.358  22.962   6.153
 9268POPC   GL254698  42.267  22.786   6.153
 9268POPC   C1A54699  42.349  22.949   6.453
 9268POPC   D2A54700  42.335  22.919   6.753
 9268POPC   C3A54701  42.309  22.937   7.053
 9268POPC   C4A54702  42.350  22.931   7.353
 9268POPC   C1B54703  42.191  22.704   6.453
 9268POPC   C2B54704  42.183  22.766   6.753
 9268POPC   C3B54705  42.195  22.713   7.053
 9268POPC   C4B54706  42.162  22.728   7.353
 9269POPC   NC354707  12.056  27.560   5.553
 9269POPC   PO454708  12.046  27.612   5.853
 9269POPC   GL154709  12.049  27.637   6.153
 9269POPC   GL254710  11.999  27.488   6.153
 9269POPC   C1A54711  12.091  27.631   6.453
 9269POPC   D2A54712  12.083  27.580   6.753
 9269POPC   C3A54713  12.029  27.616   7.053
 9269POPC   C4A54714  12.086  27.563   7.353
 9269POPC   C1B54715  12.031  27.364   6.453
 9269POPC   C2B54716  12.024  27.338   6.753
 9269POPC   C3B54717  12.007  27.311   7.053
 9269POPC   C4B54718  11.951  27.371   7.353
 9270POPC   NC354719  43.159   2.002   5.553
 9270POPC   PO454720  43.114   1.949   5.853
 9270POPC   GL154721  43.068   2.037   6.153
 9270POPC   GL254722  43.188   1.901   6.153
 9270POPC   C1A54723  43.089   1.992   6.453
 9270POPC   D2A54724  43.063   2.011   6.753
 9270POPC   C3A54725  43.065   1.993   7.053
 9270POPC   C4A54726  43.153   2.030   7.353
 9270POPC   C1B54727  43.201   1.760   6.453
 9270POPC   C2B54728  43.221   1.777   6.753
 9270POPC   C3B54729  43.224   1.803   7.053
 9270POPC   C4B54730  43.284   1.784   7.353
 9271POPC   NC354731   2.003   5.101   5.553
 9271POPC   PO454732   2.039   5.140   5.853
 9271POPC   GL154733   1.974   5.093   6.153
 9271POPC   GL254734   1.995   5.017   6.153
 9271POPC   C1A54735   1.995   5.079   6.453
 9271POPC   D2A54736   1.982   5.046   6.753
 9271POPC   C3A54737   1.960   5.064   7.053
 9271POPC   C4A54738   2.028   5.136   7.353
 9271POPC   C1B54739   2.020   4.819   6.453
 9271POPC   C2B54740   2.078   4.882   6.753
 9271POPC   C3B54741   2.096   4.841   7.053
 9271POPC   C4B54742   2.073   4.899   7.353
 9272POPC   NC354743  44.688  16.711   5.553
 9272POPC   PO454744  44.653  16.765   5.853
 9272POPC   GL154745  44.701  16.699   6.153
 9272POPC   GL254746  44.722  16.824   6.153
 9272POPC   C1A54747  44.685  16.697   6.453
 9272POPC   D2A54748  44.707  16.709   6.753
 9272POPC   C3A54749  44.649  16.699   7.053
 9272POPC   C4A54750  44.681  16.713   7.353
 9272POPC   C1B54751  44.854  16.865   6.453
 9272POPC   C2B54752  44.853  16.915   6.753
 9272POPC   C3B54753  44.791  16.924   7.053
 9272POPC   C4B54754  44.872  16.897   7.353
 9273POPC   NC354755  16.003   1.183   5.553
 9273POPC   PO454756  15.920   1.167   5.853
 9273POPC   GL154757  15.979   1.171   6.153
 9273POPC   GL254758  15.978   1.067   6.153
 9273POPC   C1A54759  15.954   1.208   6.453
 9273POPC   D2A54760  15.922   1.184   6.753
 9273POPC   C3A54761  15.968   1.168   7.053
 9273POPC   C4A54762  15.973   1.259   7.353
 9273POPC   C1B54763  15.902   0.922   6.453
 9273POPC   C2B54764  15.929   0.941   6.753
 9273POPC   C3B54765  15.865   0.987   7.053
 9273POPC   C4B54766  15.926   0.954   7.353
 9274POPC   NC354767  43.906  33.835   5.553
 9274POPC   PO454768  43.859  33.819   5.853
 9274POPC   GL154769  43.847  33.829   6.153
 9274POPC   GL254770  43.903  33.669   6.153
 9274POPC   C1A54771  43.860  33.761   6.453
 9274POPC   D2A54772  43.865  33.813   6.753
 9274POPC   C3A54773  43.894  33.768   7.053
 9274POPC   C4A54774  43.888  33.808   7.353
 9274POPC   C1B54775  43.988  33.552   6.453
 9274POPC   C2B54776  43.957  33.551   6.753
 9274POPC   C3B54777  43.995  33.557   7.053
 9274POPC   C4B54778  43.923  33.524   7.353
 9275POPC   NC354779  31.490  32.978   5.553
 9275POPC   PO454780  31.512  33.035   5.853
 9275POPC   GL154781  31.449  33.044   6.153
 9275POPC   GL254782  31.416  32.860   6.153
 9275POPC   C1A54783  31.457  33.030   6.453
 9275POPC   D2A54784  31.451  33.002   6.753
 9275POPC   C3A54785  31.436  33.047   7.053
 9275POPC   C4A54786  31.448  32.982   7.353
 9275POPC   C1B54787  31.334  32.764   6.453
 9275POPC   C2B54788  31.387  32.757   6.753
 9275POPC   C3B54789  31.341  32.812   7.053
 9275POPC   C4B54790  31.368  32.773   7.353
 9276POPC   NC354791  34.577  11.336   5.553
 9276POPC   PO454792  34.620  11.334   5.853
 9276POPC   GL154793  34.550  11.336   6.153
 9276POPC   GL254794  34.703  11.228   6.153
 9276POPC   C1A54795  34.529  11.286   6.453
 9276POPC   D2A54796  34.605  11.307   6.753
 9276POPC   C3A54797  34.550  11.281   7.053
 9276POPC   C4A54798  34.555  11.342   7.353
 9276POPC   C1B54799  34.713  11.074   6.453
 9276POPC   C2B54800  34.768  11.105   6.753
 9276POPC   C3B54801  34.689  11.107   7.053
 9276POPC   C4B54802  34.754  11.090   7.353
 9277POPC   NC354803  27.607  15.166   5.553
 9277POPC   PO454804  27.608  15.216   5.853
 9277POPC   GL154805  27.556  15.196   6.153
 9277POPC   GL254806  27.665  15.038   6.153
 9277POPC   C1A54807  27.555  15.134   6.453
 9277POPC   D2A54808  27.561  15.170   6.753
 9277POPC   C3A54809  27.549  15.186   7.053
 9277POPC   C4A54810  27.546  15.159   7.353
 9277POPC   C1B54811  27.641  14.959   6.453
 9277POPC   C2B54812  27.701  14.926   6.753
 9277POPC   C3B54813  27.686  14.903   7.053
 9277POPC   C4B54814  27.707  14.964   7.353
 9278POPC   NC354815  37.658  22.937   5.553
 9278POPC   PO454816  37.709  22.925   5.853
 9278POPC   GL154817  37.723  22.965   6.153
 9278POPC   GL254818  37.606  23.027   6.153
 9278POPC   C1A54819  37.656  22.968   6.453
 9278POPC   D2A54820  37.665  22.953   6.753
 9278POPC   C3A54821  37.686  22.903   7.053
 9278POPC   C4A54822  37.675  22.899   7.353
 9278POPC   C1B54823  37.476  23.146   6.453
 9278POPC   C2B54824  37.510  23.151   6.753
 9278POPC   C3B54825  37.484  23.170   7.053
 9278POPC   C4B54826  37.541  23.143   7.353
 9279POPC   NC354827  41.536   0.424   5.553
 9279POPC   PO454828  41.547   0.463   5.853
 9279POPC   GL154829  41.553   0.417   6.153
 9279POPC   GL254830  41.437   0.427   6.153
 9279POPC   C1A54831  41.524   0.414   6.453
 9279POPC   D2A54832  41.513   0.411   6.753
 9279POPC   C3A54833  41.605   0.418   7.053
 9279POPC   C4A54834  41.593   0.435   7.353
 9279POPC   C1B54835  41.333   0.395   6.453
 9279POPC   C2B54836  41.301   0.438   6.753
 9279POPC   C3B54837  41.272   0.426   7.053
 9279POPC   C4B54838  41.343   0.427   7.353
 9280POPC   NC354839  13.601  11.327   5.553
 9280POPC   PO454840  13.636  11.350   5.853
 9280POPC   GL154841  13.594  11.265   6.153
 9280POPC   GL254842  13.695  11.451   6.153
 9280POPC   C1A54843  13.619  11.301   6.453
 9280POPC   D2A54844  13.626  11.315   6.753
 9280POPC   C3A54845  13.592  11.294   7.053
 9280POPC   C4A54846  13.638  11.290   7.353
 9280POPC   C1B54847  13.731  11.558   6.453
 9280POPC   C2B54848  13.673  11.567   6.753
 9280POPC   C3B54849  13.681  11.510   7.053
 9280POPC   C4B54850  13.688  11.505   7.353
 9281POPC   NC354851  36.124   5.838   5.553
 9281POPC   PO454852  36.156   5.861   5.853
 9281POPC   GL154853  36.085   5.893   6.153
 9281POPC   GL254854  36.209   5.924   6.153
 9281POPC   C1A54855  36.150   5.824   6.453
 9281POPC   D2A54856  36.174   5.890   6.753
 9281POPC   C3A54857  36.156   5.881   7.053
 9281POPC   C4A54858  36.092   5.825   7.353
 9281POPC   C1B54859  36.368   5.933   6.453
 9281POPC   C2B54860  36.361   5.968   6.753
 9281POPC   C3B54861  36.315   5.993   7.053
 9281POPC   C4B54862  36.325   5.932   7.353
 9282POPC   NC354863  36.086  18.266   5.553
 9282POPC   PO454864  36.165  18.269   5.853
 9282POPC   GL154865  36.092  18.258   6.153
 9282POPC   GL254866  36.130  18.116   6.153
 9282POPC   C1A54867  36.116  18.254   6.453
 9282POPC   D2A54868  36.175  18.290   6.753
 9282POPC   C3A54869  36.086  18.238   7.053
 9282POPC   C4A54870  36.146  18.277   7.353
 9282POPC   C1B54871  36.130  18.011   6.453
 9282POPC   C2B54872  36.152  18.013   6.753
 9282POPC   C3B54873  36.179  17.983   7.053
 9282POPC   C4B54874  36.086  18.046   7.353
 9283POPC   NC354875  26.816  38.497   5.553
 9283POPC   PO454876  26.787  38.502   5.853
 9283POPC   GL154877  26.838  38.458   6.153
 9283POPC   GL254878  26.860  38.299   6.153
 9283POPC   C1A54879  26.786  38.498   6.453
 9283POPC   D2A54880  26.780  38.406   6.753
 9283POPC   C3A54881  26.832  38.416   7.053
 9283POPC   C4A54882  26.783  38.421   7.353
 9283POPC   C1B54883  26.905  38.191   6.453
 9283POPC   C2B54884  26.959  38.216   6.753
 9283POPC   C3B54885  26.912  38.230   7.053
 9283POPC   C4B54886  26.935  38.277   7.353
 9284POPC   NC354887  11.347  21.338   5.553
 9284POPC   PO454888  11.337  21.407   5.853
 9284POPC   GL154889  11.274  21.429   6.153
 9284POPC   GL254890  11.328  21.275   6.153
 9284POPC   C1A54891  11.304  21.372   6.453
 9284POPC   D2A54892  11.301  21.359   6.753
 9284POPC   C3A54893  11.317  21.422   7.053
 9284POPC   C4A54894  11.274  21.413   7.353
 9284POPC   C1B54895  11.442  21.223   6.453
 9284POPC   C2B54896  11.400  21.221   6.753
 9284POPC   C3B54897  11.481  21.216   7.053
 9284POPC   C4B54898  11.408  21.170   7.353
 9285POPC   NC354899  37.654   8.940   5.553
 9285POPC   PO454900  37.634   8.952   5.853
 9285POPC   GL154901  37.707   8.932   6.153
 9285POPC   GL254902  37.585   8.854   6.153
 9285POPC   C1A54903  37.633   8.994   6.453
 9285POPC   D2A54904  37.632   8.988   6.753
 9285POPC   C3A54905  37.658   9.007   7.053
 9285POPC   C4A54906  37.707   9.006   7.353
 9285POPC   C1B54907  37.496   8.837   6.453
 9285POPC   C2B54908  37.477   8.836   6.753
 9285POPC   C3B54909  37.522   8.757   7.053
 9285POPC   C4B54910  37.559   8.824   7.353
 9286POPC   NC354911   2.726   2.032   5.553
 9286POPC   PO454912   2.804   1.967   5.853
 9286POPC   GL154913   2.805   2.032   6.153
 9286POPC   GL254914   2.638   1.961   6.153
 9286POPC   C1A54915   2.809   1.948   6.453
 9286POPC   D2A54916   2.785   1.952   6.753
 9286POPC   C3A54917   2.799   1.955   7.053
 9286POPC   C4A54918   2.808   1.974   7.353
 9286POPC   C1B54919   2.489   1.932   6.453
 9286POPC   C2B54920   2.534   1.893   6.753
 9286POPC   C3B54921   2.524   1.881   7.053
 9286POPC   C4B54922   2.548   1.867   7.353
 9287POPC   NC354923  12.825  28.391   5.553
 9287POPC   PO454924  12.843  28.333   5.853
 9287POPC   GL154925  12.854  28.345   6.153
 9287POPC   GL254926  12.906  28.480   6.153
 9287POPC   C1A54927  12.874  28.370   6.453
 9287POPC   D2A54928  12.844  28.410   6.753
 9287POPC   C3A54929  12.870  28.330   7.053
 9287POPC   C4A54930  12.816  28.354   7.353
 9287POPC   C1B54931  12.999  28.580   6.453
 9287POPC   C2B54932  12.938  28.554   6.753
 9287POPC   C3B54933  12.927  28.633   7.053
 9287POPC   C4B54934  12.996  28.615   7.353
 9288POPC   NC354935   5.858   9.748   5.553
 9288POPC   PO454936   5.841   9.737   5.853
 9288POPC   GL154937   5.896   9.776   6.153
 9288POPC   GL254938   5.877   9.671   6.153
 9288POPC   C1A54939   5.861   9.775   6.453
 9288POPC   D2A54940   5.834   9.771   6.753
 9288POPC   C3A54941   5.849   9.740   7.053
 9288POPC   C4A54942   5.910   9.785   7.353
 9288POPC   C1B54943   5.854   9.502   6.453
 9288POPC   C2B54944   5.817   9.484   6.753
 9288POPC   C3B54945   5.846   9.461   7.053
 9288POPC   C4B54946   5.833   9.461   7.353
 9289POPC   NC354947  34.616  26.834   5.553
 9289POPC   PO454948  34.587  26.835   5.853
 9289POPC   GL154949  34.594  26.791   6.153
 9289POPC   GL254950  34.598  26.937   6.153
 9289POPC   C1A54951  34.565  26.848   6.453
 9289POPC   D2A54952  34.605  26.806   6.753
 9289POPC   C3A54953  34.576  26.828   7.053
 9289POPC   C4A54954  34.592  26.784   7.353
 9289POPC   C1B54955  34.652  27.003   6.453
 9289POPC   C2B54956  34.647  27.050   6.753
 9289POPC   C3B54957  34.715  27.036   7.053
 9289POPC   C4B54958  34.706  27.006   7.353
 9290POPC   NC354959  16.699   5.108   5.553
 9290POPC   PO454960  16.688   5.076   5.853
 9290POPC   GL154961  16.713   5.128   6.153
 9290POPC   GL254962  16.812   5.102   6.153
 9290POPC   C1A54963  16.745   5.074   6.453
 9290POPC   D2A54964  16.700   5.118   6.753
 9290POPC   C3A54965  16.709   5.133   7.053
 9290POPC   C4A54966  16.753   5.060   7.353
 9290POPC   C1B54967  16.971   5.136   6.453
 9290POPC   C2B54968  16.981   5.063   6.753
 9290POPC   C3B54969  17.010   5.101   7.053
 9290POPC   C4B54970  16.968   5.120   7.353
 9291POPC   NC354971  37.664  43.907   5.553
 9291POPC   PO454972  37.633  43.851   5.853
 9291POPC   GL154973  37.690  43.929   6.153
 9291POPC   GL254974  37.560  43.989   6.153
 9291POPC   C1A54975  37.657  43.840   6.453
 9291POPC   D2A54976  37.651  43.858   6.753
 9291POPC   C3A54977  37.653  43.875   7.053
 9291POPC   C4A54978  37.664  43.919   7.353
 9291POPC   C1B54979  37.476  44.002   6.453
 9291POPC   C2B54980  37.470  44.010   6.753
 9291POPC   C3B54981  37.516  44.012   7.053
 9291POPC   C4B54982  37.501  44.010   7.353
 9292POPC   NC354983  43.135  27.578   5.553
 9292POPC   PO454984  43.087  27.547   5.853
 9292POPC   GL154985  43.106  27.639   6.153
 9292POPC   GL254986  43.128  27.696   6.153
 9292POPC   C1A54987  43.068  27.573   6.453
 9292POPC   D2A54988  43.078  27.581   6.753
 9292POPC   C3A54989  43.149  27.601   7.053
 9292POPC   C4A54990  43.141  27.591   7.353
 9292POPC   C1B54991  43.121  27.809   6.453
 9292POPC   C2B54992  43.058  27.836   6.753
 9292POPC   C3B54993  43.058  27.884   7.053
 9292POPC   C4B54994  43.124  27.847   7.353
 9293POPC   NC354995  29.165  20.628   5.553
 9293POPC   PO454996  29.109  20.630   5.853
 9293POPC   GL154997  29.133  20.610   6.153
 9293POPC   GL254998  29.146  20.751   6.153
 9293POPC   C1A54999  29.157  20.656   6.453
 9293POPC   D2A55000  29.102  20.640   6.753
 9293POPC   C3A55001  29.151  20.562   7.053
 9293POPC   C4A55002  29.143  20.632   7.353
 9293POPC   C1B55003  29.205  20.811   6.453
 9293POPC   C2B55004  29.178  20.883   6.753
 9293POPC   C3B55005  29.129  20.836   7.053
 9293POPC   C4B55006  29.195  20.816   7.353
 9294POPC   NC355007   2.015  21.412   5.553
 9294POPC   PO455008   2.002  21.416   5.853
 9294POPC   GL155009   2.004  21.388   6.153
 9294POPC   GL255010   1.916  21.270   6.153
 9294POPC   C1A55011   2.000  21.358   6.453
 9294POPC   D2A55012   1.968  21.371   6.753
 9294POPC   C3A55013   1.978  21.423   7.053
 9294POPC   C4A55014   1.971  21.388   7.353
 9294POPC   C1B55015   1.765  21.264   6.453
 9294POPC   C2B55016   1.769  21.262   6.753
 9294POPC   C3B55017   1.766  21.251   7.053
 9294POPC   C4B55018   1.815  21.250   7.353
 9295POPC   NC355019  29.180  43.110   5.553
 9295POPC   PO455020  29.187  43.117   5.853
 9295POPC   GL155021  29.118  43.108   6.153
 9295POPC   GL255022  29.030  43.159   6.153
 9295POPC   C1A55023  29.185  43.069   6.453
 9295POPC   D2A55024  29.171  43.095   6.753
 9295POPC   C3A55025  29.173  43.128   7.053
 9295POPC   C4A55026  29.114  43.116   7.353
 9295POPC   C1B55027  28.965  43.277   6.453
 9295POPC   C2B55028  28.966  43.267   6.753
 9295POPC   C3B55029  28.956  43.287   7.053
 9295POPC   C4B55030  29.026  43.293   7.353
 9296POPC   NC355031   2.772  37.652   5.553
 9296POPC   PO455032   2.801  37.637   5.853
 9296POPC   GL155033   2.724  37.700   6.153
 9296POPC   GL255034   2.656  37.580   6.153
 9296POPC   C1A55035   2.722  37.711   6.453
 9296POPC   D2A55036   2.797  37.637   6.753
 9296POPC   C3A55037   2.758  37.679   7.053
 9296POPC   C4A55038   2.758  37.666   7.353
 9296POPC   C1B55039   2.579  37.539   6.453
 9296POPC   C2B55040   2.569  37.530   6.753
 9296POPC   C3B55041   2.509  37.592   7.053
 9296POPC   C4B55042   2.562  37.533   7.353
 9297POPC   NC355043  19.072  18.292   5.553
 9297POPC   PO455044  19.096  18.267   5.853
 9297POPC   GL155045  19.084  18.286   6.153
 9297POPC   GL255046  19.056  18.449   6.153
 9297POPC   C1A55047  19.011  18.273   6.453
 9297POPC   D2A55048  19.081  18.243   6.753
 9297POPC   C3A55049  19.029  18.315   7.053
 9297POPC   C4A55050  19.031  18.241   7.353
 9297POPC   C1B55051  19.036  18.535   6.453
 9297POPC   C2B55052  18.964  18.569   6.753
 9297POPC   C3B55053  19.052  18.563   7.053
 9297POPC   C4B55054  18.968  18.559   7.353
 9298POPC   NC355055  27.565   2.747   5.553
 9298POPC   PO455056  27.578   2.746   5.853
 9298POPC   GL155057  27.570   2.769   6.153
 9298POPC   GL255058  27.725   2.851   6.153
 9298POPC   C1A55059  27.568   2.788   6.453
 9298POPC   D2A55060  27.544   2.814   6.753
 9298POPC   C3A55061  27.618   2.721   7.053
 9298POPC   C4A55062  27.572   2.744   7.353
 9298POPC   C1B55063  27.806   2.918   6.453
 9298POPC   C2B55064  27.816   2.895   6.753
 9298POPC   C3B55065  27.802   2.964   7.053
 9298POPC   C4B55066  27.756   2.960   7.353
 9299POPC   NC355067   2.004   8.147   5.553
 9299POPC   PO455068   1.990   8.210   5.853
 9299POPC   GL155069   1.996   8.191   6.153
 9299POPC   GL255070   1.852   8.205   6.153
 9299POPC   C1A55071   1.941   8.165   6.453
 9299POPC   D2A55072   2.014   8.160   6.753
 9299POPC   C3A55073   1.994   8.206   7.053
 9299POPC   C4A55074   1.998   8.221   7.353
 9299POPC   C1B55075   1.708   8.208   6.453
 9299POPC   C2B55076   1.719   8.237   6.753
 9299POPC   C3B55077   1.734   8.251   7.053
 9299POPC   C4B55078   1.720   8.162   7.353
 9300POPC   NC355079  21.395   7.468   5.553
 9300POPC   PO455080  21.358   7.396   5.853
 9300POPC   GL155081  21.428   7.419   6.153
 9300POPC   GL255082  21.392   7.257   6.153
 9300POPC   C1A55083  21.434   7.447   6.453
 9300POPC   D2A55084  21.367   7.376   6.753
 9300POPC   C3A55085  21.349   7.433   7.053
 9300POPC   C4A55086  21.409   7.446   7.353
 9300POPC   C1B55087  21.337   7.183   6.453
 9300POPC   C2B55088  21.373   7.184   6.753
 9300POPC   C3B55089  21.425   7.145   7.053
 9300POPC   C4B55090  21.340   7.192   7.353
 9301POPC   NC355091  19.860  29.188   5.553
 9301POPC   PO455092  19.800  29.175   5.853
 9301POPC   GL155093  19.812  29.179   6.153
 9301POPC   GL255094  19.778  29.030   6.153
 9301POPC   C1A55095  19.831  29.173   6.453
 9301POPC   D2A55096  19.828  29.148   6.753
 9301POPC   C3A55097  19.832  29.119   7.053
 9301POPC   C4A55098  19.834  29.157   7.353
 9301POPC   C1B55099  19.621  28.985   6.453
 9301POPC   C2B55100  19.633  28.930   6.753
 9301POPC   C3B55101  19.630  28.943   7.053
 9301POPC   C4B55102  19.635  28.981   7.353
 9302POPC   NC355103  44.710   4.334   5.553
 9302POPC   PO455104  44.643   4.325   5.853
 9302POPC   GL155105  44.667   4.343   6.153
 9302POPC   GL255106  44.732   4.280   6.153
 9302POPC   C1A55107  44.670   4.334   6.453
 9302POPC   D2A55108  44.708   4.356   6.753
 9302POPC   C3A55109  44.624   4.283   7.053
 9302POPC   C4A55110  44.616   4.272   7.353
 9302POPC   C1B55111  44.937   4.177   6.453
 9302POPC   C2B55112  44.852   4.257   6.753
 9302POPC   C3B55113  44.914   4.207   7.053
 9302POPC   C4B55114  44.858   4.190   7.353
 9303POPC   NC355115  26.805  11.259   5.553
 9303POPC   PO455116  26.769  11.263   5.853
 9303POPC   GL155117  26.860  11.333   6.153
 9303POPC   GL255118  26.945  11.349   6.153
 9303POPC   C1A55119  26.792  11.333   6.453
 9303POPC   D2A55120  26.793  11.350   6.753
 9303POPC   C3A55121  26.780  11.270   7.053
 9303POPC   C4A55122  26.851  11.266   7.353
 9303POPC   C1B55123  27.034  11.358   6.453
 9303POPC   C2B55124  27.091  11.400   6.753
 9303POPC   C3B55125  27.084  11.343   7.053
 9303POPC   C4B55126  27.079  11.404   7.353
 9304POPC   NC355127  19.057  35.354   5.553
 9304POPC   PO455128  19.038  35.342   5.853
 9304POPC   GL155129  19.086  35.318   6.153
 9304POPC   GL255130  19.040  35.431   6.153
 9304POPC   C1A55131  19.099  35.365   6.453
 9304POPC   D2A55132  19.046  35.317   6.753
 9304POPC   C3A55133  19.101  35.347   7.053
 9304POPC   C4A55134  19.096  35.314   7.353
 9304POPC   C1B55135  19.029  35.630   6.453
 9304POPC   C2B55136  19.096  35.635   6.753
 9304POPC   C3B55137  19.032  35.603   7.053
 9304POPC   C4B55138  19.034  35.560   7.353
 9305POPC   NC355139  24.491  32.225   5.553
 9305POPC   PO455140  24.472  32.258   5.853
 9305POPC   GL155141  24.486  32.213   6.153
 9305POPC   GL255142  24.387  32.405   6.153
 9305POPC   C1A55143  24.473  32.225   6.453
 9305POPC   D2A55144  24.514  32.270   6.753
 9305POPC   C3A55145  24.492  32.228   7.053
 9305POPC   C4A55146  24.501  32.287   7.353
 9305POPC   C1B55147  24.409  32.501   6.453
 9305POPC   C2B55148  24.395  32.487   6.753
 9305POPC   C3B55149  24.396  32.445   7.053
 9305POPC   C4B55150  24.406  32.439   7.353
 9306POPC   NC355151  42.324  15.140   5.553
 9306POPC   PO455152  42.305  15.130   5.853
 9306POPC   GL155153  42.373  15.200   6.153
 9306POPC   GL255154  42.170  15.181   6.153
 9306POPC   C1A55155  42.331  15.184   6.453
 9306POPC   D2A55156  42.320  15.133   6.753
 9306POPC   C3A55157  42.339  15.157   7.053
 9306POPC   C4A55158  42.313  15.211   7.353
 9306POPC   C1B55159  42.043  15.108   6.453
 9306POPC   C2B55160  42.039  15.155   6.753
 9306POPC   C3B55161  42.137  15.184   7.053
 9306POPC   C4B55162  42.098  15.106   7.353
 9307POPC   NC355163  24.448  33.831   5.553
 9307POPC   PO455164  24.489  33.821   5.853
 9307POPC   GL155165  24.489  33.786   6.153
 9307POPC   GL255166  24.587  33.870   6.153
 9307POPC   C1A55167  24.504  33.844   6.453
 9307POPC   D2A55168  24.471  33.766   6.753
 9307POPC   C3A55169  24.509  33.760   7.053
 9307POPC   C4A55170  24.467  33.839   7.353
 9307POPC   C1B55171  24.747  33.822   6.453
 9307POPC   C2B55172  24.721  33.814   6.753
 9307POPC   C3B55173  24.748  33.874   7.053
 9307POPC   C4B55174  24.778  33.888   7.353
 9308POPC   NC355175   5.140  37.685   5.553
 9308POPC   PO455176   5.063  37.697   5.853
 9308POPC   GL155177   5.098  37.680   6.153
 9308POPC   GL255178   5.085  37.592   6.153
 9308POPC   C1A55179   5.088  37.649   6.453
 9308POPC   D2A55180   5.062  37.703   6.753
 9308POPC   C3A55181   5.066  37.695   7.053
 9308POPC   C4A55182   5.117  37.706   7.353
 9308POPC   C1B55183   5.114  37.391   6.453
 9308POPC   C2B55184   5.072  37.452   6.753
 9308POPC   C3B55185   5.097  37.459   7.053
 9308POPC   C4B55186   5.068  37.457   7.353
 9309POPC   NC355187  36.078   0.394   5.553
 9309POPC   PO455188  36.148   0.477   5.853
 9309POPC   GL155189  36.144   0.477   6.153
 9309POPC   GL255190  36.223   0.356   6.153
 9309POPC   C1A55191  36.081   0.479   6.453
 9309POPC   D2A55192  36.102   0.391   6.753
 9309POPC   C3A55193  36.132   0.485   7.053
 9309POPC   C4A55194  36.175   0.483   7.353
 9309POPC   C1B55195  36.198   0.241   6.453
 9309POPC   C2B55196  36.206   0.198   6.753
 9309POPC   C3B55197  36.252   0.256   7.053
 9309POPC   C4B55198  36.261   0.183   7.353
 9310POPC   NC355199   8.977  28.412   5.553
 9310POPC   PO455200   8.933  28.341   5.853
 9310POPC   GL155201   9.021  28.380   6.153
 9310POPC   GL255202   8.832  28.386   6.153
 9310POPC   C1A55203   8.972  28.417   6.453
 9310POPC   D2A55204   8.937  28.321   6.753
 9310POPC   C3A55205   9.003  28.388   7.053
 9310POPC   C4A55206   9.012  28.326   7.353
 9310POPC   C1B55207   8.767  28.329   6.453
 9310POPC   C2B55208   8.757  28.331   6.753
 9310POPC   C3B55209   8.732  28.340   7.053
 9310POPC   C4B55210   8.724  28.365   7.353
 9311POPC   NC355211   0.487  25.260   5.553
 9311POPC   PO455212   0.467  25.261   5.853
 9311POPC   GL155213   0.487  25.246   6.153
 9311POPC   GL255214   0.556  25.316   6.153
 9311POPC   C1A55215   0.432  25.221   6.453
 9311POPC   D2A55216   0.445  25.232   6.753
 9311POPC   C3A55217   0.415  25.305   7.053
 9311POPC   C4A55218   0.475  25.229   7.353
 9311POPC   C1B55219   0.666  25.407   6.453
 9311POPC   C2B55220   0.657  25.385   6.753
 9311POPC   C3B55221   0.659  25.389   7.053
 9311POPC   C4B55222   0.624  25.409   7.353
 9312POPC   NC355223   7.382  12.102   5.553
 9312POPC   PO455224   7.378  12.035   5.853
 9312POPC   GL155225   7.423  12.060   6.153
 9312POPC   GL255226   7.545  12.041   6.153
 9312POPC   C1A55227   7.405  12.064   6.453
 9312POPC   D2A55228   7.426  12.088   6.753
 9312POPC   C3A55229   7.467  12.093   7.053
 9312POPC   C4A55230   7.386  12.047   7.353
 9312POPC   C1B55231   7.640  12.040   6.453
 9312POPC   C2B55232   7.711  12.033   6.753
 9312POPC   C3B55233   7.676  12.010   7.053
 9312POPC   C4B55234   7.683  12.061   7.353
 9313POPC   NC355235   1.205  42.305   5.553
 9313POPC   PO455236   1.258  42.328   5.853
 9313POPC   GL155237   1.206  42.314   6.153
 9313POPC   GL255238   1.206  42.427   6.153
 9313POPC   C1A55239   1.235  42.377   6.453
 9313POPC   D2A55240   1.261  42.378   6.753
 9313POPC   C3A55241   1.251  42.376   7.053
 9313POPC   C4A55242   1.237  42.320   7.353
 9313POPC   C1B55243   1.172  42.589   6.453
 9313POPC   C2B55244   1.118  42.532   6.753
 9313POPC   C3B55245   1.170  42.578   7.053
 9313POPC   C4B55246   1.166  42.547   7.353
 9314POPC   NC355247  15.916  33.049   5.553
 9314POPC   PO455248  16.000  32.980   5.853
 9314POPC   GL155249  15.977  33.038   6.153
 9314POPC   GL255250  16.119  33.091   6.153
 9314POPC   C1A55251  15.972  33.059   6.453
 9314POPC   D2A55252  15.993  32.974   6.753
 9314POPC   C3A55253  15.971  33.043   7.053
 9314POPC   C4A55254  15.930  33.047   7.353
 9314POPC   C1B55255  16.165  33.108   6.453
 9314POPC   C2B55256  16.170  33.173   6.753
 9314POPC   C3B55257  16.136  33.148   7.053
 9314POPC   C4B55258  16.217  33.088   7.353
 9315POPC   NC355259  32.248   8.199   5.553
 9315POPC   PO455260  32.282   8.187   5.853
 9315POPC   GL155261  32.295   8.185   6.153
 9315POPC   GL255262  32.171   8.147   6.153
 9315POPC   C1A55263  32.268   8.156   6.453
 9315POPC   D2A55264  32.220   8.177   6.753
 9315POPC   C3A55265  32.224   8.150   7.053
 9315POPC   C4A55266  32.273   8.212   7.353
 9315POPC   C1B55267  32.019   8.168   6.453
 9315POPC   C2B55268  32.033   8.145   6.753
 9315POPC   C3B55269  32.047   8.146   7.053
 9315POPC   C4B55270  31.965   8.132   7.353
 9316POPC   NC355271  34.609  12.115   5.553
 9316POPC   PO455272  34.622  12.099   5.853
 9316POPC   GL155273  34.558  12.050   6.153
 9316POPC   GL255274  34.555  12.217   6.153
 9316POPC   C1A55275  34.611  12.108   6.453
 9316POPC   D2A55276  34.596  12.113   6.753
 9316POPC   C3A55277  34.581  12.079   7.053
 9316POPC   C4A55278  34.613  12.097   7.353
 9316POPC   C1B55279  34.594  12.326   6.453
 9316POPC   C2B55280  34.542  12.295   6.753
 9316POPC   C3B55281  34.590  12.353   7.053
 9316POPC   C4B55282  34.562  12.316   7.353
 9317POPC   NC355283  30.731  11.255   5.553
 9317POPC   PO455284  30.657  11.341   5.853
 9317POPC   GL155285  30.722  11.343   6.153
 9317POPC   GL255286  30.726  11.419   6.153
 9317POPC   C1A55287  30.707  11.300   6.453
 9317POPC   D2A55288  30.653  11.306   6.753
 9317POPC   C3A55289  30.720  11.275   7.053
 9317POPC   C4A55290  30.698  11.260   7.353
 9317POPC   C1B55291  30.738  11.544   6.453
 9317POPC   C2B55292  30.714  11.495   6.753
 9317POPC   C3B55293  30.744  11.572   7.053
 9317POPC   C4B55294  30.742  11.567   7.353
 9318POPC   NC355295  22.176  35.312   5.553
 9318POPC   PO455296  22.148  35.348   5.853
 9318POPC   GL155297  22.172  35.373   6.153
 9318POPC   GL255298  22.023  35.250   6.153
 9318POPC   C1A55299  22.174  35.307   6.453
 9318POPC   D2A55300  22.196  35.315   6.753
 9318POPC   C3A55301  22.127  35.305   7.053
 9318POPC   C4A55302  22.117  35.370   7.353
 9318POPC   C1B55303  21.990  35.212   6.453
 9318POPC   C2B55304  21.987  35.261   6.753
 9318POPC   C3B55305  21.961  35.176   7.053
 9318POPC   C4B55306  21.971  35.188   7.353
 9319POPC   NC355307  22.959  39.277   5.553
 9319POPC   PO455308  22.973  39.276   5.853
 9319POPC   GL155309  22.965  39.187   6.153
 9319POPC   GL255310  22.948  39.111   6.153
 9319POPC   C1A55311  22.972  39.270   6.453
 9319POPC   D2A55312  22.944  39.251   6.753
 9319POPC   C3A55313  22.945  39.281   7.053
 9319POPC   C4A55314  22.907  39.248   7.353
 9319POPC   C1B55315  22.988  38.980   6.453
 9319POPC   C2B55316  23.041  38.991   6.753
 9319POPC   C3B55317  22.971  39.038   7.053
 9319POPC   C4B55318  23.002  38.969   7.353
 9320POPC   NC355319  31.482  17.468   5.553
 9320POPC   PO455320  31.438  17.489   5.853
 9320POPC   GL155321  31.440  17.473   6.153
 9320POPC   GL255322  31.486  17.414   6.153
 9320POPC   C1A55323  31.499  17.505   6.453
 9320POPC   D2A55324  31.440  17.545   6.753
 9320POPC   C3A55325  31.486  17.473   7.053
 9320POPC   C4A55326  31.427  17.534   7.353
 9320POPC   C1B55327  31.583  17.320   6.453
 9320POPC   C2B55328  31.537  17.283   6.753
 9320POPC   C3B55329  31.552  17.275   7.053
 9320POPC   C4B55330  31.583  17.254   7.353
 9321POPC   NC355331   8.964  42.372   5.553
 9321POPC   PO455332   8.950  42.309   5.853
 9321POPC   GL155333   8.953  42.364   6.153
 9321POPC   GL255334   9.052  42.456   6.153
 9321POPC   C1A55335   9.000  42.294   6.453
 9321POPC   D2A55336   8.985  42.344   6.753
 9321POPC   C3A55337   8.995  42.314   7.053
 9321POPC   C4A55338   8.926  42.325   7.353
 9321POPC   C1B55339   9.081  42.517   6.453
 9321POPC   C2B55340   9.134  42.514   6.753
 9321POPC   C3B55341   9.093  42.579   7.053
 9321POPC   C4B55342   9.133  42.568   7.353
 9322POPC   NC355343   2.771  13.579   5.553
 9322POPC   PO455344   2.811  13.673   5.853
 9322POPC   GL155345   2.796  13.653   6.153
 9322POPC   GL255346   2.845  13.557   6.153
 9322POPC   C1A55347   2.750  13.662   6.453
 9322POPC   D2A55348   2.745  13.614   6.753
 9322POPC   C3A55349   2.761  13.657   7.053
 9322POPC   C4A55350   2.769  13.672   7.353
 9322POPC   C1B55351   3.033  13.539   6.453
 9322POPC   C2B55352   2.973  13.601   6.753
 9322POPC   C3B55353   2.971  13.551   7.053
 9322POPC   C4B55354   3.011  13.589   7.353
 9323POPC   NC355355  31.501   9.770   5.553
 9323POPC   PO455356  31.481   9.776   5.853
 9323POPC   GL155357  31.447   9.767   6.153
 9323POPC   GL255358  31.530   9.631   6.153
 9323POPC   C1A55359  31.449   9.750   6.453
 9323POPC   D2A55360  31.472   9.757   6.753
 9323POPC   C3A55361  31.447   9.747   7.053
 9323POPC   C4A55362  31.502   9.791   7.353
 9323POPC   C1B55363  31.704   9.640   6.453
 9323POPC   C2B55364  31.683   9.627   6.753
 9323POPC   C3B55365  31.648   9.570   7.053
 9323POPC   C4B55366  31.648   9.647   7.353
 9324POPC   NC355367  44.671   0.418   5.553
 9324POPC   PO455368  44.672   0.408   5.853
 9324POPC   GL155369  44.659   0.483   6.153
 9324POPC   GL255370  44.576   0.589   6.153
 9324POPC   C1A55371  44.696   0.410   6.453
 9324POPC   D2A55372  44.691   0.425   6.753
 9324POPC   C3A55373  44.654   0.463   7.053
 9324POPC   C4A55374  44.708   0.441   7.353
 9324POPC   C1B55375  44.547   0.663   6.453
 9324POPC   C2B55376  44.602   0.701   6.753
 9324POPC   C3B55377  44.551   0.657   7.053
 9324POPC   C4B55378  44.589   0.676   7.353
 9325POPC   NC355379  43.103  36.173   5.553
 9325POPC   PO455380  43.146  36.158   5.853
 9325POPC   GL155381  43.130  36.143   6.153
 9325POPC   GL255382  43.040  35.979   6.153
 9325POPC   C1A55383  43.108  36.121   6.453
 9325POPC   D2A55384  43.108  36.147   6.753
 9325POPC   C3A55385  43.119  36.152   7.053
 9325POPC   C4A55386  43.113  36.164   7.353
 9325POPC   C1B55387  43.025  35.871   6.453
 9325POPC   C2B55388  42.989  35.902   6.753
 9325POPC   C3B55389  43.005  35.888   7.053
 9325POPC   C4B55390  42.976  35.942   7.353
 9326POPC   NC355391  28.360  40.800   5.553
 9326POPC   PO455392  28.396  40.799   5.853
 9326POPC   GL155393  28.411  40.819   6.153
 9326POPC   GL255394  28.439  40.655   6.153
 9326POPC   C1A55395  28.380  40.733   6.453
 9326POPC   D2A55396  28.388  40.811   6.753
 9326POPC   C3A55397  28.324  40.766   7.053
 9326POPC   C4A55398  28.378  40.757   7.353
 9326POPC   C1B55399  28.433  40.552   6.453
 9326POPC   C2B55400  28.427  40.520   6.753
 9326POPC   C3B55401  28.478  40.600   7.053
 9326POPC   C4B55402  28.461  40.583   7.353
 9327POPC   NC355403  40.044   0.480   5.553
 9327POPC   PO455404  39.970   0.477   5.853
 9327POPC   GL155405  40.013   0.404   6.153
 9327POPC   GL255406  40.104   0.494   6.153
 9327POPC   C1A55407  40.030   0.454   6.453
 9327POPC   D2A55408  40.039   0.434   6.753
 9327POPC   C3A55409  39.977   0.466   7.053
 9327POPC   C4A55410  40.020   0.432   7.353
 9327POPC   C1B55411  40.196   0.538   6.453
 9327POPC   C2B55412  40.257   0.591   6.753
 9327POPC   C3B55413  40.225   0.575   7.053
 9327POPC   C4B55414  40.199   0.600   7.353
 9328POPC   NC355415  42.309  43.863   5.553
 9328POPC   PO455416  42.362  43.866   5.853
 9328POPC   GL155417  42.305  43.843   6.153
 9328POPC   GL255418  42.337  43.759   6.153
 9328POPC   C1A55419  42.302  43.910   6.453
 9328POPC   D2A55420  42.289  43.888   6.753
 9328POPC   C3A55421  42.377  43.898   7.053
 9328POPC   C4A55422  42.367  43.917   7.353
 9328POPC   C1B55423  42.389  43.663   6.453
 9328POPC   C2B55424  42.414  43.686   6.753
 9328POPC   C3B55425  42.439  43.657   7.053
 9328POPC   C4B55426  42.430  43.648   7.353
 9329POPC   NC355427   5.828  15.172   5.553
 9329POPC   PO455428   5.848  15.227   5.853
 9329POPC   GL155429   5.849  15.145   6.153
 9329POPC   GL255430   5.697  15.207   6.153
 9329POPC   C1A55431   5.859  15.185   6.453
 9329POPC   D2A55432   5.844  15.203   6.753
 9329POPC   C3A55433   5.843  15.165   7.053
 9329POPC   C4A55434   5.873  15.196   7.353
 9329POPC   C1B55435   5.592  15.153   6.453
 9329POPC   C2B55436   5.641  15.230   6.753
 9329POPC   C3B55437   5.637  15.159   7.053
 9329POPC   C4B55438   5.642  15.223   7.353
 9330POPC   NC355439  19.800  41.595   5.553
 9330POPC   PO455440  19.825  41.570   5.853
 9330POPC   GL155441  19.793  41.530   6.153
 9330POPC   GL255442  19.954  41.641   6.153
 9330POPC   C1A55443  19.854  41.577   6.453
 9330POPC   D2A55444  19.872  41.569   6.753
 9330POPC   C3A55445  19.881  41.594   7.053
 9330POPC   C4A55446  19.872  41.583   7.353
 9330POPC   C1B55447  20.015  41.655   6.453
 9330POPC   C2B55448  20.025  41.687   6.753
 9330POPC   C3B55449  20.062  41.692   7.053
 9330POPC   C4B55450  20.036  41.667   7.353
 9331POPC   NC355451  34.614  43.877   5.553
 9331POPC   PO455452  34.557  43.887   5.853
 9331POPC   GL155453  34.537  43.923   6.153
 9331POPC   GL255454  34.429  43.869   6.153
 9331POPC   C1A55455  34.577  43.927   6.453
 9331POPC   D2A55456  34.602  43.898   6.753
 9331POPC   C3A55457  34.537  43.924   7.053
 9331POPC   C4A55458  34.573  43.908   7.353
 9331POPC   C1B55459  34.326  43.885   6.453
 9331POPC   C2B55460  34.355  43.851   6.753
 9331POPC   C3B55461  34.354  43.897   7.053
 9331POPC   C4B55462  34.350  43.913   7.353
 9332POPC   NC355463  23.696  42.344   5.553
 9332POPC   PO455464  23.682  42.368   5.853
 9332POPC   GL155465  23.677  42.335   6.153
 9332POPC   GL255466  23.567  42.394   6.153
 9332POPC   C1A55467  23.754  42.366   6.453
 9332POPC   D2A55468  23.702  42.298   6.753
 9332POPC   C3A55469  23.722  42.321   7.053
 9332POPC   C4A55470  23.683  42.362   7.353
 9332POPC   C1B55471  23.487  42.401   6.453
 9332POPC   C2B55472  23.508  42.322   6.753
 9332POPC   C3B55473  23.453  42.349   7.053
 9332POPC   C4B55474  23.458  42.319   7.353
 9333POPC   NC355475  18.267  42.316   5.553
 9333POPC   PO455476  18.262  42.358   5.853
 9333POPC   GL155477  18.292  42.338   6.153
 9333POPC   GL255478  18.334  42.173   6.153
 9333POPC   C1A55479  18.299  42.329   6.453
 9333POPC   D2A55480  18.308  42.333   6.753
 9333POPC   C3A55481  18.313  42.322   7.053
 9333POPC   C4A55482  18.312  42.369   7.353
 9333POPC   C1B55483  18.292  42.080   6.453
 9333POPC   C2B55484  18.293  42.106   6.753
 9333POPC   C3B55485  18.326  42.133   7.053
 9333POPC   C4B55486  18.286  42.051   7.353
 9334POPC   NC355487   8.157  11.273   5.553
 9334POPC   PO455488   8.194  11.273   5.853
 9334POPC   GL155489   8.230  11.275   6.153
 9334POPC   GL255490   8.121  11.420   6.153
 9334POPC   C1A55491   8.149  11.261   6.453
 9334POPC   D2A55492   8.204  11.290   6.753
 9334POPC   C3A55493   8.215  11.264   7.053
 9334POPC   C4A55494   8.177  11.263   7.353
 9334POPC   C1B55495   8.115  11.540   6.453
 9334POPC   C2B55496   8.136  11.530   6.753
 9334POPC   C3B55497   8.080  11.507   7.053
 9334POPC   C4B55498   8.080  11.575   7.353
 9335POPC   NC355499  19.026   3.498   5.553
 9335POPC   PO455500  19.099   3.587   5.853
 9335POPC   GL155501  19.010   3.535   6.153
 9335POPC   GL255502  18.925   3.502   6.153
 9335POPC   C1A55503  19.065   3.493   6.453
 9335POPC   D2A55504  19.047   3.495   6.753
 9335POPC   C3A55505  19.081   3.494   7.053
 9335POPC   C4A55506  19.093   3.543   7.353
 9335POPC   C1B55507  18.784   3.511   6.453
 9335POPC   C2B55508  18.763   3.534   6.753
 9335POPC   C3B55509  18.843   3.537   7.053
 9335POPC   C4B55510  18.824   3.589   7.353
 9336POPC   NC355511  40.784  25.223   5.553
 9336POPC   PO455512  40.772  25.309   5.853
 9336POPC   GL155513  40.759  25.245   6.153
 9336POPC   GL255514  40.796  25.409   6.153
 9336POPC   C1A55515  40.798  25.219   6.453
 9336POPC   D2A55516  40.754  25.304   6.753
 9336POPC   C3A55517  40.806  25.241   7.053
 9336POPC   C4A55518  40.811  25.267   7.353
 9336POPC   C1B55519  40.813  25.547   6.453
 9336POPC   C2B55520  40.860  25.504   6.753
 9336POPC   C3B55521  40.830  25.497   7.053
 9336POPC   C4B55522  40.842  25.550   7.353
 9337POPC   NC355523   2.810  23.759   5.553
 9337POPC   PO455524   2.805  23.705   5.853
 9337POPC   GL155525   2.758  23.707   6.153
 9337POPC   GL255526   2.702  23.841   6.153
 9337POPC   C1A55527   2.770  23.732   6.453
 9337POPC   D2A55528   2.799  23.671   6.753
 9337POPC   C3A55529   2.722  23.679   7.053
 9337POPC   C4A55530   2.738  23.758   7.353
 9337POPC   C1B55531   2.676  23.936   6.453
 9337POPC   C2B55532   2.685  23.952   6.753
 9337POPC   C3B55533   2.742  23.987   7.053
 9337POPC   C4B55534   2.693  23.936   7.353
 9338POPC   NC355535  28.368  17.529   5.553
 9338POPC   PO455536  28.328  17.480   5.853
 9338POPC   GL155537  28.412  17.505   6.153
 9338POPC   GL255538  28.309  17.655   6.153
 9338POPC   C1A55539  28.375  17.476   6.453
 9338POPC   D2A55540  28.399  17.485   6.753
 9338POPC   C3A55541  28.372  17.507   7.053
 9338POPC   C4A55542  28.355  17.534   7.353
 9338POPC   C1B55543  28.321  17.744   6.453
 9338POPC   C2B55544  28.267  17.748   6.753
 9338POPC   C3B55545  28.256  17.760   7.053
 9338POPC   C4B55546  28.323  17.787   7.353
 9339POPC   NC355547   8.179  18.272   5.553
 9339POPC   PO455548   8.192  18.314   5.853
 9339POPC   GL155549   8.158  18.295   6.153
 9339POPC   GL255550   8.032  18.291   6.153
 9339POPC   C1A55551   8.234  18.326   6.453
 9339POPC   D2A55552   8.224  18.288   6.753
 9339POPC   C3A55553   8.160  18.251   7.053
 9339POPC   C4A55554   8.222  18.233   7.353
 9339POPC   C1B55555   7.911  18.240   6.453
 9339POPC   C2B55556   7.978  18.231   6.753
 9339POPC   C3B55557   7.993  18.245   7.053
 9339POPC   C4B55558   7.951  18.251   7.353
 9340POPC   NC355559   3.579  18.270   5.553
 9340POPC   PO455560   3.495  18.261   5.853
 9340POPC   GL155561   3.564  18.258   6.153
 9340POPC   GL255562   3.408  18.239   6.153
 9340POPC   C1A55563   3.571  18.247   6.453
 9340POPC   D2A55564   3.547  18.284   6.753
 9340POPC   C3A55565   3.557  18.248   7.053
 9340POPC   C4A55566   3.555  18.281   7.353
 9340POPC   C1B55567   3.295  18.295   6.453
 9340POPC   C2B55568   3.320  18.335   6.753
 9340POPC   C3B55569   3.326  18.311   7.053
 9340POPC   C4B55570   3.330  18.239   7.353
 9341POPC   NC355571  19.869  19.098   5.553
 9341POPC   PO455572  19.789  19.079   5.853
 9341POPC   GL155573  19.824  19.094   6.153
 9341POPC   GL255574  19.802  18.965   6.153
 9341POPC   C1A55575  19.811  19.020   6.453
 9341POPC   D2A55576  19.854  19.046   6.753
 9341POPC   C3A55577  19.865  19.010   7.053
 9341POPC   C4A55578  19.882  19.023   7.353
 9341POPC   C1B55579  19.783  18.855   6.453
 9341POPC   C2B55580  19.724  18.825   6.753
 9341POPC   C3B55581  19.771  18.860   7.053
 9341POPC   C4B55582  19.787  18.782   7.353
 9342POPC   NC355583  24.492  27.551   5.553
 9342POPC   PO455584  24.529  27.586   5.853
 9342POPC   GL155585  24.446  27.595   6.153
 9342POPC   GL255586  24.316  27.631   6.153
 9342POPC   C1A55587  24.516  27.547   6.453
 9342POPC   D2A55588  24.521  27.576   6.753
 9342POPC   C3A55589  24.480  27.600   7.053
 9342POPC   C4A55590  24.454  27.547   7.353
 9342POPC   C1B55591  24.263  27.564   6.453
 9342POPC   C2B55592  24.199  27.574   6.753
 9342POPC   C3B55593  24.269  27.564   7.053
 9342POPC   C4B55594  24.238  27.624   7.353
 9343POPC   NC355595  23.744  16.693   5.553
 9343POPC   PO455596  23.717  16.740   5.853
 9343POPC   GL155597  23.677  16.769   6.153
 9343POPC   GL255598  23.861  16.660   6.153
 9343POPC   C1A55599  23.729  16.730   6.453
 9343POPC   D2A55600  23.714  16.759   6.753
 9343POPC   C3A55601  23.759  16.768   7.053
 9343POPC   C4A55602  23.717  16.721   7.353
 9343POPC   C1B55603  23.901  16.581   6.453
 9343POPC   C2B55604  23.901  16.608   6.753
 9343POPC   C3B55605  23.935  16.651   7.053
 9343POPC   C4B55606  23.937  16.568   7.353
 9344POPC   NC355607  36.888  33.758   5.553
 9344POPC   PO455608  36.908  33.807   5.853
 9344POPC   GL155609  36.938  33.843   6.153
 9344POPC   GL255610  36.825  33.685   6.153
 9344POPC   C1A55611  36.942  33.794   6.453
 9344POPC   D2A55612  36.903  33.776   6.753
 9344POPC   C3A55613  36.878  33.820   7.053
 9344POPC   C4A55614  36.916  33.798   7.353
 9344POPC   C1B55615  36.774  33.655   6.453
 9344POPC   C2B55616  36.771  33.606   6.753
 9344POPC   C3B55617  36.725  33.612   7.053
 9344POPC   C4B55618  36.735  33.576   7.353
 9345POPC   NC355619   2.777  12.101   5.553
 9345POPC   PO455620   2.749  12.057   5.853
 9345POPC   GL155621   2.760  12.053   6.153
 9345POPC   GL255622   2.894  12.082   6.153
 9345POPC   C1A55623   2.787  12.072   6.453
 9345POPC   D2A55624   2.731  12.053   6.753
 9345POPC   C3A55625   2.810  12.090   7.053
 9345POPC   C4A55626   2.737  12.084   7.353
 9345POPC   C1B55627   3.063  12.106   6.453
 9345POPC   C2B55628   3.061  12.133   6.753
 9345POPC   C3B55629   3.050  12.069   7.053
 9345POPC   C4B55630   3.060  12.063   7.353
 9346POPC   NC355631   2.744   1.252   5.553
 9346POPC   PO455632   2.717   1.180   5.853
 9346POPC   GL155633   2.731   1.193   6.153
 9346POPC   GL255634   2.696   1.322   6.153
 9346POPC   C1A55635   2.799   1.227   6.453
 9346POPC   D2A55636   2.747   1.218   6.753
 9346POPC   C3A55637   2.800   1.187   7.053
 9346POPC   C4A55638   2.812   1.219   7.353
 9346POPC   C1B55639   2.622   1.376   6.453
 9346POPC   C2B55640   2.560   1.409   6.753
 9346POPC   C3B55641   2.647   1.399   7.053
 9346POPC   C4B55642   2.560   1.362   7.353
 9347POPC   NC355643  26.768  42.308   5.553
 9347POPC   PO455644  26.853  42.356   5.853
 9347POPC   GL155645  26.793  42.383   6.153
 9347POPC   GL255646  26.666  42.324   6.153
 9347POPC   C1A55647  26.774  42.362   6.453
 9347POPC   D2A55648  26.801  42.288   6.753
 9347POPC   C3A55649  26.812  42.354   7.053
 9347POPC   C4A55650  26.826  42.353   7.353
 9347POPC   C1B55651  26.602  42.241   6.453
 9347POPC   C2B55652  26.634  42.239   6.753
 9347POPC   C3B55653  26.566  42.184   7.053
 9347POPC   C4B55654  26.633  42.191   7.353
 9348POPC   NC355655   4.341  29.950   5.553
 9348POPC   PO455656   4.309  29.914   5.853
 9348POPC   GL155657   4.350  29.901   6.153
 9348POPC   GL255658   4.165  29.878   6.153
 9348POPC   C1A55659   4.331  29.925   6.453
 9348POPC   D2A55660   4.323  29.922   6.753
 9348POPC   C3A55661   4.365  29.924   7.053
 9348POPC   C4A55662   4.294  29.959   7.353
 9348POPC   C1B55663   4.050  29.924   6.453
 9348POPC   C2B55664   4.062  29.884   6.753
 9348POPC   C3B55665   4.064  29.831   7.053
 9348POPC   C4B55666   4.087  29.923   7.353
 9349POPC   NC355667  32.214  20.628   5.553
 9349POPC   PO455668  32.294  20.563   5.853
 9349POPC   GL155669  32.214  20.583   6.153
 9349POPC   GL255670  32.358  20.684   6.153
 9349POPC   C1A55671  32.232  20.576   6.453
 9349POPC   D2A55672  32.267  20.631   6.753
 9349POPC   C3A55673  32.269  20.657   7.053
 9349POPC   C4A55674  32.221  20.614   7.353
 9349POPC   C1B55675  32.423  20.685   6.453
 9349POPC   C2B55676  32.477  20.762   6.753
 9349POPC   C3B55677  32.437  20.735   7.053
 9349POPC   C4B55678  32.484  20.750   7.353
 9350POPC   NC355679  11.267  42.296   5.553
 9350POPC   PO455680  11.296  42.293   5.853
 9350POPC   GL155681  11.338  42.303   6.153
 9350POPC   GL255682  11.286  42.257   6.153
 9350POPC   C1A55683  11.252  42.320   6.453
 9350POPC   D2A55684  11.282  42.354   6.753
 9350POPC   C3A55685  11.323  42.286   7.053
 9350POPC   C4A55686  11.349  42.347   7.353
 9350POPC   C1B55687  11.345  42.079   6.453
 9350POPC   C2B55688  11.372  42.101   6.753
 9350POPC   C3B55689  11.327  42.067   7.053
 9350POPC   C4B55690  11.319  42.138   7.353
 9351POPC   NC355691  19.063   9.757   5.553
 9351POPC   PO455692  19.064   9.713   5.853
 9351POPC   GL155693  19.074   9.712   6.153
 9351POPC   GL255694  19.047   9.836   6.153
 9351POPC   C1A55695  19.085   9.709   6.453
 9351POPC   D2A55696  19.103   9.796   6.753
 9351POPC   C3A55697  19.012   9.721   7.053
 9351POPC   C4A55698  19.029   9.756   7.353
 9351POPC   C1B55699  19.064   9.993   6.453
 9351POPC   C2B55700  19.126   9.974   6.753
 9351POPC   C3B55701  19.067   9.958   7.053
 9351POPC   C4B55702  19.116  10.022   7.353
 9352POPC   NC355703  21.419   1.204   5.553
 9352POPC   PO455704  21.357   1.188   5.853
 9352POPC   GL155705  21.354   1.189   6.153
 9352POPC   GL255706  21.476   1.133   6.153
 9352POPC   C1A55707  21.361   1.200   6.453
 9352POPC   D2A55708  21.421   1.208   6.753
 9352POPC   C3A55709  21.362   1.242   7.053
 9352POPC   C4A55710  21.361   1.188   7.353
 9352POPC   C1B55711  21.548   0.992   6.453
 9352POPC   C2B55712  21.552   0.995   6.753
 9352POPC   C3B55713  21.545   0.963   7.053
 9352POPC   C4B55714  21.516   1.035   7.353
 9353POPC   NC355715  41.530   1.192   5.553
 9353POPC   PO455716  41.544   1.263   5.853
 9353POPC   GL155717  41.598   1.189   6.153
 9353POPC   GL255718  41.686   1.241   6.153
 9353POPC   C1A55719  41.527   1.168   6.453
 9353POPC   D2A55720  41.555   1.217   6.753
 9353POPC   C3A55721  41.601   1.218   7.053
 9353POPC   C4A55722  41.546   1.198   7.353
 9353POPC   C1B55723  41.768   1.303   6.453
 9353POPC   C2B55724  41.763   1.296   6.753
 9353POPC   C3B55725  41.797   1.362   7.053
 9353POPC   C4B55726  41.743   1.293   7.353
 9354POPC   NC355727  43.110  32.216   5.553
 9354POPC   PO455728  43.138  32.264   5.853
 9354POPC   GL155729  43.137  32.233   6.153
 9354POPC   GL255730  43.248  32.287   6.153
 9354POPC   C1A55731  43.102  32.212   6.453
 9354POPC   D2A55732  43.150  32.298   6.753
 9354POPC   C3A55733  43.078  32.230   7.053
 9354POPC   C4A55734  43.139  32.275   7.353
 9354POPC   C1B55735  43.320  32.318   6.453
 9354POPC   C2B55736  43.374  32.308   6.753
 9354POPC   C3B55737  43.332  32.273   7.053
 9354POPC   C4B55738  43.370  32.319   7.353
 9355POPC   NC355739  12.082  40.043   5.553
 9355POPC   PO455740  12.084  39.996   5.853
 9355POPC   GL155741  12.040  39.990   6.153
 9355POPC   GL255742  11.987  40.065   6.153
 9355POPC   C1A55743  12.053  40.031   6.453
 9355POPC   D2A55744  12.068  40.006   6.753
 9355POPC   C3A55745  12.052  40.006   7.053
 9355POPC   C4A55746  12.098  39.961   7.353
 9355POPC   C1B55747  11.902  40.226   6.453
 9355POPC   C2B55748  11.872  40.234   6.753
 9355POPC   C3B55749  11.893  40.174   7.053
 9355POPC   C4B55750  11.880  40.205   7.353
 9356POPC   NC355751  35.344  28.411   5.553
 9356POPC   PO455752  35.329  28.383   5.853
 9356POPC   GL155753  35.326  28.325   6.153
 9356POPC   GL255754  35.336  28.462   6.153
 9356POPC   C1A55755  35.320  28.335   6.453
 9356POPC   D2A55756  35.371  28.391   6.753
 9356POPC   C3A55757  35.334  28.349   7.053
 9356POPC   C4A55758  35.331  28.370   7.353
 9356POPC   C1B55759  35.427  28.660   6.453
 9356POPC   C2B55760  35.425  28.570   6.753
 9356POPC   C3B55761  35.433  28.644   7.053
 9356POPC   C4B55762  35.421  28.635   7.353
 9357POPC   NC355763  40.789  17.541   5.553
 9357POPC   PO455764  40.765  17.483   5.853
 9357POPC   GL155765  40.811  17.467   6.153
 9357POPC   GL255766  40.624  17.516   6.153
 9357POPC   C1A55767  40.755  17.554   6.453
 9357POPC   D2A55768  40.805  17.544   6.753
 9357POPC   C3A55769  40.816  17.461   7.053
 9357POPC   C4A55770  40.761  17.546   7.353
 9357POPC   C1B55771  40.499  17.445   6.453
 9357POPC   C2B55772  40.528  17.443   6.753
 9357POPC   C3B55773  40.516  17.414   7.053
 9357POPC   C4B55774  40.530  17.454   7.353
 9358POPC   NC355775  35.336  36.893   5.553
 9358POPC   PO455776  35.328  36.912   5.853
 9358POPC   GL155777  35.353  36.928   6.153
 9358POPC   GL255778  35.254  36.752   6.153
 9358POPC   C1A55779  35.394  36.919   6.453
 9358POPC   D2A55780  35.330  36.932   6.753
 9358POPC   C3A55781  35.308  36.943   7.053
 9358POPC   C4A55782  35.313  36.925   7.353
 9358POPC   C1B55783  35.227  36.688   6.453
 9358POPC   C2B55784  35.183  36.663   6.753
 9358POPC   C3B55785  35.243  36.669   7.053
 9358POPC   C4B55786  35.203  36.727   7.353
 9359POPC   NC355787  41.540  37.665   5.553
 9359POPC   PO455788  41.557  37.687   5.853
 9359POPC   GL155789  41.523  37.705   6.153
 9359POPC   GL255790  41.678  37.679   6.153
 9359POPC   C1A55791  41.561  37.709   6.453
 9359POPC   D2A55792  41.600  37.681   6.753
 9359POPC   C3A55793  41.560  37.724   7.053
 9359POPC   C4A55794  41.512  37.688   7.353
 9359POPC   C1B55795  41.811  37.712   6.453
 9359POPC   C2B55796  41.786  37.718   6.753
 9359POPC   C3B55797  41.780  37.719   7.053
 9359POPC   C4B55798  41.806  37.719   7.353
 9360POPC   NC355799  27.626  13.655   5.553
 9360POPC   PO455800  27.559  13.677   5.853
 9360POPC   GL155801  27.564  13.666   6.153
 9360POPC   GL255802  27.721  13.566   6.153
 9360POPC   C1A55803  27.599  13.655   6.453
 9360POPC   D2A55804  27.607  13.609   6.753
 9360POPC   C3A55805  27.546  13.647   7.053
 9360POPC   C4A55806  27.634  13.627   7.353
 9360POPC   C1B55807  27.789  13.458   6.453
 9360POPC   C2B55808  27.786  13.529   6.753
 9360POPC   C3B55809  27.763  13.449   7.053
 9360POPC   C4B55810  27.825  13.450   7.353
 9361POPC   NC355811  37.694   2.038   5.553
 9361POPC   PO455812  37.686   1.982   5.853
 9361POPC   GL155813  37.674   1.981   6.153
 9361POPC   GL255814  37.605   2.005   6.153
 9361POPC   C1A55815  37.725   1.957   6.453
 9361POPC   D2A55816  37.641   2.000   6.753
 9361POPC   C3A55817  37.723   1.953   7.053
 9361POPC   C4A55818  37.681   1.973   7.353
 9361POPC   C1B55819  37.429   2.083   6.453
 9361POPC   C2B55820  37.483   2.049   6.753
 9361POPC   C3B55821  37.415   2.011   7.053
 9361POPC   C4B55822  37.453   2.029   7.353
 9362POPC   NC355823  15.132  44.686   5.553
 9362POPC   PO455824  15.207  44.680   5.853
 9362POPC   GL155825  15.143  44.698   6.153
 9362POPC   GL255826  15.153  44.549   6.153
 9362POPC   C1A55827  15.195  44.673   6.453
 9362POPC   D2A55828  15.193  44.626   6.753
 9362POPC   C3A55829  15.197  44.638   7.053
 9362POPC   C4A55830  15.145  44.669   7.353
 9362POPC   C1B55831  15.083  44.377   6.453
 9362POPC   C2B55832  15.065  44.447   6.753
 9362POPC   C3B55833  15.133  44.449   7.053
 9362POPC   C4B55834  15.148  44.459   7.353
 9363POPC   NC355835   5.070   2.718   5.553
 9363POPC   PO455836   5.118   2.814   5.853
 9363POPC   GL155837   5.065   2.731   6.153
 9363POPC   GL255838   5.202   2.785   6.153
 9363POPC   C1A55839   5.131   2.754   6.453
 9363POPC   D2A55840   5.139   2.747   6.753
 9363POPC   C3A55841   5.053   2.752   7.053
 9363POPC   C4A55842   5.045   2.810   7.353
 9363POPC   C1B55843   5.290   2.921   6.453
 9363POPC   C2B55844   5.344   2.860   6.753
 9363POPC   C3B55845   5.278   2.898   7.053
 9363POPC   C4B55846   5.285   2.832   7.353
 9364POPC   NC355847  27.592  24.534   5.553
 9364POPC   PO455848  27.617  24.448   5.853
 9364POPC   GL155849  27.597  24.515   6.153
 9364POPC   GL255850  27.528  24.331   6.153
 9364POPC   C1A55851  27.571  24.495   6.453
 9364POPC   D2A55852  27.585  24.525   6.753
 9364POPC   C3A55853  27.633  24.506   7.053
 9364POPC   C4A55854  27.611  24.510   7.353
 9364POPC   C1B55855  27.526  24.297   6.453
 9364POPC   C2B55856  27.481  24.305   6.753
 9364POPC   C3B55857  27.467  24.277   7.053
 9364POPC   C4B55858  27.462  24.271   7.353
 9365POPC   NC355859   2.744  31.456   5.553
 9365POPC   PO455860   2.751  31.471   5.853
 9365POPC   GL155861   2.724  31.464   6.153
 9365POPC   GL255862   2.846  31.455   6.153
 9365POPC   C1A55863   2.779  31.484   6.453
 9365POPC   D2A55864   2.789  31.427   6.753
 9365POPC   C3A55865   2.742  31.467   7.053
 9365POPC   C4A55866   2.803  31.515   7.353
 9365POPC   C1B55867   2.961  31.427   6.453
 9365POPC   C2B55868   3.001  31.396   6.753
 9365POPC   C3B55869   3.021  31.421   7.053
 9365POPC   C4B55870   2.995  31.445   7.353
 9366POPC   NC355871   6.655   1.222   5.553
 9366POPC   PO455872   6.615   1.208   5.853
 9366POPC   GL155873   6.678   1.259   6.153
 9366POPC   GL255874   6.647   1.120   6.153
 9366POPC   C1A55875   6.640   1.212   6.453
 9366POPC   D2A55876   6.658   1.207   6.753
 9366POPC   C3A55877   6.627   1.262   7.053
 9366POPC   C4A55878   6.660   1.260   7.353
 9366POPC   C1B55879   6.663   0.923   6.453
 9366POPC   C2B55880   6.741   1.000   6.753
 9366POPC   C3B55881   6.722   1.017   7.053
 9366POPC   C4B55882   6.706   1.011   7.353
 9367POPC   NC355883  25.312  37.719   5.553
 9367POPC   PO455884  25.265  37.648   5.853
 9367POPC   GL155885  25.297  37.724   6.153
 9367POPC   GL255886  25.431  37.629   6.153
 9367POPC   C1A55887  25.288  37.708   6.453
 9367POPC   D2A55888  25.314  37.691   6.753
 9367POPC   C3A55889  25.256  37.688   7.053
 9367POPC   C4A55890  25.312  37.698   7.353
 9367POPC   C1B55891  25.481  37.589   6.453
 9367POPC   C2B55892  25.515  37.618   6.753
 9367POPC   C3B55893  25.483  37.584   7.053
 9367POPC   C4B55894  25.481  37.633   7.353
 9368POPC   NC355895  22.942  28.328   5.553
 9368POPC   PO455896  22.964  28.394   5.853
 9368POPC   GL155897  22.890  28.399   6.153
 9368POPC   GL255898  22.797  28.240   6.153
 9368POPC   C1A55899  22.965  28.374   6.453
 9368POPC   D2A55900  22.914  28.345   6.753
 9368POPC   C3A55901  22.970  28.384   7.053
 9368POPC   C4A55902  22.985  28.357   7.353
 9368POPC   C1B55903  22.774  28.167   6.453
 9368POPC   C2B55904  22.784  28.179   6.753
 9368POPC   C3B55905  22.793  28.182   7.053
 9368POPC   C4B55906  22.777  28.192   7.353
 9369POPC   NC355907  32.212  37.709   5.553
 9369POPC   PO455908  32.252  37.702   5.853
 9369POPC   GL155909  32.272  37.711   6.153
 9369POPC   GL255910  32.117  37.661   6.153
 9369POPC   C1A55911  32.268  37.685   6.453
 9369POPC   D2A55912  32.282  37.673   6.753
 9369POPC   C3A55913  32.261  37.727   7.053
 9369POPC   C4A55914  32.257  37.716   7.353
 9369POPC   C1B55915  32.017  37.585   6.453
 9369POPC   C2B55916  31.984  37.615   6.753
 9369POPC   C3B55917  32.036  37.537   7.053
 9369POPC   C4B55918  32.019  37.631   7.353
 9370POPC   NC355919  16.758  32.294   5.553
 9370POPC   PO455920  16.711  32.291   5.853
 9370POPC   GL155921  16.730  32.206   6.153
 9370POPC   GL255922  16.652  32.271   6.153
 9370POPC   C1A55923  16.778  32.204   6.453
 9370POPC   D2A55924  16.714  32.258   6.753
 9370POPC   C3A55925  16.771  32.278   7.053
 9370POPC   C4A55926  16.707  32.278   7.353
 9370POPC   C1B55927  16.480  32.247   6.453
 9370POPC   C2B55928  16.513  32.207   6.753
 9370POPC   C3B55929  16.526  32.241   7.053
 9370POPC   C4B55930  16.469  32.213   7.353
 9371POPC   NC355931  32.258  34.553   5.553
 9371POPC   PO455932  32.234  34.560   5.853
 9371POPC   GL155933  32.248  34.570   6.153
 9371POPC   GL255934  32.301  34.673   6.153
 9371POPC   C1A55935  32.287  34.579   6.453
 9371POPC   D2A55936  32.229  34.576   6.753
 9371POPC   C3A55937  32.263  34.612   7.053
 9371POPC   C4A55938  32.225  34.600   7.353
 9371POPC   C1B55939  32.322  34.751   6.453
 9371POPC   C2B55940  32.327  34.826   6.753
 9371POPC   C3B55941  32.380  34.773   7.053
 9371POPC   C4B55942  32.348  34.754   7.353
 9372POPC   NC355943  36.175  39.212   5.553
 9372POPC   PO455944  36.095  39.197   5.853
 9372POPC   GL155945  36.162  39.230   6.153
 9372POPC   GL255946  36.179  39.114   6.153
 9372POPC   C1A55947  36.154  39.182   6.453
 9372POPC   D2A55948  36.103  39.197   6.753
 9372POPC   C3A55949  36.150  39.184   7.053
 9372POPC   C4A55950  36.137  39.189   7.353
 9372POPC   C1B55951  36.203  39.021   6.453
 9372POPC   C2B55952  36.225  38.959   6.753
 9372POPC   C3B55953  36.243  39.050   7.053
 9372POPC   C4B55954  36.202  39.045   7.353
 9373POPC   NC355955  17.496   7.379   5.553
 9373POPC   PO455956  17.504   7.452   5.853
 9373POPC   GL155957  17.508   7.405   6.153
 9373POPC   GL255958  17.500   7.587   6.153
 9373POPC   C1A55959  17.500   7.431   6.453
 9373POPC   D2A55960  17.462   7.460   6.753
 9373POPC   C3A55961  17.545   7.399   7.053
 9373POPC   C4A55962  17.467   7.394   7.353
 9373POPC   C1B55963  17.406   7.700   6.453
 9373POPC   C2B55964  17.405   7.649   6.753
 9373POPC   C3B55965  17.485   7.630   7.053
 9373POPC   C4B55966  17.483   7.619   7.353
 9374POPC   NC355967  17.533  26.051   5.553
 9374POPC   PO455968  17.474  26.010   5.853
 9374POPC   GL155969  17.462  26.086   6.153
 9374POPC   GL255970  17.605  26.138   6.153
 9374POPC   C1A55971  17.541  26.009   6.453
 9374POPC   D2A55972  17.472  26.015   6.753
 9374POPC   C3A55973  17.508  26.004   7.053
 9374POPC   C4A55974  17.492  26.039   7.353
 9374POPC   C1B55975  17.756  26.182   6.453
 9374POPC   C2B55976  17.728  26.195   6.753
 9374POPC   C3B55977  17.764  26.191   7.053
 9374POPC   C4B55978  17.743  26.175   7.353
 9375POPC   NC355979   2.014  41.553   5.553
 9375POPC   PO455980   2.001  41.569   5.853
 9375POPC   GL155981   2.033  41.567   6.153
 9375POPC   GL255982   1.847  41.466   6.153
 9375POPC   C1A55983   1.964  41.525   6.453
 9375POPC   D2A55984   2.008  41.523   6.753
 9375POPC   C3A55985   1.953  41.542   7.053
 9375POPC   C4A55986   1.953  41.589   7.353
 9375POPC   C1B55987   1.792  41.433   6.453
 9375POPC   C2B55988   1.784  41.363   6.753
 9375POPC   C3B55989   1.785  41.359   7.053
 9375POPC   C4B55990   1.766  41.412   7.353
 9376POPC   NC355991   5.115   6.617   5.553
 9376POPC   PO455992   5.047   6.661   5.853
 9376POPC   GL155993   5.110   6.607   6.153
 9376POPC   GL255994   5.093   6.806   6.153
 9376POPC   C1A55995   5.136   6.673   6.453
 9376POPC   D2A55996   5.053   6.625   6.753
 9376POPC   C3A55997   5.125   6.649   7.053
 9376POPC   C4A55998   5.066   6.643   7.353
 9376POPC   C1B55999   5.093   6.917   6.453
 9376POPC   C2B56000   5.140   6.882   6.753
 9376POPC   C3B56001   5.077   6.852   7.053
 9376POPC   C4B56002   5.091   6.872   7.353
 9377POPC   NC356003  37.710  12.117   5.553
 9377POPC   PO456004  37.716  12.066   5.853
 9377POPC   GL156005  37.634  12.056   6.153
 9377POPC   GL256006  37.634  11.971   6.153
 9377POPC   C1A56007  37.647  12.074   6.453
 9377POPC   D2A56008  37.726  12.072   6.753
 9377POPC   C3A56009  37.643  12.055   7.053
 9377POPC   C4A56010  37.684  12.046   7.353
 9377POPC   C1B56011  37.552  11.876   6.453
 9377POPC   C2B56012  37.464  11.847   6.753
 9377POPC   C3B56013  37.499  11.927   7.053
 9377POPC   C4B56014  37.508  11.915   7.353
 9378POPC   NC356015  20.563  43.846   5.553
 9378POPC   PO456016  20.566  43.880   5.853
 9378POPC   GL156017  20.592  43.904   6.153
 9378POPC   GL256018  20.513  43.820   6.153
 9378POPC   C1A56019  20.579  43.888   6.453
 9378POPC   D2A56020  20.585  43.908   6.753
 9378POPC   C3A56021  20.639  43.838   7.053
 9378POPC   C4A56022  20.625  43.842   7.353
 9378POPC   C1B56023  20.378  43.733   6.453
 9378POPC   C2B56024  20.374  43.767   6.753
 9378POPC   C3B56025  20.420  43.735   7.053
 9378POPC   C4B56026  20.418  43.733   7.353
 9379POPC   NC356027  27.609  29.142   5.553
 9379POPC   PO456028  27.612  29.113   5.853
 9379POPC   GL156029  27.634  29.107   6.153
 9379POPC   GL256030  27.696  29.249   6.153
 9379POPC   C1A56031  27.564  29.150   6.453
 9379POPC   D2A56032  27.562  29.109   6.753
 9379POPC   C3A56033  27.588  29.100   7.053
 9379POPC   C4A56034  27.586  29.132   7.353
 9379POPC   C1B56035  27.774  29.274   6.453
 9379POPC   C2B56036  27.863  29.252   6.753
 9379POPC   C3B56037  27.854  29.293   7.053
 9379POPC   C4B56038  27.829  29.264   7.353
 9380POPC   NC356039  36.898  42.329   5.553
 9380POPC   PO456040  36.871  42.362   5.853
 9380POPC   GL156041  36.869  42.376   6.153
 9380POPC   GL256042  37.012  42.420   6.153
 9380POPC   C1A56043  36.885  42.302   6.453
 9380POPC   D2A56044  36.881  42.311   6.753
 9380POPC   C3A56045  36.921  42.321   7.053
 9380POPC   C4A56046  36.868  42.351   7.353
 9380POPC   C1B56047  37.167  42.444   6.453
 9380POPC   C2B56048  37.074  42.417   6.753
 9380POPC   C3B56049  37.142  42.448   7.053
 9380POPC   C4B56050  37.093  42.460   7.353
 9381POPC   NC356051   7.439  44.636   5.553
 9381POPC   PO456052   7.459  44.679   5.853
 9381POPC   GL156053   7.384  44.623   6.153
 9381POPC   GL256054   7.431  44.777   6.153
 9381POPC   C1A56055   7.372  44.659   6.453
 9381POPC   D2A56056   7.374  44.668   6.753
 9381POPC   C3A56057   7.375  44.693   7.053
 9381POPC   C4A56058   7.410  44.644   7.353
 9381POPC   C1B56059   7.562  44.854   6.453
 9381POPC   C2B56060   7.498  44.901   6.753
 9381POPC   C3B56061   7.487  44.894   7.053
 9381POPC   C4B56062   7.560  44.905   7.353
 9382POPC   NC356063   6.595   0.414   5.553
 9382POPC   PO456064   6.605   0.400   5.853
 9382POPC   GL156065   6.681   0.480   6.153
 9382POPC   GL256066   6.570   0.558   6.153
 9382POPC   C1A56067   6.646   0.412   6.453
 9382POPC   D2A56068   6.602   0.388   6.753
 9382POPC   C3A56069   6.600   0.469   7.053
 9382POPC   C4A56070   6.643   0.456   7.353
 9382POPC   C1B56071   6.519   0.641   6.453
 9382POPC   C2B56072   6.486   0.609   6.753
 9382POPC   C3B56073   6.466   0.635   7.053
 9382POPC   C4B56074   6.523   0.605   7.353
 9383POPC   NC356075  23.743  15.970   5.553
 9383POPC   PO456076  23.694  15.934   5.853
 9383POPC   GL156077  23.730  15.978   6.153
 9383POPC   GL256078  23.710  16.031   6.153
 9383POPC   C1A56079  23.695  15.979   6.453
 9383POPC   D2A56080  23.714  15.937   6.753
 9383POPC   C3A56081  23.686  15.991   7.053
 9383POPC   C4A56082  23.703  15.959   7.353
 9383POPC   C1B56083  23.699  16.194   6.453
 9383POPC   C2B56084  23.675  16.203   6.753
 9383POPC   C3B56085  23.652  16.235   7.053
 9383POPC   C4B56086  23.679  16.203   7.353
 9384POPC   NC356087  40.012  37.651   5.553
 9384POPC   PO456088  40.023  37.631   5.853
 9384POPC   GL156089  39.969  37.729   6.153
 9384POPC   GL256090  40.130  37.707   6.153
 9384POPC   C1A56091  39.975  37.633   6.453
 9384POPC   D2A56092  39.960  37.672   6.753
 9384POPC   C3A56093  39.990  37.711   7.053
 9384POPC   C4A56094  40.009  37.683   7.353
 9384POPC   C1B56095  40.269  37.690   6.453
 9384POPC   C2B56096  40.236  37.671   6.753
 9384POPC   C3B56097  40.242  37.694   7.053
 9384POPC   C4B56098  40.207  37.699   7.353
 9385POPC   NC356099  14.399  10.525   5.553
 9385POPC   PO456100  14.408  10.511   5.853
 9385POPC   GL156101  14.409  10.548   6.153
 9385POPC   GL256102  14.407  10.432   6.153
 9385POPC   C1A56103  14.430  10.513   6.453
 9385POPC   D2A56104  14.448  10.544   6.753
 9385POPC   C3A56105  14.423  10.529   7.053
 9385POPC   C4A56106  14.382  10.558   7.353
 9385POPC   C1B56107  14.474  10.255   6.453
 9385POPC   C2B56108  14.542  10.334   6.753
 9385POPC   C3B56109  14.515  10.252   7.053
 9385POPC   C4B56110  14.488  10.309   7.353
 9386POPC   NC356111  40.736  33.762   5.553
 9386POPC   PO456112  40.737  33.816   5.853
 9386POPC   GL156113  40.832  33.814   6.153
 9386POPC   GL256114  40.704  33.844   6.153
 9386POPC   C1A56115  40.809  33.758   6.453
 9386POPC   D2A56116  40.828  33.758   6.753
 9386POPC   C3A56117  40.832  33.817   7.053
 9386POPC   C4A56118  40.819  33.775   7.353
 9386POPC   C1B56119  40.505  33.875   6.453
 9386POPC   C2B56120  40.581  33.806   6.753
 9386POPC   C3B56121  40.526  33.829   7.053
 9386POPC   C4B56122  40.572  33.894   7.353
 9387POPC   NC356123   8.203  27.562   5.553
 9387POPC   PO456124   8.243  27.564   5.853
 9387POPC   GL156125   8.228  27.631   6.153
 9387POPC   GL256126   8.160  27.650   6.153
 9387POPC   C1A56127   8.246  27.593   6.453
 9387POPC   D2A56128   8.210  27.556   6.753
 9387POPC   C3A56129   8.238  27.594   7.053
 9387POPC   C4A56130   8.154  27.623   7.353
 9387POPC   C1B56131   8.050  27.758   6.453
 9387POPC   C2B56132   8.058  27.803   6.753
 9387POPC   C3B56133   8.061  27.795   7.053
 9387POPC   C4B56134   8.091  27.813   7.353
 9388POPC   NC356135  24.539  35.335   5.553
 9388POPC   PO456136  24.499  35.340   5.853
 9388POPC   GL156137  24.450  35.381   6.153
 9388POPC   GL256138  24.625  35.468   6.153
 9388POPC   C1A56139  24.516  35.394   6.453
 9388POPC   D2A56140  24.530  35.319   6.753
 9388POPC   C3A56141  24.487  35.319   7.053
 9388POPC   C4A56142  24.517  35.325   7.353
 9388POPC   C1B56143  24.682  35.493   6.453
 9388POPC   C2B56144  24.727  35.501   6.753
 9388POPC   C3B56145  24.729  35.462   7.053
 9388POPC   C4B56146  24.716  35.493   7.353
 9389POPC   NC356147  40.055  40.753   5.553
 9389POPC   PO456148  39.979  40.825   5.853
 9389POPC   GL156149  39.976  40.828   6.153
 9389POPC   GL256150  39.927  40.868   6.153
 9389POPC   C1A56151  40.009  40.757   6.453
 9389POPC   D2A56152  40.025  40.771   6.753
 9389POPC   C3A56153  40.014  40.803   7.053
 9389POPC   C4A56154  40.045  40.736   7.353
 9389POPC   C1B56155  39.773  40.987   6.453
 9389POPC   C2B56156  39.841  40.939   6.753
 9389POPC   C3B56157  39.824  40.930   7.053
 9389POPC   C4B56158  39.820  40.980   7.353
 9390POPC   NC356159   8.959  39.280   5.553
 9390POPC   PO456160   9.010  39.280   5.853
 9390POPC   GL156161   8.975  39.188   6.153
 9390POPC   GL256162   9.142  39.231   6.153
 9390POPC   C1A56163   8.945  39.249   6.453
 9390POPC   D2A56164   9.007  39.230   6.753
 9390POPC   C3A56165   8.926  39.255   7.053
 9390POPC   C4A56166   8.955  39.205   7.353
 9390POPC   C1B56167   9.229  39.150   6.453
 9390POPC   C2B56168   9.216  39.164   6.753
 9390POPC   C3B56169   9.257  39.147   7.053
 9390POPC   C4B56170   9.171  39.133   7.353
 9391POPC   NC356171   1.941  43.147   5.553
 9391POPC   PO456172   1.949  43.083   5.853
 9391POPC   GL156173   1.943  43.087   6.153
 9391POPC   GL256174   1.969  43.263   6.153
 9391POPC   C1A56175   2.038  43.089   6.453
 9391POPC   D2A56176   1.961  43.085   6.753
 9391POPC   C3A56177   2.011  43.157   7.053
 9391POPC   C4A56178   2.036  43.121   7.353
 9391POPC   C1B56179   1.952  43.334   6.453
 9391POPC   C2B56180   1.978  43.316   6.753
 9391POPC   C3B56181   1.948  43.370   7.053
 9391POPC   C4B56182   1.978  43.391   7.353
 9392POPC   NC356183  32.259  26.848   5.553
 9392POPC   PO456184  32.209  26.794   5.853
 9392POPC   GL156185  32.240  26.774   6.153
 9392POPC   GL256186  32.255  26.743   6.153
 9392POPC   C1A56187  32.295  26.811   6.453
 9392POPC   D2A56188  32.281  26.822   6.753
 9392POPC   C3A56189  32.227  26.796   7.053
 9392POPC   C4A56190  32.204  26.836   7.353
 9392POPC   C1B56191  32.180  26.592   6.453
 9392POPC   C2B56192  32.196  26.524   6.753
 9392POPC   C3B56193  32.198  26.585   7.053
 9392POPC   C4B56194  32.163  26.570   7.353
 9393POPC   NC356195  14.376  39.966   5.553
 9393POPC   PO456196  14.453  40.036   5.853
 9393POPC   GL156197  14.367  39.978   6.153
 9393POPC   GL256198  14.312  39.967   6.153
 9393POPC   C1A56199  14.443  39.980   6.453
 9393POPC   D2A56200  14.389  40.036   6.753
 9393POPC   C3A56201  14.394  39.996   7.053
 9393POPC   C4A56202  14.395  39.991   7.353
 9393POPC   C1B56203  14.204  39.895   6.453
 9393POPC   C2B56204  14.168  39.837   6.753
 9393POPC   C3B56205  14.179  39.890   7.053
 9393POPC   C4B56206  14.162  39.857   7.353
 9394POPC   NC356207  37.638  40.025   5.553
 9394POPC   PO456208  37.723  39.962   5.853
 9394POPC   GL156209  37.685  39.966   6.153
 9394POPC   GL256210  37.765  39.991   6.153
 9394POPC   C1A56211  37.650  40.050   6.453
 9394POPC   D2A56212  37.726  40.051   6.753
 9394POPC   C3A56213  37.683  40.054   7.053
 9394POPC   C4A56214  37.703  39.962   7.353
 9394POPC   C1B56215  37.966  39.910   6.453
 9394POPC   C2B56216  37.874  39.914   6.753
 9394POPC   C3B56217  37.936  39.980   7.053
 9394POPC   C4B56218  37.914  39.966   7.353
 9395POPC   NC356219  29.129  33.786   5.553
 9395POPC   PO456220  29.116  33.805   5.853
 9395POPC   GL156221  29.116  33.809   6.153
 9395POPC   GL256222  29.265  33.717   6.153
 9395POPC   C1A56223  29.175  33.789   6.453
 9395POPC   D2A56224  29.100  33.768   6.753
 9395POPC   C3A56225  29.160  33.836   7.053
 9395POPC   C4A56226  29.131  33.756   7.353
 9395POPC   C1B56227  29.370  33.726   6.453
 9395POPC   C2B56228  29.408  33.684   6.753
 9395POPC   C3B56229  29.389  33.708   7.053
 9395POPC   C4B56230  29.393  33.712   7.353
 9396POPC   NC356231  18.273  32.271   5.553
 9396POPC   PO456232  18.283  32.244   5.853
 9396POPC   GL156233  18.273  32.271   6.153
 9396POPC   GL256234  18.214  32.371   6.153
 9396POPC   C1A56235  18.287  32.298   6.453
 9396POPC   D2A56236  18.285  32.262   6.753
 9396POPC   C3A56237  18.285  32.217   7.053
 9396POPC   C4A56238  18.305  32.227   7.353
 9396POPC   C1B56239  18.073  32.416   6.453
 9396POPC   C2B56240  18.057  32.440   6.753
 9396POPC   C3B56241  18.073  32.434   7.053
 9396POPC   C4B56242  18.124  32.430   7.353
 9397POPC   NC356243   4.362   7.439   5.553
 9397POPC   PO456244   4.280   7.405   5.853
 9397POPC   GL156245   4.341   7.467   6.153
 9397POPC   GL256246   4.362   7.299   6.153
 9397POPC   C1A56247   4.275   7.438   6.453
 9397POPC   D2A56248   4.323   7.373   6.753
 9397POPC   C3A56249   4.280   7.414   7.053
 9397POPC   C4A56250   4.320   7.393   7.353
 9397POPC   C1B56251   4.409   7.151   6.453
 9397POPC   C2B56252   4.389   7.201   6.753
 9397POPC   C3B56253   4.425   7.169   7.053
 9397POPC   C4B56254   4.382   7.197   7.353
 9398POPC   NC356255  43.908  34.569   5.553
 9398POPC   PO456256  43.845  34.612   5.853
 9398POPC   GL156257  43.869  34.626   6.153
 9398POPC   GL256258  43.840  34.473   6.153
 9398POPC   C1A56259  43.931  34.596   6.453
 9398POPC   D2A56260  43.900  34.587   6.753
 9398POPC   C3A56261  43.902  34.584   7.053
 9398POPC   C4A56262  43.871  34.566   7.353
 9398POPC   C1B56263  43.882  34.305   6.453
 9398POPC   C2B56264  43.804  34.368   6.753
 9398POPC   C3B56265  43.855  34.312   7.053
 9398POPC   C4B56266  43.819  34.367   7.353
 9399POPC   NC356267  23.756  38.420   5.553
 9399POPC   PO456268  23.706  38.501   5.853
 9399POPC   GL156269  23.735  38.479   6.153
 9399POPC   GL256270  23.709  38.361   6.153
 9399POPC   C1A56271  23.763  38.496   6.453
 9399POPC   D2A56272  23.732  38.446   6.753
 9399POPC   C3A56273  23.693  38.451   7.053
 9399POPC   C4A56274  23.738  38.497   7.353
 9399POPC   C1B56275  23.777  38.184   6.453
 9399POPC   C2B56276  23.815  38.221   6.753
 9399POPC   C3B56277  23.752  38.187   7.053
 9399POPC   C4B56278  23.763  38.247   7.353
 9400POPC   NC356279  26.007   1.992   5.553
 9400POPC   PO456280  26.031   1.971   5.853
 9400POPC   GL156281  26.017   1.967   6.153
 9400POPC   GL256282  25.934   2.093   6.153
 9400POPC   C1A56283  26.029   1.959   6.453
 9400POPC   D2A56284  26.080   1.998   6.753
 9400POPC   C3A56285  26.044   1.988   7.053
 9400POPC   C4A56286  26.007   1.961   7.353
 9400POPC   C1B56287  25.895   2.173   6.453
 9400POPC   C2B56288  25.859   2.125   6.753
 9400POPC   C3B56289  25.892   2.191   7.053
 9400POPC   C4B56290  25.861   2.187   7.353
 9401POPC   NC356291  11.293  19.857   5.553
 9401POPC   PO456292  11.291  19.851   5.853
 9401POPC   GL156293  11.278  19.797   6.153
 9401POPC   GL256294  11.268  19.918   6.153
 9401POPC   C1A56295  11.348  19.824   6.453
 9401POPC   D2A56296  11.250  19.811   6.753
 9401POPC   C3A56297  11.308  19.795   7.053
 9401POPC   C4A56298  11.280  19.808   7.353
 9401POPC   C1B56299  11.160  20.019   6.453
 9401POPC   C2B56300  11.167  20.086   6.753
 9401POPC   C3B56301  11.246  20.031   7.053
 9401POPC   C4B56302  11.201  20.044   7.353
 9402POPC   NC356303  40.747   4.288   5.553
 9402POPC   PO456304  40.785   4.364   5.853
 9402POPC   GL156305  40.799   4.356   6.153
 9402POPC   GL256306  40.863   4.313   6.153
 9402POPC   C1A56307  40.766   4.326   6.453
 9402POPC   D2A56308  40.798   4.284   6.753
 9402POPC   C3A56309  40.807   4.303   7.053
 9402POPC   C4A56310  40.785   4.320   7.353
 9402POPC   C1B56311  41.042   4.434   6.453
 9402POPC   C2B56312  41.054   4.396   6.753
 9402POPC   C3B56313  41.021   4.360   7.053
 9402POPC   C4B56314  41.051   4.349   7.353
 9403POPC   NC356315  18.265  19.085   5.553
 9403POPC   PO456316  18.245  19.074   5.853
 9403POPC   GL156317  18.311  19.043   6.153
 9403POPC   GL256318  18.268  18.907   6.153
 9403POPC   C1A56319  18.327  19.099   6.453
 9403POPC   D2A56320  18.283  19.107   6.753
 9403POPC   C3A56321  18.268  19.054   7.053
 9403POPC   C4A56322  18.252  19.072   7.353
 9403POPC   C1B56323  18.324  18.850   6.453
 9403POPC   C2B56324  18.276  18.838   6.753
 9403POPC   C3B56325  18.246  18.791   7.053
 9403POPC   C4B56326  18.262  18.847   7.353
 9404POPC   NC356327  26.026  12.891   5.553
 9404POPC   PO456328  26.068  12.827   5.853
 9404POPC   GL156329  26.006  12.871   6.153
 9404POPC   GL256330  26.138  12.708   6.153
 9404POPC   C1A56331  26.012  12.873   6.453
 9404POPC   D2A56332  26.026  12.834   6.753
 9404POPC   C3A56333  26.077  12.877   7.053
 9404POPC   C4A56334  26.076  12.829   7.353
 9404POPC   C1B56335  26.161  12.711   6.453
 9404POPC   C2B56336  26.205  12.705   6.753
 9404POPC   C3B56337  26.163  12.700   7.053
 9404POPC   C4B56338  26.233  12.694   7.353
 9405POPC   NC356339  33.809   5.864   5.553
 9405POPC   PO456340  33.819   5.850   5.853
 9405POPC   GL156341  33.757   5.846   6.153
 9405POPC   GL256342  33.921   5.749   6.153
 9405POPC   C1A56343  33.770   5.875   6.453
 9405POPC   D2A56344  33.754   5.835   6.753
 9405POPC   C3A56345  33.778   5.902   7.053
 9405POPC   C4A56346  33.827   5.887   7.353
 9405POPC   C1B56347  34.028   5.671   6.453
 9405POPC   C2B56348  33.997   5.702   6.753
 9405POPC   C3B56349  34.009   5.710   7.053
 9405POPC   C4B56350  34.027   5.690   7.353
 9406POPC   NC356351   7.418  29.943   5.553
 9406POPC   PO456352   7.431  29.945   5.853
 9406POPC   GL156353   7.395  29.929   6.153
 9406POPC   GL256354   7.458  30.047   6.153
 9406POPC   C1A56355   7.426  29.924   6.453
 9406POPC   D2A56356   7.415  29.888   6.753
 9406POPC   C3A56357   7.469  29.952   7.053
 9406POPC   C4A56358   7.393  29.965   7.353
 9406POPC   C1B56359   7.508  30.185   6.453
 9406POPC   C2B56360   7.536  30.128   6.753
 9406POPC   C3B56361   7.521  30.153   7.053
 9406POPC   C4B56362   7.505  30.158   7.353
 9407POPC   NC356363  15.926   9.771   5.553
 9407POPC   PO456364  15.968   9.787   5.853
 9407POPC   GL156365  15.907   9.762   6.153
 9407POPC   GL256366  16.037   9.741   6.153
 9407POPC   C1A56367  15.944   9.719   6.453
 9407POPC   D2A56368  15.961   9.795   6.753
 9407POPC   C3A56369  15.948   9.777   7.053
 9407POPC   C4A56370  15.962   9.760   7.353
 9407POPC   C1B56371  16.233   9.801   6.453
 9407POPC   C2B56372  16.185   9.807   6.753
 9407POPC   C3B56373  16.215   9.758   7.053
 9407POPC   C4B56374  16.209   9.740   7.353
 9408POPC   NC356375   7.379  17.459   5.553
 9408POPC   PO456376   7.409  17.499   5.853
 9408POPC   GL156377   7.422  17.507   6.153
 9408POPC   GL256378   7.542  17.532   6.153
 9408POPC   C1A56379   7.418  17.459   6.453
 9408POPC   D2A56380   7.425  17.509   6.753
 9408POPC   C3A56381   7.385  17.544   7.053
 9408POPC   C4A56382   7.451  17.506   7.353
 9408POPC   C1B56383   7.621  17.596   6.453
 9408POPC   C2B56384   7.654  17.552   6.753
 9408POPC   C3B56385   7.686  17.531   7.053
 9408POPC   C4B56386   7.625  17.561   7.353
 9409POPC   NC356387  40.815  37.639   5.553
 9409POPC   PO456388  40.811  37.723   5.853
 9409POPC   GL156389  40.832  37.695   6.153
 9409POPC   GL256390  40.753  37.840   6.153
 9409POPC   C1A56391  40.818  37.718   6.453
 9409POPC   D2A56392  40.785  37.689   6.753
 9409POPC   C3A56393  40.775  37.679   7.053
 9409POPC   C4A56394  40.832  37.660   7.353
 9409POPC   C1B56395  40.719  37.939   6.453
 9409POPC   C2B56396  40.627  37.889   6.753
 9409POPC   C3B56397  40.673  37.891   7.053
 9409POPC   C4B56398  40.650  37.927   7.353
 9410POPC   NC356399  21.351   9.755   5.553
 9410POPC   PO456400  21.377   9.748   5.853
 9410POPC   GL156401  21.395   9.759   6.153
 9410POPC   GL256402  21.262   9.701   6.153
 9410POPC   C1A56403  21.351   9.764   6.453
 9410POPC   D2A56404  21.421   9.732   6.753
 9410POPC   C3A56405  21.390   9.713   7.053
 9410POPC   C4A56406  21.408   9.788   7.353
 9410POPC   C1B56407  21.170   9.659   6.453
 9410POPC   C2B56408  21.126   9.702   6.753
 9410POPC   C3B56409  21.122   9.637   7.053
 9410POPC   C4B56410  21.164   9.616   7.353
 9411POPC   NC356411  11.346   8.954   5.553
 9411POPC   PO456412  11.266   8.968   5.853
 9411POPC   GL156413  11.267   8.926   6.153
 9411POPC   GL256414  11.406   9.045   6.153
 9411POPC   C1A56415  11.306   9.020   6.453
 9411POPC   D2A56416  11.275   9.007   6.753
 9411POPC   C3A56417  11.330   8.962   7.053
 9411POPC   C4A56418  11.252   8.972   7.353
 9411POPC   C1B56419  11.520   9.012   6.453
 9411POPC   C2B56420  11.494   9.041   6.753
 9411POPC   C3B56421  11.560   9.060   7.053
 9411POPC   C4B56422  11.559   9.067   7.353
 9412POPC   NC356423  12.040  25.997   5.553
 9412POPC   PO456424  12.059  26.061   5.853
 9412POPC   GL156425  12.101  26.057   6.153
 9412POPC   GL256426  12.010  25.965   6.153
 9412POPC   C1A56427  12.058  26.005   6.453
 9412POPC   D2A56428  12.097  26.044   6.753
 9412POPC   C3A56429  12.101  26.079   7.053
 9412POPC   C4A56430  12.046  26.090   7.353
 9412POPC   C1B56431  11.898  25.854   6.453
 9412POPC   C2B56432  11.925  25.913   6.753
 9412POPC   C3B56433  11.918  25.910   7.053
 9412POPC   C4B56434  11.884  25.908   7.353
 9413POPC   NC356435   9.001   3.527   5.553
 9413POPC   PO456436   9.020   3.530   5.853
 9413POPC   GL156437   8.927   3.522   6.153
 9413POPC   GL256438   9.084   3.674   6.153
 9413POPC   C1A56439   9.003   3.505   6.453
 9413POPC   D2A56440   8.934   3.510   6.753
 9413POPC   C3A56441   8.975   3.518   7.053
 9413POPC   C4A56442   9.022   3.544   7.353
 9413POPC   C1B56443   9.115   3.731   6.453
 9413POPC   C2B56444   9.157   3.728   6.753
 9413POPC   C3B56445   9.199   3.719   7.053
 9413POPC   C4B56446   9.118   3.688   7.353
 9414POPC   NC356447  17.549  12.040   5.553
 9414POPC   PO456448  17.460  12.059   5.853
 9414POPC   GL156449  17.488  12.052   6.153
 9414POPC   GL256450  17.519  12.225   6.153
 9414POPC   C1A56451  17.471  12.070   6.453
 9414POPC   D2A56452  17.544  12.052   6.753
 9414POPC   C3A56453  17.528  12.121   7.053
 9414POPC   C4A56454  17.504  12.053   7.353
 9414POPC   C1B56455  17.465  12.300   6.453
 9414POPC   C2B56456  17.476  12.276   6.753
 9414POPC   C3B56457  17.506  12.315   7.053
 9414POPC   C4B56458  17.518  12.360   7.353
 9415POPC   NC356459  39.193  33.830   5.553
 9415POPC   PO456460  39.275  33.782   5.853
 9415POPC   GL156461  39.274  33.781   6.153
 9415POPC   GL256462  39.140  33.953   6.153
 9415POPC   C1A56463  39.277  33.813   6.453
 9415POPC   D2A56464  39.221  33.814   6.753
 9415POPC   C3A56465  39.201  33.833   7.053
 9415POPC   C4A56466  39.252  33.837   7.353
 9415POPC   C1B56467  39.160  34.042   6.453
 9415POPC   C2B56468  39.130  34.062   6.753
 9415POPC   C3B56469  39.098  34.067   7.053
 9415POPC   C4B56470  39.164  34.064   7.353
 9416POPC   NC356471  23.711   9.019   5.553
 9416POPC   PO456472  23.692   8.948   5.853
 9416POPC   GL156473  23.666   8.962   6.153
 9416POPC   GL256474  23.815   8.923   6.153
 9416POPC   C1A56475  23.730   8.945   6.453
 9416POPC   D2A56476  23.727   8.984   6.753
 9416POPC   C3A56477  23.753   8.978   7.053
 9416POPC   C4A56478  23.743   9.018   7.353
 9416POPC   C1B56479  24.012   8.962   6.453
 9416POPC   C2B56480  23.989   8.957   6.753
 9416POPC   C3B56481  23.986   8.995   7.053
 9416POPC   C4B56482  23.994   8.984   7.353
 9417POPC   NC356483  34.583  33.840   5.553
 9417POPC   PO456484  34.596  33.834   5.853
 9417POPC   GL156485  34.593  33.824   6.153
 9417POPC   GL256486  34.495  33.725   6.153
 9417POPC   C1A56487  34.587  33.828   6.453
 9417POPC   D2A56488  34.583  33.772   6.753
 9417POPC   C3A56489  34.541  33.766   7.053
 9417POPC   C4A56490  34.607  33.765   7.353
 9417POPC   C1B56491  34.499  33.617   6.453
 9417POPC   C2B56492  34.420  33.572   6.753
 9417POPC   C3B56493  34.484  33.620   7.053
 9417POPC   C4B56494  34.451  33.607   7.353
 9418POPC   NC356495   1.979  18.331   5.553
 9418POPC   PO456496   1.998  18.304   5.853
 9418POPC   GL156497   1.992  18.280   6.153
 9418POPC   GL256498   1.916  18.193   6.153
 9418POPC   C1A56499   2.003  18.311   6.453
 9418POPC   D2A56500   2.035  18.316   6.753
 9418POPC   C3A56501   1.985  18.305   7.053
 9418POPC   C4A56502   2.027  18.290   7.353
 9418POPC   C1B56503   1.835  18.027   6.453
 9418POPC   C2B56504   1.869  18.060   6.753
 9418POPC   C3B56505   1.885  18.083   7.053
 9418POPC   C4B56506   1.906  18.099   7.353
 9419POPC   NC356507  23.721  11.277   5.553
 9419POPC   PO456508  23.739  11.290   5.853
 9419POPC   GL156509  23.721  11.290   6.153
 9419POPC   GL256510  23.586  11.177   6.153
 9419POPC   C1A56511  23.673  11.258   6.453
 9419POPC   D2A56512  23.689  11.308   6.753
 9419POPC   C3A56513  23.670  11.277   7.053
 9419POPC   C4A56514  23.751  11.327   7.353
 9419POPC   C1B56515  23.549  11.152   6.453
 9419POPC   C2B56516  23.563  11.101   6.753
 9419POPC   C3B56517  23.503  11.127   7.053
 9419POPC   C4B56518  23.575  11.145   7.353
 9420POPC   NC356519  28.384   5.858   5.553
 9420POPC   PO456520  28.343   5.847   5.853
 9420POPC   GL156521  28.404   5.862   6.153
 9420POPC   GL256522  28.234   5.841   6.153
 9420POPC   C1A56523  28.396   5.857   6.453
 9420POPC   D2A56524  28.354   5.855   6.753
 9420POPC   C3A56525  28.387   5.885   7.053
 9420POPC   C4A56526  28.413   5.909   7.353
 9420POPC   C1B56527  28.166   5.819   6.453
 9420POPC   C2B56528  28.150   5.831   6.753
 9420POPC   C3B56529  28.130   5.854   7.053
 9420POPC   C4B56530  28.144   5.835   7.353
 9421POPC   NC356531   8.162  13.640   5.553
 9421POPC   PO456532   8.227  13.596   5.853
 9421POPC   GL156533   8.154  13.650   6.153
 9421POPC   GL256534   8.181  13.491   6.153
 9421POPC   C1A56535   8.224  13.593   6.453
 9421POPC   D2A56536   8.148  13.613   6.753
 9421POPC   C3A56537   8.148  13.581   7.053
 9421POPC   C4A56538   8.202  13.610   7.353
 9421POPC   C1B56539   8.078  13.406   6.453
 9421POPC   C2B56540   8.053  13.392   6.753
 9421POPC   C3B56541   8.053  13.410   7.053
 9421POPC   C4B56542   8.055  13.410   7.353
 9422POPC   NC356543   2.769  39.988   5.553
 9422POPC   PO456544   2.789  40.029   5.853
 9422POPC   GL156545   2.798  39.994   6.153
 9422POPC   GL256546   2.858  40.117   6.153
 9422POPC   C1A56547   2.798  39.984   6.453
 9422POPC   D2A56548   2.815  40.037   6.753
 9422POPC   C3A56549   2.728  39.962   7.053
 9422POPC   C4A56550   2.722  40.055   7.353
 9422POPC   C1B56551   2.918  40.138   6.453
 9422POPC   C2B56552   3.013  40.204   6.753
 9422POPC   C3B56553   2.930  40.191   7.053
 9422POPC   C4B56554   2.996  40.200   7.353
 9423POPC   NC356555   6.638   5.853   5.553
 9423POPC   PO456556   6.677   5.907   5.853
 9423POPC   GL156557   6.626   5.900   6.153
 9423POPC   GL256558   6.498   5.854   6.153
 9423POPC   C1A56559   6.610   5.886   6.453
 9423POPC   D2A56560   6.665   5.869   6.753
 9423POPC   C3A56561   6.635   5.907   7.053
 9423POPC   C4A56562   6.671   5.890   7.353
 9423POPC   C1B56563   6.464   5.763   6.453
 9423POPC   C2B56564   6.457   5.762   6.753
 9423POPC   C3B56565   6.455   5.765   7.053
 9423POPC   C4B56566   6.439   5.696   7.353
 9424POPC   NC356567   1.221  16.734   5.553
 9424POPC   PO456568   1.193  16.773   5.853
 9424POPC   GL156569   1.203  16.697   6.153
 9424POPC   GL256570   1.231  16.808   6.153
 9424POPC   C1A56571   1.254  16.724   6.453
 9424POPC   D2A56572   1.221  16.735   6.753
 9424POPC   C3A56573   1.263  16.743   7.053
 9424POPC   C4A56574   1.233  16.756   7.353
 9424POPC   C1B56575   1.157  16.953   6.453
 9424POPC   C2B56576   1.157  16.993   6.753
 9424POPC   C3B56577   1.200  16.951   7.053
 9424POPC   C4B56578   1.192  17.010   7.353
 9425POPC   NC356579  10.507  20.572   5.553
 9425POPC   PO456580  10.488  20.618   5.853
 9425POPC   GL156581  10.567  20.636   6.153
 9425POPC   GL256582  10.386  20.587   6.153
 9425POPC   C1A56583  10.546  20.609   6.453
 9425POPC   D2A56584  10.530  20.630   6.753
 9425POPC   C3A56585  10.509  20.617   7.053
 9425POPC   C4A56586  10.532  20.591   7.353
 9425POPC   C1B56587  10.351  20.506   6.453
 9425POPC   C2B56588  10.342  20.501   6.753
 9425POPC   C3B56589  10.280  20.492   7.053
 9425POPC   C4B56590  10.327  20.524   7.353
 9426POPC   NC356591  37.691   5.916   5.553
 9426POPC   PO456592  37.681   5.848   5.853
 9426POPC   GL156593  37.672   5.850   6.153
 9426POPC   GL256594  37.749   5.744   6.153
 9426POPC   C1A56595  37.689   5.852   6.453
 9426POPC   D2A56596  37.718   5.853   6.753
 9426POPC   C3A56597  37.717   5.854   7.053
 9426POPC   C4A56598  37.718   5.912   7.353
 9426POPC   C1B56599  37.878   5.715   6.453
 9426POPC   C2B56600  37.834   5.689   6.753
 9426POPC   C3B56601  37.871   5.686   7.053
 9426POPC   C4B56602  37.835   5.705   7.353
 9427POPC   NC356603   1.263  26.795   5.553
 9427POPC   PO456604   1.222  26.800   5.853
 9427POPC   GL156605   1.176  26.822   6.153
 9427POPC   GL256606   1.333  26.919   6.153
 9427POPC   C1A56607   1.232  26.836   6.453
 9427POPC   D2A56608   1.203  26.829   6.753
 9427POPC   C3A56609   1.213  26.807   7.053
 9427POPC   C4A56610   1.226  26.832   7.353
 9427POPC   C1B56611   1.375  26.940   6.453
 9427POPC   C2B56612   1.473  26.927   6.753
 9427POPC   C3B56613   1.406  26.998   7.053
 9427POPC   C4B56614   1.428  26.935   7.353
 9428POPC   NC356615  25.275   1.164   5.553
 9428POPC   PO456616  25.310   1.252   5.853
 9428POPC   GL156617  25.240   1.191   6.153
 9428POPC   GL256618  25.352   1.171   6.153
 9428POPC   C1A56619  25.227   1.201   6.453
 9428POPC   D2A56620  25.291   1.196   6.753
 9428POPC   C3A56621  25.295   1.183   7.053
 9428POPC   C4A56622  25.233   1.172   7.353
 9428POPC   C1B56623  25.487   1.045   6.453
 9428POPC   C2B56624  25.524   1.056   6.753
 9428POPC   C3B56625  25.450   1.072   7.053
 9428POPC   C4B56626  25.470   1.044   7.353
 9429POPC   NC356627   1.255   1.188   5.553
 9429POPC   PO456628   1.201   1.239   5.853
 9429POPC   GL156629   1.257   1.235   6.153
 9429POPC   GL256630   1.144   1.139   6.153
 9429POPC   C1A56631   1.255   1.173   6.453
 9429POPC   D2A56632   1.226   1.177   6.753
 9429POPC   C3A56633   1.180   1.187   7.053
 9429POPC   C4A56634   1.249   1.235   7.353
 9429POPC   C1B56635   0.966   1.145   6.453
 9429POPC   C2B56636   1.017   1.104   6.753
 9429POPC   C3B56637   1.035   1.095   7.053
 9429POPC   C4B56638   0.959   1.107   7.353
 9430POPC   NC356639  31.440  26.776   5.553
 9430POPC   PO456640  31.448  26.773   5.853
 9430POPC   GL156641  31.504  26.768   6.153
 9430POPC   GL256642  31.567  26.727   6.153
 9430POPC   C1A56643  31.439  26.812   6.453
 9430POPC   D2A56644  31.473  26.787   6.753
 9430POPC   C3A56645  31.492  26.845   7.053
 9430POPC   C4A56646  31.522  26.779   7.353
 9430POPC   C1B56647  31.570  26.585   6.453
 9430POPC   C2B56648  31.581  26.584   6.753
 9430POPC   C3B56649  31.542  26.576   7.053
 9430POPC   C4B56650  31.588  26.551   7.353
 9431POPC   NC356651   4.315  29.183   5.553
 9431POPC   PO456652   4.313  29.173   5.853
 9431POPC   GL156653   4.362  29.107   6.153
 9431POPC   GL256654   4.338  29.235   6.153
 9431POPC   C1A56655   4.365  29.119   6.453
 9431POPC   D2A56656   4.323  29.188   6.753
 9431POPC   C3A56657   4.347  29.128   7.053
 9431POPC   C4A56658   4.358  29.109   7.353
 9431POPC   C1B56659   4.418  29.382   6.453
 9431POPC   C2B56660   4.410  29.381   6.753
 9431POPC   C3B56661   4.468  29.380   7.053
 9431POPC   C4B56662   4.442  29.372   7.353
 9432POPC   NC356663  41.523  44.707   5.553
 9432POPC   PO456664  41.530  44.657   5.853
 9432POPC   GL156665  41.578  44.676   6.153
 9432POPC   GL256666  41.441  44.717   6.153
 9432POPC   C1A56667  41.574  44.639   6.453
 9432POPC   D2A56668  41.579  44.640   6.753
 9432POPC   C3A56669  41.597  44.624   7.053
 9432POPC   C4A56670  41.594  44.652   7.353
 9432POPC   C1B56671  41.326  44.707   6.453
 9432POPC   C2B56672  41.342  44.785   6.753
 9432POPC   C3B56673  41.359  44.725   7.053
 9432POPC   C4B56674  41.323  44.785   7.353
 9433POPC   NC356675  10.556   9.011   5.553
 9433POPC   PO456676  10.557   9.007   5.853
 9433POPC   GL156677  10.525   8.983   6.153
 9433POPC   GL256678  10.475   8.845   6.153
 9433POPC   C1A56679  10.546   9.011   6.453
 9433POPC   D2A56680  10.490   8.979   6.753
 9433POPC   C3A56681  10.507   8.944   7.053
 9433POPC   C4A56682  10.541   8.934   7.353
 9433POPC   C1B56683  10.462   8.787   6.453
 9433POPC   C2B56684  10.477   8.700   6.753
 9433POPC   C3B56685  10.432   8.770   7.053
 9433POPC   C4B56686  10.387   8.766   7.353
 9434POPC   NC356687  25.998  15.166   5.553
 9434POPC   PO456688  26.081  15.136   5.853
 9434POPC   GL156689  26.014  15.202   6.153
 9434POPC   GL256690  26.085  15.327   6.153
 9434POPC   C1A56691  26.007  15.191   6.453
 9434POPC   D2A56692  26.052  15.226   6.753
 9434POPC   C3A56693  26.048  15.222   7.053
 9434POPC   C4A56694  26.041  15.204   7.353
 9434POPC   C1B56695  26.147  15.439   6.453
 9434POPC   C2B56696  26.135  15.353   6.753
 9434POPC   C3B56697  26.125  15.372   7.053
 9434POPC   C4B56698  26.156  15.376   7.353
 9435POPC   NC356699  35.365  27.605   5.553
 9435POPC   PO456700  35.307  27.630   5.853
 9435POPC   GL156701  35.376  27.603   6.153
 9435POPC   GL256702  35.312  27.716   6.153
 9435POPC   C1A56703  35.322  27.614   6.453
 9435POPC   D2A56704  35.337  27.564   6.753
 9435POPC   C3A56705  35.335  27.573   7.053
 9435POPC   C4A56706  35.399  27.590   7.353
 9435POPC   C1B56707  35.335  27.874   6.453
 9435POPC   C2B56708  35.335  27.875   6.753
 9435POPC   C3B56709  35.349  27.817   7.053
 9435POPC   C4B56710  35.274  27.826   7.353
 9436POPC   NC356711  25.291  43.916   5.553
 9436POPC   PO456712  25.261  43.870   5.853
 9436POPC   GL156713  25.302  43.910   6.153
 9436POPC   GL256714  25.111  43.877   6.153
 9436POPC   C1A56715  25.261  43.878   6.453
 9436POPC   D2A56716  25.235  43.843   6.753
 9436POPC   C3A56717  25.242  43.846   7.053
 9436POPC   C4A56718  25.238  43.855   7.353
 9436POPC   C1B56719  24.997  43.750   6.453
 9436POPC   C2B56720  25.077  43.805   6.753
 9436POPC   C3B56721  25.059  43.798   7.053
 9436POPC   C4B56722  25.087  43.775   7.353
 9437POPC   NC356723  32.249  17.534   5.553
 9437POPC   PO456724  32.258  17.515   5.853
 9437POPC   GL156725  32.207  17.530   6.153
 9437POPC   GL256726  32.113  17.423   6.153
 9437POPC   C1A56727  32.269  17.540   6.453
 9437POPC   D2A56728  32.288  17.552   6.753
 9437POPC   C3A56729  32.247  17.489   7.053
 9437POPC   C4A56730  32.218  17.501   7.353
 9437POPC   C1B56731  32.033  17.429   6.453
 9437POPC   C2B56732  32.059  17.434   6.753
 9437POPC   C3B56733  32.047  17.387   7.053
 9437POPC   C4B56734  32.057  17.442   7.353
 9438POPC   NC356735  15.178   5.130   5.553
 9438POPC   PO456736  15.187   5.085   5.853
 9438POPC   GL156737  15.144   5.078   6.153
 9438POPC   GL256738  15.132   5.259   6.153
 9438POPC   C1A56739  15.138   5.078   6.453
 9438POPC   D2A56740  15.171   5.111   6.753
 9438POPC   C3A56741  15.213   5.114   7.053
 9438POPC   C4A56742  15.208   5.080   7.353
 9438POPC   C1B56743  15.160   5.365   6.453
 9438POPC   C2B56744  15.096   5.352   6.753
 9438POPC   C3B56745  15.162   5.307   7.053
 9438POPC   C4B56746  15.190   5.321   7.353
 9439POPC   NC356747  22.140  39.183   5.553
 9439POPC   PO456748  22.128  39.259   5.853
 9439POPC   GL156749  22.162  39.202   6.153
 9439POPC   GL256750  22.287  39.140   6.153
 9439POPC   C1A56751  22.143  39.262   6.453
 9439POPC   D2A56752  22.189  39.197   6.753
 9439POPC   C3A56753  22.114  39.264   7.053
 9439POPC   C4A56754  22.123  39.197   7.353
 9439POPC   C1B56755  22.345  39.080   6.453
 9439POPC   C2B56756  22.408  39.087   6.753
 9439POPC   C3B56757  22.390  39.077   7.053
 9439POPC   C4B56758  22.420  39.070   7.353
 9440POPC   NC356759  36.892  14.446   5.553
 9440POPC   PO456760  36.924  14.416   5.853
 9440POPC   GL156761  36.907  14.373   6.153
 9440POPC   GL256762  36.841  14.478   6.153
 9440POPC   C1A56763  36.867  14.427   6.453
 9440POPC   D2A56764  36.883  14.413   6.753
 9440POPC   C3A56765  36.901  14.413   7.053
 9440POPC   C4A56766  36.854  14.447   7.353
 9440POPC   C1B56767  36.718  14.587   6.453
 9440POPC   C2B56768  36.759  14.629   6.753
 9440POPC   C3B56769  36.807  14.642   7.053
 9440POPC   C4B56770  36.728  14.564   7.353
 9441POPC   NC356771  39.235  22.184   5.553
 9441POPC   PO456772  39.255  22.178   5.853
 9441POPC   GL156773  39.248  22.162   6.153
 9441POPC   GL256774  39.161  22.030   6.153
 9441POPC   C1A56775  39.259  22.151   6.453
 9441POPC   D2A56776  39.194  22.125   6.753
 9441POPC   C3A56777  39.203  22.124   7.053
 9441POPC   C4A56778  39.213  22.178   7.353
 9441POPC   C1B56779  39.142  21.947   6.453
 9441POPC   C2B56780  39.111  21.898   6.753
 9441POPC   C3B56781  39.115  21.954   7.053
 9441POPC   C4B56782  39.104  21.918   7.353
 9442POPC   NC356783  26.793  15.931   5.553
 9442POPC   PO456784  26.844  15.992   5.853
 9442POPC   GL156785  26.831  15.925   6.153
 9442POPC   GL256786  26.812  16.032   6.153
 9442POPC   C1A56787  26.840  15.945   6.453
 9442POPC   D2A56788  26.807  15.966   6.753
 9442POPC   C3A56789  26.768  15.909   7.053
 9442POPC   C4A56790  26.818  15.994   7.353
 9442POPC   C1B56791  26.721  16.221   6.453
 9442POPC   C2B56792  26.707  16.145   6.753
 9442POPC   C3B56793  26.761  16.188   7.053
 9442POPC   C4B56794  26.756  16.175   7.353
 9443POPC   NC356795  22.959  29.145   5.553
 9443POPC   PO456796  22.928  29.121   5.853
 9443POPC   GL156797  22.965  29.138   6.153
 9443POPC   GL256798  23.101  29.083   6.153
 9443POPC   C1A56799  22.902  29.109   6.453
 9443POPC   D2A56800  22.965  29.117   6.753
 9443POPC   C3A56801  22.967  29.177   7.053
 9443POPC   C4A56802  22.937  29.180   7.353
 9443POPC   C1B56803  23.141  29.094   6.453
 9443POPC   C2B56804  23.170  29.077   6.753
 9443POPC   C3B56805  23.184  29.119   7.053
 9443POPC   C4B56806  23.208  29.167   7.353
 9444POPC   NC356807  30.651  15.228   5.553
 9444POPC   PO456808  30.737  15.207   5.853
 9444POPC   GL156809  30.657  15.160   6.153
 9444POPC   GL256810  30.717  15.253   6.153
 9444POPC   C1A56811  30.708  15.133   6.453
 9444POPC   D2A56812  30.713  15.216   6.753
 9444POPC   C3A56813  30.706  15.167   7.053
 9444POPC   C4A56814  30.709  15.131   7.353
 9444POPC   C1B56815  30.818  15.445   6.453
 9444POPC   C2B56816  30.776  15.348   6.753
 9444POPC   C3B56817  30.793  15.390   7.053
 9444POPC   C4B56818  30.815  15.418   7.353
 9445POPC   NC356819  39.194   1.207   5.553
 9445POPC   PO456820  39.268   1.197   5.853
 9445POPC   GL156821  39.184   1.199   6.153
 9445POPC   GL256822  39.234   1.109   6.153
 9445POPC   C1A56823  39.196   1.238   6.453
 9445POPC   D2A56824  39.240   1.237   6.753
 9445POPC   C3A56825  39.230   1.218   7.053
 9445POPC   C4A56826  39.255   1.258   7.353
 9445POPC   C1B56827  39.349   0.994   6.453
 9445POPC   C2B56828  39.365   0.983   6.753
 9445POPC   C3B56829  39.311   0.967   7.053
 9445POPC   C4B56830  39.296   1.027   7.353
 9446POPC   NC356831   5.905  41.560   5.553
 9446POPC   PO456832   5.857  41.547   5.853
 9446POPC   GL156833   5.821  41.558   6.153
 9446POPC   GL256834   5.988  41.653   6.153
 9446POPC   C1A56835   5.898  41.521   6.453
 9446POPC   D2A56836   5.905  41.573   6.753
 9446POPC   C3A56837   5.831  41.586   7.053
 9446POPC   C4A56838   5.881  41.515   7.353
 9446POPC   C1B56839   6.068  41.744   6.453
 9446POPC   C2B56840   6.031  41.722   6.753
 9446POPC   C3B56841   6.008  41.680   7.053
 9446POPC   C4B56842   6.079  41.751   7.353
 9447POPC   NC356843  12.061   8.183   5.553
 9447POPC   PO456844  12.093   8.154   5.853
 9447POPC   GL156845  12.055   8.188   6.153
 9447POPC   GL256846  12.146   8.032   6.153
 9447POPC   C1A56847  12.094   8.184   6.453
 9447POPC   D2A56848  12.054   8.217   6.753
 9447POPC   C3A56849  12.120   8.187   7.053
 9447POPC   C4A56850  12.035   8.220   7.353
 9447POPC   C1B56851  12.104   7.972   6.453
 9447POPC   C2B56852  12.173   7.998   6.753
 9447POPC   C3B56853  12.136   7.937   7.053
 9447POPC   C4B56854  12.134   7.987   7.353
 9448POPC   NC356855  29.941  11.251   5.553
 9448POPC   PO456856  29.919  11.297   5.853
 9448POPC   GL156857  29.888  11.299   6.153
 9448POPC   GL256858  29.883  11.409   6.153
 9448POPC   C1A56859  29.933  11.333   6.453
 9448POPC   D2A56860  29.900  11.313   6.753
 9448POPC   C3A56861  29.893  11.283   7.053
 9448POPC   C4A56862  29.929  11.256   7.353
 9448POPC   C1B56863  29.864  11.579   6.453
 9448POPC   C2B56864  29.828  11.505   6.753
 9448POPC   C3B56865  29.874  11.500   7.053
 9448POPC   C4B56866  29.879  11.530   7.353
 9449POPC   NC356867  18.249  44.706   5.553
 9449POPC   PO456868  18.242  44.641   5.853
 9449POPC   GL156869  18.236  44.662   6.153
 9449POPC   GL256870  18.142  44.665   6.153
 9449POPC   C1A56871  18.241  44.661   6.453
 9449POPC   D2A56872  18.238  44.704   6.753
 9449POPC   C3A56873  18.270  44.696   7.053
 9449POPC   C4A56874  18.261  44.686   7.353
 9449POPC   C1B56875  18.095  44.797   6.453
 9449POPC   C2B56876  18.063  44.790   6.753
 9449POPC   C3B56877  18.042  44.763   7.053
 9449POPC   C4B56878  18.045  44.733   7.353
 9450POPC   NC356879   1.995  15.199   5.553
 9450POPC   PO456880   1.999  15.166   5.853
 9450POPC   GL156881   1.951  15.140   6.153
 9450POPC   GL256882   1.978  15.351   6.153
 9450POPC   C1A56883   1.988  15.178   6.453
 9450POPC   D2A56884   1.952  15.174   6.753
 9450POPC   C3A56885   2.031  15.139   7.053
 9450POPC   C4A56886   1.954  15.131   7.353
 9450POPC   C1B56887   2.007  15.431   6.453
 9450POPC   C2B56888   2.049  15.412   6.753
 9450POPC   C3B56889   2.063  15.454   7.053
 9450POPC   C4B56890   2.043  15.458   7.353
 9451POPC   NC356891  21.430  31.446   5.553
 9451POPC   PO456892  21.360  31.463   5.853
 9451POPC   GL156893  21.436  31.483   6.153
 9451POPC   GL256894  21.275  31.430   6.153
 9451POPC   C1A56895  21.422  31.515   6.453
 9451POPC   D2A56896  21.398  31.471   6.753
 9451POPC   C3A56897  21.391  31.429   7.053
 9451POPC   C4A56898  21.381  31.519   7.353
 9451POPC   C1B56899  21.214  31.370   6.453
 9451POPC   C2B56900  21.180  31.383   6.753
 9451POPC   C3B56901  21.194  31.334   7.053
 9451POPC   C4B56902  21.175  31.380   7.353
 9452POPC   NC356903  37.684  26.062   5.553
 9452POPC   PO456904  37.631  26.024   5.853
 9452POPC   GL156905  37.714  26.012   6.153
 9452POPC   GL256906  37.680  26.119   6.153
 9452POPC   C1A56907  37.691  26.077   6.453
 9452POPC   D2A56908  37.630  26.079   6.753
 9452POPC   C3A56909  37.634  26.088   7.053
 9452POPC   C4A56910  37.691  26.001   7.353
 9452POPC   C1B56911  37.717  26.335   6.453
 9452POPC   C2B56912  37.696  26.259   6.753
 9452POPC   C3B56913  37.735  26.280   7.053
 9452POPC   C4B56914  37.700  26.265   7.353
 9453POPC   NC356915   9.751  41.603   5.553
 9453POPC   PO456916   9.758  41.607   5.853
 9453POPC   GL156917   9.729  41.589   6.153
 9453POPC   GL256918   9.668  41.486   6.153
 9453POPC   C1A56919   9.776  41.568   6.453
 9453POPC   D2A56920   9.711  41.565   6.753
 9453POPC   C3A56921   9.791  41.548   7.053
 9453POPC   C4A56922   9.789  41.604   7.353
 9453POPC   C1B56923   9.601  41.404   6.453
 9453POPC   C2B56924   9.588  41.420   6.753
 9453POPC   C3B56925   9.569  41.339   7.053
 9453POPC   C4B56926   9.553  41.363   7.353
 9454POPC   NC356927  36.896  22.139   5.553
 9454POPC   PO456928  36.944  22.153   5.853
 9454POPC   GL156929  36.871  22.152   6.153
 9454POPC   GL256930  36.962  22.212   6.153
 9454POPC   C1A56931  36.893  22.183   6.453
 9454POPC   D2A56932  36.941  22.174   6.753
 9454POPC   C3A56933  36.857  22.122   7.053
 9454POPC   C4A56934  36.920  22.131   7.353
 9454POPC   C1B56935  37.129  22.307   6.453
 9454POPC   C2B56936  37.095  22.279   6.753
 9454POPC   C3B56937  37.081  22.328   7.053
 9454POPC   C4B56938  37.099  22.320   7.353
 9455POPC   NC356939  31.461  32.257   5.553
 9455POPC   PO456940  31.431  32.203   5.853
 9455POPC   GL156941  31.485  32.213   6.153
 9455POPC   GL256942  31.313  32.286   6.153
 9455POPC   C1A56943  31.516  32.244   6.453
 9455POPC   D2A56944  31.455  32.280   6.753
 9455POPC   C3A56945  31.471  32.215   7.053
 9455POPC   C4A56946  31.515  32.258   7.353
 9455POPC   C1B56947  31.246  32.389   6.453
 9455POPC   C2B56948  31.224  32.388   6.753
 9455POPC   C3B56949  31.231  32.333   7.053
 9455POPC   C4B56950  31.261  32.388   7.353
 9456POPC   NC356951   6.636  12.831   5.553
 9456POPC   PO456952   6.653  12.847   5.853
 9456POPC   GL156953   6.649  12.847   6.153
 9456POPC   GL256954   6.733  12.770   6.153
 9456POPC   C1A56955   6.636  12.818   6.453
 9456POPC   D2A56956   6.686  12.884   6.753
 9456POPC   C3A56957   6.637  12.804   7.053
 9456POPC   C4A56958   6.675  12.834   7.353
 9456POPC   C1B56959   6.861  12.719   6.453
 9456POPC   C2B56960   6.825  12.677   6.753
 9456POPC   C3B56961   6.799  12.633   7.053
 9456POPC   C4B56962   6.786  12.683   7.353
 9457POPC   NC356963  30.731  26.846   5.553
 9457POPC   PO456964  30.727  26.769   5.853
 9457POPC   GL156965  30.676  26.826   6.153
 9457POPC   GL256966  30.799  26.714   6.153
 9457POPC   C1A56967  30.715  26.817   6.453
 9457POPC   D2A56968  30.679  26.861   6.753
 9457POPC   C3A56969  30.715  26.863   7.053
 9457POPC   C4A56970  30.742  26.852   7.353
 9457POPC   C1B56971  30.827  26.638   6.453
 9457POPC   C2B56972  30.802  26.559   6.753
 9457POPC   C3B56973  30.805  26.635   7.053
 9457POPC   C4B56974  30.815  26.554   7.353
 9458POPC   NC356975   8.932   8.995   5.553
 9458POPC   PO456976   9.002   9.007   5.853
 9458POPC   GL156977   9.022   9.010   6.153
 9458POPC   GL256978   8.893   8.935   6.153
 9458POPC   C1A56979   8.939   9.015   6.453
 9458POPC   D2A56980   9.011   8.996   6.753
 9458POPC   C3A56981   9.017   9.011   7.053
 9458POPC   C4A56982   9.004   8.926   7.353
 9458POPC   C1B56983   8.762   8.948   6.453
 9458POPC   C2B56984   8.755   8.935   6.753
 9458POPC   C3B56985   8.748   8.957   7.053
 9458POPC   C4B56986   8.745   8.937   7.353
 9459POPC   NC356987  36.902   1.978   5.553
 9459POPC   PO456988  36.948   1.955   5.853
 9459POPC   GL156989  36.863   1.972   6.153
 9459POPC   GL256990  36.837   2.026   6.153
 9459POPC   C1A56991  36.936   1.994   6.453
 9459POPC   D2A56992  36.931   1.942   6.753
 9459POPC   C3A56993  36.874   1.983   7.053
 9459POPC   C4A56994  36.920   1.956   7.353
 9459POPC   C1B56995  36.685   2.118   6.453
 9459POPC   C2B56996  36.653   2.076   6.753
 9459POPC   C3B56997  36.634   2.116   7.053
 9459POPC   C4B56998  36.671   2.059   7.353
 9460POPC   NC356999  29.169  18.238   5.553
 9460POPC   PO457000  29.108  18.305   5.853
 9460POPC   GL157001  29.192  18.320   6.153
 9460POPC   GL257002  29.189  18.415   6.153
 9460POPC   C1A57003  29.135  18.302   6.453
 9460POPC   D2A57004  29.180  18.241   6.753
 9460POPC   C3A57005  29.155  18.260   7.053
 9460POPC   C4A57006  29.111  18.253   7.353
 9460POPC   C1B57007  29.188  18.564   6.453
 9460POPC   C2B57008  29.243  18.496   6.753
 9460POPC   C3B57009  29.265  18.480   7.053
 9460POPC   C4B57010  29.250  18.532   7.353
 9461POPC   NC357011  39.980  43.847   5.553
 9461POPC   PO457012  39.970  43.902   5.853
 9461POPC   GL157013  40.054  43.881   6.153
 9461POPC   GL257014  39.971  43.762   6.153
 9461POPC   C1A57015  39.984  43.934   6.453
 9461POPC   D2A57016  39.974  43.888   6.753
 9461POPC   C3A57017  39.987  43.915   7.053
 9461POPC   C4A57018  39.981  43.876   7.353
 9461POPC   C1B57019  40.069  43.641   6.453
 9461POPC   C2B57020  40.002  43.672   6.753
 9461POPC   C3B57021  40.053  43.587   7.053
 9461POPC   C4B57022  40.027  43.650   7.353
 9462POPC   NC357023  13.646  14.427   5.553
 9462POPC   PO457024  13.631  14.418   5.853
 9462POPC   GL157025  13.668  14.370   6.153
 9462POPC   GL257026  13.504  14.368   6.153
 9462POPC   C1A57027  13.624  14.368   6.453
 9462POPC   D2A57028  13.649  14.389   6.753
 9462POPC   C3A57029  13.619  14.405   7.053
 9462POPC   C4A57030  13.590  14.359   7.353
 9462POPC   C1B57031  13.398  14.366   6.453
 9462POPC   C2B57032  13.427  14.434   6.753
 9462POPC   C3B57033  13.383  14.418   7.053
 9462POPC   C4B57034  13.374  14.376   7.353
 9463POPC   NC357035  34.571   6.595   5.553
 9463POPC   PO457036  34.608   6.648   5.853
 9463POPC   GL157037  34.593   6.642   6.153
 9463POPC   GL257038  34.579   6.506   6.153
 9463POPC   C1A57039  34.618   6.607   6.453
 9463POPC   D2A57040  34.586   6.673   6.753
 9463POPC   C3A57041  34.556   6.627   7.053
 9463POPC   C4A57042  34.614   6.654   7.353
 9463POPC   C1B57043  34.640   6.435   6.453
 9463POPC   C2B57044  34.615   6.366   6.753
 9463POPC   C3B57045  34.568   6.407   7.053
 9463POPC   C4B57046  34.581   6.401   7.353
 9464POPC   NC357047   6.667  33.808   5.553
 9464POPC   PO457048   6.646  33.826   5.853
 9464POPC   GL157049   6.617  33.822   6.153
 9464POPC   GL257050   6.764  33.842   6.153
 9464POPC   C1A57051   6.635  33.847   6.453
 9464POPC   D2A57052   6.692  33.806   6.753
 9464POPC   C3A57053   6.599  33.756   7.053
 9464POPC   C4A57054   6.620  33.835   7.353
 9464POPC   C1B57055   6.796  34.032   6.453
 9464POPC   C2B57056   6.826  33.955   6.753
 9464POPC   C3B57057   6.788  33.996   7.053
 9464POPC   C4B57058   6.837  33.976   7.353
 9465POPC   NC357059  38.470  33.841   5.553
 9465POPC   PO457060  38.477  33.764   5.853
 9465POPC   GL157061  38.420  33.827   6.153
 9465POPC   GL257062  38.529  33.725   6.153
 9465POPC   C1A57063  38.409  33.833   6.453
 9465POPC   D2A57064  38.463  33.839   6.753
 9465POPC   C3A57065  38.453  33.792   7.053
 9465POPC   C4A57066  38.431  33.788   7.353
 9465POPC   C1B57067  38.478  33.535   6.453
 9465POPC   C2B57068  38.541  33.559   6.753
 9465POPC   C3B57069  38.492  33.567   7.053
 9465POPC   C4B57070  38.529  33.533   7.353
 9466POPC   NC357071  20.600  36.892   5.553
 9466POPC   PO457072  20.602  36.906   5.853
 9466POPC   GL157073  20.641  36.905   6.153
 9466POPC   GL257074  20.650  37.040   6.153
 9466POPC   C1A57075  20.660  36.926   6.453
 9466POPC   D2A57076  20.651  36.869   6.753
 9466POPC   C3A57077  20.603  36.887   7.053
 9466POPC   C4A57078  20.593  36.869   7.353
 9466POPC   C1B57079  20.561  37.199   6.453
 9466POPC   C2B57080  20.656  37.136   6.753
 9466POPC   C3B57081  20.609  37.154   7.053
 9466POPC   C4B57082  20.603  37.109   7.353
 9467POPC   NC357083   0.401   4.311   5.553
 9467POPC   PO457084   0.445   4.360   5.853
 9467POPC   GL157085   0.459   4.293   6.153
 9467POPC   GL257086   0.538   4.158   6.153
 9467POPC   C1A57087   0.436   4.284   6.453
 9467POPC   D2A57088   0.471   4.329   6.753
 9467POPC   C3A57089   0.456   4.288   7.053
 9467POPC   C4A57090   0.417   4.325   7.353
 9467POPC   C1B57091   0.575   4.120   6.453
 9467POPC   C2B57092   0.514   4.063   6.753
 9467POPC   C3B57093   0.586   4.049   7.053
 9467POPC   C4B57094   0.577   4.135   7.353
 9468POPC   NC357095  22.175  36.157   5.553
 9468POPC   PO457096  22.208  36.105   5.853
 9468POPC   GL157097  22.192  36.163   6.153
 9468POPC   GL257098  22.076  36.156   6.153
 9468POPC   C1A57099  22.176  36.119   6.453
 9468POPC   D2A57100  22.157  36.136   6.753
 9468POPC   C3A57101  22.143  36.093   7.053
 9468POPC   C4A57102  22.142  36.131   7.353
 9468POPC   C1B57103  21.986  36.217   6.453
 9468POPC   C2B57104  21.927  36.258   6.753
 9468POPC   C3B57105  21.983  36.243   7.053
 9468POPC   C4B57106  21.961  36.220   7.353
 9469POPC   NC357107  44.675  19.805   5.553
 9469POPC   PO457108  44.624  19.852   5.853
 9469POPC   GL157109  44.666  19.863   6.153
 9469POPC   GL257110  44.599  19.755   6.153
 9469POPC   C1A57111  44.647  19.825   6.453
 9469POPC   D2A57112  44.655  19.816   6.753
 9469POPC   C3A57113  44.689  19.874   7.053
 9469POPC   C4A57114  44.686  19.815   7.353
 9469POPC   C1B57115  44.514  19.633   6.453
 9469POPC   C2B57116  44.449  19.628   6.753
 9469POPC   C3B57117  44.511  19.663   7.053
 9469POPC   C4B57118  44.511  19.671   7.353
 9470POPC   NC357119  16.750  43.097   5.553
 9470POPC   PO457120  16.722  43.082   5.853
 9470POPC   GL157121  16.774  43.100   6.153
 9470POPC   GL257122  16.683  43.232   6.153
 9470POPC   C1A57123  16.715  43.115   6.453
 9470POPC   D2A57124  16.695  43.085   6.753
 9470POPC   C3A57125  16.769  43.067   7.053
 9470POPC   C4A57126  16.749  43.130   7.353
 9470POPC   C1B57127  16.528  43.260   6.453
 9470POPC   C2B57128  16.561  43.322   6.753
 9470POPC   C3B57129  16.596  43.291   7.053
 9470POPC   C4B57130  16.613  43.303   7.353
 9471POPC   NC357131  20.633   2.722   5.553
 9471POPC   PO457132  20.626   2.718   5.853
 9471POPC   GL157133  20.608   2.753   6.153
 9471POPC   GL257134  20.706   2.694   6.153
 9471POPC   C1A57135  20.601   2.810   6.453
 9471POPC   D2A57136  20.570   2.739   6.753
 9471POPC   C3A57137  20.648   2.793   7.053
 9471POPC   C4A57138  20.624   2.776   7.353
 9471POPC   C1B57139  20.817   2.667   6.453
 9471POPC   C2B57140  20.871   2.663   6.753
 9471POPC   C3B57141  20.835   2.646   7.053
 9471POPC   C4B57142  20.792   2.655   7.353
 9472POPC   NC357143  36.951   0.401   5.553
 9472POPC   PO457144  36.932   0.481   5.853
 9472POPC   GL157145  36.882   0.448   6.153
 9472POPC   GL257146  37.026   0.539   6.153
 9472POPC   C1A57147  36.889   0.462   6.453
 9472POPC   D2A57148  36.862   0.462   6.753
 9472POPC   C3A57149  36.932   0.440   7.053
 9472POPC   C4A57150  36.912   0.397   7.353
 9472POPC   C1B57151  37.132   0.638   6.453
 9472POPC   C2B57152  37.115   0.586   6.753
 9472POPC   C3B57153  37.126   0.640   7.053
 9472POPC   C4B57154  37.129   0.647   7.353
 9473POPC   NC357155  43.102  24.443   5.553
 9473POPC   PO457156  43.151  24.464   5.853
 9473POPC   GL157157  43.136  24.530   6.153
 9473POPC   GL257158  43.028  24.450   6.153
 9473POPC   C1A57159  43.092  24.494   6.453
 9473POPC   D2A57160  43.079  24.478   6.753
 9473POPC   C3A57161  43.139  24.510   7.053
 9473POPC   C4A57162  43.076  24.487   7.353
 9473POPC   C1B57163  42.914  24.418   6.453
 9473POPC   C2B57164  42.860  24.389   6.753
 9473POPC   C3B57165  42.883  24.456   7.053
 9473POPC   C4B57166  42.831  24.455   7.353
 9474POPC   NC357167  32.990  17.463   5.553
 9474POPC   PO457168  33.056  17.537   5.853
 9474POPC   GL157169  33.056  17.509   6.153
 9474POPC   GL257170  33.088  17.469   6.153
 9474POPC   C1A57171  33.010  17.498   6.453
 9474POPC   D2A57172  33.073  17.503   6.753
 9474POPC   C3A57173  32.984  17.487   7.053
 9474POPC   C4A57174  33.022  17.506   7.353
 9474POPC   C1B57175  33.253  17.375   6.453
 9474POPC   C2B57176  33.214  17.423   6.753
 9474POPC   C3B57177  33.204  17.423   7.053
 9474POPC   C4B57178  33.274  17.439   7.353
 9475POPC   NC357179  44.636  43.869   5.553
 9475POPC   PO457180  44.663  43.928   5.853
 9475POPC   GL157181  44.639  43.866   6.153
 9475POPC   GL257182  44.564  44.004   6.153
 9475POPC   C1A57183  44.709  43.846   6.453
 9475POPC   D2A57184  44.656  43.897   6.753
 9475POPC   C3A57185  44.664  43.875   7.053
 9475POPC   C4A57186  44.648  43.858   7.353
 9475POPC   C1B57187  44.597  44.092   6.453
 9475POPC   C2B57188  44.514  44.131   6.753
 9475POPC   C3B57189  44.608  44.116   7.053
 9475POPC   C4B57190  44.544  44.145   7.353
 9476POPC   NC357191  38.502  43.928   5.553
 9476POPC   PO457192  38.493  43.879   5.853
 9476POPC   GL157193  38.470  43.911   6.153
 9476POPC   GL257194  38.544  43.948   6.153
 9476POPC   C1A57195  38.434  43.843   6.453
 9476POPC   D2A57196  38.501  43.863   6.753
 9476POPC   C3A57197  38.469  43.858   7.053
 9476POPC   C4A57198  38.425  43.914   7.353
 9476POPC   C1B57199  38.632  44.066   6.453
 9476POPC   C2B57200  38.594  44.096   6.753
 9476POPC   C3B57201  38.665  44.103   7.053
 9476POPC   C4B57202  38.613  44.039   7.353
 9477POPC   NC357203  31.431  40.757   5.553
 9477POPC   PO457204  31.426  40.750   5.853
 9477POPC   GL157205  31.433  40.777   6.153
 9477POPC   GL257206  31.586  40.909   6.153
 9477POPC   C1A57207  31.508  40.814   6.453
 9477POPC   D2A57208  31.482  40.763   6.753
 9477POPC   C3A57209  31.443  40.786   7.053
 9477POPC   C4A57210  31.500  40.813   7.353
 9477POPC   C1B57211  31.672  40.998   6.453
 9477POPC   C2B57212  31.656  40.967   6.753
 9477POPC   C3B57213  31.642  41.022   7.053
 9477POPC   C4B57214  31.674  40.984   7.353
 9478POPC   NC357215  18.244  12.112   5.553
 9478POPC   PO457216  18.234  12.037   5.853
 9478POPC   GL157217  18.287  12.087   6.153
 9478POPC   GL257218  18.402  12.202   6.153
 9478POPC   C1A57219  18.262  12.063   6.453
 9478POPC   D2A57220  18.300  12.055   6.753
 9478POPC   C3A57221  18.288  12.029   7.053
 9478POPC   C4A57222  18.240  12.086   7.353
 9478POPC   C1B57223  18.461  12.187   6.453
 9478POPC   C2B57224  18.485  12.265   6.753
 9478POPC   C3B57225  18.487  12.215   7.053
 9478POPC   C4B57226  18.484  12.194   7.353
 9479POPC   NC357227  17.481  43.112   5.553
 9479POPC   PO457228  17.495  43.119   5.853
 9479POPC   GL157229  17.505  43.070   6.153
 9479POPC   GL257230  17.635  43.071   6.153
 9479POPC   C1A57231  17.480  43.111   6.453
 9479POPC   D2A57232  17.521  43.106   6.753
 9479POPC   C3A57233  17.466  43.152   7.053
 9479POPC   C4A57234  17.477  43.138   7.353
 9479POPC   C1B57235  17.769  42.957   6.453
 9479POPC   C2B57236  17.702  42.949   6.753
 9479POPC   C3B57237  17.742  42.965   7.053
 9479POPC   C4B57238  17.689  42.947   7.353
 9480POPC   NC357239  43.140  38.449   5.553
 9480POPC   PO457240  43.088  38.427   5.853
 9480POPC   GL157241  43.150  38.467   6.153
 9480POPC   GL257242  43.219  38.538   6.153
 9480POPC   C1A57243  43.083  38.459   6.453
 9480POPC   D2A57244  43.075  38.458   6.753
 9480POPC   C3A57245  43.073  38.452   7.053
 9480POPC   C4A57246  43.104  38.445   7.353
 9480POPC   C1B57247  43.324  38.551   6.453
 9480POPC   C2B57248  43.372  38.578   6.753
 9480POPC   C3B57249  43.301  38.526   7.053
 9480POPC   C4B57250  43.377  38.528   7.353
 9481POPC   NC357251   4.281  16.729   5.553
 9481POPC   PO457252   4.297  16.741   5.853
 9481POPC   GL157253   4.330  16.779   6.153
 9481POPC   GL257254   4.447  16.691   6.153
 9481POPC   C1A57255   4.303  16.771   6.453
 9481POPC   D2A57256   4.276  16.779   6.753
 9481POPC   C3A57257   4.296  16.767   7.053
 9481POPC   C4A57258   4.318  16.775   7.353
 9481POPC   C1B57259   4.575  16.688   6.453
 9481POPC   C2B57260   4.587  16.634   6.753
 9481POPC   C3B57261   4.586  16.677   7.053
 9481POPC   C4B57262   4.594  16.689   7.353
 9482POPC   NC357263   8.163  36.128   5.553
 9482POPC   PO457264   8.212  36.171   5.853
 9482POPC   GL157265   8.171  36.124   6.153
 9482POPC   GL257266   8.184  36.233   6.153
 9482POPC   C1A57267   8.193  36.099   6.453
 9482POPC   D2A57268   8.209  36.133   6.753
 9482POPC   C3A57269   8.177  36.078   7.053
 9482POPC   C4A57270   8.242  36.126   7.353
 9482POPC   C1B57271   8.192  36.389   6.453
 9482POPC   C2B57272   8.249  36.401   6.753
 9482POPC   C3B57273   8.253  36.370   7.053
 9482POPC   C4B57274   8.242  36.393   7.353
 9483POPC   NC357275   0.436  36.170   5.553
 9483POPC   PO457276   0.428  36.175   5.853
 9483POPC   GL157277   0.392  36.152   6.153
 9483POPC   GL257278   0.527  36.000   6.153
 9483POPC   C1A57279   0.394  36.086   6.453
 9483POPC   D2A57280   0.468  36.082   6.753
 9483POPC   C3A57281   0.421  36.145   7.053
 9483POPC   C4A57282   0.429  36.169   7.353
 9483POPC   C1B57283   0.561  35.935   6.453
 9483POPC   C2B57284   0.607  35.905   6.753
 9483POPC   C3B57285   0.577  35.869   7.053
 9483POPC   C4B57286   0.599  35.888   7.353
 9484POPC   NC357287  36.932  28.337   5.553
 9484POPC   PO457288  36.930  28.328   5.853
 9484POPC   GL157289  36.944  28.406   6.153
 9484POPC   GL257290  36.872  28.513   6.153
 9484POPC   C1A57291  36.921  28.382   6.453
 9484POPC   D2A57292  36.855  28.338   6.753
 9484POPC   C3A57293  36.900  28.396   7.053
 9484POPC   C4A57294  36.921  28.353   7.353
 9484POPC   C1B57295  36.868  28.601   6.453
 9484POPC   C2B57296  36.906  28.629   6.753
 9484POPC   C3B57297  36.921  28.603   7.053
 9484POPC   C4B57298  36.887  28.573   7.353
 9485POPC   NC357299   1.234  40.797   5.553
 9485POPC   PO457300   1.227  40.806   5.853
 9485POPC   GL157301   1.251  40.775   6.153
 9485POPC   GL257302   1.340  40.839   6.153
 9485POPC   C1A57303   1.191  40.775   6.453
 9485POPC   D2A57304   1.259  40.771   6.753
 9485POPC   C3A57305   1.220  40.737   7.053
 9485POPC   C4A57306   1.255  40.755   7.353
 9485POPC   C1B57307   1.391  40.959   6.453
 9485POPC   C2B57308   1.388  40.948   6.753
 9485POPC   C3B57309   1.388  40.936   7.053
 9485POPC   C4B57310   1.321  40.946   7.353
 9486POPC   NC357311  32.282  19.832   5.553
 9486POPC   PO457312  32.289  19.844   5.853
 9486POPC   GL157313  32.281  19.856   6.153
 9486POPC   GL257314  32.320  19.697   6.153
 9486POPC   C1A57315  32.248  19.854   6.453
 9486POPC   D2A57316  32.260  19.826   6.753
 9486POPC   C3A57317  32.250  19.870   7.053
 9486POPC   C4A57318  32.297  19.855   7.353
 9486POPC   C1B57319  32.322  19.582   6.453
 9486POPC   C2B57320  32.335  19.616   6.753
 9486POPC   C3B57321  32.369  19.597   7.053
 9486POPC   C4B57322  32.368  19.648   7.353
 9487POPC   NC357323  33.775  20.652   5.553
 9487POPC   PO457324  33.784  20.648   5.853
 9487POPC   GL157325  33.763  20.629   6.153
 9487POPC   GL257326  33.900  20.489   6.153
 9487POPC   C1A57327  33.819  20.640   6.453
 9487POPC   D2A57328  33.769  20.592   6.753
 9487POPC   C3A57329  33.849  20.596   7.053
 9487POPC   C4A57330  33.801  20.610   7.353
 9487POPC   C1B57331  33.932  20.411   6.453
 9487POPC   C2B57332  33.902  20.409   6.753
 9487POPC   C3B57333  33.906  20.377   7.053
 9487POPC   C4B57334  33.935  20.374   7.353
 9488POPC   NC357335  30.653  24.466   5.553
 9488POPC   PO457336  30.744  24.497   5.853
 9488POPC   GL157337  30.683  24.449   6.153
 9488POPC   GL257338  30.843  24.485   6.153
 9488POPC   C1A57339  30.713  24.501   6.453
 9488POPC   D2A57340  30.725  24.499   6.753
 9488POPC   C3A57341  30.695  24.514   7.053
 9488POPC   C4A57342  30.729  24.474   7.353
 9488POPC   C1B57343  30.919  24.412   6.453
 9488POPC   C2B57344  30.910  24.389   6.753
 9488POPC   C3B57345  30.923  24.397   7.053
 9488POPC   C4B57346  30.890  24.394   7.353
 9489POPC   NC357347   6.608  38.489   5.553
 9489POPC   PO457348   6.650  38.424   5.853
 9489POPC   GL157349   6.608  38.448   6.153
 9489POPC   GL257350   6.734  38.352   6.153
 9489POPC   C1A57351   6.656  38.475   6.453
 9489POPC   D2A57352   6.656  38.410   6.753
 9489POPC   C3A57353   6.596  38.408   7.053
 9489POPC   C4A57354   6.691  38.473   7.353
 9489POPC   C1B57355   6.783  38.272   6.453
 9489POPC   C2B57356   6.855  38.234   6.753
 9489POPC   C3B57357   6.769  38.224   7.053
 9489POPC   C4B57358   6.757  38.295   7.353
 9490POPC   NC357359  19.811   5.069   5.553
 9490POPC   PO457360  19.878   5.112   5.853
 9490POPC   GL157361  19.790   5.079   6.153
 9490POPC   GL257362  19.756   5.054   6.153
 9490POPC   C1A57363  19.854   5.074   6.453
 9490POPC   D2A57364  19.792   5.100   6.753
 9490POPC   C3A57365  19.855   5.075   7.053
 9490POPC   C4A57366  19.807   5.113   7.353
 9490POPC   C1B57367  19.595   5.006   6.453
 9490POPC   C2B57368  19.576   4.992   6.753
 9490POPC   C3B57369  19.557   5.056   7.053
 9490POPC   C4B57370  19.618   5.027   7.353
 9491POPC   NC357371  27.544  16.728   5.553
 9491POPC   PO457372  27.619  16.683   5.853
 9491POPC   GL157373  27.548  16.726   6.153
 9491POPC   GL257374  27.425  16.716   6.153
 9491POPC   C1A57375  27.596  16.723   6.453
 9491POPC   D2A57376  27.582  16.733   6.753
 9491POPC   C3A57377  27.638  16.693   7.053
 9491POPC   C4A57378  27.602  16.716   7.353
 9491POPC   C1B57379  27.334  16.749   6.453
 9491POPC   C2B57380  27.305  16.773   6.753
 9491POPC   C3B57381  27.396  16.769   7.053
 9491POPC   C4B57382  27.390  16.770   7.353
 9492POPC   NC357383  28.389  22.171   5.553
 9492POPC   PO457384  28.372  22.162   5.853
 9492POPC   GL157385  28.389  22.203   6.153
 9492POPC   GL257386  28.514  22.231   6.153
 9492POPC   C1A57387  28.368  22.202   6.453
 9492POPC   D2A57388  28.325  22.132   6.753
 9492POPC   C3A57389  28.389  22.205   7.053
 9492POPC   C4A57390  28.354  22.158   7.353
 9492POPC   C1B57391  28.623  22.315   6.453
 9492POPC   C2B57392  28.574  22.265   6.753
 9492POPC   C3B57393  28.599  22.259   7.053
 9492POPC   C4B57394  28.617  22.290   7.353
 9493POPC   NC357395   2.744  10.528   5.553
 9493POPC   PO457396   2.729  10.556   5.853
 9493POPC   GL157397   2.755  10.533   6.153
 9493POPC   GL257398   2.630  10.577   6.153
 9493POPC   C1A57399   2.744  10.558   6.453
 9493POPC   D2A57400   2.768  10.513   6.753
 9493POPC   C3A57401   2.763  10.488   7.053
 9493POPC   C4A57402   2.759  10.488   7.353
 9493POPC   C1B57403   2.492  10.560   6.453
 9493POPC   C2B57404   2.499  10.554   6.753
 9493POPC   C3B57405   2.515  10.608   7.053
 9493POPC   C4B57406   2.559  10.610   7.353
 9494POPC   NC357407  40.829  41.602   5.553
 9494POPC   PO457408  40.765  41.595   5.853
 9494POPC   GL157409  40.739  41.565   6.153
 9494POPC   GL257410  40.845  41.400   6.153
 9494POPC   C1A57411  40.756  41.534   6.453
 9494POPC   D2A57412  40.743  41.556   6.753
 9494POPC   C3A57413  40.802  41.597   7.053
 9494POPC   C4A57414  40.764  41.536   7.353
 9494POPC   C1B57415  40.847  41.300   6.453
 9494POPC   C2B57416  40.865  41.379   6.753
 9494POPC   C3B57417  40.893  41.372   7.053
 9494POPC   C4B57418  40.926  41.296   7.353
 9495POPC   NC357419  22.927   2.786   5.553
 9495POPC   PO457420  22.910   2.760   5.853
 9495POPC   GL157421  22.981   2.813   6.153
 9495POPC   GL257422  22.927   2.698   6.153
 9495POPC   C1A57423  22.985   2.752   6.453
 9495POPC   D2A57424  22.918   2.738   6.753
 9495POPC   C3A57425  22.954   2.762   7.053
 9495POPC   C4A57426  22.900   2.769   7.353
 9495POPC   C1B57427  22.885   2.482   6.453
 9495POPC   C2B57428  22.862   2.505   6.753
 9495POPC   C3B57429  22.844   2.564   7.053
 9495POPC   C4B57430  22.811   2.567   7.353
 9496POPC   NC357431  11.349  40.753   5.553
 9496POPC   PO457432  11.347  40.776   5.853
 9496POPC   GL157433  11.285  40.797   6.153
 9496POPC   GL257434  11.187  40.630   6.153
 9496POPC   C1A57435  11.317  40.818   6.453
 9496POPC   D2A57436  11.268  40.805   6.753
 9496POPC   C3A57437  11.299  40.763   7.053
 9496POPC   C4A57438  11.287  40.794   7.353
 9496POPC   C1B57439  11.207  40.593   6.453
 9496POPC   C2B57440  11.182  40.556   6.753
 9496POPC   C3B57441  11.132  40.527   7.053
 9496POPC   C4B57442  11.182  40.563   7.353
 9497POPC   NC357443  39.184   5.103   5.553
 9497POPC   PO457444  39.204   5.051   5.853
 9497POPC   GL157445  39.262   5.109   6.153
 9497POPC   GL257446  39.126   5.111   6.153
 9497POPC   C1A57447  39.184   5.141   6.453
 9497POPC   D2A57448  39.244   5.066   6.753
 9497POPC   C3A57449  39.257   5.060   7.053
 9497POPC   C4A57450  39.261   5.092   7.353
 9497POPC   C1B57451  39.001   5.082   6.453
 9497POPC   C2B57452  38.949   5.093   6.753
 9497POPC   C3B57453  38.983   5.053   7.053
 9497POPC   C4B57454  38.951   5.056   7.353
 9498POPC   NC357455   2.008  25.296   5.553
 9498POPC   PO457456   1.971  25.266   5.853
 9498POPC   GL157457   1.980  25.281   6.153
 9498POPC   GL257458   1.874  25.306   6.153
 9498POPC   C1A57459   2.028  25.246   6.453
 9498POPC   D2A57460   1.954  25.227   6.753
 9498POPC   C3A57461   1.999  25.272   7.053
 9498POPC   C4A57462   2.003  25.255   7.353
 9498POPC   C1B57463   1.792  25.378   6.453
 9498POPC   C2B57464   1.738  25.387   6.753
 9498POPC   C3B57465   1.781  25.452   7.053
 9498POPC   C4B57466   1.802  25.361   7.353
 9499POPC   NC357467  38.439  31.428   5.553
 9499POPC   PO457468  38.503  31.497   5.853
 9499POPC   GL157469  38.428  31.512   6.153
 9499POPC   GL257470  38.335  31.559   6.153
 9499POPC   C1A57471  38.501  31.433   6.453
 9499POPC   D2A57472  38.469  31.441   6.753
 9499POPC   C3A57473  38.505  31.513   7.053
 9499POPC   C4A57474  38.502  31.458   7.353
 9499POPC   C1B57475  38.253  31.558   6.453
 9499POPC   C2B57476  38.290  31.591   6.753
 9499POPC   C3B57477  38.207  31.630   7.053
 9499POPC   C4B57478  38.293  31.624   7.353
 9500POPC   NC357479  16.005  12.095   5.553
 9500POPC   PO457480  15.977  12.118   5.853
 9500POPC   GL157481  15.940  12.053   6.153
 9500POPC   GL257482  16.030  12.194   6.153
 9500POPC   C1A57483  15.974  12.055   6.453
 9500POPC   D2A57484  15.991  12.042   6.753
 9500POPC   C3A57485  15.943  12.113   7.053
 9500POPC   C4A57486  15.996  12.067   7.353
 9500POPC   C1B57487  16.020  12.359   6.453
 9500POPC   C2B57488  16.039  12.287   6.753
 9500POPC   C3B57489  16.008  12.299   7.053
 9500POPC   C4B57490  16.024  12.324   7.353
 9501POPC   NC357491  19.098   7.440   5.553
 9501POPC   PO457492  19.028   7.448   5.853
 9501POPC   GL157493  19.019   7.418   6.153
 9501POPC   GL257494  19.058   7.588   6.153
 9501POPC   C1A57495  19.087   7.385   6.453
 9501POPC   D2A57496  19.065   7.419   6.753
 9501POPC   C3A57497  19.029   7.409   7.053
 9501POPC   C4A57498  19.032   7.389   7.353
 9501POPC   C1B57499  19.004   7.707   6.453
 9501POPC   C2B57500  19.019   7.641   6.753
 9501POPC   C3B57501  18.996   7.661   7.053
 9501POPC   C4B57502  19.034   7.710   7.353
 9502POPC   NC357503  15.996  11.268   5.553
 9502POPC   PO457504  15.970  11.283   5.853
 9502POPC   GL157505  15.965  11.263   6.153
 9502POPC   GL257506  15.951  11.386   6.153
 9502POPC   C1A57507  15.935  11.292   6.453
 9502POPC   D2A57508  15.980  11.339   6.753
 9502POPC   C3A57509  15.936  11.303   7.053
 9502POPC   C4A57510  15.955  11.313   7.353
 9502POPC   C1B57511  15.830  11.566   6.453
 9502POPC   C2B57512  15.835  11.501   6.753
 9502POPC   C3B57513  15.849  11.529   7.053
 9502POPC   C4B57514  15.819  11.547   7.353
 9503POPC   NC357515  44.679  24.465   5.553
 9503POPC   PO457516  44.661  24.513   5.853
 9503POPC   GL157517  44.618  24.467   6.153
 9503POPC   GL257518  44.672  24.397   6.153
 9503POPC   C1A57519  44.631  24.483   6.453
 9503POPC   D2A57520  44.706  24.460   6.753
 9503POPC   C3A57521  44.675  24.502   7.053
 9503POPC   C4A57522  44.664  24.455   7.353
 9503POPC   C1B57523  44.604  24.286   6.453
 9503POPC   C2B57524  44.657  24.201   6.753
 9503POPC   C3B57525  44.653  24.267   7.053
 9503POPC   C4B57526  44.608  24.196   7.353
 9504POPC   NC357527  33.808  19.053   5.553
 9504POPC   PO457528  33.820  19.104   5.853
 9504POPC   GL157529  33.768  19.093   6.153
 9504POPC   GL257530  33.888  18.979   6.153
 9504POPC   C1A57531  33.817  19.021   6.453
 9504POPC   D2A57532  33.849  19.104   6.753
 9504POPC   C3A57533  33.842  19.025   7.053
 9504POPC   C4A57534  33.794  19.094   7.353
 9504POPC   C1B57535  34.081  19.031   6.453
 9504POPC   C2B57536  34.026  18.986   6.753
 9504POPC   C3B57537  34.015  19.013   7.053
 9504POPC   C4B57538  34.031  19.048   7.353
 9505POPC   NC357539  39.237  30.718   5.553
 9505POPC   PO457540  39.243  30.671   5.853
 9505POPC   GL157541  39.256  30.731   6.153
 9505POPC   GL257542  39.309  30.569   6.153
 9505POPC   C1A57543  39.192  30.675   6.453
 9505POPC   D2A57544  39.197  30.664   6.753
 9505POPC   C3A57545  39.194  30.713   7.053
 9505POPC   C4A57546  39.231  30.684   7.353
 9505POPC   C1B57547  39.430  30.450   6.453
 9505POPC   C2B57548  39.339  30.493   6.753
 9505POPC   C3B57549  39.427  30.544   7.053
 9505POPC   C4B57550  39.349  30.492   7.353
 9506POPC   NC357551  25.292  29.183   5.553
 9506POPC   PO457552  25.234  29.158   5.853
 9506POPC   GL157553  25.274  29.138   6.153
 9506POPC   GL257554  25.390  29.167   6.153
 9506POPC   C1A57555  25.232  29.176   6.453
 9506POPC   D2A57556  25.231  29.190   6.753
 9506POPC   C3A57557  25.296  29.164   7.053
 9506POPC   C4A57558  25.221  29.165   7.353
 9506POPC   C1B57559  25.476  29.130   6.453
 9506POPC   C2B57560  25.507  29.065   6.753
 9506POPC   C3B57561  25.464  29.136   7.053
 9506POPC   C4B57562  25.464  29.119   7.353
 9507POPC   NC357563  37.630  39.279   5.553
 9507POPC   PO457564  37.720  39.198   5.853
 9507POPC   GL157565  37.725  39.278   6.153
 9507POPC   GL257566  37.587  39.299   6.153
 9507POPC   C1A57567  37.655  39.249   6.453
 9507POPC   D2A57568  37.634  39.190   6.753
 9507POPC   C3A57569  37.698  39.256   7.053
 9507POPC   C4A57570  37.683  39.194   7.353
 9507POPC   C1B57571  37.494  39.310   6.453
 9507POPC   C2B57572  37.414  39.308   6.753
 9507POPC   C3B57573  37.413  39.343   7.053
 9507POPC   C4B57574  37.413  39.376   7.353
 9508POPC   NC357575  21.418   4.337   5.553
 9508POPC   PO457576  21.385   4.296   5.853
 9508POPC   GL157577  21.419   4.309   6.153
 9508POPC   GL257578  21.266   4.247   6.153
 9508POPC   C1A57579  21.395   4.363   6.453
 9508POPC   D2A57580  21.387   4.312   6.753
 9508POPC   C3A57581  21.357   4.329   7.053
 9508POPC   C4A57582  21.373   4.344   7.353
 9508POPC   C1B57583  21.154   4.216   6.453
 9508POPC   C2B57584  21.146   4.181   6.753
 9508POPC   C3B57585  21.205   4.191   7.053
 9508POPC   C4B57586  21.206   4.211   7.353
 9509POPC   NC357587   4.317  41.579   5.553
 9509POPC   PO457588   4.363  41.540   5.853
 9509POPC   GL157589   4.343  41.590   6.153
 9509POPC   GL257590   4.404  41.424   6.153
 9509POPC   C1A57591   4.286  41.546   6.453
 9509POPC   D2A57592   4.309  41.567   6.753
 9509POPC   C3A57593   4.301  41.593   7.053
 9509POPC   C4A57594   4.311  41.536   7.353
 9509POPC   C1B57595   4.381  41.346   6.453
 9509POPC   C2B57596   4.388  41.376   6.753
 9509POPC   C3B57597   4.390  41.319   7.053
 9509POPC   C4B57598   4.391  41.358   7.353
 9510POPC   NC357599   9.789  18.306   5.553
 9510POPC   PO457600   9.727  18.315   5.853
 9510POPC   GL157601   9.737  18.317   6.153
 9510POPC   GL257602   9.787  18.118   6.153
 9510POPC   C1A57603   9.705  18.244   6.453
 9510POPC   D2A57604   9.712  18.281   6.753
 9510POPC   C3A57605   9.742  18.260   7.053
 9510POPC   C4A57606   9.767  18.323   7.353
 9510POPC   C1B57607   9.715  18.008   6.453
 9510POPC   C2B57608   9.764  18.059   6.753
 9510POPC   C3B57609   9.713  18.066   7.053
 9510POPC   C4B57610   9.736  18.056   7.353
 9511POPC   NC357611  36.130  31.513   5.553
 9511POPC   PO457612  36.117  31.441   5.853
 9511POPC   GL157613  36.092  31.444   6.153
 9511POPC   GL257614  36.218  31.526   6.153
 9511POPC   C1A57615  36.080  31.437   6.453
 9511POPC   D2A57616  36.109  31.513   6.753
 9511POPC   C3A57617  36.089  31.460   7.053
 9511POPC   C4A57618  36.118  31.503   7.353
 9511POPC   C1B57619  36.284  31.654   6.453
 9511POPC   C2B57620  36.278  31.646   6.753
 9511POPC   C3B57621  36.312  31.705   7.053
 9511POPC   C4B57622  36.331  31.683   7.353
 9512POPC   NC357623  33.072  19.013   5.553
 9512POPC   PO457624  33.058  19.012   5.853
 9512POPC   GL157625  33.049  19.023   6.153
 9512POPC   GL257626  33.050  18.958   6.153
 9512POPC   C1A57627  33.036  19.075   6.453
 9512POPC   D2A57628  32.984  19.033   6.753
 9512POPC   C3A57629  33.031  19.053   7.053
 9512POPC   C4A57630  33.035  19.074   7.353
 9512POPC   C1B57631  33.103  18.767   6.453
 9512POPC   C2B57632  33.037  18.836   6.753
 9512POPC   C3B57633  33.077  18.786   7.053
 9512POPC   C4B57634  33.109  18.818   7.353
 9513POPC   NC357635   4.332  33.016   5.553
 9513POPC   PO457636   4.345  33.053   5.853
 9513POPC   GL157637   4.300  33.040   6.153
 9513POPC   GL257638   4.473  33.038   6.153
 9513POPC   C1A57639   4.320  32.988   6.453
 9513POPC   D2A57640   4.298  33.070   6.753
 9513POPC   C3A57641   4.366  32.975   7.053
 9513POPC   C4A57642   4.360  33.040   7.353
 9513POPC   C1B57643   4.546  32.995   6.453
 9513POPC   C2B57644   4.611  33.003   6.753
 9513POPC   C3B57645   4.599  32.991   7.053
 9513POPC   C4B57646   4.573  33.020   7.353
 9514POPC   NC357647   9.753  21.404   5.553
 9514POPC   PO457648   9.710  21.397   5.853
 9514POPC   GL157649   9.711  21.380   6.153
 9514POPC   GL257650   9.838  21.275   6.153
 9514POPC   C1A57651   9.760  21.340   6.453
 9514POPC   D2A57652   9.704  21.361   6.753
 9514POPC   C3A57653   9.725  21.393   7.053
 9514POPC   C4A57654   9.713  21.428   7.353
 9514POPC   C1B57655   9.954  21.198   6.453
 9514POPC   C2B57656   9.944  21.262   6.753
 9514POPC   C3B57657   9.964  21.285   7.053
 9514POPC   C4B57658   9.976  21.193   7.353
 9515POPC   NC357659   2.768  16.778   5.553
 9515POPC   PO457660   2.731  16.768   5.853
 9515POPC   GL157661   2.742  16.763   6.153
 9515POPC   GL257662   2.886  16.610   6.153
 9515POPC   C1A57663   2.803  16.774   6.453
 9515POPC   D2A57664   2.719  16.744   6.753
 9515POPC   C3A57665   2.809  16.690   7.053
 9515POPC   C4A57666   2.753  16.773   7.353
 9515POPC   C1B57667   2.941  16.578   6.453
 9515POPC   C2B57668   2.922  16.548   6.753
 9515POPC   C3B57669   2.968  16.602   7.053
 9515POPC   C4B57670   2.966  16.622   7.353
 9516POPC   NC357671  24.512  15.169   5.553
 9516POPC   PO457672  24.457  15.211   5.853
 9516POPC   GL157673  24.470  15.139   6.153
 9516POPC   GL257674  24.577  15.249   6.153
 9516POPC   C1A57675  24.458  15.228   6.453
 9516POPC   D2A57676  24.522  15.150   6.753
 9516POPC   C3A57677  24.449  15.177   7.053
 9516POPC   C4A57678  24.485  15.214   7.353
 9516POPC   C1B57679  24.631  15.430   6.453
 9516POPC   C2B57680  24.607  15.390   6.753
 9516POPC   C3B57681  24.613  15.381   7.053
 9516POPC   C4B57682  24.636  15.415   7.353
 9517POPC   NC357683  15.207   8.997   5.553
 9517POPC   PO457684  15.173   8.942   5.853
 9517POPC   GL157685  15.200   8.942   6.153
 9517POPC   GL257686  15.187   8.824   6.153
 9517POPC   C1A57687  15.204   8.948   6.453
 9517POPC   D2A57688  15.147   8.952   6.753
 9517POPC   C3A57689  15.131   8.961   7.053
 9517POPC   C4A57690  15.209   8.946   7.353
 9517POPC   C1B57691  15.268   8.723   6.453
 9517POPC   C2B57692  15.229   8.690   6.753
 9517POPC   C3B57693  15.261   8.735   7.053
 9517POPC   C4B57694  15.253   8.734   7.353
 9518POPC   NC357695  36.162  19.793   5.553
 9518POPC   PO457696  36.140  19.829   5.853
 9518POPC   GL157697  36.120  19.797   6.153
 9518POPC   GL257698  36.086  19.708   6.153
 9518POPC   C1A57699  36.162  19.874   6.453
 9518POPC   D2A57700  36.123  19.858   6.753
 9518POPC   C3A57701  36.153  19.870   7.053
 9518POPC   C4A57702  36.113  19.873   7.353
 9518POPC   C1B57703  36.017  19.619   6.453
 9518POPC   C2B57704  36.020  19.566   6.753
 9518POPC   C3B57705  36.045  19.624   7.053
 9518POPC   C4B57706  36.089  19.561   7.353
 9519POPC   NC357707   3.531  29.114   5.553
 9519POPC   PO457708   3.496  29.107   5.853
 9519POPC   GL157709   3.557  29.180   6.153
 9519POPC   GL257710   3.520  29.290   6.153
 9519POPC   C1A57711   3.571  29.110   6.453
 9519POPC   D2A57712   3.518  29.190   6.753
 9519POPC   C3A57713   3.588  29.098   7.053
 9519POPC   C4A57714   3.528  29.146   7.353
 9519POPC   C1B57715   3.420  29.424   6.453
 9519POPC   C2B57716   3.402  29.403   6.753
 9519POPC   C3B57717   3.487  29.364   7.053
 9519POPC   C4B57718   3.462  29.375   7.353
 9520POPC   NC357719   2.815   8.951   5.553
 9520POPC   PO457720   2.727   8.948   5.853
 9520POPC   GL157721   2.815   8.982   6.153
 9520POPC   GL257722   2.851   9.052   6.153
 9520POPC   C1A57723   2.739   8.987   6.453
 9520POPC   D2A57724   2.782   9.016   6.753
 9520POPC   C3A57725   2.748   8.937   7.053
 9520POPC   C4A57726   2.795   8.929   7.353
 9520POPC   C1B57727   2.938   9.094   6.453
 9520POPC   C2B57728   2.919   9.076   6.753
 9520POPC   C3B57729   2.929   9.105   7.053
 9520POPC   C4B57730   2.967   9.135   7.353
 9521POPC   NC357731  18.291   1.968   5.553
 9521POPC   PO457732  18.236   1.949   5.853
 9521POPC   GL157733  18.289   1.975   6.153
 9521POPC   GL257734  18.304   2.051   6.153
 9521POPC   C1A57735  18.253   2.036   6.453
 9521POPC   D2A57736  18.285   2.010   6.753
 9521POPC   C3A57737  18.265   1.943   7.053
 9521POPC   C4A57738  18.243   2.026   7.353
 9521POPC   C1B57739  18.397   2.217   6.453
 9521POPC   C2B57740  18.412   2.210   6.753
 9521POPC   C3B57741  18.457   2.158   7.053
 9521POPC   C4B57742  18.373   2.231   7.353
 9522POPC   NC357743  28.404  19.036   5.553
 9522POPC   PO457744  28.382  19.091   5.853
 9522POPC   GL157745  28.337  19.108   6.153
 9522POPC   GL257746  28.403  18.919   6.153
 9522POPC   C1A57747  28.355  19.045   6.453
 9522POPC   D2A57748  28.353  19.102   6.753
 9522POPC   C3A57749  28.390  19.033   7.053
 9522POPC   C4A57750  28.405  19.039   7.353
 9522POPC   C1B57751  28.326  18.798   6.453
 9522POPC   C2B57752  28.384  18.779   6.753
 9522POPC   C3B57753  28.408  18.848   7.053
 9522POPC   C4B57754  28.345  18.779   7.353
 9523POPC   NC357755  26.010  17.540   5.553
 9523POPC   PO457756  26.042  17.505   5.853
 9523POPC   GL157757  26.083  17.505   6.153
 9523POPC   GL257758  25.914  17.536   6.153
 9523POPC   C1A57759  26.089  17.499   6.453
 9523POPC   D2A57760  26.048  17.535   6.753
 9523POPC   C3A57761  26.059  17.504   7.053
 9523POPC   C4A57762  26.003  17.483   7.353
 9523POPC   C1B57763  25.833  17.700   6.453
 9523POPC   C2B57764  25.871  17.603   6.753
 9523POPC   C3B57765  25.875  17.697   7.053
 9523POPC   C4B57766  25.825  17.628   7.353
 9524POPC   NC357767   0.448  44.613   5.553
 9524POPC   PO457768   0.462  44.688   5.853
 9524POPC   GL157769   0.446  44.620   6.153
 9524POPC   GL257770   0.505  44.786   6.153
 9524POPC   C1A57771   0.451  44.649   6.453
 9524POPC   D2A57772   0.414  44.686   6.753
 9524POPC   C3A57773   0.438  44.670   7.053
 9524POPC   C4A57774   0.422  44.671   7.353
 9524POPC   C1B57775   0.597  44.857   6.453
 9524POPC   C2B57776   0.632  44.841   6.753
 9524POPC   C3B57777   0.573  44.799   7.053
 9524POPC   C4B57778   0.664  44.813   7.353
 9525POPC   NC357779  20.570   7.392   5.553
 9525POPC   PO457780  20.651   7.458   5.853
 9525POPC   GL157781  20.614   7.392   6.153
 9525POPC   GL257782  20.486   7.370   6.153
 9525POPC   C1A57783  20.604   7.412   6.453
 9525POPC   D2A57784  20.603   7.394   6.753
 9525POPC   C3A57785  20.655   7.394   7.053
 9525POPC   C4A57786  20.636   7.431   7.353
 9525POPC   C1B57787  20.391   7.354   6.453
 9525POPC   C2B57788  20.365   7.360   6.753
 9525POPC   C3B57789  20.374   7.366   7.053
 9525POPC   C4B57790  20.374   7.305   7.353
 9526POPC   NC357791  10.478  28.324   5.553
 9526POPC   PO457792  10.541  28.400   5.853
 9526POPC   GL157793  10.503  28.361   6.153
 9526POPC   GL257794  10.672  28.375   6.153
 9526POPC   C1A57795  10.558  28.344   6.453
 9526POPC   D2A57796  10.518  28.345   6.753
 9526POPC   C3A57797  10.517  28.332   7.053
 9526POPC   C4A57798  10.497  28.331   7.353
 9526POPC   C1B57799  10.804  28.382   6.453
 9526POPC   C2B57800  10.778  28.423   6.753
 9526POPC   C3B57801  10.800  28.444   7.053
 9526POPC   C4B57802  10.766  28.449   7.353
 9527POPC   NC357803  16.000   5.852   5.553
 9527POPC   PO457804  15.940   5.900   5.853
 9527POPC   GL157805  15.913   5.884   6.153
 9527POPC   GL257806  16.022   5.944   6.153
 9527POPC   C1A57807  15.960   5.871   6.453
 9527POPC   D2A57808  15.962   5.872   6.753
 9527POPC   C3A57809  15.990   5.916   7.053
 9527POPC   C4A57810  15.941   5.878   7.353
 9527POPC   C1B57811  16.179   5.985   6.453
 9527POPC   C2B57812  16.146   5.976   6.753
 9527POPC   C3B57813  16.186   5.984   7.053
 9527POPC   C4B57814  16.145   5.946   7.353
 9528POPC   NC357815  12.898   5.110   5.553
 9528POPC   PO457816  12.803   5.116   5.853
 9528POPC   GL157817  12.893   5.102   6.153
 9528POPC   GL257818  12.900   5.015   6.153
 9528POPC   C1A57819  12.838   5.107   6.453
 9528POPC   D2A57820  12.837   5.110   6.753
 9528POPC   C3A57821  12.858   5.107   7.053
 9528POPC   C4A57822  12.870   5.090   7.353
 9528POPC   C1B57823  12.967   4.890   6.453
 9528POPC   C2B57824  12.941   4.870   6.753
 9528POPC   C3B57825  12.928   4.917   7.053
 9528POPC   C4B57826  12.929   4.819   7.353
 9529POPC   NC357827  33.823  12.068   5.553
 9529POPC   PO457828  33.848  12.055   5.853
 9529POPC   GL157829  33.823  12.031   6.153
 9529POPC   GL257830  33.814  12.006   6.153
 9529POPC   C1A57831  33.771  12.099   6.453
 9529POPC   D2A57832  33.751  12.058   6.753
 9529POPC   C3A57833  33.782  12.039   7.053
 9529POPC   C4A57834  33.776  12.105   7.353
 9529POPC   C1B57835  33.932  11.816   6.453
 9529POPC   C2B57836  33.900  11.888   6.753
 9529POPC   C3B57837  33.966  11.868   7.053
 9529POPC   C4B57838  33.968  11.907   7.353
 9530POPC   NC357839  34.605  34.526   5.553
 9530POPC   PO457840  34.540  34.591   5.853
 9530POPC   GL157841  34.591  34.587   6.153
 9530POPC   GL257842  34.428  34.521   6.153
 9530POPC   C1A57843  34.587  34.584   6.453
 9530POPC   D2A57844  34.580  34.538   6.753
 9530POPC   C3A57845  34.535  34.617   7.053
 9530POPC   C4A57846  34.543  34.554   7.353
 9530POPC   C1B57847  34.294  34.538   6.453
 9530POPC   C2B57848  34.316  34.599   6.753
 9530POPC   C3B57849  34.292  34.566   7.053
 9530POPC   C4B57850  34.329  34.530   7.353
 9531POPC   NC357851  26.028  30.729   5.553
 9531POPC   PO457852  26.046  30.699   5.853
 9531POPC   GL157853  26.067  30.741   6.153
 9531POPC   GL257854  26.014  30.561   6.153
 9531POPC   C1A57855  26.048  30.684   6.453
 9531POPC   D2A57856  26.009  30.732   6.753
 9531POPC   C3A57857  26.015  30.703   7.053
 9531POPC   C4A57858  26.011  30.727   7.353
 9531POPC   C1B57859  26.056  30.430   6.453
 9531POPC   C2B57860  26.037  30.479   6.753
 9531POPC   C3B57861  26.086  30.489   7.053
 9531POPC   C4B57862  26.076  30.458   7.353
 9532POPC   NC357863  40.001  33.026   5.553
 9532POPC   PO457864  39.986  32.989   5.853
 9532POPC   GL157865  39.975  33.023   6.153
 9532POPC   GL257866  39.859  33.038   6.153
 9532POPC   C1A57867  39.984  33.072   6.453
 9532POPC   D2A57868  39.981  32.988   6.753
 9532POPC   C3A57869  39.963  32.981   7.053
 9532POPC   C4A57870  39.995  33.001   7.353
 9532POPC   C1B57871  39.739  33.032   6.453
 9532POPC   C2B57872  39.727  33.017   6.753
 9532POPC   C3B57873  39.765  33.001   7.053
 9532POPC   C4B57874  39.795  32.986   7.353
 9533POPC   NC357875  40.736   3.534   5.553
 9533POPC   PO457876  40.744   3.530   5.853
 9533POPC   GL157877  40.760   3.510   6.153
 9533POPC   GL257878  40.819   3.380   6.153
 9533POPC   C1A57879  40.752   3.543   6.453
 9533POPC   D2A57880  40.832   3.574   6.753
 9533POPC   C3A57881  40.780   3.575   7.053
 9533POPC   C4A57882  40.740   3.571   7.353
 9533POPC   C1B57883  40.798   3.303   6.453
 9533POPC   C2B57884  40.816   3.264   6.753
 9533POPC   C3B57885  40.762   3.253   7.053
 9533POPC   C4B57886  40.833   3.333   7.353
 9534POPC   NC357887  32.268  39.958   5.553
 9534POPC   PO457888  32.223  40.002   5.853
 9534POPC   GL157889  32.274  40.017   6.153
 9534POPC   GL257890  32.200  39.842   6.153
 9534POPC   C1A57891  32.201  39.998   6.453
 9534POPC   D2A57892  32.246  40.033   6.753
 9534POPC   C3A57893  32.211  39.965   7.053
 9534POPC   C4A57894  32.200  39.963   7.353
 9534POPC   C1B57895  32.256  39.713   6.453
 9534POPC   C2B57896  32.211  39.708   6.753
 9534POPC   C3B57897  32.222  39.794   7.053
 9534POPC   C4B57898  32.195  39.804   7.353
 9535POPC   NC357899  22.155  11.264   5.553
 9535POPC   PO457900  22.211  11.258   5.853
 9535POPC   GL157901  22.154  11.282   6.153
 9535POPC   GL257902  22.277  11.269   6.153
 9535POPC   C1A57903  22.161  11.251   6.453
 9535POPC   D2A57904  22.199  11.290   6.753
 9535POPC   C3A57905  22.146  11.345   7.053
 9535POPC   C4A57906  22.151  11.340   7.353
 9535POPC   C1B57907  22.387  11.207   6.453
 9535POPC   C2B57908  22.421  11.162   6.753
 9535POPC   C3B57909  22.399  11.235   7.053
 9535POPC   C4B57910  22.366  11.234   7.353
 9536POPC   NC357911  15.987  13.582   5.553
 9536POPC   PO457912  15.913  13.607   5.853
 9536POPC   GL157913  15.939  13.648   6.153
 9536POPC   GL257914  16.099  13.700   6.153
 9536POPC   C1A57915  15.911  13.620   6.453
 9536POPC   D2A57916  15.941  13.660   6.753
 9536POPC   C3A57917  15.925  13.607   7.053
 9536POPC   C4A57918  15.961  13.596   7.353
 9536POPC   C1B57919  16.239  13.735   6.453
 9536POPC   C2B57920  16.182  13.643   6.753
 9536POPC   C3B57921  16.195  13.669   7.053
 9536POPC   C4B57922  16.229  13.726   7.353
 9537POPC   NC357923   1.187  36.168   5.553
 9537POPC   PO457924   1.182  36.100   5.853
 9537POPC   GL157925   1.250  36.133   6.153
 9537POPC   GL257926   1.213  36.277   6.153
 9537POPC   C1A57927   1.198  36.172   6.453
 9537POPC   D2A57928   1.249  36.164   6.753
 9537POPC   C3A57929   1.221  36.142   7.053
 9537POPC   C4A57930   1.177  36.119   7.353
 9537POPC   C1B57931   1.161  36.381   6.453
 9537POPC   C2B57932   1.160  36.337   6.753
 9537POPC   C3B57933   1.129  36.357   7.053
 9537POPC   C4B57934   1.222  36.404   7.353
 9538POPC   NC357935  21.390  42.344   5.553
 9538POPC   PO457936  21.407  42.313   5.853
 9538POPC   GL157937  21.433  42.374   6.153
 9538POPC   GL257938  21.257  42.410   6.153
 9538POPC   C1A57939  21.380  42.344   6.453
 9538POPC   D2A57940  21.426  42.319   6.753
 9538POPC   C3A57941  21.360  42.322   7.053
 9538POPC   C4A57942  21.344  42.294   7.353
 9538POPC   C1B57943  21.118  42.419   6.453
 9538POPC   C2B57944  21.182  42.458   6.753
 9538POPC   C3B57945  21.140  42.384   7.053
 9538POPC   C4B57946  21.125  42.417   7.353
 9539POPC   NC357947   2.760  26.087   5.553
 9539POPC   PO457948   2.793  26.006   5.853
 9539POPC   GL157949   2.767  26.042   6.153
 9539POPC   GL257950   2.657  25.914   6.153
 9539POPC   C1A57951   2.803  26.040   6.453
 9539POPC   D2A57952   2.810  26.053   6.753
 9539POPC   C3A57953   2.784  26.068   7.053
 9539POPC   C4A57954   2.762  26.035   7.353
 9539POPC   C1B57955   2.668  25.817   6.453
 9539POPC   C2B57956   2.608  25.834   6.753
 9539POPC   C3B57957   2.688  25.787   7.053
 9539POPC   C4B57958   2.606  25.780   7.353
 9540POPC   NC357959   9.022  41.560   5.553
 9540POPC   PO457960   8.936  41.555   5.853
 9540POPC   GL157961   8.985  41.550   6.153
 9540POPC   GL257962   8.840  41.498   6.153
 9540POPC   C1A57963   8.938  41.602   6.453
 9540POPC   D2A57964   8.923  41.529   6.753
 9540POPC   C3A57965   9.013  41.540   7.053
 9540POPC   C4A57966   8.953  41.523   7.353
 9540POPC   C1B57967   8.758  41.418   6.453
 9540POPC   C2B57968   8.714  41.451   6.753
 9540POPC   C3B57969   8.758  41.396   7.053
 9540POPC   C4B57970   8.752  41.458   7.353
 9541POPC   NC357971  14.408  15.982   5.553
 9541POPC   PO457972  14.443  15.974   5.853
 9541POPC   GL157973  14.405  15.990   6.153
 9541POPC   GL257974  14.400  15.800   6.153
 9541POPC   C1A57975  14.355  15.962   6.453
 9541POPC   D2A57976  14.440  15.905   6.753
 9541POPC   C3A57977  14.395  15.981   7.053
 9541POPC   C4A57978  14.418  15.962   7.353
 9541POPC   C1B57979  14.412  15.671   6.453
 9541POPC   C2B57980  14.404  15.702   6.753
 9541POPC   C3B57981  14.433  15.736   7.053
 9541POPC   C4B57982  14.474  15.691   7.353
 9542POPC   NC357983   4.299   8.154   5.553
 9542POPC   PO457984   4.290   8.226   5.853
 9542POPC   GL157985   4.312   8.168   6.153
 9542POPC   GL257986   4.371   8.336   6.153
 9542POPC   C1A57987   4.333   8.179   6.453
 9542POPC   D2A57988   4.273   8.199   6.753
 9542POPC   C3A57989   4.337   8.244   7.053
 9542POPC   C4A57990   4.366   8.221   7.353
 9542POPC   C1B57991   4.298   8.493   6.453
 9542POPC   C2B57992   4.309   8.402   6.753
 9542POPC   C3B57993   4.372   8.445   7.053
 9542POPC   C4B57994   4.344   8.491   7.353
 9543POPC   NC357995  22.888  29.927   5.553
 9543POPC   PO457996  22.903  29.908   5.853
 9543POPC   GL157997  22.935  29.901   6.153
 9543POPC   GL257998  22.868  29.827   6.153
 9543POPC   C1A57999  22.900  29.874   6.453
 9543POPC   D2A58000  22.892  29.957   6.753
 9543POPC   C3A58001  22.891  29.890   7.053
 9543POPC   C4A58002  22.983  29.898   7.353
 9543POPC   C1B58003  22.869  29.712   6.453
 9543POPC   C2B58004  22.863  29.637   6.753
 9543POPC   C3B58005  22.870  29.640   7.053
 9543POPC   C4B58006  22.891  29.660   7.353
 9544POPC   NC358007  27.631  32.253   5.553
 9544POPC   PO458008  27.558  32.262   5.853
 9544POPC   GL158009  27.599  32.251   6.153
 9544POPC   GL258010  27.430  32.268   6.153
 9544POPC   C1A58011  27.584  32.223   6.453
 9544POPC   D2A58012  27.639  32.283   6.753
 9544POPC   C3A58013  27.551  32.238   7.053
 9544POPC   C4A58014  27.577  32.258   7.353
 9544POPC   C1B58015  27.312  32.324   6.453
 9544POPC   C2B58016  27.357  32.317   6.753
 9544POPC   C3B58017  27.356  32.320   7.053
 9544POPC   C4B58018  27.329  32.253   7.353
 9545POPC   NC358019  13.639   3.567   5.553
 9545POPC   PO458020  13.598   3.575   5.853
 9545POPC   GL158021  13.653   3.573   6.153
 9545POPC   GL258022  13.507   3.461   6.153
 9545POPC   C1A58023  13.635   3.518   6.453
 9545POPC   D2A58024  13.629   3.504   6.753
 9545POPC   C3A58025  13.599   3.496   7.053
 9545POPC   C4A58026  13.664   3.586   7.353
 9545POPC   C1B58027  13.428   3.396   6.453
 9545POPC   C2B58028  13.436   3.459   6.753
 9545POPC   C3B58029  13.367   3.376   7.053
 9545POPC   C4B58030  13.424   3.386   7.353
 9546POPC   NC358031   4.362  18.321   5.553
 9546POPC   PO458032   4.305  18.298   5.853
 9546POPC   GL158033   4.365  18.308   6.153
 9546POPC   GL258034   4.245  18.365   6.153
 9546POPC   C1A58035   4.281  18.287   6.453
 9546POPC   D2A58036   4.329  18.261   6.753
 9546POPC   C3A58037   4.356  18.298   7.053
 9546POPC   C4A58038   4.362  18.270   7.353
 9546POPC   C1B58039   4.127  18.310   6.453
 9546POPC   C2B58040   4.121  18.354   6.753
 9546POPC   C3B58041   4.110  18.335   7.053
 9546POPC   C4B58042   4.102  18.346   7.353
 9547POPC   NC358043   6.685  33.016   5.553
 9547POPC   PO458044   6.681  33.033   5.853
 9547POPC   GL158045   6.599  33.026   6.153
 9547POPC   GL258046   6.585  32.892   6.153
 9547POPC   C1A58047   6.629  32.985   6.453
 9547POPC   D2A58048   6.641  32.984   6.753
 9547POPC   C3A58049   6.664  32.996   7.053
 9547POPC   C4A58050   6.620  33.050   7.353
 9547POPC   C1B58051   6.526  32.840   6.453
 9547POPC   C2B58052   6.499  32.855   6.753
 9547POPC   C3B58053   6.491  32.817   7.053
 9547POPC   C4B58054   6.552  32.838   7.353
 9548POPC   NC358055   4.345  43.888   5.553
 9548POPC   PO458056   4.356  43.895   5.853
 9548POPC   GL158057   4.352  43.837   6.153
 9548POPC   GL258058   4.195  43.958   6.153
 9548POPC   C1A58059   4.302  43.875   6.453
 9548POPC   D2A58060   4.355  43.871   6.753
 9548POPC   C3A58061   4.363  43.875   7.053
 9548POPC   C4A58062   4.364  43.855   7.353
 9548POPC   C1B58063   4.094  43.986   6.453
 9548POPC   C2B58064   4.132  44.057   6.753
 9548POPC   C3B58065   4.085  43.991   7.053
 9548POPC   C4B58066   4.120  44.050   7.353
 9549POPC   NC358067  19.810   7.381   5.553
 9549POPC   PO458068  19.861   7.446   5.853
 9549POPC   GL158069  19.793   7.427   6.153
 9549POPC   GL258070  19.675   7.444   6.153
 9549POPC   C1A58071  19.819   7.372   6.453
 9549POPC   D2A58072  19.863   7.427   6.753
 9549POPC   C3A58073  19.870   7.446   7.053
 9549POPC   C4A58074  19.883   7.457   7.353
 9549POPC   C1B58075  19.562   7.399   6.453
 9549POPC   C2B58076  19.608   7.457   6.753
 9549POPC   C3B58077  19.629   7.388   7.053
 9549POPC   C4B58078  19.608   7.455   7.353
 9550POPC   NC358079   5.885  42.365   5.553
 9550POPC   PO458080   5.837  42.322   5.853
 9550POPC   GL158081   5.861  42.321   6.153
 9550POPC   GL258082   5.822  42.254   6.153
 9550POPC   C1A58083   5.876  42.337   6.453
 9550POPC   D2A58084   5.913  42.351   6.753
 9550POPC   C3A58085   5.846  42.343   7.053
 9550POPC   C4A58086   5.878  42.300   7.353
 9550POPC   C1B58087   5.756  42.126   6.453
 9550POPC   C2B58088   5.823  42.056   6.753
 9550POPC   C3B58089   5.789  42.058   7.053
 9550POPC   C4B58090   5.794  42.146   7.353
 9551POPC   NC358091   2.039  24.477   5.553
 9551POPC   PO458092   2.021  24.486   5.853
 9551POPC   GL158093   1.949  24.485   6.153
 9551POPC   GL258094   2.118  24.522   6.153
 9551POPC   C1A58095   1.948  24.527   6.453
 9551POPC   D2A58096   1.940  24.497   6.753
 9551POPC   C3A58097   1.988  24.495   7.053
 9551POPC   C4A58098   1.945  24.526   7.353
 9551POPC   C1B58099   2.253  24.518   6.453
 9551POPC   C2B58100   2.255  24.596   6.753
 9551POPC   C3B58101   2.221  24.537   7.053
 9551POPC   C4B58102   2.251  24.575   7.353
 9552POPC   NC358103  32.273  44.705   5.553
 9552POPC   PO458104  32.245  44.652   5.853
 9552POPC   GL158105  32.244  44.678   6.153
 9552POPC   GL258106  32.381  44.702   6.153
 9552POPC   C1A58107  32.266  44.635   6.453
 9552POPC   D2A58108  32.292  44.690   6.753
 9552POPC   C3A58109  32.242  44.702   7.053
 9552POPC   C4A58110  32.267  44.689   7.353
 9552POPC   C1B58111  32.466  44.616   6.453
 9552POPC   C2B58112  32.519  44.674   6.753
 9552POPC   C3B58113  32.451  44.671   7.053
 9552POPC   C4B58114  32.490  44.619   7.353
 9553POPC   NC358115  24.523  17.460   5.553
 9553POPC   PO458116  24.514  17.501   5.853
 9553POPC   GL158117  24.502  17.489   6.153
 9553POPC   GL258118  24.440  17.345   6.153
 9553POPC   C1A58119  24.503  17.515   6.453
 9553POPC   D2A58120  24.482  17.466   6.753
 9553POPC   C3A58121  24.459  17.550   7.053
 9553POPC   C4A58122  24.527  17.474   7.353
 9553POPC   C1B58123  24.495  17.263   6.453
 9553POPC   C2B58124  24.459  17.209   6.753
 9553POPC   C3B58125  24.477  17.268   7.053
 9553POPC   C4B58126  24.464  17.272   7.353
 9554POPC   NC358127  44.628  30.744   5.553
 9554POPC   PO458128  44.636  30.672   5.853
 9554POPC   GL158129  44.639  30.657   6.153
 9554POPC   GL258130  44.760  30.658   6.153
 9554POPC   C1A58131  44.643  30.668   6.453
 9554POPC   D2A58132  44.707  30.699   6.753
 9554POPC   C3A58133  44.676  30.660   7.053
 9554POPC   C4A58134  44.637  30.744   7.353
 9554POPC   C1B58135  44.957  30.654   6.453
 9554POPC   C2B58136  44.927  30.648   6.753
 9554POPC   C3B58137  44.944  30.641   7.053
 9554POPC   C4B58138  44.942  30.635   7.353
 9555POPC   NC358139  43.855  19.088   5.553
 9555POPC   PO458140  43.930  19.097   5.853
 9555POPC   GL158141  43.868  19.054   6.153
 9555POPC   GL258142  43.984  18.998   6.153
 9555POPC   C1A58143  43.851  19.037   6.453
 9555POPC   D2A58144  43.897  19.020   6.753
 9555POPC   C3A58145  43.893  19.103   7.053
 9555POPC   C4A58146  43.910  19.097   7.353
 9555POPC   C1B58147  43.964  18.814   6.453
 9555POPC   C2B58148  44.003  18.836   6.753
 9555POPC   C3B58149  43.963  18.819   7.053
 9555POPC   C4B58150  43.959  18.852   7.353
 9556POPC   NC358151  30.663  28.405   5.553
 9556POPC   PO458152  30.650  28.399   5.853
 9556POPC   GL158153  30.649  28.367   6.153
 9556POPC   GL258154  30.689  28.258   6.153
 9556POPC   C1A58155  30.719  28.349   6.453
 9556POPC   D2A58156  30.735  28.341   6.753
 9556POPC   C3A58157  30.707  28.353   7.053
 9556POPC   C4A58158  30.693  28.374   7.353
 9556POPC   C1B58159  30.769  28.148   6.453
 9556POPC   C2B58160  30.784  28.152   6.753
 9556POPC   C3B58161  30.708  28.134   7.053
 9556POPC   C4B58162  30.746  28.164   7.353
 9557POPC   NC358163  22.918   8.966   5.553
 9557POPC   PO458164  22.921   8.963   5.853
 9557POPC   GL158165  22.932   9.002   6.153
 9557POPC   GL258166  23.042   8.921   6.153
 9557POPC   C1A58167  22.898   8.981   6.453
 9557POPC   D2A58168  22.934   8.932   6.753
 9557POPC   C3A58169  22.931   8.956   7.053
 9557POPC   C4A58170  22.921   8.928   7.353
 9557POPC   C1B58171  23.154   8.885   6.453
 9557POPC   C2B58172  23.143   8.904   6.753
 9557POPC   C3B58173  23.174   8.983   7.053
 9557POPC   C4B58174  23.179   8.944   7.353
 9558POPC   NC358175  35.328  12.125   5.553
 9558POPC   PO458176  35.370  12.060   5.853
 9558POPC   GL158177  35.347  12.113   6.153
 9558POPC   GL258178  35.478  12.149   6.153
 9558POPC   C1A58179  35.338  12.110   6.453
 9558POPC   D2A58180  35.353  12.123   6.753
 9558POPC   C3A58181  35.309  12.050   7.053
 9558POPC   C4A58182  35.327  12.069   7.353
 9558POPC   C1B58183  35.611  12.135   6.453
 9558POPC   C2B58184  35.572  12.146   6.753
 9558POPC   C3B58185  35.551  12.176   7.053
 9558POPC   C4B58186  35.557  12.085   7.353
 9559POPC   NC358187  15.182   3.497   5.553
 9559POPC   PO458188  15.158   3.511   5.853
 9559POPC   GL158189  15.224   3.585   6.153
 9559POPC   GL258190  15.017   3.536   6.153
 9559POPC   C1A58191  15.175   3.582   6.453
 9559POPC   D2A58192  15.218   3.547   6.753
 9559POPC   C3A58193  15.137   3.546   7.053
 9559POPC   C4A58194  15.166   3.510   7.353
 9559POPC   C1B58195  14.973   3.641   6.453
 9559POPC   C2B58196  14.972   3.636   6.753
 9559POPC   C3B58197  14.909   3.628   7.053
 9559POPC   C4B58198  14.896   3.561   7.353
 9560POPC   NC358199   0.445  16.754   5.553
 9560POPC   PO458200   0.403  16.759   5.853
 9560POPC   GL158201   0.480  16.735   6.153
 9560POPC   GL258202   0.488  16.879   6.153
 9560POPC   C1A58203   0.468  16.714   6.453
 9560POPC   D2A58204   0.397  16.698   6.753
 9560POPC   C3A58205   0.423  16.754   7.053
 9560POPC   C4A58206   0.421  16.756   7.353
 9560POPC   C1B58207   0.470  16.934   6.453
 9560POPC   C2B58208   0.431  16.996   6.753
 9560POPC   C3B58209   0.485  16.947   7.053
 9560POPC   C4B58210   0.449  16.928   7.353
 9561POPC   NC358211   8.202  37.722   5.553
 9561POPC   PO458212   8.204  37.673   5.853
 9561POPC   GL158213   8.150  37.634   6.153
 9561POPC   GL258214   8.165  37.525   6.153
 9561POPC   C1A58215   8.222  37.631   6.453
 9561POPC   D2A58216   8.170  37.714   6.753
 9561POPC   C3A58217   8.186  37.660   7.053
 9561POPC   C4A58218   8.167  37.639   7.353
 9561POPC   C1B58219   8.156  37.454   6.453
 9561POPC   C2B58220   8.154  37.403   6.753
 9561POPC   C3B58221   8.218  37.408   7.053
 9561POPC   C4B58222   8.193  37.397   7.353
 9562POPC   NC358223  12.039  16.699   5.553
 9562POPC   PO458224  12.122  16.694   5.853
 9562POPC   GL158225  12.068  16.724   6.153
 9562POPC   GL258226  11.994  16.675   6.153
 9562POPC   C1A58227  12.055  16.745   6.453
 9562POPC   D2A58228  12.036  16.692   6.753
 9562POPC   C3A58229  12.124  16.701   7.053
 9562POPC   C4A58230  12.095  16.710   7.353
 9562POPC   C1B58231  11.870  16.608   6.453
 9562POPC   C2B58232  11.875  16.610   6.753
 9562POPC   C3B58233  11.805  16.620   7.053
 9562POPC   C4B58234  11.822  16.664   7.353
 9563POPC   NC358235   0.486  19.065   5.553
 9563POPC   PO458236   0.450  19.084   5.853
 9563POPC   GL158237   0.421  19.073   6.153
 9563POPC   GL258238   0.505  18.959   6.153
 9563POPC   C1A58239   0.468  19.082   6.453
 9563POPC   D2A58240   0.471  19.077   6.753
 9563POPC   C3A58241   0.444  19.077   7.053
 9563POPC   C4A58242   0.408  19.085   7.353
 9563POPC   C1B58243   0.480  18.839   6.453
 9563POPC   C2B58244   0.511  18.853   6.753
 9563POPC   C3B58245   0.463  18.811   7.053
 9563POPC   C4B58246   0.469  18.788   7.353
 9564POPC   NC358247  10.498  40.750   5.553
 9564POPC   PO458248  10.492  40.790   5.853
 9564POPC   GL158249  10.497  40.787   6.153
 9564POPC   GL258250  10.422  40.678   6.153
 9564POPC   C1A58251  10.514  40.793   6.453
 9564POPC   D2A58252  10.505  40.793   6.753
 9564POPC   C3A58253  10.494  40.754   7.053
 9564POPC   C4A58254  10.474  40.770   7.353
 9564POPC   C1B58255  10.344  40.659   6.453
 9564POPC   C2B58256  10.361  40.643   6.753
 9564POPC   C3B58257  10.276  40.677   7.053
 9564POPC   C4B58258  10.311  40.685   7.353
 9565POPC   NC358259  25.253   5.092   5.553
 9565POPC   PO458260  25.266   5.114   5.853
 9565POPC   GL158261  25.297   5.121   6.153
 9565POPC   GL258262  25.252   5.168   6.153
 9565POPC   C1A58263  25.271   5.104   6.453
 9565POPC   D2A58264  25.302   5.048   6.753
 9565POPC   C3A58265  25.309   5.049   7.053
 9565POPC   C4A58266  25.256   5.057   7.353
 9565POPC   C1B58267  25.173   5.386   6.453
 9565POPC   C2B58268  25.247   5.376   6.753
 9565POPC   C3B58269  25.183   5.301   7.053
 9565POPC   C4B58270  25.235   5.360   7.353
 9566POPC   NC358271  29.923  17.531   5.553
 9566POPC   PO458272  29.970  17.553   5.853
 9566POPC   GL158273  29.959  17.517   6.153
 9566POPC   GL258274  29.872  17.652   6.153
 9566POPC   C1A58275  29.871  17.482   6.453
 9566POPC   D2A58276  29.877  17.537   6.753
 9566POPC   C3A58277  29.937  17.490   7.053
 9566POPC   C4A58278  29.891  17.537   7.353
 9566POPC   C1B58279  29.799  17.759   6.453
 9566POPC   C2B58280  29.868  17.773   6.753
 9566POPC   C3B58281  29.842  17.713   7.053
 9566POPC   C4B58282  29.880  17.784   7.353
 9567POPC   NC358283  32.987  12.125   5.553
 9567POPC   PO458284  33.010  12.041   5.853
 9567POPC   GL158285  33.025  12.083   6.153
 9567POPC   GL258286  32.865  12.162   6.153
 9567POPC   C1A58287  33.023  12.091   6.453
 9567POPC   D2A58288  33.070  12.078   6.753
 9567POPC   C3A58289  32.992  12.093   7.053
 9567POPC   C4A58290  33.029  12.089   7.353
 9567POPC   C1B58291  32.818  12.205   6.453
 9567POPC   C2B58292  32.781  12.203   6.753
 9567POPC   C3B58293  32.787  12.157   7.053
 9567POPC   C4B58294  32.773  12.174   7.353
 9568POPC   NC358295   4.347  36.868   5.553
 9568POPC   PO458296   4.318  36.873   5.853
 9568POPC   GL158297   4.288  36.890   6.153
 9568POPC   GL258298   4.201  36.916   6.153
 9568POPC   C1A58299   4.312  36.928   6.453
 9568POPC   D2A58300   4.341  36.945   6.753
 9568POPC   C3A58301   4.277  36.886   7.053
 9568POPC   C4A58302   4.365  36.925   7.353
 9568POPC   C1B58303   4.036  36.912   6.453
 9568POPC   C2B58304   4.104  36.880   6.753
 9568POPC   C3B58305   4.044  36.919   7.053
 9568POPC   C4B58306   4.024  36.847   7.353
 9569POPC   NC358307  30.746  30.728   5.553
 9569POPC   PO458308  30.714  30.679   5.853
 9569POPC   GL158309  30.738  30.661   6.153
 9569POPC   GL258310  30.758  30.777   6.153
 9569POPC   C1A58311  30.669  30.738   6.453
 9569POPC   D2A58312  30.678  30.734   6.753
 9569POPC   C3A58313  30.708  30.728   7.053
 9569POPC   C4A58314  30.695  30.656   7.353
 9569POPC   C1B58315  30.768  30.879   6.453
 9569POPC   C2B58316  30.810  30.903   6.753
 9569POPC   C3B58317  30.762  30.949   7.053
 9569POPC   C4B58318  30.783  30.901   7.353
 9570POPC   NC358319  18.280   8.187   5.553
 9570POPC   PO458320  18.332   8.173   5.853
 9570POPC   GL158321  18.302   8.221   6.153
 9570POPC   GL258322  18.377   8.104   6.153
 9570POPC   C1A58323  18.264   8.187   6.453
 9570POPC   D2A58324  18.284   8.199   6.753
 9570POPC   C3A58325  18.252   8.179   7.053
 9570POPC   C4A58326  18.266   8.229   7.353
 9570POPC   C1B58327  18.470   8.092   6.453
 9570POPC   C2B58328  18.558   8.134   6.753
 9570POPC   C3B58329  18.469   8.083   7.053
 9570POPC   C4B58330  18.519   8.072   7.353
 9571POPC   NC358331  23.723   3.526   5.553
 9571POPC   PO458332  23.721   3.498   5.853
 9571POPC   GL158333  23.747   3.560   6.153
 9571POPC   GL258334  23.769   3.625   6.153
 9571POPC   C1A58335  23.692   3.561   6.453
 9571POPC   D2A58336  23.758   3.493   6.753
 9571POPC   C3A58337  23.726   3.579   7.053
 9571POPC   C4A58338  23.672   3.499   7.353
 9571POPC   C1B58339  23.823   3.774   6.453
 9571POPC   C2B58340  23.833   3.744   6.753
 9571POPC   C3B58341  23.906   3.762   7.053
 9571POPC   C4B58342  23.844   3.720   7.353
 9572POPC   NC358343   3.505  38.495   5.553
 9572POPC   PO458344   3.516  38.426   5.853
 9572POPC   GL158345   3.534  38.447   6.153
 9572POPC   GL258346   3.441  38.479   6.153
 9572POPC   C1A58347   3.557  38.454   6.453
 9572POPC   D2A58348   3.574  38.462   6.753
 9572POPC   C3A58349   3.499  38.467   7.053
 9572POPC   C4A58350   3.583  38.471   7.353
 9572POPC   C1B58351   3.273  38.561   6.453
 9572POPC   C2B58352   3.300  38.596   6.753
 9572POPC   C3B58353   3.326  38.559   7.053
 9572POPC   C4B58354   3.301  38.591   7.353
 9573POPC   NC358355  11.321  11.321   5.553
 9573POPC   PO458356  11.260  11.342   5.853
 9573POPC   GL158357  11.320  11.263   6.153
 9573POPC   GL258358  11.438  11.400   6.153
 9573POPC   C1A58359  11.253  11.307   6.453
 9573POPC   D2A58360  11.336  11.297   6.753
 9573POPC   C3A58361  11.292  11.253   7.053
 9573POPC   C4A58362  11.330  11.253   7.353
 9573POPC   C1B58363  11.528  11.466   6.453
 9573POPC   C2B58364  11.480  11.493   6.753
 9573POPC   C3B58365  11.498  11.500   7.053
 9573POPC   C4B58366  11.436  11.454   7.353
 9574POPC   NC358367  36.943  39.977   5.553
 9574POPC   PO458368  36.931  40.010   5.853
 9574POPC   GL158369  36.916  39.983   6.153
 9574POPC   GL258370  37.055  39.908   6.153
 9574POPC   C1A58371  36.881  39.964   6.453
 9574POPC   D2A58372  36.863  39.987   6.753
 9574POPC   C3A58373  36.888  40.019   7.053
 9574POPC   C4A58374  36.916  40.002   7.353
 9574POPC   C1B58375  37.099  39.830   6.453
 9574POPC   C2B58376  37.072  39.876   6.753
 9574POPC   C3B58377  37.142  39.851   7.053
 9574POPC   C4B58378  37.102  39.889   7.353
 9575POPC   NC358379   0.396  26.015   5.553
 9575POPC   PO458380   0.484  26.042   5.853
 9575POPC   GL158381   0.463  26.020   6.153
 9575POPC   GL258382   0.546  25.941   6.153
 9575POPC   C1A58383   0.418  26.021   6.453
 9575POPC   D2A58384   0.442  26.024   6.753
 9575POPC   C3A58385   0.464  26.090   7.053
 9575POPC   C4A58386   0.389  25.999   7.353
 9575POPC   C1B58387   0.600  25.937   6.453
 9575POPC   C2B58388   0.666  25.906   6.753
 9575POPC   C3B58389   0.639  25.938   7.053
 9575POPC   C4B58390   0.653  25.926   7.353
 9576POPC   NC358391   1.999   0.425   5.553
 9576POPC   PO458392   2.022   0.423   5.853
 9576POPC   GL158393   2.019   0.391   6.153
 9576POPC   GL258394   2.137   0.440   6.153
 9576POPC   C1A58395   2.004   0.478   6.453
 9576POPC   D2A58396   1.972   0.396   6.753
 9576POPC   C3A58397   1.974   0.446   7.053
 9576POPC   C4A58398   2.005   0.439   7.353
 9576POPC   C1B58399   2.258   0.413   6.453
 9576POPC   C2B58400   2.196   0.476   6.753
 9576POPC   C3B58401   2.265   0.468   7.053
 9576POPC   C4B58402   2.190   0.492   7.353
 9577POPC   NC358403   3.574  19.799   5.553
 9577POPC   PO458404   3.501  19.881   5.853
 9577POPC   GL158405   3.581  19.860   6.153
 9577POPC   GL258406   3.430  19.875   6.153
 9577POPC   C1A58407   3.510  19.848   6.453
 9577POPC   D2A58408   3.541  19.822   6.753
 9577POPC   C3A58409   3.578  19.830   7.053
 9577POPC   C4A58410   3.575  19.842   7.353
 9577POPC   C1B58411   3.377  19.973   6.453
 9577POPC   C2B58412   3.366  20.017   6.753
 9577POPC   C3B58413   3.331  20.005   7.053
 9577POPC   C4B58414   3.389  20.036   7.353
 9578POPC   NC358415  38.417  11.343   5.553
 9578POPC   PO458416  38.455  11.277   5.853
 9578POPC   GL158417  38.442  11.264   6.153
 9578POPC   GL258418  38.470  11.405   6.153
 9578POPC   C1A58419  38.502  11.277   6.453
 9578POPC   D2A58420  38.460  11.254   6.753
 9578POPC   C3A58421  38.498  11.347   7.053
 9578POPC   C4A58422  38.453  11.315   7.353
 9578POPC   C1B58423  38.531  11.591   6.453
 9578POPC   C2B58424  38.522  11.507   6.753
 9578POPC   C3B58425  38.467  11.523   7.053
 9578POPC   C4B58426  38.462  11.536   7.353
 9579POPC   NC358427  11.341   9.716   5.553
 9579POPC   PO458428  11.347   9.731   5.853
 9579POPC   GL158429  11.270   9.721   6.153
 9579POPC   GL258430  11.341   9.584   6.153
 9579POPC   C1A58431  11.328   9.761   6.453
 9579POPC   D2A58432  11.304   9.753   6.753
 9579POPC   C3A58433  11.258   9.715   7.053
 9579POPC   C4A58434  11.342   9.742   7.353
 9579POPC   C1B58435  11.319   9.529   6.453
 9579POPC   C2B58436  11.272   9.490   6.753
 9579POPC   C3B58437  11.299   9.495   7.053
 9579POPC   C4B58438  11.330   9.537   7.353
 9580POPC   NC358439  36.152  21.429   5.553
 9580POPC   PO458440  36.150  21.434   5.853
 9580POPC   GL158441  36.135  21.347   6.153
 9580POPC   GL258442  36.172  21.351   6.153
 9580POPC   C1A58443  36.133  21.358   6.453
 9580POPC   D2A58444  36.159  21.342   6.753
 9580POPC   C3A58445  36.094  21.399   7.053
 9580POPC   C4A58446  36.161  21.389   7.353
 9580POPC   C1B58447  36.281  21.238   6.453
 9580POPC   C2B58448  36.348  21.187   6.753
 9580POPC   C3B58449  36.318  21.181   7.053
 9580POPC   C4B58450  36.280  21.170   7.353
 9581POPC   NC358451  17.541  29.144   5.553
 9581POPC   PO458452  17.462  29.149   5.853
 9581POPC   GL158453  17.504  29.106   6.153
 9581POPC   GL258454  17.404  29.040   6.153
 9581POPC   C1A58455  17.514  29.156   6.453
 9581POPC   D2A58456  17.518  29.142   6.753
 9581POPC   C3A58457  17.491  29.107   7.053
 9581POPC   C4A58458  17.473  29.119   7.353
 9581POPC   C1B58459  17.274  29.018   6.453
 9581POPC   C2B58460  17.311  29.027   6.753
 9581POPC   C3B58461  17.354  29.022   7.053
 9581POPC   C4B58462  17.278  28.977   7.353
 9582POPC   NC358463  19.830  34.581   5.553
 9582POPC   PO458464  19.878  34.606   5.853
 9582POPC   GL158465  19.817  34.535   6.153
 9582POPC   GL258466  19.902  34.448   6.153
 9582POPC   C1A58467  19.849  34.621   6.453
 9582POPC   D2A58468  19.837  34.621   6.753
 9582POPC   C3A58469  19.872  34.589   7.053
 9582POPC   C4A58470  19.876  34.540   7.353
 9582POPC   C1B58471  19.987  34.433   6.453
 9582POPC   C2B58472  20.015  34.396   6.753
 9582POPC   C3B58473  20.051  34.418   7.053
 9582POPC   C4B58474  20.048  34.444   7.353
 9583POPC   NC358475  36.904  32.291   5.553
 9583POPC   PO458476  36.892  32.242   5.853
 9583POPC   GL158477  36.864  32.240   6.153
 9583POPC   GL258478  37.038  32.321   6.153
 9583POPC   C1A58479  36.932  32.298   6.453
 9583POPC   D2A58480  36.936  32.295   6.753
 9583POPC   C3A58481  36.896  32.264   7.053
 9583POPC   C4A58482  36.938  32.234   7.353
 9583POPC   C1B58483  37.125  32.321   6.453
 9583POPC   C2B58484  37.172  32.360   6.753
 9583POPC   C3B58485  37.135  32.376   7.053
 9583POPC   C4B58486  37.159  32.359   7.353
 9584POPC   NC358487   9.012  14.416   5.553
 9584POPC   PO458488   9.017  14.451   5.853
 9584POPC   GL158489   8.946  14.428   6.153
 9584POPC   GL258490   8.986  14.288   6.153
 9584POPC   C1A58491   8.961  14.363   6.453
 9584POPC   D2A58492   8.924  14.358   6.753
 9584POPC   C3A58493   9.019  14.408   7.053
 9584POPC   C4A58494   8.984  14.452   7.353
 9584POPC   C1B58495   8.899  14.134   6.453
 9584POPC   C2B58496   8.920  14.207   6.753
 9584POPC   C3B58497   8.947  14.187   7.053
 9584POPC   C4B58498   8.910  14.116   7.353
 9585POPC   NC358499   1.983  22.919   5.553
 9585POPC   PO458500   2.016  22.901   5.853
 9585POPC   GL158501   2.035  22.899   6.153
 9585POPC   GL258502   1.926  22.858   6.153
 9585POPC   C1A58503   2.020  22.926   6.453
 9585POPC   D2A58504   1.964  22.963   6.753
 9585POPC   C3A58505   2.034  22.985   7.053
 9585POPC   C4A58506   1.994  22.956   7.353
 9585POPC   C1B58507   1.876  22.738   6.453
 9585POPC   C2B58508   1.939  22.650   6.753
 9585POPC   C3B58509   1.944  22.705   7.053
 9585POPC   C4B58510   1.936  22.677   7.353
 9586POPC   NC358511   0.468  33.061   5.553
 9586POPC   PO458512   0.483  32.979   5.853
 9586POPC   GL158513   0.411  33.018   6.153
 9586POPC   GL258514   0.574  33.070   6.153
 9586POPC   C1A58515   0.393  33.050   6.453
 9586POPC   D2A58516   0.410  33.072   6.753
 9586POPC   C3A58517   0.422  32.990   7.053
 9586POPC   C4A58518   0.479  33.072   7.353
 9586POPC   C1B58519   0.705  33.052   6.453
 9586POPC   C2B58520   0.663  33.052   6.753
 9586POPC   C3B58521   0.668  33.116   7.053
 9586POPC   C4B58522   0.730  33.055   7.353
 9587POPC   NC358523  41.568  41.514   5.553
 9587POPC   PO458524  41.577  41.601   5.853
 9587POPC   GL158525  41.514  41.569   6.153
 9587POPC   GL258526  41.556  41.680   6.153
 9587POPC   C1A58527  41.592  41.598   6.453
 9587POPC   D2A58528  41.607  41.580   6.753
 9587POPC   C3A58529  41.590  41.533   7.053
 9587POPC   C4A58530  41.562  41.566   7.353
 9587POPC   C1B58531  41.536  41.826   6.453
 9587POPC   C2B58532  41.536  41.830   6.753
 9587POPC   C3B58533  41.563  41.848   7.053
 9587POPC   C4B58534  41.515  41.823   7.353
 9588POPC   NC358535  41.548  21.336   5.553
 9588POPC   PO458536  41.565  21.429   5.853
 9588POPC   GL158537  41.554  21.338   6.153
 9588POPC   GL258538  41.602  21.531   6.153
 9588POPC   C1A58539  41.599  21.376   6.453
 9588POPC   D2A58540  41.511  21.347   6.753
 9588POPC   C3A58541  41.563  21.356   7.053
 9588POPC   C4A58542  41.540  21.383   7.353
 9588POPC   C1B58543  41.598  21.594   6.453
 9588POPC   C2B58544  41.623  21.681   6.753
 9588POPC   C3B58545  41.555  21.650   7.053
 9588POPC   C4B58546  41.535  21.663   7.353
 9589POPC   NC358547   1.167  15.941   5.553
 9589POPC   PO458548   1.174  15.908   5.853
 9589POPC   GL158549   1.238  16.001   6.153
 9589POPC   GL258550   1.242  15.799   6.153
 9589POPC   C1A58551   1.227  15.919   6.453
 9589POPC   D2A58552   1.193  15.919   6.753
 9589POPC   C3A58553   1.170  15.955   7.053
 9589POPC   C4A58554   1.242  15.984   7.353
 9589POPC   C1B58555   1.340  15.700   6.453
 9589POPC   C2B58556   1.339  15.742   6.753
 9589POPC   C3B58557   1.350  15.730   7.053
 9589POPC   C4B58558   1.286  15.704   7.353
 9590POPC   NC358559   5.855   2.727   5.553
 9590POPC   PO458560   5.893   2.729   5.853
 9590POPC   GL158561   5.902   2.763   6.153
 9590POPC   GL258562   5.984   2.674   6.153
 9590POPC   C1A58563   5.889   2.804   6.453
 9590POPC   D2A58564   5.915   2.782   6.753
 9590POPC   C3A58565   5.865   2.805   7.053
 9590POPC   C4A58566   5.875   2.772   7.353
 9590POPC   C1B58567   6.023   2.574   6.453
 9590POPC   C2B58568   6.009   2.587   6.753
 9590POPC   C3B58569   6.036   2.525   7.053
 9590POPC   C4B58570   6.060   2.554   7.353
 9591POPC   NC358571  15.132  12.125   5.553
 9591POPC   PO458572  15.154  12.028   5.853
 9591POPC   GL158573  15.169  12.111   6.153
 9591POPC   GL258574  15.117  11.913   6.153
 9591POPC   C1A58575  15.157  12.078   6.453
 9591POPC   D2A58576  15.155  12.101   6.753
 9591POPC   C3A58577  15.206  12.027   7.053
 9591POPC   C4A58578  15.212  12.113   7.353
 9591POPC   C1B58579  15.169  11.840   6.453
 9591POPC   C2B58580  15.127  11.802   6.753
 9591POPC   C3B58581  15.104  11.805   7.053
 9591POPC   C4B58582  15.094  11.866   7.353
 9592POPC   NC358583  34.569  31.475   5.553
 9592POPC   PO458584  34.548  31.443   5.853
 9592POPC   GL158585  34.574  31.476   6.153
 9592POPC   GL258586  34.444  31.378   6.153
 9592POPC   C1A58587  34.550  31.467   6.453
 9592POPC   D2A58588  34.547  31.501   6.753
 9592POPC   C3A58589  34.532  31.478   7.053
 9592POPC   C4A58590  34.599  31.469   7.353
 9592POPC   C1B58591  34.387  31.342   6.453
 9592POPC   C2B58592  34.352  31.286   6.753
 9592POPC   C3B58593  34.418  31.308   7.053
 9592POPC   C4B58594  34.427  31.356   7.353
 9593POPC   NC358595   0.443  27.551   5.553
 9593POPC   PO458596   0.404  27.577   5.853
 9593POPC   GL158597   0.391  27.598   6.153
 9593POPC   GL258598   0.519  27.686   6.153
 9593POPC   C1A58599   0.484  27.641   6.453
 9593POPC   D2A58600   0.405  27.627   6.753
 9593POPC   C3A58601   0.451  27.545   7.053
 9593POPC   C4A58602   0.423  27.613   7.353
 9593POPC   C1B58603   0.707  27.668   6.453
 9593POPC   C2B58604   0.705  27.662   6.753
 9593POPC   C3B58605   0.643  27.660   7.053
 9593POPC   C4B58606   0.665  27.744   7.353
 9594POPC   NC358607   8.176  39.218   5.553
 9594POPC   PO458608   8.156  39.269   5.853
 9594POPC   GL158609   8.153  39.215   6.153
 9594POPC   GL258610   8.132  39.349   6.153
 9594POPC   C1A58611   8.197  39.277   6.453
 9594POPC   D2A58612   8.235  39.237   6.753
 9594POPC   C3A58613   8.181  39.231   7.053
 9594POPC   C4A58614   8.245  39.272   7.353
 9594POPC   C1B58615   8.010  39.427   6.453
 9594POPC   C2B58616   8.060  39.359   6.753
 9594POPC   C3B58617   8.024  39.362   7.053
 9594POPC   C4B58618   8.011  39.376   7.353
 9595POPC   NC358619  39.190  28.361   5.553
 9595POPC   PO458620  39.230  28.392   5.853
 9595POPC   GL158621  39.240  28.336   6.153
 9595POPC   GL258622  39.299  28.210   6.153
 9595POPC   C1A58623  39.218  28.319   6.453
 9595POPC   D2A58624  39.181  28.393   6.753
 9595POPC   C3A58625  39.243  28.321   7.053
 9595POPC   C4A58626  39.234  28.339   7.353
 9595POPC   C1B58627  39.357  28.195   6.453
 9595POPC   C2B58628  39.308  28.182   6.753
 9595POPC   C3B58629  39.319  28.196   7.053
 9595POPC   C4B58630  39.378  28.112   7.353
 9596POPC   NC358631  22.131   8.179   5.553
 9596POPC   PO458632  22.152   8.226   5.853
 9596POPC   GL158633  22.193   8.209   6.153
 9596POPC   GL258634  22.025   8.299   6.153
 9596POPC   C1A58635  22.118   8.172   6.453
 9596POPC   D2A58636  22.177   8.235   6.753
 9596POPC   C3A58637  22.208   8.187   7.053
 9596POPC   C4A58638  22.149   8.232   7.353
 9596POPC   C1B58639  21.954   8.361   6.453
 9596POPC   C2B58640  21.963   8.383   6.753
 9596POPC   C3B58641  22.011   8.325   7.053
 9596POPC   C4B58642  21.975   8.391   7.353
 9597POPC   NC358643  36.906  33.011   5.553
 9597POPC   PO458644  36.878  33.033   5.853
 9597POPC   GL158645  36.873  33.001   6.153
 9597POPC   GL258646  36.950  32.928   6.153
 9597POPC   C1A58647  36.907  33.009   6.453
 9597POPC   D2A58648  36.930  33.051   6.753
 9597POPC   C3A58649  36.911  33.025   7.053
 9597POPC   C4A58650  36.921  32.982   7.353
 9597POPC   C1B58651  37.004  32.831   6.453
 9597POPC   C2B58652  37.057  32.854   6.753
 9597POPC   C3B58653  36.998  32.774   7.053
 9597POPC   C4B58654  37.061  32.770   7.353
 9598POPC   NC358655   5.098   4.354   5.553
 9598POPC   PO458656   5.108   4.291   5.853
 9598POPC   GL158657   5.092   4.311   6.153
 9598POPC   GL258658   4.976   4.342   6.153
 9598POPC   C1A58659   5.123   4.348   6.453
 9598POPC   D2A58660   5.077   4.269   6.753
 9598POPC   C3A58661   5.079   4.353   7.053
 9598POPC   C4A58662   5.133   4.318   7.353
 9598POPC   C1B58663   4.854   4.292   6.453
 9598POPC   C2B58664   4.819   4.253   6.753
 9598POPC   C3B58665   4.844   4.252   7.053
 9598POPC   C4B58666   4.847   4.306   7.353
 9599POPC   NC358667  34.593  26.078   5.553
 9599POPC   PO458668  34.558  26.037   5.853
 9599POPC   GL158669  34.552  26.030   6.153
 9599POPC   GL258670  34.478  25.969   6.153
 9599POPC   C1A58671  34.587  26.080   6.453
 9599POPC   D2A58672  34.582  25.998   6.753
 9599POPC   C3A58673  34.591  26.086   7.053
 9599POPC   C4A58674  34.568  26.021   7.353
 9599POPC   C1B58675  34.372  25.920   6.453
 9599POPC   C2B58676  34.353  25.854   6.753
 9599POPC   C3B58677  34.384  25.936   7.053
 9599POPC   C4B58678  34.418  25.932   7.353
 9600POPC   NC358679  22.945  15.200   5.553
 9600POPC   PO458680  22.925  15.175   5.853
 9600POPC   GL158681  22.985  15.145   6.153
 9600POPC   GL258682  22.936  15.258   6.153
 9600POPC   C1A58683  22.986  15.217   6.453
 9600POPC   D2A58684  22.901  15.144   6.753
 9600POPC   C3A58685  22.981  15.177   7.053
 9600POPC   C4A58686  22.963  15.179   7.353
 9600POPC   C1B58687  22.838  15.400   6.453
 9600POPC   C2B58688  22.861  15.367   6.753
 9600POPC   C3B58689  22.825  15.394   7.053
 9600POPC   C4B58690  22.808  15.391   7.353
 9601POPC   NC358691   2.743   3.569   5.553
 9601POPC   PO458692   2.738   3.570   5.853
 9601POPC   GL158693   2.812   3.567   6.153
 9601POPC   GL258694   2.667   3.458   6.153
 9601POPC   C1A58695   2.752   3.492   6.453
 9601POPC   D2A58696   2.731   3.558   6.753
 9601POPC   C3A58697   2.800   3.588   7.053
 9601POPC   C4A58698   2.804   3.585   7.353
 9601POPC   C1B58699   2.570   3.394   6.453
 9601POPC   C2B58700   2.588   3.338   6.753
 9601POPC   C3B58701   2.605   3.402   7.053
 9601POPC   C4B58702   2.575   3.367   7.353
 9602POPC   NC358703   4.305   5.116   5.553
 9602POPC   PO458704   4.312   5.103   5.853
 9602POPC   GL158705   4.312   5.142   6.153
 9602POPC   GL258706   4.165   5.110   6.153
 9602POPC   C1A58707   4.313   5.118   6.453
 9602POPC   D2A58708   4.325   5.073   6.753
 9602POPC   C3A58709   4.277   5.092   7.053
 9602POPC   C4A58710   4.317   5.065   7.353
 9602POPC   C1B58711   4.059   5.112   6.453
 9602POPC   C2B58712   4.076   5.084   6.753
 9602POPC   C3B58713   4.051   5.139   7.053
 9602POPC   C4B58714   4.080   5.125   7.353
 9603POPC   NC358715  22.132  32.263   5.553
 9603POPC   PO458716  22.148  32.273   5.853
 9603POPC   GL158717  22.140  32.283   6.153
 9603POPC   GL258718  22.192  32.320   6.153
 9603POPC   C1A58719  22.120  32.237   6.453
 9603POPC   D2A58720  22.167  32.208   6.753
 9603POPC   C3A58721  22.164  32.280   7.053
 9603POPC   C4A58722  22.198  32.283   7.353
 9603POPC   C1B58723  22.230  32.502   6.453
 9603POPC   C2B58724  22.177  32.444   6.753
 9603POPC   C3B58725  22.255  32.497   7.053
 9603POPC   C4B58726  22.250  32.521   7.353
 9604POPC   NC358727  30.716  37.707   5.553
 9604POPC   PO458728  30.689  37.706   5.853
 9604POPC   GL158729  30.673  37.670   6.153
 9604POPC   GL258730  30.654  37.538   6.153
 9604POPC   C1A58731  30.720  37.692   6.453
 9604POPC   D2A58732  30.697  37.711   6.753
 9604POPC   C3A58733  30.732  37.722   7.053
 9604POPC   C4A58734  30.692  37.658   7.353
 9604POPC   C1B58735  30.545  37.473   6.453
 9604POPC   C2B58736  30.566  37.459   6.753
 9604POPC   C3B58737  30.609  37.416   7.053
 9604POPC   C4B58738  30.578  37.474   7.353
 9605POPC   NC358739  28.343  28.374   5.553
 9605POPC   PO458740  28.357  28.395   5.853
 9605POPC   GL158741  28.399  28.356   6.153
 9605POPC   GL258742  28.436  28.527   6.153
 9605POPC   C1A58743  28.414  28.384   6.453
 9605POPC   D2A58744  28.358  28.386   6.753
 9605POPC   C3A58745  28.323  28.357   7.053
 9605POPC   C4A58746  28.400  28.324   7.353
 9605POPC   C1B58747  28.465  28.548   6.453
 9605POPC   C2B58748  28.441  28.626   6.753
 9605POPC   C3B58749  28.425  28.605   7.053
 9605POPC   C4B58750  28.460  28.591   7.353
 9606POPC   NC358751  28.397  43.068   5.553
 9606POPC   PO458752  28.371  43.159   5.853
 9606POPC   GL158753  28.324  43.154   6.153
 9606POPC   GL258754  28.385  43.231   6.153
 9606POPC   C1A58755  28.357  43.099   6.453
 9606POPC   D2A58756  28.359  43.071   6.753
 9606POPC   C3A58757  28.332  43.131   7.053
 9606POPC   C4A58758  28.390  43.062   7.353
 9606POPC   C1B58759  28.398  43.399   6.453
 9606POPC   C2B58760  28.430  43.389   6.753
 9606POPC   C3B58761  28.410  43.380   7.053
 9606POPC   C4B58762  28.439  43.340   7.353
 9607POPC   NC358763   3.538  15.964   5.553
 9607POPC   PO458764   3.541  15.986   5.853
 9607POPC   GL158765   3.511  15.936   6.153
 9607POPC   GL258766   3.544  16.061   6.153
 9607POPC   C1A58767   3.519  15.933   6.453
 9607POPC   D2A58768   3.569  15.990   6.753
 9607POPC   C3A58769   3.569  15.987   7.053
 9607POPC   C4A58770   3.560  15.939   7.353
 9607POPC   C1B58771   3.494  16.171   6.453
 9607POPC   C2B58772   3.484  16.234   6.753
 9607POPC   C3B58773   3.520  16.168   7.053
 9607POPC   C4B58774   3.549  16.198   7.353
 9608POPC   NC358775  29.878  32.995   5.553
 9608POPC   PO458776  29.922  33.062   5.853
 9608POPC   GL158777  29.887  33.030   6.153
 9608POPC   GL258778  30.042  32.885   6.153
 9608POPC   C1A58779  29.963  33.068   6.453
 9608POPC   D2A58780  29.952  33.011   6.753
 9608POPC   C3A58781  29.934  32.984   7.053
 9608POPC   C4A58782  29.894  33.062   7.353
 9608POPC   C1B58783  30.040  32.822   6.453
 9608POPC   C2B58784  30.084  32.817   6.753
 9608POPC   C3B58785  30.050  32.838   7.053
 9608POPC   C4B58786  30.120  32.870   7.353
 9609POPC   NC358787   8.219   5.913   5.553
 9609POPC   PO458788   8.232   5.913   5.853
 9609POPC   GL158789   8.227   5.899   6.153
 9609POPC   GL258790   8.312   5.871   6.153
 9609POPC   C1A58791   8.243   5.841   6.453
 9609POPC   D2A58792   8.164   5.869   6.753
 9609POPC   C3A58793   8.203   5.879   7.053
 9609POPC   C4A58794   8.244   5.839   7.353
 9609POPC   C1B58795   8.435   5.901   6.453
 9609POPC   C2B58796   8.479   5.908   6.753
 9609POPC   C3B58797   8.438   5.947   7.053
 9609POPC   C4B58798   8.421   5.924   7.353
 9610POPC   NC358799  11.318   3.555   5.553
 9610POPC   PO458800  11.251   3.548   5.853
 9610POPC   GL158801  11.281   3.527   6.153
 9610POPC   GL258802  11.454   3.600   6.153
 9610POPC   C1A58803  11.266   3.529   6.453
 9610POPC   D2A58804  11.271   3.545   6.753
 9610POPC   C3A58805  11.312   3.551   7.053
 9610POPC   C4A58806  11.333   3.512   7.353
 9610POPC   C1B58807  11.561   3.589   6.453
 9610POPC   C2B58808  11.512   3.542   6.753
 9610POPC   C3B58809  11.579   3.557   7.053
 9610POPC   C4B58810  11.512   3.531   7.353
 9611POPC   NC358811  43.900  39.246   5.553
 9611POPC   PO458812  43.924  39.278   5.853
 9611POPC   GL158813  43.883  39.222   6.153
 9611POPC   GL258814  43.995  39.300   6.153
 9611POPC   C1A58815  43.905  39.236   6.453
 9611POPC   D2A58816  43.847  39.202   6.753
 9611POPC   C3A58817  43.883  39.256   7.053
 9611POPC   C4A58818  43.932  39.268   7.353
 9611POPC   C1B58819  43.984  39.419   6.453
 9611POPC   C2B58820  44.024  39.411   6.753
 9611POPC   C3B58821  44.054  39.424   7.053
 9611POPC   C4B58822  44.008  39.486   7.353
 9612POPC   NC358823   5.897  10.499   5.553
 9612POPC   PO458824   5.877  10.561   5.853
 9612POPC   GL158825   5.820  10.505   6.153
 9612POPC   GL258826   5.896  10.647   6.153
 9612POPC   C1A58827   5.819  10.504   6.453
 9612POPC   D2A58828   5.826  10.569   6.753
 9612POPC   C3A58829   5.849  10.563   7.053
 9612POPC   C4A58830   5.858  10.560   7.353
 9612POPC   C1B58831   5.955  10.728   6.453
 9612POPC   C2B58832   5.933  10.791   6.753
 9612POPC   C3B58833   5.988  10.814   7.053
 9612POPC   C4B58834   5.909  10.738   7.353
 9613POPC   NC358835  41.573  22.128   5.553
 9613POPC   PO458836  41.510  22.125   5.853
 9613POPC   GL158837  41.530  22.188   6.153
 9613POPC   GL258838  41.610  22.056   6.153
 9613POPC   C1A58839  41.581  22.134   6.453
 9613POPC   D2A58840  41.528  22.175   6.753
 9613POPC   C3A58841  41.564  22.166   7.053
 9613POPC   C4A58842  41.523  22.167   7.353
 9613POPC   C1B58843  41.620  21.890   6.453
 9613POPC   C2B58844  41.690  21.943   6.753
 9613POPC   C3B58845  41.608  21.907   7.053
 9613POPC   C4B58846  41.648  21.970   7.353
 9614POPC   NC358847  35.308  39.197   5.553
 9614POPC   PO458848  35.390  39.260   5.853
 9614POPC   GL158849  35.367  39.184   6.153
 9614POPC   GL258850  35.221  39.204   6.153
 9614POPC   C1A58851  35.382  39.253   6.453
 9614POPC   D2A58852  35.380  39.206   6.753
 9614POPC   C3A58853  35.307  39.235   7.053
 9614POPC   C4A58854  35.337  39.217   7.353
 9614POPC   C1B58855  35.111  39.290   6.453
 9614POPC   C2B58856  35.142  39.241   6.753
 9614POPC   C3B58857  35.111  39.207   7.053
 9614POPC   C4B58858  35.117  39.235   7.353
 9615POPC   NC358859  19.830  43.864   5.553
 9615POPC   PO458860  19.845  43.879   5.853
 9615POPC   GL158861  19.853  43.926   6.153
 9615POPC   GL258862  19.929  43.939   6.153
 9615POPC   C1A58863  19.836  43.897   6.453
 9615POPC   D2A58864  19.793  43.841   6.753
 9615POPC   C3A58865  19.817  43.911   7.053
 9615POPC   C4A58866  19.849  43.931   7.353
 9615POPC   C1B58867  19.996  44.028   6.453
 9615POPC   C2B58868  19.977  44.063   6.753
 9615POPC   C3B58869  20.008  44.025   7.053
 9615POPC   C4B58870  19.985  44.106   7.353
 9616POPC   NC358871  29.935  28.332   5.553
 9616POPC   PO458872  29.940  28.357   5.853
 9616POPC   GL158873  29.900  28.349   6.153
 9616POPC   GL258874  29.855  28.231   6.153
 9616POPC   C1A58875  29.938  28.338   6.453
 9616POPC   D2A58876  29.887  28.402   6.753
 9616POPC   C3A58877  29.908  28.330   7.053
 9616POPC   C4A58878  29.954  28.408   7.353
 9616POPC   C1B58879  29.855  28.129   6.453
 9616POPC   C2B58880  29.845  28.108   6.753
 9616POPC   C3B58881  29.893  28.130   7.053
 9616POPC   C4B58882  29.859  28.121   7.353
 9617POPC   NC358883  24.443  36.893   5.553
 9617POPC   PO458884  24.453  36.909   5.853
 9617POPC   GL158885  24.498  36.871   6.153
 9617POPC   GL258886  24.392  36.835   6.153
 9617POPC   C1A58887  24.515  36.919   6.453
 9617POPC   D2A58888  24.458  36.923   6.753
 9617POPC   C3A58889  24.494  36.904   7.053
 9617POPC   C4A58890  24.505  36.937   7.353
 9617POPC   C1B58891  24.338  36.706   6.453
 9617POPC   C2B58892  24.320  36.703   6.753
 9617POPC   C3B58893  24.344  36.714   7.053
 9617POPC   C4B58894  24.359  36.721   7.353
 9618POPC   NC358895  26.829   0.461   5.553
 9618POPC   PO458896  26.769   0.391   5.853
 9618POPC   GL158897  26.804   0.393   6.153
 9618POPC   GL258898  26.674   0.501   6.153
 9618POPC   C1A58899  26.865   0.473   6.453
 9618POPC   D2A58900  26.846   0.474   6.753
 9618POPC   C3A58901  26.797   0.401   7.053
 9618POPC   C4A58902  26.815   0.433   7.353
 9618POPC   C1B58903  26.612   0.585   6.453
 9618POPC   C2B58904  26.578   0.590   6.753
 9618POPC   C3B58905  26.569   0.594   7.053
 9618POPC   C4B58906  26.582   0.568   7.353
 9619POPC   NC358907   7.411  35.319   5.553
 9619POPC   PO458908   7.382  35.343   5.853
 9619POPC   GL158909   7.407  35.370   6.153
 9619POPC   GL258910   7.485  35.398   6.153
 9619POPC   C1A58911   7.443  35.373   6.453
 9619POPC   D2A58912   7.403  35.400   6.753
 9619POPC   C3A58913   7.375  35.345   7.053
 9619POPC   C4A58914   7.417  35.327   7.353
 9619POPC   C1B58915   7.537  35.494   6.453
 9619POPC   C2B58916   7.587  35.527   6.753
 9619POPC   C3B58917   7.628  35.514   7.053
 9619POPC   C4B58918   7.633  35.589   7.353
 9620POPC   NC358919  19.035  21.400   5.553
 9620POPC   PO458920  19.048  21.429   5.853
 9620POPC   GL158921  19.012  21.389   6.153
 9620POPC   GL258922  19.116  21.518   6.153
 9620POPC   C1A58923  19.051  21.370   6.453
 9620POPC   D2A58924  19.085  21.431   6.753
 9620POPC   C3A58925  19.026  21.353   7.053
 9620POPC   C4A58926  19.092  21.415   7.353
 9620POPC   C1B58927  19.169  21.566   6.453
 9620POPC   C2B58928  19.202  21.633   6.753
 9620POPC   C3B58929  19.187  21.632   7.053
 9620POPC   C4B58930  19.111  21.642   7.353
 9621POPC   NC358931   2.799  34.569   5.553
 9621POPC   PO458932   2.736  34.540   5.853
 9621POPC   GL158933   2.782  34.552   6.153
 9621POPC   GL258934   2.734  34.738   6.153
 9621POPC   C1A58935   2.718  34.576   6.453
 9621POPC   D2A58936   2.764  34.541   6.753
 9621POPC   C3A58937   2.803  34.605   7.053
 9621POPC   C4A58938   2.734  34.532   7.353
 9621POPC   C1B58939   2.635  34.807   6.453
 9621POPC   C2B58940   2.666  34.793   6.753
 9621POPC   C3B58941   2.692  34.805   7.053
 9621POPC   C4B58942   2.652  34.803   7.353
 9622POPC   NC358943  30.697  35.396   5.553
 9622POPC   PO458944  30.713  35.396   5.853
 9622POPC   GL158945  30.737  35.303   6.153
 9622POPC   GL258946  30.715  35.264   6.153
 9622POPC   C1A58947  30.747  35.397   6.453
 9622POPC   D2A58948  30.744  35.386   6.753
 9622POPC   C3A58949  30.661  35.325   7.053
 9622POPC   C4A58950  30.686  35.348   7.353
 9622POPC   C1B58951  30.769  35.063   6.453
 9622POPC   C2B58952  30.794  35.090   6.753
 9622POPC   C3B58953  30.736  35.097   7.053
 9622POPC   C4B58954  30.764  35.128   7.353
 9623POPC   NC358955  29.115  43.858   5.553
 9623POPC   PO458956  29.165  43.881   5.853
 9623POPC   GL158957  29.169  43.849   6.153
 9623POPC   GL258958  29.070  43.779   6.153
 9623POPC   C1A58959  29.118  43.924   6.453
 9623POPC   D2A58960  29.141  43.930   6.753
 9623POPC   C3A58961  29.157  43.920   7.053
 9623POPC   C4A58962  29.169  43.884   7.353
 9623POPC   C1B58963  29.056  43.686   6.453
 9623POPC   C2B58964  29.030  43.628   6.753
 9623POPC   C3B58965  29.005  43.664   7.053
 9623POPC   C4B58966  29.049  43.655   7.353
 9624POPC   NC358967  44.656  20.638   5.553
 9624POPC   PO458968  44.636  20.587   5.853
 9624POPC   GL158969  44.635  20.614   6.153
 9624POPC   GL258970  44.743  20.493   6.153
 9624POPC   C1A58971  44.627  20.563   6.453
 9624POPC   D2A58972  44.698  20.598   6.753
 9624POPC   C3A58973  44.682  20.567   7.053
 9624POPC   C4A58974  44.643  20.643   7.353
 9624POPC   C1B58975  44.787  20.444   6.453
 9624POPC   C2B58976  44.776  20.379   6.753
 9624POPC   C3B58977  44.831  20.376   7.053
 9624POPC   C4B58978  44.801  20.378   7.353
 9625POPC   NC358979  23.696  35.338   5.553
 9625POPC   PO458980  23.737  35.316   5.853
 9625POPC   GL158981  23.733  35.378   6.153
 9625POPC   GL258982  23.646  35.468   6.153
 9625POPC   C1A58983  23.731  35.378   6.453
 9625POPC   D2A58984  23.671  35.363   6.753
 9625POPC   C3A58985  23.682  35.388   7.053
 9625POPC   C4A58986  23.670  35.378   7.353
 9625POPC   C1B58987  23.544  35.456   6.453
 9625POPC   C2B58988  23.551  35.503   6.753
 9625POPC   C3B58989  23.493  35.502   7.053
 9625POPC   C4B58990  23.504  35.501   7.353
 9626POPC   NC358991  43.844  29.963   5.553
 9626POPC   PO458992  43.893  29.909   5.853
 9626POPC   GL158993  43.888  29.912   6.153
 9626POPC   GL258994  43.774  29.949   6.153
 9626POPC   C1A58995  43.867  29.887   6.453
 9626POPC   D2A58996  43.847  29.871   6.753
 9626POPC   C3A58997  43.862  29.958   7.053
 9626POPC   C4A58998  43.888  29.889   7.353
 9626POPC   C1B58999  43.631  29.996   6.453
 9626POPC   C2B59000  43.652  29.999   6.753
 9626POPC   C3B59001  43.685  30.023   7.053
 9626POPC   C4B59002  43.653  30.003   7.353
 9627POPC   NC359003  27.638  26.007   5.553
 9627POPC   PO459004  27.564  26.036   5.853
 9627POPC   GL159005  27.612  26.021   6.153
 9627POPC   GL259006  27.470  25.898   6.153
 9627POPC   C1A59007  27.585  26.087   6.453
 9627POPC   D2A59008  27.643  26.065   6.753
 9627POPC   C3A59009  27.567  25.993   7.053
 9627POPC   C4A59010  27.608  26.037   7.353
 9627POPC   C1B59011  27.463  25.874   6.453
 9627POPC   C2B59012  27.403  25.886   6.753
 9627POPC   C3B59013  27.411  25.842   7.053
 9627POPC   C4B59014  27.462  25.890   7.353
 9628POPC   NC359015  39.272  29.160   5.553
 9628POPC   PO459016  39.184  29.116   5.853
 9628POPC   GL159017  39.262  29.166   6.153
 9628POPC   GL259018  39.215  29.008   6.153
 9628POPC   C1A59019  39.233  29.120   6.453
 9628POPC   D2A59020  39.211  29.119   6.753
 9628POPC   C3A59021  39.268  29.156   7.053
 9628POPC   C4A59022  39.218  29.183   7.353
 9628POPC   C1B59023  39.127  28.935   6.453
 9628POPC   C2B59024  39.053  28.943   6.753
 9628POPC   C3B59025  39.068  28.964   7.053
 9628POPC   C4B59026  39.133  28.961   7.353
 9629POPC   NC359027   5.842   5.066   5.553
 9629POPC   PO459028   5.825   5.105   5.853
 9629POPC   GL159029   5.893   5.107   6.153
 9629POPC   GL259030   6.025   5.035   6.153
 9629POPC   C1A59031   5.820   5.129   6.453
 9629POPC   D2A59032   5.838   5.073   6.753
 9629POPC   C3A59033   5.832   5.071   7.053
 9629POPC   C4A59034   5.898   5.127   7.353
 9629POPC   C1B59035   6.122   5.061   6.453
 9629POPC   C2B59036   6.154   5.028   6.753
 9629POPC   C3B59037   6.135   5.043   7.053
 9629POPC   C4B59038   6.153   4.991   7.353
 9630POPC   NC359039  19.046  44.656   5.553
 9630POPC   PO459040  19.020  44.682   5.853
 9630POPC   GL159041  19.097  44.662   6.153
 9630POPC   GL259042  18.958  44.560   6.153
 9630POPC   C1A59043  19.101  44.643   6.453
 9630POPC   D2A59044  19.105  44.682   6.753
 9630POPC   C3A59045  19.065  44.711   7.053
 9630POPC   C4A59046  19.021  44.651   7.353
 9630POPC   C1B59047  18.816  44.534   6.453
 9630POPC   C2B59048  18.867  44.526   6.753
 9630POPC   C3B59049  18.898  44.524   7.053
 9630POPC   C4B59050  18.819  44.548   7.353
 9631POPC   NC359051   1.177  11.317   5.553
 9631POPC   PO459052   1.174  11.309   5.853
 9631POPC   GL159053   1.232  11.261   6.153
 9631POPC   GL259054   1.301  11.173   6.153
 9631POPC   C1A59055   1.167  11.338   6.453
 9631POPC   D2A59056   1.212  11.349   6.753
 9631POPC   C3A59057   1.170  11.305   7.053
 9631POPC   C4A59058   1.201  11.282   7.353
 9631POPC   C1B59059   1.311  11.097   6.453
 9631POPC   C2B59060   1.299  11.119   6.753
 9631POPC   C3B59061   1.360  11.039   7.053
 9631POPC   C4B59062   1.295  11.071   7.353
 9632POPC   NC359063  24.451  30.698   5.553
 9632POPC   PO459064  24.445  30.663   5.853
 9632POPC   GL159065  24.512  30.693   6.153
 9632POPC   GL259066  24.422  30.763   6.153
 9632POPC   C1A59067  24.493  30.697   6.453
 9632POPC   D2A59068  24.528  30.650   6.753
 9632POPC   C3A59069  24.488  30.712   7.053
 9632POPC   C4A59070  24.531  30.705   7.353
 9632POPC   C1B59071  24.337  30.819   6.453
 9632POPC   C2B59072  24.319  30.866   6.753
 9632POPC   C3B59073  24.287  30.840   7.053
 9632POPC   C4B59074  24.328  30.896   7.353
 9633POPC   NC359075  39.970  28.320   5.553
 9633POPC   PO459076  40.050  28.322   5.853
 9633POPC   GL159077  40.011  28.346   6.153
 9633POPC   GL259078  39.898  28.518   6.153
 9633POPC   C1A59079  40.028  28.404   6.453
 9633POPC   D2A59080  39.987  28.338   6.753
 9633POPC   C3A59081  39.963  28.365   7.053
 9633POPC   C4A59082  40.010  28.373   7.353
 9633POPC   C1B59083  39.868  28.578   6.453
 9633POPC   C2B59084  39.907  28.571   6.753
 9633POPC   C3B59085  39.835  28.586   7.053
 9633POPC   C4B59086  39.874  28.599   7.353
 9634POPC   NC359087  12.805  39.981   5.553
 9634POPC   PO459088  12.825  39.958   5.853
 9634POPC   GL159089  12.863  39.988   6.153
 9634POPC   GL259090  12.739  39.936   6.153
 9634POPC   C1A59091  12.882  39.989   6.453
 9634POPC   D2A59092  12.846  40.039   6.753
 9634POPC   C3A59093  12.894  40.032   7.053
 9634POPC   C4A59094  12.888  40.042   7.353
 9634POPC   C1B59095  12.672  39.847   6.453
 9634POPC   C2B59096  12.706  39.792   6.753
 9634POPC   C3B59097  12.675  39.827   7.053
 9634POPC   C4B59098  12.689  39.843   7.353
 9635POPC   NC359099  11.277  20.592   5.553
 9635POPC   PO459100  11.338  20.607   5.853
 9635POPC   GL159101  11.304  20.614   6.153
 9635POPC   GL259102  11.366  20.610   6.153
 9635POPC   C1A59103  11.337  20.642   6.453
 9635POPC   D2A59104  11.289  20.657   6.753
 9635POPC   C3A59105  11.287  20.654   7.053
 9635POPC   C4A59106  11.293  20.582   7.353
 9635POPC   C1B59107  11.573  20.509   6.453
 9635POPC   C2B59108  11.503  20.559   6.753
 9635POPC   C3B59109  11.509  20.520   7.053
 9635POPC   C4B59110  11.544  20.534   7.353
 9636POPC   NC359111  25.249   5.831   5.553
 9636POPC   PO459112  25.247   5.853   5.853
 9636POPC   GL159113  25.298   5.886   6.153
 9636POPC   GL259114  25.371   5.883   6.153
 9636POPC   C1A59115  25.232   5.859   6.453
 9636POPC   D2A59116  25.285   5.821   6.753
 9636POPC   C3A59117  25.219   5.852   7.053
 9636POPC   C4A59118  25.251   5.909   7.353
 9636POPC   C1B59119  25.483   5.896   6.453
 9636POPC   C2B59120  25.473   5.932   6.753
 9636POPC   C3B59121  25.522   5.944   7.053
 9636POPC   C4B59122  25.461   5.933   7.353
 9637POPC   NC359123  33.794  22.195   5.553
 9637POPC   PO459124  33.838  22.164   5.853
 9637POPC   GL159125  33.842  22.178   6.153
 9637POPC   GL259126  33.680  22.153   6.153
 9637POPC   C1A59127  33.831  22.191   6.453
 9637POPC   D2A59128  33.800  22.117   6.753
 9637POPC   C3A59129  33.823  22.203   7.053
 9637POPC   C4A59130  33.756  22.196   7.353
 9637POPC   C1B59131  33.505  22.080   6.453
 9637POPC   C2B59132  33.593  22.124   6.753
 9637POPC   C3B59133  33.572  22.096   7.053
 9637POPC   C4B59134  33.594  22.080   7.353
 9638POPC   NC359135  43.062  36.856   5.553
 9638POPC   PO459136  43.103  36.892   5.853
 9638POPC   GL159137  43.130  36.892   6.153
 9638POPC   GL259138  43.201  36.841   6.153
 9638POPC   C1A59139  43.133  36.859   6.453
 9638POPC   D2A59140  43.093  36.863   6.753
 9638POPC   C3A59141  43.109  36.906   7.053
 9638POPC   C4A59142  43.153  36.953   7.353
 9638POPC   C1B59143  43.348  36.792   6.453
 9638POPC   C2B59144  43.302  36.814   6.753
 9638POPC   C3B59145  43.364  36.798   7.053
 9638POPC   C4B59146  43.382  36.818   7.353
 9639POPC   NC359147  21.375  36.121   5.553
 9639POPC   PO459148  21.372  36.126   5.853
 9639POPC   GL159149  21.405  36.130   6.153
 9639POPC   GL259150  21.285  36.057   6.153
 9639POPC   C1A59151  21.407  36.136   6.453
 9639POPC   D2A59152  21.337  36.169   6.753
 9639POPC   C3A59153  21.390  36.131   7.053
 9639POPC   C4A59154  21.421  36.171   7.353
 9639POPC   C1B59155  21.274  35.955   6.453
 9639POPC   C2B59156  21.274  35.931   6.753
 9639POPC   C3B59157  21.225  35.900   7.053
 9639POPC   C4B59158  21.294  35.936   7.353
 9640POPC   NC359159  33.829  35.337   5.553
 9640POPC   PO459160  33.850  35.398   5.853
 9640POPC   GL159161  33.832  35.304   6.153
 9640POPC   GL259162  33.738  35.499   6.153
 9640POPC   C1A59163  33.848  35.346   6.453
 9640POPC   D2A59164  33.795  35.367   6.753
 9640POPC   C3A59165  33.761  35.326   7.053
 9640POPC   C4A59166  33.820  35.302   7.353
 9640POPC   C1B59167  33.656  35.517   6.453
 9640POPC   C2B59168  33.624  35.555   6.753
 9640POPC   C3B59169  33.662  35.563   7.053
 9640POPC   C4B59170  33.670  35.571   7.353
 9641POPC   NC359171  30.674  33.000   5.553
 9641POPC   PO459172  30.706  33.061   5.853
 9641POPC   GL159173  30.691  33.051   6.153
 9641POPC   GL259174  30.744  32.902   6.153
 9641POPC   C1A59175  30.721  33.069   6.453
 9641POPC   D2A59176  30.654  33.063   6.753
 9641POPC   C3A59177  30.716  33.016   7.053
 9641POPC   C4A59178  30.662  33.004   7.353
 9641POPC   C1B59179  30.862  32.805   6.453
 9641POPC   C2B59180  30.847  32.794   6.753
 9641POPC   C3B59181  30.867  32.826   7.053
 9641POPC   C4B59182  30.880  32.774   7.353
 9642POPC   NC359183   4.358  14.362   5.553
 9642POPC   PO459184   4.322  14.400   5.853
 9642POPC   GL159185   4.282  14.438   6.153
 9642POPC   GL259186   4.208  14.390   6.153
 9642POPC   C1A59187   4.355  14.421   6.453
 9642POPC   D2A59188   4.322  14.368   6.753
 9642POPC   C3A59189   4.299  14.376   7.053
 9642POPC   C4A59190   4.350  14.378   7.353
 9642POPC   C1B59191   4.103  14.326   6.453
 9642POPC   C2B59192   4.090  14.278   6.753
 9642POPC   C3B59193   4.103  14.282   7.053
 9642POPC   C4B59194   4.069  14.282   7.353
 9643POPC   NC359195   0.484  40.776   5.553
 9643POPC   PO459196   0.457  40.754   5.853
 9643POPC   GL159197   0.390  40.828   6.153
 9643POPC   GL259198   0.492  40.706   6.153
 9643POPC   C1A59199   0.432  40.792   6.453
 9643POPC   D2A59200   0.435  40.754   6.753
 9643POPC   C3A59201   0.467  40.735   7.053
 9643POPC   C4A59202   0.481  40.798   7.353
 9643POPC   C1B59203   0.545  40.516   6.453
 9643POPC   C2B59204   0.531  40.525   6.753
 9643POPC   C3B59205   0.498  40.569   7.053
 9643POPC   C4B59206   0.508  40.528   7.353
 9644POPC   NC359207  12.107   5.084   5.553
 9644POPC   PO459208  12.032   5.123   5.853
 9644POPC   GL159209  12.034   5.141   6.153
 9644POPC   GL259210  12.146   5.043   6.153
 9644POPC   C1A59211  12.069   5.113   6.453
 9644POPC   D2A59212  12.119   5.096   6.753
 9644POPC   C3A59213  12.053   5.080   7.053
 9644POPC   C4A59214  12.106   5.100   7.353
 9644POPC   C1B59215  12.244   4.901   6.453
 9644POPC   C2B59216  12.267   4.887   6.753
 9644POPC   C3B59217  12.233   4.884   7.053
 9644POPC   C4B59218  12.253   4.894   7.353
 9645POPC   NC359219  16.715  29.932   5.553
 9645POPC   PO459220  16.708  29.923   5.853
 9645POPC   GL159221  16.753  29.903   6.153
 9645POPC   GL259222  16.572  29.930   6.153
 9645POPC   C1A59223  16.709  29.933   6.453
 9645POPC   D2A59224  16.702  29.885   6.753
 9645POPC   C3A59225  16.718  29.933   7.053
 9645POPC   C4A59226  16.750  29.874   7.353
 9645POPC   C1B59227  16.475  29.886   6.453
 9645POPC   C2B59228  16.445  29.891   6.753
 9645POPC   C3B59229  16.483  29.840   7.053
 9645POPC   C4B59230  16.470  29.898   7.353
 9646POPC   NC359231  31.432  22.958   5.553
 9646POPC   PO459232  31.435  22.938   5.853
 9646POPC   GL159233  31.462  22.910   6.153
 9646POPC   GL259234  31.535  22.816   6.153
 9646POPC   C1A59235  31.499  22.969   6.453
 9646POPC   D2A59236  31.482  22.929   6.753
 9646POPC   C3A59237  31.447  22.965   7.053
 9646POPC   C4A59238  31.487  22.925   7.353
 9646POPC   C1B59239  31.489  22.711   6.453
 9646POPC   C2B59240  31.485  22.685   6.753
 9646POPC   C3B59241  31.498  22.646   7.053
 9646POPC   C4B59242  31.468  22.663   7.353
 9647POPC   NC359243   7.449  15.198   5.553
 9647POPC   PO459244   7.382  15.210   5.853
 9647POPC   GL159245   7.399  15.177   6.153
 9647POPC   GL259246   7.497  15.169   6.153
 9647POPC   C1A59247   7.465  15.189   6.453
 9647POPC   D2A59248   7.446  15.200   6.753
 9647POPC   C3A59249   7.381  15.164   7.053
 9647POPC   C4A59250   7.464  15.160   7.353
 9647POPC   C1B59251   7.695  15.149   6.453
 9647POPC   C2B59252   7.656  15.167   6.753
 9647POPC   C3B59253   7.664  15.151   7.053
 9647POPC   C4B59254   7.657  15.093   7.353
 9648POPC   NC359255   5.078  42.380   5.553
 9648POPC   PO459256   5.092  42.368   5.853
 9648POPC   GL159257   5.103  42.361   6.153
 9648POPC   GL259258   5.047  42.231   6.153
 9648POPC   C1A59259   5.113  42.348   6.453
 9648POPC   D2A59260   5.115  42.333   6.753
 9648POPC   C3A59261   5.120  42.347   7.053
 9648POPC   C4A59262   5.119  42.366   7.353
 9648POPC   C1B59263   4.899  42.153   6.453
 9648POPC   C2B59264   4.876  42.133   6.753
 9648POPC   C3B59265   4.913  42.134   7.053
 9648POPC   C4B59266   4.863  42.163   7.353
 9649POPC   NC359267  33.024  33.000   5.553
 9649POPC   PO459268  32.976  33.014   5.853
 9649POPC   GL159269  33.057  32.978   6.153
 9649POPC   GL259270  32.924  33.076   6.153
 9649POPC   C1A59271  33.038  33.052   6.453
 9649POPC   D2A59272  33.036  32.978   6.753
 9649POPC   C3A59273  33.024  33.013   7.053
 9649POPC   C4A59274  33.059  33.059   7.353
 9649POPC   C1B59275  32.746  33.082   6.453
 9649POPC   C2B59276  32.813  33.082   6.753
 9649POPC   C3B59277  32.779  33.000   7.053
 9649POPC   C4B59278  32.757  33.061   7.353
 9650POPC   NC359279   7.417  20.630   5.553
 9650POPC   PO459280   7.411  20.598   5.853
 9650POPC   GL159281   7.443  20.612   6.153
 9650POPC   GL259282   7.397  20.460   6.153
 9650POPC   C1A59283   7.405  20.652   6.453
 9650POPC   D2A59284   7.394  20.580   6.753
 9650POPC   C3A59285   7.397  20.560   7.053
 9650POPC   C4A59286   7.453  20.643   7.353
 9650POPC   C1B59287   7.474  20.329   6.453
 9650POPC   C2B59288   7.432  20.363   6.753
 9650POPC   C3B59289   7.509  20.411   7.053
 9650POPC   C4B59290   7.520  20.401   7.353
 9651POPC   NC359291  35.349  37.657   5.553
 9651POPC   PO459292  35.324  37.673   5.853
 9651POPC   GL159293  35.318  37.729   6.153
 9651POPC   GL259294  35.355  37.572   6.153
 9651POPC   C1A59295  35.322  37.712   6.453
 9651POPC   D2A59296  35.381  37.693   6.753
 9651POPC   C3A59297  35.379  37.711   7.053
 9651POPC   C4A59298  35.363  37.719   7.353
 9651POPC   C1B59299  35.267  37.430   6.453
 9651POPC   C2B59300  35.253  37.483   6.753
 9651POPC   C3B59301  35.318  37.407   7.053
 9651POPC   C4B59302  35.304  37.473   7.353
 9652POPC   NC359303  40.831  36.912   5.553
 9652POPC   PO459304  40.781  36.891   5.853
 9652POPC   GL159305  40.832  36.933   6.153
 9652POPC   GL259306  40.684  36.754   6.153
 9652POPC   C1A59307  40.769  36.909   6.453
 9652POPC   D2A59308  40.782  36.874   6.753
 9652POPC   C3A59309  40.818  36.882   7.053
 9652POPC   C4A59310  40.802  36.883   7.353
 9652POPC   C1B59311  40.600  36.650   6.453
 9652POPC   C2B59312  40.628  36.679   6.753
 9652POPC   C3B59313  40.634  36.708   7.053
 9652POPC   C4B59314  40.660  36.730   7.353
 9653POPC   NC359315  37.678   2.720   5.553
 9653POPC   PO459316  37.664   2.753   5.853
 9653POPC   GL159317  37.631   2.758   6.153
 9653POPC   GL259318  37.695   2.671   6.153
 9653POPC   C1A59319  37.674   2.801   6.453
 9653POPC   D2A59320  37.658   2.791   6.753
 9653POPC   C3A59321  37.642   2.766   7.053
 9653POPC   C4A59322  37.637   2.766   7.353
 9653POPC   C1B59323  37.749   2.485   6.453
 9653POPC   C2B59324  37.771   2.498   6.753
 9653POPC   C3B59325  37.763   2.485   7.053
 9653POPC   C4B59326  37.722   2.488   7.353
 9654POPC   NC359327  23.689   0.425   5.553
 9654POPC   PO459328  23.695   0.415   5.853
 9654POPC   GL159329  23.668   0.423   6.153
 9654POPC   GL259330  23.792   0.284   6.153
 9654POPC   C1A59331  23.709   0.483   6.453
 9654POPC   D2A59332  23.727   0.482   6.753
 9654POPC   C3A59333  23.758   0.483   7.053
 9654POPC   C4A59334  23.685   0.402   7.353
 9654POPC   C1B59335  23.816   0.241   6.453
 9654POPC   C2B59336  23.805   0.243   6.753
 9654POPC   C3B59337  23.822   0.201   7.053
 9654POPC   C4B59338  23.831   0.170   7.353
 9655POPC   NC359339  36.142  22.199   5.553
 9655POPC   PO459340  36.117  22.197   5.853
 9655POPC   GL159341  36.162  22.169   6.153
 9655POPC   GL259342  36.013  22.258   6.153
 9655POPC   C1A59343  36.111  22.127   6.453
 9655POPC   D2A59344  36.141  22.187   6.753
 9655POPC   C3A59345  36.127  22.212   7.053
 9655POPC   C4A59346  36.146  22.203   7.353
 9655POPC   C1B59347  35.975  22.361   6.453
 9655POPC   C2B59348  35.984  22.339   6.753
 9655POPC   C3B59349  36.024  22.413   7.053
 9655POPC   C4B59350  35.935  22.340   7.353
 9656POPC   NC359351  14.367  28.386   5.553
 9656POPC   PO459352  14.358  28.396   5.853
 9656POPC   GL159353  14.387  28.320   6.153
 9656POPC   GL259354  14.547  28.483   6.153
 9656POPC   C1A59355  14.422  28.416   6.453
 9656POPC   D2A59356  14.417  28.344   6.753
 9656POPC   C3A59357  14.389  28.365   7.053
 9656POPC   C4A59358  14.421  28.408   7.353
 9656POPC   C1B59359  14.573  28.568   6.453
 9656POPC   C2B59360  14.561  28.577   6.753
 9656POPC   C3B59361  14.561  28.571   7.053
 9656POPC   C4B59362  14.635  28.528   7.353
 9657POPC   NC359363  14.427  42.344   5.553
 9657POPC   PO459364  14.384  42.305   5.853
 9657POPC   GL159365  14.363  42.359   6.153
 9657POPC   GL259366  14.550  42.440   6.153
 9657POPC   C1A59367  14.395  42.344   6.453
 9657POPC   D2A59368  14.405  42.313   6.753
 9657POPC   C3A59369  14.363  42.368   7.053
 9657POPC   C4A59370  14.432  42.336   7.353
 9657POPC   C1B59371  14.615  42.410   6.453
 9657POPC   C2B59372  14.654  42.406   6.753
 9657POPC   C3B59373  14.619  42.454   7.053
 9657POPC   C4B59374  14.591  42.410   7.353
 9658POPC   NC359375   2.725   5.841   5.553
 9658POPC   PO459376   2.805   5.906   5.853
 9658POPC   GL159377   2.780   5.892   6.153
 9658POPC   GL259378   2.876   5.946   6.153
 9658POPC   C1A59379   2.763   5.847   6.453
 9658POPC   D2A59380   2.717   5.820   6.753
 9658POPC   C3A59381   2.782   5.886   7.053
 9658POPC   C4A59382   2.805   5.854   7.353
 9658POPC   C1B59383   2.965   5.979   6.453
 9658POPC   C2B59384   3.030   5.967   6.753
 9658POPC   C3B59385   3.027   5.966   7.053
 9658POPC   C4B59386   2.973   5.922   7.353
 9659POPC   NC359387   3.555  39.983   5.553
 9659POPC   PO459388   3.569  39.968   5.853
 9659POPC   GL159389   3.577  39.984   6.153
 9659POPC   GL259390   3.571  40.107   6.153
 9659POPC   C1A59391   3.520  40.000   6.453
 9659POPC   D2A59392   3.501  39.990   6.753
 9659POPC   C3A59393   3.508  40.012   7.053
 9659POPC   C4A59394   3.552  40.012   7.353
 9659POPC   C1B59395   3.504  40.259   6.453
 9659POPC   C2B59396   3.560  40.259   6.753
 9659POPC   C3B59397   3.545  40.278   7.053
 9659POPC   C4B59398   3.517  40.225   7.353
 9660POPC   NC359399   7.434  38.464   5.553
 9660POPC   PO459400   7.464  38.488   5.853
 9660POPC   GL159401   7.371  38.436   6.153
 9660POPC   GL259402   7.510  38.315   6.153
 9660POPC   C1A59403   7.418  38.484   6.453
 9660POPC   D2A59404   7.466  38.418   6.753
 9660POPC   C3A59405   7.446  38.449   7.053
 9660POPC   C4A59406   7.450  38.477   7.353
 9660POPC   C1B59407   7.472  38.247   6.453
 9660POPC   C2B59408   7.551  38.203   6.753
 9660POPC   C3B59409   7.552  38.214   7.053
 9660POPC   C4B59410   7.498  38.215   7.353
 9661POPC   NC359411   3.572  35.343   5.553
 9661POPC   PO459412   3.579  35.386   5.853
 9661POPC   GL159413   3.504  35.348   6.153
 9661POPC   GL259414   3.464  35.447   6.153
 9661POPC   C1A59415   3.575  35.331   6.453
 9661POPC   D2A59416   3.512  35.344   6.753
 9661POPC   C3A59417   3.524  35.320   7.053
 9661POPC   C4A59418   3.497  35.383   7.353
 9661POPC   C1B59419   3.314  35.460   6.453
 9661POPC   C2B59420   3.301  35.460   6.753
 9661POPC   C3B59421   3.340  35.491   7.053
 9661POPC   C4B59422   3.345  35.499   7.353
 9662POPC   NC359423  19.078  26.035   5.553
 9662POPC   PO459424  19.067  26.049   5.853
 9662POPC   GL159425  19.067  26.053   6.153
 9662POPC   GL259426  18.960  26.166   6.153
 9662POPC   C1A59427  19.050  26.059   6.453
 9662POPC   D2A59428  19.035  26.055   6.753
 9662POPC   C3A59429  19.073  26.067   7.053
 9662POPC   C4A59430  19.021  26.024   7.353
 9662POPC   C1B59431  18.896  26.161   6.453
 9662POPC   C2B59432  18.879  26.243   6.753
 9662POPC   C3B59433  18.837  26.232   7.053
 9662POPC   C4B59434  18.834  26.174   7.353
 9663POPC   NC359435  11.319  16.703   5.553
 9663POPC   PO459436  11.314  16.778   5.853
 9663POPC   GL159437  11.319  16.708   6.153
 9663POPC   GL259438  11.419  16.770   6.153
 9663POPC   C1A59439  11.278  16.749   6.453
 9663POPC   D2A59440  11.265  16.722   6.753
 9663POPC   C3A59441  11.345  16.714   7.053
 9663POPC   C4A59442  11.272  16.753   7.353
 9663POPC   C1B59443  11.570  16.818   6.453
 9663POPC   C2B59444  11.550  16.802   6.753
 9663POPC   C3B59445  11.480  16.869   7.053
 9663POPC   C4B59446  11.517  16.830   7.353
 9664POPC   NC359447  26.819  40.001   5.553
 9664POPC   PO459448  26.813  40.033   5.853
 9664POPC   GL159449  26.811  40.015   6.153
 9664POPC   GL259450  26.865  40.077   6.153
 9664POPC   C1A59451  26.797  40.053   6.453
 9664POPC   D2A59452  26.864  40.047   6.753
 9664POPC   C3A59453  26.855  40.048   7.053
 9664POPC   C4A59454  26.839  40.010   7.353
 9664POPC   C1B59455  26.957  40.165   6.453
 9664POPC   C2B59456  26.980  40.250   6.753
 9664POPC   C3B59457  26.924  40.190   7.053
 9664POPC   C4B59458  26.979  40.205   7.353
 9665POPC   NC359459  33.831  43.897   5.553
 9665POPC   PO459460  33.755  43.920   5.853
 9665POPC   GL159461  33.846  43.904   6.153
 9665POPC   GL259462  33.707  43.756   6.153
 9665POPC   C1A59463  33.801  43.880   6.453
 9665POPC   D2A59464  33.837  43.888   6.753
 9665POPC   C3A59465  33.788  43.924   7.053
 9665POPC   C4A59466  33.831  43.906   7.353
 9665POPC   C1B59467  33.593  43.759   6.453
 9665POPC   C2B59468  33.625  43.689   6.753
 9665POPC   C3B59469  33.642  43.727   7.053
 9665POPC   C4B59470  33.597  43.731   7.353
 9666POPC   NC359471  32.280  15.930   5.553
 9666POPC   PO459472  32.296  15.996   5.853
 9666POPC   GL159473  32.269  15.954   6.153
 9666POPC   GL259474  32.162  15.901   6.153
 9666POPC   C1A59475  32.271  15.944   6.453
 9666POPC   D2A59476  32.249  15.976   6.753
 9666POPC   C3A59477  32.298  15.967   7.053
 9666POPC   C4A59478  32.229  15.924   7.353
 9666POPC   C1B59479  32.092  15.802   6.453
 9666POPC   C2B59480  32.073  15.824   6.753
 9666POPC   C3B59481  32.029  15.784   7.053
 9666POPC   C4B59482  32.043  15.826   7.353
 9667POPC   NC359483   5.080  18.238   5.553
 9667POPC   PO459484   5.097  18.326   5.853
 9667POPC   GL159485   5.127  18.317   6.153
 9667POPC   GL259486   5.126  18.381   6.153
 9667POPC   C1A59487   5.048  18.238   6.453
 9667POPC   D2A59488   5.101  18.324   6.753
 9667POPC   C3A59489   5.101  18.248   7.053
 9667POPC   C4A59490   5.122  18.252   7.353
 9667POPC   C1B59491   5.158  18.474   6.453
 9667POPC   C2B59492   5.124  18.526   6.753
 9667POPC   C3B59493   5.148  18.479   7.053
 9667POPC   C4B59494   5.131  18.552   7.353
 9668POPC   NC359495  40.746  40.776   5.553
 9668POPC   PO459496  40.789  40.811   5.853
 9668POPC   GL159497  40.765  40.737   6.153
 9668POPC   GL259498  40.695  40.897   6.153
 9668POPC   C1A59499  40.777  40.820   6.453
 9668POPC   D2A59500  40.805  40.819   6.753
 9668POPC   C3A59501  40.766  40.831   7.053
 9668POPC   C4A59502  40.813  40.829   7.353
 9668POPC   C1B59503  40.658  40.939   6.453
 9668POPC   C2B59504  40.608  41.018   6.753
 9668POPC   C3B59505  40.686  40.970   7.053
 9668POPC   C4B59506  40.588  40.945   7.353
 9669POPC   NC359507  11.322  15.221   5.553
 9669POPC   PO459508  11.267  15.220   5.853
 9669POPC   GL159509  11.301  15.218   6.153
 9669POPC   GL259510  11.318  15.034   6.153
 9669POPC   C1A59511  11.335  15.148   6.453
 9669POPC   D2A59512  11.310  15.225   6.753
 9669POPC   C3A59513  11.332  15.169   7.053
 9669POPC   C4A59514  11.276  15.200   7.353
 9669POPC   C1B59515  11.443  14.930   6.453
 9669POPC   C2B59516  11.407  14.926   6.753
 9669POPC   C3B59517  11.355  14.907   7.053
 9669POPC   C4B59518  11.435  14.949   7.353
 9670POPC   NC359519  16.734   8.192   5.553
 9670POPC   PO459520  16.762   8.190   5.853
 9670POPC   GL159521  16.742   8.207   6.153
 9670POPC   GL259522  16.682   8.350   6.153
 9670POPC   C1A59523  16.740   8.234   6.453
 9670POPC   D2A59524  16.705   8.172   6.753
 9670POPC   C3A59525  16.748   8.154   7.053
 9670POPC   C4A59526  16.701   8.207   7.353
 9670POPC   C1B59527  16.582   8.387   6.453
 9670POPC   C2B59528  16.627   8.407   6.753
 9670POPC   C3B59529  16.642   8.399   7.053
 9670POPC   C4B59530  16.651   8.416   7.353
 9671POPC   NC359531  13.660  15.171   5.553
 9671POPC   PO459532  13.596  15.223   5.853
 9671POPC   GL159533  13.631  15.194   6.153
 9671POPC   GL259534  13.732  15.136   6.153
 9671POPC   C1A59535  13.624  15.163   6.453
 9671POPC   D2A59536  13.590  15.187   6.753
 9671POPC   C3A59537  13.621  15.161   7.053
 9671POPC   C4A59538  13.584  15.219   7.353
 9671POPC   C1B59539  13.842  15.068   6.453
 9671POPC   C2B59540  13.883  15.041   6.753
 9671POPC   C3B59541  13.828  15.069   7.053
 9671POPC   C4B59542  13.870  15.069   7.353
 9672POPC   NC359543  35.366  26.770   5.553
 9672POPC   PO459544  35.361  26.796   5.853
 9672POPC   GL159545  35.334  26.836   6.153
 9672POPC   GL259546  35.458  26.908   6.153
 9672POPC   C1A59547  35.374  26.865   6.453
 9672POPC   D2A59548  35.341  26.787   6.753
 9672POPC   C3A59549  35.401  26.843   7.053
 9672POPC   C4A59550  35.331  26.858   7.353
 9672POPC   C1B59551  35.576  26.941   6.453
 9672POPC   C2B59552  35.510  27.000   6.753
 9672POPC   C3B59553  35.556  27.014   7.053
 9672POPC   C4B59554  35.591  26.935   7.353
 9673POPC   NC359555   8.168  21.365   5.553
 9673POPC   PO459556   8.215  21.401   5.853
 9673POPC   GL159557   8.234  21.398   6.153
 9673POPC   GL259558   8.027  21.432   6.153
 9673POPC   C1A59559   8.210  21.343   6.453
 9673POPC   D2A59560   8.213  21.390   6.753
 9673POPC   C3A59561   8.190  21.353   7.053
 9673POPC   C4A59562   8.170  21.406   7.353
 9673POPC   C1B59563   7.934  21.405   6.453
 9673POPC   C2B59564   7.927  21.417   6.753
 9673POPC   C3B59565   7.971  21.427   7.053
 9673POPC   C4B59566   7.992  21.406   7.353
 9674POPC   NC359567   2.002  23.704   5.553
 9674POPC   PO459568   2.013  23.749   5.853
 9674POPC   GL159569   2.032  23.699   6.153
 9674POPC   GL259570   2.024  23.836   6.153
 9674POPC   C1A59571   1.943  23.705   6.453
 9674POPC   D2A59572   1.972  23.712   6.753
 9674POPC   C3A59573   1.955  23.696   7.053
 9674POPC   C4A59574   1.991  23.727   7.353
 9674POPC   C1B59575   2.081  23.889   6.453
 9674POPC   C2B59576   2.071  23.919   6.753
 9674POPC   C3B59577   2.144  23.902   7.053
 9674POPC   C4B59578   2.114  23.905   7.353
 9675POPC   NC359579  32.248  39.204   5.553
 9675POPC   PO459580  32.266  39.185   5.853
 9675POPC   GL159581  32.204  39.233   6.153
 9675POPC   GL259582  32.365  39.265   6.153
 9675POPC   C1A59583  32.241  39.204   6.453
 9675POPC   D2A59584  32.265  39.266   6.753
 9675POPC   C3A59585  32.278  39.277   7.053
 9675POPC   C4A59586  32.276  39.242   7.353
 9675POPC   C1B59587  32.460  39.388   6.453
 9675POPC   C2B59588  32.496  39.353   6.753
 9675POPC   C3B59589  32.430  39.355   7.053
 9675POPC   C4B59590  32.462  39.407   7.353
 9676POPC   NC359591  16.761   4.309   5.553
 9676POPC   PO459592  16.770   4.335   5.853
 9676POPC   GL159593  16.700   4.354   6.153
 9676POPC   GL259594  16.762   4.382   6.153
 9676POPC   C1A59595  16.751   4.348   6.453
 9676POPC   D2A59596  16.746   4.346   6.753
 9676POPC   C3A59597  16.758   4.363   7.053
 9676POPC   C4A59598  16.718   4.307   7.353
 9676POPC   C1B59599  16.835   4.561   6.453
 9676POPC   C2B59600  16.854   4.515   6.753
 9676POPC   C3B59601  16.829   4.526   7.053
 9676POPC   C4B59602  16.866   4.479   7.353
 9677POPC   NC359603  10.512  37.646   5.553
 9677POPC   PO459604  10.520  37.689   5.853
 9677POPC   GL159605  10.562  37.653   6.153
 9677POPC   GL259606  10.426  37.575   6.153
 9677POPC   C1A59607  10.482  37.684   6.453
 9677POPC   D2A59608  10.556  37.646   6.753
 9677POPC   C3A59609  10.504  37.683   7.053
 9677POPC   C4A59610  10.495  37.692   7.353
 9677POPC   C1B59611  10.338  37.531   6.453
 9677POPC   C2B59612  10.340  37.530   6.753
 9677POPC   C3B59613  10.312  37.493   7.053
 9677POPC   C4B59614  10.367  37.514   7.353
 9678POPC   NC359615  28.404   3.541   5.553
 9678POPC   PO459616  28.402   3.570   5.853
 9678POPC   GL159617  28.334   3.564   6.153
 9678POPC   GL259618  28.495   3.568   6.153
 9678POPC   C1A59619  28.362   3.577   6.453
 9678POPC   D2A59620  28.364   3.538   6.753
 9678POPC   C3A59621  28.388   3.517   7.053
 9678POPC   C4A59622  28.400   3.543   7.353
 9678POPC   C1B59623  28.599   3.691   6.453
 9678POPC   C2B59624  28.638   3.683   6.753
 9678POPC   C3B59625  28.597   3.656   7.053
 9678POPC   C4B59626  28.590   3.605   7.353
 9679POPC   NC359627  39.960   3.539   5.553
 9679POPC   PO459628  39.963   3.543   5.853
 9679POPC   GL159629  39.957   3.504   6.153
 9679POPC   GL259630  40.088   3.618   6.153
 9679POPC   C1A59631  39.987   3.503   6.453
 9679POPC   D2A59632  40.031   3.579   6.753
 9679POPC   C3A59633  40.012   3.517   7.053
 9679POPC   C4A59634  40.025   3.510   7.353
 9679POPC   C1B59635  40.053   3.782   6.453
 9679POPC   C2B59636  40.137   3.785   6.753
 9679POPC   C3B59637  40.049   3.795   7.053
 9679POPC   C4B59638  40.048   3.799   7.353
 9680POPC   NC359639  21.373  26.822   5.553
 9680POPC   PO459640  21.370  26.802   5.853
 9680POPC   GL159641  21.386  26.815   6.153
 9680POPC   GL259642  21.472  26.867   6.153
 9680POPC   C1A59643  21.343  26.780   6.453
 9680POPC   D2A59644  21.423  26.772   6.753
 9680POPC   C3A59645  21.423  26.810   7.053
 9680POPC   C4A59646  21.386  26.864   7.353
 9680POPC   C1B59647  21.664  26.781   6.453
 9680POPC   C2B59648  21.665  26.813   6.753
 9680POPC   C3B59649  21.635  26.842   7.053
 9680POPC   C4B59650  21.679  26.802   7.353
 9681POPC   NC359651   6.643   8.997   5.553
 9681POPC   PO459652   6.600   8.957   5.853
 9681POPC   GL159653   6.658   8.985   6.153
 9681POPC   GL259654   6.781   8.959   6.153
 9681POPC   C1A59655   6.681   8.927   6.453
 9681POPC   D2A59656   6.603   8.993   6.753
 9681POPC   C3A59657   6.622   8.959   7.053
 9681POPC   C4A59658   6.666   8.997   7.353
 9681POPC   C1B59659   6.857   8.970   6.453
 9681POPC   C2B59660   6.934   8.976   6.753
 9681POPC   C3B59661   6.936   8.980   7.053
 9681POPC   C4B59662   6.891   8.926   7.353
 9682POPC   NC359663   5.055  12.061   5.553
 9682POPC   PO459664   5.123  12.105   5.853
 9682POPC   GL159665   5.139  12.114   6.153
 9682POPC   GL259666   5.116  12.141   6.153
 9682POPC   C1A59667   5.054  12.084   6.453
 9682POPC   D2A59668   5.107  12.068   6.753
 9682POPC   C3A59669   5.105  12.089   7.053
 9682POPC   C4A59670   5.119  12.120   7.353
 9682POPC   C1B59671   5.254  12.319   6.453
 9682POPC   C2B59672   5.258  12.313   6.753
 9682POPC   C3B59673   5.172  12.272   7.053
 9682POPC   C4B59674   5.255  12.245   7.353
 9683POPC   NC359675  18.331  29.930   5.553
 9683POPC   PO459676  18.319  29.902   5.853
 9683POPC   GL159677  18.307  29.899   6.153
 9683POPC   GL259678  18.234  29.810   6.153
 9683POPC   C1A59679  18.270  29.952   6.453
 9683POPC   D2A59680  18.263  29.951   6.753
 9683POPC   C3A59681  18.236  29.959   7.053
 9683POPC   C4A59682  18.304  29.905   7.353
 9683POPC   C1B59683  18.207  29.670   6.453
 9683POPC   C2B59684  18.199  29.729   6.753
 9683POPC   C3B59685  18.152  29.724   7.053
 9683POPC   C4B59686  18.191  29.678   7.353
 9684POPC   NC359687  42.323   5.119   5.553
 9684POPC   PO459688  42.339   5.091   5.853
 9684POPC   GL159689  42.376   5.132   6.153
 9684POPC   GL259690  42.491   5.047   6.153
 9684POPC   C1A59691  42.323   5.051   6.453
 9684POPC   D2A59692  42.329   5.127   6.753
 9684POPC   C3A59693  42.364   5.099   7.053
 9684POPC   C4A59694  42.373   5.072   7.353
 9684POPC   C1B59695  42.529   4.992   6.453
 9684POPC   C2B59696  42.566   5.007   6.753
 9684POPC   C3B59697  42.540   4.993   7.053
 9684POPC   C4B59698  42.590   5.001   7.353
 9685POPC   NC359699   8.953  20.571   5.553
 9685POPC   PO459700   8.934  20.586   5.853
 9685POPC   GL159701   9.009  20.608   6.153
 9685POPC   GL259702   9.090  20.714   6.153
 9685POPC   C1A59703   9.020  20.626   6.453
 9685POPC   D2A59704   8.947  20.584   6.753
 9685POPC   C3A59705   9.011  20.596   7.053
 9685POPC   C4A59706   8.934  20.625   7.353
 9685POPC   C1B59707   9.183  20.775   6.453
 9685POPC   C2B59708   9.157  20.715   6.753
 9685POPC   C3B59709   9.159  20.737   7.053
 9685POPC   C4B59710   9.138  20.808   7.353
 9686POPC   NC359711  38.408  36.915   5.553
 9686POPC   PO459712  38.491  36.863   5.853
 9686POPC   GL159713  38.503  36.865   6.153
 9686POPC   GL259714  38.540  36.949   6.153
 9686POPC   C1A59715  38.470  36.938   6.453
 9686POPC   D2A59716  38.492  36.881   6.753
 9686POPC   C3A59717  38.444  36.862   7.053
 9686POPC   C4A59718  38.461  36.915   7.353
 9686POPC   C1B59719  38.745  36.932   6.453
 9686POPC   C2B59720  38.725  36.912   6.753
 9686POPC   C3B59721  38.721  36.932   7.053
 9686POPC   C4B59722  38.747  36.925   7.353
 9687POPC   NC359723   1.237  12.111   5.553
 9687POPC   PO459724   1.250  12.036   5.853
 9687POPC   GL159725   1.246  12.114   6.153
 9687POPC   GL259726   1.127  11.986   6.153
 9687POPC   C1A59727   1.198  12.094   6.453
 9687POPC   D2A59728   1.197  12.074   6.753
 9687POPC   C3A59729   1.202  12.059   7.053
 9687POPC   C4A59730   1.199  12.070   7.353
 9687POPC   C1B59731   1.086  11.798   6.453
 9687POPC   C2B59732   1.156  11.823   6.753
 9687POPC   C3B59733   1.123  11.843   7.053
 9687POPC   C4B59734   1.087  11.814   7.353
 9688POPC   NC359735  29.120  36.888   5.553
 9688POPC   PO459736  29.148  36.877   5.853
 9688POPC   GL159737  29.109  36.898   6.153
 9688POPC   GL259738  29.238  36.822   6.153
 9688POPC   C1A59739  29.130  36.908   6.453
 9688POPC   D2A59740  29.153  36.950   6.753
 9688POPC   C3A59741  29.108  36.855   7.053
 9688POPC   C4A59742  29.134  36.870   7.353
 9688POPC   C1B59743  29.406  36.797   6.453
 9688POPC   C2B59744  29.343  36.878   6.753
 9688POPC   C3B59745  29.340  36.877   7.053
 9688POPC   C4B59746  29.364  36.838   7.353
 9689POPC   NC359747  37.711  12.845   5.553
 9689POPC   PO459748  37.672  12.848   5.853
 9689POPC   GL159749  37.697  12.802   6.153
 9689POPC   GL259750  37.600  12.722   6.153
 9689POPC   C1A59751  37.670  12.830   6.453
 9689POPC   D2A59752  37.662  12.816   6.753
 9689POPC   C3A59753  37.654  12.848   7.053
 9689POPC   C4A59754  37.714  12.804   7.353
 9689POPC   C1B59755  37.564  12.676   6.453
 9689POPC   C2B59756  37.551  12.652   6.753
 9689POPC   C3B59757  37.494  12.686   7.053
 9689POPC   C4B59758  37.474  12.642   7.353
 9690POPC   NC359759  33.821  34.594   5.553
 9690POPC   PO459760  33.825  34.582   5.853
 9690POPC   GL159761  33.779  34.575   6.153
 9690POPC   GL259762  33.897  34.438   6.153
 9690POPC   C1A59763  33.825  34.554   6.453
 9690POPC   D2A59764  33.841  34.559   6.753
 9690POPC   C3A59765  33.787  34.624   7.053
 9690POPC   C4A59766  33.803  34.534   7.353
 9690POPC   C1B59767  33.965  34.334   6.453
 9690POPC   C2B59768  33.992  34.328   6.753
 9690POPC   C3B59769  33.964  34.324   7.053
 9690POPC   C4B59770  33.910  34.380   7.353
 9691POPC   NC359771  32.231  29.947   5.553
 9691POPC   PO459772  32.251  29.940   5.853
 9691POPC   GL159773  32.283  29.969   6.153
 9691POPC   GL259774  32.287  29.810   6.153
 9691POPC   C1A59775  32.236  29.923   6.453
 9691POPC   D2A59776  32.250  29.939   6.753
 9691POPC   C3A59777  32.285  29.941   7.053
 9691POPC   C4A59778  32.249  29.916   7.353
 9691POPC   C1B59779  32.377  29.763   6.453
 9691POPC   C2B59780  32.433  29.715   6.753
 9691POPC   C3B59781  32.360  29.689   7.053
 9691POPC   C4B59782  32.408  29.668   7.353
 9692POPC   NC359783  22.122  21.366   5.553
 9692POPC   PO459784  22.187  21.386   5.853
 9692POPC   GL159785  22.205  21.394   6.153
 9692POPC   GL259786  22.001  21.393   6.153
 9692POPC   C1A59787  22.183  21.353   6.453
 9692POPC   D2A59788  22.209  21.411   6.753
 9692POPC   C3A59789  22.196  21.406   7.053
 9692POPC   C4A59790  22.201  21.423   7.353
 9692POPC   C1B59791  21.926  21.375   6.453
 9692POPC   C2B59792  21.886  21.413   6.753
 9692POPC   C3B59793  21.935  21.379   7.053
 9692POPC   C4B59794  21.883  21.442   7.353
 9693POPC   NC359795  20.571  26.056   5.553
 9693POPC   PO459796  20.649  26.015   5.853
 9693POPC   GL159797  20.624  26.083   6.153
 9693POPC   GL259798  20.501  25.930   6.153
 9693POPC   C1A59799  20.567  25.995   6.453
 9693POPC   D2A59800  20.630  26.076   6.753
 9693POPC   C3A59801  20.630  26.064   7.053
 9693POPC   C4A59802  20.579  26.079   7.353
 9693POPC   C1B59803  20.406  25.928   6.453
 9693POPC   C2B59804  20.407  25.953   6.753
 9693POPC   C3B59805  20.392  25.925   7.053
 9693POPC   C4B59806  20.411  25.929   7.353
 9694POPC   NC359807   8.951   2.812   5.553
 9694POPC   PO459808   8.964   2.774   5.853
 9694POPC   GL159809   8.939   2.747   6.153
 9694POPC   GL259810   8.846   2.819   6.153
 9694POPC   C1A59811   8.955   2.809   6.453
 9694POPC   D2A59812   8.995   2.735   6.753
 9694POPC   C3A59813   9.016   2.739   7.053
 9694POPC   C4A59814   8.970   2.724   7.353
 9694POPC   C1B59815   8.681   2.753   6.453
 9694POPC   C2B59816   8.749   2.768   6.753
 9694POPC   C3B59817   8.688   2.787   7.053
 9694POPC   C4B59818   8.736   2.729   7.353
 9695POPC   NC359819  17.511  31.504   5.553
 9695POPC   PO459820  17.494  31.471   5.853
 9695POPC   GL159821  17.462  31.499   6.153
 9695POPC   GL259822  17.648  31.473   6.153
 9695POPC   C1A59823  17.509  31.436   6.453
 9695POPC   D2A59824  17.546  31.506   6.753
 9695POPC   C3A59825  17.528  31.437   7.053
 9695POPC   C4A59826  17.519  31.429   7.353
 9695POPC   C1B59827  17.722  31.401   6.453
 9695POPC   C2B59828  17.768  31.404   6.753
 9695POPC   C3B59829  17.767  31.428   7.053
 9695POPC   C4B59830  17.771  31.375   7.353
 9696POPC   NC359831  22.168   2.763   5.553
 9696POPC   PO459832  22.201   2.726   5.853
 9696POPC   GL159833  22.181   2.776   6.153
 9696POPC   GL259834  22.067   2.614   6.153
 9696POPC   C1A59835  22.162   2.735   6.453
 9696POPC   D2A59836  22.164   2.742   6.753
 9696POPC   C3A59837  22.165   2.797   7.053
 9696POPC   C4A59838  22.199   2.743   7.353
 9696POPC   C1B59839  22.105   2.574   6.453
 9696POPC   C2B59840  22.036   2.505   6.753
 9696POPC   C3B59841  22.104   2.517   7.053
 9696POPC   C4B59842  22.107   2.557   7.353
 9697POPC   NC359843  29.965  20.583   5.553
 9697POPC   PO459844  29.923  20.659   5.853
 9697POPC   GL159845  29.953  20.624   6.153
 9697POPC   GL259846  29.861  20.646   6.153
 9697POPC   C1A59847  29.900  20.642   6.453
 9697POPC   D2A59848  29.889  20.635   6.753
 9697POPC   C3A59849  29.926  20.624   7.053
 9697POPC   C4A59850  29.944  20.572   7.353
 9697POPC   C1B59851  29.664  20.788   6.453
 9697POPC   C2B59852  29.745  20.714   6.753
 9697POPC   C3B59853  29.694  20.732   7.053
 9697POPC   C4B59854  29.690  20.742   7.353
 9698POPC   NC359855  29.159  38.480   5.553
 9698POPC   PO459856  29.118  38.482   5.853
 9698POPC   GL159857  29.105  38.484   6.153
 9698POPC   GL259858  29.184  38.325   6.153
 9698POPC   C1A59859  29.125  38.499   6.453
 9698POPC   D2A59860  29.189  38.410   6.753
 9698POPC   C3A59861  29.143  38.470   7.053
 9698POPC   C4A59862  29.170  38.446   7.353
 9698POPC   C1B59863  29.279  38.279   6.453
 9698POPC   C2B59864  29.314  38.290   6.753
 9698POPC   C3B59865  29.274  38.319   7.053
 9698POPC   C4B59866  29.358  38.292   7.353
 9699POPC   NC359867   6.651   3.566   5.553
 9699POPC   PO459868   6.623   3.507   5.853
 9699POPC   GL159869   6.612   3.525   6.153
 9699POPC   GL259870   6.800   3.489   6.153
 9699POPC   C1A59871   6.620   3.506   6.453
 9699POPC   D2A59872   6.656   3.494   6.753
 9699POPC   C3A59873   6.693   3.514   7.053
 9699POPC   C4A59874   6.619   3.573   7.353
 9699POPC   C1B59875   6.853   3.522   6.453
 9699POPC   C2B59876   6.908   3.510   6.753
 9699POPC   C3B59877   6.840   3.449   7.053
 9699POPC   C4B59878   6.930   3.514   7.353
 9700POPC   NC359879  19.028  20.562   5.553
 9700POPC   PO459880  19.022  20.564   5.853
 9700POPC   GL159881  19.051  20.620   6.153
 9700POPC   GL259882  19.178  20.595   6.153
 9700POPC   C1A59883  19.024  20.593   6.453
 9700POPC   D2A59884  19.011  20.615   6.753
 9700POPC   C3A59885  19.040  20.566   7.053
 9700POPC   C4A59886  19.089  20.602   7.353
 9700POPC   C1B59887  19.334  20.641   6.453
 9700POPC   C2B59888  19.286  20.614   6.753
 9700POPC   C3B59889  19.332  20.661   7.053
 9700POPC   C4B59890  19.337  20.626   7.353
 9701POPC   NC359891  22.194  22.919   5.553
 9701POPC   PO459892  22.212  22.912   5.853
 9701POPC   GL159893  22.183  22.906   6.153
 9701POPC   GL259894  22.188  23.041   6.153
 9701POPC   C1A59895  22.180  22.942   6.453
 9701POPC   D2A59896  22.152  22.946   6.753
 9701POPC   C3A59897  22.199  22.961   7.053
 9701POPC   C4A59898  22.179  22.926   7.353
 9701POPC   C1B59899  22.264  23.182   6.453
 9701POPC   C2B59900  22.343  23.132   6.753
 9701POPC   C3B59901  22.271  23.098   7.053
 9701POPC   C4B59902  22.339  23.138   7.353
 9702POPC   NC359903  19.036   0.478   5.553
 9702POPC   PO459904  19.102   0.397   5.853
 9702POPC   GL159905  19.014   0.446   6.153
 9702POPC   GL259906  18.966   0.434   6.153
 9702POPC   C1A59907  19.084   0.461   6.453
 9702POPC   D2A59908  19.028   0.461   6.753
 9702POPC   C3A59909  19.087   0.466   7.053
 9702POPC   C4A59910  19.052   0.482   7.353
 9702POPC   C1B59911  18.806   0.437   6.453
 9702POPC   C2B59912  18.774   0.503   6.753
 9702POPC   C3B59913  18.852   0.432   7.053
 9702POPC   C4B59914  18.845   0.494   7.353
 9703POPC   NC359915   8.205  29.136   5.553
 9703POPC   PO459916   8.168  29.131   5.853
 9703POPC   GL159917   8.183  29.173   6.153
 9703POPC   GL259918   8.128  29.046   6.153
 9703POPC   C1A59919   8.204  29.150   6.453
 9703POPC   D2A59920   8.214  29.168   6.753
 9703POPC   C3A59921   8.166  29.184   7.053
 9703POPC   C4A59922   8.239  29.183   7.353
 9703POPC   C1B59923   8.055  28.952   6.453
 9703POPC   C2B59924   8.053  28.935   6.753
 9703POPC   C3B59925   8.023  28.980   7.053
 9703POPC   C4B59926   8.011  28.946   7.353
 9704POPC   NC359927  43.093  40.772   5.553
 9704POPC   PO459928  43.085  40.740   5.853
 9704POPC   GL159929  43.072  40.767   6.153
 9704POPC   GL259930  43.226  40.779   6.153
 9704POPC   C1A59931  43.070  40.817   6.453
 9704POPC   D2A59932  43.071  40.785   6.753
 9704POPC   C3A59933  43.118  40.769   7.053
 9704POPC   C4A59934  43.153  40.747   7.353
 9704POPC   C1B59935  43.374  40.737   6.453
 9704POPC   C2B59936  43.375  40.705   6.753
 9704POPC   C3B59937  43.327  40.745   7.053
 9704POPC   C4B59938  43.358  40.665   7.353
 9705POPC   NC359939  32.200  43.884   5.553
 9705POPC   PO459940  32.255  43.925   5.853
 9705POPC   GL159941  32.240  43.875   6.153
 9705POPC   GL259942  32.225  44.058   6.153
 9705POPC   C1A59943  32.256  43.923   6.453
 9705POPC   D2A59944  32.212  43.883   6.753
 9705POPC   C3A59945  32.218  43.882   7.053
 9705POPC   C4A59946  32.245  43.919   7.353
 9705POPC   C1B59947  32.293  44.097   6.453
 9705POPC   C2B59948  32.266  44.162   6.753
 9705POPC   C3B59949  32.252  44.144   7.053
 9705POPC   C4B59950  32.318  44.137   7.353
 9706POPC   NC359951  27.632  31.426   5.553
 9706POPC   PO459952  27.574  31.471   5.853
 9706POPC   GL159953  27.563  31.470   6.153
 9706POPC   GL259954  27.757  31.419   6.153
 9706POPC   C1A59955  27.623  31.520   6.453
 9706POPC   D2A59956  27.589  31.458   6.753
 9706POPC   C3A59957  27.549  31.426   7.053
 9706POPC   C4A59958  27.637  31.459   7.353
 9706POPC   C1B59959  27.851  31.404   6.453
 9706POPC   C2B59960  27.885  31.401   6.753
 9706POPC   C3B59961  27.883  31.397   7.053
 9706POPC   C4B59962  27.831  31.399   7.353
 9707POPC   NC359963   1.174  27.580   5.553
 9707POPC   PO459964   1.190  27.623   5.853
 9707POPC   GL159965   1.182  27.595   6.153
 9707POPC   GL259966   1.187  27.739   6.153
 9707POPC   C1A59967   1.235  27.581   6.453
 9707POPC   D2A59968   1.195  27.637   6.753
 9707POPC   C3A59969   1.240  27.603   7.053
 9707POPC   C4A59970   1.177  27.557   7.353
 9707POPC   C1B59971   1.145  27.838   6.453
 9707POPC   C2B59972   1.108  27.836   6.753
 9707POPC   C3B59973   1.179  27.782   7.053
 9707POPC   C4B59974   1.159  27.858   7.353
 9708POPC   NC359975  43.130  19.802   5.553
 9708POPC   PO459976  43.070  19.881   5.853
 9708POPC   GL159977  43.078  19.848   6.153
 9708POPC   GL259978  42.961  19.885   6.153
 9708POPC   C1A59979  43.129  19.823   6.453
 9708POPC   D2A59980  43.113  19.852   6.753
 9708POPC   C3A59981  43.140  19.874   7.053
 9708POPC   C4A59982  43.082  19.877   7.353
 9708POPC   C1B59983  42.824  19.860   6.453
 9708POPC   C2B59984  42.910  19.829   6.753
 9708POPC   C3B59985  42.837  19.873   7.053
 9708POPC   C4B59986  42.830  19.910   7.353
 9709POPC   NC359987  12.108  42.316   5.553
 9709POPC   PO459988  12.036  42.310   5.853
 9709POPC   GL159989  12.041  42.348   6.153
 9709POPC   GL259990  12.085  42.462   6.153
 9709POPC   C1A59991  12.076  42.319   6.453
 9709POPC   D2A59992  12.115  42.293   6.753
 9709POPC   C3A59993  12.033  42.329   7.053
 9709POPC   C4A59994  12.040  42.321   7.353
 9709POPC   C1B59995  12.143  42.588   6.453
 9709POPC   C2B59996  12.094  42.610   6.753
 9709POPC   C3B59997  12.056  42.579   7.053
 9709POPC   C4B59998  12.052  42.556   7.353
 9710POPC   NC359999  26.830  33.768   5.553
 9710POPC   PO460000  26.820  33.757   5.853
 9710POPC   GL160001  26.808  33.828   6.153
 9710POPC   GL260002  26.810  33.667   6.153
 9710POPC   C1A60003  26.835  33.761   6.453
 9710POPC   D2A60004  26.828  33.848   6.753
 9710POPC   C3A60005  26.804  33.761   7.053
 9710POPC   C4A60006  26.806  33.848   7.353
 9710POPC   C1B60007  26.671  33.569   6.453
 9710POPC   C2B60008  26.670  33.566   6.753
 9710POPC   C3B60009  26.735  33.539   7.053
 9710POPC   C4B60010  26.687  33.602   7.353
 9711POPC   NC360011   8.166   1.235   5.553
 9711POPC   PO460012   8.152   1.250   5.853
 9711POPC   GL160013   8.234   1.175   6.153
 9711POPC   GL260014   8.086   1.142   6.153
 9711POPC   C1A60015   8.226   1.251   6.453
 9711POPC   D2A60016   8.202   1.233   6.753
 9711POPC   C3A60017   8.157   1.226   7.053
 9711POPC   C4A60018   8.207   1.232   7.353
 9711POPC   C1B60019   7.950   1.106   6.453
 9711POPC   C2B60020   8.038   1.064   6.753
 9711POPC   C3B60021   7.990   1.060   7.053
 9711POPC   C4B60022   7.982   1.034   7.353
 9712POPC   NC360023  30.738  43.154   5.553
 9712POPC   PO460024  30.742  43.062   5.853
 9712POPC   GL160025  30.740  43.146   6.153
 9712POPC   GL260026  30.634  42.997   6.153
 9712POPC   C1A60027  30.689  43.154   6.453
 9712POPC   D2A60028  30.698  43.137   6.753
 9712POPC   C3A60029  30.728  43.105   7.053
 9712POPC   C4A60030  30.711  43.156   7.353
 9712POPC   C1B60031  30.646  42.861   6.453
 9712POPC   C2B60032  30.635  42.860   6.753
 9712POPC   C3B60033  30.667  42.915   7.053
 9712POPC   C4B60034  30.621  42.851   7.353
 9713POPC   NC360035  19.855  39.255   5.553
 9713POPC   PO460036  19.842  39.246   5.853
 9713POPC   GL160037  19.849  39.241   6.153
 9713POPC   GL260038  19.880  39.179   6.153
 9713POPC   C1A60039  19.841  39.246   6.453
 9713POPC   D2A60040  19.881  39.213   6.753
 9713POPC   C3A60041  19.796  39.191   7.053
 9713POPC   C4A60042  19.828  39.188   7.353
 9713POPC   C1B60043  19.986  39.009   6.453
 9713POPC   C2B60044  19.990  39.045   6.753
 9713POPC   C3B60045  20.000  39.052   7.053
 9713POPC   C4B60046  20.019  39.049   7.353
 9714POPC   NC360047  17.495  43.913   5.553
 9714POPC   PO460048  17.540  43.882   5.853
 9714POPC   GL160049  17.532  43.879   6.153
 9714POPC   GL260050  17.535  43.987   6.153
 9714POPC   C1A60051  17.476  43.908   6.453
 9714POPC   D2A60052  17.470  43.911   6.753
 9714POPC   C3A60053  17.459  43.878   7.053
 9714POPC   C4A60054  17.506  43.871   7.353
 9714POPC   C1B60055  17.545  44.118   6.453
 9714POPC   C2B60056  17.509  44.128   6.753
 9714POPC   C3B60057  17.584  44.119   7.053
 9714POPC   C4B60058  17.602  44.124   7.353
 9715POPC   NC360059  31.508  29.096   5.553
 9715POPC   PO460060  31.492  29.145   5.853
 9715POPC   GL160061  31.465  29.175   6.153
 9715POPC   GL260062  31.484  29.049   6.153
 9715POPC   C1A60063  31.425  29.105   6.453
 9715POPC   D2A60064  31.481  29.132   6.753
 9715POPC   C3A60065  31.498  29.175   7.053
 9715POPC   C4A60066  31.462  29.174   7.353
 9715POPC   C1B60067  31.404  28.933   6.453
 9715POPC   C2B60068  31.464  28.914   6.753
 9715POPC   C3B60069  31.474  28.924   7.053
 9715POPC   C4B60070  31.390  28.928   7.353
 9716POPC   NC360071  25.296  16.742   5.553
 9716POPC   PO460072  25.226  16.759   5.853
 9716POPC   GL160073  25.287  16.741   6.153
 9716POPC   GL260074  25.192  16.733   6.153
 9716POPC   C1A60075  25.262  16.707   6.453
 9716POPC   D2A60076  25.234  16.753   6.753
 9716POPC   C3A60077  25.251  16.697   7.053
 9716POPC   C4A60078  25.236  16.777   7.353
 9716POPC   C1B60079  24.991  16.836   6.453
 9716POPC   C2B60080  25.049  16.841   6.753
 9716POPC   C3B60081  24.999  16.845   7.053
 9716POPC   C4B60082  25.034  16.865   7.353
 9717POPC   NC360083  19.094  32.202   5.553
 9717POPC   PO460084  19.030  32.212   5.853
 9717POPC   GL160085  19.052  32.235   6.153
 9717POPC   GL260086  19.142  32.319   6.153
 9717POPC   C1A60087  19.052  32.258   6.453
 9717POPC   D2A60088  19.069  32.213   6.753
 9717POPC   C3A60089  19.083  32.251   7.053
 9717POPC   C4A60090  19.017  32.285   7.353
 9717POPC   C1B60091  19.170  32.465   6.453
 9717POPC   C2B60092  19.260  32.471   6.753
 9717POPC   C3B60093  19.243  32.484   7.053
 9717POPC   C4B60094  19.232  32.488   7.353
 9718POPC   NC360095   0.444   1.236   5.553
 9718POPC   PO460096   0.416   1.193   5.853
 9718POPC   GL160097   0.427   1.215   6.153
 9718POPC   GL260098   0.592   1.210   6.153
 9718POPC   C1A60099   0.421   1.192   6.453
 9718POPC   D2A60100   0.403   1.165   6.753
 9718POPC   C3A60101   0.476   1.245   7.053
 9718POPC   C4A60102   0.483   1.215   7.353
 9718POPC   C1B60103   0.645   1.141   6.453
 9718POPC   C2B60104   0.709   1.069   6.753
 9718POPC   C3B60105   0.638   1.125   7.053
 9718POPC   C4B60106   0.692   1.067   7.353
 9719POPC   NC360107  36.947   5.900   5.553
 9719POPC   PO460108  36.883   5.912   5.853
 9719POPC   GL160109  36.891   5.878   6.153
 9719POPC   GL260110  36.953   5.785   6.153
 9719POPC   C1A60111  36.864   5.912   6.453
 9719POPC   D2A60112  36.881   5.837   6.753
 9719POPC   C3A60113  36.943   5.861   7.053
 9719POPC   C4A60114  36.873   5.880   7.353
 9719POPC   C1B60115  37.044   5.639   6.453
 9719POPC   C2B60116  37.112   5.678   6.753
 9719POPC   C3B60117  37.049   5.713   7.053
 9719POPC   C4B60118  37.032   5.661   7.353
 9720POPC   NC360119  37.713  22.188   5.553
 9720POPC   PO460120  37.636  22.126   5.853
 9720POPC   GL160121  37.675  22.179   6.153
 9720POPC   GL260122  37.801  22.052   6.153
 9720POPC   C1A60123  37.689  22.164   6.453
 9720POPC   D2A60124  37.696  22.126   6.753
 9720POPC   C3A60125  37.702  22.156   7.053
 9720POPC   C4A60126  37.682  22.184   7.353
 9720POPC   C1B60127  37.847  22.025   6.453
 9720POPC   C2B60128  37.922  22.007   6.753
 9720POPC   C3B60129  37.918  22.019   7.053
 9720POPC   C4B60130  37.873  21.996   7.353
 9721POPC   NC360131  43.873  27.642   5.553
 9721POPC   PO460132  43.916  27.612   5.853
 9721POPC   GL160133  43.908  27.555   6.153
 9721POPC   GL260134  43.732  27.611   6.153
 9721POPC   C1A60135  43.902  27.599   6.453
 9721POPC   D2A60136  43.890  27.586   6.753
 9721POPC   C3A60137  43.921  27.604   7.053
 9721POPC   C4A60138  43.888  27.627   7.353
 9721POPC   C1B60139  43.672  27.675   6.453
 9721POPC   C2B60140  43.693  27.610   6.753
 9721POPC   C3B60141  43.629  27.703   7.053
 9721POPC   C4B60142  43.603  27.685   7.353
 9722POPC   NC360143  26.805  36.938   5.553
 9722POPC   PO460144  26.851  36.874   5.853
 9722POPC   GL160145  26.856  36.938   6.153
 9722POPC   GL260146  26.862  36.794   6.153
 9722POPC   C1A60147  26.780  36.870   6.453
 9722POPC   D2A60148  26.796  36.895   6.753
 9722POPC   C3A60149  26.834  36.860   7.053
 9722POPC   C4A60150  26.834  36.940   7.353
 9722POPC   C1B60151  26.956  36.651   6.453
 9722POPC   C2B60152  26.913  36.737   6.753
 9722POPC   C3B60153  26.939  36.697   7.053
 9722POPC   C4B60154  26.961  36.663   7.353
 9723POPC   NC360155  20.640  42.301   5.553
 9723POPC   PO460156  20.577  42.381   5.853
 9723POPC   GL160157  20.633  42.303   6.153
 9723POPC   GL260158  20.538  42.410   6.153
 9723POPC   C1A60159  20.628  42.356   6.453
 9723POPC   D2A60160  20.640  42.381   6.753
 9723POPC   C3A60161  20.563  42.289   7.053
 9723POPC   C4A60162  20.605  42.361   7.353
 9723POPC   C1B60163  20.443  42.574   6.453
 9723POPC   C2B60164  20.505  42.504   6.753
 9723POPC   C3B60165  20.505  42.585   7.053
 9723POPC   C4B60166  20.525  42.574   7.353
 9724POPC   NC360167  12.874   8.244   5.553
 9724POPC   PO460168  12.894   8.158   5.853
 9724POPC   GL160169  12.811   8.202   6.153
 9724POPC   GL260170  12.903   8.334   6.153
 9724POPC   C1A60171  12.858   8.201   6.453
 9724POPC   D2A60172  12.859   8.170   6.753
 9724POPC   C3A60173  12.805   8.154   7.053
 9724POPC   C4A60174  12.871   8.208   7.353
 9724POPC   C1B60175  12.909   8.411   6.453
 9724POPC   C2B60176  12.876   8.488   6.753
 9724POPC   C3B60177  12.876   8.424   7.053
 9724POPC   C4B60178  12.910   8.450   7.353
 9725POPC   NC360179   1.230   4.339   5.553
 9725POPC   PO460180   1.173   4.338   5.853
 9725POPC   GL160181   1.241   4.325   6.153
 9725POPC   GL260182   1.135   4.174   6.153
 9725POPC   C1A60183   1.256   4.298   6.453
 9725POPC   D2A60184   1.260   4.269   6.753
 9725POPC   C3A60185   1.241   4.339   7.053
 9725POPC   C4A60186   1.191   4.333   7.353
 9725POPC   C1B60187   1.082   4.089   6.453
 9725POPC   C2B60188   1.108   4.120   6.753
 9725POPC   C3B60189   1.071   4.086   7.053
 9725POPC   C4B60190   1.058   4.163   7.353
 9726POPC   NC360191  11.331   8.223   5.553
 9726POPC   PO460192  11.335   8.208   5.853
 9726POPC   GL160193  11.330   8.181   6.153
 9726POPC   GL260194  11.201   8.190   6.153
 9726POPC   C1A60195  11.319   8.163   6.453
 9726POPC   D2A60196  11.303   8.177   6.753
 9726POPC   C3A60197  11.348   8.216   7.053
 9726POPC   C4A60198  11.324   8.149   7.353
 9726POPC   C1B60199  11.073   8.088   6.453
 9726POPC   C2B60200  11.071   8.054   6.753
 9726POPC   C3B60201  11.038   8.128   7.053
 9726POPC   C4B60202  11.063   8.105   7.353
 9727POPC   NC360203  36.176   4.296   5.553
 9727POPC   PO460204  36.100   4.328   5.853
 9727POPC   GL160205  36.168   4.355   6.153
 9727POPC   GL260206  36.132   4.469   6.153
 9727POPC   C1A60207  36.086   4.298   6.453
 9727POPC   D2A60208  36.084   4.295   6.753
 9727POPC   C3A60209  36.098   4.270   7.053
 9727POPC   C4A60210  36.106   4.335   7.353
 9727POPC   C1B60211  36.075   4.527   6.453
 9727POPC   C2B60212  36.097   4.599   6.753
 9727POPC   C3B60213  36.143   4.533   7.053
 9727POPC   C4B60214  36.136   4.545   7.353
 9728POPC   NC360215  33.012   9.722   5.553
 9728POPC   PO460216  33.052   9.783   5.853
 9728POPC   GL160217  33.010   9.717   6.153
 9728POPC   GL260218  33.061   9.821   6.153
 9728POPC   C1A60219  33.062   9.738   6.453
 9728POPC   D2A60220  33.060   9.750   6.753
 9728POPC   C3A60221  33.061   9.732   7.053
 9728POPC   C4A60222  33.069   9.782   7.353
 9728POPC   C1B60223  33.122   9.985   6.453
 9728POPC   C2B60224  33.173   9.997   6.753
 9728POPC   C3B60225  33.166   9.919   7.053
 9728POPC   C4B60226  33.192   9.958   7.353
 9729POPC   NC360227  27.610  42.369   5.553
 9729POPC   PO460228  27.641  42.300   5.853
 9729POPC   GL160229  27.610  42.315   6.153
 9729POPC   GL260230  27.478  42.337   6.153
 9729POPC   C1A60231  27.622  42.361   6.453
 9729POPC   D2A60232  27.595  42.339   6.753
 9729POPC   C3A60233  27.571  42.352   7.053
 9729POPC   C4A60234  27.557  42.364   7.353
 9729POPC   C1B60235  27.321  42.340   6.453
 9729POPC   C2B60236  27.381  42.359   6.753
 9729POPC   C3B60237  27.372  42.332   7.053
 9729POPC   C4B60238  27.359  42.323   7.353
 9730POPC   NC360239  13.655  35.310   5.553
 9730POPC   PO460240  13.621  35.387   5.853
 9730POPC   GL160241  13.597  35.389   6.153
 9730POPC   GL260242  13.614  35.260   6.153
 9730POPC   C1A60243  13.580  35.350   6.453
 9730POPC   D2A60244  13.597  35.349   6.753
 9730POPC   C3A60245  13.628  35.330   7.053
 9730POPC   C4A60246  13.617  35.362   7.353
 9730POPC   C1B60247  13.558  35.108   6.453
 9730POPC   C2B60248  13.512  35.163   6.753
 9730POPC   C3B60249  13.526  35.103   7.053
 9730POPC   C4B60250  13.503  35.104   7.353
 9731POPC   NC360251   1.182  33.023   5.553
 9731POPC   PO460252   1.254  32.979   5.853
 9731POPC   GL160253   1.243  33.012   6.153
 9731POPC   GL260254   1.332  33.131   6.153
 9731POPC   C1A60255   1.196  33.023   6.453
 9731POPC   D2A60256   1.202  33.026   6.753
 9731POPC   C3A60257   1.229  32.987   7.053
 9731POPC   C4A60258   1.206  32.980   7.353
 9731POPC   C1B60259   1.381  33.121   6.453
 9731POPC   C2B60260   1.460  33.127   6.753
 9731POPC   C3B60261   1.419  33.196   7.053
 9731POPC   C4B60262   1.444  33.128   7.353
 9732POPC   NC360263   5.077   0.453   5.553
 9732POPC   PO460264   5.135   0.461   5.853
 9732POPC   GL160265   5.044   0.462   6.153
 9732POPC   GL260266   5.125   0.275   6.153
 9732POPC   C1A60267   5.137   0.464   6.453
 9732POPC   D2A60268   5.046   0.471   6.753
 9732POPC   C3A60269   5.119   0.409   7.053
 9732POPC   C4A60270   5.058   0.436   7.353
 9732POPC   C1B60271   5.103   0.194   6.453
 9732POPC   C2B60272   5.120   0.144   6.753
 9732POPC   C3B60273   5.135   0.228   7.053
 9732POPC   C4B60274   5.140   0.215   7.353
 9733POPC   NC360275  20.611   3.546   5.553
 9733POPC   PO460276  20.576   3.549   5.853
 9733POPC   GL160277  20.623   3.580   6.153
 9733POPC   GL260278  20.719   3.511   6.153
 9733POPC   C1A60279  20.636   3.505   6.453
 9733POPC   D2A60280  20.593   3.550   6.753
 9733POPC   C3A60281  20.646   3.541   7.053
 9733POPC   C4A60282  20.633   3.518   7.353
 9733POPC   C1B60283  20.768   3.400   6.453
 9733POPC   C2B60284  20.794   3.358   6.753
 9733POPC   C3B60285  20.817   3.426   7.053
 9733POPC   C4B60286  20.845   3.388   7.353
 9734POPC   NC360287  19.802  31.486   5.553
 9734POPC   PO460288  19.802  31.500   5.853
 9734POPC   GL160289  19.845  31.465   6.153
 9734POPC   GL260290  19.948  31.399   6.153
 9734POPC   C1A60291  19.851  31.481   6.453
 9734POPC   D2A60292  19.839  31.438   6.753
 9734POPC   C3A60293  19.796  31.450   7.053
 9734POPC   C4A60294  19.827  31.429   7.353
 9734POPC   C1B60295  20.056  31.374   6.453
 9734POPC   C2B60296  20.049  31.326   6.753
 9734POPC   C3B60297  20.098  31.346   7.053
 9734POPC   C4B60298  20.032  31.410   7.353
 9735POPC   NC360299   7.468  18.302   5.553
 9735POPC   PO460300   7.412  18.254   5.853
 9735POPC   GL160301   7.421  18.305   6.153
 9735POPC   GL260302   7.343  18.226   6.153
 9735POPC   C1A60303   7.433  18.284   6.453
 9735POPC   D2A60304   7.383  18.246   6.753
 9735POPC   C3A60305   7.429  18.303   7.053
 9735POPC   C4A60306   7.401  18.254   7.353
 9735POPC   C1B60307   7.321  18.099   6.453
 9735POPC   C2B60308   7.259  18.041   6.753
 9735POPC   C3B60309   7.291  18.091   7.053
 9735POPC   C4B60310   7.248  18.085   7.353
 9736POPC   NC360311  19.052  29.955   5.553
 9736POPC   PO460312  19.050  29.947   5.853
 9736POPC   GL160313  19.034  29.938   6.153
 9736POPC   GL260314  19.177  30.021   6.153
 9736POPC   C1A60315  19.018  29.913   6.453
 9736POPC   D2A60316  19.027  29.955   6.753
 9736POPC   C3A60317  19.033  29.912   7.053
 9736POPC   C4A60318  19.093  29.916   7.353
 9736POPC   C1B60319  19.229  30.105   6.453
 9736POPC   C2B60320  19.222  30.096   6.753
 9736POPC   C3B60321  19.311  30.072   7.053
 9736POPC   C4B60322  19.219  30.040   7.353
 9737POPC   NC360323  42.314  36.906   5.553
 9737POPC   PO460324  42.342  36.888   5.853
 9737POPC   GL160325  42.289  36.895   6.153
 9737POPC   GL260326  42.442  36.982   6.153
 9737POPC   C1A60327  42.324  36.888   6.453
 9737POPC   D2A60328  42.358  36.929   6.753
 9737POPC   C3A60329  42.304  36.873   7.053
 9737POPC   C4A60330  42.305  36.922   7.353
 9737POPC   C1B60331  42.542  36.966   6.453
 9737POPC   C2B60332  42.528  36.953   6.753
 9737POPC   C3B60333  42.560  36.951   7.053
 9737POPC   C4B60334  42.578  37.006   7.353
 9738POPC   NC360335  30.663   0.415   5.553
 9738POPC   PO460336  30.698   0.400   5.853
 9738POPC   GL160337  30.659   0.484   6.153
 9738POPC   GL260338  30.834   0.437   6.153
 9738POPC   C1A60339  30.734   0.412   6.453
 9738POPC   D2A60340  30.654   0.472   6.753
 9738POPC   C3A60341  30.746   0.409   7.053
 9738POPC   C4A60342  30.723   0.435   7.353
 9738POPC   C1B60343  30.896   0.415   6.453
 9738POPC   C2B60344  30.897   0.443   6.753
 9738POPC   C3B60345  30.978   0.385   7.053
 9738POPC   C4B60346  30.958   0.399   7.353
 9739POPC   NC360347  26.086  43.120   5.553
 9739POPC   PO460348  26.016  43.103   5.853
 9739POPC   GL160349  26.036  43.105   6.153
 9739POPC   GL260350  25.988  43.234   6.153
 9739POPC   C1A60351  26.090  43.152   6.453
 9739POPC   D2A60352  26.050  43.126   6.753
 9739POPC   C3A60353  26.064  43.154   7.053
 9739POPC   C4A60354  26.072  43.066   7.353
 9739POPC   C1B60355  25.922  43.294   6.453
 9739POPC   C2B60356  25.949  43.333   6.753
 9739POPC   C3B60357  25.959  43.287   7.053
 9739POPC   C4B60358  25.907  43.366   7.353
 9740POPC   NC360359  19.853  15.146   5.553
 9740POPC   PO460360  19.863  15.191   5.853
 9740POPC   GL160361  19.830  15.149   6.153
 9740POPC   GL260362  19.743  15.066   6.153
 9740POPC   C1A60363  19.850  15.162   6.453
 9740POPC   D2A60364  19.874  15.206   6.753
 9740POPC   C3A60365  19.787  15.147   7.053
 9740POPC   C4A60366  19.807  15.229   7.353
 9740POPC   C1B60367  19.618  15.006   6.453
 9740POPC   C2B60368  19.667  15.011   6.753
 9740POPC   C3B60369  19.658  14.974   7.053
 9740POPC   C4B60370  19.629  15.011   7.353
 9741POPC   NC360371  10.533  19.874   5.553
 9741POPC   PO460372  10.566  19.853   5.853
 9741POPC   GL160373  10.527  19.819   6.153
 9741POPC   GL260374  10.668  19.712   6.153
 9741POPC   C1A60375  10.570  19.803   6.453
 9741POPC   D2A60376  10.535  19.868   6.753
 9741POPC   C3A60377  10.525  19.858   7.053
 9741POPC   C4A60378  10.498  19.849   7.353
 9741POPC   C1B60379  10.682  19.642   6.453
 9741POPC   C2B60380  10.770  19.693   6.753
 9741POPC   C3B60381  10.768  19.678   7.053
 9741POPC   C4B60382  10.678  19.696   7.353
 9742POPC   NC360383  18.248  39.245   5.553
 9742POPC   PO460384  18.272  39.220   5.853
 9742POPC   GL160385  18.251  39.272   6.153
 9742POPC   GL260386  18.387  39.225   6.153
 9742POPC   C1A60387  18.284  39.251   6.453
 9742POPC   D2A60388  18.306  39.209   6.753
 9742POPC   C3A60389  18.332  39.241   7.053
 9742POPC   C4A60390  18.306  39.213   7.353
 9742POPC   C1B60391  18.474  39.341   6.453
 9742POPC   C2B60392  18.471  39.271   6.753
 9742POPC   C3B60393  18.542  39.286   7.053
 9742POPC   C4B60394  18.564  39.330   7.353
 9743POPC   NC360395  40.735   0.455   5.553
 9743POPC   PO460396  40.831   0.478   5.853
 9743POPC   GL160397  40.815   0.430   6.153
 9743POPC   GL260398  40.697   0.449   6.153
 9743POPC   C1A60399  40.768   0.419   6.453
 9743POPC   D2A60400  40.825   0.451   6.753
 9743POPC   C3A60401  40.734   0.462   7.053
 9743POPC   C4A60402  40.830   0.464   7.353
 9743POPC   C1B60403  40.581   0.403   6.453
 9743POPC   C2B60404  40.549   0.446   6.753
 9743POPC   C3B60405  40.567   0.369   7.053
 9743POPC   C4B60406  40.568   0.409   7.353
 9744POPC   NC360407  33.841  44.661   5.553
 9744POPC   PO460408  33.821  44.668   5.853
 9744POPC   GL160409  33.784  44.681   6.153
 9744POPC   GL260410  33.889  44.754   6.153
 9744POPC   C1A60411  33.791  44.672   6.453
 9744POPC   D2A60412  33.844  44.613   6.753
 9744POPC   C3A60413  33.774  44.667   7.053
 9744POPC   C4A60414  33.760  44.707   7.353
 9744POPC   C1B60415  33.876  44.865   6.453
 9744POPC   C2B60416  33.972  44.920   6.753
 9744POPC   C3B60417  33.967  44.899   7.053
 9744POPC   C4B60418  33.916  44.866   7.353
 9745POPC   NC360419   2.741  12.840   5.553
 9745POPC   PO460420   2.803  12.848   5.853
 9745POPC   GL160421   2.763  12.895   6.153
 9745POPC   GL260422   2.674  12.778   6.153
 9745POPC   C1A60423   2.741  12.835   6.453
 9745POPC   D2A60424   2.724  12.876   6.753
 9745POPC   C3A60425   2.730  12.877   7.053
 9745POPC   C4A60426   2.807  12.882   7.353
 9745POPC   C1B60427   2.536  12.697   6.453
 9745POPC   C2B60428   2.537  12.711   6.753
 9745POPC   C3B60429   2.503  12.677   7.053
 9745POPC   C4B60430   2.526  12.688   7.353
 9746POPC   NC360431  37.630  33.757   5.553
 9746POPC   PO460432  37.664  33.774   5.853
 9746POPC   GL160433  37.681  33.831   6.153
 9746POPC   GL260434  37.538  33.764   6.153
 9746POPC   C1A60435  37.696  33.842   6.453
 9746POPC   D2A60436  37.674  33.815   6.753
 9746POPC   C3A60437  37.715  33.768   7.053
 9746POPC   C4A60438  37.694  33.826   7.353
 9746POPC   C1B60439  37.483  33.634   6.453
 9746POPC   C2B60440  37.454  33.659   6.753
 9746POPC   C3B60441  37.482  33.632   7.053
 9746POPC   C4B60442  37.447  33.658   7.353
 9747POPC   NC360443  31.424  20.649   5.553
 9747POPC   PO460444  31.433  20.580   5.853
 9747POPC   GL160445  31.520  20.622   6.153
 9747POPC   GL260446  31.498  20.476   6.153
 9747POPC   C1A60447  31.470  20.590   6.453
 9747POPC   D2A60448  31.515  20.605   6.753
 9747POPC   C3A60449  31.425  20.658   7.053
 9747POPC   C4A60450  31.507  20.646   7.353
 9747POPC   C1B60451  31.477  20.376   6.453
 9747POPC   C2B60452  31.399  20.381   6.753
 9747POPC   C3B60453  31.435  20.318   7.053
 9747POPC   C4B60454  31.426  20.391   7.353
 9748POPC   NC360455  41.579  36.078   5.553
 9748POPC   PO460456  41.599  36.124   5.853
 9748POPC   GL160457  41.539  36.100   6.153
 9748POPC   GL260458  41.486  36.239   6.153
 9748POPC   C1A60459  41.523  36.087   6.453
 9748POPC   D2A60460  41.572  36.099   6.753
 9748POPC   C3A60461  41.536  36.129   7.053
 9748POPC   C4A60462  41.513  36.130   7.353
 9748POPC   C1B60463  41.526  36.383   6.453
 9748POPC   C2B60464  41.551  36.407   6.753
 9748POPC   C3B60465  41.480  36.358   7.053
 9748POPC   C4B60466  41.543  36.405   7.353
 9749POPC   NC360467  42.352  13.657   5.553
 9749POPC   PO460468  42.333  13.614   5.853
 9749POPC   GL160469  42.383  13.607   6.153
 9749POPC   GL260470  42.363  13.760   6.153
 9749POPC   C1A60471  42.338  13.676   6.453
 9749POPC   D2A60472  42.288  13.610   6.753
 9749POPC   C3A60473  42.318  13.662   7.053
 9749POPC   C4A60474  42.378  13.672   7.353
 9749POPC   C1B60475  42.470  13.804   6.453
 9749POPC   C2B60476  42.510  13.851   6.753
 9749POPC   C3B60477  42.499  13.833   7.053
 9749POPC   C4B60478  42.437  13.813   7.353
 9750POPC   NC360479   3.516   0.469   5.553
 9750POPC   PO460480   3.586   0.402   5.853
 9750POPC   GL160481   3.577   0.467   6.153
 9750POPC   GL260482   3.464   0.346   6.153
 9750POPC   C1A60483   3.514   0.467   6.453
 9750POPC   D2A60484   3.530   0.419   6.753
 9750POPC   C3A60485   3.530   0.441   7.053
 9750POPC   C4A60486   3.568   0.478   7.353
 9750POPC   C1B60487   3.446   0.254   6.453
 9750POPC   C2B60488   3.398   0.210   6.753
 9750POPC   C3B60489   3.402   0.204   7.053
 9750POPC   C4B60490   3.376   0.229   7.353
 9751POPC   NC360491  41.583  35.351   5.553
 9751POPC   PO460492  41.560  35.346   5.853
 9751POPC   GL160493  41.513  35.390   6.153
 9751POPC   GL260494  41.586  35.513   6.153
 9751POPC   C1A60495  41.599  35.310   6.453
 9751POPC   D2A60496  41.556  35.349   6.753
 9751POPC   C3A60497  41.582  35.363   7.053
 9751POPC   C4A60498  41.521  35.317   7.353
 9751POPC   C1B60499  41.537  35.558   6.453
 9751POPC   C2B60500  41.589  35.587   6.753
 9751POPC   C3B60501  41.586  35.590   7.053
 9751POPC   C4B60502  41.570  35.639   7.353
 9752POPC   NC360503  26.010  19.036   5.553
 9752POPC   PO460504  26.009  19.022   5.853
 9752POPC   GL160505  26.073  19.102   6.153
 9752POPC   GL260506  26.115  18.938   6.153
 9752POPC   C1A60507  26.004  19.088   6.453
 9752POPC   D2A60508  26.035  19.050   6.753
 9752POPC   C3A60509  26.040  19.039   7.053
 9752POPC   C4A60510  26.073  19.105   7.353
 9752POPC   C1B60511  26.278  18.887   6.453
 9752POPC   C2B60512  26.243  18.872   6.753
 9752POPC   C3B60513  26.185  18.904   7.053
 9752POPC   C4B60514  26.238  18.913   7.353
 9753POPC   NC360515   4.275  36.113   5.553
 9753POPC   PO460516   4.309  36.115   5.853
 9753POPC   GL160517   4.332  36.092   6.153
 9753POPC   GL260518   4.376  36.235   6.153
 9753POPC   C1A60519   4.301  36.097   6.453
 9753POPC   D2A60520   4.299  36.098   6.753
 9753POPC   C3A60521   4.314  36.158   7.053
 9753POPC   C4A60522   4.286  36.163   7.353
 9753POPC   C1B60523   4.391  36.379   6.453
 9753POPC   C2B60524   4.468  36.328   6.753
 9753POPC   C3B60525   4.465  36.329   7.053
 9753POPC   C4B60526   4.438  36.336   7.353
 9754POPC   NC360527  13.655  26.777   5.553
 9754POPC   PO460528  13.599  26.821   5.853
 9754POPC   GL160529  13.639  26.771   6.153
 9754POPC   GL260530  13.480  26.888   6.153
 9754POPC   C1A60531  13.643  26.812   6.453
 9754POPC   D2A60532  13.634  26.815   6.753
 9754POPC   C3A60533  13.622  26.867   7.053
 9754POPC   C4A60534  13.629  26.804   7.353
 9754POPC   C1B60535  13.455  27.003   6.453
 9754POPC   C2B60536  13.400  26.950   6.753
 9754POPC   C3B60537  13.433  26.952   7.053
 9754POPC   C4B60538  13.437  26.956   7.353
 9755POPC   NC360539   7.401  26.052   5.553
 9755POPC   PO460540   7.408  26.015   5.853
 9755POPC   GL160541   7.447  26.076   6.153
 9755POPC   GL260542   7.353  26.007   6.153
 9755POPC   C1A60543   7.389  25.995   6.453
 9755POPC   D2A60544   7.437  26.026   6.753
 9755POPC   C3A60545   7.451  25.999   7.053
 9755POPC   C4A60546   7.397  26.081   7.353
 9755POPC   C1B60547   7.196  25.855   6.453
 9755POPC   C2B60548   7.221  25.862   6.753
 9755POPC   C3B60549   7.211  25.933   7.053
 9755POPC   C4B60550   7.179  25.880   7.353
 9756POPC   NC360551  33.752  23.758   5.553
 9756POPC   PO460552  33.756  23.745   5.853
 9756POPC   GL160553  33.822  23.736   6.153
 9756POPC   GL260554  33.911  23.556   6.153
 9756POPC   C1A60555  33.805  23.695   6.453
 9756POPC   D2A60556  33.834  23.757   6.753
 9756POPC   C3A60557  33.793  23.722   7.053
 9756POPC   C4A60558  33.807  23.672   7.353
 9756POPC   C1B60559  33.917  23.462   6.453
 9756POPC   C2B60560  33.916  23.534   6.753
 9756POPC   C3B60561  33.881  23.491   7.053
 9756POPC   C4B60562  33.898  23.463   7.353
 9757POPC   NC360563  32.212  10.556   5.553
 9757POPC   PO460564  32.202  10.573   5.853
 9757POPC   GL160565  32.277  10.566   6.153
 9757POPC   GL260566  32.217  10.424   6.153
 9757POPC   C1A60567  32.259  10.520   6.453
 9757POPC   D2A60568  32.263  10.549   6.753
 9757POPC   C3A60569  32.291  10.519   7.053
 9757POPC   C4A60570  32.277  10.493   7.353
 9757POPC   C1B60571  32.091  10.322   6.453
 9757POPC   C2B60572  32.061  10.290   6.753
 9757POPC   C3B60573  32.111  10.306   7.053
 9757POPC   C4B60574  32.105  10.353   7.353
 9758POPC   NC360575  26.813  17.460   5.553
 9758POPC   PO460576  26.767  17.478   5.853
 9758POPC   GL160577  26.827  17.489   6.153
 9758POPC   GL260578  26.744  17.372   6.153
 9758POPC   C1A60579  26.774  17.460   6.453
 9758POPC   D2A60580  26.774  17.460   6.753
 9758POPC   C3A60581  26.792  17.552   7.053
 9758POPC   C4A60582  26.783  17.519   7.353
 9758POPC   C1B60583  26.654  17.374   6.453
 9758POPC   C2B60584  26.634  17.353   6.753
 9758POPC   C3B60585  26.649  17.319   7.053
 9758POPC   C4B60586  26.669  17.373   7.353
 9759POPC   NC360587  44.619   5.835   5.553
 9759POPC   PO460588  44.654   5.905   5.853
 9759POPC   GL160589  44.701   5.898   6.153
 9759POPC   GL260590  44.754   5.741   6.153
 9759POPC   C1A60591  44.652   5.868   6.453
 9759POPC   D2A60592  44.661   5.908   6.753
 9759POPC   C3A60593  44.700   5.857   7.053
 9759POPC   C4A60594  44.674   5.831   7.353
 9759POPC   C1B60595  44.746   5.624   6.453
 9759POPC   C2B60596  44.784   5.655   6.753
 9759POPC   C3B60597  44.782   5.648   7.053
 9759POPC   C4B60598  44.800   5.679   7.353
 9760POPC   NC360599  29.900  33.822   5.553
 9760POPC   PO460600  29.887  33.830   5.853
 9760POPC   GL160601  29.939  33.837   6.153
 9760POPC   GL260602  30.017  33.660   6.153
 9760POPC   C1A60603  29.909  33.803   6.453
 9760POPC   D2A60604  29.907  33.766   6.753
 9760POPC   C3A60605  29.889  33.761   7.053
 9760POPC   C4A60606  29.962  33.848   7.353
 9760POPC   C1B60607  30.066  33.637   6.453
 9760POPC   C2B60608  30.030  33.583   6.753
 9760POPC   C3B60609  30.034  33.571   7.053
 9760POPC   C4B60610  30.039  33.611   7.353
 9761POPC   NC360611  14.445  15.217   5.553
 9761POPC   PO460612  14.409  15.216   5.853
 9761POPC   GL160613  14.395  15.218   6.153
 9761POPC   GL260614  14.317  15.139   6.153
 9761POPC   C1A60615  14.391  15.223   6.453
 9761POPC   D2A60616  14.422  15.180   6.753
 9761POPC   C3A60617  14.383  15.225   7.053
 9761POPC   C4A60618  14.432  15.206   7.353
 9761POPC   C1B60619  14.167  15.023   6.453
 9761POPC   C2B60620  14.181  15.076   6.753
 9761POPC   C3B60621  14.196  15.070   7.053
 9761POPC   C4B60622  14.134  15.093   7.353
 9762POPC   NC360623  33.758  43.078   5.553
 9762POPC   PO460624  33.789  43.106   5.853
 9762POPC   GL160625  33.752  43.082   6.153
 9762POPC   GL260626  33.682  43.064   6.153
 9762POPC   C1A60627  33.843  43.138   6.453
 9762POPC   D2A60628  33.824  43.087   6.753
 9762POPC   C3A60629  33.782  43.100   7.053
 9762POPC   C4A60630  33.791  43.108   7.353
 9762POPC   C1B60631  33.547  43.028   6.453
 9762POPC   C2B60632  33.586  42.995   6.753
 9762POPC   C3B60633  33.551  43.016   7.053
 9762POPC   C4B60634  33.557  42.975   7.353
 9763POPC   NC360635   1.175  32.259   5.553
 9763POPC   PO460636   1.245  32.284   5.853
 9763POPC   GL160637   1.263  32.282   6.153
 9763POPC   GL260638   1.115  32.148   6.153
 9763POPC   C1A60639   1.240  32.291   6.453
 9763POPC   D2A60640   1.255  32.290   6.753
 9763POPC   C3A60641   1.224  32.285   7.053
 9763POPC   C4A60642   1.258  32.246   7.353
 9763POPC   C1B60643   1.023  32.155   6.453
 9763POPC   C2B60644   0.952  32.168   6.753
 9763POPC   C3B60645   1.045  32.072   7.053
 9763POPC   C4B60646   1.032  32.071   7.353
 9764POPC   NC360647   1.253  35.326   5.553
 9764POPC   PO460648   1.203  35.378   5.853
 9764POPC   GL160649   1.257  35.364   6.153
 9764POPC   GL260650   1.295  35.360   6.153
 9764POPC   C1A60651   1.201  35.326   6.453
 9764POPC   D2A60652   1.208  35.344   6.753
 9764POPC   C3A60653   1.241  35.331   7.053
 9764POPC   C4A60654   1.246  35.354   7.353
 9764POPC   C1B60655   1.465  35.367   6.453
 9764POPC   C2B60656   1.496  35.335   6.753
 9764POPC   C3B60657   1.495  35.399   7.053
 9764POPC   C4B60658   1.470  35.309   7.353
 9765POPC   NC360659  23.686   5.833   5.553
 9765POPC   PO460660  23.691   5.879   5.853
 9765POPC   GL160661  23.722   5.881   6.153
 9765POPC   GL260662  23.823   5.923   6.153
 9765POPC   C1A60663  23.725   5.823   6.453
 9765POPC   D2A60664  23.723   5.822   6.753
 9765POPC   C3A60665  23.682   5.833   7.053
 9765POPC   C4A60666  23.734   5.881   7.353
 9765POPC   C1B60667  23.873   6.021   6.453
 9765POPC   C2B60668  23.952   6.029   6.753
 9765POPC   C3B60669  23.875   6.025   7.053
 9765POPC   C4B60670  23.869   5.988   7.353
 9766POPC   NC360671  12.085   8.932   5.553
 9766POPC   PO460672  12.078   8.955   5.853
 9766POPC   GL160673  12.069   8.982   6.153
 9766POPC   GL260674  12.020   8.845   6.153
 9766POPC   C1A60675  12.073   8.991   6.453
 9766POPC   D2A60676  12.029   8.987   6.753
 9766POPC   C3A60677  12.039   9.012   7.053
 9766POPC   C4A60678  12.121   8.956   7.353
 9766POPC   C1B60679  12.026   8.693   6.453
 9766POPC   C2B60680  11.989   8.693   6.753
 9766POPC   C3B60681  11.966   8.686   7.053
 9766POPC   C4B60682  11.992   8.686   7.353
 9767POPC   NC360683  29.969  26.043   5.553
 9767POPC   PO460684  29.877  26.008   5.853
 9767POPC   GL160685  29.926  26.033   6.153
 9767POPC   GL260686  29.993  26.115   6.153
 9767POPC   C1A60687  29.949  25.999   6.453
 9767POPC   D2A60688  29.895  26.004   6.753
 9767POPC   C3A60689  29.941  26.067   7.053
 9767POPC   C4A60690  29.963  26.055   7.353
 9767POPC   C1B60691  30.145  26.161   6.453
 9767POPC   C2B60692  30.131  26.121   6.753
 9767POPC   C3B60693  30.185  26.181   7.053
 9767POPC   C4B60694  30.104  26.135   7.353
 9768POPC   NC360695   8.230   8.987   5.553
 9768POPC   PO460696   8.237   8.985   5.853
 9768POPC   GL160697   8.161   8.994   6.153
 9768POPC   GL260698   8.288   8.925   6.153
 9768POPC   C1A60699   8.197   8.985   6.453
 9768POPC   D2A60700   8.150   8.945   6.753
 9768POPC   C3A60701   8.176   9.016   7.053
 9768POPC   C4A60702   8.224   9.008   7.353
 9768POPC   C1B60703   8.369   8.784   6.453
 9768POPC   C2B60704   8.351   8.839   6.753
 9768POPC   C3B60705   8.421   8.808   7.053
 9768POPC   C4B60706   8.361   8.809   7.353
 9769POPC   NC360707  33.789  15.222   5.553
 9769POPC   PO460708  33.760  15.165   5.853
 9769POPC   GL160709  33.796  15.171   6.153
 9769POPC   GL260710  33.680  15.153   6.153
 9769POPC   C1A60711  33.765  15.169   6.453
 9769POPC   D2A60712  33.806  15.189   6.753
 9769POPC   C3A60713  33.821  15.153   7.053
 9769POPC   C4A60714  33.765  15.147   7.353
 9769POPC   C1B60715  33.517  15.177   6.453
 9769POPC   C2B60716  33.567  15.208   6.753
 9769POPC   C3B60717  33.519  15.211   7.053
 9769POPC   C4B60718  33.578  15.187   7.353
 9770POPC   NC360719  22.152   6.650   5.553
 9770POPC   PO460720  22.115   6.634   5.853
 9770POPC   GL160721  22.129   6.599   6.153
 9770POPC   GL260722  22.317   6.727   6.153
 9770POPC   C1A60723  22.165   6.685   6.453
 9770POPC   D2A60724  22.184   6.662   6.753
 9770POPC   C3A60725  22.168   6.612   7.053
 9770POPC   C4A60726  22.179   6.657   7.353
 9770POPC   C1B60727  22.353   6.694   6.453
 9770POPC   C2B60728  22.421   6.750   6.753
 9770POPC   C3B60729  22.450   6.692   7.053
 9770POPC   C4B60730  22.379   6.672   7.353
 9771POPC   NC360731   1.183  20.599   5.553
 9771POPC   PO460732   1.227  20.630   5.853
 9771POPC   GL160733   1.248  20.648   6.153
 9771POPC   GL260734   1.222  20.724   6.153
 9771POPC   C1A60735   1.247  20.628   6.453
 9771POPC   D2A60736   1.170  20.571   6.753
 9771POPC   C3A60737   1.238  20.634   7.053
 9771POPC   C4A60738   1.251  20.611   7.353
 9771POPC   C1B60739   1.363  20.869   6.453
 9771POPC   C2B60740   1.320  20.845   6.753
 9771POPC   C3B60741   1.368  20.859   7.053
 9771POPC   C4B60742   1.292  20.874   7.353
 9772POPC   NC360743  37.638   8.180   5.553
 9772POPC   PO460744  37.686   8.180   5.853
 9772POPC   GL160745  37.688   8.187   6.153
 9772POPC   GL260746  37.610   8.097   6.153
 9772POPC   C1A60747  37.706   8.207   6.453
 9772POPC   D2A60748  37.710   8.224   6.753
 9772POPC   C3A60749  37.651   8.212   7.053
 9772POPC   C4A60750  37.687   8.235   7.353
 9772POPC   C1B60751  37.506   8.013   6.453
 9772POPC   C2B60752  37.503   7.969   6.753
 9772POPC   C3B60753  37.486   8.045   7.053
 9772POPC   C4B60754  37.524   7.979   7.353
 9773POPC   NC360755  43.078  19.022   5.553
 9773POPC   PO460756  43.088  19.016   5.853
 9773POPC   GL160757  43.113  19.099   6.153
 9773POPC   GL260758  43.112  19.189   6.153
 9773POPC   C1A60759  43.093  19.089   6.453
 9773POPC   D2A60760  43.141  19.063   6.753
 9773POPC   C3A60761  43.099  19.058   7.053
 9773POPC   C4A60762  43.135  19.092   7.353
 9773POPC   C1B60763  43.163  19.331   6.453
 9773POPC   C2B60764  43.186  19.318   6.753
 9773POPC   C3B60765  43.197  19.246   7.053
 9773POPC   C4B60766  43.205  19.315   7.353
 9774POPC   NC360767  22.927  26.006   5.553
 9774POPC   PO460768  22.973  26.016   5.853
 9774POPC   GL160769  22.893  26.023   6.153
 9774POPC   GL260770  22.970  25.887   6.153
 9774POPC   C1A60771  22.944  26.024   6.453
 9774POPC   D2A60772  22.925  25.998   6.753
 9774POPC   C3A60773  22.915  26.030   7.053
 9774POPC   C4A60774  22.920  26.008   7.353
 9774POPC   C1B60775  22.993  25.826   6.453
 9774POPC   C2B60776  23.083  25.845   6.753
 9774POPC   C3B60777  23.054  25.826   7.053
 9774POPC   C4B60778  23.031  25.839   7.353
 9775POPC   NC360779  32.259  19.041   5.553
 9775POPC   PO460780  32.270  19.016   5.853
 9775POPC   GL160781  32.249  19.094   6.153
 9775POPC   GL260782  32.366  18.930   6.153
 9775POPC   C1A60783  32.227  19.016   6.453
 9775POPC   D2A60784  32.251  19.068   6.753
 9775POPC   C3A60785  32.242  19.056   7.053
 9775POPC   C4A60786  32.297  19.107   7.353
 9775POPC   C1B60787  32.488  18.886   6.453
 9775POPC   C2B60788  32.474  18.882   6.753
 9775POPC   C3B60789  32.403  18.873   7.053
 9775POPC   C4B60790  32.411  18.904   7.353
 9776POPC   NC360791   5.915  32.229   5.553
 9776POPC   PO460792   5.869  32.261   5.853
 9776POPC   GL160793   5.844  32.293   6.153
 9776POPC   GL260794   5.772  32.212   6.153
 9776POPC   C1A60795   5.891  32.223   6.453
 9776POPC   D2A60796   5.867  32.285   6.753
 9776POPC   C3A60797   5.841  32.292   7.053
 9776POPC   C4A60798   5.901  32.228   7.353
 9776POPC   C1B60799   5.653  32.182   6.453
 9776POPC   C2B60800   5.601  32.193   6.753
 9776POPC   C3B60801   5.613  32.222   7.053
 9776POPC   C4B60802   5.650  32.158   7.353
 9777POPC   NC360803  12.900   7.435   5.553
 9777POPC   PO460804  12.846   7.450   5.853
 9777POPC   GL160805  12.811   7.436   6.153
 9777POPC   GL260806  12.909   7.322   6.153
 9777POPC   C1A60807  12.823   7.437   6.453
 9777POPC   D2A60808  12.823   7.448   6.753
 9777POPC   C3A60809  12.810   7.416   7.053
 9777POPC   C4A60810  12.841   7.392   7.353
 9777POPC   C1B60811  12.910   7.144   6.453
 9777POPC   C2B60812  12.934   7.140   6.753
 9777POPC   C3B60813  12.941   7.159   7.053
 9777POPC   C4B60814  12.968   7.160   7.353
 9778POPC   NC360815  18.239   6.623   5.553
 9778POPC   PO460816  18.270   6.657   5.853
 9778POPC   GL160817  18.318   6.673   6.153
 9778POPC   GL260818  18.159   6.579   6.153
 9778POPC   C1A60819  18.284   6.627   6.453
 9778POPC   D2A60820  18.285   6.667   6.753
 9778POPC   C3A60821  18.303   6.626   7.053
 9778POPC   C4A60822  18.297   6.661   7.353
 9778POPC   C1B60823  18.027   6.624   6.453
 9778POPC   C2B60824  18.056   6.573   6.753
 9778POPC   C3B60825  18.062   6.529   7.053
 9778POPC   C4B60826  17.996   6.580   7.353
 9779POPC   NC360827  36.156  12.116   5.553
 9779POPC   PO460828  36.092  12.098   5.853
 9779POPC   GL160829  36.147  12.060   6.153
 9779POPC   GL260830  36.236  11.988   6.153
 9779POPC   C1A60831  36.109  12.071   6.453
 9779POPC   D2A60832  36.136  12.049   6.753
 9779POPC   C3A60833  36.171  12.055   7.053
 9779POPC   C4A60834  36.114  12.076   7.353
 9779POPC   C1B60835  36.381  11.997   6.453
 9779POPC   C2B60836  36.374  11.962   6.753
 9779POPC   C3B60837  36.315  12.035   7.053
 9779POPC   C4B60838  36.396  11.947   7.353
 9780POPC   NC360839  40.016   5.133   5.553
 9780POPC   PO460840  40.012   5.079   5.853
 9780POPC   GL160841  40.042   5.137   6.153
 9780POPC   GL260842  40.051   5.185   6.153
 9780POPC   C1A60843  39.957   5.084   6.453
 9780POPC   D2A60844  40.020   5.135   6.753
 9780POPC   C3A60845  39.966   5.084   7.053
 9780POPC   C4A60846  40.054   5.135   7.353
 9780POPC   C1B60847  40.045   5.370   6.453
 9780POPC   C2B60848  40.065   5.366   6.753
 9780POPC   C3B60849  40.020   5.305   7.053
 9780POPC   C4B60850  39.992   5.327   7.353
 9781POPC   NC360851  21.370   9.014   5.553
 9781POPC   PO460852  21.337   8.968   5.853
 9781POPC   GL160853  21.387   8.924   6.153
 9781POPC   GL260854  21.476   8.881   6.153
 9781POPC   C1A60855  21.371   8.979   6.453
 9781POPC   D2A60856  21.435   8.960   6.753
 9781POPC   C3A60857  21.356   8.980   7.053
 9781POPC   C4A60858  21.420   9.000   7.353
 9781POPC   C1B60859  21.613   8.801   6.453
 9781POPC   C2B60860  21.599   8.859   6.753
 9781POPC   C3B60861  21.548   8.854   7.053
 9781POPC   C4B60862  21.614   8.848   7.353
 9782POPC   NC360863  17.492   8.162   5.553
 9782POPC   PO460864  17.530   8.245   5.853
 9782POPC   GL160865  17.488   8.233   6.153
 9782POPC   GL260866  17.352   8.253   6.153
 9782POPC   C1A60867  17.538   8.226   6.453
 9782POPC   D2A60868  17.512   8.244   6.753
 9782POPC   C3A60869  17.459   8.202   7.053
 9782POPC   C4A60870  17.480   8.207   7.353
 9782POPC   C1B60871  17.295   8.285   6.453
 9782POPC   C2B60872  17.287   8.208   6.753
 9782POPC   C3B60873  17.233   8.227   7.053
 9782POPC   C4B60874  17.219   8.263   7.353
 9783POPC   NC360875  33.035  29.136   5.553
 9783POPC   PO460876  32.993  29.162   5.853
 9783POPC   GL160877  33.061  29.140   6.153
 9783POPC   GL260878  32.934  29.140   6.153
 9783POPC   C1A60879  33.030  29.118   6.453
 9783POPC   D2A60880  33.044  29.145   6.753
 9783POPC   C3A60881  33.053  29.113   7.053
 9783POPC   C4A60882  33.065  29.171   7.353
 9783POPC   C1B60883  32.768  29.256   6.453
 9783POPC   C2B60884  32.733  29.254   6.753
 9783POPC   C3B60885  32.805  29.189   7.053
 9783POPC   C4B60886  32.751  29.221   7.353
 9784POPC   NC360887  14.427  17.497   5.553
 9784POPC   PO460888  14.451  17.471   5.853
 9784POPC   GL160889  14.362  17.521   6.153
 9784POPC   GL260890  14.430  17.648   6.153
 9784POPC   C1A60891  14.365  17.513   6.453
 9784POPC   D2A60892  14.359  17.463   6.753
 9784POPC   C3A60893  14.416  17.463   7.053
 9784POPC   C4A60894  14.372  17.529   7.353
 9784POPC   C1B60895  14.429  17.727   6.453
 9784POPC   C2B60896  14.404  17.743   6.753
 9784POPC   C3B60897  14.425  17.784   7.053
 9784POPC   C4B60898  14.401  17.769   7.353
 9785POPC   NC360899  23.692  27.572   5.553
 9785POPC   PO460900  23.684  27.578   5.853
 9785POPC   GL160901  23.729  27.628   6.153
 9785POPC   GL260902  23.677  27.676   6.153
 9785POPC   C1A60903  23.703  27.556   6.453
 9785POPC   D2A60904  23.728  27.634   6.753
 9785POPC   C3A60905  23.683  27.608   7.053
 9785POPC   C4A60906  23.694  27.602   7.353
 9785POPC   C1B60907  23.672  27.858   6.453
 9785POPC   C2B60908  23.648  27.828   6.753
 9785POPC   C3B60909  23.651  27.846   7.053
 9785POPC   C4B60910  23.660  27.877   7.353
 9786POPC   NC360911  15.985  28.327   5.553
 9786POPC   PO460912  15.974  28.343   5.853
 9786POPC   GL160913  15.906  28.390   6.153
 9786POPC   GL260914  15.850  28.302   6.153
 9786POPC   C1A60915  15.963  28.382   6.453
 9786POPC   D2A60916  15.989  28.366   6.753
 9786POPC   C3A60917  15.911  28.381   7.053
 9786POPC   C4A60918  15.963  28.330   7.353
 9786POPC   C1B60919  15.789  28.182   6.453
 9786POPC   C2B60920  15.732  28.179   6.753
 9786POPC   C3B60921  15.739  28.217   7.053
 9786POPC   C4B60922  15.807  28.166   7.353
 9787POPC   NC360923  26.824   1.245   5.553
 9787POPC   PO460924  26.782   1.242   5.853
 9787POPC   GL160925  26.809   1.241   6.153
 9787POPC   GL260926  26.737   1.335   6.153
 9787POPC   C1A60927  26.862   1.239   6.453
 9787POPC   D2A60928  26.806   1.168   6.753
 9787POPC   C3A60929  26.819   1.191   7.053
 9787POPC   C4A60930  26.794   1.204   7.353
 9787POPC   C1B60931  26.609   1.391   6.453
 9787POPC   C2B60932  26.621   1.360   6.753
 9787POPC   C3B60933  26.646   1.404   7.053
 9787POPC   C4B60934  26.597   1.370   7.353
 9788POPC   NC360935  19.853  36.898   5.553
 9788POPC   PO460936  19.791  36.908   5.853
 9788POPC   GL160937  19.814  36.944   6.153
 9788POPC   GL260938  19.928  36.877   6.153
 9788POPC   C1A60939  19.812  36.937   6.453
 9788POPC   D2A60940  19.873  36.901   6.753
 9788POPC   C3A60941  19.844  36.868   7.053
 9788POPC   C4A60942  19.878  36.934   7.353
 9788POPC   C1B60943  20.090  36.931   6.453
 9788POPC   C2B60944  20.104  36.926   6.753
 9788POPC   C3B60945  20.062  36.930   7.053
 9788POPC   C4B60946  20.098  36.931   7.353
 9789POPC   NC360947  31.494  12.029   5.553
 9789POPC   PO460948  31.518  12.036   5.853
 9789POPC   GL160949  31.450  12.083   6.153
 9789POPC   GL260950  31.446  11.924   6.153
 9789POPC   C1A60951  31.519  12.115   6.453
 9789POPC   D2A60952  31.513  12.118   6.753
 9789POPC   C3A60953  31.516  12.050   7.053
 9789POPC   C4A60954  31.501  12.113   7.353
 9789POPC   C1B60955  31.340  11.854   6.453
 9789POPC   C2B60956  31.297  11.906   6.753
 9789POPC   C3B60957  31.343  11.900   7.053
 9789POPC   C4B60958  31.321  11.897   7.353
 9790POPC   NC360959   1.995  34.554   5.553
 9790POPC   PO460960   1.948  34.599   5.853
 9790POPC   GL160961   1.985  34.531   6.153
 9790POPC   GL260962   1.855  34.673   6.153
 9790POPC   C1A60963   2.035  34.537   6.453
 9790POPC   D2A60964   1.963  34.533   6.753
 9790POPC   C3A60965   2.028  34.568   7.053
 9790POPC   C4A60966   1.968  34.558   7.353
 9790POPC   C1B60967   1.765  34.679   6.453
 9790POPC   C2B60968   1.772  34.723   6.753
 9790POPC   C3B60969   1.753  34.674   7.053
 9790POPC   C4B60970   1.809  34.671   7.353
 9791POPC   NC360971   0.471  14.356   5.553
 9791POPC   PO460972   0.450  14.442   5.853
 9791POPC   GL160973   0.471  14.425   6.153
 9791POPC   GL260974   0.386  14.266   6.153
 9791POPC   C1A60975   0.485  14.422   6.453
 9791POPC   D2A60976   0.417  14.446   6.753
 9791POPC   C3A60977   0.462  14.440   7.053
 9791POPC   C4A60978   0.394  14.375   7.353
 9791POPC   C1B60979   0.421  14.166   6.453
 9791POPC   C2B60980   0.370  14.124   6.753
 9791POPC   C3B60981   0.406  14.191   7.053
 9791POPC   C4B60982   0.383  14.188   7.353
 9792POPC   NC360983  39.255  43.902   5.553
 9792POPC   PO460984  39.247  43.840   5.853
 9792POPC   GL160985  39.249  43.906   6.153
 9792POPC   GL260986  39.248  44.033   6.153
 9792POPC   C1A60987  39.271  43.865   6.453
 9792POPC   D2A60988  39.184  43.859   6.753
 9792POPC   C3A60989  39.215  43.895   7.053
 9792POPC   C4A60990  39.253  43.906   7.353
 9792POPC   C1B60991  39.297  44.120   6.453
 9792POPC   C2B60992  39.317  44.151   6.753
 9792POPC   C3B60993  39.288  44.134   7.053
 9792POPC   C4B60994  39.289  44.140   7.353
 9793POPC   NC360995  22.947   0.423   5.553
 9793POPC   PO460996  22.888   0.393   5.853
 9793POPC   GL160997  22.893   0.443   6.153
 9793POPC   GL260998  22.815   0.386   6.153
 9793POPC   C1A60999  22.985   0.426   6.453
 9793POPC   D2A61000  22.933   0.456   6.753
 9793POPC   C3A61001  22.914   0.438   7.053
 9793POPC   C4A61002  22.935   0.410   7.353
 9793POPC   C1B61003  22.685   0.373   6.453
 9793POPC   C2B61004  22.678   0.413   6.753
 9793POPC   C3B61005  22.722   0.445   7.053
 9793POPC   C4B61006  22.709   0.410   7.353
 9794POPC   NC361007   5.061  36.081   5.553
 9794POPC   PO461008   5.100  36.137   5.853
 9794POPC   GL161009   5.055  36.164   6.153
 9794POPC   GL261010   5.113  35.979   6.153
 9794POPC   C1A61011   5.121  36.098   6.453
 9794POPC   D2A61012   5.104  36.132   6.753
 9794POPC   C3A61013   5.060  36.164   7.053
 9794POPC   C4A61014   5.078  36.111   7.353
 9794POPC   C1B61015   5.184  35.904   6.453
 9794POPC   C2B61016   5.241  35.939   6.753
 9794POPC   C3B61017   5.191  35.909   7.053
 9794POPC   C4B61018   5.192  35.882   7.353
 9795POPC   NC361019  30.668  25.308   5.553
 9795POPC   PO461020  30.693  25.258   5.853
 9795POPC   GL161021  30.745  25.280   6.153
 9795POPC   GL261022  30.760  25.432   6.153
 9795POPC   C1A61023  30.685  25.312   6.453
 9795POPC   D2A61024  30.667  25.265   6.753
 9795POPC   C3A61025  30.679  25.229   7.053
 9795POPC   C4A61026  30.677  25.232   7.353
 9795POPC   C1B61027  30.721  25.487   6.453
 9795POPC   C2B61028  30.794  25.504   6.753
 9795POPC   C3B61029  30.757  25.513   7.053
 9795POPC   C4B61030  30.777  25.500   7.353
 9796POPC   NC361031   5.059  11.276   5.553
 9796POPC   PO461032   5.055  11.301   5.853
 9796POPC   GL161033   5.057  11.266   6.153
 9796POPC   GL261034   4.943  11.302   6.153
 9796POPC   C1A61035   5.072  11.307   6.453
 9796POPC   D2A61036   5.109  11.323   6.753
 9796POPC   C3A61037   5.071  11.283   7.053
 9796POPC   C4A61038   5.097  11.283   7.353
 9796POPC   C1B61039   4.857  11.300   6.453
 9796POPC   C2B61040   4.852  11.238   6.753
 9796POPC   C3B61041   4.888  11.259   7.053
 9796POPC   C4B61042   4.884  11.242   7.353
 9797POPC   NC361043  36.097  43.091   5.553
 9797POPC   PO461044  36.124  43.136   5.853
 9797POPC   GL161045  36.131  43.073   6.153
 9797POPC   GL261046  36.215  43.037   6.153
 9797POPC   C1A61047  36.154  43.148   6.453
 9797POPC   D2A61048  36.100  43.066   6.753
 9797POPC   C3A61049  36.078  43.153   7.053
 9797POPC   C4A61050  36.100  43.079   7.353
 9797POPC   C1B61051  36.176  42.918   6.453
 9797POPC   C2B61052  36.258  42.916   6.753
 9797POPC   C3B61053  36.177  42.890   7.053
 9797POPC   C4B61054  36.209  42.900   7.353
 9798POPC   NC361055  41.607  33.017   5.553
 9798POPC   PO461056  41.579  33.071   5.853
 9798POPC   GL161057  41.547  33.001   6.153
 9798POPC   GL261058  41.678  32.921   6.153
 9798POPC   C1A61059  41.530  33.002   6.453
 9798POPC   D2A61060  41.545  33.061   6.753
 9798POPC   C3A61061  41.585  33.051   7.053
 9798POPC   C4A61062  41.539  33.043   7.353
 9798POPC   C1B61063  41.746  32.906   6.453
 9798POPC   C2B61064  41.714  32.887   6.753
 9798POPC   C3B61065  41.709  32.901   7.053
 9798POPC   C4B61066  41.730  32.887   7.353
 9799POPC   NC361067  26.064  39.191   5.553
 9799POPC   PO461068  26.008  39.220   5.853
 9799POPC   GL161069  26.057  39.221   6.153
 9799POPC   GL261070  25.952  39.099   6.153
 9799POPC   C1A61071  26.090  39.182   6.453
 9799POPC   D2A61072  26.039  39.206   6.753
 9799POPC   C3A61073  26.000  39.183   7.053
 9799POPC   C4A61074  26.089  39.216   7.353
 9799POPC   C1B61075  25.892  39.097   6.453
 9799POPC   C2B61076  25.836  39.087   6.753
 9799POPC   C3B61077  25.864  39.053   7.053
 9799POPC   C4B61078  25.910  39.095   7.353
 9800POPC   NC361079  23.705  41.532   5.553
 9800POPC   PO461080  23.712  41.571   5.853
 9800POPC   GL161081  23.750  41.515   6.153
 9800POPC   GL261082  23.844  41.541   6.153
 9800POPC   C1A61083  23.679  41.544   6.453
 9800POPC   D2A61084  23.733  41.520   6.753
 9800POPC   C3A61085  23.740  41.533   7.053
 9800POPC   C4A61086  23.760  41.575   7.353
 9800POPC   C1B61087  23.981  41.548   6.453
 9800POPC   C2B61088  23.927  41.548   6.753
 9800POPC   C3B61089  23.951  41.461   7.053
 9800POPC   C4B61090  23.970  41.504   7.353
 9801POPC   NC361091  28.353  24.484   5.553
 9801POPC   PO461092  28.400  24.491   5.853
 9801POPC   GL161093  28.412  24.516   6.153
 9801POPC   GL261094  28.420  24.337   6.153
 9801POPC   C1A61095  28.331  24.449   6.453
 9801POPC   D2A61096  28.416  24.501   6.753
 9801POPC   C3A61097  28.409  24.502   7.053
 9801POPC   C4A61098  28.399  24.517   7.353
 9801POPC   C1B61099  28.385  24.278   6.453
 9801POPC   C2B61100  28.381  24.263   6.753
 9801POPC   C3B61101  28.383  24.232   7.053
 9801POPC   C4B61102  28.454  24.208   7.353
 9802POPC   NC361103  24.506  29.933   5.553
 9802POPC   PO461104  24.511  29.965   5.853
 9802POPC   GL161105  24.495  29.901   6.153
 9802POPC   GL261106  24.562  30.063   6.153
 9802POPC   C1A61107  24.537  29.965   6.453
 9802POPC   D2A61108  24.523  29.887   6.753
 9802POPC   C3A61109  24.459  29.886   7.053
 9802POPC   C4A61110  24.510  29.880   7.353
 9802POPC   C1B61111  24.622  30.162   6.453
 9802POPC   C2B61112  24.629  30.172   6.753
 9802POPC   C3B61113  24.571  30.103   7.053
 9802POPC   C4B61114  24.594  30.119   7.353
 9803POPC   NC361115   5.856  27.590   5.553
 9803POPC   PO461116   5.840  27.588   5.853
 9803POPC   GL161117   5.905  27.583   6.153
 9803POPC   GL261118   5.744  27.528   6.153
 9803POPC   C1A61119   5.908  27.632   6.453
 9803POPC   D2A61120   5.889  27.632   6.753
 9803POPC   C3A61121   5.821  27.582   7.053
 9803POPC   C4A61122   5.871  27.618   7.353
 9803POPC   C1B61123   5.665  27.539   6.453
 9803POPC   C2B61124   5.667  27.452   6.753
 9803POPC   C3B61125   5.612  27.533   7.053
 9803POPC   C4B61126   5.591  27.449   7.353
 9804POPC   NC361127   6.607  17.551   5.553
 9804POPC   PO461128   6.695  17.503   5.853
 9804POPC   GL161129   6.648  17.510   6.153
 9804POPC   GL261130   6.546  17.459   6.153
 9804POPC   C1A61131   6.621  17.489   6.453
 9804POPC   D2A61132   6.655  17.508   6.753
 9804POPC   C3A61133   6.650  17.464   7.053
 9804POPC   C4A61134   6.597  17.519   7.353
 9804POPC   C1B61135   6.356  17.558   6.453
 9804POPC   C2B61136   6.432  17.533   6.753
 9804POPC   C3B61137   6.388  17.501   7.053
 9804POPC   C4B61138   6.436  17.535   7.353
 9805POPC   NC361139   2.781  36.931   5.553
 9805POPC   PO461140   2.814  36.952   5.853
 9805POPC   GL161141   2.807  36.930   6.153
 9805POPC   GL261142   2.671  36.882   6.153
 9805POPC   C1A61143   2.730  36.882   6.453
 9805POPC   D2A61144   2.771  36.873   6.753
 9805POPC   C3A61145   2.814  36.912   7.053
 9805POPC   C4A61146   2.744  36.860   7.353
 9805POPC   C1B61147   2.498  36.847   6.453
 9805POPC   C2B61148   2.581  36.772   6.753
 9805POPC   C3B61149   2.540  36.809   7.053
 9805POPC   C4B61150   2.504  36.805   7.353
 9806POPC   NC361151  26.850  32.984   5.553
 9806POPC   PO461152  26.847  32.978   5.853
 9806POPC   GL161153  26.772  33.061   6.153
 9806POPC   GL261154  26.784  32.926   6.153
 9806POPC   C1A61155  26.810  33.066   6.453
 9806POPC   D2A61156  26.814  33.065   6.753
 9806POPC   C3A61157  26.836  33.068   7.053
 9806POPC   C4A61158  26.841  32.982   7.353
 9806POPC   C1B61159  26.708  32.789   6.453
 9806POPC   C2B61160  26.760  32.786   6.753
 9806POPC   C3B61161  26.790  32.827   7.053
 9806POPC   C4B61162  26.734  32.824   7.353
 9807POPC   NC361163  22.194   9.018   5.553
 9807POPC   PO461164  22.159   8.978   5.853
 9807POPC   GL161165  22.162   8.954   6.153
 9807POPC   GL261166  22.272   9.031   6.153
 9807POPC   C1A61167  22.136   9.003   6.453
 9807POPC   D2A61168  22.159   9.014   6.753
 9807POPC   C3A61169  22.124   8.992   7.053
 9807POPC   C4A61170  22.139   8.962   7.353
 9807POPC   C1B61171  22.288   9.138   6.453
 9807POPC   C2B61172  22.291   9.194   6.753
 9807POPC   C3B61173  22.308   9.184   7.053
 9807POPC   C4B61174  22.353   9.119   7.353
 9808POPC   NC361175   5.044  19.856   5.553
 9808POPC   PO461176   5.115  19.849   5.853
 9808POPC   GL161177   5.123  19.813   6.153
 9808POPC   GL261178   5.151  19.963   6.153
 9808POPC   C1A61179   5.058  19.854   6.453
 9808POPC   D2A61180   5.080  19.872   6.753
 9808POPC   C3A61181   5.118  19.794   7.053
 9808POPC   C4A61182   5.089  19.822   7.353
 9808POPC   C1B61183   5.254  20.037   6.453
 9808POPC   C2B61184   5.290  20.033   6.753
 9808POPC   C3B61185   5.266  20.052   7.053
 9808POPC   C4B61186   5.263  20.067   7.353
 9809POPC   NC361187  12.802  31.489   5.553
 9809POPC   PO461188  12.855  31.506   5.853
 9809POPC   GL161189  12.802  31.504   6.153
 9809POPC   GL261190  12.767  31.560   6.153
 9809POPC   C1A61191  12.901  31.503   6.453
 9809POPC   D2A61192  12.893  31.465   6.753
 9809POPC   C3A61193  12.864  31.478   7.053
 9809POPC   C4A61194  12.894  31.480   7.353
 9809POPC   C1B61195  12.643  31.596   6.453
 9809POPC   C2B61196  12.582  31.508   6.753
 9809POPC   C3B61197  12.608  31.521   7.053
 9809POPC   C4B61198  12.658  31.528   7.353
 9810POPC   NC361199  19.842  22.899   5.553
 9810POPC   PO461200  19.833  22.952   5.853
 9810POPC   GL161201  19.799  22.936   6.153
 9810POPC   GL261202  19.817  22.852   6.153
 9810POPC   C1A61203  19.813  22.950   6.453
 9810POPC   D2A61204  19.869  22.916   6.753
 9810POPC   C3A61205  19.803  22.942   7.053
 9810POPC   C4A61206  19.829  22.987   7.353
 9810POPC   C1B61207  19.675  22.692   6.453
 9810POPC   C2B61208  19.728  22.678   6.753
 9810POPC   C3B61209  19.747  22.748   7.053
 9810POPC   C4B61210  19.683  22.691   7.353
 9811POPC   NC361211   6.650  20.604   5.553
 9811POPC   PO461212   6.663  20.581   5.853
 9811POPC   GL161213   6.620  20.656   6.153
 9811POPC   GL261214   6.652  20.768   6.153
 9811POPC   C1A61215   6.648  20.604   6.453
 9811POPC   D2A61216   6.600  20.641   6.753
 9811POPC   C3A61217   6.623  20.629   7.053
 9811POPC   C4A61218   6.596  20.597   7.353
 9811POPC   C1B61219   6.644  20.868   6.453
 9811POPC   C2B61220   6.677  20.834   6.753
 9811POPC   C3B61221   6.712  20.885   7.053
 9811POPC   C4B61222   6.702  20.890   7.353
 9812POPC   NC361223   1.975  36.138   5.553
 9812POPC   PO461224   2.026  36.115   5.853
 9812POPC   GL161225   2.028  36.171   6.153
 9812POPC   GL261226   1.971  36.228   6.153
 9812POPC   C1A61227   1.995  36.175   6.453
 9812POPC   D2A61228   1.964  36.120   6.753
 9812POPC   C3A61229   1.963  36.106   7.053
 9812POPC   C4A61230   1.992  36.081   7.353
 9812POPC   C1B61231   1.939  36.411   6.453
 9812POPC   C2B61232   1.957  36.385   6.753
 9812POPC   C3B61233   1.925  36.336   7.053
 9812POPC   C4B61234   1.907  36.407   7.353
 9813POPC   NC361235  30.698  41.536   5.553
 9813POPC   PO461236  30.721  41.595   5.853
 9813POPC   GL161237  30.681  41.579   6.153
 9813POPC   GL261238  30.647  41.433   6.153
 9813POPC   C1A61239  30.703  41.603   6.453
 9813POPC   D2A61240  30.741  41.592   6.753
 9813POPC   C3A61241  30.746  41.578   7.053
 9813POPC   C4A61242  30.651  41.555   7.353
 9813POPC   C1B61243  30.595  41.379   6.453
 9813POPC   C2B61244  30.544  41.341   6.753
 9813POPC   C3B61245  30.542  41.368   7.053
 9813POPC   C4B61246  30.521  41.336   7.353
 9814POPC   NC361247  25.260  44.639   5.553
 9814POPC   PO461248  25.248  44.628   5.853
 9814POPC   GL161249  25.296  44.674   6.153
 9814POPC   GL261250  25.127  44.652   6.153
 9814POPC   C1A61251  25.299  44.694   6.453
 9814POPC   D2A61252  25.258  44.650   6.753
 9814POPC   C3A61253  25.249  44.643   7.053
 9814POPC   C4A61254  25.227  44.636   7.353
 9814POPC   C1B61255  25.035  44.594   6.453
 9814POPC   C2B61256  24.990  44.584   6.753
 9814POPC   C3B61257  25.049  44.524   7.053
 9814POPC   C4B61258  25.016  44.570   7.353
 9815POPC   NC361259  17.546  28.341   5.553
 9815POPC   PO461260  17.469  28.405   5.853
 9815POPC   GL161261  17.458  28.365   6.153
 9815POPC   GL261262  17.610  28.378   6.153
 9815POPC   C1A61263  17.489  28.365   6.453
 9815POPC   D2A61264  17.488  28.382   6.753
 9815POPC   C3A61265  17.531  28.358   7.053
 9815POPC   C4A61266  17.465  28.338   7.353
 9815POPC   C1B61267  17.727  28.478   6.453
 9815POPC   C2B61268  17.717  28.447   6.753
 9815POPC   C3B61269  17.696  28.447   7.053
 9815POPC   C4B61270  17.737  28.522   7.353
 9816POPC   NC361271  41.515   5.075   5.553
 9816POPC   PO461272  41.514   5.101   5.853
 9816POPC   GL161273  41.568   5.124   6.153
 9816POPC   GL261274  41.481   5.071   6.153
 9816POPC   C1A61275  41.590   5.071   6.453
 9816POPC   D2A61276  41.586   5.067   6.753
 9816POPC   C3A61277  41.561   5.115   7.053
 9816POPC   C4A61278  41.524   5.089   7.353
 9816POPC   C1B61279  41.282   5.087   6.453
 9816POPC   C2B61280  41.344   5.114   6.753
 9816POPC   C3B61281  41.357   5.041   7.053
 9816POPC   C4B61282  41.266   5.058   7.353
 9817POPC   NC361283  43.131  29.173   5.553
 9817POPC   PO461284  43.097  29.123   5.853
 9817POPC   GL161285  43.148  29.171   6.153
 9817POPC   GL261286  43.018  29.195   6.153
 9817POPC   C1A61287  43.062  29.127   6.453
 9817POPC   D2A61288  43.077  29.107   6.753
 9817POPC   C3A61289  43.073  29.142   7.053
 9817POPC   C4A61290  43.063  29.101   7.353
 9817POPC   C1B61291  42.827  29.192   6.453
 9817POPC   C2B61292  42.890  29.267   6.753
 9817POPC   C3B61293  42.882  29.265   7.053
 9817POPC   C4B61294  42.853  29.272   7.353
 9818POPC   NC361295   4.346   8.929   5.553
 9818POPC   PO461296   4.276   8.992   5.853
 9818POPC   GL161297   4.290   8.939   6.153
 9818POPC   GL261298   4.364   9.066   6.153
 9818POPC   C1A61299   4.354   8.979   6.453
 9818POPC   D2A61300   4.309   8.993   6.753
 9818POPC   C3A61301   4.298   9.018   7.053
 9818POPC   C4A61302   4.341   8.986   7.353
 9818POPC   C1B61303   4.352   9.224   6.453
 9818POPC   C2B61304   4.367   9.170   6.753
 9818POPC   C3B61305   4.350   9.208   7.053
 9818POPC   C4B61306   4.325   9.263   7.353
 9819POPC   NC361307  40.004  32.219   5.553
 9819POPC   PO461308  39.986  32.253   5.853
 9819POPC   GL161309  40.029  32.218   6.153
 9819POPC   GL261310  40.081  32.112   6.153
 9819POPC   C1A61311  39.991  32.270   6.453
 9819POPC   D2A61312  40.052  32.286   6.753
 9819POPC   C3A61313  40.044  32.286   7.053
 9819POPC   C4A61314  39.973  32.288   7.353
 9819POPC   C1B61315  40.200  32.021   6.453
 9819POPC   C2B61316  40.204  32.071   6.753
 9819POPC   C3B61317  40.197  32.038   7.053
 9819POPC   C4B61318  40.138  32.095   7.353
 9820POPC   NC361319  29.138  31.497   5.553
 9820POPC   PO461320  29.182  31.457   5.853
 9820POPC   GL161321  29.176  31.431   6.153
 9820POPC   GL261322  29.204  31.341   6.153
 9820POPC   C1A61323  29.114  31.430   6.453
 9820POPC   D2A61324  29.191  31.500   6.753
 9820POPC   C3A61325  29.168  31.492   7.053
 9820POPC   C4A61326  29.120  31.430   7.353
 9820POPC   C1B61327  29.216  31.180   6.453
 9820POPC   C2B61328  29.195  31.185   6.753
 9820POPC   C3B61329  29.194  31.188   7.053
 9820POPC   C4B61330  29.176  31.227   7.353
 9821POPC   NC361331  12.896  29.127   5.553
 9821POPC   PO461332  12.901  29.126   5.853
 9821POPC   GL161333  12.877  29.100   6.153
 9821POPC   GL261334  12.772  29.214   6.153
 9821POPC   C1A61335  12.814  29.183   6.453
 9821POPC   D2A61336  12.822  29.112   6.753
 9821POPC   C3A61337  12.842  29.107   7.053
 9821POPC   C4A61338  12.855  29.100   7.353
 9821POPC   C1B61339  12.811  29.350   6.453
 9821POPC   C2B61340  12.731  29.351   6.753
 9821POPC   C3B61341  12.759  29.340   7.053
 9821POPC   C4B61342  12.802  29.416   7.353
 9822POPC   NC361343  33.821  11.344   5.553
 9822POPC   PO461344  33.836  11.277   5.853
 9822POPC   GL161345  33.781  11.290   6.153
 9822POPC   GL261346  33.644  11.314   6.153
 9822POPC   C1A61347  33.811  11.350   6.453
 9822POPC   D2A61348  33.827  11.328   6.753
 9822POPC   C3A61349  33.798  11.253   7.053
 9822POPC   C4A61350  33.845  11.313   7.353
 9822POPC   C1B61351  33.594  11.259   6.453
 9822POPC   C2B61352  33.504  11.268   6.753
 9822POPC   C3B61353  33.563  11.276   7.053
 9822POPC   C4B61354  33.517  11.243   7.353
 9823POPC   NC361355  44.711  32.245   5.553
 9823POPC   PO461356  44.663  32.204   5.853
 9823POPC   GL161357  44.624  32.275   6.153
 9823POPC   GL261358  44.744  32.222   6.153
 9823POPC   C1A61359  44.625  32.262   6.453
 9823POPC   D2A61360  44.645  32.258   6.753
 9823POPC   C3A61361  44.624  32.223   7.053
 9823POPC   C4A61362  44.685  32.201   7.353
 9823POPC   C1B61363  44.878  32.146   6.453
 9823POPC   C2B61364  44.872  32.091   6.753
 9823POPC   C3B61365  44.915  32.127   7.053
 9823POPC   C4B61366  44.845  32.060   7.353
 9824POPC   NC361367   1.234   5.887   5.553
 9824POPC   PO461368   1.227   5.888   5.853
 9824POPC   GL161369   1.209   5.835   6.153
 9824POPC   GL261370   1.316   6.012   6.153
 9824POPC   C1A61371   1.221   5.912   6.453
 9824POPC   D2A61372   1.228   5.841   6.753
 9824POPC   C3A61373   1.263   5.911   7.053
 9824POPC   C4A61374   1.233   5.836   7.353
 9824POPC   C1B61375   1.347   6.104   6.453
 9824POPC   C2B61376   1.357   6.096   6.753
 9824POPC   C3B61377   1.378   6.099   7.053
 9824POPC   C4B61378   1.335   6.110   7.353
 9825POPC   NC361379  19.816  43.150   5.553
 9825POPC   PO461380  19.816  43.152   5.853
 9825POPC   GL161381  19.872  43.147   6.153
 9825POPC   GL261382  19.949  43.107   6.153
 9825POPC   C1A61383  19.830  43.076   6.453
 9825POPC   D2A61384  19.785  43.154   6.753
 9825POPC   C3A61385  19.852  43.101   7.053
 9825POPC   C4A61386  19.870  43.119   7.353
 9825POPC   C1B61387  20.075  43.179   6.453
 9825POPC   C2B61388  20.083  43.210   6.753
 9825POPC   C3B61389  20.070  43.185   7.053
 9825POPC   C4B61390  20.074  43.141   7.353
 9826POPC   NC361391  19.107  28.416   5.553
 9826POPC   PO461392  19.090  28.347   5.853
 9826POPC   GL161393  19.042  28.356   6.153
 9826POPC   GL261394  19.098  28.247   6.153
 9826POPC   C1A61395  19.014  28.353   6.453
 9826POPC   D2A61396  19.043  28.415   6.753
 9826POPC   C3A61397  19.056  28.370   7.053
 9826POPC   C4A61398  19.057  28.393   7.353
 9826POPC   C1B61399  19.161  28.126   6.453
 9826POPC   C2B61400  19.125  28.097   6.753
 9826POPC   C3B61401  19.158  28.183   7.053
 9826POPC   C4B61402  19.168  28.157   7.353
 9827POPC   NC361403  17.495   5.891   5.553
 9827POPC   PO461404  17.517   5.858   5.853
 9827POPC   GL161405  17.551   5.882   6.153
 9827POPC   GL261406  17.541   5.824   6.153
 9827POPC   C1A61407  17.535   5.875   6.453
 9827POPC   D2A61408  17.529   5.838   6.753
 9827POPC   C3A61409  17.485   5.828   7.053
 9827POPC   C4A61410  17.527   5.916   7.353
 9827POPC   C1B61411  17.637   5.633   6.453
 9827POPC   C2B61412  17.665   5.689   6.753
 9827POPC   C3B61413  17.714   5.730   7.053
 9827POPC   C4B61414  17.625   5.685   7.353
 9828POPC   NC361415  16.773   9.005   5.553
 9828POPC   PO461416  16.748   8.975   5.853
 9828POPC   GL161417  16.696   9.008   6.153
 9828POPC   GL261418  16.706   9.084   6.153
 9828POPC   C1A61419  16.704   8.926   6.453
 9828POPC   D2A61420  16.773   8.997   6.753
 9828POPC   C3A61421  16.762   8.923   7.053
 9828POPC   C4A61422  16.738   9.005   7.353
 9828POPC   C1B61423  16.783   9.268   6.453
 9828POPC   C2B61424  16.715   9.177   6.753
 9828POPC   C3B61425  16.740   9.256   7.053
 9828POPC   C4B61426  16.738   9.185   7.353
 9829POPC   NC361427  27.595  29.925   5.553
 9829POPC   PO461428  27.628  29.949   5.853
 9829POPC   GL161429  27.627  29.872   6.153
 9829POPC   GL261430  27.569  29.804   6.153
 9829POPC   C1A61431  27.586  29.950   6.453
 9829POPC   D2A61432  27.591  29.879   6.753
 9829POPC   C3A61433  27.554  29.874   7.053
 9829POPC   C4A61434  27.626  29.930   7.353
 9829POPC   C1B61435  27.465  29.719   6.453
 9829POPC   C2B61436  27.414  29.705   6.753
 9829POPC   C3B61437  27.428  29.753   7.053
 9829POPC   C4B61438  27.434  29.729   7.353
 9830POPC   NC361439  32.212  13.637   5.553
 9830POPC   PO461440  32.200  13.651   5.853
 9830POPC   GL161441  32.217  13.670   6.153
 9830POPC   GL261442  32.398  13.682   6.153
 9830POPC   C1A61443  32.281  13.584   6.453
 9830POPC   D2A61444  32.242  13.620   6.753
 9830POPC   C3A61445  32.248  13.670   7.053
 9830POPC   C4A61446  32.246  13.669   7.353
 9830POPC   C1B61447  32.444  13.645   6.453
 9830POPC   C2B61448  32.444  13.628   6.753
 9830POPC   C3B61449  32.482  13.708   7.053
 9830POPC   C4B61450  32.472  13.711   7.353
 9831POPC   NC361451  40.748  12.051   5.553
 9831POPC   PO461452  40.763  12.123   5.853
 9831POPC   GL161453  40.832  12.085   6.153
 9831POPC   GL261454  40.867  11.984   6.153
 9831POPC   C1A61455  40.754  12.047   6.453
 9831POPC   D2A61456  40.736  12.113   6.753
 9831POPC   C3A61457  40.816  12.115   7.053
 9831POPC   C4A61458  40.760  12.119   7.353
 9831POPC   C1B61459  41.013  11.945   6.453
 9831POPC   C2B61460  40.971  11.937   6.753
 9831POPC   C3B61461  41.023  11.960   7.053
 9831POPC   C4B61462  40.974  11.912   7.353
 9832POPC   NC361463  34.569  42.310   5.553
 9832POPC   PO461464  34.598  42.307   5.853
 9832POPC   GL161465  34.548  42.318   6.153
 9832POPC   GL261466  34.489  42.424   6.153
 9832POPC   C1A61467  34.574  42.330   6.453
 9832POPC   D2A61468  34.566  42.346   6.753
 9832POPC   C3A61469  34.560  42.298   7.053
 9832POPC   C4A61470  34.538  42.315   7.353
 9832POPC   C1B61471  34.381  42.388   6.453
 9832POPC   C2B61472  34.358  42.389   6.753
 9832POPC   C3B61473  34.387  42.402   7.053
 9832POPC   C4B61474  34.342  42.428   7.353
 9833POPC   NC361475   3.514   9.739   5.553
 9833POPC   PO461476   3.573   9.794   5.853
 9833POPC   GL161477   3.532   9.725   6.153
 9833POPC   GL261478   3.449   9.902   6.153
 9833POPC   C1A61479   3.493   9.710   6.453
 9833POPC   D2A61480   3.570   9.769   6.753
 9833POPC   C3A61481   3.579   9.759   7.053
 9833POPC   C4A61482   3.554   9.796   7.353
 9833POPC   C1B61483   3.462   9.991   6.453
 9833POPC   C2B61484   3.401   9.952   6.753
 9833POPC   C3B61485   3.388   9.949   7.053
 9833POPC   C4B61486   3.471   9.993   7.353
 9834POPC   NC361487  33.790  18.293   5.553
 9834POPC   PO461488  33.750  18.273   5.853
 9834POPC   GL161489  33.796  18.239   6.153
 9834POPC   GL261490  33.705  18.328   6.153
 9834POPC   C1A61491  33.763  18.287   6.453
 9834POPC   D2A61492  33.765  18.261   6.753
 9834POPC   C3A61493  33.768  18.251   7.053
 9834POPC   C4A61494  33.786  18.259   7.353
 9834POPC   C1B61495  33.583  18.320   6.453
 9834POPC   C2B61496  33.578  18.335   6.753
 9834POPC   C3B61497  33.552  18.317   7.053
 9834POPC   C4B61498  33.530  18.308   7.353
 9835POPC   NC361499  26.867  25.277   5.553
 9835POPC   PO461500  26.827  25.287   5.853
 9835POPC   GL161501  26.840  25.232   6.153
 9835POPC   GL261502  26.825  25.354   6.153
 9835POPC   C1A61503  26.835  25.299   6.453
 9835POPC   D2A61504  26.842  25.245   6.753
 9835POPC   C3A61505  26.824  25.232   7.053
 9835POPC   C4A61506  26.808  25.229   7.353
 9835POPC   C1B61507  26.843  25.539   6.453
 9835POPC   C2B61508  26.833  25.529   6.753
 9835POPC   C3B61509  26.833  25.474   7.053
 9835POPC   C4B61510  26.815  25.538   7.353
 9836POPC   NC361511  30.709  19.793   5.553
 9836POPC   PO461512  30.672  19.830   5.853
 9836POPC   GL161513  30.713  19.804   6.153
 9836POPC   GL261514  30.580  19.849   6.153
 9836POPC   C1A61515  30.728  19.799   6.453
 9836POPC   D2A61516  30.735  19.863   6.753
 9836POPC   C3A61517  30.648  19.870   7.053
 9836POPC   C4A61518  30.739  19.845   7.353
 9836POPC   C1B61519  30.488  19.896   6.453
 9836POPC   C2B61520  30.439  19.920   6.753
 9836POPC   C3B61521  30.429  19.889   7.053
 9836POPC   C4B61522  30.416  19.877   7.353
 9837POPC   NC361523  30.695  20.618   5.553
 9837POPC   PO461524  30.682  20.580   5.853
 9837POPC   GL161525  30.709  20.607   6.153
 9837POPC   GL261526  30.687  20.482   6.153
 9837POPC   C1A61527  30.696  20.606   6.453
 9837POPC   D2A61528  30.730  20.601   6.753
 9837POPC   C3A61529  30.702  20.586   7.053
 9837POPC   C4A61530  30.709  20.632   7.353
 9837POPC   C1B61531  30.671  20.362   6.453
 9837POPC   C2B61532  30.715  20.410   6.753
 9837POPC   C3B61533  30.690  20.339   7.053
 9837POPC   C4B61534  30.766  20.357   7.353
 9838POPC   NC361535  15.986  32.295   5.553
 9838POPC   PO461536  15.911  32.269   5.853
 9838POPC   GL161537  15.995  32.266   6.153
 9838POPC   GL261538  16.086  32.326   6.153
 9838POPC   C1A61539  15.941  32.235   6.453
 9838POPC   D2A61540  15.931  32.203   6.753
 9838POPC   C3A61541  15.932  32.289   7.053
 9838POPC   C4A61542  15.943  32.250   7.353
 9838POPC   C1B61543  16.219  32.341   6.453
 9838POPC   C2B61544  16.151  32.377   6.753
 9838POPC   C3B61545  16.177  32.340   7.053
 9838POPC   C4B61546  16.166  32.320   7.353
 9839POPC   NC361547   4.302  19.053   5.553
 9839POPC   PO461548   4.278  19.070   5.853
 9839POPC   GL161549   4.273  19.082   6.153
 9839POPC   GL261550   4.298  19.181   6.153
 9839POPC   C1A61551   4.321  19.020   6.453
 9839POPC   D2A61552   4.283  19.107   6.753
 9839POPC   C3A61553   4.363  19.046   7.053
 9839POPC   C4A61554   4.296  19.053   7.353
 9839POPC   C1B61555   4.248  19.288   6.453
 9839POPC   C2B61556   4.219  19.269   6.753
 9839POPC   C3B61557   4.231  19.289   7.053
 9839POPC   C4B61558   4.171  19.281   7.353
 9840POPC   NC361559  29.913  23.755   5.553
 9840POPC   PO461560  29.953  23.699   5.853
 9840POPC   GL161561  29.939  23.685   6.153
 9840POPC   GL261562  29.951  23.873   6.153
 9840POPC   C1A61563  29.970  23.757   6.453
 9840POPC   D2A61564  29.875  23.698   6.753
 9840POPC   C3A61565  29.948  23.713   7.053
 9840POPC   C4A61566  29.882  23.691   7.353
 9840POPC   C1B61567  30.007  23.978   6.453
 9840POPC   C2B61568  29.992  23.950   6.753
 9840POPC   C3B61569  30.042  23.897   7.053
 9840POPC   C4B61570  29.999  23.905   7.353
 9841POPC   NC361571   8.990  44.645   5.553
 9841POPC   PO461572   8.945  44.698   5.853
 9841POPC   GL161573   8.952  44.683   6.153
 9841POPC   GL261574   8.826  44.628   6.153
 9841POPC   C1A61575   8.962  44.638   6.453
 9841POPC   D2A61576   9.000  44.681   6.753
 9841POPC   C3A61577   8.950  44.656   7.053
 9841POPC   C4A61578   8.940  44.675   7.353
 9841POPC   C1B61579   8.739  44.661   6.453
 9841POPC   C2B61580   8.680  44.662   6.753
 9841POPC   C3B61581   8.764  44.677   7.053
 9841POPC   C4B61582   8.764  44.602   7.353
 9842POPC   NC361583   4.335   1.209   5.553
 9842POPC   PO461584   4.311   1.213   5.853
 9842POPC   GL161585   4.267   1.222   6.153
 9842POPC   GL261586   4.238   1.191   6.153
 9842POPC   C1A61587   4.312   1.254   6.453
 9842POPC   D2A61588   4.356   1.167   6.753
 9842POPC   C3A61589   4.294   1.210   7.053
 9842POPC   C4A61590   4.337   1.260   7.353
 9842POPC   C1B61591   4.097   1.121   6.453
 9842POPC   C2B61592   4.108   1.160   6.753
 9842POPC   C3B61593   4.103   1.175   7.053
 9842POPC   C4B61594   4.123   1.126   7.353
 9843POPC   NC361595  32.220  35.376   5.553
 9843POPC   PO461596  32.232  35.311   5.853
 9843POPC   GL161597  32.225  35.383   6.153
 9843POPC   GL261598  32.207  35.203   6.153
 9843POPC   C1A61599  32.282  35.339   6.453
 9843POPC   D2A61600  32.255  35.378   6.753
 9843POPC   C3A61601  32.257  35.346   7.053
 9843POPC   C4A61602  32.261  35.356   7.353
 9843POPC   C1B61603  32.249  35.090   6.453
 9843POPC   C2B61604  32.241  35.063   6.753
 9843POPC   C3B61605  32.294  35.069   7.053
 9843POPC   C4B61606  32.217  35.127   7.353
 9844POPC   NC361607  42.322  19.056   5.553
 9844POPC   PO461608  42.332  19.011   5.853
 9844POPC   GL161609  42.292  19.077   6.153
 9844POPC   GL261610  42.320  18.885   6.153
 9844POPC   C1A61611  42.346  19.091   6.453
 9844POPC   D2A61612  42.381  19.090   6.753
 9844POPC   C3A61613  42.295  19.101   7.053
 9844POPC   C4A61614  42.324  19.051   7.353
 9844POPC   C1B61615  42.314  18.849   6.453
 9844POPC   C2B61616  42.335  18.818   6.753
 9844POPC   C3B61617  42.304  18.774   7.053
 9844POPC   C4B61618  42.333  18.818   7.353
 9845POPC   NC361619  31.426  42.362   5.553
 9845POPC   PO461620  31.489  42.331   5.853
 9845POPC   GL161621  31.425  42.295   6.153
 9845POPC   GL261622  31.471  42.209   6.153
 9845POPC   C1A61623  31.452  42.312   6.453
 9845POPC   D2A61624  31.493  42.378   6.753
 9845POPC   C3A61625  31.427  42.315   7.053
 9845POPC   C4A61626  31.442  42.373   7.353
 9845POPC   C1B61627  31.449  42.096   6.453
 9845POPC   C2B61628  31.489  42.076   6.753
 9845POPC   C3B61629  31.485  42.085   7.053
 9845POPC   C4B61630  31.459  42.055   7.353
 9846POPC   NC361631  39.261  11.345   5.553
 9846POPC   PO461632  39.270  11.302   5.853
 9846POPC   GL161633  39.280  11.313   6.153
 9846POPC   GL261634  39.128  11.331   6.153
 9846POPC   C1A61635  39.200  11.332   6.453
 9846POPC   D2A61636  39.204  11.261   6.753
 9846POPC   C3A61637  39.193  11.348   7.053
 9846POPC   C4A61638  39.200  11.316   7.353
 9846POPC   C1B61639  39.062  11.377   6.453
 9846POPC   C2B61640  38.983  11.452   6.753
 9846POPC   C3B61641  39.028  11.439   7.053
 9846POPC   C4B61642  38.975  11.472   7.353
 9847POPC   NC361643  41.566  38.422   5.553
 9847POPC   PO461644  41.590  38.496   5.853
 9847POPC   GL161645  41.549  38.464   6.153
 9847POPC   GL261646  41.675  38.535   6.153
 9847POPC   C1A61647  41.511  38.497   6.453
 9847POPC   D2A61648  41.572  38.437   6.753
 9847POPC   C3A61649  41.577  38.466   7.053
 9847POPC   C4A61650  41.533  38.442   7.353
 9847POPC   C1B61651  41.782  38.632   6.453
 9847POPC   C2B61652  41.795  38.633   6.753
 9847POPC   C3B61653  41.732  38.564   7.053
 9847POPC   C4B61654  41.780  38.593   7.353
 9848POPC   NC361655  35.304  43.882   5.553
 9848POPC   PO461656  35.348  43.867   5.853
 9848POPC   GL161657  35.336  43.871   6.153
 9848POPC   GL261658  35.302  43.770   6.153
 9848POPC   C1A61659  35.359  43.927   6.453
 9848POPC   D2A61660  35.328  43.923   6.753
 9848POPC   C3A61661  35.398  43.897   7.053
 9848POPC   C4A61662  35.384  43.881   7.353
 9848POPC   C1B61663  35.278  43.670   6.453
 9848POPC   C2B61664  35.287  43.638   6.753
 9848POPC   C3B61665  35.295  43.686   7.053
 9848POPC   C4B61666  35.287  43.641   7.353
 9849POPC   NC361667  14.387  43.110   5.553
 9849POPC   PO461668  14.371  43.121   5.853
 9849POPC   GL161669  14.380  43.132   6.153
 9849POPC   GL261670  14.395  43.275   6.153
 9849POPC   C1A61671  14.365  43.097   6.453
 9849POPC   D2A61672  14.359  43.098   6.753
 9849POPC   C3A61673  14.396  43.142   7.053
 9849POPC   C4A61674  14.434  43.147   7.353
 9849POPC   C1B61675  14.474  43.353   6.453
 9849POPC   C2B61676  14.455  43.401   6.753
 9849POPC   C3B61677  14.470  43.336   7.053
 9849POPC   C4B61678  14.449  43.344   7.353
 9850POPC   NC361679  15.222  14.415   5.553
 9850POPC   PO461680  15.225  14.418   5.853
 9850POPC   GL161681  15.229  14.374   6.153
 9850POPC   GL261682  15.008  14.341   6.153
 9850POPC   C1A61683  15.195  14.391   6.453
 9850POPC   D2A61684  15.141  14.360   6.753
 9850POPC   C3A61685  15.212  14.435   7.053
 9850POPC   C4A61686  15.151  14.379   7.353
 9850POPC   C1B61687  14.917  14.350   6.453
 9850POPC   C2B61688  14.976  14.419   6.753
 9850POPC   C3B61689  14.889  14.358   7.053
 9850POPC   C4B61690  14.934  14.373   7.353
 9851POPC   NC361691  17.480  37.668   5.553
 9851POPC   PO461692  17.467  37.668   5.853
 9851POPC   GL161693  17.524  37.630   6.153
 9851POPC   GL261694  17.546  37.598   6.153
 9851POPC   C1A61695  17.463  37.664   6.453
 9851POPC   D2A61696  17.472  37.668   6.753
 9851POPC   C3A61697  17.510  37.702   7.053
 9851POPC   C4A61698  17.531  37.724   7.353
 9851POPC   C1B61699  17.557  37.428   6.453
 9851POPC   C2B61700  17.587  37.397   6.753
 9851POPC   C3B61701  17.556  37.416   7.053
 9851POPC   C4B61702  17.502  37.471   7.353
 9852POPC   NC361703  26.089  38.412   5.553
 9852POPC   PO461704  26.048  38.444   5.853
 9852POPC   GL161705  26.051  38.478   6.153
 9852POPC   GL261706  26.080  38.580   6.153
 9852POPC   C1A61707  26.032  38.484   6.453
 9852POPC   D2A61708  26.024  38.423   6.753
 9852POPC   C3A61709  26.049  38.432   7.053
 9852POPC   C4A61710  26.006  38.456   7.353
 9852POPC   C1B61711  26.212  38.613   6.453
 9852POPC   C2B61712  26.213  38.606   6.753
 9852POPC   C3B61713  26.217  38.677   7.053
 9852POPC   C4B61714  26.149  38.684   7.353
 9853POPC   NC361715   2.012  43.888   5.553
 9853POPC   PO461716   1.948  43.887   5.853
 9853POPC   GL161717   2.004  43.884   6.153
 9853POPC   GL261718   1.853  43.903   6.153
 9853POPC   C1A61719   2.032  43.854   6.453
 9853POPC   D2A61720   1.999  43.912   6.753
 9853POPC   C3A61721   1.943  43.853   7.053
 9853POPC   C4A61722   2.023  43.929   7.353
 9853POPC   C1B61723   1.711  43.924   6.453
 9853POPC   C2B61724   1.721  43.934   6.753
 9853POPC   C3B61725   1.758  43.906   7.053
 9853POPC   C4B61726   1.706  43.928   7.353
 9854POPC   NC361727  18.303  30.663   5.553
 9854POPC   PO461728  18.256  30.677   5.853
 9854POPC   GL161729  18.239  30.664   6.153
 9854POPC   GL261730  18.344  30.836   6.153
 9854POPC   C1A61731  18.274  30.650   6.453
 9854POPC   D2A61732  18.292  30.659   6.753
 9854POPC   C3A61733  18.264  30.716   7.053
 9854POPC   C4A61734  18.319  30.719   7.353
 9854POPC   C1B61735  18.423  30.951   6.453
 9854POPC   C2B61736  18.450  30.951   6.753
 9854POPC   C3B61737  18.411  30.873   7.053
 9854POPC   C4B61738  18.376  30.939   7.353
 9855POPC   NC361739   8.955  16.708   5.553
 9855POPC   PO461740   9.003  16.745   5.853
 9855POPC   GL161741   8.953  16.683   6.153
 9855POPC   GL261742   9.128  16.704   6.153
 9855POPC   C1A61743   9.021  16.723   6.453
 9855POPC   D2A61744   9.020  16.718   6.753
 9855POPC   C3A61745   8.984  16.690   7.053
 9855POPC   C4A61746   8.987  16.765   7.353
 9855POPC   C1B61747   9.167  16.608   6.453
 9855POPC   C2B61748   9.207  16.650   6.753
 9855POPC   C3B61749   9.172  16.648   7.053
 9855POPC   C4B61750   9.225  16.654   7.353
 9856POPC   NC361751  40.824  38.408   5.553
 9856POPC   PO461752  40.832  38.475   5.853
 9856POPC   GL161753  40.768  38.425   6.153
 9856POPC   GL261754  40.708  38.615   6.153
 9856POPC   C1A61755  40.741  38.484   6.453
 9856POPC   D2A61756  40.748  38.441   6.753
 9856POPC   C3A61757  40.777  38.470   7.053
 9856POPC   C4A61758  40.811  38.435   7.353
 9856POPC   C1B61759  40.765  38.688   6.453
 9856POPC   C2B61760  40.745  38.741   6.753
 9856POPC   C3B61761  40.775  38.710   7.053
 9856POPC   C4B61762  40.710  38.703   7.353
 9857POPC   NC361763  10.483  10.541   5.553
 9857POPC   PO461764  10.533  10.500   5.853
 9857POPC   GL161765  10.511  10.487   6.153
 9857POPC   GL261766  10.626  10.650   6.153
 9857POPC   C1A61767  10.548  10.527   6.453
 9857POPC   D2A61768  10.538  10.496   6.753
 9857POPC   C3A61769  10.524  10.518   7.053
 9857POPC   C4A61770  10.501  10.479   7.353
 9857POPC   C1B61771  10.639  10.681   6.453
 9857POPC   C2B61772  10.631  10.737   6.753
 9857POPC   C3B61773  10.670  10.745   7.053
 9857POPC   C4B61774  10.719  10.704   7.353
 9858POPC   NC361775  15.921   5.116   5.553
 9858POPC   PO461776  15.969   5.082   5.853
 9858POPC   GL161777  15.926   5.052   6.153
 9858POPC   GL261778  16.055   5.133   6.153
 9858POPC   C1A61779  15.963   5.121   6.453
 9858POPC   D2A61780  15.981   5.123   6.753
 9858POPC   C3A61781  15.909   5.112   7.053
 9858POPC   C4A61782  15.955   5.100   7.353
 9858POPC   C1B61783  16.242   5.030   6.453
 9858POPC   C2B61784  16.245   5.039   6.753
 9858POPC   C3B61785  16.199   5.052   7.053
 9858POPC   C4B61786  16.218   5.063   7.353
 9859POPC   NC361787  34.589  24.474   5.553
 9859POPC   PO461788  34.614  24.530   5.853
 9859POPC   GL161789  34.618  24.526   6.153
 9859POPC   GL261790  34.649  24.335   6.153
 9859POPC   C1A61791  34.571  24.505   6.453
 9859POPC   D2A61792  34.590  24.490   6.753
 9859POPC   C3A61793  34.577  24.524   7.053
 9859POPC   C4A61794  34.568  24.498   7.353
 9859POPC   C1B61795  34.623  24.214   6.453
 9859POPC   C2B61796  34.672  24.237   6.753
 9859POPC   C3B61797  34.667  24.244   7.053
 9859POPC   C4B61798  34.665  24.222   7.353
 9860POPC   NC361799  22.172  43.117   5.553
 9860POPC   PO461800  22.187  43.153   5.853
 9860POPC   GL161801  22.128  43.154   6.153
 9860POPC   GL261802  22.011  43.035   6.153
 9860POPC   C1A61803  22.179  43.101   6.453
 9860POPC   D2A61804  22.124  43.065   6.753
 9860POPC   C3A61805  22.187  43.107   7.053
 9860POPC   C4A61806  22.198  43.148   7.353
 9860POPC   C1B61807  21.906  42.986   6.453
 9860POPC   C2B61808  21.959  43.068   6.753
 9860POPC   C3B61809  21.957  43.029   7.053
 9860POPC   C4B61810  21.967  43.021   7.353
 9861POPC   NC361811  30.708  16.737   5.553
 9861POPC   PO461812  30.708  16.702   5.853
 9861POPC   GL161813  30.673  16.704   6.153
 9861POPC   GL261814  30.549  16.770   6.153
 9861POPC   C1A61815  30.685  16.715   6.453
 9861POPC   D2A61816  30.736  16.722   6.753
 9861POPC   C3A61817  30.691  16.684   7.053
 9861POPC   C4A61818  30.740  16.706   7.353
 9861POPC   C1B61819  30.497  16.735   6.453
 9861POPC   C2B61820  30.430  16.777   6.753
 9861POPC   C3B61821  30.432  16.823   7.053
 9861POPC   C4B61822  30.479  16.737   7.353
 9862POPC   NC361823  40.741  21.360   5.553
 9862POPC   PO461824  40.749  21.375   5.853
 9862POPC   GL161825  40.811  21.367   6.153
 9862POPC   GL261826  40.663  21.480   6.153
 9862POPC   C1A61827  40.781  21.420   6.453
 9862POPC   D2A61828  40.743  21.391   6.753
 9862POPC   C3A61829  40.798  21.351   7.053
 9862POPC   C4A61830  40.762  21.385   7.353
 9862POPC   C1B61831  40.668  21.612   6.453
 9862POPC   C2B61832  40.635  21.572   6.753
 9862POPC   C3B61833  40.667  21.589   7.053
 9862POPC   C4B61834  40.664  21.551   7.353
 9863POPC   NC361835  42.375   0.461   5.553
 9863POPC   PO461836  42.306   0.475   5.853
 9863POPC   GL161837  42.292   0.457   6.153
 9863POPC   GL261838  42.323   0.553   6.153
 9863POPC   C1A61839  42.351   0.420   6.453
 9863POPC   D2A61840  42.378   0.413   6.753
 9863POPC   C3A61841  42.374   0.428   7.053
 9863POPC   C4A61842  42.331   0.463   7.353
 9863POPC   C1B61843  42.236   0.717   6.453
 9863POPC   C2B61844  42.227   0.684   6.753
 9863POPC   C3B61845  42.263   0.692   7.053
 9863POPC   C4B61846  42.288   0.638   7.353
 9864POPC   NC361847  39.243   0.436   5.553
 9864POPC   PO461848  39.270   0.463   5.853
 9864POPC   GL161849  39.268   0.471   6.153
 9864POPC   GL261850  39.106   0.379   6.153
 9864POPC   C1A61851  39.184   0.452   6.453
 9864POPC   D2A61852  39.220   0.409   6.753
 9864POPC   C3A61853  39.231   0.398   7.053
 9864POPC   C4A61854  39.203   0.461   7.353
 9864POPC   C1B61855  39.020   0.376   6.453
 9864POPC   C2B61856  38.990   0.394   6.753
 9864POPC   C3B61857  38.960   0.424   7.053
 9864POPC   C4B61858  38.994   0.333   7.353
 9865POPC   NC361859  27.594   5.124   5.553
 9865POPC   PO461860  27.582   5.052   5.853
 9865POPC   GL161861  27.609   5.092   6.153
 9865POPC   GL261862  27.662   4.960   6.153
 9865POPC   C1A61863  27.632   5.124   6.453
 9865POPC   D2A61864  27.608   5.067   6.753
 9865POPC   C3A61865  27.563   5.055   7.053
 9865POPC   C4A61866  27.611   5.123   7.353
 9865POPC   C1B61867  27.653   4.859   6.453
 9865POPC   C2B61868  27.646   4.818   6.753
 9865POPC   C3B61869  27.637   4.904   7.053
 9865POPC   C4B61870  27.647   4.827   7.353
 9866POPC   NC361871  36.137   2.775   5.553
 9866POPC   PO461872  36.131   2.782   5.853
 9866POPC   GL161873  36.143   2.763   6.153
 9866POPC   GL261874  36.171   2.708   6.153
 9866POPC   C1A61875  36.172   2.765   6.453
 9866POPC   D2A61876  36.172   2.718   6.753
 9866POPC   C3A61877  36.081   2.761   7.053
 9866POPC   C4A61878  36.079   2.724   7.353
 9866POPC   C1B61879  36.331   2.588   6.453
 9866POPC   C2B61880  36.331   2.535   6.753
 9866POPC   C3B61881  36.321   2.592   7.053
 9866POPC   C4B61882  36.307   2.558   7.353
 9867POPC   NC361883   0.408  29.143   5.553
 9867POPC   PO461884   0.474  29.173   5.853
 9867POPC   GL161885   0.405  29.189   6.153
 9867POPC   GL261886   0.573  29.172   6.153
 9867POPC   C1A61887   0.408  29.159   6.453
 9867POPC   D2A61888   0.416  29.159   6.753
 9867POPC   C3A61889   0.464  29.150   7.053
 9867POPC   C4A61890   0.465  29.127   7.353
 9867POPC   C1B61891   0.689  29.197   6.453
 9867POPC   C2B61892   0.673  29.215   6.753
 9867POPC   C3B61893   0.676  29.177   7.053
 9867POPC   C4B61894   0.652  29.223   7.353
 9868POPC   NC361895   5.108  36.854   5.553
 9868POPC   PO461896   5.103  36.948   5.853
 9868POPC   GL161897   5.060  36.940   6.153
 9868POPC   GL261898   5.077  36.816   6.153
 9868POPC   C1A61899   5.135  36.939   6.453
 9868POPC   D2A61900   5.080  36.924   6.753
 9868POPC   C3A61901   5.052  36.892   7.053
 9868POPC   C4A61902   5.133  36.950   7.353
 9868POPC   C1B61903   5.006  36.679   6.453
 9868POPC   C2B61904   5.034  36.684   6.753
 9868POPC   C3B61905   5.025  36.675   7.053
 9868POPC   C4B61906   5.073  36.676   7.353
 9869POPC   NC361907  15.961   2.725   5.553
 9869POPC   PO461908  15.995   2.746   5.853
 9869POPC   GL161909  15.946   2.744   6.153
 9869POPC   GL261910  15.840   2.624   6.153
 9869POPC   C1A61911  15.999   2.808   6.453
 9869POPC   D2A61912  15.971   2.786   6.753
 9869POPC   C3A61913  15.932   2.751   7.053
 9869POPC   C4A61914  15.973   2.717   7.353
 9869POPC   C1B61915  15.804   2.554   6.453
 9869POPC   C2B61916  15.803   2.566   6.753
 9869POPC   C3B61917  15.737   2.539   7.053
 9869POPC   C4B61918  15.805   2.570   7.353
 9870POPC   NC361919  15.145   2.802   5.553
 9870POPC   PO461920  15.226   2.770   5.853
 9870POPC   GL161921  15.168   2.735   6.153
 9870POPC   GL261922  15.209   2.890   6.153
 9870POPC   C1A61923  15.222   2.758   6.453
 9870POPC   D2A61924  15.153   2.795   6.753
 9870POPC   C3A61925  15.165   2.809   7.053
 9870POPC   C4A61926  15.223   2.732   7.353
 9870POPC   C1B61927  15.191   3.037   6.453
 9870POPC   C2B61928  15.172   2.997   6.753
 9870POPC   C3B61929  15.187   3.016   7.053
 9870POPC   C4B61930  15.211   3.023   7.353
 9871POPC   NC361931  32.254  21.343   5.553
 9871POPC   PO461932  32.296  21.393   5.853
 9871POPC   GL161933  32.236  21.365   6.153
 9871POPC   GL261934  32.358  21.388   6.153
 9871POPC   C1A61935  32.240  21.373   6.453
 9871POPC   D2A61936  32.284  21.359   6.753
 9871POPC   C3A61937  32.266  21.368   7.053
 9871POPC   C4A61938  32.226  21.350   7.353
 9871POPC   C1B61939  32.474  21.435   6.453
 9871POPC   C2B61940  32.440  21.507   6.753
 9871POPC   C3B61941  32.517  21.524   7.053
 9871POPC   C4B61942  32.471  21.517   7.353
 9872POPC   NC361943   5.099  33.019   5.553
 9872POPC   PO461944   5.142  33.050   5.853
 9872POPC   GL161945   5.109  32.976   6.153
 9872POPC   GL261946   5.012  33.074   6.153
 9872POPC   C1A61947   5.073  33.059   6.453
 9872POPC   D2A61948   5.096  33.060   6.753
 9872POPC   C3A61949   5.114  33.050   7.053
 9872POPC   C4A61950   5.058  33.045   7.353
 9872POPC   C1B61951   4.882  33.153   6.453
 9872POPC   C2B61952   4.857  33.155   6.753
 9872POPC   C3B61953   4.883  33.104   7.053
 9872POPC   C4B61954   4.856  33.094   7.353
 9873POPC   NC361955  26.797  43.860   5.553
 9873POPC   PO461956  26.783  43.904   5.853
 9873POPC   GL161957  26.851  43.862   6.153
 9873POPC   GL261958  26.841  43.765   6.153
 9873POPC   C1A61959  26.781  43.846   6.453
 9873POPC   D2A61960  26.856  43.888   6.753
 9873POPC   C3A61961  26.866  43.865   7.053
 9873POPC   C4A61962  26.773  43.861   7.353
 9873POPC   C1B61963  26.925  43.700   6.453
 9873POPC   C2B61964  26.877  43.671   6.753
 9873POPC   C3B61965  26.861  43.699   7.053
 9873POPC   C4B61966  26.922  43.657   7.353
 9874POPC   NC361967   8.958   6.613   5.553
 9874POPC   PO461968   9.012   6.600   5.853
 9874POPC   GL161969   8.933   6.664   6.153
 9874POPC   GL261970   9.130   6.590   6.153
 9874POPC   C1A61971   8.999   6.618   6.453
 9874POPC   D2A61972   8.978   6.686   6.753
 9874POPC   C3A61973   8.941   6.659   7.053
 9874POPC   C4A61974   9.020   6.670   7.353
 9874POPC   C1B61975   9.163   6.574   6.453
 9874POPC   C2B61976   9.173   6.573   6.753
 9874POPC   C3B61977   9.186   6.558   7.053
 9874POPC   C4B61978   9.182   6.542   7.353
 9875POPC   NC361979  34.599  33.027   5.553
 9875POPC   PO461980  34.617  32.983   5.853
 9875POPC   GL161981  34.614  33.050   6.153
 9875POPC   GL261982  34.564  32.915   6.153
 9875POPC   C1A61983  34.594  33.018   6.453
 9875POPC   D2A61984  34.528  33.040   6.753
 9875POPC   C3A61985  34.541  33.024   7.053
 9875POPC   C4A61986  34.567  33.034   7.353
 9875POPC   C1B61987  34.522  32.781   6.453
 9875POPC   C2B61988  34.464  32.761   6.753
 9875POPC   C3B61989  34.494  32.824   7.053
 9875POPC   C4B61990  34.447  32.795   7.353
 9876POPC   NC361991   3.563  10.535   5.553
 9876POPC   PO461992   3.499  10.571   5.853
 9876POPC   GL161993   3.569  10.566   6.153
 9876POPC   GL261994   3.544  10.687   6.153
 9876POPC   C1A61995   3.558  10.496   6.453
 9876POPC   D2A61996   3.542  10.530   6.753
 9876POPC   C3A61997   3.553  10.477   7.053
 9876POPC   C4A61998   3.523  10.542   7.353
 9876POPC   C1B61999   3.473  10.815   6.453
 9876POPC   C2B62000   3.498  10.755   6.753
 9876POPC   C3B62001   3.519  10.819   7.053
 9876POPC   C4B62002   3.546  10.801   7.353
 9877POPC   NC362003  13.603  26.024   5.553
 9877POPC   PO462004  13.595  26.007   5.853
 9877POPC   GL162005  13.675  26.044   6.153
 9877POPC   GL262006  13.544  25.965   6.153
 9877POPC   C1A62007  13.666  26.033   6.453
 9877POPC   D2A62008  13.589  26.049   6.753
 9877POPC   C3A62009  13.632  26.066   7.053
 9877POPC   C4A62010  13.617  26.073   7.353
 9877POPC   C1B62011  13.384  26.004   6.453
 9877POPC   C2B62012  13.381  25.936   6.753
 9877POPC   C3B62013  13.433  26.010   7.053
 9877POPC   C4B62014  13.337  25.931   7.353
 9878POPC   NC362015  40.823  42.346   5.553
 9878POPC   PO462016  40.812  42.360   5.853
 9878POPC   GL162017  40.776  42.369   6.153
 9878POPC   GL262018  40.884  42.263   6.153
 9878POPC   C1A62019  40.741  42.361   6.453
 9878POPC   D2A62020  40.756  42.352   6.753
 9878POPC   C3A62021  40.781  42.382   7.053
 9878POPC   C4A62022  40.799  42.309   7.353
 9878POPC   C1B62023  40.918  42.174   6.453
 9878POPC   C2B62024  40.964  42.115   6.753
 9878POPC   C3B62025  40.920  42.117   7.053
 9878POPC   C4B62026  40.954  42.153   7.353
 9879POPC   NC362027  34.531   8.928   5.553
 9879POPC   PO462028  34.568   9.014   5.853
 9879POPC   GL162029  34.588   9.020   6.153
 9879POPC   GL262030  34.496   8.870   6.153
 9879POPC   C1A62031  34.611   9.004   6.453
 9879POPC   D2A62032  34.618   8.935   6.753
 9879POPC   C3A62033  34.591   8.930   7.053
 9879POPC   C4A62034  34.606   8.996   7.353
 9879POPC   C1B62035  34.520   8.736   6.453
 9879POPC   C2B62036  34.508   8.738   6.753
 9879POPC   C3B62037  34.520   8.722   7.053
 9879POPC   C4B62038  34.497   8.781   7.353
 9880POPC   NC362039  38.444  12.815   5.553
 9880POPC   PO462040  38.429  12.826   5.853
 9880POPC   GL162041  38.420  12.898   6.153
 9880POPC   GL262042  38.493  12.720   6.153
 9880POPC   C1A62043  38.487  12.895   6.453
 9880POPC   D2A62044  38.406  12.863   6.753
 9880POPC   C3A62045  38.441  12.848   7.053
 9880POPC   C4A62046  38.486  12.848   7.353
 9880POPC   C1B62047  38.673  12.639   6.453
 9880POPC   C2B62048  38.615  12.693   6.753
 9880POPC   C3B62049  38.630  12.717   7.053
 9880POPC   C4B62050  38.656  12.674   7.353
 9881POPC   NC362051  34.531  16.719   5.553
 9881POPC   PO462052  34.527  16.689   5.853
 9881POPC   GL162053  34.527  16.718   6.153
 9881POPC   GL262054  34.620  16.863   6.153
 9881POPC   C1A62055  34.555  16.735   6.453
 9881POPC   D2A62056  34.612  16.759   6.753
 9881POPC   C3A62057  34.613  16.779   7.053
 9881POPC   C4A62058  34.575  16.764   7.353
 9881POPC   C1B62059  34.697  16.996   6.453
 9881POPC   C2B62060  34.704  16.988   6.753
 9881POPC   C3B62061  34.613  16.932   7.053
 9881POPC   C4B62062  34.608  16.952   7.353
 9882POPC   NC362063  36.113  33.835   5.553
 9882POPC   PO462064  36.133  33.783   5.853
 9882POPC   GL162065  36.094  33.832   6.153
 9882POPC   GL262066  36.239  33.765   6.153
 9882POPC   C1A62067  36.164  33.799   6.453
 9882POPC   D2A62068  36.096  33.821   6.753
 9882POPC   C3A62069  36.093  33.786   7.053
 9882POPC   C4A62070  36.113  33.810   7.353
 9882POPC   C1B62071  36.335  33.720   6.453
 9882POPC   C2B62072  36.338  33.727   6.753
 9882POPC   C3B62073  36.389  33.731   7.053
 9882POPC   C4B62074  36.383  33.661   7.353
 9883POPC   NC362075  21.436  22.889   5.553
 9883POPC   PO462076  21.372  22.918   5.853
 9883POPC   GL162077  21.396  22.902   6.153
 9883POPC   GL262078  21.361  23.041   6.153
 9883POPC   C1A62079  21.377  22.912   6.453
 9883POPC   D2A62080  21.373  22.970   6.753
 9883POPC   C3A62081  21.431  22.895   7.053
 9883POPC   C4A62082  21.393  22.902   7.353
 9883POPC   C1B62083  21.295  23.163   6.453
 9883POPC   C2B62084  21.265  23.189   6.753
 9883POPC   C3B62085  21.233  23.177   7.053
 9883POPC   C4B62086  21.283  23.129   7.353
 9884POPC   NC362087   5.835   3.586   5.553
 9884POPC   PO462088   5.846   3.500   5.853
 9884POPC   GL162089   5.916   3.546   6.153
 9884POPC   GL262090   5.769   3.494   6.153
 9884POPC   C1A62091   5.865   3.500   6.453
 9884POPC   D2A62092   5.879   3.589   6.753
 9884POPC   C3A62093   5.841   3.572   7.053
 9884POPC   C4A62094   5.852   3.510   7.353
 9884POPC   C1B62095   5.664   3.577   6.453
 9884POPC   C2B62096   5.584   3.531   6.753
 9884POPC   C3B62097   5.573   3.497   7.053
 9884POPC   C4B62098   5.638   3.583   7.353
 9885POPC   NC362099   8.215  28.419   5.553
 9885POPC   PO462100   8.203  28.379   5.853
 9885POPC   GL162101   8.206  28.368   6.153
 9885POPC   GL262102   8.274  28.317   6.153
 9885POPC   C1A62103   8.177  28.397   6.453
 9885POPC   D2A62104   8.152  28.324   6.753
 9885POPC   C3A62105   8.226  28.352   7.053
 9885POPC   C4A62106   8.213  28.335   7.353
 9885POPC   C1B62107   8.410  28.382   6.453
 9885POPC   C2B62108   8.480  28.321   6.753
 9885POPC   C3B62109   8.400  28.341   7.053
 9885POPC   C4B62110   8.408  28.301   7.353
 9886POPC   NC362111  29.166  30.731   5.553
 9886POPC   PO462112  29.194  30.680   5.853
 9886POPC   GL162113  29.142  30.656   6.153
 9886POPC   GL262114  29.094  30.836   6.153
 9886POPC   C1A62115  29.152  30.716   6.453
 9886POPC   D2A62116  29.178  30.714   6.753
 9886POPC   C3A62117  29.110  30.712   7.053
 9886POPC   C4A62118  29.164  30.721   7.353
 9886POPC   C1B62119  29.110  30.912   6.453
 9886POPC   C2B62120  29.072  30.960   6.753
 9886POPC   C3B62121  29.109  30.943   7.053
 9886POPC   C4B62122  29.049  30.899   7.353
 9887POPC   NC362123  29.915  41.565   5.553
 9887POPC   PO462124  29.967  41.570   5.853
 9887POPC   GL162125  29.915  41.528   6.153
 9887POPC   GL262126  29.939  41.406   6.153
 9887POPC   C1A62127  29.906  41.572   6.453
 9887POPC   D2A62128  29.969  41.518   6.753
 9887POPC   C3A62129  29.942  41.517   7.053
 9887POPC   C4A62130  29.900  41.555   7.353
 9887POPC   C1B62131  30.028  41.383   6.453
 9887POPC   C2B62132  30.038  41.318   6.753
 9887POPC   C3B62133  29.998  41.363   7.053
 9887POPC   C4B62134  30.088  41.298   7.353
 9888POPC   NC362135   9.017  12.068   5.553
 9888POPC   PO462136   8.949  12.089   5.853
 9888POPC   GL162137   8.923  12.065   6.153
 9888POPC   GL262138   8.972  12.206   6.153
 9888POPC   C1A62139   8.927  12.027   6.453
 9888POPC   D2A62140   8.972  12.034   6.753
 9888POPC   C3A62141   8.927  12.119   7.053
 9888POPC   C4A62142   8.972  12.077   7.353
 9888POPC   C1B62143   8.926  12.286   6.453
 9888POPC   C2B62144   8.934  12.333   6.753
 9888POPC   C3B62145   9.001  12.345   7.053
 9888POPC   C4B62146   8.943  12.336   7.353
 9889POPC   NC362147  21.360  43.093   5.553
 9889POPC   PO462148  21.386  43.131   5.853
 9889POPC   GL162149  21.406  43.078   6.153
 9889POPC   GL262150  21.236  43.019   6.153
 9889POPC   C1A62151  21.422  43.089   6.453
 9889POPC   D2A62152  21.353  43.102   6.753
 9889POPC   C3A62153  21.412  43.086   7.053
 9889POPC   C4A62154  21.370  43.150   7.353
 9889POPC   C1B62155  21.158  42.936   6.453
 9889POPC   C2B62156  21.166  42.987   6.753
 9889POPC   C3B62157  21.163  43.024   7.053
 9889POPC   C4B62158  21.124  42.933   7.353
 9890POPC   NC362159  31.427  39.231   5.553
 9890POPC   PO462160  31.427  39.222   5.853
 9890POPC   GL162161  31.470  39.279   6.153
 9890POPC   GL262162  31.343  39.220   6.153
 9890POPC   C1A62163  31.467  39.186   6.453
 9890POPC   D2A62164  31.477  39.191   6.753
 9890POPC   C3A62165  31.507  39.245   7.053
 9890POPC   C4A62166  31.520  39.236   7.353
 9890POPC   C1B62167  31.209  39.130   6.453
 9890POPC   C2B62168  31.220  39.141   6.753
 9890POPC   C3B62169  31.259  39.069   7.053
 9890POPC   C4B62170  31.209  39.098   7.353
 9891POPC   NC362171   2.737  17.482   5.553
 9891POPC   PO462172   2.743  17.473   5.853
 9891POPC   GL162173   2.747  17.507   6.153
 9891POPC   GL262174   2.694  17.662   6.153
 9891POPC   C1A62175   2.758  17.497   6.453
 9891POPC   D2A62176   2.766  17.469   6.753
 9891POPC   C3A62177   2.785  17.468   7.053
 9891POPC   C4A62178   2.773  17.507   7.353
 9891POPC   C1B62179   2.629  17.677   6.453
 9891POPC   C2B62180   2.653  17.724   6.753
 9891POPC   C3B62181   2.646  17.717   7.053
 9891POPC   C4B62182   2.653  17.744   7.353
 9892POPC   NC362183   1.232  36.910   5.553
 9892POPC   PO462184   1.178  36.887   5.853
 9892POPC   GL162185   1.237  36.859   6.153
 9892POPC   GL262186   1.331  36.850   6.153
 9892POPC   C1A62187   1.225  36.952   6.453
 9892POPC   D2A62188   1.259  36.868   6.753
 9892POPC   C3A62189   1.260  36.894   7.053
 9892POPC   C4A62190   1.259  36.911   7.353
 9892POPC   C1B62191   1.392  36.751   6.453
 9892POPC   C2B62192   1.430  36.770   6.753
 9892POPC   C3B62193   1.389  36.724   7.053
 9892POPC   C4B62194   1.389  36.732   7.353
 9893POPC   NC362195  36.128  37.651   5.553
 9893POPC   PO462196  36.094  37.710   5.853
 9893POPC   GL162197  36.094  37.690   6.153
 9893POPC   GL262198  36.244  37.770   6.153
 9893POPC   C1A62199  36.143  37.648   6.453
 9893POPC   D2A62200  36.096  37.657   6.753
 9893POPC   C3A62201  36.106  37.661   7.053
 9893POPC   C4A62202  36.112  37.650   7.353
 9893POPC   C1B62203  36.264  37.863   6.453
 9893POPC   C2B62204  36.311  37.868   6.753
 9893POPC   C3B62205  36.324  37.876   7.053
 9893POPC   C4B62206  36.274  37.913   7.353
 9894POPC   NC362207  37.708  29.904   5.553
 9894POPC   PO462208  37.696  29.892   5.853
 9894POPC   GL162209  37.681  29.873   6.153
 9894POPC   GL262210  37.515  29.895   6.153
 9894POPC   C1A62211  37.669  29.940   6.453
 9894POPC   D2A62212  37.696  29.944   6.753
 9894POPC   C3A62213  37.657  29.904   7.053
 9894POPC   C4A62214  37.671  29.964   7.353
 9894POPC   C1B62215  37.453  29.896   6.453
 9894POPC   C2B62216  37.398  29.900   6.753
 9894POPC   C3B62217  37.400  29.836   7.053
 9894POPC   C4B62218  37.434  29.825   7.353
 9895POPC   NC362219   5.084  27.625   5.553
 9895POPC   PO462220   5.043  27.617   5.853
 9895POPC   GL162221   5.048  27.545   6.153
 9895POPC   GL262222   5.184  27.607   6.153
 9895POPC   C1A62223   5.130  27.640   6.453
 9895POPC   D2A62224   5.095  27.622   6.753
 9895POPC   C3A62225   5.050  27.559   7.053
 9895POPC   C4A62226   5.075  27.621   7.353
 9895POPC   C1B62227   5.346  27.705   6.453
 9895POPC   C2B62228   5.331  27.634   6.753
 9895POPC   C3B62229   5.374  27.680   7.053
 9895POPC   C4B62230   5.331  27.716   7.353
 9896POPC   NC362231  34.597  12.829   5.553
 9896POPC   PO462232  34.591  12.871   5.853
 9896POPC   GL162233  34.624  12.819   6.153
 9896POPC   GL262234  34.626  12.989   6.153
 9896POPC   C1A62235  34.569  12.863   6.453
 9896POPC   D2A62236  34.538  12.834   6.753
 9896POPC   C3A62237  34.546  12.814   7.053
 9896POPC   C4A62238  34.622  12.867   7.353
 9896POPC   C1B62239  34.662  13.071   6.453
 9896POPC   C2B62240  34.670  13.027   6.753
 9896POPC   C3B62241  34.708  13.027   7.053
 9896POPC   C4B62242  34.716  13.122   7.353
 9897POPC   NC362243  12.899   5.855   5.553
 9897POPC   PO462244  12.813   5.829   5.853
 9897POPC   GL162245  12.822   5.819   6.153
 9897POPC   GL262246  12.929   5.902   6.153
 9897POPC   C1A62247  12.876   5.912   6.453
 9897POPC   D2A62248  12.866   5.828   6.753
 9897POPC   C3A62249  12.805   5.857   7.053
 9897POPC   C4A62250  12.869   5.889   7.353
 9897POPC   C1B62251  13.067   6.012   6.453
 9897POPC   C2B62252  13.077   6.055   6.753
 9897POPC   C3B62253  13.079   6.053   7.053
 9897POPC   C4B62254  13.041   6.054   7.353
 9898POPC   NC362255  28.403  32.221   5.553
 9898POPC   PO462256  28.371  32.247   5.853
 9898POPC   GL162257  28.409  32.273   6.153
 9898POPC   GL262258  28.305  32.365   6.153
 9898POPC   C1A62259  28.405  32.249   6.453
 9898POPC   D2A62260  28.418  32.218   6.753
 9898POPC   C3A62261  28.409  32.251   7.053
 9898POPC   C4A62262  28.410  32.279   7.353
 9898POPC   C1B62263  28.277  32.427   6.453
 9898POPC   C2B62264  28.230  32.433   6.753
 9898POPC   C3B62265  28.261  32.485   7.053
 9898POPC   C4B62266  28.257  32.452   7.353
 9899POPC   NC362267  33.047  20.575   5.553
 9899POPC   PO462268  33.009  20.620   5.853
 9899POPC   GL162269  33.007  20.599   6.153
 9899POPC   GL262270  32.958  20.512   6.153
 9899POPC   C1A62271  33.061  20.575   6.453
 9899POPC   D2A62272  33.057  20.623   6.753
 9899POPC   C3A62273  33.040  20.591   7.053
 9899POPC   C4A62274  33.049  20.604   7.353
 9899POPC   C1B62275  33.008  20.332   6.453
 9899POPC   C2B62276  32.957  20.384   6.753
 9899POPC   C3B62277  32.957  20.335   7.053
 9899POPC   C4B62278  33.019  20.360   7.353
 9900POPC   NC362279  27.630  27.605   5.553
 9900POPC   PO462280  27.608  27.575   5.853
 9900POPC   GL162281  27.614  27.599   6.153
 9900POPC   GL262282  27.498  27.634   6.153
 9900POPC   C1A62283  27.558  27.546   6.453
 9900POPC   D2A62284  27.617  27.563   6.753
 9900POPC   C3A62285  27.642  27.586   7.053
 9900POPC   C4A62286  27.609  27.591   7.353
 9900POPC   C1B62287  27.319  27.623   6.453
 9900POPC   C2B62288  27.389  27.646   6.753
 9900POPC   C3B62289  27.329  27.601   7.053
 9900POPC   C4B62290  27.316  27.562   7.353
 9901POPC   NC362291  11.328  40.001   5.553
 9901POPC   PO462292  11.344  39.966   5.853
 9901POPC   GL162293  11.287  39.962   6.153
 9901POPC   GL262294  11.233  40.135   6.153
 9901POPC   C1A62295  11.330  39.998   6.453
 9901POPC   D2A62296  11.338  40.031   6.753
 9901POPC   C3A62297  11.298  40.008   7.053
 9901POPC   C4A62298  11.299  40.005   7.353
 9901POPC   C1B62299  11.260  40.221   6.453
 9901POPC   C2B62300  11.250  40.227   6.753
 9901POPC   C3B62301  11.290  40.249   7.053
 9901POPC   C4B62302  11.276  40.274   7.353
 9902POPC   NC362303  30.660  13.646   5.553
 9902POPC   PO462304  30.674  13.636   5.853
 9902POPC   GL162305  30.662  13.632   6.153
 9902POPC   GL262306  30.858  13.610   6.153
 9902POPC   C1A62307  30.705  13.599   6.453
 9902POPC   D2A62308  30.650  13.599   6.753
 9902POPC   C3A62309  30.671  13.658   7.053
 9902POPC   C4A62310  30.733  13.589   7.353
 9902POPC   C1B62311  30.967  13.550   6.453
 9902POPC   C2B62312  30.957  13.547   6.753
 9902POPC   C3B62313  30.954  13.620   7.053
 9902POPC   C4B62314  30.944  13.609   7.353
 9903POPC   NC362315  15.979  34.568   5.553
 9903POPC   PO462316  15.937  34.529   5.853
 9903POPC   GL162317  15.970  34.545   6.153
 9903POPC   GL262318  16.022  34.685   6.153
 9903POPC   C1A62319  15.994  34.555   6.453
 9903POPC   D2A62320  15.937  34.552   6.753
 9903POPC   C3A62321  15.942  34.548   7.053
 9903POPC   C4A62322  15.957  34.588   7.353
 9903POPC   C1B62323  16.151  34.724   6.453
 9903POPC   C2B62324  16.144  34.815   6.753
 9903POPC   C3B62325  16.097  34.796   7.053
 9903POPC   C4B62326  16.135  34.785   7.353
 9904POPC   NC362327  26.063  31.484   5.553
 9904POPC   PO462328  26.089  31.440   5.853
 9904POPC   GL162329  26.028  31.495   6.153
 9904POPC   GL262330  26.032  31.563   6.153
 9904POPC   C1A62331  26.028  31.463   6.453
 9904POPC   D2A62332  26.077  31.505   6.753
 9904POPC   C3A62333  26.013  31.486   7.053
 9904POPC   C4A62334  26.017  31.450   7.353
 9904POPC   C1B62335  25.958  31.715   6.453
 9904POPC   C2B62336  25.952  31.672   6.753
 9904POPC   C3B62337  25.961  31.747   7.053
 9904POPC   C4B62338  25.958  31.667   7.353
 9905POPC   NC362339  15.964  12.896   5.553
 9905POPC   PO462340  15.981  12.886   5.853
 9905POPC   GL162341  15.950  12.843   6.153
 9905POPC   GL262342  16.035  12.811   6.153
 9905POPC   C1A62343  15.932  12.901   6.453
 9905POPC   D2A62344  15.943  12.807   6.753
 9905POPC   C3A62345  15.931  12.842   7.053
 9905POPC   C4A62346  15.943  12.901   7.353
 9905POPC   C1B62347  16.182  12.772   6.453
 9905POPC   C2B62348  16.160  12.775   6.753
 9905POPC   C3B62349  16.177  12.739   7.053
 9905POPC   C4B62350  16.178  12.680   7.353
 9906POPC   NC362351   5.834  14.388   5.553
 9906POPC   PO462352   5.874  14.427   5.853
 9906POPC   GL162353   5.900  14.412   6.153
 9906POPC   GL262354   5.759  14.349   6.153
 9906POPC   C1A62355   5.824  14.424   6.453
 9906POPC   D2A62356   5.864  14.392   6.753
 9906POPC   C3A62357   5.849  14.365   7.053
 9906POPC   C4A62358   5.888  14.385   7.353
 9906POPC   C1B62359   5.621  14.343   6.453
 9906POPC   C2B62360   5.651  14.314   6.753
 9906POPC   C3B62361   5.633  14.360   7.053
 9906POPC   C4B62362   5.669  14.327   7.353
 9907POPC   NC362363  26.818  40.758   5.553
 9907POPC   PO462364  26.776  40.735   5.853
 9907POPC   GL162365  26.861  40.760   6.153
 9907POPC   GL262366  26.795  40.881   6.153
 9907POPC   C1A62367  26.788  40.798   6.453
 9907POPC   D2A62368  26.822  40.756   6.753
 9907POPC   C3A62369  26.832  40.802   7.053
 9907POPC   C4A62370  26.866  40.773   7.353
 9907POPC   C1B62371  26.889  40.988   6.453
 9907POPC   C2B62372  26.902  41.004   6.753
 9907POPC   C3B62373  26.822  41.030   7.053
 9907POPC   C4B62374  26.868  40.987   7.353
 9908POPC   NC362375   5.132  15.202   5.553
 9908POPC   PO462376   5.062  15.143   5.853
 9908POPC   GL162377   5.066  15.229   6.153
 9908POPC   GL262378   5.075  15.025   6.153
 9908POPC   C1A62379   5.101  15.211   6.453
 9908POPC   D2A62380   5.049  15.173   6.753
 9908POPC   C3A62381   5.052  15.217   7.053
 9908POPC   C4A62382   5.094  15.187   7.353
 9908POPC   C1B62383   5.016  14.969   6.453
 9908POPC   C2B62384   5.042  14.886   6.753
 9908POPC   C3B62385   5.033  14.902   7.053
 9908POPC   C4B62386   5.052  14.916   7.353
 9909POPC   NC362387  12.104  19.071   5.553
 9909POPC   PO462388  12.109  19.105   5.853
 9909POPC   GL162389  12.090  19.037   6.153
 9909POPC   GL262390  11.990  19.149   6.153
 9909POPC   C1A62391  12.051  19.106   6.453
 9909POPC   D2A62392  12.119  19.030   6.753
 9909POPC   C3A62393  12.065  19.067   7.053
 9909POPC   C4A62394  12.046  19.104   7.353
 9909POPC   C1B62395  11.816  19.170   6.453
 9909POPC   C2B62396  11.892  19.189   6.753
 9909POPC   C3B62397  11.887  19.175   7.053
 9909POPC   C4B62398  11.840  19.206   7.353
 9910POPC   NC362399   6.605  36.923   5.553
 9910POPC   PO462400   6.605  36.897   5.853
 9910POPC   GL162401   6.598  36.897   6.153
 9910POPC   GL262402   6.684  37.003   6.153
 9910POPC   C1A62403   6.621  36.859   6.453
 9910POPC   D2A62404   6.633  36.944   6.753
 9910POPC   C3A62405   6.671  36.935   7.053
 9910POPC   C4A62406   6.649  36.907   7.353
 9910POPC   C1B62407   6.738  37.171   6.453
 9910POPC   C2B62408   6.706  37.087   6.753
 9910POPC   C3B62409   6.787  37.149   7.053
 9910POPC   C4B62410   6.717  37.123   7.353
 9911POPC   NC362411  32.229  32.253   5.553
 9911POPC   PO462412  32.269  32.294   5.853
 9911POPC   GL162413  32.271  32.242   6.153
 9911POPC   GL262414  32.283  32.380   6.153
 9911POPC   C1A62415  32.208  32.219   6.453
 9911POPC   D2A62416  32.229  32.209   6.753
 9911POPC   C3A62417  32.281  32.259   7.053
 9911POPC   C4A62418  32.281  32.264   7.353
 9911POPC   C1B62419  32.256  32.453   6.453
 9911POPC   C2B62420  32.295  32.540   6.753
 9911POPC   C3B62421  32.349  32.492   7.053
 9911POPC   C4B62422  32.343  32.465   7.353
 9912POPC   NC362423  24.513  13.647   5.553
 9912POPC   PO462424  24.457  13.662   5.853
 9912POPC   GL162425  24.442  13.641   6.153
 9912POPC   GL262426  24.580  13.646   6.153
 9912POPC   C1A62427  24.532  13.642   6.453
 9912POPC   D2A62428  24.523  13.650   6.753
 9912POPC   C3A62429  24.495  13.597   7.053
 9912POPC   C4A62430  24.461  13.658   7.353
 9912POPC   C1B62431  24.695  13.602   6.453
 9912POPC   C2B62432  24.698  13.623   6.753
 9912POPC   C3B62433  24.743  13.587   7.053
 9912POPC   C4B62434  24.777  13.614   7.353
 9913POPC   NC362435  10.572   7.397   5.553
 9913POPC   PO462436  10.490   7.431   5.853
 9913POPC   GL162437  10.525   7.387   6.153
 9913POPC   GL262438  10.522   7.334   6.153
 9913POPC   C1A62439  10.481   7.452   6.453
 9913POPC   D2A62440  10.520   7.468   6.753
 9913POPC   C3A62441  10.514   7.387   7.053
 9913POPC   C4A62442  10.477   7.470   7.353
 9913POPC   C1B62443  10.558   7.206   6.453
 9913POPC   C2B62444  10.595   7.192   6.753
 9913POPC   C3B62445  10.621   7.216   7.053
 9913POPC   C4B62446  10.578   7.214   7.353
 9914POPC   NC362447  19.796  16.707   5.553
 9914POPC   PO462448  19.881  16.747   5.853
 9914POPC   GL162449  19.884  16.690   6.153
 9914POPC   GL262450  19.729  16.755   6.153
 9914POPC   C1A62451  19.849  16.714   6.453
 9914POPC   D2A62452  19.856  16.683   6.753
 9914POPC   C3A62453  19.883  16.713   7.053
 9914POPC   C4A62454  19.832  16.745   7.353
 9914POPC   C1B62455  19.655  16.808   6.453
 9914POPC   C2B62456  19.605  16.853   6.753
 9914POPC   C3B62457  19.568  16.891   7.053
 9914POPC   C4B62458  19.663  16.868   7.353
 9915POPC   NC362459  11.257   7.391   5.553
 9915POPC   PO462460  11.282   7.428   5.853
 9915POPC   GL162461  11.280   7.402   6.153
 9915POPC   GL262462  11.325   7.533   6.153
 9915POPC   C1A62463  11.274   7.397   6.453
 9915POPC   D2A62464  11.265   7.454   6.753
 9915POPC   C3A62465  11.274   7.443   7.053
 9915POPC   C4A62466  11.323   7.409   7.353
 9915POPC   C1B62467  11.389   7.651   6.453
 9915POPC   C2B62468  11.323   7.660   6.753
 9915POPC   C3B62469  11.360   7.653   7.053
 9915POPC   C4B62470  11.316   7.713   7.353
 9916POPC   NC362471   1.943  35.354   5.553
 9916POPC   PO462472   1.976  35.331   5.853
 9916POPC   GL162473   1.979  35.380   6.153
 9916POPC   GL262474   1.958  35.458   6.153
 9916POPC   C1A62475   1.981  35.371   6.453
 9916POPC   D2A62476   1.973  35.312   6.753
 9916POPC   C3A62477   2.030  35.305   7.053
 9916POPC   C4A62478   1.997  35.331   7.353
 9916POPC   C1B62479   1.969  35.622   6.453
 9916POPC   C2B62480   1.985  35.641   6.753
 9916POPC   C3B62481   1.981  35.576   7.053
 9916POPC   C4B62482   1.969  35.567   7.353
 9917POPC   NC362483  40.778  29.152   5.553
 9917POPC   PO462484  40.788  29.099   5.853
 9917POPC   GL162485  40.742  29.194   6.153
 9917POPC   GL262486  40.882  29.125   6.153
 9917POPC   C1A62487  40.737  29.170   6.453
 9917POPC   D2A62488  40.817  29.113   6.753
 9917POPC   C3A62489  40.826  29.117   7.053
 9917POPC   C4A62490  40.805  29.102   7.353
 9917POPC   C1B62491  41.042  29.196   6.453
 9917POPC   C2B62492  41.029  29.152   6.753
 9917POPC   C3B62493  41.003  29.229   7.053
 9917POPC   C4B62494  41.071  29.200   7.353
 9918POPC   NC362495  19.051  36.862   5.553
 9918POPC   PO462496  19.055  36.952   5.853
 9918POPC   GL162497  19.067  36.856   6.153
 9918POPC   GL262498  19.126  36.962   6.153
 9918POPC   C1A62499  19.072  36.946   6.453
 9918POPC   D2A62500  19.020  36.896   6.753
 9918POPC   C3A62501  19.010  36.910   7.053
 9918POPC   C4A62502  19.059  36.912   7.353
 9918POPC   C1B62503  19.213  37.025   6.453
 9918POPC   C2B62504  19.269  37.087   6.753
 9918POPC   C3B62505  19.236  37.097   7.053
 9918POPC   C4B62506  19.272  37.005   7.353
 9919POPC   NC362507  42.369  40.764   5.553
 9919POPC   PO462508  42.338  40.783   5.853
 9919POPC   GL162509  42.294  40.759   6.153
 9919POPC   GL262510  42.383  40.739   6.153
 9919POPC   C1A62511  42.315  40.744   6.453
 9919POPC   D2A62512  42.383  40.819   6.753
 9919POPC   C3A62513  42.372  40.775   7.053
 9919POPC   C4A62514  42.301  40.778   7.353
 9919POPC   C1B62515  42.472  40.569   6.453
 9919POPC   C2B62516  42.555  40.650   6.753
 9919POPC   C3B62517  42.530  40.631   7.053
 9919POPC   C4B62518  42.496  40.585   7.353
 9920POPC   NC362519  32.987  18.251   5.553
 9920POPC   PO462520  33.033  18.333   5.853
 9920POPC   GL162521  33.033  18.280   6.153
 9920POPC   GL262522  32.865  18.376   6.153
 9920POPC   C1A62523  32.995  18.241   6.453
 9920POPC   D2A62524  33.066  18.296   6.753
 9920POPC   C3A62525  32.984  18.266   7.053
 9920POPC   C4A62526  33.059  18.280   7.353
 9920POPC   C1B62527  32.830  18.359   6.453
 9920POPC   C2B62528  32.779  18.331   6.753
 9920POPC   C3B62529  32.793  18.379   7.053
 9920POPC   C4B62530  32.776  18.342   7.353
 9921POPC   NC362531  40.746   9.729   5.553
 9921POPC   PO462532  40.769   9.737   5.853
 9921POPC   GL162533  40.742   9.700   6.153
 9921POPC   GL262534  40.716   9.621   6.153
 9921POPC   C1A62535  40.746   9.787   6.453
 9921POPC   D2A62536  40.796   9.793   6.753
 9921POPC   C3A62537  40.748   9.745   7.053
 9921POPC   C4A62538  40.748   9.760   7.353
 9921POPC   C1B62539  40.618   9.500   6.453
 9921POPC   C2B62540  40.684   9.507   6.753
 9921POPC   C3B62541  40.682   9.552   7.053
 9921POPC   C4B62542  40.708   9.519   7.353
 9922POPC   NC362543  24.521   3.515   5.553
 9922POPC   PO462544  24.522   3.571   5.853
 9922POPC   GL162545  24.485   3.537   6.153
 9922POPC   GL262546  24.415   3.470   6.153
 9922POPC   C1A62547  24.533   3.497   6.453
 9922POPC   D2A62548  24.497   3.550   6.753
 9922POPC   C3A62549  24.513   3.579   7.053
 9922POPC   C4A62550  24.493   3.527   7.353
 9922POPC   C1B62551  24.379   3.300   6.453
 9922POPC   C2B62552  24.312   3.376   6.753
 9922POPC   C3B62553  24.356   3.332   7.053
 9922POPC   C4B62554  24.357   3.315   7.353
 9923POPC   NC362555  42.344  22.176   5.553
 9923POPC   PO462556  42.303  22.208   5.853
 9923POPC   GL162557  42.312  22.211   6.153
 9923POPC   GL262558  42.407  22.056   6.153
 9923POPC   C1A62559  42.371  22.163   6.453
 9923POPC   D2A62560  42.293  22.200   6.753
 9923POPC   C3A62561  42.325  22.201   7.053
 9923POPC   C4A62562  42.328  22.191   7.353
 9923POPC   C1B62563  42.417  21.905   6.453
 9923POPC   C2B62564  42.385  21.885   6.753
 9923POPC   C3B62565  42.463  21.972   7.053
 9923POPC   C4B62566  42.381  21.912   7.353
 9924POPC   NC362567   7.405  11.343   5.553
 9924POPC   PO462568   7.438  11.260   5.853
 9924POPC   GL162569   7.406  11.251   6.153
 9924POPC   GL262570   7.321  11.246   6.153
 9924POPC   C1A62571   7.439  11.283   6.453
 9924POPC   D2A62572   7.411  11.324   6.753
 9924POPC   C3A62573   7.373  11.342   7.053
 9924POPC   C4A62574   7.420  11.264   7.353
 9924POPC   C1B62575   7.219  11.287   6.453
 9924POPC   C2B62576   7.132  11.269   6.753
 9924POPC   C3B62577   7.182  11.254   7.053
 9924POPC   C4B62578   7.153  11.252   7.353
 9925POPC   NC362579  13.620  16.698   5.553
 9925POPC   PO462580  13.668  16.769   5.853
 9925POPC   GL162581  13.582  16.693   6.153
 9925POPC   GL262582  13.585  16.606   6.153
 9925POPC   C1A62583  13.611  16.692   6.453
 9925POPC   D2A62584  13.667  16.740   6.753
 9925POPC   C3A62585  13.590  16.769   7.053
 9925POPC   C4A62586  13.615  16.712   7.353
 9925POPC   C1B62587  13.511  16.496   6.453
 9925POPC   C2B62588  13.525  16.507   6.753
 9925POPC   C3B62589  13.498  16.543   7.053
 9925POPC   C4B62590  13.471  16.539   7.353
 9926POPC   NC362591  30.728   8.987   5.553
 9926POPC   PO462592  30.676   8.937   5.853
 9926POPC   GL162593  30.690   9.012   6.153
 9926POPC   GL262594  30.687   9.142   6.153
 9926POPC   C1A62595  30.693   9.015   6.453
 9926POPC   D2A62596  30.672   8.936   6.753
 9926POPC   C3A62597  30.707   8.961   7.053
 9926POPC   C4A62598  30.649   8.966   7.353
 9926POPC   C1B62599  30.693   9.261   6.453
 9926POPC   C2B62600  30.680   9.260   6.753
 9926POPC   C3B62601  30.702   9.239   7.053
 9926POPC   C4B62602  30.653   9.182   7.353
 9927POPC   NC362603  15.984  10.501   5.553
 9927POPC   PO462604  15.989  10.533   5.853
 9927POPC   GL162605  15.972  10.489   6.153
 9927POPC   GL262606  16.029  10.436   6.153
 9927POPC   C1A62607  15.982  10.492   6.453
 9927POPC   D2A62608  15.937  10.553   6.753
 9927POPC   C3A62609  15.942  10.568   7.053
 9927POPC   C4A62610  15.936  10.507   7.353
 9927POPC   C1B62611  16.114  10.393   6.453
 9927POPC   C2B62612  16.134  10.360   6.753
 9927POPC   C3B62613  16.170  10.394   7.053
 9927POPC   C4B62614  16.153  10.314   7.353
 9928POPC   NC362615  32.980  34.562   5.553
 9928POPC   PO462616  32.992  34.600   5.853
 9928POPC   GL162617  33.042  34.540   6.153
 9928POPC   GL262618  32.890  34.463   6.153
 9928POPC   C1A62619  32.984  34.534   6.453
 9928POPC   D2A62620  33.064  34.543   6.753
 9928POPC   C3A62621  33.047  34.592   7.053
 9928POPC   C4A62622  33.069  34.593   7.353
 9928POPC   C1B62623  32.864  34.454   6.453
 9928POPC   C2B62624  32.857  34.412   6.753
 9928POPC   C3B62625  32.841  34.381   7.053
 9928POPC   C4B62626  32.784  34.458   7.353
 9929POPC   NC362627   1.989   5.916   5.553
 9929POPC   PO462628   1.963   5.873   5.853
 9929POPC   GL162629   1.977   5.886   6.153
 9929POPC   GL262630   1.986   6.011   6.153
 9929POPC   C1A62631   1.956   5.912   6.453
 9929POPC   D2A62632   2.026   5.908   6.753
 9929POPC   C3A62633   1.966   5.892   7.053
 9929POPC   C4A62634   1.949   5.879   7.353
 9929POPC   C1B62635   2.006   6.110   6.453
 9929POPC   C2B62636   2.089   6.076   6.753
 9929POPC   C3B62637   2.030   6.148   7.053
 9929POPC   C4B62638   2.070   6.127   7.353
 9930POPC   NC362639  15.917  29.903   5.553
 9930POPC   PO462640  16.005  29.900   5.853
 9930POPC   GL162641  15.941  29.915   6.153
 9930POPC   GL262642  16.045  29.946   6.153
 9930POPC   C1A62643  15.979  29.900   6.453
 9930POPC   D2A62644  16.002  29.905   6.753
 9930POPC   C3A62645  15.973  29.940   7.053
 9930POPC   C4A62646  15.973  29.955   7.353
 9930POPC   C1B62647  16.252  29.898   6.453
 9930POPC   C2B62648  16.246  29.893   6.753
 9930POPC   C3B62649  16.171  29.866   7.053
 9930POPC   C4B62650  16.238  29.866   7.353
 9931POPC   NC362651  10.491  26.039   5.553
 9931POPC   PO462652  10.520  26.046   5.853
 9931POPC   GL162653  10.517  26.000   6.153
 9931POPC   GL262654  10.581  25.890   6.153
 9931POPC   C1A62655  10.504  26.058   6.453
 9931POPC   D2A62656  10.513  26.076   6.753
 9931POPC   C3A62657  10.491  26.042   7.053
 9931POPC   C4A62658  10.488  26.017   7.353
 9931POPC   C1B62659  10.624  25.782   6.453
 9931POPC   C2B62660  10.600  25.811   6.753
 9931POPC   C3B62661  10.587  25.860   7.053
 9931POPC   C4B62662  10.610  25.860   7.353
 9932POPC   NC362663  34.547  22.161   5.553
 9932POPC   PO462664  34.564  22.130   5.853
 9932POPC   GL162665  34.590  22.181   6.153
 9932POPC   GL262666  34.487  22.199   6.153
 9932POPC   C1A62667  34.607  22.132   6.453
 9932POPC   D2A62668  34.559  22.145   6.753
 9932POPC   C3A62669  34.622  22.199   7.053
 9932POPC   C4A62670  34.564  22.195   7.353
 9932POPC   C1B62671  34.415  22.277   6.453
 9932POPC   C2B62672  34.388  22.300   6.753
 9932POPC   C3B62673  34.339  22.363   7.053
 9932POPC   C4B62674  34.425  22.266   7.353
 9933POPC   NC362675  19.066  43.079   5.553
 9933POPC   PO462676  19.085  43.068   5.853
 9933POPC   GL162677  19.099  43.158   6.153
 9933POPC   GL262678  19.126  43.047   6.153
 9933POPC   C1A62679  19.043  43.139   6.453
 9933POPC   D2A62680  19.068  43.095   6.753
 9933POPC   C3A62681  19.045  43.143   7.053
 9933POPC   C4A62682  19.075  43.085   7.353
 9933POPC   C1B62683  19.219  42.933   6.453
 9933POPC   C2B62684  19.263  42.970   6.753
 9933POPC   C3B62685  19.261  42.966   7.053
 9933POPC   C4B62686  19.229  42.926   7.353
 9934POPC   NC362687  19.077  26.839   5.553
 9934POPC   PO462688  19.023  26.804   5.853
 9934POPC   GL162689  19.028  26.781   6.153
 9934POPC   GL262690  19.099  26.958   6.153
 9934POPC   C1A62691  19.029  26.789   6.453
 9934POPC   D2A62692  19.098  26.849   6.753
 9934POPC   C3A62693  19.038  26.860   7.053
 9934POPC   C4A62694  19.054  26.822   7.353
 9934POPC   C1B62695  19.104  27.101   6.453
 9934POPC   C2B62696  19.066  27.105   6.753
 9934POPC   C3B62697  19.044  27.022   7.053
 9934POPC   C4B62698  19.055  27.044   7.353
 9935POPC   NC362699  29.947  12.892   5.553
 9935POPC   PO462700  29.940  12.826   5.853
 9935POPC   GL162701  29.897  12.856   6.153
 9935POPC   GL262702  30.026  12.852   6.153
 9935POPC   C1A62703  29.902  12.868   6.453
 9935POPC   D2A62704  29.872  12.872   6.753
 9935POPC   C3A62705  29.880  12.814   7.053
 9935POPC   C4A62706  29.948  12.885   7.353
 9935POPC   C1B62707  30.165  12.785   6.453
 9935POPC   C2B62708  30.168  12.808   6.753
 9935POPC   C3B62709  30.149  12.729   7.053
 9935POPC   C4B62710  30.122  12.807   7.353
 9936POPC   NC362711  19.840   1.954   5.553
 9936POPC   PO462712  19.803   2.024   5.853
 9936POPC   GL162713  19.864   2.020   6.153
 9936POPC   GL262714  19.907   2.029   6.153
 9936POPC   C1A62715  19.855   2.032   6.453
 9936POPC   D2A62716  19.840   1.957   6.753
 9936POPC   C3A62717  19.864   1.965   7.053
 9936POPC   C4A62718  19.804   2.020   7.353
 9936POPC   C1B62719  20.037   2.109   6.453
 9936POPC   C2B62720  20.061   2.081   6.753
 9936POPC   C3B62721  20.103   2.093   7.053
 9936POPC   C4B62722  20.025   2.062   7.353
 9937POPC   NC362723  26.043   0.455   5.553
 9937POPC   PO462724  26.011   0.391   5.853
 9937POPC   GL162725  26.008   0.430   6.153
 9937POPC   GL262726  25.922   0.442   6.153
 9937POPC   C1A62727  26.053   0.470   6.453
 9937POPC   D2A62728  26.052   0.414   6.753
 9937POPC   C3A62729  26.065   0.467   7.053
 9937POPC   C4A62730  26.023   0.488   7.353
 9937POPC   C1B62731  25.779   0.335   6.453
 9937POPC   C2B62732  25.756   0.433   6.753
 9937POPC   C3B62733  25.826   0.339   7.053
 9937POPC   C4B62734  25.842   0.385   7.353
 9938POPC   NC362735   2.737  25.276   5.553
 9938POPC   PO462736   2.776  25.267   5.853
 9938POPC   GL162737   2.755  25.314   6.153
 9938POPC   GL262738   2.847  25.325   6.153
 9938POPC   C1A62739   2.794  25.305   6.453
 9938POPC   D2A62740   2.800  25.256   6.753
 9938POPC   C3A62741   2.803  25.245   7.053
 9938POPC   C4A62742   2.770  25.252   7.353
 9938POPC   C1B62743   2.944  25.398   6.453
 9938POPC   C2B62744   2.992  25.457   6.753
 9938POPC   C3B62745   2.996  25.389   7.053
 9938POPC   C4B62746   2.942  25.423   7.353
 9939POPC   NC362747   7.427  19.026   5.553
 9939POPC   PO462748   7.390  19.023   5.853
 9939POPC   GL162749   7.466  19.108   6.153
 9939POPC   GL262750   7.339  18.928   6.153
 9939POPC   C1A62751   7.462  19.087   6.453
 9939POPC   D2A62752   7.376  19.097   6.753
 9939POPC   C3A62753   7.413  19.083   7.053
 9939POPC   C4A62754   7.452  19.087   7.353
 9939POPC   C1B62755   7.265  18.840   6.453
 9939POPC   C2B62756   7.285  18.849   6.753
 9939POPC   C3B62757   7.280  18.802   7.053
 9939POPC   C4B62758   7.268  18.862   7.353
 9940POPC   NC362759  38.418  13.611   5.553
 9940POPC   PO462760  38.462  13.602   5.853
 9940POPC   GL162761  38.474  13.600   6.153
 9940POPC   GL262762  38.612  13.625   6.153
 9940POPC   C1A62763  38.439  13.669   6.453
 9940POPC   D2A62764  38.456  13.668   6.753
 9940POPC   C3A62765  38.417  13.581   7.053
 9940POPC   C4A62766  38.428  13.606   7.353
 9940POPC   C1B62767  38.654  13.555   6.453
 9940POPC   C2B62768  38.720  13.586   6.753
 9940POPC   C3B62769  38.723  13.516   7.053
 9940POPC   C4B62770  38.678  13.601   7.353
 9941POPC   NC362771  28.337  29.891   5.553
 9941POPC   PO462772  28.346  29.937   5.853
 9941POPC   GL162773  28.384  29.950   6.153
 9941POPC   GL262774  28.296  29.907   6.153
 9941POPC   C1A62775  28.403  29.939   6.453
 9941POPC   D2A62776  28.407  29.942   6.753
 9941POPC   C3A62777  28.357  29.878   7.053
 9941POPC   C4A62778  28.340  29.881   7.353
 9941POPC   C1B62779  28.124  30.020   6.453
 9941POPC   C2B62780  28.089  29.938   6.753
 9941POPC   C3B62781  28.085  29.964   7.053
 9941POPC   C4B62782  28.109  30.001   7.353
 9942POPC   NC362783   3.493  11.296   5.553
 9942POPC   PO462784   3.522  11.301   5.853
 9942POPC   GL162785   3.579  11.272   6.153
 9942POPC   GL262786   3.651  11.277   6.153
 9942POPC   C1A62787   3.538  11.308   6.453
 9942POPC   D2A62788   3.550  11.338   6.753
 9942POPC   C3A62789   3.561  11.322   7.053
 9942POPC   C4A62790   3.579  11.261   7.353
 9942POPC   C1B62791   3.817  11.316   6.453
 9942POPC   C2B62792   3.835  11.276   6.753
 9942POPC   C3B62793   3.804  11.328   7.053
 9942POPC   C4B62794   3.833  11.285   7.353
 9943POPC   NC362795  42.336  15.968   5.553
 9943POPC   PO462796  42.308  15.914   5.853
 9943POPC   GL162797  42.307  15.955   6.153
 9943POPC   GL262798  42.426  16.087   6.153
 9943POPC   C1A62799  42.287  15.965   6.453
 9943POPC   D2A62800  42.285  15.933   6.753
 9943POPC   C3A62801  42.377  15.925   7.053
 9943POPC   C4A62802  42.353  15.936   7.353
 9943POPC   C1B62803  42.490  16.126   6.453
 9943POPC   C2B62804  42.498  16.174   6.753
 9943POPC   C3B62805  42.510  16.135   7.053
 9943POPC   C4B62806  42.496  16.213   7.353
 9944POPC   NC362807  33.752  41.532   5.553
 9944POPC   PO462808  33.807  41.570   5.853
 9944POPC   GL162809  33.754  41.572   6.153
 9944POPC   GL262810  33.883  41.542   6.153
 9944POPC   C1A62811  33.756  41.580   6.453
 9944POPC   D2A62812  33.797  41.560   6.753
 9944POPC   C3A62813  33.767  41.544   7.053
 9944POPC   C4A62814  33.793  41.602   7.353
 9944POPC   C1B62815  33.990  41.473   6.453
 9944POPC   C2B62816  34.080  41.449   6.753
 9944POPC   C3B62817  34.083  41.469   7.053
 9944POPC   C4B62818  34.067  41.523   7.353
 9945POPC   NC362819   8.974  37.643   5.553
 9945POPC   PO462820   8.975  37.682   5.853
 9945POPC   GL162821   8.984  37.695   6.153
 9945POPC   GL262822   8.857  37.728   6.153
 9945POPC   C1A62823   8.923  37.663   6.453
 9945POPC   D2A62824   8.951  37.689   6.753
 9945POPC   C3A62825   9.021  37.638   7.053
 9945POPC   C4A62826   8.974  37.644   7.353
 9945POPC   C1B62827   8.806  37.856   6.453
 9945POPC   C2B62828   8.757  37.819   6.753
 9945POPC   C3B62829   8.767  37.771   7.053
 9945POPC   C4B62830   8.764  37.841   7.353
 9946POPC   NC362831   3.564  42.303   5.553
 9946POPC   PO462832   3.528  42.288   5.853
 9946POPC   GL162833   3.533  42.356   6.153
 9946POPC   GL262834   3.424  42.343   6.153
 9946POPC   C1A62835   3.570  42.336   6.453
 9946POPC   D2A62836   3.521  42.286   6.753
 9946POPC   C3A62837   3.508  42.330   7.053
 9946POPC   C4A62838   3.511  42.364   7.353
 9946POPC   C1B62839   3.250  42.336   6.453
 9946POPC   C2B62840   3.322  42.399   6.753
 9946POPC   C3B62841   3.308  42.405   7.053
 9946POPC   C4B62842   3.308  42.321   7.353
 9947POPC   NC362843  22.982  36.893   5.553
 9947POPC   PO462844  22.958  36.952   5.853
 9947POPC   GL162845  22.979  36.884   6.153
 9947POPC   GL262846  23.082  36.945   6.153
 9947POPC   C1A62847  22.894  36.894   6.453
 9947POPC   D2A62848  22.934  36.944   6.753
 9947POPC   C3A62849  22.961  36.944   7.053
 9947POPC   C4A62850  22.904  36.926   7.353
 9947POPC   C1B62851  23.152  37.055   6.453
 9947POPC   C2B62852  23.144  37.055   6.753
 9947POPC   C3B62853  23.112  36.983   7.053
 9947POPC   C4B62854  23.179  37.018   7.353
 9948POPC   NC362855  40.037  21.433   5.553
 9948POPC   PO462856  40.053  21.395   5.853
 9948POPC   GL162857  39.991  21.337   6.153
 9948POPC   GL262858  39.862  21.394   6.153
 9948POPC   C1A62859  39.976  21.362   6.453
 9948POPC   D2A62860  39.980  21.394   6.753
 9948POPC   C3A62861  39.968  21.387   7.053
 9948POPC   C4A62862  40.053  21.421   7.353
 9948POPC   C1B62863  39.804  21.295   6.453
 9948POPC   C2B62864  39.751  21.321   6.753
 9948POPC   C3B62865  39.752  21.332   7.053
 9948POPC   C4B62866  39.770  21.336   7.353
 9949POPC   NC362867   5.046  44.689   5.553
 9949POPC   PO462868   5.132  44.625   5.853
 9949POPC   GL162869   5.057  44.614   6.153
 9949POPC   GL262870   4.980  44.569   6.153
 9949POPC   C1A62871   5.136  44.707   6.453
 9949POPC   D2A62872   5.125  44.642   6.753
 9949POPC   C3A62873   5.112  44.666   7.053
 9949POPC   C4A62874   5.096  44.650   7.353
 9949POPC   C1B62875   4.878  44.477   6.453
 9949POPC   C2B62876   4.944  44.472   6.753
 9949POPC   C3B62877   4.916  44.471   7.053
 9949POPC   C4B62878   4.908  44.523   7.353
 9950POPC   NC362879  19.847  36.129   5.553
 9950POPC   PO462880  19.824  36.086   5.853
 9950POPC   GL162881  19.809  36.124   6.153
 9950POPC   GL262882  19.896  36.210   6.153
 9950POPC   C1A62883  19.792  36.120   6.453
 9950POPC   D2A62884  19.809  36.171   6.753
 9950POPC   C3A62885  19.837  36.139   7.053
 9950POPC   C4A62886  19.875  36.152   7.353
 9950POPC   C1B62887  20.025  36.314   6.453
 9950POPC   C2B62888  19.987  36.368   6.753
 9950POPC   C3B62889  20.009  36.297   7.053
 9950POPC   C4B62890  20.022  36.364   7.353
 9951POPC   NC362891   3.584  40.756   5.553
 9951POPC   PO462892   3.554  40.745   5.853
 9951POPC   GL162893   3.538  40.770   6.153
 9951POPC   GL262894   3.577  40.619   6.153
 9951POPC   C1A62895   3.559  40.765   6.453
 9951POPC   D2A62896   3.546  40.782   6.753
 9951POPC   C3A62897   3.558  40.752   7.053
 9951POPC   C4A62898   3.536  40.820   7.353
 9951POPC   C1B62899   3.615  40.563   6.453
 9951POPC   C2B62900   3.664  40.572   6.753
 9951POPC   C3B62901   3.670  40.531   7.053
 9951POPC   C4B62902   3.611  40.584   7.353
 9952POPC   NC362903  43.881   3.576   5.553
 9952POPC   PO462904  43.873   3.574   5.853
 9952POPC   GL162905  43.876   3.570   6.153
 9952POPC   GL262906  43.781   3.493   6.153
 9952POPC   C1A62907  43.871   3.538   6.453
 9952POPC   D2A62908  43.920   3.579   6.753
 9952POPC   C3A62909  43.922   3.572   7.053
 9952POPC   C4A62910  43.890   3.561   7.353
 9952POPC   C1B62911  43.666   3.461   6.453
 9952POPC   C2B62912  43.634   3.441   6.753
 9952POPC   C3B62913  43.644   3.446   7.053
 9952POPC   C4B62914  43.644   3.474   7.353
 9953POPC   NC362915  29.948  24.526   5.553
 9953POPC   PO462916  29.964  24.482   5.853
 9953POPC   GL162917  29.921  24.460   6.153
 9953POPC   GL262918  29.932  24.344   6.153
 9953POPC   C1A62919  29.903  24.506   6.453
 9953POPC   D2A62920  29.881  24.531   6.753
 9953POPC   C3A62921  29.918  24.442   7.053
 9953POPC   C4A62922  29.970  24.453   7.353
 9953POPC   C1B62923  30.049  24.298   6.453
 9953POPC   C2B62924  30.015  24.285   6.753
 9953POPC   C3B62925  30.003  24.257   7.053
 9953POPC   C4B62926  30.033  24.261   7.353
 9954POPC   NC362927  18.303  18.245   5.553
 9954POPC   PO462928  18.274  18.329   5.853
 9954POPC   GL162929  18.279  18.311   6.153
 9954POPC   GL262930  18.346  18.337   6.153
 9954POPC   C1A62931  18.284  18.255   6.453
 9954POPC   D2A62932  18.251  18.289   6.753
 9954POPC   C3A62933  18.318  18.325   7.053
 9954POPC   C4A62934  18.259  18.292   7.353
 9954POPC   C1B62935  18.506  18.383   6.453
 9954POPC   C2B62936  18.477  18.445   6.753
 9954POPC   C3B62937  18.519  18.409   7.053
 9954POPC   C4B62938  18.497  18.383   7.353
 9955POPC   NC362939  29.155  32.288   5.553
 9955POPC   PO462940  29.103  32.216   5.853
 9955POPC   GL162941  29.131  32.269   6.153
 9955POPC   GL262942  29.268  32.252   6.153
 9955POPC   C1A62943  29.160  32.281   6.453
 9955POPC   D2A62944  29.104  32.251   6.753
 9955POPC   C3A62945  29.171  32.252   7.053
 9955POPC   C4A62946  29.142  32.267   7.353
 9955POPC   C1B62947  29.439  32.280   6.453
 9955POPC   C2B62948  29.367  32.308   6.753
 9955POPC   C3B62949  29.403  32.310   7.053
 9955POPC   C4B62950  29.375  32.266   7.353
 9956POPC   NC362951   7.389   7.407   5.553
 9956POPC   PO462952   7.462   7.383   5.853
 9956POPC   GL162953   7.432   7.422   6.153
 9956POPC   GL262954   7.401   7.525   6.153
 9956POPC   C1A62955   7.448   7.402   6.453
 9956POPC   D2A62956   7.469   7.403   6.753
 9956POPC   C3A62957   7.405   7.466   7.053
 9956POPC   C4A62958   7.390   7.408   7.353
 9956POPC   C1B62959   7.394   7.628   6.453
 9956POPC   C2B62960   7.383   7.643   6.753
 9956POPC   C3B62961   7.456   7.679   7.053
 9956POPC   C4B62962   7.441   7.703   7.353
 9957POPC   NC362963  29.163   2.030   5.553
 9957POPC   PO462964  29.129   2.039   5.853
 9957POPC   GL162965  29.140   1.991   6.153
 9957POPC   GL262966  29.273   1.887   6.153
 9957POPC   C1A62967  29.176   1.983   6.453
 9957POPC   D2A62968  29.184   1.958   6.753
 9957POPC   C3A62969  29.101   2.023   7.053
 9957POPC   C4A62970  29.165   2.037   7.353
 9957POPC   C1B62971  29.349   1.804   6.453
 9957POPC   C2B62972  29.324   1.784   6.753
 9957POPC   C3B62973  29.321   1.826   7.053
 9957POPC   C4B62974  29.323   1.814   7.353
 9958POPC   NC362975  15.952  27.619   5.553
 9958POPC   PO462976  15.948  27.556   5.853
 9958POPC   GL162977  15.995  27.606   6.153
 9958POPC   GL262978  15.948  27.461   6.153
 9958POPC   C1A62979  15.919  27.551   6.453
 9958POPC   D2A62980  15.913  27.584   6.753
 9958POPC   C3A62981  15.952  27.548   7.053
 9958POPC   C4A62982  15.976  27.606   7.353
 9958POPC   C1B62983  16.030  27.345   6.453
 9958POPC   C2B62984  16.070  27.316   6.753
 9958POPC   C3B62985  15.993  27.323   7.053
 9958POPC   C4B62986  16.023  27.371   7.353
 9959POPC   NC362987  36.908  34.612   5.553
 9959POPC   PO462988  36.953  34.619   5.853
 9959POPC   GL162989  36.911  34.621   6.153
 9959POPC   GL262990  36.922  34.439   6.153
 9959POPC   C1A62991  36.930  34.535   6.453
 9959POPC   D2A62992  36.931  34.617   6.753
 9959POPC   C3A62993  36.889  34.572   7.053
 9959POPC   C4A62994  36.940  34.548   7.353
 9959POPC   C1B62995  36.978  34.351   6.453
 9959POPC   C2B62996  36.971  34.377   6.753
 9959POPC   C3B62997  36.995  34.353   7.053
 9959POPC   C4B62998  36.975  34.398   7.353
 9960POPC   NC362999  26.801  41.578   5.553
 9960POPC   PO463000  26.857  41.548   5.853
 9960POPC   GL163001  26.805  41.569   6.153
 9960POPC   GL263002  26.800  41.691   6.153
 9960POPC   C1A63003  26.863  41.589   6.453
 9960POPC   D2A63004  26.815  41.587   6.753
 9960POPC   C3A63005  26.853  41.587   7.053
 9960POPC   C4A63006  26.831  41.596   7.353
 9960POPC   C1B63007  26.722  41.751   6.453
 9960POPC   C2B63008  26.761  41.822   6.753
 9960POPC   C3B63009  26.758  41.755   7.053
 9960POPC   C4B63010  26.774  41.766   7.353
 9961POPC   NC363011   4.358  10.496   5.553
 9961POPC   PO463012   4.270  10.502   5.853
 9961POPC   GL163013   4.367  10.485   6.153
 9961POPC   GL263014   4.276  10.377   6.153
 9961POPC   C1A63015   4.364  10.504   6.453
 9961POPC   D2A63016   4.323  10.528   6.753
 9961POPC   C3A63017   4.295  10.574   7.053
 9961POPC   C4A63018   4.274  10.545   7.353
 9961POPC   C1B63019   4.256  10.306   6.453
 9961POPC   C2B63020   4.256  10.228   6.753
 9961POPC   C3B63021   4.331  10.323   7.053
 9961POPC   C4B63022   4.247  10.279   7.353
 9962POPC   NC363023  26.769  29.181   5.553
 9962POPC   PO463024  26.848  29.157   5.853
 9962POPC   GL163025  26.834  29.158   6.153
 9962POPC   GL263026  26.725  29.230   6.153
 9962POPC   C1A63027  26.834  29.178   6.453
 9962POPC   D2A63028  26.816  29.112   6.753
 9962POPC   C3A63029  26.846  29.113   7.053
 9962POPC   C4A63030  26.855  29.132   7.353
 9962POPC   C1B63031  26.720  29.428   6.453
 9962POPC   C2B63032  26.704  29.407   6.753
 9962POPC   C3B63033  26.699  29.411   7.053
 9962POPC   C4B63034  26.749  29.348   7.353
 9963POPC   NC363035  10.569   9.738   5.553
 9963POPC   PO463036  10.512   9.713   5.853
 9963POPC   GL163037  10.501   9.785   6.153
 9963POPC   GL263038  10.661   9.809   6.153
 9963POPC   C1A63039  10.516   9.779   6.453
 9963POPC   D2A63040  10.544   9.787   6.753
 9963POPC   C3A63041  10.557   9.735   7.053
 9963POPC   C4A63042  10.520   9.786   7.353
 9963POPC   C1B63043  10.777   9.845   6.453
 9963POPC   C2B63044  10.723   9.878   6.753
 9963POPC   C3B63045  10.701   9.894   7.053
 9963POPC   C4B63046  10.726   9.899   7.353
 9964POPC   NC363047  29.915  12.120   5.553
 9964POPC   PO463048  29.952  12.084   5.853
 9964POPC   GL163049  29.886  12.068   6.153
 9964POPC   GL263050  30.002  11.999   6.153
 9964POPC   C1A63051  29.969  12.093   6.453
 9964POPC   D2A63052  29.961  12.065   6.753
 9964POPC   C3A63053  29.945  12.054   7.053
 9964POPC   C4A63054  29.925  12.028   7.353
 9964POPC   C1B63055  30.069  11.858   6.453
 9964POPC   C2B63056  30.073  11.869   6.753
 9964POPC   C3B63057  30.063  11.909   7.053
 9964POPC   C4B63058  30.090  11.898   7.353
 9965POPC   NC363059  33.755  26.776   5.553
 9965POPC   PO463060  33.839  26.771   5.853
 9965POPC   GL163061  33.819  26.770   6.153
 9965POPC   GL263062  33.806  26.910   6.153
 9965POPC   C1A63063  33.758  26.831   6.453
 9965POPC   D2A63064  33.769  26.779   6.753
 9965POPC   C3A63065  33.793  26.844   7.053
 9965POPC   C4A63066  33.760  26.790   7.353
 9965POPC   C1B63067  33.676  27.016   6.453
 9965POPC   C2B63068  33.750  27.072   6.753
 9965POPC   C3B63069  33.691  27.046   7.053
 9965POPC   C4B63070  33.710  27.077   7.353
 9966POPC   NC363071  33.059  26.053   5.553
 9966POPC   PO463072  33.068  26.054   5.853
 9966POPC   GL163073  33.015  26.004   6.153
 9966POPC   GL263074  32.903  26.112   6.153
 9966POPC   C1A63075  33.005  26.091   6.453
 9966POPC   D2A63076  33.010  26.015   6.753
 9966POPC   C3A63077  32.989  26.002   7.053
 9966POPC   C4A63078  33.042  26.013   7.353
 9966POPC   C1B63079  32.830  26.205   6.453
 9966POPC   C2B63080  32.879  26.248   6.753
 9966POPC   C3B63081  32.877  26.283   7.053
 9966POPC   C4B63082  32.838  26.291   7.353
 9967POPC   NC363083  28.411   0.465   5.553
 9967POPC   PO463084  28.412   0.397   5.853
 9967POPC   GL163085  28.406   0.465   6.153
 9967POPC   GL263086  28.444   0.345   6.153
 9967POPC   C1A63087  28.373   0.444   6.453
 9967POPC   D2A63088  28.354   0.480   6.753
 9967POPC   C3A63089  28.358   0.473   7.053
 9967POPC   C4A63090  28.407   0.414   7.353
 9967POPC   C1B63091  28.568   0.343   6.453
 9967POPC   C2B63092  28.550   0.316   6.753
 9967POPC   C3B63093  28.612   0.328   7.053
 9967POPC   C4B63094  28.560   0.373   7.353
 9968POPC   NC363095  34.590  21.393   5.553
 9968POPC   PO463096  34.582  21.434   5.853
 9968POPC   GL163097  34.604  21.390   6.153
 9968POPC   GL263098  34.648  21.498   6.153
 9968POPC   C1A63099  34.537  21.360   6.453
 9968POPC   D2A63100  34.563  21.435   6.753
 9968POPC   C3A63101  34.567  21.337   7.053
 9968POPC   C4A63102  34.618  21.433   7.353
 9968POPC   C1B63103  34.629  21.651   6.453
 9968POPC   C2B63104  34.699  21.655   6.753
 9968POPC   C3B63105  34.686  21.594   7.053
 9968POPC   C4B63106  34.703  21.649   7.353
 9969POPC   NC363107  19.049  33.064   5.553
 9969POPC   PO463108  19.031  32.988   5.853
 9969POPC   GL163109  19.103  33.010   6.153
 9969POPC   GL263110  19.152  32.964   6.153
 9969POPC   C1A63111  19.074  33.042   6.453
 9969POPC   D2A63112  19.020  33.073   6.753
 9969POPC   C3A63113  19.037  33.058   7.053
 9969POPC   C4A63114  19.009  33.058   7.353
 9969POPC   C1B63115  19.342  32.944   6.453
 9969POPC   C2B63116  19.346  32.992   6.753
 9969POPC   C3B63117  19.310  32.961   7.053
 9969POPC   C4B63118  19.268  33.007   7.353
 9970POPC   NC363119  37.653   0.485   5.553
 9970POPC   PO463120  37.669   0.429   5.853
 9970POPC   GL163121  37.720   0.438   6.153
 9970POPC   GL263122  37.626   0.545   6.153
 9970POPC   C1A63123  37.635   0.442   6.453
 9970POPC   D2A63124  37.722   0.476   6.753
 9970POPC   C3A63125  37.639   0.482   7.053
 9970POPC   C4A63126  37.693   0.449   7.353
 9970POPC   C1B63127  37.579   0.695   6.453
 9970POPC   C2B63128  37.601   0.635   6.753
 9970POPC   C3B63129  37.601   0.711   7.053
 9970POPC   C4B63130  37.599   0.689   7.353
 9971POPC   NC363131  36.870  36.177   5.553
 9971POPC   PO463132  36.878  36.092   5.853
 9971POPC   GL163133  36.871  36.130   6.153
 9971POPC   GL263134  36.981  36.114   6.153
 9971POPC   C1A63135  36.858  36.113   6.453
 9971POPC   D2A63136  36.936  36.138   6.753
 9971POPC   C3A63137  36.870  36.141   7.053
 9971POPC   C4A63138  36.880  36.147   7.353
 9971POPC   C1B63139  37.118  36.065   6.453
 9971POPC   C2B63140  37.192  36.048   6.753
 9971POPC   C3B63141  37.102  36.091   7.053
 9971POPC   C4B63142  37.124  36.132   7.353
 9972POPC   NC363143  14.422   7.401   5.553
 9972POPC   PO463144  14.422   7.385   5.853
 9972POPC   GL163145  14.433   7.384   6.153
 9972POPC   GL263146  14.559   7.336   6.153
 9972POPC   C1A63147  14.443   7.440   6.453
 9972POPC   D2A63148  14.366   7.417   6.753
 9972POPC   C3A63149  14.393   7.381   7.053
 9972POPC   C4A63150  14.367   7.460   7.353
 9972POPC   C1B63151  14.639   7.292   6.453
 9972POPC   C2B63152  14.680   7.353   6.753
 9972POPC   C3B63153  14.632   7.344   7.053
 9972POPC   C4B63154  14.628   7.349   7.353
 9973POPC   NC363155  39.990  29.895   5.553
 9973POPC   PO463156  40.017  29.887   5.853
 9973POPC   GL163157  40.014  29.932   6.153
 9973POPC   GL263158  40.031  30.039   6.153
 9973POPC   C1A63159  39.971  29.967   6.453
 9973POPC   D2A63160  39.972  29.872   6.753
 9973POPC   C3A63161  39.974  29.962   7.053
 9973POPC   C4A63162  40.051  29.877   7.353
 9973POPC   C1B63163  40.152  30.107   6.453
 9973POPC   C2B63164  40.147  30.152   6.753
 9973POPC   C3B63165  40.084  30.156   7.053
 9973POPC   C4B63166  40.102  30.161   7.353
 9974POPC   NC363167   9.791  43.130   5.553
 9974POPC   PO463168   9.707  43.126   5.853
 9974POPC   GL163169   9.731  43.083   6.153
 9974POPC   GL263170   9.792  43.213   6.153
 9974POPC   C1A63171   9.717  43.160   6.453
 9974POPC   D2A63172   9.796  43.113   6.753
 9974POPC   C3A63173   9.710  43.113   7.053
 9974POPC   C4A63174   9.725  43.142   7.353
 9974POPC   C1B63175   9.940  43.276   6.453
 9974POPC   C2B63176   9.876  43.295   6.753
 9974POPC   C3B63177   9.878  43.293   7.053
 9974POPC   C4B63178   9.908  43.245   7.353
 9975POPC   NC363179  38.491  23.685   5.553
 9975POPC   PO463180  38.413  23.758   5.853
 9975POPC   GL163181  38.447  23.748   6.153
 9975POPC   GL263182  38.552  23.734   6.153
 9975POPC   C1A63183  38.462  23.723   6.453
 9975POPC   D2A63184  38.443  23.710   6.753
 9975POPC   C3A63185  38.484  23.729   7.053
 9975POPC   C4A63186  38.489  23.762   7.353
 9975POPC   C1B63187  38.656  23.859   6.453
 9975POPC   C2B63188  38.698  23.815   6.753
 9975POPC   C3B63189  38.727  23.847   7.053
 9975POPC   C4B63190  38.675  23.868   7.353
 9976POPC   NC363191  12.056  14.423   5.553
 9976POPC   PO463192  12.066  14.366   5.853
 9976POPC   GL163193  12.076  14.448   6.153
 9976POPC   GL263194  12.165  14.358   6.153
 9976POPC   C1A63195  12.037  14.388   6.453
 9976POPC   D2A63196  12.083  14.400   6.753
 9976POPC   C3A63197  12.108  14.424   7.053
 9976POPC   C4A63198  12.122  14.445   7.353
 9976POPC   C1B63199  12.313  14.400   6.453
 9976POPC   C2B63200  12.310  14.411   6.753
 9976POPC   C3B63201  12.285  14.393   7.053
 9976POPC   C4B63202  12.361  14.425   7.353
 9977POPC   NC363203  15.158  42.301   5.553
 9977POPC   PO463204  15.170  42.361   5.853
 9977POPC   GL163205  15.160  42.381   6.153
 9977POPC   GL263206  15.141  42.464   6.153
 9977POPC   C1A63207  15.212  42.351   6.453
 9977POPC   D2A63208  15.198  42.355   6.753
 9977POPC   C3A63209  15.222  42.377   7.053
 9977POPC   C4A63210  15.169  42.384   7.353
 9977POPC   C1B63211  15.048  42.527   6.453
 9977POPC   C2B63212  15.030  42.521   6.753
 9977POPC   C3B63213  15.018  42.511   7.053
 9977POPC   C4B63214  15.097  42.576   7.353
 9978POPC   NC363215  16.741  30.699   5.553
 9978POPC   PO463216  16.720  30.726   5.853
 9978POPC   GL163217  16.702  30.693   6.153
 9978POPC   GL263218  16.636  30.791   6.153
 9978POPC   C1A63219  16.698  30.674   6.453
 9978POPC   D2A63220  16.751  30.700   6.753
 9978POPC   C3A63221  16.702  30.676   7.053
 9978POPC   C4A63222  16.712  30.731   7.353
 9978POPC   C1B63223  16.514  30.816   6.453
 9978POPC   C2B63224  16.518  30.851   6.753
 9978POPC   C3B63225  16.528  30.838   7.053
 9978POPC   C4B63226  16.544  30.866   7.353
 9979POPC   NC363227  34.621  15.202   5.553
 9979POPC   PO463228  34.561  15.191   5.853
 9979POPC   GL163229  34.584  15.183   6.153
 9979POPC   GL263230  34.606  15.041   6.153
 9979POPC   C1A63231  34.613  15.202   6.453
 9979POPC   D2A63232  34.575  15.195   6.753
 9979POPC   C3A63233  34.565  15.175   7.053
 9979POPC   C4A63234  34.556  15.229   7.353
 9979POPC   C1B63235  34.675  14.916   6.453
 9979POPC   C2B63236  34.728  14.942   6.753
 9979POPC   C3B63237  34.744  14.998   7.053
 9979POPC   C4B63238  34.714  14.955   7.353
 9980POPC   NC363239  26.799  26.079   5.553
 9980POPC   PO463240  26.791  26.080   5.853
 9980POPC   GL163241  26.822  26.089   6.153
 9980POPC   GL263242  26.985  26.043   6.153
 9980POPC   C1A63243  26.820  26.018   6.453
 9980POPC   D2A63244  26.770  26.053   6.753
 9980POPC   C3A63245  26.786  26.000   7.053
 9980POPC   C4A63246  26.806  26.041   7.353
 9980POPC   C1B63247  27.037  26.026   6.453
 9980POPC   C2B63248  27.109  26.117   6.753
 9980POPC   C3B63249  27.054  26.029   7.053
 9980POPC   C4B63250  27.090  26.048   7.353
 9981POPC   NC363251  44.668  14.433   5.553
 9981POPC   PO463252  44.661  14.371   5.853
 9981POPC   GL163253  44.705  14.371   6.153
 9981POPC   GL263254  44.566  14.415   6.153
 9981POPC   C1A63255  44.656  14.425   6.453
 9981POPC   D2A63256  44.705  14.408   6.753
 9981POPC   C3A63257  44.634  14.390   7.053
 9981POPC   C4A63258  44.687  14.429   7.353
 9981POPC   C1B63259  44.431  14.488   6.453
 9981POPC   C2B63260  44.431  14.517   6.753
 9981POPC   C3B63261  44.483  14.537   7.053
 9981POPC   C4B63262  44.397  14.520   7.353
 9982POPC   NC363263   7.377  43.877   5.553
 9982POPC   PO463264   7.438  43.851   5.853
 9982POPC   GL163265   7.403  43.893   6.153
 9982POPC   GL263266   7.589  43.907   6.153
 9982POPC   C1A63267   7.454  43.919   6.453
 9982POPC   D2A63268   7.424  43.928   6.753
 9982POPC   C3A63269   7.445  43.921   7.053
 9982POPC   C4A63270   7.431  43.878   7.353
 9982POPC   C1B63271   7.641  43.892   6.453
 9982POPC   C2B63272   7.653  43.924   6.753
 9982POPC   C3B63273   7.653  43.942   7.053
 9982POPC   C4B63274   7.652  43.914   7.353
 9983POPC   NC363275  18.239  10.564   5.553
 9983POPC   PO463276  18.266  10.489   5.853
 9983POPC   GL163277  18.300  10.478   6.153
 9983POPC   GL263278  18.423  10.586   6.153
 9983POPC   C1A63279  18.267  10.487   6.453
 9983POPC   D2A63280  18.288  10.502   6.753
 9983POPC   C3A63281  18.297  10.564   7.053
 9983POPC   C4A63282  18.239  10.511   7.353
 9983POPC   C1B63283  18.502  10.726   6.453
 9983POPC   C2B63284  18.462  10.735   6.753
 9983POPC   C3B63285  18.494  10.732   7.053
 9983POPC   C4B63286  18.471  10.715   7.353
 9984POPC   NC363287  32.272   8.943   5.553
 9984POPC   PO463288  32.236   8.989   5.853
 9984POPC   GL163289  32.234   8.986   6.153
 9984POPC   GL263290  32.122   8.906   6.153
 9984POPC   C1A63291  32.283   8.995   6.453
 9984POPC   D2A63292  32.280   8.949   6.753
 9984POPC   C3A63293  32.264   8.936   7.053
 9984POPC   C4A63294  32.251   8.939   7.353
 9984POPC   C1B63295  32.067   8.919   6.453
 9984POPC   C2B63296  32.062   8.883   6.753
 9984POPC   C3B63297  32.070   8.882   7.053
 9984POPC   C4B63298  32.051   8.840   7.353
 9985POPC   NC363299  10.514  19.102   5.553
 9985POPC   PO463300  10.506  19.031   5.853
 9985POPC   GL163301  10.519  19.041   6.153
 9985POPC   GL263302  10.427  19.051   6.153
 9985POPC   C1A63303  10.534  19.047   6.453
 9985POPC   D2A63304  10.566  19.050   6.753
 9985POPC   C3A63305  10.541  19.077   7.053
 9985POPC   C4A63306  10.533  19.037   7.353
 9985POPC   C1B63307  10.288  19.042   6.453
 9985POPC   C2B63308  10.256  18.948   6.753
 9985POPC   C3B63309  10.284  19.037   7.053
 9985POPC   C4B63310  10.252  19.010   7.353
 9986POPC   NC363311   5.131   9.755   5.553
 9986POPC   PO463312   5.060   9.777   5.853
 9986POPC   GL163313   5.081   9.739   6.153
 9986POPC   GL263314   5.115   9.840   6.153
 9986POPC   C1A63315   5.134   9.723   6.453
 9986POPC   D2A63316   5.123   9.737   6.753
 9986POPC   C3A63317   5.095   9.780   7.053
 9986POPC   C4A63318   5.074   9.713   7.353
 9986POPC   C1B63319   5.177   9.955   6.453
 9986POPC   C2B63320   5.148   9.990   6.753
 9986POPC   C3B63321   5.138   9.970   7.053
 9986POPC   C4B63322   5.174  10.029   7.353
 9987POPC   NC363323  20.632  15.201   5.553
 9987POPC   PO463324  20.645  15.227   5.853
 9987POPC   GL163325  20.638  15.177   6.153
 9987POPC   GL263326  20.585  15.057   6.153
 9987POPC   C1A63327  20.605  15.163   6.453
 9987POPC   D2A63328  20.581  15.139   6.753
 9987POPC   C3A63329  20.573  15.159   7.053
 9987POPC   C4A63330  20.565  15.142   7.353
 9987POPC   C1B63331  20.674  14.895   6.453
 9987POPC   C2B63332  20.631  14.975   6.753
 9987POPC   C3B63333  20.604  14.960   7.053
 9987POPC   C4B63334  20.663  14.940   7.353
 9988POPC   NC363335   1.984  16.769   5.553
 9988POPC   PO463336   1.986  16.704   5.853
 9988POPC   GL163337   2.016  16.717   6.153
 9988POPC   GL263338   1.958  16.626   6.153
 9988POPC   C1A63339   2.009  16.690   6.453
 9988POPC   D2A63340   2.010  16.699   6.753
 9988POPC   C3A63341   1.975  16.691   7.053
 9988POPC   C4A63342   1.990  16.774   7.353
 9988POPC   C1B63343   1.930  16.474   6.453
 9988POPC   C2B63344   1.893  16.474   6.753
 9988POPC   C3B63345   1.932  16.483   7.053
 9988POPC   C4B63346   1.873  16.492   7.353
 9989POPC   NC363347  22.208  43.879   5.553
 9989POPC   PO463348  22.116  43.890   5.853
 9989POPC   GL163349  22.158  43.854   6.153
 9989POPC   GL263350  22.279  43.894   6.153
 9989POPC   C1A63351  22.172  43.902   6.453
 9989POPC   D2A63352  22.148  43.872   6.753
 9989POPC   C3A63353  22.191  43.865   7.053
 9989POPC   C4A63354  22.162  43.911   7.353
 9989POPC   C1B63355  22.397  43.806   6.453
 9989POPC   C2B63356  22.380  43.839   6.753
 9989POPC   C3B63357  22.420  43.804   7.053
 9989POPC   C4B63358  22.363  43.828   7.353
 9990POPC   NC363359  32.986  21.435   5.553
 9990POPC   PO463360  33.049  21.422   5.853
 9990POPC   GL163361  32.974  21.372   6.153
 9990POPC   GL263362  33.012  21.275   6.153
 9990POPC   C1A63363  33.010  21.427   6.453
 9990POPC   D2A63364  33.054  21.418   6.753
 9990POPC   C3A63365  33.000  21.390   7.053
 9990POPC   C4A63366  33.059  21.378   7.353
 9990POPC   C1B63367  32.881  21.130   6.453
 9990POPC   C2B63368  32.932  21.152   6.753
 9990POPC   C3B63369  32.892  21.149   7.053
 9990POPC   C4B63370  32.916  21.134   7.353
 9991POPC   NC363371  35.372  40.020   5.553
 9991POPC   PO463372  35.323  40.007   5.853
 9991POPC   GL163373  35.348  40.046   6.153
 9991POPC   GL263374  35.225  40.075   6.153
 9991POPC   C1A63375  35.324  40.031   6.453
 9991POPC   D2A63376  35.380  40.017   6.753
 9991POPC   C3A63377  35.384  40.014   7.053
 9991POPC   C4A63378  35.401  40.007   7.353
 9991POPC   C1B63379  35.128  40.179   6.453
 9991POPC   C2B63380  35.170  40.142   6.753
 9991POPC   C3B63381  35.116  40.157   7.053
 9991POPC   C4B63382  35.151  40.181   7.353
 9992POPC   NC363383  11.294  26.848   5.553
 9992POPC   PO463384  11.297  26.775   5.853
 9992POPC   GL163385  11.349  26.835   6.153
 9992POPC   GL263386  11.215  26.834   6.153
 9992POPC   C1A63387  11.270  26.791   6.453
 9992POPC   D2A63388  11.274  26.769   6.753
 9992POPC   C3A63389  11.341  26.862   7.053
 9992POPC   C4A63390  11.313  26.804   7.353
 9992POPC   C1B63391  11.028  26.811   6.453
 9992POPC   C2B63392  11.026  26.863   6.753
 9992POPC   C3B63393  11.062  26.849   7.053
 9992POPC   C4B63394  11.100  26.861   7.353
 9993POPC   NC363395  34.535  29.188   5.553
 9993POPC   PO463396  34.533  29.185   5.853
 9993POPC   GL163397  34.544  29.180   6.153
 9993POPC   GL263398  34.601  29.265   6.153
 9993POPC   C1A63399  34.539  29.153   6.453
 9993POPC   D2A63400  34.545  29.182   6.753
 9993POPC   C3A63401  34.536  29.113   7.053
 9993POPC   C4A63402  34.526  29.120   7.353
 9993POPC   C1B63403  34.575  29.393   6.453
 9993POPC   C2B63404  34.559  29.389   6.753
 9993POPC   C3B63405  34.509  29.349   7.053
 9993POPC   C4B63406  34.559  29.370   7.353
 9994POPC   NC363407  12.108  15.991   5.553
 9994POPC   PO463408  12.084  15.993   5.853
 9994POPC   GL163409  12.051  15.980   6.153
 9994POPC   GL263410  12.114  16.062   6.153
 9994POPC   C1A63411  12.083  15.915   6.453
 9994POPC   D2A63412  12.076  15.992   6.753
 9994POPC   C3A63413  12.083  15.979   7.053
 9994POPC   C4A63414  12.111  15.924   7.353
 9994POPC   C1B63415  12.240  16.172   6.453
 9994POPC   C2B63416  12.257  16.156   6.753
 9994POPC   C3B63417  12.227  16.138   7.053
 9994POPC   C4B63418  12.218  16.206   7.353
 9995POPC   NC363419  36.916  27.575   5.553
 9995POPC   PO463420  36.903  27.617   5.853
 9995POPC   GL163421  36.866  27.561   6.153
 9995POPC   GL263422  36.841  27.733   6.153
 9995POPC   C1A63423  36.863  27.586   6.453
 9995POPC   D2A63424  36.890  27.575   6.753
 9995POPC   C3A63425  36.892  27.589   7.053
 9995POPC   C4A63426  36.917  27.612   7.353
 9995POPC   C1B63427  36.823  27.867   6.453
 9995POPC   C2B63428  36.802  27.825   6.753
 9995POPC   C3B63429  36.757  27.859   7.053
 9995POPC   C4B63430  36.795  27.854   7.353
 9996POPC   NC363431  35.340  30.661   5.553
 9996POPC   PO463432  35.366  30.679   5.853
 9996POPC   GL163433  35.372  30.668   6.153
 9996POPC   GL263434  35.237  30.698   6.153
 9996POPC   C1A63435  35.399  30.726   6.453
 9996POPC   D2A63436  35.365  30.668   6.753
 9996POPC   C3A63437  35.319  30.647   7.053
 9996POPC   C4A63438  35.325  30.710   7.353
 9996POPC   C1B63439  35.133  30.619   6.453
 9996POPC   C2B63440  35.065  30.683   6.753
 9996POPC   C3B63441  35.132  30.664   7.053
 9996POPC   C4B63442  35.078  30.626   7.353
 9997POPC   NC363443  40.026  38.424   5.553
 9997POPC   PO463444  40.044  38.480   5.853
 9997POPC   GL163445  39.985  38.464   6.153
 9997POPC   GL263446  39.931  38.466   6.153
 9997POPC   C1A63447  40.003  38.455   6.453
 9997POPC   D2A63448  39.978  38.409   6.753
 9997POPC   C3A63449  39.957  38.452   7.053
 9997POPC   C4A63450  39.990  38.462   7.353
 9997POPC   C1B63451  39.751  38.514   6.453
 9997POPC   C2B63452  39.753  38.474   6.753
 9997POPC   C3B63453  39.804  38.460   7.053
 9997POPC   C4B63454  39.760  38.440   7.353
 9998POPC   NC363455  29.181  29.956   5.553
 9998POPC   PO463456  29.120  29.915   5.853
 9998POPC   GL163457  29.170  29.954   6.153
 9998POPC   GL263458  29.037  29.956   6.153
 9998POPC   C1A63459  29.191  29.918   6.453
 9998POPC   D2A63460  29.194  29.889   6.753
 9998POPC   C3A63461  29.111  29.888   7.053
 9998POPC   C4A63462  29.127  29.924   7.353
 9998POPC   C1B63463  28.935  30.029   6.453
 9998POPC   C2B63464  28.949  29.994   6.753
 9998POPC   C3B63465  28.923  29.986   7.053
 9998POPC   C4B63466  28.895  30.048   7.353
 9999POPC   NC363467   7.392  40.822   5.553
 9999POPC   PO463468   7.466  40.832   5.853
 9999POPC   GL163469   7.395  40.753   6.153
 9999POPC   GL263470   7.538  40.682   6.153
 9999POPC   C1A63471   7.397  40.737   6.453
 9999POPC   D2A63472   7.405  40.750   6.753
 9999POPC   C3A63473   7.372  40.817   7.053
 9999POPC   C4A63474   7.396  40.823   7.353
 9999POPC   C1B63475   7.600  40.627   6.453
 9999POPC   C2B63476   7.628  40.602   6.753
 9999POPC   C3B63477   7.662  40.679   7.053
 9999POPC   C4B63478   7.616  40.604   7.353
10000POPC   NC363479  12.101  10.509   5.553
10000POPC   PO463480  12.053  10.498   5.853
10000POPC   GL163481  12.095  10.572   6.153
10000POPC   GL263482  12.156  10.451   6.153
10000POPC   C1A63483  12.115  10.475   6.453
10000POPC   D2A63484  12.086  10.558   6.753
10000POPC   C3A63485  12.105  10.538   7.053
10000POPC   C4A63486  12.053  10.475   7.353
10000POPC   C1B63487  12.214  10.280   6.453
10000POPC   C2B63488  12.246  10.308   6.753
10000POPC   C3B63489  12.229  10.351   7.053
10000POPC   C4B63490  12.187  10.327   7.353
10001POPC   NC363491  25.240  39.270   5.553
10001POPC   PO463492  25.242  39.253   5.853
10001POPC   GL163493  25.260  39.191   6.153
10001POPC   GL263494  25.302  39.395   6.153
10001POPC   C1A63495  25.264  39.235   6.453
10001POPC   D2A63496  25.221  39.189   6.753
10001POPC   C3A63497  25.312  39.275   7.053
10001POPC   C4A63498  25.249  39.280   7.353
10001POPC   C1B63499  25.382  39.455   6.453
10001POPC   C2B63500  25.371  39.447   6.753
10001POPC   C3B63501  25.369  39.475   7.053
10001POPC   C4B63502  25.381  39.454   7.353
10002POPC   NC363503   9.715  20.571   5.553
10002POPC   PO463504   9.708  20.634   5.853
10002POPC   GL163505   9.765  20.609   6.153
10002POPC   GL263506   9.710  20.733   6.153
10002POPC   C1A63507   9.756  20.610   6.453
10002POPC   D2A63508   9.733  20.627   6.753
10002POPC   C3A63509   9.733  20.565   7.053
10002POPC   C4A63510   9.743  20.641   7.353
10002POPC   C1B63511   9.687  20.809   6.453
10002POPC   C2B63512   9.690  20.810   6.753
10002POPC   C3B63513   9.677  20.850   7.053
10002POPC   C4B63514   9.716  20.843   7.353
10003POPC   NC363515  36.872   1.165   5.553
10003POPC   PO463516  36.888   1.235   5.853
10003POPC   GL163517  36.889   1.180   6.153
10003POPC   GL263518  36.859   1.050   6.153
10003POPC   C1A63519  36.877   1.170   6.453
10003POPC   D2A63520  36.923   1.177   6.753
10003POPC   C3A63521  36.939   1.187   7.053
10003POPC   C4A63522  36.873   1.254   7.353
10003POPC   C1B63523  36.856   0.980   6.453
10003POPC   C2B63524  36.901   1.008   6.753
10003POPC   C3B63525  36.915   0.995   7.053
10003POPC   C4B63526  36.844   0.925   7.353
10004POPC   NC363527   2.039  11.257   5.553
10004POPC   PO463528   2.021  11.312   5.853
10004POPC   GL163529   1.990  11.301   6.153
10004POPC   GL263530   1.953  11.421   6.153
10004POPC   C1A63531   1.948  11.253   6.453
10004POPC   D2A63532   2.031  11.349   6.753
10004POPC   C3A63533   2.002  11.260   7.053
10004POPC   C4A63534   1.957  11.255   7.353
10004POPC   C1B63535   1.873  11.543   6.453
10004POPC   C2B63536   1.867  11.529   6.753
10004POPC   C3B63537   1.811  11.473   7.053
10004POPC   C4B63538   1.874  11.476   7.353
10005POPC   NC363539   7.388  21.407   5.553
10005POPC   PO463540   7.464  21.351   5.853
10005POPC   GL163541   7.416  21.346   6.153
10005POPC   GL263542   7.255  21.308   6.153
10005POPC   C1A63543   7.396  21.352   6.453
10005POPC   D2A63544   7.460  21.394   6.753
10005POPC   C3A63545   7.404  21.339   7.053
10005POPC   C4A63546   7.458  21.423   7.353
10005POPC   C1B63547   7.149  21.286   6.453
10005POPC   C2B63548   7.182  21.260   6.753
10005POPC   C3B63549   7.229  21.273   7.053
10005POPC   C4B63550   7.230  21.313   7.353
10006POPC   NC363551  25.304  13.594   5.553
10006POPC   PO463552  25.236  13.584   5.853
10006POPC   GL163553  25.314  13.614   6.153
10006POPC   GL263554  25.187  13.587   6.153
10006POPC   C1A63555  25.306  13.629   6.453
10006POPC   D2A63556  25.225  13.614   6.753
10006POPC   C3A63557  25.290  13.672   7.053
10006POPC   C4A63558  25.218  13.659   7.353
10006POPC   C1B63559  25.082  13.457   6.453
10006POPC   C2B63560  25.070  13.405   6.753
10006POPC   C3B63561  25.118  13.413   7.053
10006POPC   C4B63562  25.124  13.408   7.353
10007POPC   NC363563   3.509  39.248   5.553
10007POPC   PO463564   3.575  39.191   5.853
10007POPC   GL163565   3.505  39.210   6.153
10007POPC   GL263566   3.696  39.139   6.153
10007POPC   C1A63567   3.534  39.236   6.453
10007POPC   D2A63568   3.556  39.248   6.753
10007POPC   C3A63569   3.557  39.252   7.053
10007POPC   C4A63570   3.553  39.210   7.353
10007POPC   C1B63571   3.752  39.162   6.453
10007POPC   C2B63572   3.746  39.085   6.753
10007POPC   C3B63573   3.745  39.165   7.053
10007POPC   C4B63574   3.725  39.125   7.353
10008POPC   NC363575   1.202  17.472   5.553
10008POPC   PO463576   1.206  17.523   5.853
10008POPC   GL163577   1.208  17.535   6.153
10008POPC   GL263578   1.042  17.461   6.153
10008POPC   C1A63579   1.232  17.494   6.453
10008POPC   D2A63580   1.259  17.464   6.753
10008POPC   C3A63581   1.253  17.496   7.053
10008POPC   C4A63582   1.205  17.493   7.353
10008POPC   C1B63583   0.972  17.445   6.453
10008POPC   C2B63584   0.989  17.418   6.753
10008POPC   C3B63585   1.009  17.487   7.053
10008POPC   C4B63586   0.967  17.423   7.353
10009POPC   NC363587  39.247   4.363   5.553
10009POPC   PO463588  39.241   4.326   5.853
10009POPC   GL163589  39.214   4.335   6.153
10009POPC   GL263590  39.112   4.413   6.153
10009POPC   C1A63591  39.246   4.359   6.453
10009POPC   D2A63592  39.192   4.284   6.753
10009POPC   C3A63593  39.261   4.361   7.053
10009POPC   C4A63594  39.206   4.290   7.353
10009POPC   C1B63595  38.977   4.466   6.453
10009POPC   C2B63596  39.049   4.463   6.753
10009POPC   C3B63597  39.008   4.396   7.053
10009POPC   C4B63598  39.032   4.463   7.353
10010POPC   NC363599  37.646  40.804   5.553
10010POPC   PO463600  37.633  40.823   5.853
10010POPC   GL163601  37.661  40.812   6.153
10010POPC   GL263602  37.784  40.912   6.153
10010POPC   C1A63603  37.703  40.735   6.453
10010POPC   D2A63604  37.658  40.757   6.753
10010POPC   C3A63605  37.645  40.766   7.053
10010POPC   C4A63606  37.662  40.749   7.353
10010POPC   C1B63607  37.837  40.985   6.453
10010POPC   C2B63608  37.878  40.949   6.753
10010POPC   C3B63609  37.865  40.948   7.053
10010POPC   C4B63610  37.914  40.953   7.353
10011POPC   NC363611  12.854  15.911   5.553
10011POPC   PO463612  12.827  15.908   5.853
10011POPC   GL163613  12.876  15.927   6.153
10011POPC   GL263614  12.720  16.001   6.153
10011POPC   C1A63615  12.881  15.989   6.453
10011POPC   D2A63616  12.849  15.944   6.753
10011POPC   C3A63617  12.878  15.944   7.053
10011POPC   C4A63618  12.803  15.986   7.353
10011POPC   C1B63619  12.660  16.045   6.453
10011POPC   C2B63620  12.595  16.057   6.753
10011POPC   C3B63621  12.687  16.134   7.053
10011POPC   C4B63622  12.646  16.064   7.353
10012POPC   NC363623  40.765  35.368   5.553
10012POPC   PO463624  40.734  35.401   5.853
10012POPC   GL163625  40.740  35.379   6.153
10012POPC   GL263626  40.700  35.455   6.153
10012POPC   C1A63627  40.743  35.335   6.453
10012POPC   D2A63628  40.746  35.362   6.753
10012POPC   C3A63629  40.735  35.389   7.053
10012POPC   C4A63630  40.754  35.323   7.353
10012POPC   C1B63631  40.581  35.427   6.453
10012POPC   C2B63632  40.601  35.476   6.753
10012POPC   C3B63633  40.526  35.429   7.053
10012POPC   C4B63634  40.552  35.423   7.353
10013POPC   NC363635   4.286  32.205   5.553
10013POPC   PO463636   4.359  32.232   5.853
10013POPC   GL163637   4.274  32.291   6.153
10013POPC   GL263638   4.196  32.344   6.153
10013POPC   C1A63639   4.277  32.223   6.453
10013POPC   D2A63640   4.294  32.257   6.753
10013POPC   C3A63641   4.326  32.270   7.053
10013POPC   C4A63642   4.322  32.274   7.353
10013POPC   C1B63643   4.041  32.368   6.453
10013POPC   C2B63644   4.058  32.384   6.753
10013POPC   C3B63645   4.045  32.357   7.053
10013POPC   C4B63646   4.119  32.358   7.353
10014POPC   NC363647   7.454   6.600   5.553
10014POPC   PO463648   7.422   6.625   5.853
10014POPC   GL163649   7.411   6.604   6.153
10014POPC   GL263650   7.521   6.734   6.153
10014POPC   C1A63651   7.371   6.598   6.453
10014POPC   D2A63652   7.462   6.639   6.753
10014POPC   C3A63653   7.457   6.622   7.053
10014POPC   C4A63654   7.418   6.677   7.353
10014POPC   C1B63655   7.541   6.834   6.453
10014POPC   C2B63656   7.562   6.833   6.753
10014POPC   C3B63657   7.525   6.892   7.053
10014POPC   C4B63658   7.596   6.842   7.353
10015POPC   NC363659  40.026   8.160   5.553
10015POPC   PO463660  40.056   8.173   5.853
10015POPC   GL163661  40.004   8.200   6.153
10015POPC   GL263662  40.010   8.075   6.153
10015POPC   C1A63663  39.991   8.171   6.453
10015POPC   D2A63664  40.019   8.226   6.753
10015POPC   C3A63665  40.055   8.227   7.053
10015POPC   C4A63666  39.961   8.149   7.353
10015POPC   C1B63667  40.007   7.980   6.453
10015POPC   C2B63668  39.986   7.958   6.753
10015POPC   C3B63669  39.932   7.916   7.053
10015POPC   C4B63670  40.012   7.967   7.353
10016POPC   NC363671  43.897  33.006   5.553
10016POPC   PO463672  43.911  33.029   5.853
10016POPC   GL163673  43.843  32.987   6.153
10016POPC   GL263674  43.894  33.148   6.153
10016POPC   C1A63675  43.919  32.983   6.453
10016POPC   D2A63676  43.837  32.980   6.753
10016POPC   C3A63677  43.886  33.027   7.053
10016POPC   C4A63678  43.842  33.025   7.353
10016POPC   C1B63679  43.980  33.243   6.453
10016POPC   C2B63680  43.929  33.295   6.753
10016POPC   C3B63681  43.969  33.276   7.053
10016POPC   C4B63682  43.992  33.295   7.353
10017POPC   NC363683  15.909  44.702   5.553
10017POPC   PO463684  15.967  44.643   5.853
10017POPC   GL163685  15.917  44.655   6.153
10017POPC   GL263686  15.834  44.717   6.153
10017POPC   C1A63687  15.975  44.641   6.453
10017POPC   D2A63688  15.947  44.634   6.753
10017POPC   C3A63689  15.986  44.707   7.053
10017POPC   C4A63690  15.983  44.646   7.353
10017POPC   C1B63691  15.751  44.702   6.453
10017POPC   C2B63692  15.712  44.719   6.753
10017POPC   C3B63693  15.745  44.748   7.053
10017POPC   C4B63694  15.669  44.726   7.353
10018POPC   NC363695  38.458  37.682   5.553
10018POPC   PO463696  38.479  37.657   5.853
10018POPC   GL163697  38.409  37.660   6.153
10018POPC   GL263698  38.317  37.618   6.153
10018POPC   C1A63699  38.500  37.643   6.453
10018POPC   D2A63700  38.450  37.684   6.753
10018POPC   C3A63701  38.430  37.686   7.053
10018POPC   C4A63702  38.419  37.727   7.353
10018POPC   C1B63703  38.244  37.585   6.453
10018POPC   C2B63704  38.215  37.532   6.753
10018POPC   C3B63705  38.237  37.539   7.053
10018POPC   C4B63706  38.252  37.519   7.353
10019POPC   NC363707  42.339  35.313   5.553
10019POPC   PO463708  42.379  35.315   5.853
10019POPC   GL163709  42.296  35.387   6.153
10019POPC   GL263710  42.229  35.236   6.153
10019POPC   C1A63711  42.378  35.342   6.453
10019POPC   D2A63712  42.298  35.363   6.753
10019POPC   C3A63713  42.325  35.363   7.053
10019POPC   C4A63714  42.370  35.325   7.353
10019POPC   C1B63715  42.151  35.136   6.453
10019POPC   C2B63716  42.172  35.180   6.753
10019POPC   C3B63717  42.211  35.171   7.053
10019POPC   C4B63718  42.211  35.132   7.353
10020POPC   NC363719   5.086  29.170   5.553
10020POPC   PO463720   5.110  29.136   5.853
10020POPC   GL163721   5.141  29.151   6.153
10020POPC   GL263722   5.019  29.210   6.153
10020POPC   C1A63723   5.045  29.126   6.453
10020POPC   D2A63724   5.069  29.183   6.753
10020POPC   C3A63725   5.133  29.178   7.053
10020POPC   C4A63726   5.075  29.173   7.353
10020POPC   C1B63727   4.897  29.297   6.453
10020POPC   C2B63728   4.870  29.329   6.753
10020POPC   C3B63729   4.906  29.256   7.053
10020POPC   C4B63730   4.892  29.347   7.353
10021POPC   NC363731  35.382  41.544   5.553
10021POPC   PO463732  35.358  41.594   5.853
10021POPC   GL163733  35.366  41.540   6.153
10021POPC   GL263734  35.238  41.695   6.153
10021POPC   C1A63735  35.319  41.580   6.453
10021POPC   D2A63736  35.305  41.549   6.753
10021POPC   C3A63737  35.365  41.563   7.053
10021POPC   C4A63738  35.319  41.543   7.353
10021POPC   C1B63739  35.218  41.767   6.453
10021POPC   C2B63740  35.193  41.814   6.753
10021POPC   C3B63741  35.199  41.720   7.053
10021POPC   C4B63742  35.203  41.777   7.353
10022POPC   NC363743  41.536  28.378   5.553
10022POPC   PO463744  41.592  28.405   5.853
10022POPC   GL163745  41.521  28.418   6.153
10022POPC   GL263746  41.645  28.465   6.153
10022POPC   C1A63747  41.590  28.379   6.453
10022POPC   D2A63748  41.513  28.347   6.753
10022POPC   C3A63749  41.546  28.404   7.053
10022POPC   C4A63750  41.559  28.353   7.353
10022POPC   C1B63751  41.762  28.462   6.453
10022POPC   C2B63752  41.778  28.501   6.753
10022POPC   C3B63753  41.755  28.524   7.053
10022POPC   C4B63754  41.750  28.477   7.353
10023POPC   NC363755  19.060  31.498   5.553
10023POPC   PO463756  19.053  31.483   5.853
10023POPC   GL163757  19.076  31.481   6.153
10023POPC   GL263758  19.127  31.400   6.153
10023POPC   C1A63759  19.054  31.460   6.453
10023POPC   D2A63760  19.015  31.517   6.753
10023POPC   C3A63761  19.080  31.478   7.053
10023POPC   C4A63762  19.090  31.474   7.353
10023POPC   C1B63763  19.322  31.393   6.453
10023POPC   C2B63764  19.259  31.348   6.753
10023POPC   C3B63765  19.303  31.373   7.053
10023POPC   C4B63766  19.324  31.395   7.353
10024POPC   NC363767  44.670  36.925   5.553
10024POPC   PO463768  44.655  36.919   5.853
10024POPC   GL163769  44.640  36.946   6.153
10024POPC   GL263770  44.662  37.021   6.153
10024POPC   C1A63771  44.708  36.872   6.453
10024POPC   D2A63772  44.687  36.891   6.753
10024POPC   C3A63773  44.686  36.913   7.053
10024POPC   C4A63774  44.623  36.945   7.353
10024POPC   C1B63775  44.609  37.153   6.453
10024POPC   C2B63776  44.628  37.114   6.753
10024POPC   C3B63777  44.587  37.119   7.053
10024POPC   C4B63778  44.577  37.098   7.353
10025POPC   NC363779  35.374  12.865   5.553
10025POPC   PO463780  35.396  12.829   5.853
10025POPC   GL163781  35.362  12.884   6.153
10025POPC   GL263782  35.353  12.768   6.153
10025POPC   C1A63783  35.362  12.896   6.453
10025POPC   D2A63784  35.400  12.816   6.753
10025POPC   C3A63785  35.324  12.844   7.053
10025POPC   C4A63786  35.375  12.818   7.353
10025POPC   C1B63787  35.337  12.582   6.453
10025POPC   C2B63788  35.364  12.579   6.753
10025POPC   C3B63789  35.322  12.625   7.053
10025POPC   C4B63790  35.349  12.641   7.353
10026POPC   NC363791  21.379  44.649   5.553
10026POPC   PO463792  21.363  44.688   5.853
10026POPC   GL163793  21.353  44.679   6.153
10026POPC   GL263794  21.505  44.586   6.153
10026POPC   C1A63795  21.369  44.683   6.453
10026POPC   D2A63796  21.369  44.635   6.753
10026POPC   C3A63797  21.375  44.636   7.053
10026POPC   C4A63798  21.384  44.665   7.353
10026POPC   C1B63799  21.613  44.466   6.453
10026POPC   C2B63800  21.630  44.544   6.753
10026POPC   C3B63801  21.616  44.469   7.053
10026POPC   C4B63802  21.554  44.492   7.353
10027POPC   NC363803  22.112   1.971   5.553
10027POPC   PO463804  22.147   1.961   5.853
10027POPC   GL163805  22.166   2.004   6.153
10027POPC   GL263806  22.245   2.028   6.153
10027POPC   C1A63807  22.137   2.032   6.453
10027POPC   D2A63808  22.124   1.980   6.753
10027POPC   C3A63809  22.125   1.943   7.053
10027POPC   C4A63810  22.163   1.985   7.353
10027POPC   C1B63811  22.405   2.026   6.453
10027POPC   C2B63812  22.422   1.995   6.753
10027POPC   C3B63813  22.454   1.936   7.053
10027POPC   C4B63814  22.450   1.936   7.353
10028POPC   NC363815  10.519   6.612   5.553
10028POPC   PO463816  10.560   6.635   5.853
10028POPC   GL163817  10.537   6.611   6.153
10028POPC   GL263818  10.639   6.761   6.153
10028POPC   C1A63819  10.547   6.608   6.453
10028POPC   D2A63820  10.482   6.668   6.753
10028POPC   C3A63821  10.501   6.635   7.053
10028POPC   C4A63822  10.553   6.690   7.353
10028POPC   C1B63823  10.696   6.821   6.453
10028POPC   C2B63824  10.641   6.833   6.753
10028POPC   C3B63825  10.691   6.824   7.053
10028POPC   C4B63826  10.661   6.885   7.353
10029POPC   NC363827  11.339  17.509   5.553
10029POPC   PO463828  11.320  17.463   5.853
10029POPC   GL163829  11.350  17.539   6.153
10029POPC   GL263830  11.437  17.618   6.153
10029POPC   C1A63831  11.335  17.528   6.453
10029POPC   D2A63832  11.312  17.548   6.753
10029POPC   C3A63833  11.271  17.509   7.053
10029POPC   C4A63834  11.305  17.472   7.353
10029POPC   C1B63835  11.439  17.651   6.453
10029POPC   C2B63836  11.468  17.690   6.753
10029POPC   C3B63837  11.503  17.639   7.053
10029POPC   C4B63838  11.476  17.631   7.353
10030POPC   NC363839  28.338  23.729   5.553
10030POPC   PO463840  28.368  23.741   5.853
10030POPC   GL163841  28.370  23.701   6.153
10030POPC   GL263842  28.220  23.812   6.153
10030POPC   C1A63843  28.390  23.689   6.453
10030POPC   D2A63844  28.374  23.694   6.753
10030POPC   C3A63845  28.375  23.717   7.053
10030POPC   C4A63846  28.337  23.696   7.353
10030POPC   C1B63847  28.107  23.850   6.453
10030POPC   C2B63848  28.152  23.801   6.753
10030POPC   C3B63849  28.177  23.802   7.053
10030POPC   C4B63850  28.179  23.825   7.353
10031POPC   NC363851   2.768  20.659   5.553
10031POPC   PO463852   2.720  20.601   5.853
10031POPC   GL163853   2.717  20.605   6.153
10031POPC   GL263854   2.808  20.553   6.153
10031POPC   C1A63855   2.718  20.603   6.453
10031POPC   D2A63856   2.752  20.566   6.753
10031POPC   C3A63857   2.736  20.565   7.053
10031POPC   C4A63858   2.781  20.567   7.353
10031POPC   C1B63859   2.932  20.419   6.453
10031POPC   C2B63860   2.876  20.380   6.753
10031POPC   C3B63861   2.881  20.375   7.053
10031POPC   C4B63862   2.860  20.391   7.353
10032POPC   NC363863  19.076  34.601   5.553
10032POPC   PO463864  19.090  34.549   5.853
10032POPC   GL163865  19.049  34.573   6.153
10032POPC   GL263866  18.960  34.644   6.153
10032POPC   C1A63867  19.098  34.588   6.453
10032POPC   D2A63868  19.026  34.541   6.753
10032POPC   C3A63869  19.090  34.529   7.053
10032POPC   C4A63870  19.064  34.565   7.353
10032POPC   C1B63871  18.829  34.639   6.453
10032POPC   C2B63872  18.797  34.657   6.753
10032POPC   C3B63873  18.770  34.587   7.053
10032POPC   C4B63874  18.819  34.633   7.353
10033POPC   NC363875  41.509  14.401   5.553
10033POPC   PO463876  41.565  14.420   5.853
10033POPC   GL163877  41.603  14.383   6.153
10033POPC   GL263878  41.557  14.556   6.153
10033POPC   C1A63879  41.522  14.403   6.453
10033POPC   D2A63880  41.606  14.390   6.753
10033POPC   C3A63881  41.552  14.395   7.053
10033POPC   C4A63882  41.563  14.385   7.353
10033POPC   C1B63883  41.520  14.683   6.453
10033POPC   C2B63884  41.491  14.668   6.753
10033POPC   C3B63885  41.525  14.626   7.053
10033POPC   C4B63886  41.504  14.644   7.353
10034POPC   NC363887  40.030  33.813   5.553
10034POPC   PO463888  39.988  33.783   5.853
10034POPC   GL163889  40.002  33.751   6.153
10034POPC   GL263890  39.929  33.926   6.153
10034POPC   C1A63891  40.034  33.768   6.453
10034POPC   D2A63892  39.960  33.838   6.753
10034POPC   C3A63893  39.998  33.825   7.053
10034POPC   C4A63894  39.985  33.845   7.353
10034POPC   C1B63895  39.890  34.021   6.453
10034POPC   C2B63896  39.885  34.045   6.753
10034POPC   C3B63897  39.874  34.023   7.053
10034POPC   C4B63898  39.896  34.044   7.353
10035POPC   NC363899  23.750  37.640   5.553
10035POPC   PO463900  23.732  37.638   5.853
10035POPC   GL163901  23.695  37.725   6.153
10035POPC   GL263902  23.825  37.673   6.153
10035POPC   C1A63903  23.671  37.670   6.453
10035POPC   D2A63904  23.741  37.684   6.753
10035POPC   C3A63905  23.674  37.658   7.053
10035POPC   C4A63906  23.747  37.716   7.353
10035POPC   C1B63907  24.007  37.655   6.453
10035POPC   C2B63908  23.995  37.681   6.753
10035POPC   C3B63909  23.953  37.614   7.053
10035POPC   C4B63910  23.913  37.624   7.353
10036POPC   NC363911  43.096  43.091   5.553
10036POPC   PO463912  43.062  43.111   5.853
10036POPC   GL163913  43.116  43.130   6.153
10036POPC   GL263914  43.183  43.242   6.153
10036POPC   C1A63915  43.103  43.085   6.453
10036POPC   D2A63916  43.066  43.128   6.753
10036POPC   C3A63917  43.111  43.090   7.053
10036POPC   C4A63918  43.149  43.128   7.353
10036POPC   C1B63919  43.242  43.301   6.453
10036POPC   C2B63920  43.263  43.333   6.753
10036POPC   C3B63921  43.223  43.345   7.053
10036POPC   C4B63922  43.321  43.261   7.353
10037POPC   NC363923   3.510  15.179   5.553
10037POPC   PO463924   3.492  15.196   5.853
10037POPC   GL163925   3.546  15.175   6.153
10037POPC   GL263926   3.711  15.126   6.153
10037POPC   C1A63927   3.559  15.192   6.453
10037POPC   D2A63928   3.569  15.162   6.753
10037POPC   C3A63929   3.508  15.187   7.053
10037POPC   C4A63930   3.588  15.218   7.353
10037POPC   C1B63931   3.837  15.188   6.453
10037POPC   C2B63932   3.761  15.127   6.753
10037POPC   C3B63933   3.815  15.140   7.053
10037POPC   C4B63934   3.751  15.167   7.353
10038POPC   NC363935   5.100  30.711   5.553
10038POPC   PO463936   5.046  30.667   5.853
10038POPC   GL163937   5.044  30.680   6.153
10038POPC   GL263938   5.016  30.638   6.153
10038POPC   C1A63939   5.076  30.686   6.453
10038POPC   D2A63940   5.063  30.696   6.753
10038POPC   C3A63941   5.110  30.736   7.053
10038POPC   C4A63942   5.109  30.674   7.353
10038POPC   C1B63943   5.005  30.440   6.453
10038POPC   C2B63944   4.961  30.463   6.753
10038POPC   C3B63945   4.989  30.457   7.053
10038POPC   C4B63946   4.958  30.452   7.353
10039POPC   NC363947   3.582   8.237   5.553
10039POPC   PO463948   3.497   8.233   5.853
10039POPC   GL163949   3.536   8.174   6.153
10039POPC   GL263950   3.637   8.188   6.153
10039POPC   C1A63951   3.573   8.177   6.453
10039POPC   D2A63952   3.515   8.162   6.753
10039POPC   C3A63953   3.543   8.166   7.053
10039POPC   C4A63954   3.548   8.234   7.353
10039POPC   C1B63955   3.758   8.287   6.453
10039POPC   C2B63956   3.767   8.275   6.753
10039POPC   C3B63957   3.789   8.315   7.053
10039POPC   C4B63958   3.760   8.314   7.353
10040POPC   NC363959  31.489  36.915   5.553
10040POPC   PO463960  31.512  36.897   5.853
10040POPC   GL163961  31.447  36.904   6.153
10040POPC   GL263962  31.397  37.002   6.153
10040POPC   C1A63963  31.434  36.901   6.453
10040POPC   D2A63964  31.486  36.895   6.753
10040POPC   C3A63965  31.429  36.869   7.053
10040POPC   C4A63966  31.517  36.865   7.353
10040POPC   C1B63967  31.227  37.012   6.453
10040POPC   C2B63968  31.225  37.051   6.753
10040POPC   C3B63969  31.297  36.978   7.053
10040POPC   C4B63970  31.201  36.998   7.353
10041POPC   NC363971  29.160  44.657   5.553
10041POPC   PO463972  29.169  44.687   5.853
10041POPC   GL163973  29.163  44.664   6.153
10041POPC   GL263974  29.188  44.760   6.153
10041POPC   C1A63975  29.185  44.616   6.453
10041POPC   D2A63976  29.132  44.653   6.753
10041POPC   C3A63977  29.127  44.664   7.053
10041POPC   C4A63978  29.129  44.614   7.353
10041POPC   C1B63979  29.205  44.913   6.453
10041POPC   C2B63980  29.273  44.841   6.753
10041POPC   C3B63981  29.254  44.842   7.053
10041POPC   C4B63982  29.269  44.889   7.353
10042POPC   NC363983  10.510  15.220   5.553
10042POPC   PO463984  10.545  15.202   5.853
10042POPC   GL163985  10.491  15.135   6.153
10042POPC   GL263986  10.452  15.089   6.153
10042POPC   C1A63987  10.513  15.198   6.453
10042POPC   D2A63988  10.484  15.167   6.753
10042POPC   C3A63989  10.495  15.158   7.053
10042POPC   C4A63990  10.572  15.213   7.353
10042POPC   C1B63991  10.471  14.938   6.453
10042POPC   C2B63992  10.480  14.926   6.753
10042POPC   C3B63993  10.402  14.980   7.053
10042POPC   C4B63994  10.445  14.992   7.353
10043POPC   NC363995  30.737  34.530   5.553
10043POPC   PO463996  30.721  34.556   5.853
10043POPC   GL163997  30.682  34.529   6.153
10043POPC   GL263998  30.805  34.574   6.153
10043POPC   C1A63999  30.682  34.592   6.453
10043POPC   D2A64000  30.680  34.598   6.753
10043POPC   C3A64001  30.702  34.624   7.053
10043POPC   C4A64002  30.658  34.559   7.353
10043POPC   C1B64003  30.962  34.517   6.453
10043POPC   C2B64004  30.945  34.514   6.753
10043POPC   C3B64005  30.963  34.542   7.053
10043POPC   C4B64006  30.963  34.486   7.353
10044POPC   NC364007  19.815  12.032   5.553
10044POPC   PO464008  19.869  12.069   5.853
10044POPC   GL164009  19.807  12.049   6.153
10044POPC   GL264010  19.907  12.032   6.153
10044POPC   C1A64011  19.804  12.058   6.453
10044POPC   D2A64012  19.861  12.084   6.753
10044POPC   C3A64013  19.849  12.042   7.053
10044POPC   C4A64014  19.884  12.057   7.353
10044POPC   C1B64015  20.053  12.025   6.453
10044POPC   C2B64016  20.070  11.966   6.753
10044POPC   C3B64017  20.078  12.018   7.053
10044POPC   C4B64018  20.056  11.986   7.353
10045POPC   NC364019   5.905  44.653   5.553
10045POPC   PO464020   5.894  44.618   5.853
10045POPC   GL164021   5.861  44.659   6.153
10045POPC   GL264022   5.802  44.725   6.153
10045POPC   C1A64023   5.864  44.708   6.453
10045POPC   D2A64024   5.906  44.647   6.753
10045POPC   C3A64025   5.880  44.654   7.053
10045POPC   C4A64026   5.821  44.661   7.353
10045POPC   C1B64027   5.732  44.808   6.453
10045POPC   C2B64028   5.650  44.814   6.753
10045POPC   C3B64029   5.746  44.856   7.053
10045POPC   C4B64030   5.690  44.854   7.353
10046POPC   NC364031   6.620  40.010   5.553
10046POPC   PO464032   6.612  40.040   5.853
10046POPC   GL164033   6.612  40.043   6.153
10046POPC   GL264034   6.781  40.004   6.153
10046POPC   C1A64035   6.666  40.056   6.453
10046POPC   D2A64036   6.680  39.987   6.753
10046POPC   C3A64037   6.633  40.027   7.053
10046POPC   C4A64038   6.624  39.986   7.353
10046POPC   C1B64039   6.868  40.051   6.453
10046POPC   C2B64040   6.929  40.034   6.753
10046POPC   C3B64041   6.929  40.077   7.053
10046POPC   C4B64042   6.849  40.131   7.353
10047POPC   NC364043  44.696   2.809   5.553
10047POPC   PO464044  44.633   2.780   5.853
10047POPC   GL164045  44.682   2.743   6.153
10047POPC   GL264046  44.567   2.851   6.153
10047POPC   C1A64047  44.618   2.758   6.453
10047POPC   D2A64048  44.689   2.746   6.753
10047POPC   C3A64049  44.700   2.799   7.053
10047POPC   C4A64050  44.678   2.737   7.353
10047POPC   C1B64051  44.466   2.860   6.453
10047POPC   C2B64052  44.467   2.860   6.753
10047POPC   C3B64053  44.438   2.799   7.053
10047POPC   C4B64054  44.475   2.868   7.353
10048POPC   NC364055  31.495  23.720   5.553
10048POPC   PO464056  31.490  23.758   5.853
10048POPC   GL164057  31.518  23.711   6.153
10048POPC   GL264058  31.441  23.613   6.153
10048POPC   C1A64059  31.492  23.763   6.453
10048POPC   D2A64060  31.518  23.664   6.753
10048POPC   C3A64061  31.459  23.671   7.053
10048POPC   C4A64062  31.490  23.704   7.353
10048POPC   C1B64063  31.266  23.503   6.453
10048POPC   C2B64064  31.268  23.525   6.753
10048POPC   C3B64065  31.283  23.515   7.053
10048POPC   C4B64066  31.301  23.509   7.353
10049POPC   NC364067  37.687  11.282   5.553
10049POPC   PO464068  37.668  11.327   5.853
10049POPC   GL164069  37.636  11.316   6.153
10049POPC   GL264070  37.572  11.219   6.153
10049POPC   C1A64071  37.705  11.260   6.453
10049POPC   D2A64072  37.704  11.267   6.753
10049POPC   C3A64073  37.651  11.266   7.053
10049POPC   C4A64074  37.635  11.310   7.353
10049POPC   C1B64075  37.591  11.068   6.453
10049POPC   C2B64076  37.595  11.136   6.753
10049POPC   C3B64077  37.515  11.060   7.053
10049POPC   C4B64078  37.553  11.100   7.353
10050POPC   NC364079  32.998  16.715   5.553
10050POPC   PO464080  33.034  16.758   5.853
10050POPC   GL164081  33.037  16.768   6.153
10050POPC   GL264082  33.069  16.586   6.153
10050POPC   C1A64083  33.052  16.708   6.453
10050POPC   D2A64084  33.031  16.699   6.753
10050POPC   C3A64085  33.066  16.748   7.053
10050POPC   C4A64086  32.975  16.765   7.353
10050POPC   C1B64087  33.095  16.468   6.453
10050POPC   C2B64088  33.089  16.513   6.753
10050POPC   C3B64089  33.125  16.522   7.053
10050POPC   C4B64090  33.115  16.538   7.353
10051POPC   NC364091   1.212  29.934   5.553
10051POPC   PO464092   1.253  29.917   5.853
10051POPC   GL164093   1.198  29.876   6.153
10051POPC   GL264094   1.227  30.063   6.153
10051POPC   C1A64095   1.220  29.954   6.453
10051POPC   D2A64096   1.224  29.899   6.753
10051POPC   C3A64097   1.206  29.934   7.053
10051POPC   C4A64098   1.224  29.958   7.353
10051POPC   C1B64099   1.187  30.170   6.453
10051POPC   C2B64100   1.244  30.211   6.753
10051POPC   C3B64101   1.216  30.123   7.053
10051POPC   C4B64102   1.253  30.193   7.353
10052POPC   NC364103  29.130  24.532   5.553
10052POPC   PO464104  29.156  24.502   5.853
10052POPC   GL164105  29.133  24.467   6.153
10052POPC   GL264106  29.230  24.549   6.153
10052POPC   C1A64107  29.148  24.507   6.453
10052POPC   D2A64108  29.187  24.480   6.753
10052POPC   C3A64109  29.157  24.458   7.053
10052POPC   C4A64110  29.170  24.498   7.353
10052POPC   C1B64111  29.412  24.538   6.453
10052POPC   C2B64112  29.419  24.533   6.753
10052POPC   C3B64113  29.421  24.567   7.053
10052POPC   C4B64114  29.381  24.489   7.353
10053POPC   NC364115  30.667  14.427   5.553
10053POPC   PO464116  30.678  14.425   5.853
10053POPC   GL164117  30.670  14.359   6.153
10053POPC   GL264118  30.774  14.478   6.153
10053POPC   C1A64119  30.729  14.425   6.453
10053POPC   D2A64120  30.648  14.368   6.753
10053POPC   C3A64121  30.736  14.396   7.053
10053POPC   C4A64122  30.668  14.435   7.353
10053POPC   C1B64123  30.973  14.435   6.453
10053POPC   C2B64124  30.947  14.472   6.753
10053POPC   C3B64125  30.982  14.489   7.053
10053POPC   C4B64126  30.911  14.501   7.353
10054POPC   NC364127  23.728  36.862   5.553
10054POPC   PO464128  23.696  36.856   5.853
10054POPC   GL164129  23.743  36.929   6.153
10054POPC   GL264130  23.648  36.754   6.153
10054POPC   C1A64131  23.722  36.884   6.453
10054POPC   D2A64132  23.745  36.907   6.753
10054POPC   C3A64133  23.725  36.920   7.053
10054POPC   C4A64134  23.742  36.857   7.353
10054POPC   C1B64135  23.712  36.649   6.453
10054POPC   C2B64136  23.648  36.613   6.753
10054POPC   C3B64137  23.716  36.675   7.053
10054POPC   C4B64138  23.633  36.703   7.353
10055POPC   NC364139  41.533  22.935   5.553
10055POPC   PO464140  41.568  22.904   5.853
10055POPC   GL164141  41.518  22.976   6.153
10055POPC   GL264142  41.623  23.000   6.153
10055POPC   C1A64143  41.552  22.952   6.453
10055POPC   D2A64144  41.576  22.965   6.753
10055POPC   C3A64145  41.594  22.926   7.053
10055POPC   C4A64146  41.557  22.948   7.353
10055POPC   C1B64147  41.656  23.097   6.453
10055POPC   C2B64148  41.721  23.133   6.753
10055POPC   C3B64149  41.686  23.185   7.053
10055POPC   C4B64150  41.700  23.143   7.353
10056POPC   NC364151  18.289  34.572   5.553
10056POPC   PO464152  18.290  34.526   5.853
10056POPC   GL164153  18.248  34.618   6.153
10056POPC   GL264154  18.369  34.666   6.153
10056POPC   C1A64155  18.259  34.576   6.453
10056POPC   D2A64156  18.301  34.528   6.753
10056POPC   C3A64157  18.273  34.607   7.053
10056POPC   C4A64158  18.330  34.545   7.353
10056POPC   C1B64159  18.427  34.768   6.453
10056POPC   C2B64160  18.358  34.803   6.753
10056POPC   C3B64161  18.389  34.847   7.053
10056POPC   C4B64162  18.370  34.758   7.353
10057POPC   NC364163  11.255  23.713   5.553
10057POPC   PO464164  11.327  23.705   5.853
10057POPC   GL164165  11.332  23.743   6.153
10057POPC   GL264166  11.466  23.713   6.153
10057POPC   C1A64167  11.344  23.676   6.453
10057POPC   D2A64168  11.271  23.676   6.753
10057POPC   C3A64169  11.256  23.701   7.053
10057POPC   C4A64170  11.300  23.725   7.353
10057POPC   C1B64171  11.572  23.735   6.453
10057POPC   C2B64172  11.524  23.727   6.753
10057POPC   C3B64173  11.522  23.747   7.053
10057POPC   C4B64174  11.556  23.685   7.353
10058POPC   NC364175  42.299  37.657   5.553
10058POPC   PO464176  42.292  37.707   5.853
10058POPC   GL164177  42.356  37.728   6.153
10058POPC   GL264178  42.459  37.763   6.153
10058POPC   C1A64179  42.302  37.672   6.453
10058POPC   D2A64180  42.344  37.652   6.753
10058POPC   C3A64181  42.351  37.634   7.053
10058POPC   C4A64182  42.372  37.689   7.353
10058POPC   C1B64183  42.524  37.884   6.453
10058POPC   C2B64184  42.552  37.845   6.753
10058POPC   C3B64185  42.521  37.862   7.053
10058POPC   C4B64186  42.497  37.811   7.353
10059POPC   NC364187  34.543  37.712   5.553
10059POPC   PO464188  34.586  37.646   5.853
10059POPC   GL164189  34.616  37.634   6.153
10059POPC   GL264190  34.557  37.560   6.153
10059POPC   C1A64191  34.614  37.635   6.453
10059POPC   D2A64192  34.545  37.728   6.753
10059POPC   C3A64193  34.612  37.715   7.053
10059POPC   C4A64194  34.543  37.712   7.353
10059POPC   C1B64195  34.489  37.494   6.453
10059POPC   C2B64196  34.489  37.416   6.753
10059POPC   C3B64197  34.501  37.481   7.053
10059POPC   C4B64198  34.463  37.502   7.353
10060POPC   NC364199  42.294  30.664   5.553
10060POPC   PO464200  42.300  30.666   5.853
10060POPC   GL164201  42.322  30.684   6.153
10060POPC   GL264202  42.316  30.566   6.153
10060POPC   C1A64203  42.333  30.746   6.453
10060POPC   D2A64204  42.374  30.647   6.753
10060POPC   C3A64205  42.293  30.707   7.053
10060POPC   C4A64206  42.344  30.741   7.353
10060POPC   C1B64207  42.281  30.484   6.453
10060POPC   C2B64208  42.329  30.474   6.753
10060POPC   C3B64209  42.275  30.490   7.053
10060POPC   C4B64210  42.335  30.482   7.353
10061POPC   NC364211  35.304  29.913   5.553
10061POPC   PO464212  35.343  29.894   5.853
10061POPC   GL164213  35.310  29.922   6.153
10061POPC   GL264214  35.318  29.997   6.153
10061POPC   C1A64215  35.343  29.943   6.453
10061POPC   D2A64216  35.400  29.963   6.753
10061POPC   C3A64217  35.383  29.885   7.053
10061POPC   C4A64218  35.343  29.925   7.353
10061POPC   C1B64219  35.252  30.127   6.453
10061POPC   C2B64220  35.198  30.110   6.753
10061POPC   C3B64221  35.213  30.107   7.053
10061POPC   C4B64222  35.215  30.119   7.353
10062POPC   NC364223   8.952   4.298   5.553
10062POPC   PO464224   8.992   4.322   5.853
10062POPC   GL164225   9.014   4.332   6.153
10062POPC   GL264226   8.869   4.380   6.153
10062POPC   C1A64227   8.978   4.295   6.453
10062POPC   D2A64228   8.929   4.345   6.753
10062POPC   C3A64229   8.999   4.290   7.053
10062POPC   C4A64230   8.956   4.317   7.353
10062POPC   C1B64231   8.740   4.469   6.453
10062POPC   C2B64232   8.730   4.504   6.753
10062POPC   C3B64233   8.746   4.429   7.053
10062POPC   C4B64234   8.760   4.490   7.353
10063POPC   NC364235  43.922  26.048   5.553
10063POPC   PO464236  43.881  26.012   5.853
10063POPC   GL164237  43.863  26.027   6.153
10063POPC   GL264238  43.799  25.968   6.153
10063POPC   C1A64239  43.851  26.001   6.453
10063POPC   D2A64240  43.845  26.014   6.753
10063POPC   C3A64241  43.854  25.999   7.053
10063POPC   C4A64242  43.934  26.054   7.353
10063POPC   C1B64243  43.690  26.033   6.453
10063POPC   C2B64244  43.594  26.004   6.753
10063POPC   C3B64245  43.600  26.012   7.053
10063POPC   C4B64246  43.687  25.996   7.353
10064POPC   NC364247  19.871  44.672   5.553
10064POPC   PO464248  19.787  44.680   5.853
10064POPC   GL164249  19.853  44.657   6.153
10064POPC   GL264250  19.947  44.574   6.153
10064POPC   C1A64251  19.836  44.706   6.453
10064POPC   D2A64252  19.791  44.618   6.753
10064POPC   C3A64253  19.828  44.645   7.053
10064POPC   C4A64254  19.834  44.648   7.353
10064POPC   C1B64255  19.956  44.469   6.453
10064POPC   C2B64256  20.005  44.495   6.753
10064POPC   C3B64257  19.933  44.505   7.053
10064POPC   C4B64258  19.967  44.413   7.353
10065POPC   NC364259   6.657   7.421   5.553
10065POPC   PO464260   6.659   7.425   5.853
10065POPC   GL164261   6.616   7.448   6.153
10065POPC   GL264262   6.675   7.261   6.153
10065POPC   C1A64263   6.611   7.388   6.453
10065POPC   D2A64264   6.643   7.380   6.753
10065POPC   C3A64265   6.688   7.410   7.053
10065POPC   C4A64266   6.693   7.445   7.353
10065POPC   C1B64267   6.655   7.131   6.453
10065POPC   C2B64268   6.740   7.146   6.753
10065POPC   C3B64269   6.656   7.155   7.053
10065POPC   C4B64270   6.650   7.128   7.353
10066POPC   NC364271  15.206   8.234   5.553
10066POPC   PO464272  15.191   8.170   5.853
10066POPC   GL164273  15.147   8.219   6.153
10066POPC   GL264274  15.081   8.178   6.153
10066POPC   C1A64275  15.178   8.210   6.453
10066POPC   D2A64276  15.178   8.168   6.753
10066POPC   C3A64277  15.212   8.157   7.053
10066POPC   C4A64278  15.192   8.151   7.353
10066POPC   C1B64279  14.968   8.152   6.453
10066POPC   C2B64280  14.986   8.129   6.753
10066POPC   C3B64281  14.923   8.089   7.053
10066POPC   C4B64282  14.907   8.160   7.353
10067POPC   NC364283  33.826  33.808   5.553
10067POPC   PO464284  33.801  33.830   5.853
10067POPC   GL164285  33.844  33.757   6.153
10067POPC   GL264286  33.922  33.937   6.153
10067POPC   C1A64287  33.753  33.769   6.453
10067POPC   D2A64288  33.829  33.766   6.753
10067POPC   C3A64289  33.830  33.816   7.053
10067POPC   C4A64290  33.813  33.823   7.353
10067POPC   C1B64291  33.928  33.984   6.453
10067POPC   C2B64292  34.011  34.000   6.753
10067POPC   C3B64293  34.004  33.955   7.053
10067POPC   C4B64294  33.920  34.032   7.353
10068POPC   NC364295  43.917  40.810   5.553
10068POPC   PO464296  43.914  40.797   5.853
10068POPC   GL164297  43.900  40.804   6.153
10068POPC   GL264298  43.966  40.664   6.153
10068POPC   C1A64299  43.847  40.811   6.453
10068POPC   D2A64300  43.921  40.813   6.753
10068POPC   C3A64301  43.842  40.779   7.053
10068POPC   C4A64302  43.920  40.748   7.353
10068POPC   C1B64303  44.111  40.611   6.453
10068POPC   C2B64304  44.122  40.605   6.753
10068POPC   C3B64305  44.028  40.617   7.053
10068POPC   C4B64306  44.120  40.610   7.353
10069POPC   NC364307  29.955  27.576   5.553
10069POPC   PO464308  29.925  27.578   5.853
10069POPC   GL164309  29.902  27.596   6.153
10069POPC   GL264310  29.995  27.548   6.153
10069POPC   C1A64311  29.942  27.545   6.453
10069POPC   D2A64312  29.948  27.613   6.753
10069POPC   C3A64313  29.893  27.586   7.053
10069POPC   C4A64314  29.890  27.640   7.353
10069POPC   C1B64315  30.085  27.386   6.453
10069POPC   C2B64316  30.112  27.469   6.753
10069POPC   C3B64317  30.059  27.449   7.053
10069POPC   C4B64318  30.087  27.396   7.353
10070POPC   NC364319  36.165  32.269   5.553
10070POPC   PO464320  36.143  32.209   5.853
10070POPC   GL164321  36.096  32.222   6.153
10070POPC   GL264322  36.078  32.342   6.153
10070POPC   C1A64323  36.092  32.282   6.453
10070POPC   D2A64324  36.172  32.218   6.753
10070POPC   C3A64325  36.132  32.244   7.053
10070POPC   C4A64326  36.081  32.209   7.353
10070POPC   C1B64327  35.948  32.455   6.453
10070POPC   C2B64328  35.976  32.456   6.753
10070POPC   C3B64329  35.909  32.408   7.053
10070POPC   C4B64330  35.940  32.392   7.353
10071POPC   NC364331  16.761  18.330   5.553
10071POPC   PO464332  16.702  18.251   5.853
10071POPC   GL164333  16.687  18.248   6.153
10071POPC   GL264334  16.736  18.383   6.153
10071POPC   C1A64335  16.689  18.258   6.453
10071POPC   D2A64336  16.694  18.254   6.753
10071POPC   C3A64337  16.701  18.273   7.053
10071POPC   C4A64338  16.684  18.291   7.353
10071POPC   C1B64339  16.660  18.538   6.453
10071POPC   C2B64340  16.721  18.482   6.753
10071POPC   C3B64341  16.655  18.576   7.053
10071POPC   C4B64342  16.711  18.492   7.353
10072POPC   NC364343  30.681  19.054   5.553
10072POPC   PO464344  30.677  19.014   5.853
10072POPC   GL164345  30.650  19.108   6.153
10072POPC   GL264346  30.585  18.956   6.153
10072POPC   C1A64347  30.731  19.041   6.453
10072POPC   D2A64348  30.683  19.057   6.753
10072POPC   C3A64349  30.657  19.036   7.053
10072POPC   C4A64350  30.728  19.065   7.353
10072POPC   C1B64351  30.515  18.900   6.453
10072POPC   C2B64352  30.595  18.845   6.753
10072POPC   C3B64353  30.505  18.893   7.053
10072POPC   C4B64354  30.534  18.907   7.353
10073POPC   NC364355  19.854  23.729   5.553
10073POPC   PO464356  19.821  23.719   5.853
10073POPC   GL164357  19.812  23.730   6.153
10073POPC   GL264358  19.771  23.758   6.153
10073POPC   C1A64359  19.797  23.675   6.453
10073POPC   D2A64360  19.877  23.680   6.753
10073POPC   C3A64361  19.790  23.684   7.053
10073POPC   C4A64362  19.854  23.674   7.353
10073POPC   C1B64363  19.623  23.881   6.453
10073POPC   C2B64364  19.584  23.863   6.753
10073POPC   C3B64365  19.597  23.880   7.053
10073POPC   C4B64366  19.618  23.811   7.353
10074POPC   NC364367  43.148  39.991   5.553
10074POPC   PO464368  43.156  39.996   5.853
10074POPC   GL164369  43.087  40.019   6.153
10074POPC   GL264370  43.011  39.992   6.153
10074POPC   C1A64371  43.064  39.984   6.453
10074POPC   D2A64372  43.107  39.961   6.753
10074POPC   C3A64373  43.142  40.031   7.053
10074POPC   C4A64374  43.085  39.959   7.353
10074POPC   C1B64375  42.926  39.919   6.453
10074POPC   C2B64376  42.932  39.927   6.753
10074POPC   C3B64377  42.913  39.852   7.053
10074POPC   C4B64378  42.897  39.926   7.353
10075POPC   NC364379  20.647  14.443   5.553
10075POPC   PO464380  20.606  14.424   5.853
10075POPC   GL164381  20.626  14.363   6.153
10075POPC   GL264382  20.566  14.294   6.153
10075POPC   C1A64383  20.563  14.428   6.453
10075POPC   D2A64384  20.617  14.447   6.753
10075POPC   C3A64385  20.597  14.428   7.053
10075POPC   C4A64386  20.610  14.416   7.353
10075POPC   C1B64387  20.456  14.235   6.453
10075POPC   C2B64388  20.480  14.176   6.753
10075POPC   C3B64389  20.440  14.185   7.053
10075POPC   C4B64390  20.466  14.230   7.353
10076POPC   NC364391  44.642  34.587   5.553
10076POPC   PO464392  44.703  34.582   5.853
10076POPC   GL164393  44.654  34.613   6.153
10076POPC   GL264394  44.643  34.716   6.153
10076POPC   C1A64395  44.666  34.556   6.453
10076POPC   D2A64396  44.677  34.566   6.753
10076POPC   C3A64397  44.678  34.589   7.053
10076POPC   C4A64398  44.644  34.608   7.353
10076POPC   C1B64399  44.717  34.836   6.453
10076POPC   C2B64400  44.700  34.817   6.753
10076POPC   C3B64401  44.637  34.803   7.053
10076POPC   C4B64402  44.704  34.850   7.353
10077POPC   NC364403   5.858  36.947   5.553
10077POPC   PO464404   5.842  36.897   5.853
10077POPC   GL164405   5.866  36.932   6.153
10077POPC   GL264406   5.974  37.038   6.153
10077POPC   C1A64407   5.879  36.878   6.453
10077POPC   D2A64408   5.906  36.922   6.753
10077POPC   C3A64409   5.838  36.929   7.053
10077POPC   C4A64410   5.868  36.888   7.353
10077POPC   C1B64411   6.077  37.031   6.453
10077POPC   C2B64412   6.023  37.052   6.753
10077POPC   C3B64413   6.039  37.080   7.053
10077POPC   C4B64414   6.066  37.038   7.353
10078POPC   NC364415  22.986  14.414   5.553
10078POPC   PO464416  22.913  14.431   5.853
10078POPC   GL164417  22.912  14.363   6.153
10078POPC   GL264418  22.903  14.525   6.153
10078POPC   C1A64419  22.916  14.434   6.453
10078POPC   D2A64420  22.977  14.403   6.753
10078POPC   C3A64421  22.906  14.448   7.053
10078POPC   C4A64422  22.906  14.450   7.353
10078POPC   C1B64423  22.941  14.625   6.453
10078POPC   C2B64424  22.950  14.671   6.753
10078POPC   C3B64425  22.980  14.660   7.053
10078POPC   C4B64426  22.952  14.661   7.353
10079POPC   NC364427  36.086  14.380   5.553
10079POPC   PO464428  36.157  14.387   5.853
10079POPC   GL164429  36.101  14.363   6.153
10079POPC   GL264430  36.240  14.443   6.153
10079POPC   C1A64431  36.101  14.381   6.453
10079POPC   D2A64432  36.082  14.405   6.753
10079POPC   C3A64433  36.129  14.436   7.053
10079POPC   C4A64434  36.104  14.390   7.353
10079POPC   C1B64435  36.320  14.516   6.453
10079POPC   C2B64436  36.310  14.538   6.753
10079POPC   C3B64437  36.317  14.499   7.053
10079POPC   C4B64438  36.393  14.491   7.353
10080POPC   NC364439  20.656  17.467   5.553
10080POPC   PO464440  20.640  17.470   5.853
10080POPC   GL164441  20.613  17.458   6.153
10080POPC   GL264442  20.728  17.473   6.153
10080POPC   C1A64443  20.630  17.457   6.453
10080POPC   D2A64444  20.599  17.482   6.753
10080POPC   C3A64445  20.612  17.520   7.053
10080POPC   C4A64446  20.627  17.524   7.353
10080POPC   C1B64447  20.884  17.492   6.453
10080POPC   C2B64448  20.833  17.558   6.753
10080POPC   C3B64449  20.836  17.565   7.053
10080POPC   C4B64450  20.880  17.481   7.353
10081POPC   NC364451   0.449  15.169   5.553
10081POPC   PO464452   0.438  15.210   5.853
10081POPC   GL164453   0.463  15.196   6.153
10081POPC   GL264454   0.560  15.173   6.153
10081POPC   C1A64455   0.410  15.209   6.453
10081POPC   D2A64456   0.413  15.174   6.753
10081POPC   C3A64457   0.474  15.200   7.053
10081POPC   C4A64458   0.471  15.194   7.353
10081POPC   C1B64459   0.697  15.220   6.453
10081POPC   C2B64460   0.676  15.192   6.753
10081POPC   C3B64461   0.694  15.201   7.053
10081POPC   C4B64462   0.707  15.170   7.353
10082POPC   NC364463  29.176  26.867   5.553
10082POPC   PO464464  29.155  26.779   5.853
10082POPC   GL164465  29.193  26.803   6.153
10082POPC   GL264466  29.083  26.940   6.153
10082POPC   C1A64467  29.106  26.799   6.453
10082POPC   D2A64468  29.159  26.784   6.753
10082POPC   C3A64469  29.156  26.842   7.053
10082POPC   C4A64470  29.178  26.866   7.353
10082POPC   C1B64471  29.092  27.075   6.453
10082POPC   C2B64472  29.065  27.077   6.753
10082POPC   C3B64473  29.012  27.012   7.053
10082POPC   C4B64474  29.051  27.076   7.353
10083POPC   NC364475  35.361  36.167   5.553
10083POPC   PO464476  35.375  36.083   5.853
10083POPC   GL164477  35.343  36.173   6.153
10083POPC   GL264478  35.381  36.221   6.153
10083POPC   C1A64479  35.380  36.151   6.453
10083POPC   D2A64480  35.334  36.143   6.753
10083POPC   C3A64481  35.384  36.136   7.053
10083POPC   C4A64482  35.378  36.094   7.353
10083POPC   C1B64483  35.366  36.396   6.453
10083POPC   C2B64484  35.403  36.334   6.753
10083POPC   C3B64485  35.426  36.377   7.053
10083POPC   C4B64486  35.381  36.339   7.353
10084POPC   NC364487  19.829  42.314   5.553
10084POPC   PO464488  19.818  42.359   5.853
10084POPC   GL164489  19.810  42.317   6.153
10084POPC   GL264490  19.789  42.406   6.153
10084POPC   C1A64491  19.837  42.376   6.453
10084POPC   D2A64492  19.827  42.369   6.753
10084POPC   C3A64493  19.840  42.296   7.053
10084POPC   C4A64494  19.819  42.305   7.353
10084POPC   C1B64495  19.629  42.529   6.453
10084POPC   C2B64496  19.673  42.493   6.753
10084POPC   C3B64497  19.662  42.546   7.053
10084POPC   C4B64498  19.620  42.455   7.353
10085POPC   NC364499  21.405  11.264   5.553
10085POPC   PO464500  21.418  11.321   5.853
10085POPC   GL164501  21.405  11.349   6.153
10085POPC   GL264502  21.537  11.385   6.153
10085POPC   C1A64503  21.376  11.290   6.453
10085POPC   D2A64504  21.413  11.278   6.753
10085POPC   C3A64505  21.430  11.318   7.053
10085POPC   C4A64506  21.398  11.305   7.353
10085POPC   C1B64507  21.608  11.466   6.453
10085POPC   C2B64508  21.594  11.433   6.753
10085POPC   C3B64509  21.600  11.380   7.053
10085POPC   C4B64510  21.633  11.378   7.353
10086POPC   NC364511  19.797  12.843   5.553
10086POPC   PO464512  19.830  12.894   5.853
10086POPC   GL164513  19.825  12.894   6.153
10086POPC   GL264514  19.941  12.918   6.153
10086POPC   C1A64515  19.806  12.831   6.453
10086POPC   D2A64516  19.852  12.817   6.753
10086POPC   C3A64517  19.814  12.885   7.053
10086POPC   C4A64518  19.874  12.848   7.353
10086POPC   C1B64519  20.027  13.056   6.453
10086POPC   C2B64520  19.971  13.041   6.753
10086POPC   C3B64521  20.067  13.050   7.053
10086POPC   C4B64522  20.005  13.006   7.353
10087POPC   NC364523  33.071  31.434   5.553
10087POPC   PO464524  33.029  31.486   5.853
10087POPC   GL164525  33.042  31.473   6.153
10087POPC   GL264526  33.120  31.606   6.153
10087POPC   C1A64527  33.003  31.510   6.453
10087POPC   D2A64528  33.021  31.450   6.753
10087POPC   C3A64529  32.979  31.487   7.053
10087POPC   C4A64530  33.026  31.438   7.353
10087POPC   C1B64531  33.123  31.710   6.453
10087POPC   C2B64532  33.139  31.642   6.753
10087POPC   C3B64533  33.140  31.639   7.053
10087POPC   C4B64534  33.125  31.681   7.353
10088POPC   NC364535  38.410  29.923   5.553
10088POPC   PO464536  38.455  29.928   5.853
10088POPC   GL164537  38.416  29.922   6.153
10088POPC   GL264538  38.600  29.839   6.153
10088POPC   C1A64539  38.469  29.954   6.453
10088POPC   D2A64540  38.476  29.969   6.753
10088POPC   C3A64541  38.482  29.970   7.053
10088POPC   C4A64542  38.411  29.874   7.353
10088POPC   C1B64543  38.730  29.798   6.453
10088POPC   C2B64544  38.717  29.871   6.753
10088POPC   C3B64545  38.718  29.881   7.053
10088POPC   C4B64546  38.676  29.879   7.353
10089POPC   NC364547  40.764  29.959   5.553
10089POPC   PO464548  40.776  29.965   5.853
10089POPC   GL164549  40.833  29.887   6.153
10089POPC   GL264550  40.742  30.036   6.153
10089POPC   C1A64551  40.803  29.905   6.453
10089POPC   D2A64552  40.770  29.970   6.753
10089POPC   C3A64553  40.759  29.924   7.053
10089POPC   C4A64554  40.825  29.879   7.353
10089POPC   C1B64555  40.690  30.199   6.453
10089POPC   C2B64556  40.659  30.176   6.753
10089POPC   C3B64557  40.683  30.130   7.053
10089POPC   C4B64558  40.704  30.173   7.353
10090POPC   NC364559  24.503   1.187   5.553
10090POPC   PO464560  24.452   1.252   5.853
10090POPC   GL164561  24.480   1.185   6.153
10090POPC   GL264562  24.576   1.289   6.153
10090POPC   C1A64563  24.483   1.252   6.453
10090POPC   D2A64564  24.482   1.186   6.753
10090POPC   C3A64565  24.444   1.185   7.053
10090POPC   C4A64566  24.515   1.243   7.353
10090POPC   C1B64567  24.668   1.332   6.453
10090POPC   C2B64568  24.686   1.295   6.753
10090POPC   C3B64569  24.734   1.305   7.053
10090POPC   C4B64570  24.720   1.288   7.353
10091POPC   NC364571  35.344   8.179   5.553
10091POPC   PO464572  35.307   8.229   5.853
10091POPC   GL164573  35.344   8.153   6.153
10091POPC   GL264574  35.207   8.213   6.153
10091POPC   C1A64575  35.305   8.163   6.453
10091POPC   D2A64576  35.386   8.225   6.753
10091POPC   C3A64577  35.327   8.171   7.053
10091POPC   C4A64578  35.355   8.197   7.353
10091POPC   C1B64579  35.113   8.211   6.453
10091POPC   C2B64580  35.056   8.139   6.753
10091POPC   C3B64581  35.126   8.126   7.053
10091POPC   C4B64582  35.126   8.156   7.353
10092POPC   NC364583   1.245  33.769   5.553
10092POPC   PO464584   1.214  33.838   5.853
10092POPC   GL164585   1.257  33.773   6.153
10092POPC   GL264586   1.142  33.908   6.153
10092POPC   C1A64587   1.241  33.766   6.453
10092POPC   D2A64588   1.247  33.850   6.753
10092POPC   C3A64589   1.226  33.768   7.053
10092POPC   C4A64590   1.243  33.822   7.353
10092POPC   C1B64591   0.987  33.897   6.453
10092POPC   C2B64592   1.055  33.919   6.753
10092POPC   C3B64593   1.047  33.947   7.053
10092POPC   C4B64594   1.047  33.945   7.353
10093POPC   NC364595  19.062  12.035   5.553
10093POPC   PO464596  19.085  12.037   5.853
10093POPC   GL164597  19.091  12.058   6.153
10093POPC   GL264598  18.955  12.151   6.153
10093POPC   C1A64599  19.098  12.088   6.453
10093POPC   D2A64600  19.055  12.076   6.753
10093POPC   C3A64601  19.083  12.046   7.053
10093POPC   C4A64602  19.108  12.044   7.353
10093POPC   C1B64603  18.784  12.098   6.453
10093POPC   C2B64604  18.854  12.104   6.753
10093POPC   C3B64605  18.856  12.176   7.053
10093POPC   C4B64606  18.784  12.153   7.353
10094POPC   NC364607  30.663  12.055   5.553
10094POPC   PO464608  30.722  12.061   5.853
10094POPC   GL164609  30.715  12.096   6.153
10094POPC   GL264610  30.623  12.190   6.153
10094POPC   C1A64611  30.722  12.103   6.453
10094POPC   D2A64612  30.739  12.069   6.753
10094POPC   C3A64613  30.663  12.116   7.053
10094POPC   C4A64614  30.727  12.117   7.353
10094POPC   C1B64615  30.520  12.261   6.453
10094POPC   C2B64616  30.539  12.286   6.753
10094POPC   C3B64617  30.535  12.257   7.053
10094POPC   C4B64618  30.522  12.242   7.353
10095POPC   NC364619  31.484  19.804   5.553
10095POPC   PO464620  31.449  19.845   5.853
10095POPC   GL164621  31.495  19.865   6.153
10095POPC   GL264622  31.334  19.887   6.153
10095POPC   C1A64623  31.477  19.814   6.453
10095POPC   D2A64624  31.447  19.883   6.753
10095POPC   C3A64625  31.459  19.856   7.053
10095POPC   C4A64626  31.451  19.847   7.353
10095POPC   C1B64627  31.286  19.953   6.453
10095POPC   C2B64628  31.287  19.978   6.753
10095POPC   C3B64629  31.327  20.051   7.053
10095POPC   C4B64630  31.297  20.034   7.353
10096POPC   NC364631   5.126  34.617   5.553
10096POPC   PO464632   5.090  34.528   5.853
10096POPC   GL164633   5.084  34.581   6.153
10096POPC   GL264634   5.199  34.586   6.153
10096POPC   C1A64635   5.097  34.548   6.453
10096POPC   D2A64636   5.079  34.530   6.753
10096POPC   C3A64637   5.095  34.607   7.053
10096POPC   C4A64638   5.119  34.579   7.353
10096POPC   C1B64639   5.355  34.487   6.453
10096POPC   C2B64640   5.316  34.490   6.753
10096POPC   C3B64641   5.330  34.450   7.053
10096POPC   C4B64642   5.378  34.466   7.353
10097POPC   NC364643   7.454  13.592   5.553
10097POPC   PO464644   7.401  13.665   5.853
10097POPC   GL164645   7.443  13.615   6.153
10097POPC   GL264646   7.297  13.541   6.153
10097POPC   C1A64647   7.404  13.615   6.453
10097POPC   D2A64648   7.448  13.677   6.753
10097POPC   C3A64649   7.384  13.643   7.053
10097POPC   C4A64650   7.470  13.612   7.353
10097POPC   C1B64651   7.161  13.528   6.453
10097POPC   C2B64652   7.179  13.571   6.753
10097POPC   C3B64653   7.180  13.522   7.053
10097POPC   C4B64654   7.148  13.570   7.353
10098POPC   NC364655  28.349  42.333   5.553
10098POPC   PO464656  28.350  42.360   5.853
10098POPC   GL164657  28.411  42.344   6.153
10098POPC   GL264658  28.504  42.343   6.153
10098POPC   C1A64659  28.380  42.376   6.453
10098POPC   D2A64660  28.345  42.341   6.753
10098POPC   C3A64661  28.342  42.331   7.053
10098POPC   C4A64662  28.323  42.340   7.353
10098POPC   C1B64663  28.648  42.364   6.453
10098POPC   C2B64664  28.596  42.373   6.753
10098POPC   C3B64665  28.650  42.327   7.053
10098POPC   C4B64666  28.617  42.286   7.353
10099POPC   NC364667  44.640   3.588   5.553
10099POPC   PO464668  44.679   3.543   5.853
10099POPC   GL164669  44.683   3.568   6.153
10099POPC   GL264670  44.751   3.505   6.153
10099POPC   C1A64671  44.651   3.515   6.453
10099POPC   D2A64672  44.620   3.505   6.753
10099POPC   C3A64673  44.652   3.559   7.053
10099POPC   C4A64674  44.684   3.519   7.353
10099POPC   C1B64675  44.857   3.441   6.453
10099POPC   C2B64676  44.866   3.503   6.753
10099POPC   C3B64677  44.856   3.424   7.053
10099POPC   C4B64678  44.865   3.496   7.353
10100POPC   NC364679  20.562  10.531   5.553
10100POPC   PO464680  20.638  10.543   5.853
10100POPC   GL164681  20.594  10.511   6.153
10100POPC   GL264682  20.690  10.445   6.153
10100POPC   C1A64683  20.606  10.543   6.453
10100POPC   D2A64684  20.649  10.537   6.753
10100POPC   C3A64685  20.584  10.541   7.053
10100POPC   C4A64686  20.631  10.550   7.353
10100POPC   C1B64687  20.713  10.240   6.453
10100POPC   C2B64688  20.717  10.271   6.753
10100POPC   C3B64689  20.689  10.322   7.053
10100POPC   C4B64690  20.697  10.234   7.353
10101POPC   NC364691  11.314  25.304   5.553
10101POPC   PO464692  11.341  25.259   5.853
10101POPC   GL164693  11.266  25.311   6.153
10101POPC   GL264694  11.213  25.320   6.153
10101POPC   C1A64695  11.309  25.225   6.453
10101POPC   D2A64696  11.284  25.257   6.753
10101POPC   C3A64697  11.340  25.290   7.053
10101POPC   C4A64698  11.274  25.313   7.353
10101POPC   C1B64699  11.023  25.340   6.453
10101POPC   C2B64700  11.102  25.415   6.753
10101POPC   C3B64701  11.033  25.348   7.053
10101POPC   C4B64702  11.085  25.360   7.353
10102POPC   NC364703  35.308  13.644   5.553
10102POPC   PO464704  35.347  13.649   5.853
10102POPC   GL164705  35.398  13.636   6.153
10102POPC   GL264706  35.355  13.750   6.153
10102POPC   C1A64707  35.303  13.655   6.453
10102POPC   D2A64708  35.316  13.649   6.753
10102POPC   C3A64709  35.313  13.583   7.053
10102POPC   C4A64710  35.391  13.675   7.353
10102POPC   C1B64711  35.336  13.860   6.453
10102POPC   C2B64712  35.389  13.842   6.753
10102POPC   C3B64713  35.404  13.904   7.053
10102POPC   C4B64714  35.340  13.846   7.353
10103POPC   NC364715  12.079   9.790   5.553
10103POPC   PO464716  12.097   9.761   5.853
10103POPC   GL164717  12.098   9.750   6.153
10103POPC   GL264718  12.197   9.796   6.153
10103POPC   C1A64719  12.083   9.740   6.453
10103POPC   D2A64720  12.062   9.730   6.753
10103POPC   C3A64721  12.110   9.759   7.053
10103POPC   C4A64722  12.110   9.784   7.353
10103POPC   C1B64723  12.248   9.887   6.453
10103POPC   C2B64724  12.299   9.945   6.753
10103POPC   C3B64725  12.279   9.944   7.053
10103POPC   C4B64726  12.271   9.890   7.353
10104POPC   NC364727  19.021  29.109   5.553
10104POPC   PO464728  19.105  29.136   5.853
10104POPC   GL164729  19.100  29.155   6.153
10104POPC   GL264730  19.196  29.163   6.153
10104POPC   C1A64731  19.019  29.184   6.453
10104POPC   D2A64732  19.047  29.139   6.753
10104POPC   C3A64733  19.079  29.141   7.053
10104POPC   C4A64734  19.065  29.124   7.353
10104POPC   C1B64735  19.301  29.208   6.453
10104POPC   C2B64736  19.262  29.151   6.753
10104POPC   C3B64737  19.338  29.224   7.053
10104POPC   C4B64738  19.353  29.223   7.353
10105POPC   NC364739  18.288   3.555   5.553
10105POPC   PO464740  18.282   3.548   5.853
10105POPC   GL164741  18.242   3.502   6.153
10105POPC   GL264742  18.176   3.636   6.153
10105POPC   C1A64743  18.298   3.558   6.453
10105POPC   D2A64744  18.277   3.524   6.753
10105POPC   C3A64745  18.250   3.513   7.053
10105POPC   C4A64746  18.240   3.503   7.353
10105POPC   C1B64747  18.080   3.705   6.453
10105POPC   C2B64748  18.095   3.712   6.753
10105POPC   C3B64749  18.115   3.675   7.053
10105POPC   C4B64750  18.096   3.738   7.353
10106POPC   NC364751  42.351  41.570   5.553
10106POPC   PO464752  42.383  41.601   5.853
10106POPC   GL164753  42.347  41.521   6.153
10106POPC   GL264754  42.490  41.525   6.153
10106POPC   C1A64755  42.349  41.510   6.453
10106POPC   D2A64756  42.328  41.581   6.753
10106POPC   C3A64757  42.308  41.552   7.053
10106POPC   C4A64758  42.384  41.537   7.353
10106POPC   C1B64759  42.566  41.537   6.453
10106POPC   C2B64760  42.563  41.527   6.753
10106POPC   C3B64761  42.572  41.526   7.053
10106POPC   C4B64762  42.538  41.586   7.353
10107POPC   NC364763   0.449  38.469   5.553
10107POPC   PO464764   0.398  38.419   5.853
10107POPC   GL164765   0.404  38.412   6.153
10107POPC   GL264766   0.486  38.317   6.153
10107POPC   C1A64767   0.455  38.447   6.453
10107POPC   D2A64768   0.451  38.412   6.753
10107POPC   C3A64769   0.457  38.489   7.053
10107POPC   C4A64770   0.418  38.482   7.353
10107POPC   C1B64771   0.577  38.255   6.453
10107POPC   C2B64772   0.500  38.180   6.753
10107POPC   C3B64773   0.585  38.217   7.053
10107POPC   C4B64774   0.535  38.215   7.353
10108POPC   NC364775  15.131  12.849   5.553
10108POPC   PO464776  15.186  12.847   5.853
10108POPC   GL164777  15.191  12.825   6.153
10108POPC   GL264778  15.250  12.899   6.153
10108POPC   C1A64779  15.212  12.846   6.453
10108POPC   D2A64780  15.193  12.812   6.753
10108POPC   C3A64781  15.185  12.817   7.053
10108POPC   C4A64782  15.214  12.820   7.353
10108POPC   C1B64783  15.398  13.051   6.453
10108POPC   C2B64784  15.394  13.063   6.753
10108POPC   C3B64785  15.358  13.013   7.053
10108POPC   C4B64786  15.350  13.040   7.353
10109POPC   NC364787  23.681  34.591   5.553
10109POPC   PO464788  23.680  34.594   5.853
10109POPC   GL164789  23.753  34.609   6.153
10109POPC   GL264790  23.839  34.477   6.153
10109POPC   C1A64791  23.722  34.549   6.453
10109POPC   D2A64792  23.691  34.565   6.753
10109POPC   C3A64793  23.758  34.547   7.053
10109POPC   C4A64794  23.690  34.548   7.353
10109POPC   C1B64795  23.898  34.442   6.453
10109POPC   C2B64796  23.857  34.440   6.753
10109POPC   C3B64797  23.895  34.407   7.053
10109POPC   C4B64798  23.858  34.421   7.353
10110POPC   NC364799  14.412   5.135   5.553
10110POPC   PO464800  14.431   5.104   5.853
10110POPC   GL164801  14.384   5.139   6.153
10110POPC   GL264802  14.247   5.091   6.153
10110POPC   C1A64803  14.425   5.097   6.453
10110POPC   D2A64804  14.384   5.071   6.753
10110POPC   C3A64805  14.362   5.068   7.053
10110POPC   C4A64806  14.396   5.082   7.353
10110POPC   C1B64807  14.136   5.019   6.453
10110POPC   C2B64808  14.163   5.032   6.753
10110POPC   C3B64809  14.151   5.019   7.053
10110POPC   C4B64810  14.173   5.064   7.353
10111POPC   NC364811  43.869  44.622   5.553
10111POPC   PO464812  43.837  44.677   5.853
10111POPC   GL164813  43.909  44.638   6.153
10111POPC   GL264814  43.886  44.782   6.153
10111POPC   C1A64815  43.929  44.695   6.453
10111POPC   D2A64816  43.931  44.652   6.753
10111POPC   C3A64817  43.906  44.646   7.053
10111POPC   C4A64818  43.862  44.652   7.353
10111POPC   C1B64819  43.839  44.942   6.453
10111POPC   C2B64820  43.810  44.876   6.753
10111POPC   C3B64821  43.751  44.884   7.053
10111POPC   C4B64822  43.765  44.933   7.353
10112POPC   NC364823  33.006  11.274   5.553
10112POPC   PO464824  33.029  11.300   5.853
10112POPC   GL164825  33.036  11.341   6.153
10112POPC   GL264826  33.032  11.179   6.153
10112POPC   C1A64827  33.051  11.265   6.453
10112POPC   D2A64828  33.062  11.316   6.753
10112POPC   C3A64829  32.999  11.279   7.053
10112POPC   C4A64830  32.976  11.261   7.353
10112POPC   C1B64831  33.146  11.031   6.453
10112POPC   C2B64832  33.163  11.117   6.753
10112POPC   C3B64833  33.154  11.060   7.053
10112POPC   C4B64834  33.137  11.039   7.353
10113POPC   NC364835  20.612  41.536   5.553
10113POPC   PO464836  20.589  41.574   5.853
10113POPC   GL164837  20.648  41.543   6.153
10113POPC   GL264838  20.628  41.697   6.153
10113POPC   C1A64839  20.577  41.552   6.453
10113POPC   D2A64840  20.641  41.522   6.753
10113POPC   C3A64841  20.605  41.549   7.053
10113POPC   C4A64842  20.601  41.537   7.353
10113POPC   C1B64843  20.710  41.776   6.453
10113POPC   C2B64844  20.724  41.817   6.753
10113POPC   C3B64845  20.629  41.763   7.053
10113POPC   C4B64846  20.670  41.778   7.353
10114POPC   NC364847  27.607  33.051   5.553
10114POPC   PO464848  27.583  32.992   5.853
10114POPC   GL164849  27.594  32.988   6.153
10114POPC   GL264850  27.735  33.022   6.153
10114POPC   C1A64851  27.564  33.054   6.453
10114POPC   D2A64852  27.607  33.039   6.753
10114POPC   C3A64853  27.636  33.053   7.053
10114POPC   C4A64854  27.641  33.069   7.353
10114POPC   C1B64855  27.870  33.101   6.453
10114POPC   C2B64856  27.850  33.061   6.753
10114POPC   C3B64857  27.798  33.081   7.053
10114POPC   C4B64858  27.803  33.141   7.353
10115POPC   NC364859  34.582  35.358   5.553
10115POPC   PO464860  34.549  35.365   5.853
10115POPC   GL164861  34.614  35.371   6.153
10115POPC   GL264862  34.548  35.277   6.153
10115POPC   C1A64863  34.573  35.307   6.453
10115POPC   D2A64864  34.554  35.342   6.753
10115POPC   C3A64865  34.594  35.310   7.053
10115POPC   C4A64866  34.612  35.313   7.353
10115POPC   C1B64867  34.582  35.137   6.453
10115POPC   C2B64868  34.495  35.152   6.753
10115POPC   C3B64869  34.511  35.097   7.053
10115POPC   C4B64870  34.492  35.088   7.353
10116POPC   NC364871  21.415  19.801   5.553
10116POPC   PO464872  21.386  19.793   5.853
10116POPC   GL164873  21.429  19.817   6.153
10116POPC   GL264874  21.295  19.882   6.153
10116POPC   C1A64875  21.371  19.857   6.453
10116POPC   D2A64876  21.352  19.855   6.753
10116POPC   C3A64877  21.421  19.803   7.053
10116POPC   C4A64878  21.392  19.839   7.353
10116POPC   C1B64879  21.105  19.920   6.453
10116POPC   C2B64880  21.196  19.917   6.753
10116POPC   C3B64881  21.138  19.934   7.053
10116POPC   C4B64882  21.197  19.964   7.353
10117POPC   NC364883   5.121  43.109   5.553
10117POPC   PO464884   5.047  43.084   5.853
10117POPC   GL164885   5.086  43.100   6.153
10117POPC   GL264886   5.230  43.132   6.153
10117POPC   C1A64887   5.129  43.158   6.453
10117POPC   D2A64888   5.085  43.106   6.753
10117POPC   C3A64889   5.064  43.064   7.053
10117POPC   C4A64890   5.140  43.087   7.353
10117POPC   C1B64891   5.359  43.131   6.453
10117POPC   C2B64892   5.361  43.095   6.753
10117POPC   C3B64893   5.327  43.087   7.053
10117POPC   C4B64894   5.304  43.075   7.353
10118POPC   NC364895   5.092  21.349   5.553
10118POPC   PO464896   5.111  21.408   5.853
10118POPC   GL164897   5.103  21.385   6.153
10118POPC   GL264898   5.021  21.262   6.153
10118POPC   C1A64899   5.130  21.402   6.453
10118POPC   D2A64900   5.069  21.381   6.753
10118POPC   C3A64901   5.055  21.389   7.053
10118POPC   C4A64902   5.052  21.343   7.353
10118POPC   C1B64903   4.990  21.154   6.453
10118POPC   C2B64904   5.004  21.124   6.753
10118POPC   C3B64905   5.010  21.134   7.053
10118POPC   C4B64906   4.982  21.116   7.353
10119POPC   NC364907  35.306  33.839   5.553
10119POPC   PO464908  35.345  33.768   5.853
10119POPC   GL164909  35.362  33.805   6.153
10119POPC   GL264910  35.314  33.913   6.153
10119POPC   C1A64911  35.398  33.764   6.453
10119POPC   D2A64912  35.368  33.768   6.753
10119POPC   C3A64913  35.311  33.804   7.053
10119POPC   C4A64914  35.306  33.817   7.353
10119POPC   C1B64915  35.235  33.944   6.453
10119POPC   C2B64916  35.154  33.991   6.753
10119POPC   C3B64917  35.169  33.941   7.053
10119POPC   C4B64918  35.150  33.982   7.353
10120POPC   NC364919  28.391  15.966   5.553
10120POPC   PO464920  28.394  15.970   5.853
10120POPC   GL164921  28.359  15.952   6.153
10120POPC   GL264922  28.271  15.955   6.153
10120POPC   C1A64923  28.355  15.997   6.453
10120POPC   D2A64924  28.356  15.994   6.753
10120POPC   C3A64925  28.390  15.928   7.053
10120POPC   C4A64926  28.325  15.943   7.353
10120POPC   C1B64927  28.133  15.962   6.453
10120POPC   C2B64928  28.084  15.899   6.753
10120POPC   C3B64929  28.147  15.918   7.053
10120POPC   C4B64930  28.095  15.932   7.353
10121POPC   NC364931  23.720  31.475   5.553
10121POPC   PO464932  23.710  31.486   5.853
10121POPC   GL164933  23.747  31.487   6.153
10121POPC   GL264934  23.670  31.433   6.153
10121POPC   C1A64935  23.699  31.493   6.453
10121POPC   D2A64936  23.718  31.437   6.753
10121POPC   C3A64937  23.698  31.510   7.053
10121POPC   C4A64938  23.727  31.515   7.353
10121POPC   C1B64939  23.495  31.335   6.453
10121POPC   C2B64940  23.556  31.326   6.753
10121POPC   C3B64941  23.511  31.251   7.053
10121POPC   C4B64942  23.569  31.277   7.353
10122POPC   NC364943  13.580  29.167   5.553
10122POPC   PO464944  13.615  29.174   5.853
10122POPC   GL164945  13.586  29.170   6.153
10122POPC   GL264946  13.590  29.233   6.153
10122POPC   C1A64947  13.671  29.180   6.453
10122POPC   D2A64948  13.632  29.147   6.753
10122POPC   C3A64949  13.660  29.127   7.053
10122POPC   C4A64950  13.663  29.182   7.353
10122POPC   C1B64951  13.523  29.412   6.453
10122POPC   C2B64952  13.530  29.368   6.753
10122POPC   C3B64953  13.520  29.413   7.053
10122POPC   C4B64954  13.484  29.332   7.353
10123POPC   NC364955  36.942   8.215   5.553
10123POPC   PO464956  36.941   8.150   5.853
10123POPC   GL164957  36.930   8.158   6.153
10123POPC   GL264958  37.036   8.216   6.153
10123POPC   C1A64959  36.911   8.220   6.453
10123POPC   D2A64960  36.897   8.219   6.753
10123POPC   C3A64961  36.928   8.172   7.053
10123POPC   C4A64962  36.861   8.183   7.353
10123POPC   C1B64963  37.160   8.296   6.453
10123POPC   C2B64964  37.106   8.225   6.753
10123POPC   C3B64965  37.172   8.231   7.053
10123POPC   C4B64966  37.187   8.265   7.353
10124POPC   NC364967  43.100  26.038   5.553
10124POPC   PO464968  43.142  26.050   5.853
10124POPC   GL164969  43.153  26.026   6.153
10124POPC   GL264970  43.165  26.004   6.153
10124POPC   C1A64971  43.073  26.048   6.453
10124POPC   D2A64972  43.124  26.082   6.753
10124POPC   C3A64973  43.137  26.024   7.053
10124POPC   C4A64974  43.120  26.022   7.353
10124POPC   C1B64975  43.353  25.863   6.453
10124POPC   C2B64976  43.361  25.921   6.753
10124POPC   C3B64977  43.340  25.874   7.053
10124POPC   C4B64978  43.345  25.934   7.353
10125POPC   NC364979  35.379   9.768   5.553
10125POPC   PO464980  35.397   9.729   5.853
10125POPC   GL164981  35.386   9.737   6.153
10125POPC   GL264982  35.412   9.605   6.153
10125POPC   C1A64983  35.336   9.715   6.453
10125POPC   D2A64984  35.313   9.780   6.753
10125POPC   C3A64985  35.312   9.748   7.053
10125POPC   C4A64986  35.379   9.729   7.353
10125POPC   C1B64987  35.417   9.483   6.453
10125POPC   C2B64988  35.467   9.494   6.753
10125POPC   C3B64989  35.514   9.566   7.053
10125POPC   C4B64990  35.481   9.567   7.353
10126POPC   NC364991  35.399   2.772   5.553
10126POPC   PO464992  35.311   2.749   5.853
10126POPC   GL164993  35.348   2.744   6.153
10126POPC   GL264994  35.369   2.886   6.153
10126POPC   C1A64995  35.387   2.766   6.453
10126POPC   D2A64996  35.302   2.809   6.753
10126POPC   C3A64997  35.385   2.783   7.053
10126POPC   C4A64998  35.399   2.728   7.353
10126POPC   C1B64999  35.314   3.016   6.453
10126POPC   C2B65000  35.360   3.062   6.753
10126POPC   C3B65001  35.373   2.988   7.053
10126POPC   C4B65002  35.351   2.999   7.353
10127POPC   NC365003  31.429  16.700   5.553
10127POPC   PO465004  31.431  16.743   5.853
10127POPC   GL165005  31.491  16.697   6.153
10127POPC   GL265006  31.563  16.659   6.153
10127POPC   C1A65007  31.503  16.772   6.453
10127POPC   D2A65008  31.436  16.725   6.753
10127POPC   C3A65009  31.477  16.707   7.053
10127POPC   C4A65010  31.521  16.718   7.353
10127POPC   C1B65011  31.597  16.544   6.453
10127POPC   C2B65012  31.539  16.524   6.753
10127POPC   C3B65013  31.558  16.471   7.053
10127POPC   C4B65014  31.570  16.469   7.353
10128POPC   NC365015  43.912  30.699   5.553
10128POPC   PO465016  43.863  30.650   5.853
10128POPC   GL165017  43.893  30.679   6.153
10128POPC   GL265018  43.961  30.662   6.153
10128POPC   C1A65019  43.894  30.652   6.453
10128POPC   D2A65020  43.896  30.683   6.753
10128POPC   C3A65021  43.884  30.671   7.053
10128POPC   C4A65022  43.904  30.681   7.353
10128POPC   C1B65023  44.091  30.674   6.453
10128POPC   C2B65024  44.145  30.690   6.753
10128POPC   C3B65025  44.108  30.697   7.053
10128POPC   C4B65026  44.136  30.738   7.353
10129POPC   NC365027   0.400  17.519   5.553
10129POPC   PO465028   0.482  17.471   5.853
10129POPC   GL165029   0.473  17.553   6.153
10129POPC   GL265030   0.480  17.635   6.153
10129POPC   C1A65031   0.444  17.539   6.453
10129POPC   D2A65032   0.409  17.551   6.753
10129POPC   C3A65033   0.418  17.534   7.053
10129POPC   C4A65034   0.411  17.555   7.353
10129POPC   C1B65035   0.438  17.727   6.453
10129POPC   C2B65036   0.422  17.755   6.753
10129POPC   C3B65037   0.395  17.750   7.053
10129POPC   C4B65038   0.447  17.770   7.353
10130POPC   NC365039   8.987  17.468   5.553
10130POPC   PO465040   9.013  17.505   5.853
10130POPC   GL165041   9.007  17.505   6.153
10130POPC   GL265042   9.083  17.455   6.153
10130POPC   C1A65043   8.993  17.507   6.453
10130POPC   D2A65044   8.978  17.553   6.753
10130POPC   C3A65045   9.001  17.539   7.053
10130POPC   C4A65046   9.022  17.553   7.353
10130POPC   C1B65047   9.196  17.388   6.453
10130POPC   C2B65048   9.165  17.339   6.753
10130POPC   C3B65049   9.176  17.401   7.053
10130POPC   C4B65050   9.164  17.316   7.353
10131POPC   NC365051  19.788  11.270   5.553
10131POPC   PO465052  19.874  11.253   5.853
10131POPC   GL165053  19.862  11.275   6.153
10131POPC   GL265054  19.939  11.208   6.153
10131POPC   C1A65055  19.862  11.305   6.453
10131POPC   D2A65056  19.868  11.286   6.753
10131POPC   C3A65057  19.805  11.346   7.053
10131POPC   C4A65058  19.847  11.332   7.353
10131POPC   C1B65059  19.961  11.080   6.453
10131POPC   C2B65060  19.937  11.075   6.753
10131POPC   C3B65061  19.946  11.081   7.053
10131POPC   C4B65062  19.934  11.095   7.353
10132POPC   NC365063   1.198  44.706   5.553
10132POPC   PO465064   1.207  44.654   5.853
10132POPC   GL165065   1.235  44.623   6.153
10132POPC   GL265066   1.371  44.618   6.153
10132POPC   C1A65067   1.245  44.693   6.453
10132POPC   D2A65068   1.227  44.670   6.753
10132POPC   C3A65069   1.263  44.637   7.053
10132POPC   C4A65070   1.166  44.649   7.353
10132POPC   C1B65071   1.452  44.577   6.453
10132POPC   C2B65072   1.407  44.581   6.753
10132POPC   C3B65073   1.446  44.521   7.053
10132POPC   C4B65074   1.430  44.552   7.353
10133POPC   NC365075  43.088  41.580   5.553
10133POPC   PO465076  43.063  41.538   5.853
10133POPC   GL165077  43.065  41.563   6.153
10133POPC   GL265078  43.102  41.390   6.153
10133POPC   C1A65079  43.133  41.532   6.453
10133POPC   D2A65080  43.143  41.536   6.753
10133POPC   C3A65081  43.153  41.520   7.053
10133POPC   C4A65082  43.138  41.578   7.353
10133POPC   C1B65083  43.119  41.306   6.453
10133POPC   C2B65084  43.077  41.290   6.753
10133POPC   C3B65085  43.048  41.347   7.053
10133POPC   C4B65086  43.023  41.329   7.353
10134POPC   NC365087  23.691  30.705   5.553
10134POPC   PO465088  23.752  30.692   5.853
10134POPC   GL165089  23.750  30.719   6.153
10134POPC   GL265090  23.817  30.738   6.153
10134POPC   C1A65091  23.762  30.688   6.453
10134POPC   D2A65092  23.665  30.696   6.753
10134POPC   C3A65093  23.669  30.703   7.053
10134POPC   C4A65094  23.680  30.668   7.353
10134POPC   C1B65095  23.868  30.870   6.453
10134POPC   C2B65096  23.885  30.859   6.753
10134POPC   C3B65097  23.850  30.842   7.053
10134POPC   C4B65098  23.843  30.855   7.353
10135POPC   NC365099  35.391  22.899   5.553
10135POPC   PO465100  35.401  22.912   5.853
10135POPC   GL165101  35.304  22.962   6.153
10135POPC   GL265102  35.448  22.939   6.153
10135POPC   C1A65103  35.313  22.957   6.453
10135POPC   D2A65104  35.318  22.892   6.753
10135POPC   C3A65105  35.369  22.958   7.053
10135POPC   C4A65106  35.361  22.901   7.353
10135POPC   C1B65107  35.597  22.895   6.453
10135POPC   C2B65108  35.646  22.893   6.753
10135POPC   C3B65109  35.569  22.890   7.053
10135POPC   C4B65110  35.632  22.869   7.353
10136POPC   NC365111  19.061  42.339   5.553
10136POPC   PO465112  19.108  42.318   5.853
10136POPC   GL165113  19.089  42.358   6.153
10136POPC   GL265114  19.151  42.442   6.153
10136POPC   C1A65115  19.085  42.373   6.453
10136POPC   D2A65116  19.062  42.354   6.753
10136POPC   C3A65117  19.031  42.343   7.053
10136POPC   C4A65118  19.009  42.381   7.353
10136POPC   C1B65119  19.219  42.462   6.453
10136POPC   C2B65120  19.233  42.479   6.753
10136POPC   C3B65121  19.255  42.446   7.053
10136POPC   C4B65122  19.257  42.489   7.353
10137POPC   NC365123  29.163  40.812   5.553
10137POPC   PO465124  29.106  40.751   5.853
10137POPC   GL165125  29.172  40.758   6.153
10137POPC   GL265126  29.251  40.842   6.153
10137POPC   C1A65127  29.165  40.813   6.453
10137POPC   D2A65128  29.195  40.774   6.753
10137POPC   C3A65129  29.145  40.773   7.053
10137POPC   C4A65130  29.159  40.798   7.353
10137POPC   C1B65131  29.385  40.907   6.453
10137POPC   C2B65132  29.301  40.945   6.753
10137POPC   C3B65133  29.394  40.886   7.053
10137POPC   C4B65134  29.324  40.975   7.353
10138POPC   NC365135  41.511  31.482   5.553
10138POPC   PO465136  41.571  31.521   5.853
10138POPC   GL165137  41.599  31.504   6.153
10138POPC   GL265138  41.494  31.386   6.153
10138POPC   C1A65139  41.604  31.473   6.453
10138POPC   D2A65140  41.546  31.437   6.753
10138POPC   C3A65141  41.542  31.506   7.053
10138POPC   C4A65142  41.526  31.435   7.353
10138POPC   C1B65143  41.510  31.247   6.453
10138POPC   C2B65144  41.542  31.190   6.753
10138POPC   C3B65145  41.534  31.193   7.053
10138POPC   C4B65146  41.560  31.221   7.353
10139POPC   NC365147  34.534  36.867   5.553
10139POPC   PO465148  34.604  36.897   5.853
10139POPC   GL165149  34.603  36.879   6.153
10139POPC   GL265150  34.673  37.036   6.153
10139POPC   C1A65151  34.604  36.890   6.453
10139POPC   D2A65152  34.609  36.932   6.753
10139POPC   C3A65153  34.528  36.856   7.053
10139POPC   C4A65154  34.536  36.921   7.353
10139POPC   C1B65155  34.655  37.132   6.453
10139POPC   C2B65156  34.695  37.167   6.753
10139POPC   C3B65157  34.726  37.101   7.053
10139POPC   C4B65158  34.723  37.088   7.353
10140POPC   NC365159   5.062   5.110   5.553
10140POPC   PO465160   5.094   5.113   5.853
10140POPC   GL165161   5.125   5.119   6.153
10140POPC   GL265162   5.144   5.164   6.153
10140POPC   C1A65163   5.111   5.135   6.453
10140POPC   D2A65164   5.109   5.137   6.753
10140POPC   C3A65165   5.098   5.136   7.053
10140POPC   C4A65166   5.070   5.118   7.353
10140POPC   C1B65167   5.232   5.292   6.453
10140POPC   C2B65168   5.155   5.305   6.753
10140POPC   C3B65169   5.198   5.273   7.053
10140POPC   C4B65170   5.199   5.282   7.353
10141POPC   NC365171  15.960  33.764   5.553
10141POPC   PO465172  15.912  33.847   5.853
10141POPC   GL165173  15.944  33.812   6.153
10141POPC   GL265174  15.872  33.916   6.153
10141POPC   C1A65175  15.999  33.753   6.453
10141POPC   D2A65176  15.929  33.785   6.753
10141POPC   C3A65177  15.964  33.828   7.053
10141POPC   C4A65178  15.951  33.787   7.353
10141POPC   C1B65179  15.788  34.009   6.453
10141POPC   C2B65180  15.761  33.991   6.753
10141POPC   C3B65181  15.824  34.030   7.053
10141POPC   C4B65182  15.783  34.010   7.353
10142POPC   NC365183   7.470  14.450   5.553
10142POPC   PO465184   7.462  14.370   5.853
10142POPC   GL165185   7.462  14.416   6.153
10142POPC   GL265186   7.344  14.435   6.153
10142POPC   C1A65187   7.437  14.426   6.453
10142POPC   D2A65188   7.456  14.373   6.753
10142POPC   C3A65189   7.374  14.444   7.053
10142POPC   C4A65190   7.462  14.392   7.353
10142POPC   C1B65191   7.140  14.331   6.453
10142POPC   C2B65192   7.177  14.324   6.753
10142POPC   C3B65193   7.188  14.325   7.053
10142POPC   C4B65194   7.132  14.356   7.353
10143POPC   NC365195   2.802   2.732   5.553
10143POPC   PO465196   2.806   2.777   5.853
10143POPC   GL165197   2.750   2.801   6.153
10143POPC   GL265198   2.875   2.759   6.153
10143POPC   C1A65199   2.764   2.725   6.453
10143POPC   D2A65200   2.721   2.757   6.753
10143POPC   C3A65201   2.722   2.747   7.053
10143POPC   C4A65202   2.785   2.725   7.353
10143POPC   C1B65203   2.988   2.748   6.453
10143POPC   C2B65204   3.037   2.738   6.753
10143POPC   C3B65205   2.987   2.736   7.053
10143POPC   C4B65206   3.010   2.709   7.353
10144POPC   NC365207  15.925  43.847   5.553
10144POPC   PO465208  15.959  43.889   5.853
10144POPC   GL165209  15.967  43.854   6.153
10144POPC   GL265210  16.031  43.868   6.153
10144POPC   C1A65211  15.945  43.852   6.453
10144POPC   D2A65212  15.925  43.895   6.753
10144POPC   C3A65213  16.001  43.902   7.053
10144POPC   C4A65214  15.928  43.891   7.353
10144POPC   C1B65215  16.188  43.895   6.453
10144POPC   C2B65216  16.225  43.902   6.753
10144POPC   C3B65217  16.198  43.863   7.053
10144POPC   C4B65218  16.193  43.857   7.353
10145POPC   NC365219   3.544  12.117   5.553
10145POPC   PO465220   3.501  12.055   5.853
10145POPC   GL165221   3.526  12.037   6.153
10145POPC   GL265222   3.402  12.057   6.153
10145POPC   C1A65223   3.529  12.074   6.453
10145POPC   D2A65224   3.501  12.113   6.753
10145POPC   C3A65225   3.555  12.099   7.053
10145POPC   C4A65226   3.538  12.066   7.353
10145POPC   C1B65227   3.318  12.086   6.453
10145POPC   C2B65228   3.317  12.077   6.753
10145POPC   C3B65229   3.315  12.097   7.053
10145POPC   C4B65230   3.342  12.097   7.353
10146POPC   NC365231   4.355  34.579   5.553
10146POPC   PO465232   4.293  34.548   5.853
10146POPC   GL165233   4.327  34.598   6.153
10146POPC   GL265234   4.303  34.456   6.153
10146POPC   C1A65235   4.350  34.552   6.453
10146POPC   D2A65236   4.308  34.538   6.753
10146POPC   C3A65237   4.339  34.597   7.053
10146POPC   C4A65238   4.352  34.612   7.353
10146POPC   C1B65239   4.235  34.396   6.453
10146POPC   C2B65240   4.227  34.393   6.753
10146POPC   C3B65241   4.228  34.347   7.053
10146POPC   C4B65242   4.184  34.350   7.353
10147POPC   NC365243  29.189   5.842   5.553
10147POPC   PO465244  29.144   5.855   5.853
10147POPC   GL165245  29.149   5.914   6.153
10147POPC   GL265246  29.050   5.963   6.153
10147POPC   C1A65247  29.186   5.823   6.453
10147POPC   D2A65248  29.172   5.856   6.753
10147POPC   C3A65249  29.127   5.868   7.053
10147POPC   C4A65250  29.122   5.844   7.353
10147POPC   C1B65251  28.966   6.031   6.453
10147POPC   C2B65252  28.915   6.022   6.753
10147POPC   C3B65253  28.939   6.011   7.053
10147POPC   C4B65254  28.971   5.983   7.353
10148POPC   NC365255  28.356   2.030   5.553
10148POPC   PO465256  28.359   2.031   5.853
10148POPC   GL165257  28.398   1.964   6.153
10148POPC   GL265258  28.334   1.835   6.153
10148POPC   C1A65259  28.375   1.986   6.453
10148POPC   D2A65260  28.347   2.001   6.753
10148POPC   C3A65261  28.339   1.994   7.053
10148POPC   C4A65262  28.328   2.023   7.353
10148POPC   C1B65263  28.324   1.700   6.453
10148POPC   C2B65264  28.351   1.760   6.753
10148POPC   C3B65265  28.353   1.700   7.053
10148POPC   C4B65266  28.302   1.713   7.353
10149POPC   NC365267  40.779  44.684   5.553
10149POPC   PO465268  40.789  44.662   5.853
10149POPC   GL165269  40.814  44.622   6.153
10149POPC   GL265270  40.693  44.597   6.153
10149POPC   C1A65271  40.760  44.616   6.453
10149POPC   D2A65272  40.778  44.623   6.753
10149POPC   C3A65273  40.756  44.711   7.053
10149POPC   C4A65274  40.788  44.619   7.353
10149POPC   C1B65275  40.609  44.501   6.453
10149POPC   C2B65276  40.523  44.490   6.753
10149POPC   C3B65277  40.538  44.512   7.053
10149POPC   C4B65278  40.593  44.492   7.353
10150POPC   NC365279  23.756   2.745   5.553
10150POPC   PO465280  23.666   2.808   5.853
10150POPC   GL165281  23.693   2.750   6.153
10150POPC   GL265282  23.744   2.882   6.153
10150POPC   C1A65283  23.750   2.748   6.453
10150POPC   D2A65284  23.685   2.770   6.753
10150POPC   C3A65285  23.668   2.799   7.053
10150POPC   C4A65286  23.724   2.761   7.353
10150POPC   C1B65287  23.757   3.045   6.453
10150POPC   C2B65288  23.741   3.033   6.753
10150POPC   C3B65289  23.777   3.030   7.053
10150POPC   C4B65290  23.777   3.030   7.353
10151POPC   NC365291  19.873  14.405   5.553
10151POPC   PO465292  19.840  14.376   5.853
10151POPC   GL165293  19.853  14.364   6.153
10151POPC   GL265294  19.727  14.378   6.153
10151POPC   C1A65295  19.850  14.450   6.453
10151POPC   D2A65296  19.849  14.388   6.753
10151POPC   C3A65297  19.814  14.434   7.053
10151POPC   C4A65298  19.802  14.388   7.353
10151POPC   C1B65299  19.544  14.455   6.453
10151POPC   C2B65300  19.559  14.394   6.753
10151POPC   C3B65301  19.552  14.411   7.053
10151POPC   C4B65302  19.591  14.393   7.353
10152POPC   NC365303  35.377  29.184   5.553
10152POPC   PO465304  35.334  29.108   5.853
10152POPC   GL165305  35.350  29.152   6.153
10152POPC   GL265306  35.356  29.025   6.153
10152POPC   C1A65307  35.392  29.129   6.453
10152POPC   D2A65308  35.324  29.185   6.753
10152POPC   C3A65309  35.346  29.162   7.053
10152POPC   C4A65310  35.333  29.105   7.353
10152POPC   C1B65311  35.405  28.875   6.453
10152POPC   C2B65312  35.404  28.857   6.753
10152POPC   C3B65313  35.418  28.861   7.053
10152POPC   C4B65314  35.330  28.921   7.353
10153POPC   NC365315  42.299  21.411   5.553
10153POPC   PO465316  42.354  21.418   5.853
10153POPC   GL165317  42.376  21.346   6.153
10153POPC   GL265318  42.234  21.323   6.153
10153POPC   C1A65319  42.296  21.360   6.453
10153POPC   D2A65320  42.315  21.397   6.753
10153POPC   C3A65321  42.308  21.419   7.053
10153POPC   C4A65322  42.383  21.345   7.353
10153POPC   C1B65323  42.102  21.250   6.453
10153POPC   C2B65324  42.106  21.206   6.753
10153POPC   C3B65325  42.167  21.270   7.053
10153POPC   C4B65326  42.107  21.241   7.353
10154POPC   NC365327   1.174  37.692   5.553
10154POPC   PO465328   1.214  37.678   5.853
10154POPC   GL165329   1.184  37.721   6.153
10154POPC   GL265330   1.241  37.537   6.153
10154POPC   C1A65331   1.200  37.632   6.453
10154POPC   D2A65332   1.172  37.658   6.753
10154POPC   C3A65333   1.239  37.717   7.053
10154POPC   C4A65334   1.195  37.673   7.353
10154POPC   C1B65335   1.359  37.433   6.453
10154POPC   C2B65336   1.337  37.488   6.753
10154POPC   C3B65337   1.359  37.485   7.053
10154POPC   C4B65338   1.409  37.482   7.353
10155POPC   NC365339   0.444   3.573   5.553
10155POPC   PO465340   0.402   3.540   5.853
10155POPC   GL165341   0.447   3.561   6.153
10155POPC   GL265342   0.413   3.658   6.153
10155POPC   C1A65343   0.468   3.555   6.453
10155POPC   D2A65344   0.477   3.588   6.753
10155POPC   C3A65345   0.400   3.517   7.053
10155POPC   C4A65346   0.466   3.510   7.353
10155POPC   C1B65347   0.441   3.792   6.453
10155POPC   C2B65348   0.447   3.799   6.753
10155POPC   C3B65349   0.431   3.764   7.053
10155POPC   C4B65350   0.419   3.776   7.353
10156POPC   NC365351  22.164  41.551   5.553
10156POPC   PO465352  22.200  41.553   5.853
10156POPC   GL165353  22.127  41.539   6.153
10156POPC   GL265354  22.117  41.690   6.153
10156POPC   C1A65355  22.180  41.567   6.453
10156POPC   D2A65356  22.198  41.541   6.753
10156POPC   C3A65357  22.189  41.578   7.053
10156POPC   C4A65358  22.167  41.581   7.353
10156POPC   C1B65359  22.027  41.717   6.453
10156POPC   C2B65360  21.973  41.705   6.753
10156POPC   C3B65361  22.043  41.794   7.053
10156POPC   C4B65362  21.985  41.749   7.353
10157POPC   NC365363  15.937   4.304   5.553
10157POPC   PO465364  15.930   4.336   5.853
10157POPC   GL165365  15.984   4.319   6.153
10157POPC   GL265366  15.866   4.464   6.153
10157POPC   C1A65367  15.923   4.357   6.453
10157POPC   D2A65368  16.003   4.271   6.753
10157POPC   C3A65369  15.934   4.303   7.053
10157POPC   C4A65370  15.969   4.357   7.353
10157POPC   C1B65371  15.831   4.565   6.453
10157POPC   C2B65372  15.811   4.521   6.753
10157POPC   C3B65373  15.813   4.593   7.053
10157POPC   C4B65374  15.891   4.569   7.353
10158POPC   NC365375  18.312  40.798   5.553
10158POPC   PO465376  18.311  40.775   5.853
10158POPC   GL165377  18.259  40.768   6.153
10158POPC   GL265378  18.430  40.849   6.153
10158POPC   C1A65379  18.307  40.800   6.453
10158POPC   D2A65380  18.261  40.808   6.753
10158POPC   C3A65381  18.282  40.758   7.053
10158POPC   C4A65382  18.241  40.753   7.353
10158POPC   C1B65383  18.508  40.800   6.453
10158POPC   C2B65384  18.497  40.799   6.753
10158POPC   C3B65385  18.491  40.828   7.053
10158POPC   C4B65386  18.552  40.833   7.353
10159POPC   NC365387  24.457  15.927   5.553
10159POPC   PO465388  24.444  15.932   5.853
10159POPC   GL165389  24.508  15.927   6.153
10159POPC   GL265390  24.517  15.857   6.153
10159POPC   C1A65391  24.485  16.003   6.453
10159POPC   D2A65392  24.483  15.986   6.753
10159POPC   C3A65393  24.479  15.986   7.053
10159POPC   C4A65394  24.467  15.984   7.353
10159POPC   C1B65395  24.628  15.758   6.453
10159POPC   C2B65396  24.559  15.717   6.753
10159POPC   C3B65397  24.553  15.696   7.053
10159POPC   C4B65398  24.589  15.759   7.353
10160POPC   NC365399   4.283   2.038   5.553
10160POPC   PO465400   4.363   2.015   5.853
10160POPC   GL165401   4.327   1.988   6.153
10160POPC   GL265402   4.369   2.075   6.153
10160POPC   C1A65403   4.366   1.963   6.453
10160POPC   D2A65404   4.317   2.010   6.753
10160POPC   C3A65405   4.323   1.982   7.053
10160POPC   C4A65406   4.279   2.020   7.353
10160POPC   C1B65407   4.403   2.245   6.453
10160POPC   C2B65408   4.438   2.246   6.753
10160POPC   C3B65409   4.404   2.228   7.053
10160POPC   C4B65410   4.391   2.240   7.353
10161POPC   NC365411  28.330  18.309   5.553
10161POPC   PO465412  28.365  18.304   5.853
10161POPC   GL165413  28.347  18.315   6.153
10161POPC   GL265414  28.267  18.262   6.153
10161POPC   C1A65415  28.370  18.233   6.453
10161POPC   D2A65416  28.404  18.307   6.753
10161POPC   C3A65417  28.361  18.239   7.053
10161POPC   C4A65418  28.327  18.251   7.353
10161POPC   C1B65419  28.080  18.234   6.453
10161POPC   C2B65420  28.091  18.191   6.753
10161POPC   C3B65421  28.116  18.217   7.053
10161POPC   C4B65422  28.097  18.264   7.353
10162POPC   NC365423  31.440  24.492   5.553
10162POPC   PO465424  31.460  24.484   5.853
10162POPC   GL165425  31.500  24.483   6.153
10162POPC   GL265426  31.411  24.350   6.153
10162POPC   C1A65427  31.465  24.452   6.453
10162POPC   D2A65428  31.478  24.453   6.753
10162POPC   C3A65429  31.493  24.508   7.053
10162POPC   C4A65430  31.471  24.442   7.353
10162POPC   C1B65431  31.383  24.295   6.453
10162POPC   C2B65432  31.433  24.219   6.753
10162POPC   C3B65433  31.376  24.242   7.053
10162POPC   C4B65434  31.350  24.227   7.353
10163POPC   NC365435  12.849   6.608   5.553
10163POPC   PO465436  12.808   6.646   5.853
10163POPC   GL165437  12.899   6.689   6.153
10163POPC   GL265438  12.907   6.505   6.153
10163POPC   C1A65439  12.825   6.604   6.453
10163POPC   D2A65440  12.888   6.662   6.753
10163POPC   C3A65441  12.874   6.616   7.053
10163POPC   C4A65442  12.871   6.605   7.353
10163POPC   C1B65443  12.992   6.485   6.453
10163POPC   C2B65444  12.972   6.451   6.753
10163POPC   C3B65445  13.055   6.461   7.053
10163POPC   C4B65446  13.066   6.460   7.353
10164POPC   NC365447  25.219  41.604   5.553
10164POPC   PO465448  25.277  41.591   5.853
10164POPC   GL165449  25.258  41.530   6.153
10164POPC   GL265450  25.339  41.638   6.153
10164POPC   C1A65451  25.252  41.575   6.453
10164POPC   D2A65452  25.262  41.588   6.753
10164POPC   C3A65453  25.296  41.564   7.053
10164POPC   C4A65454  25.243  41.563   7.353
10164POPC   C1B65455  25.385  41.785   6.453
10164POPC   C2B65456  25.387  41.740   6.753
10164POPC   C3B65457  25.383  41.783   7.053
10164POPC   C4B65458  25.370  41.798   7.353
10165POPC   NC365459  24.531  44.638   5.553
10165POPC   PO465460  24.456  44.678   5.853
10165POPC   GL165461  24.457  44.679   6.153
10165POPC   GL265462  24.594  44.610   6.153
10165POPC   C1A65463  24.503  44.619   6.453
10165POPC   D2A65464  24.496  44.655   6.753
10165POPC   C3A65465  24.504  44.706   7.053
10165POPC   C4A65466  24.472  44.682   7.353
10165POPC   C1B65467  24.731  44.609   6.453
10165POPC   C2B65468  24.758  44.670   6.753
10165POPC   C3B65469  24.781  44.678   7.053
10165POPC   C4B65470  24.736  44.675   7.353
10166POPC   NC365471   5.142  43.853   5.553
10166POPC   PO465472   5.067  43.903   5.853
10166POPC   GL165473   5.124  43.851   6.153
10166POPC   GL265474   5.108  43.803   6.153
10166POPC   C1A65475   5.114  43.852   6.453
10166POPC   D2A65476   5.047  43.932   6.753
10166POPC   C3A65477   5.124  43.922   7.053
10166POPC   C4A65478   5.079  43.867   7.353
10166POPC   C1B65479   5.086  43.596   6.453
10166POPC   C2B65480   5.070  43.629   6.753
10166POPC   C3B65481   5.101  43.629   7.053
10166POPC   C4B65482   5.078  43.649   7.353
10167POPC   NC365483  32.291  38.444   5.553
10167POPC   PO465484  32.230  38.470   5.853
10167POPC   GL165485  32.225  38.467   6.153
10167POPC   GL265486  32.170  38.549   6.153
10167POPC   C1A65487  32.263  38.441   6.453
10167POPC   D2A65488  32.264  38.442   6.753
10167POPC   C3A65489  32.255  38.439   7.053
10167POPC   C4A65490  32.212  38.502   7.353
10167POPC   C1B65491  32.006  38.562   6.453
10167POPC   C2B65492  32.075  38.585   6.753
10167POPC   C3B65493  32.050  38.604   7.053
10167POPC   C4B65494  32.016  38.637   7.353
10168POPC   NC365495  42.322  14.443   5.553
10168POPC   PO465496  42.291  14.410   5.853
10168POPC   GL165497  42.326  14.436   6.153
10168POPC   GL265498  42.234  14.535   6.153
10168POPC   C1A65499  42.286  14.368   6.453
10168POPC   D2A65500  42.287  14.430   6.753
10168POPC   C3A65501  42.325  14.355   7.053
10168POPC   C4A65502  42.380  14.396   7.353
10168POPC   C1B65503  42.146  14.659   6.453
10168POPC   C2B65504  42.147  14.637   6.753
10168POPC   C3B65505  42.170  14.659   7.053
10168POPC   C4B65506  42.201  14.570   7.353
10169POPC   NC365507   8.214  42.304   5.553
10169POPC   PO465508   8.150  42.314   5.853
10169POPC   GL165509   8.197  42.336   6.153
10169POPC   GL265510   8.359  42.338   6.153
10169POPC   C1A65511   8.205  42.323   6.453
10169POPC   D2A65512   8.222  42.293   6.753
10169POPC   C3A65513   8.185  42.286   7.053
10169POPC   C4A65514   8.190  42.318   7.353
10169POPC   C1B65515   8.459  42.343   6.453
10169POPC   C2B65516   8.494  42.278   6.753
10169POPC   C3B65517   8.459  42.292   7.053
10169POPC   C4B65518   8.496  42.350   7.353
10170POPC   NC365519  22.903  15.999   5.553
10170POPC   PO465520  22.956  15.990   5.853
10170POPC   GL165521  22.916  15.971   6.153
10170POPC   GL265522  23.062  16.021   6.153
10170POPC   C1A65523  22.929  15.986   6.453
10170POPC   D2A65524  22.942  16.004   6.753
10170POPC   C3A65525  22.955  15.967   7.053
10170POPC   C4A65526  22.899  15.980   7.353
10170POPC   C1B65527  23.061  16.153   6.453
10170POPC   C2B65528  23.134  16.099   6.753
10170POPC   C3B65529  23.157  16.135   7.053
10170POPC   C4B65530  23.149  16.145   7.353
10171POPC   NC365531  39.264  22.930   5.553
10171POPC   PO465532  39.214  22.897   5.853
10171POPC   GL165533  39.192  22.917   6.153
10171POPC   GL265534  39.184  23.018   6.153
10171POPC   C1A65535  39.244  22.936   6.453
10171POPC   D2A65536  39.220  22.970   6.753
10171POPC   C3A65537  39.264  22.924   7.053
10171POPC   C4A65538  39.227  22.910   7.353
10171POPC   C1B65539  39.238  23.189   6.453
10171POPC   C2B65540  39.201  23.220   6.753
10171POPC   C3B65541  39.253  23.219   7.053
10171POPC   C4B65542  39.201  23.159   7.353
10172POPC   NC365543  25.305  29.968   5.553
10172POPC   PO465544  25.227  29.920   5.853
10172POPC   GL165545  25.222  29.939   6.153
10172POPC   GL265546  25.409  29.870   6.153
10172POPC   C1A65547  25.241  29.926   6.453
10172POPC   D2A65548  25.300  29.936   6.753
10172POPC   C3A65549  25.290  29.918   7.053
10172POPC   C4A65550  25.296  29.898   7.353
10172POPC   C1B65551  25.460  29.829   6.453
10172POPC   C2B65552  25.502  29.863   6.753
10172POPC   C3B65553  25.475  29.781   7.053
10172POPC   C4B65554  25.499  29.814   7.353
10173POPC   NC365555   9.778   9.794   5.553
10173POPC   PO465556   9.733   9.796   5.853
10173POPC   GL165557   9.743   9.747   6.153
10173POPC   GL265558   9.582   9.807   6.153
10173POPC   C1A65559   9.742   9.740   6.453
10173POPC   D2A65560   9.707   9.706   6.753
10173POPC   C3A65561   9.744   9.708   7.053
10173POPC   C4A65562   9.775   9.774   7.353
10173POPC   C1B65563   9.485   9.821   6.453
10173POPC   C2B65564   9.474   9.745   6.753
10173POPC   C3B65565   9.514   9.749   7.053
10173POPC   C4B65566   9.479   9.790   7.353
10174POPC   NC365567  43.854  26.768   5.553
10174POPC   PO465568  43.875  26.827   5.853
10174POPC   GL165569  43.881  26.862   6.153
10174POPC   GL265570  43.783  26.920   6.153
10174POPC   C1A65571  43.899  26.794   6.453
10174POPC   D2A65572  43.851  26.801   6.753
10174POPC   C3A65573  43.927  26.858   7.053
10174POPC   C4A65574  43.862  26.783   7.353
10174POPC   C1B65575  43.769  27.027   6.453
10174POPC   C2B65576  43.703  27.004   6.753
10174POPC   C3B65577  43.679  27.021   7.053
10174POPC   C4B65578  43.686  27.006   7.353
10175POPC   NC365579   5.091   1.212   5.553
10175POPC   PO465580   5.140   1.208   5.853
10175POPC   GL165581   5.086   1.250   6.153
10175POPC   GL265582   5.094   1.042   6.153
10175POPC   C1A65583   5.111   1.225   6.453
10175POPC   D2A65584   5.119   1.183   6.753
10175POPC   C3A65585   5.055   1.233   7.053
10175POPC   C4A65586   5.138   1.202   7.353
10175POPC   C1B65587   5.057   0.992   6.453
10175POPC   C2B65588   4.998   0.959   6.753
10175POPC   C3B65589   5.039   1.002   7.053
10175POPC   C4B65590   5.014   0.956   7.353
10176POPC   NC365591   0.402  37.644   5.553
10176POPC   PO465592   0.393  37.635   5.853
10176POPC   GL165593   0.469  37.696   6.153
10176POPC   GL265594   0.302  37.769   6.153
10176POPC   C1A65595   0.456  37.679   6.453
10176POPC   D2A65596   0.474  37.640   6.753
10176POPC   C3A65597   0.483  37.710   7.053
10176POPC   C4A65598   0.464  37.726   7.353
10176POPC   C1B65599   0.179  37.802   6.453
10176POPC   C2B65600   0.249  37.764   6.753
10176POPC   C3B65601   0.237  37.782   7.053
10176POPC   C4B65602   0.202  37.805   7.353
10177POPC   NC365603  36.084   6.641   5.553
10177POPC   PO465604  36.112   6.622   5.853
10177POPC   GL165605  36.155   6.613   6.153
10177POPC   GL265606  36.047   6.807   6.153
10177POPC   C1A65607  36.111   6.690   6.453
10177POPC   D2A65608  36.095   6.639   6.753
10177POPC   C3A65609  36.165   6.685   7.053
10177POPC   C4A65610  36.081   6.596   7.353
10177POPC   C1B65611  36.020   6.891   6.453
10177POPC   C2B65612  36.004   6.846   6.753
10177POPC   C3B65613  36.095   6.849   7.053
10177POPC   C4B65614  36.086   6.894   7.353
10178POPC   NC365615  29.969  40.751   5.553
10178POPC   PO465616  29.915  40.805   5.853
10178POPC   GL165617  29.962  40.767   6.153
10178POPC   GL265618  30.084  40.756   6.153
10178POPC   C1A65619  29.965  40.791   6.453
10178POPC   D2A65620  29.899  40.804   6.753
10178POPC   C3A65621  29.896  40.799   7.053
10178POPC   C4A65622  29.944  40.742   7.353
10178POPC   C1B65623  30.217  40.820   6.453
10178POPC   C2B65624  30.154  40.775   6.753
10178POPC   C3B65625  30.151  40.783   7.053
10178POPC   C4B65626  30.204  40.772   7.353
10179POPC   NC365627  22.150  37.688   5.553
10179POPC   PO465628  22.132  37.675   5.853
10179POPC   GL165629  22.197  37.630   6.153
10179POPC   GL265630  22.047  37.754   6.153
10179POPC   C1A65631  22.142  37.675   6.453
10179POPC   D2A65632  22.144  37.707   6.753
10179POPC   C3A65633  22.185  37.680   7.053
10179POPC   C4A65634  22.181  37.630   7.353
10179POPC   C1B65635  21.886  37.709   6.453
10179POPC   C2B65636  21.939  37.703   6.753
10179POPC   C3B65637  21.947  37.718   7.053
10179POPC   C4B65638  21.904  37.740   7.353
10180POPC   NC365639   4.286  39.239   5.553
10180POPC   PO465640   4.278  39.230   5.853
10180POPC   GL165641   4.319  39.218   6.153
10180POPC   GL265642   4.478  39.202   6.153
10180POPC   C1A65643   4.279  39.197   6.453
10180POPC   D2A65644   4.308  39.242   6.753
10180POPC   C3A65645   4.270  39.254   7.053
10180POPC   C4A65646   4.328  39.202   7.353
10180POPC   C1B65647   4.546  39.212   6.453
10180POPC   C2B65648   4.517  39.218   6.753
10180POPC   C3B65649   4.592  39.277   7.053
10180POPC   C4B65650   4.551  39.207   7.353
10181POPC   NC365651  20.654  16.758   5.553
10181POPC   PO465652  20.601  16.771   5.853
10181POPC   GL165653  20.566  16.761   6.153
10181POPC   GL265654  20.718  16.719   6.153
10181POPC   C1A65655  20.566  16.761   6.453
10181POPC   D2A65656  20.587  16.713   6.753
10181POPC   C3A65657  20.620  16.768   7.053
10181POPC   C4A65658  20.591  16.690   7.353
10181POPC   C1B65659  20.836  16.727   6.453
10181POPC   C2B65660  20.851  16.641   6.753
10181POPC   C3B65661  20.825  16.692   7.053
10181POPC   C4B65662  20.878  16.631   7.353
10182POPC   NC365663   5.077   3.526   5.553
10182POPC   PO465664   5.113   3.588   5.853
10182POPC   GL165665   5.094   3.578   6.153
10182POPC   GL265666   5.186   3.503   6.153
10182POPC   C1A65667   5.131   3.572   6.453
10182POPC   D2A65668   5.101   3.568   6.753
10182POPC   C3A65669   5.081   3.518   7.053
10182POPC   C4A65670   5.117   3.586   7.353
10182POPC   C1B65671   5.350   3.509   6.453
10182POPC   C2B65672   5.327   3.547   6.753
10182POPC   C3B65673   5.355   3.474   7.053
10182POPC   C4B65674   5.345   3.502   7.353
10183POPC   NC365675   5.856  32.990   5.553
10183POPC   PO465676   5.876  33.062   5.853
10183POPC   GL165677   5.822  33.041   6.153
10183POPC   GL265678   5.908  32.928   6.153
10183POPC   C1A65679   5.908  33.000   6.453
10183POPC   D2A65680   5.891  33.060   6.753
10183POPC   C3A65681   5.848  33.070   7.053
10183POPC   C4A65682   5.852  33.001   7.353
10183POPC   C1B65683   5.956  32.798   6.453
10183POPC   C2B65684   5.973  32.761   6.753
10183POPC   C3B65685   6.037  32.823   7.053
10183POPC   C4B65686   6.043  32.816   7.353
10184POPC   NC365687  10.569  29.108   5.553
10184POPC   PO465688  10.516  29.118   5.853
10184POPC   GL165689  10.574  29.110   6.153
10184POPC   GL265690  10.422  29.182   6.153
10184POPC   C1A65691  10.562  29.100   6.453
10184POPC   D2A65692  10.563  29.185   6.753
10184POPC   C3A65693  10.567  29.179   7.053
10184POPC   C4A65694  10.525  29.156   7.353
10184POPC   C1B65695  10.333  29.358   6.453
10184POPC   C2B65696  10.330  29.299   6.753
10184POPC   C3B65697  10.391  29.342   7.053
10184POPC   C4B65698  10.317  29.298   7.353
10185POPC   NC365699  22.128  34.609   5.553
10185POPC   PO465700  22.135  34.623   5.853
10185POPC   GL165701  22.141  34.558   6.153
10185POPC   GL265702  22.077  34.614   6.153
10185POPC   C1A65703  22.134  34.546   6.453
10185POPC   D2A65704  22.202  34.597   6.753
10185POPC   C3A65705  22.148  34.565   7.053
10185POPC   C4A65706  22.200  34.552   7.353
10185POPC   C1B65707  21.945  34.591   6.453
10185POPC   C2B65708  21.872  34.645   6.753
10185POPC   C3B65709  21.938  34.653   7.053
10185POPC   C4B65710  21.882  34.591   7.353
10186POPC   NC365711  20.595   4.275   5.553
10186POPC   PO465712  20.602   4.367   5.853
10186POPC   GL165713  20.656   4.341   6.153
10186POPC   GL265714  20.554   4.421   6.153
10186POPC   C1A65715  20.620   4.331   6.453
10186POPC   D2A65716  20.612   4.337   6.753
10186POPC   C3A65717  20.620   4.302   7.053
10186POPC   C4A65718  20.644   4.356   7.353
10186POPC   C1B65719  20.440   4.427   6.453
10186POPC   C2B65720  20.402   4.433   6.753
10186POPC   C3B65721  20.427   4.442   7.053
10186POPC   C4B65722  20.361   4.451   7.353
10187POPC   NC365723  26.016  43.935   5.553
10187POPC   PO465724  26.024  43.884   5.853
10187POPC   GL165725  26.082  43.898   6.153
10187POPC   GL265726  26.141  43.788   6.153
10187POPC   C1A65727  26.051  43.877   6.453
10187POPC   D2A65728  25.994  43.884   6.753
10187POPC   C3A65729  26.031  43.850   7.053
10187POPC   C4A65730  26.042  43.841   7.353
10187POPC   C1B65731  26.122  43.618   6.453
10187POPC   C2B65732  26.187  43.628   6.753
10187POPC   C3B65733  26.134  43.690   7.053
10187POPC   C4B65734  26.129  43.638   7.353
10188POPC   NC365735  33.038   7.393   5.553
10188POPC   PO465736  33.045   7.418   5.853
10188POPC   GL165737  33.045   7.401   6.153
10188POPC   GL265738  33.064   7.323   6.153
10188POPC   C1A65739  33.001   7.399   6.453
10188POPC   D2A65740  32.990   7.415   6.753
10188POPC   C3A65741  33.070   7.388   7.053
10188POPC   C4A65742  32.991   7.377   7.353
10188POPC   C1B65743  33.199   7.186   6.453
10188POPC   C2B65744  33.131   7.255   6.753
10188POPC   C3B65745  33.181   7.214   7.053
10188POPC   C4B65746  33.206   7.232   7.353
10189POPC   NC365747  39.189   3.522   5.553
10189POPC   PO465748  39.267   3.542   5.853
10189POPC   GL165749  39.195   3.551   6.153
10189POPC   GL265750  39.123   3.497   6.153
10189POPC   C1A65751  39.220   3.515   6.453
10189POPC   D2A65752  39.186   3.492   6.753
10189POPC   C3A65753  39.250   3.491   7.053
10189POPC   C4A65754  39.246   3.529   7.353
10189POPC   C1B65755  39.091   3.346   6.453
10189POPC   C2B65756  39.034   3.388   6.753
10189POPC   C3B65757  39.056   3.395   7.053
10189POPC   C4B65758  39.004   3.388   7.353
10190POPC   NC365759  14.358  13.583   5.553
10190POPC   PO465760  14.437  13.621   5.853
10190POPC   GL165761  14.416  13.636   6.153
10190POPC   GL265762  14.495  13.698   6.153
10190POPC   C1A65763  14.447  13.585   6.453
10190POPC   D2A65764  14.411  13.659   6.753
10190POPC   C3A65765  14.390  13.666   7.053
10190POPC   C4A65766  14.442  13.638   7.353
10190POPC   C1B65767  14.525  13.881   6.453
10190POPC   C2B65768  14.480  13.881   6.753
10190POPC   C3B65769  14.505  13.850   7.053
10190POPC   C4B65770  14.489  13.861   7.353
10191POPC   NC365771  11.302  19.013   5.553
10191POPC   PO465772  11.263  19.099   5.853
10191POPC   GL165773  11.331  19.070   6.153
10191POPC   GL265774  11.356  19.136   6.153
10191POPC   C1A65775  11.291  19.094   6.453
10191POPC   D2A65776  11.329  19.011   6.753
10191POPC   C3A65777  11.250  19.033   7.053
10191POPC   C4A65778  11.324  19.040   7.353
10191POPC   C1B65779  11.429  19.238   6.453
10191POPC   C2B65780  11.521  19.229   6.753
10191POPC   C3B65781  11.503  19.256   7.053
10191POPC   C4B65782  11.464  19.204   7.353
10192POPC   NC365783  30.667  23.755   5.553
10192POPC   PO465784  30.695  23.717   5.853
10192POPC   GL165785  30.651  23.744   6.153
10192POPC   GL265786  30.798  23.574   6.153
10192POPC   C1A65787  30.739  23.687   6.453
10192POPC   D2A65788  30.664  23.736   6.753
10192POPC   C3A65789  30.692  23.715   7.053
10192POPC   C4A65790  30.724  23.755   7.353
10192POPC   C1B65791  30.887  23.541   6.453
10192POPC   C2B65792  30.871  23.484   6.753
10192POPC   C3B65793  30.881  23.508   7.053
10192POPC   C4B65794  30.831  23.519   7.353
10193POPC   NC365795  40.045  15.139   5.553
10193POPC   PO465796  39.985  15.130   5.853
10193POPC   GL165797  40.016  15.134   6.153
10193POPC   GL265798  39.996  15.289   6.153
10193POPC   C1A65799  40.029  15.182   6.453
10193POPC   D2A65800  39.978  15.194   6.753
10193POPC   C3A65801  40.004  15.170   7.053
10193POPC   C4A65802  39.999  15.145   7.353
10193POPC   C1B65803  39.972  15.472   6.453
10193POPC   C2B65804  39.998  15.470   6.753
10193POPC   C3B65805  40.041  15.381   7.053
10193POPC   C4B65806  39.956  15.470   7.353
10194POPC   NC365807   2.730  22.150   5.553
10194POPC   PO465808   2.756  22.144   5.853
10194POPC   GL165809   2.796  22.136   6.153
10194POPC   GL265810   2.601  22.098   6.153
10194POPC   C1A65811   2.773  22.153   6.453
10194POPC   D2A65812   2.782  22.133   6.753
10194POPC   C3A65813   2.721  22.177   7.053
10194POPC   C4A65814   2.809  22.155   7.353
10194POPC   C1B65815   2.537  22.054   6.453
10194POPC   C2B65816   2.582  22.069   6.753
10194POPC   C3B65817   2.524  22.039   7.053
10194POPC   C4B65818   2.563  22.025   7.353
10195POPC   NC365819  25.225  40.798   5.553
10195POPC   PO465820  25.315  40.822   5.853
10195POPC   GL165821  25.248  40.740   6.153
10195POPC   GL265822  25.177  40.868   6.153
10195POPC   C1A65823  25.290  40.772   6.453
10195POPC   D2A65824  25.280  40.753   6.753
10195POPC   C3A65825  25.310  40.764   7.053
10195POPC   C4A65826  25.248  40.767   7.353
10195POPC   C1B65827  25.151  41.029   6.453
10195POPC   C2B65828  25.151  40.979   6.753
10195POPC   C3B65829  25.121  41.001   7.053
10195POPC   C4B65830  25.102  40.967   7.353
10196POPC   NC365831  39.182  23.744   5.553
10196POPC   PO465832  39.190  23.730   5.853
10196POPC   GL165833  39.235  23.711   6.153
10196POPC   GL265834  39.097  23.723   6.153
10196POPC   C1A65835  39.240  23.702   6.453
10196POPC   D2A65836  39.281  23.753   6.753
10196POPC   C3A65837  39.272  23.750   7.053
10196POPC   C4A65838  39.237  23.748   7.353
10196POPC   C1B65839  38.956  23.724   6.453
10196POPC   C2B65840  38.987  23.761   6.753
10196POPC   C3B65841  38.999  23.758   7.053
10196POPC   C4B65842  38.950  23.785   7.353
10197POPC   NC365843  22.142  19.831   5.553
10197POPC   PO465844  22.201  19.835   5.853
10197POPC   GL165845  22.133  19.818   6.153
10197POPC   GL265846  22.126  19.699   6.153
10197POPC   C1A65847  22.201  19.838   6.453
10197POPC   D2A65848  22.160  19.869   6.753
10197POPC   C3A65849  22.195  19.873   7.053
10197POPC   C4A65850  22.173  19.795   7.353
10197POPC   C1B65851  22.120  19.607   6.453
10197POPC   C2B65852  22.132  19.632   6.753
10197POPC   C3B65853  22.148  19.629   7.053
10197POPC   C4B65854  22.078  19.540   7.353
10198POPC   NC365855   5.102  10.518   5.553
10198POPC   PO465856   5.075  10.475   5.853
10198POPC   GL165857   5.083  10.487   6.153
10198POPC   GL265858   5.122  10.622   6.153
10198POPC   C1A65859   5.110  10.507   6.453
10198POPC   D2A65860   5.077  10.543   6.753
10198POPC   C3A65861   5.094  10.483   7.053
10198POPC   C4A65862   5.050  10.476   7.353
10198POPC   C1B65863   5.122  10.747   6.453
10198POPC   C2B65864   5.070  10.745   6.753
10198POPC   C3B65865   5.113  10.816   7.053
10198POPC   C4B65866   5.067  10.745   7.353
10199POPC   NC365867  36.931  37.693   5.553
10199POPC   PO465868  36.942  37.664   5.853
10199POPC   GL165869  36.912  37.708   6.153
10199POPC   GL265870  36.846  37.798   6.153
10199POPC   C1A65871  36.945  37.717   6.453
10199POPC   D2A65872  36.920  37.725   6.753
10199POPC   C3A65873  36.924  37.694   7.053
10199POPC   C4A65874  36.880  37.687   7.353
10199POPC   C1B65875  36.791  37.956   6.453
10199POPC   C2B65876  36.828  37.958   6.753
10199POPC   C3B65877  36.858  37.933   7.053
10199POPC   C4B65878  36.819  37.930   7.353
10200POPC   NC365879  44.698  22.893   5.553
10200POPC   PO465880  44.676  22.945   5.853
10200POPC   GL165881  44.692  22.977   6.153
10200POPC   GL265882  44.621  22.829   6.153
10200POPC   C1A65883  44.685  22.901   6.453
10200POPC   D2A65884  44.673  22.942   6.753
10200POPC   C3A65885  44.621  22.909   7.053
10200POPC   C4A65886  44.698  22.941   7.353
10200POPC   C1B65887  44.548  22.732   6.453
10200POPC   C2B65888  44.543  22.685   6.753
10200POPC   C3B65889  44.491  22.775   7.053
10200POPC   C4B65890  44.548  22.711   7.353
10201POPC   NC365891  43.878  28.321   5.553
10201POPC   PO465892  43.886  28.367   5.853
10201POPC   GL165893  43.917  28.365   6.153
10201POPC   GL265894  43.881  28.465   6.153
10201POPC   C1A65895  43.878  28.319   6.453
10201POPC   D2A65896  43.851  28.351   6.753
10201POPC   C3A65897  43.907  28.416   7.053
10201POPC   C4A65898  43.855  28.325   7.353
10201POPC   C1B65899  43.917  28.572   6.453
10201POPC   C2B65900  43.941  28.582   6.753
10201POPC   C3B65901  43.944  28.568   7.053
10201POPC   C4B65902  43.968  28.603   7.353
10202POPC   NC365903  22.121  18.278   5.553
10202POPC   PO465904  22.133  18.313   5.853
10202POPC   GL165905  22.113  18.247   6.153
10202POPC   GL265906  22.226  18.157   6.153
10202POPC   C1A65907  22.122  18.241   6.453
10202POPC   D2A65908  22.197  18.238   6.753
10202POPC   C3A65909  22.157  18.320   7.053
10202POPC   C4A65910  22.189  18.266   7.353
10202POPC   C1B65911  22.299  18.057   6.453
10202POPC   C2B65912  22.257  18.044   6.753
10202POPC   C3B65913  22.249  18.091   7.053
10202POPC   C4B65914  22.291  18.107   7.353
10203POPC   NC365915  32.219  28.373   5.553
10203POPC   PO465916  32.238  28.338   5.853
10203POPC   GL165917  32.272  28.393   6.153
10203POPC   GL265918  32.175  28.512   6.153
10203POPC   C1A65919  32.264  28.393   6.453
10203POPC   D2A65920  32.205  28.348   6.753
10203POPC   C3A65921  32.233  28.391   7.053
10203POPC   C4A65922  32.220  28.327   7.353
10203POPC   C1B65923  32.190  28.599   6.453
10203POPC   C2B65924  32.188  28.603   6.753
10203POPC   C3B65925  32.190  28.620   7.053
10203POPC   C4B65926  32.173  28.589   7.353
10204POPC   NC365927   2.029   1.235   5.553
10204POPC   PO465928   2.039   1.232   5.853
10204POPC   GL165929   1.967   1.249   6.153
10204POPC   GL265930   2.156   1.261   6.153
10204POPC   C1A65931   1.948   1.263   6.453
10204POPC   D2A65932   1.983   1.231   6.753
10204POPC   C3A65933   2.017   1.204   7.053
10204POPC   C4A65934   1.994   1.259   7.353
10204POPC   C1B65935   2.288   1.165   6.453
10204POPC   C2B65936   2.195   1.197   6.753
10204POPC   C3B65937   2.270   1.193   7.053
10204POPC   C4B65938   2.244   1.258   7.353
10205POPC   NC365939  26.784   5.137   5.553
10205POPC   PO465940  26.861   5.133   5.853
10205POPC   GL165941  26.780   5.045   6.153
10205POPC   GL265942  26.728   4.993   6.153
10205POPC   C1A65943  26.819   5.116   6.453
10205POPC   D2A65944  26.835   5.105   6.753
10205POPC   C3A65945  26.809   5.044   7.053
10205POPC   C4A65946  26.847   5.085   7.353
10205POPC   C1B65947  26.652   4.981   6.453
10205POPC   C2B65948  26.618   4.891   6.753
10205POPC   C3B65949  26.664   4.928   7.053
10205POPC   C4B65950  26.590   4.941   7.353
10206POPC   NC365951  17.520  40.775   5.553
10206POPC   PO465952  17.533  40.770   5.853
10206POPC   GL165953  17.531  40.809   6.153
10206POPC   GL265954  17.513  40.667   6.153
10206POPC   C1A65955  17.532  40.754   6.453
10206POPC   D2A65956  17.457  40.765   6.753
10206POPC   C3A65957  17.534  40.753   7.053
10206POPC   C4A65958  17.472  40.788   7.353
10206POPC   C1B65959  17.531  40.579   6.453
10206POPC   C2B65960  17.536  40.490   6.753
10206POPC   C3B65961  17.548  40.499   7.053
10206POPC   C4B65962  17.548  40.550   7.353
10207POPC   NC365963  25.236   2.004   5.553
10207POPC   PO465964  25.229   1.948   5.853
10207POPC   GL165965  25.304   2.019   6.153
10207POPC   GL265966  25.213   2.078   6.153
10207POPC   C1A65967  25.216   2.001   6.453
10207POPC   D2A65968  25.275   1.986   6.753
10207POPC   C3A65969  25.216   2.031   7.053
10207POPC   C4A65970  25.295   1.978   7.353
10207POPC   C1B65971  25.261   2.285   6.453
10207POPC   C2B65972  25.209   2.228   6.753
10207POPC   C3B65973  25.181   2.254   7.053
10207POPC   C4B65974  25.272   2.219   7.353
10208POPC   NC365975   1.972  38.443   5.553
10208POPC   PO465976   1.997  38.454   5.853
10208POPC   GL165977   1.956  38.421   6.153
10208POPC   GL265978   2.151  38.515   6.153
10208POPC   C1A65979   2.008  38.485   6.453
10208POPC   D2A65980   2.020  38.413   6.753
10208POPC   C3A65981   1.981  38.481   7.053
10208POPC   C4A65982   1.963  38.433   7.353
10208POPC   C1B65983   2.194  38.547   6.453
10208POPC   C2B65984   2.175  38.501   6.753
10208POPC   C3B65985   2.224  38.511   7.053
10208POPC   C4B65986   2.236  38.556   7.353
10209POPC   NC365987  44.659  12.826   5.553
10209POPC   PO465988  44.651  12.833   5.853
10209POPC   GL165989  44.708  12.889   6.153
10209POPC   GL265990  44.610  12.711   6.153
10209POPC   C1A65991  44.636  12.867   6.453
10209POPC   D2A65992  44.626  12.816   6.753
10209POPC   C3A65993  44.708  12.832   7.053
10209POPC   C4A65994  44.637  12.899   7.353
10209POPC   C1B65995  44.620  12.590   6.453
10209POPC   C2B65996  44.618  12.603   6.753
10209POPC   C3B65997  44.616  12.593   7.053
10209POPC   C4B65998  44.537  12.633   7.353
10210POPC   NC365999   7.465   4.269   5.553
10210POPC   PO466000   7.457   4.278   5.853
10210POPC   GL166001   7.400   4.320   6.153
10210POPC   GL266002   7.546   4.365   6.153
10210POPC   C1A66003   7.378   4.323   6.453
10210POPC   D2A66004   7.433   4.332   6.753
10210POPC   C3A66005   7.437   4.305   7.053
10210POPC   C4A66006   7.403   4.271   7.353
10210POPC   C1B66007   7.684   4.409   6.453
10210POPC   C2B66008   7.599   4.445   6.753
10210POPC   C3B66009   7.651   4.453   7.053
10210POPC   C4B66010   7.611   4.400   7.353
10211POPC   NC366011  37.720  10.508   5.553
10211POPC   PO466012  37.683  10.514   5.853
10211POPC   GL166013  37.630  10.534   6.153
10211POPC   GL266014  37.791  10.418   6.153
10211POPC   C1A66015  37.678  10.523   6.453
10211POPC   D2A66016  37.703  10.567   6.753
10211POPC   C3A66017  37.632  10.510   7.053
10211POPC   C4A66018  37.646  10.502   7.353
10211POPC   C1B66019  37.864  10.340   6.453
10211POPC   C2B66020  37.805  10.308   6.753
10211POPC   C3B66021  37.817  10.316   7.053
10211POPC   C4B66022  37.800  10.347   7.353
10212POPC   NC366023  14.423  27.575   5.553
10212POPC   PO466024  14.413  27.550   5.853
10212POPC   GL166025  14.361  27.630   6.153
10212POPC   GL266026  14.525  27.555   6.153
10212POPC   C1A66027  14.391  27.546   6.453
10212POPC   D2A66028  14.445  27.609   6.753
10212POPC   C3A66029  14.426  27.615   7.053
10212POPC   C4A66030  14.428  27.570   7.353
10212POPC   C1B66031  14.655  27.470   6.453
10212POPC   C2B66032  14.616  27.445   6.753
10212POPC   C3B66033  14.635  27.500   7.053
10212POPC   C4B66034  14.670  27.513   7.353
10213POPC   NC366035  43.887  17.461   5.553
10213POPC   PO466036  43.901  17.488   5.853
10213POPC   GL166037  43.890  17.477   6.153
10213POPC   GL266038  44.007  17.460   6.153
10213POPC   C1A66039  43.876  17.507   6.453
10213POPC   D2A66040  43.891  17.517   6.753
10213POPC   C3A66041  43.929  17.486   7.053
10213POPC   C4A66042  43.853  17.546   7.353
10213POPC   C1B66043  44.091  17.445   6.453
10213POPC   C2B66044  44.150  17.519   6.753
10213POPC   C3B66045  44.087  17.500   7.053
10213POPC   C4B66046  44.105  17.501   7.353
10214POPC   NC366047  40.775   1.232   5.553
10214POPC   PO466048  40.795   1.222   5.853
10214POPC   GL166049  40.735   1.202   6.153
10214POPC   GL266050  40.912   1.118   6.153
10214POPC   C1A66051  40.788   1.224   6.453
10214POPC   D2A66052  40.777   1.263   6.753
10214POPC   C3A66053  40.765   1.239   7.053
10214POPC   C4A66054  40.782   1.198   7.353
10214POPC   C1B66055  40.953   1.049   6.453
10214POPC   C2B66056  40.979   1.073   6.753
10214POPC   C3B66057  41.003   1.086   7.053
10214POPC   C4B66058  40.996   1.048   7.353
10215POPC   NC366059  21.363  39.233   5.553
10215POPC   PO466060  21.410  39.239   5.853
10215POPC   GL166061  21.378  39.228   6.153
10215POPC   GL266062  21.417  39.370   6.153
10215POPC   C1A66063  21.393  39.201   6.453
10215POPC   D2A66064  21.387  39.247   6.753
10215POPC   C3A66065  21.404  39.277   7.053
10215POPC   C4A66066  21.400  39.281   7.353
10215POPC   C1B66067  21.422  39.511   6.453
10215POPC   C2B66068  21.419  39.494   6.753
10215POPC   C3B66069  21.421  39.509   7.053
10215POPC   C4B66070  21.444  39.473   7.353
10216POPC   NC366071  27.601  43.930   5.553
10216POPC   PO466072  27.563  43.854   5.853
10216POPC   GL166073  27.553  43.904   6.153
10216POPC   GL266074  27.509  43.885   6.153
10216POPC   C1A66075  27.604  43.863   6.453
10216POPC   D2A66076  27.615  43.920   6.753
10216POPC   C3A66077  27.578  43.931   7.053
10216POPC   C4A66078  27.623  43.851   7.353
10216POPC   C1B66079  27.336  43.768   6.453
10216POPC   C2B66080  27.374  43.761   6.753
10216POPC   C3B66081  27.367  43.830   7.053
10216POPC   C4B66082  27.350  43.763   7.353
10217POPC   NC366083  19.801   4.318   5.553
10217POPC   PO466084  19.821   4.316   5.853
10217POPC   GL166085  19.882   4.336   6.153
10217POPC   GL266086  19.912   4.316   6.153
10217POPC   C1A66087  19.812   4.324   6.453
10217POPC   D2A66088  19.846   4.319   6.753
10217POPC   C3A66089  19.808   4.339   7.053
10217POPC   C4A66090  19.880   4.277   7.353
10217POPC   C1B66091  20.063   4.377   6.453
10217POPC   C2B66092  20.036   4.362   6.753
10217POPC   C3B66093  20.030   4.393   7.053
10217POPC   C4B66094  20.116   4.388   7.353
10218POPC   NC366095  30.721  18.295   5.553
10218POPC   PO466096  30.714  18.276   5.853
10218POPC   GL166097  30.710  18.297   6.153
10218POPC   GL266098  30.807  18.174   6.153
10218POPC   C1A66099  30.685  18.267   6.453
10218POPC   D2A66100  30.662  18.317   6.753
10218POPC   C3A66101  30.715  18.317   7.053
10218POPC   C4A66102  30.692  18.255   7.353
10218POPC   C1B66103  30.917  18.131   6.453
10218POPC   C2B66104  30.871  18.071   6.753
10218POPC   C3B66105  30.858  18.151   7.053
10218POPC   C4B66106  30.919  18.074   7.353
10219POPC   NC366107  19.847  29.881   5.553
10219POPC   PO466108  19.795  29.883   5.853
10219POPC   GL166109  19.798  29.887   6.153
10219POPC   GL266110  19.749  29.991   6.153
10219POPC   C1A66111  19.814  29.948   6.453
10219POPC   D2A66112  19.841  29.879   6.753
10219POPC   C3A66113  19.807  29.957   7.053
10219POPC   C4A66114  19.842  29.935   7.353
10219POPC   C1B66115  19.645  30.016   6.453
10219POPC   C2B66116  19.587  30.076   6.753
10219POPC   C3B66117  19.621  30.015   7.053
10219POPC   C4B66118  19.581  29.995   7.353
10220POPC   NC366119  19.856  25.252   5.553
10220POPC   PO466120  19.858  25.312   5.853
10220POPC   GL166121  19.834  25.273   6.153
10220POPC   GL266122  19.886  25.131   6.153
10220POPC   C1A66123  19.844  25.262   6.453
10220POPC   D2A66124  19.866  25.235   6.753
10220POPC   C3A66125  19.842  25.228   7.053
10220POPC   C4A66126  19.863  25.292   7.353
10220POPC   C1B66127  19.826  25.035   6.453
10220POPC   C2B66128  19.856  25.050   6.753
10220POPC   C3B66129  19.825  25.036   7.053
10220POPC   C4B66130  19.799  25.026   7.353
10221POPC   NC366131  22.172  19.024   5.553
10221POPC   PO466132  22.124  19.016   5.853
10221POPC   GL166133  22.118  19.015   6.153
10221POPC   GL266134  22.075  19.094   6.153
10221POPC   C1A66135  22.157  19.101   6.453
10221POPC   D2A66136  22.173  19.030   6.753
10221POPC   C3A66137  22.167  19.078   7.053
10221POPC   C4A66138  22.139  19.038   7.353
10221POPC   C1B66139  21.986  19.237   6.453
10221POPC   C2B66140  21.924  19.147   6.753
10221POPC   C3B66141  21.937  19.214   7.053
10221POPC   C4B66142  21.953  19.166   7.353
10222POPC   NC366143  20.659  43.091   5.553
10222POPC   PO466144  20.580  43.071   5.853
10222POPC   GL166145  20.564  43.108   6.153
10222POPC   GL266146  20.540  43.078   6.153
10222POPC   C1A66147  20.636  43.091   6.453
10222POPC   D2A66148  20.590  43.078   6.753
10222POPC   C3A66149  20.618  43.123   7.053
10222POPC   C4A66150  20.608  43.113   7.353
10222POPC   C1B66151  20.431  43.012   6.453
10222POPC   C2B66152  20.445  42.992   6.753
10222POPC   C3B66153  20.431  43.019   7.053
10222POPC   C4B66154  20.439  43.008   7.353
10223POPC   NC366155  18.241  27.590   5.553
10223POPC   PO466156  18.294  27.585   5.853
10223POPC   GL166157  18.324  27.585   6.153
10223POPC   GL266158  18.191  27.577   6.153
10223POPC   C1A66159  18.282  27.563   6.453
10223POPC   D2A66160  18.275  27.613   6.753
10223POPC   C3A66161  18.290  27.583   7.053
10223POPC   C4A66162  18.324  27.545   7.353
10223POPC   C1B66163  18.015  27.539   6.453
10223POPC   C2B66164  18.048  27.534   6.753
10223POPC   C3B66165  17.994  27.525   7.053
10223POPC   C4B66166  18.075  27.569   7.353
10224POPC   NC366167  12.079  38.432   5.553
10224POPC   PO466168  12.088  38.451   5.853
10224POPC   GL166169  12.104  38.502   6.153
10224POPC   GL266170  12.210  38.384   6.153
10224POPC   C1A66171  12.113  38.470   6.453
10224POPC   D2A66172  12.080  38.475   6.753
10224POPC   C3A66173  12.027  38.459   7.053
10224POPC   C4A66174  12.069  38.479   7.353
10224POPC   C1B66175  12.346  38.395   6.453
10224POPC   C2B66176  12.369  38.437   6.753
10224POPC   C3B66177  12.316  38.352   7.053
10224POPC   C4B66178  12.328  38.405   7.353
10225POPC   NC366179  41.515  34.533   5.553
10225POPC   PO466180  41.536  34.542   5.853
10225POPC   GL166181  41.548  34.594   6.153
10225POPC   GL266182  41.684  34.530   6.153
10225POPC   C1A66183  41.561  34.527   6.453
10225POPC   D2A66184  41.562  34.618   6.753
10225POPC   C3A66185  41.600  34.568   7.053
10225POPC   C4A66186  41.570  34.577   7.353
10225POPC   C1B66187  41.832  34.476   6.453
10225POPC   C2B66188  41.779  34.426   6.753
10225POPC   C3B66189  41.809  34.465   7.053
10225POPC   C4B66190  41.798  34.454   7.353
10226POPC   NC366191  37.637  27.565   5.553
10226POPC   PO466192  37.658  27.560   5.853
10226POPC   GL166193  37.648  27.642   6.153
10226POPC   GL266194  37.578  27.525   6.153
10226POPC   C1A66195  37.687  27.640   6.453
10226POPC   D2A66196  37.713  27.553   6.753
10226POPC   C3A66197  37.685  27.621   7.053
10226POPC   C4A66198  37.709  27.592   7.353
10226POPC   C1B66199  37.541  27.384   6.453
10226POPC   C2B66200  37.526  27.398   6.753
10226POPC   C3B66201  37.516  27.414   7.053
10226POPC   C4B66202  37.553  27.383   7.353
10227POPC   NC366203   0.475  23.711   5.553
10227POPC   PO466204   0.415  23.755   5.853
10227POPC   GL166205   0.445  23.697   6.153
10227POPC   GL266206   0.561  23.829   6.153
10227POPC   C1A66207   0.474  23.703   6.453
10227POPC   D2A66208   0.391  23.701   6.753
10227POPC   C3A66209   0.410  23.687   7.053
10227POPC   C4A66210   0.471  23.743   7.353
10227POPC   C1B66211   0.690  23.838   6.453
10227POPC   C2B66212   0.655  23.810   6.753
10227POPC   C3B66213   0.662  23.880   7.053
10227POPC   C4B66214   0.633  23.874   7.353
10228POPC   NC366215  28.356  43.837   5.553
10228POPC   PO466216  28.337  43.922   5.853
10228POPC   GL166217  28.352  43.852   6.153
10228POPC   GL266218  28.279  43.938   6.153
10228POPC   C1A66219  28.321  43.931   6.453
10228POPC   D2A66220  28.340  43.845   6.753
10228POPC   C3A66221  28.406  43.889   7.053
10228POPC   C4A66222  28.337  43.910   7.353
10228POPC   C1B66223  28.241  44.125   6.453
10228POPC   C2B66224  28.244  44.033   6.753
10228POPC   C3B66225  28.251  44.046   7.053
10228POPC   C4B66226  28.228  44.089   7.353
10229POPC   NC366227  18.248  23.757   5.553
10229POPC   PO466228  18.279  23.725   5.853
10229POPC   GL166229  18.296  23.709   6.153
10229POPC   GL266230  18.145  23.689   6.153
10229POPC   C1A66231  18.308  23.753   6.453
10229POPC   D2A66232  18.297  23.684   6.753
10229POPC   C3A66233  18.326  23.696   7.053
10229POPC   C4A66234  18.307  23.754   7.353
10229POPC   C1B66235  18.031  23.709   6.453
10229POPC   C2B66236  18.025  23.748   6.753
10229POPC   C3B66237  18.047  23.738   7.053
10229POPC   C4B66238  18.017  23.723   7.353
10230POPC   NC366239  33.007  36.173   5.553
10230POPC   PO466240  33.073  36.175   5.853
10230POPC   GL166241  33.044  36.168   6.153
10230POPC   GL266242  33.069  36.046   6.153
10230POPC   C1A66243  32.979  36.098   6.453
10230POPC   D2A66244  32.993  36.124   6.753
10230POPC   C3A66245  33.066  36.148   7.053
10230POPC   C4A66246  32.990  36.123   7.353
10230POPC   C1B66247  33.110  35.919   6.453
10230POPC   C2B66248  33.047  35.914   6.753
10230POPC   C3B66249  33.101  35.927   7.053
10230POPC   C4B66250  33.096  35.842   7.353
10231POPC   NC366251  14.435  43.909   5.553
10231POPC   PO466252  14.436  43.928   5.853
10231POPC   GL166253  14.436  43.899   6.153
10231POPC   GL266254  14.308  43.953   6.153
10231POPC   C1A66255  14.375  43.858   6.453
10231POPC   D2A66256  14.416  43.867   6.753
10231POPC   C3A66257  14.361  43.914   7.053
10231POPC   C4A66258  14.386  43.882   7.353
10231POPC   C1B66259  14.258  44.086   6.453
10231POPC   C2B66260  14.230  44.030   6.753
10231POPC   C3B66261  14.184  44.041   7.053
10231POPC   C4B66262  14.211  44.080   7.353
10232POPC   NC366263  24.508  43.151   5.553
10232POPC   PO466264  24.522  43.128   5.853
10232POPC   GL166265  24.482  43.115   6.153
10232POPC   GL266266  24.408  43.023   6.153
10232POPC   C1A66267  24.522  43.105   6.453
10232POPC   D2A66268  24.447  43.071   6.753
10232POPC   C3A66269  24.536  43.106   7.053
10232POPC   C4A66270  24.456  43.129   7.353
10232POPC   C1B66271  24.287  42.902   6.453
10232POPC   C2B66272  24.321  42.918   6.753
10232POPC   C3B66273  24.358  42.949   7.053
10232POPC   C4B66274  24.334  42.904   7.353
10233POPC   NC366275  36.949  12.055   5.553
10233POPC   PO466276  36.920  12.051   5.853
10233POPC   GL166277  36.937  12.026   6.153
10233POPC   GL266278  36.901  12.237   6.153
10233POPC   C1A66279  36.906  12.051   6.453
10233POPC   D2A66280  36.932  12.087   6.753
10233POPC   C3A66281  36.869  12.078   7.053
10233POPC   C4A66282  36.898  12.079   7.353
10233POPC   C1B66283  36.894  12.325   6.453
10233POPC   C2B66284  36.898  12.342   6.753
10233POPC   C3B66285  36.835  12.298   7.053
10233POPC   C4B66286  36.859  12.318   7.353
10234POPC   NC366287  43.918  31.508   5.553
10234POPC   PO466288  43.886  31.444   5.853
10234POPC   GL166289  43.920  31.478   6.153
10234POPC   GL266290  43.865  31.348   6.153
10234POPC   C1A66291  43.853  31.423   6.453
10234POPC   D2A66292  43.842  31.462   6.753
10234POPC   C3A66293  43.839  31.463   7.053
10234POPC   C4A66294  43.872  31.509   7.353
10234POPC   C1B66295  43.915  31.199   6.453
10234POPC   C2B66296  43.900  31.200   6.753
10234POPC   C3B66297  43.932  31.231   7.053
10234POPC   C4B66298  43.936  31.225   7.353
10235POPC   NC366299  17.544   5.054   5.553
10235POPC   PO466300  17.527   5.120   5.853
10235POPC   GL166301  17.526   5.127   6.153
10235POPC   GL266302  17.575   5.256   6.153
10235POPC   C1A66303  17.516   5.095   6.453
10235POPC   D2A66304  17.488   5.047   6.753
10235POPC   C3A66305  17.511   5.091   7.053
10235POPC   C4A66306  17.528   5.081   7.353
10235POPC   C1B66307  17.604   5.372   6.453
10235POPC   C2B66308  17.654   5.329   6.753
10235POPC   C3B66309  17.612   5.284   7.053
10235POPC   C4B66310  17.620   5.317   7.353
10236POPC   NC366311  29.134  26.088   5.553
10236POPC   PO466312  29.122  26.023   5.853
10236POPC   GL166313  29.169  26.076   6.153
10236POPC   GL266314  29.283  26.075   6.153
10236POPC   C1A66315  29.097  26.019   6.453
10236POPC   D2A66316  29.185  25.997   6.753
10236POPC   C3A66317  29.190  26.041   7.053
10236POPC   C4A66318  29.106  26.034   7.353
10236POPC   C1B66319  29.368  26.158   6.453
10236POPC   C2B66320  29.392  26.203   6.753
10236POPC   C3B66321  29.365  26.197   7.053
10236POPC   C4B66322  29.352  26.170   7.353
10237POPC   NC366323  15.913  42.328   5.553
10237POPC   PO466324  15.952  42.297   5.853
10237POPC   GL166325  15.929  42.384   6.153
10237POPC   GL266326  16.038  42.432   6.153
10237POPC   C1A66327  15.998  42.311   6.453
10237POPC   D2A66328  15.920  42.381   6.753
10237POPC   C3A66329  15.953  42.306   7.053
10237POPC   C4A66330  15.953  42.304   7.353
10237POPC   C1B66331  16.047  42.522   6.453
10237POPC   C2B66332  16.085  42.597   6.753
10237POPC   C3B66333  16.014  42.565   7.053
10237POPC   C4B66334  16.042  42.534   7.353
10238POPC   NC366335  38.413  36.128   5.553
10238POPC   PO466336  38.411  36.105   5.853
10238POPC   GL166337  38.496  36.143   6.153
10238POPC   GL266338  38.486  35.986   6.153
10238POPC   C1A66339  38.487  36.089   6.453
10238POPC   D2A66340  38.492  36.080   6.753
10238POPC   C3A66341  38.494  36.159   7.053
10238POPC   C4A66342  38.493  36.119   7.353
10238POPC   C1B66343  38.471  35.923   6.453
10238POPC   C2B66344  38.504  35.832   6.753
10238POPC   C3B66345  38.525  35.851   7.053
10238POPC   C4B66346  38.485  35.844   7.353
10239POPC   NC366347  43.122  21.369   5.553
10239POPC   PO466348  43.153  21.382   5.853
10239POPC   GL166349  43.118  21.403   6.153
10239POPC   GL266350  43.166  21.292   6.153
10239POPC   C1A66351  43.105  21.391   6.453
10239POPC   D2A66352  43.083  21.341   6.753
10239POPC   C3A66353  43.112  21.371   7.053
10239POPC   C4A66354  43.153  21.414   7.353
10239POPC   C1B66355  43.302  21.196   6.453
10239POPC   C2B66356  43.320  21.212   6.753
10239POPC   C3B66357  43.311  21.169   7.053
10239POPC   C4B66358  43.309  21.241   7.353
10240POPC   NC366359  22.946  19.061   5.553
10240POPC   PO466360  22.900  19.085   5.853
10240POPC   GL166361  22.941  19.017   6.153
10240POPC   GL266362  22.814  19.170   6.153
10240POPC   C1A66363  22.905  19.077   6.453
10240POPC   D2A66364  22.937  19.099   6.753
10240POPC   C3A66365  22.968  19.084   7.053
10240POPC   C4A66366  22.889  19.014   7.353
10240POPC   C1B66367  22.794  19.204   6.453
10240POPC   C2B66368  22.715  19.199   6.753
10240POPC   C3B66369  22.757  19.242   7.053
10240POPC   C4B66370  22.771  19.195   7.353
10241POPC   NC366371  16.746  26.848   5.553
10241POPC   PO466372  16.762  26.781   5.853
10241POPC   GL166373  16.687  26.818   6.153
10241POPC   GL266374  16.799  26.695   6.153
10241POPC   C1A66375  16.729  26.837   6.453
10241POPC   D2A66376  16.736  26.795   6.753
10241POPC   C3A66377  16.740  26.844   7.053
10241POPC   C4A66378  16.736  26.814   7.353
10241POPC   C1B66379  16.825  26.544   6.453
10241POPC   C2B66380  16.796  26.573   6.753
10241POPC   C3B66381  16.775  26.589   7.053
10241POPC   C4B66382  16.772  26.587   7.353
10242POPC   NC366383  43.848  41.572   5.553
10242POPC   PO466384  43.898  41.541   5.853
10242POPC   GL166385  43.875  41.594   6.153
10242POPC   GL266386  43.723  41.549   6.153
10242POPC   C1A66387  43.924  41.584   6.453
10242POPC   D2A66388  43.865  41.520   6.753
10242POPC   C3A66389  43.855  41.603   7.053
10242POPC   C4A66390  43.848  41.542   7.353
10242POPC   C1B66391  43.667  41.508   6.453
10242POPC   C2B66392  43.629  41.565   6.753
10242POPC   C3B66393  43.636  41.503   7.053
10242POPC   C4B66394  43.656  41.544   7.353
10243POPC   NC366395  44.707  37.697   5.553
10243POPC   PO466396  44.694  37.679   5.853
10243POPC   GL166397  44.675  37.685   6.153
10243POPC   GL266398  44.677  37.569   6.153
10243POPC   C1A66399  44.620  37.668   6.453
10243POPC   D2A66400  44.712  37.680   6.753
10243POPC   C3A66401  44.612  37.662   7.053
10243POPC   C4A66402  44.707  37.647   7.353
10243POPC   C1B66403  44.642  37.407   6.453
10243POPC   C2B66404  44.588  37.405   6.753
10243POPC   C3B66405  44.567  37.424   7.053
10243POPC   C4B66406  44.589  37.451   7.353
10244POPC   NC366407   5.126  29.939   5.553
10244POPC   PO466408   5.066  29.969   5.853
10244POPC   GL166409   5.106  29.948   6.153
10244POPC   GL266410   4.954  29.887   6.153
10244POPC   C1A66411   5.056  29.953   6.453
10244POPC   D2A66412   5.074  29.921   6.753
10244POPC   C3A66413   5.044  29.929   7.053
10244POPC   C4A66414   5.053  29.900   7.353
10244POPC   C1B66415   4.851  29.942   6.453
10244POPC   C2B66416   4.812  29.903   6.753
10244POPC   C3B66417   4.865  29.926   7.053
10244POPC   C4B66418   4.821  29.940   7.353
10245POPC   NC366419   7.397   2.014   5.553
10245POPC   PO466420   7.442   1.958   5.853
10245POPC   GL166421   7.433   2.012   6.153
10245POPC   GL266422   7.342   2.016   6.153
10245POPC   C1A66423   7.440   1.956   6.453
10245POPC   D2A66424   7.391   1.953   6.753
10245POPC   C3A66425   7.451   2.039   7.053
10245POPC   C4A66426   7.383   2.022   7.353
10245POPC   C1B66427   7.213   2.086   6.453
10245POPC   C2B66428   7.227   2.044   6.753
10245POPC   C3B66429   7.182   2.031   7.053
10245POPC   C4B66430   7.139   2.115   7.353
10246POPC   NC366431  28.337  44.672   5.553
10246POPC   PO466432  28.330  44.667   5.853
10246POPC   GL166433  28.333  44.675   6.153
10246POPC   GL266434  28.439  44.604   6.153
10246POPC   C1A66435  28.395  44.659   6.453
10246POPC   D2A66436  28.360  44.665   6.753
10246POPC   C3A66437  28.381  44.705   7.053
10246POPC   C4A66438  28.386  44.665   7.353
10246POPC   C1B66439  28.536  44.536   6.453
10246POPC   C2B66440  28.612  44.543   6.753
10246POPC   C3B66441  28.544  44.567   7.053
10246POPC   C4B66442  28.545  44.531   7.353
10247POPC   NC366443  31.510  35.378   5.553
10247POPC   PO466444  31.441  35.383   5.853
10247POPC   GL166445  31.461  35.309   6.153
10247POPC   GL266446  31.419  35.201   6.153
10247POPC   C1A66447  31.430  35.326   6.453
10247POPC   D2A66448  31.508  35.373   6.753
10247POPC   C3A66449  31.470  35.313   7.053
10247POPC   C4A66450  31.501  35.350   7.353
10247POPC   C1B66451  31.450  35.133   6.453
10247POPC   C2B66452  31.448  35.122   6.753
10247POPC   C3B66453  31.422  35.123   7.053
10247POPC   C4B66454  31.428  35.108   7.353
10248POPC   NC366455   3.578   6.627   5.553
10248POPC   PO466456   3.511   6.608   5.853
10248POPC   GL166457   3.525   6.610   6.153
10248POPC   GL266458   3.569   6.764   6.153
10248POPC   C1A66459   3.555   6.606   6.453
10248POPC   D2A66460   3.579   6.635   6.753
10248POPC   C3A66461   3.573   6.670   7.053
10248POPC   C4A66462   3.492   6.672   7.353
10248POPC   C1B66463   3.580   6.925   6.453
10248POPC   C2B66464   3.545   6.901   6.753
10248POPC   C3B66465   3.604   6.851   7.053
10248POPC   C4B66466   3.541   6.924   7.353
10249POPC   NC366467  17.504  11.342   5.553
10249POPC   PO466468  17.513  11.251   5.853
10249POPC   GL166469  17.474  11.343   6.153
10249POPC   GL266470  17.561  11.182   6.153
10249POPC   C1A66471  17.553  11.266   6.453
10249POPC   D2A66472  17.502  11.301   6.753
10249POPC   C3A66473  17.513  11.344   7.053
10249POPC   C4A66474  17.543  11.329   7.353
10249POPC   C1B66475  17.552  11.039   6.453
10249POPC   C2B66476  17.557  11.081   6.753
10249POPC   C3B66477  17.516  11.077   7.053
10249POPC   C4B66478  17.562  11.020   7.353
10250POPC   NC366479  28.406  31.487   5.553
10250POPC   PO466480  28.362  31.517   5.853
10250POPC   GL166481  28.324  31.456   6.153
10250POPC   GL266482  28.312  31.322   6.153
10250POPC   C1A66483  28.389  31.445   6.453
10250POPC   D2A66484  28.370  31.468   6.753
10250POPC   C3A66485  28.378  31.516   7.053
10250POPC   C4A66486  28.331  31.466   7.353
10250POPC   C1B66487  28.315  31.229   6.453
10250POPC   C2B66488  28.287  31.267   6.753
10250POPC   C3B66489  28.270  31.241   7.053
10250POPC   C4B66490  28.282  31.276   7.353
10251POPC   NC366491  20.631   2.016   5.553
10251POPC   PO466492  20.606   1.954   5.853
10251POPC   GL166493  20.627   2.014   6.153
10251POPC   GL266494  20.621   2.068   6.153
10251POPC   C1A66495  20.654   2.033   6.453
10251POPC   D2A66496  20.660   2.020   6.753
10251POPC   C3A66497  20.616   1.953   7.053
10251POPC   C4A66498  20.647   1.965   7.353
10251POPC   C1B66499  20.562   2.262   6.453
10251POPC   C2B66500  20.574   2.206   6.753
10251POPC   C3B66501  20.593   2.190   7.053
10251POPC   C4B66502  20.567   2.283   7.353
10252POPC   NC366503   9.751  28.345   5.553
10252POPC   PO466504   9.760  28.410   5.853
10252POPC   GL166505   9.757  28.354   6.153
10252POPC   GL266506   9.656  28.457   6.153
10252POPC   C1A66507   9.788  28.400   6.453
10252POPC   D2A66508   9.797  28.376   6.753
10252POPC   C3A66509   9.749  28.417   7.053
10252POPC   C4A66510   9.736  28.375   7.353
10252POPC   C1B66511   9.535  28.558   6.453
10252POPC   C2B66512   9.493  28.502   6.753
10252POPC   C3B66513   9.584  28.485   7.053
10252POPC   C4B66514   9.506  28.501   7.353
10253POPC   NC366515   9.006   5.085   5.553
10253POPC   PO466516   8.941   5.060   5.853
10253POPC   GL166517   8.951   5.106   6.153
10253POPC   GL266518   8.995   5.012   6.153
10253POPC   C1A66519   8.996   5.132   6.453
10253POPC   D2A66520   8.949   5.141   6.753
10253POPC   C3A66521   8.962   5.104   7.053
10253POPC   C4A66522   9.014   5.097   7.353
10253POPC   C1B66523   9.141   4.929   6.453
10253POPC   C2B66524   9.053   4.850   6.753
10253POPC   C3B66525   9.107   4.898   7.053
10253POPC   C4B66526   9.098   4.928   7.353
10254POPC   NC366527  12.047  40.812   5.553
10254POPC   PO466528  12.072  40.813   5.853
10254POPC   GL166529  12.066  40.818   6.153
10254POPC   GL266530  12.076  40.950   6.153
10254POPC   C1A66531  12.121  40.754   6.453
10254POPC   D2A66532  12.039  40.761   6.753
10254POPC   C3A66533  12.119  40.779   7.053
10254POPC   C4A66534  12.037  40.772   7.353
10254POPC   C1B66535  12.017  41.058   6.453
10254POPC   C2B66536  12.042  41.032   6.753
10254POPC   C3B66537  12.030  40.990   7.053
10254POPC   C4B66538  11.979  41.036   7.353
10255POPC   NC366539   2.755  28.321   5.553
10255POPC   PO466540   2.784  28.386   5.853
10255POPC   GL166541   2.726  28.361   6.153
10255POPC   GL266542   2.866  28.401   6.153
10255POPC   C1A66543   2.804  28.397   6.453
10255POPC   D2A66544   2.755  28.340   6.753
10255POPC   C3A66545   2.779  28.334   7.053
10255POPC   C4A66546   2.756  28.363   7.353
10255POPC   C1B66547   3.035  28.401   6.453
10255POPC   C2B66548   3.006  28.428   6.753
10255POPC   C3B66549   2.964  28.378   7.053
10255POPC   C4B66550   3.006  28.417   7.353
10256POPC   NC366551  26.838  22.198   5.553
10256POPC   PO466552  26.821  22.191   5.853
10256POPC   GL166553  26.852  22.129   6.153
10256POPC   GL266554  26.802  22.317   6.153
10256POPC   C1A66555  26.769  22.142   6.453
10256POPC   D2A66556  26.771  22.172   6.753
10256POPC   C3A66557  26.855  22.118   7.053
10256POPC   C4A66558  26.796  22.174   7.353
10256POPC   C1B66559  26.804  22.418   6.453
10256POPC   C2B66560  26.779  22.372   6.753
10256POPC   C3B66561  26.754  22.400   7.053
10256POPC   C4B66562  26.772  22.456   7.353
10257POPC   NC366563  21.434  16.739   5.553
10257POPC   PO466564  21.340  16.749   5.853
10257POPC   GL166565  21.412  16.736   6.153
10257POPC   GL266566  21.252  16.754   6.153
10257POPC   C1A66567  21.410  16.738   6.453
10257POPC   D2A66568  21.360  16.759   6.753
10257POPC   C3A66569  21.352  16.712   7.053
10257POPC   C4A66570  21.388  16.732   7.353
10257POPC   C1B66571  21.226  16.831   6.453
10257POPC   C2B66572  21.194  16.830   6.753
10257POPC   C3B66573  21.136  16.910   7.053
10257POPC   C4B66574  21.189  16.875   7.353
10258POPC   NC366575   4.356   5.896   5.553
10258POPC   PO466576   4.268   5.906   5.853
10258POPC   GL166577   4.332   5.827   6.153
10258POPC   GL266578   4.441   5.768   6.153
10258POPC   C1A66579   4.314   5.885   6.453
10258POPC   D2A66580   4.342   5.916   6.753
10258POPC   C3A66581   4.343   5.860   7.053
10258POPC   C4A66582   4.327   5.902   7.353
10258POPC   C1B66583   4.503   5.705   6.453
10258POPC   C2B66584   4.528   5.766   6.753
10258POPC   C3B66585   4.576   5.706   7.053
10258POPC   C4B66586   4.479   5.712   7.353
10259POPC   NC366587   3.527  25.246   5.553
10259POPC   PO466588   3.548  25.234   5.853
10259POPC   GL166589   3.563  25.286   6.153
10259POPC   GL266590   3.416  25.212   6.153
10259POPC   C1A66591   3.549  25.273   6.453
10259POPC   D2A66592   3.499  25.275   6.753
10259POPC   C3A66593   3.498  25.231   7.053
10259POPC   C4A66594   3.525  25.312   7.353
10259POPC   C1B66595   3.353  25.170   6.453
10259POPC   C2B66596   3.326  25.096   6.753
10259POPC   C3B66597   3.288  25.115   7.053
10259POPC   C4B66598   3.320  25.122   7.353
10260POPC   NC366599  20.568  12.062   5.553
10260POPC   PO466600  20.566  12.100   5.853
10260POPC   GL166601  20.566  12.040   6.153
10260POPC   GL266602  20.710  12.042   6.153
10260POPC   C1A66603  20.618  12.099   6.453
10260POPC   D2A66604  20.624  12.049   6.753
10260POPC   C3A66605  20.585  12.098   7.053
10260POPC   C4A66606  20.580  12.043   7.353
10260POPC   C1B66607  20.865  11.915   6.453
10260POPC   C2B66608  20.825  11.919   6.753
10260POPC   C3B66609  20.880  11.914   7.053
10260POPC   C4B66610  20.811  11.947   7.353
10261POPC   NC366611   2.798  39.201   5.553
10261POPC   PO466612   2.813  39.263   5.853
10261POPC   GL166613   2.806  39.229   6.153
10261POPC   GL266614   2.887  39.271   6.153
10261POPC   C1A66615   2.798  39.274   6.453
10261POPC   D2A66616   2.770  39.255   6.753
10261POPC   C3A66617   2.767  39.188   7.053
10261POPC   C4A66618   2.774  39.203   7.353
10261POPC   C1B66619   2.999  39.342   6.453
10261POPC   C2B66620   2.986  39.347   6.753
10261POPC   C3B66621   2.952  39.393   7.053
10261POPC   C4B66622   2.919  39.376   7.353
10262POPC   NC366623  23.669  29.925   5.553
10262POPC   PO466624  23.735  29.930   5.853
10262POPC   GL166625  23.665  29.891   6.153
10262POPC   GL266626  23.649  29.836   6.153
10262POPC   C1A66627  23.685  29.935   6.453
10262POPC   D2A66628  23.709  29.889   6.753
10262POPC   C3A66629  23.685  29.936   7.053
10262POPC   C4A66630  23.735  29.883   7.353
10262POPC   C1B66631  23.622  29.758   6.453
10262POPC   C2B66632  23.621  29.752   6.753
10262POPC   C3B66633  23.541  29.704   7.053
10262POPC   C4B66634  23.553  29.700   7.353
10263POPC   NC366635  11.335  15.956   5.553
10263POPC   PO466636  11.327  15.974   5.853
10263POPC   GL166637  11.324  15.929   6.153
10263POPC   GL266638  11.410  15.986   6.153
10263POPC   C1A66639  11.317  15.933   6.453
10263POPC   D2A66640  11.307  15.950   6.753
10263POPC   C3A66641  11.274  15.956   7.053
10263POPC   C4A66642  11.281  15.926   7.353
10263POPC   C1B66643  11.566  15.947   6.453
10263POPC   C2B66644  11.532  15.923   6.753
10263POPC   C3B66645  11.585  15.940   7.053
10263POPC   C4B66646  11.507  15.974   7.353
10264POPC   NC366647  22.142  30.662   5.553
10264POPC   PO466648  22.201  30.744   5.853
10264POPC   GL166649  22.202  30.731   6.153
10264POPC   GL266650  22.136  30.772   6.153
10264POPC   C1A66651  22.135  30.705   6.453
10264POPC   D2A66652  22.174  30.662   6.753
10264POPC   C3A66653  22.121  30.717   7.053
10264POPC   C4A66654  22.124  30.660   7.353
10264POPC   C1B66655  22.058  30.941   6.453
10264POPC   C2B66656  22.003  30.937   6.753
10264POPC   C3B66657  22.007  30.943   7.053
10264POPC   C4B66658  21.971  30.874   7.353
10265POPC   NC366659  36.900  29.872   5.553
10265POPC   PO466660  36.908  29.928   5.853
10265POPC   GL166661  36.889  29.908   6.153
10265POPC   GL266662  36.805  29.818   6.153
10265POPC   C1A66663  36.921  29.877   6.453
10265POPC   D2A66664  36.862  29.913   6.753
10265POPC   C3A66665  36.915  29.905   7.053
10265POPC   C4A66666  36.874  29.900   7.353
10265POPC   C1B66667  36.731  29.697   6.453
10265POPC   C2B66668  36.785  29.759   6.753
10265POPC   C3B66669  36.740  29.765   7.053
10265POPC   C4B66670  36.696  29.779   7.353
10266POPC   NC366671  29.193  39.196   5.553
10266POPC   PO466672  29.147  39.202   5.853
10266POPC   GL166673  29.190  39.255   6.153
10266POPC   GL266674  29.224  39.314   6.153
10266POPC   C1A66675  29.182  39.230   6.453
10266POPC   D2A66676  29.150  39.219   6.753
10266POPC   C3A66677  29.108  39.186   7.053
10266POPC   C4A66678  29.178  39.227   7.353
10266POPC   C1B66679  29.393  39.330   6.453
10266POPC   C2B66680  29.355  39.335   6.753
10266POPC   C3B66681  29.339  39.322   7.053
10266POPC   C4B66682  29.380  39.382   7.353
10267POPC   NC366683  11.286   6.664   5.553
10267POPC   PO466684  11.278   6.650   5.853
10267POPC   GL166685  11.257   6.612   6.153
10267POPC   GL266686  11.464   6.693   6.153
10267POPC   C1A66687  11.273   6.645   6.453
10267POPC   D2A66688  11.283   6.657   6.753
10267POPC   C3A66689  11.349   6.618   7.053
10267POPC   C4A66690  11.328   6.685   7.353
10267POPC   C1B66691  11.563   6.717   6.453
10267POPC   C2B66692  11.589   6.683   6.753
10267POPC   C3B66693  11.557   6.733   7.053
10267POPC   C4B66694  11.513   6.685   7.353
10268POPC   NC366695   5.864  39.264   5.553
10268POPC   PO466696   5.842  39.215   5.853
10268POPC   GL166697   5.826  39.236   6.153
10268POPC   GL266698   5.986  39.118   6.153
10268POPC   C1A66699   5.910  39.210   6.453
10268POPC   D2A66700   5.821  39.275   6.753
10268POPC   C3A66701   5.840  39.273   7.053
10268POPC   C4A66702   5.890  39.266   7.353
10268POPC   C1B66703   6.053  39.088   6.453
10268POPC   C2B66704   6.018  39.078   6.753
10268POPC   C3B66705   6.022  39.043   7.053
10268POPC   C4B66706   6.089  39.046   7.353
10269POPC   NC366707  43.837  36.138   5.553
10269POPC   PO466708  43.869  36.115   5.853
10269POPC   GL166709  43.889  36.148   6.153
10269POPC   GL266710  43.918  35.994   6.153
10269POPC   C1A66711  43.874  36.137   6.453
10269POPC   D2A66712  43.925  36.165   6.753
10269POPC   C3A66713  43.851  36.099   7.053
10269POPC   C4A66714  43.884  36.172   7.353
10269POPC   C1B66715  43.935  35.891   6.453
10269POPC   C2B66716  43.944  35.918   6.753
10269POPC   C3B66717  43.930  35.885   7.053
10269POPC   C4B66718  43.954  35.889   7.353
10270POPC   NC366719  44.640  26.821   5.553
10270POPC   PO466720  44.698  26.796   5.853
10270POPC   GL166721  44.666  26.846   6.153
10270POPC   GL266722  44.546  26.763   6.153
10270POPC   C1A66723  44.699  26.818   6.453
10270POPC   D2A66724  44.623  26.825   6.753
10270POPC   C3A66725  44.658  26.834   7.053
10270POPC   C4A66726  44.670  26.804   7.353
10270POPC   C1B66727  44.438  26.642   6.453
10270POPC   C2B66728  44.523  26.678   6.753
10270POPC   C3B66729  44.530  26.693   7.053
10270POPC   C4B66730  44.476  26.663   7.353
10271POPC   NC366731   5.055  38.420   5.553
10271POPC   PO466732   5.111  38.438   5.853
10271POPC   GL166733   5.044  38.495   6.153
10271POPC   GL266734   5.172  38.392   6.153
10271POPC   C1A66735   5.060  38.482   6.453
10271POPC   D2A66736   5.062  38.406   6.753
10271POPC   C3A66737   5.055  38.466   7.053
10271POPC   C4A66738   5.106  38.504   7.353
10271POPC   C1B66739   5.225  38.276   6.453
10271POPC   C2B66740   5.273  38.215   6.753
10271POPC   C3B66741   5.221  38.228   7.053
10271POPC   C4B66742   5.266  38.267   7.353
10272POPC   NC366743  33.821  27.570   5.553
10272POPC   PO466744  33.840  27.612   5.853
10272POPC   GL166745  33.752  27.595   6.153
10272POPC   GL266746  33.660  27.553   6.153
10272POPC   C1A66747  33.830  27.552   6.453
10272POPC   D2A66748  33.765  27.574   6.753
10272POPC   C3A66749  33.836  27.581   7.053
10272POPC   C4A66750  33.816  27.585   7.353
10272POPC   C1B66751  33.591  27.480   6.453
10272POPC   C2B66752  33.585  27.413   6.753
10272POPC   C3B66753  33.561  27.500   7.053
10272POPC   C4B66754  33.550  27.432   7.353
10273POPC   NC366755  22.896   3.572   5.553
10273POPC   PO466756  22.956   3.492   5.853
10273POPC   GL166757  22.933   3.495   6.153
10273POPC   GL266758  22.919   3.637   6.153
10273POPC   C1A66759  22.972   3.590   6.453
10273POPC   D2A66760  22.968   3.521   6.753
10273POPC   C3A66761  22.965   3.585   7.053
10273POPC   C4A66762  22.891   3.494   7.353
10273POPC   C1B66763  22.852   3.799   6.453
10273POPC   C2B66764  22.775   3.756   6.753
10273POPC   C3B66765  22.789   3.750   7.053
10273POPC   C4B66766  22.825   3.742   7.353
10274POPC   NC366767  14.404  33.055   5.553
10274POPC   PO466768  14.404  33.044   5.853
10274POPC   GL166769  14.381  33.011   6.153
10274POPC   GL266770  14.361  32.864   6.153
10274POPC   C1A66771  14.411  33.064   6.453
10274POPC   D2A66772  14.442  33.037   6.753
10274POPC   C3A66773  14.407  33.030   7.053
10274POPC   C4A66774  14.376  33.001   7.353
10274POPC   C1B66775  14.374  32.753   6.453
10274POPC   C2B66776  14.294  32.828   6.753
10274POPC   C3B66777  14.303  32.794   7.053
10274POPC   C4B66778  14.299  32.797   7.353
10275POPC   NC366779  15.909  15.957   5.553
10275POPC   PO466780  16.004  15.978   5.853
10275POPC   GL166781  15.997  15.917   6.153
10275POPC   GL266782  15.880  15.861   6.153
10275POPC   C1A66783  16.001  15.947   6.453
10275POPC   D2A66784  15.951  15.989   6.753
10275POPC   C3A66785  15.969  15.975   7.053
10275POPC   C4A66786  15.928  15.941   7.353
10275POPC   C1B66787  15.801  15.760   6.453
10275POPC   C2B66788  15.810  15.724   6.753
10275POPC   C3B66789  15.794  15.787   7.053
10275POPC   C4B66790  15.821  15.727   7.353
10276POPC   NC366791   6.629   6.626   5.553
10276POPC   PO466792   6.631   6.629   5.853
10276POPC   GL166793   6.658   6.607   6.153
10276POPC   GL266794   6.745   6.782   6.153
10276POPC   C1A66795   6.644   6.656   6.453
10276POPC   D2A66796   6.682   6.607   6.753
10276POPC   C3A66797   6.603   6.654   7.053
10276POPC   C4A66798   6.683   6.620   7.353
10276POPC   C1B66799   6.794   6.859   6.453
10276POPC   C2B66800   6.783   6.873   6.753
10276POPC   C3B66801   6.823   6.794   7.053
10276POPC   C4B66802   6.761   6.798   7.353
10277POPC   NC366803  11.346  35.391   5.553
10277POPC   PO466804  11.254  35.330   5.853
10277POPC   GL166805  11.321  35.395   6.153
10277POPC   GL266806  11.371  35.428   6.153
10277POPC   C1A66807  11.277  35.366   6.453
10277POPC   D2A66808  11.293  35.381   6.753
10277POPC   C3A66809  11.287  35.341   7.053
10277POPC   C4A66810  11.322  35.325   7.353
10277POPC   C1B66811  11.524  35.391   6.453
10277POPC   C2B66812  11.557  35.438   6.753
10277POPC   C3B66813  11.517  35.378   7.053
10277POPC   C4B66814  11.582  35.391   7.353
10278POPC   NC366815  24.502  10.558   5.553
10278POPC   PO466816  24.521  10.573   5.853
10278POPC   GL166817  24.506  10.552   6.153
10278POPC   GL266818  24.369  10.608   6.153
10278POPC   C1A66819  24.452  10.488   6.453
10278POPC   D2A66820  24.475  10.476   6.753
10278POPC   C3A66821  24.512  10.511   7.053
10278POPC   C4A66822  24.447  10.476   7.353
10278POPC   C1B66823  24.295  10.677   6.453
10278POPC   C2B66824  24.288  10.711   6.753
10278POPC   C3B66825  24.242  10.621   7.053
10278POPC   C4B66826  24.259  10.716   7.353
10279POPC   NC366827  21.382   5.847   5.553
10279POPC   PO466828  21.379   5.857   5.853
10279POPC   GL166829  21.363   5.832   6.153
10279POPC   GL266830  21.340   5.997   6.153
10279POPC   C1A66831  21.392   5.867   6.453
10279POPC   D2A66832  21.417   5.850   6.753
10279POPC   C3A66833  21.365   5.837   7.053
10279POPC   C4A66834  21.419   5.884   7.353
10279POPC   C1B66835  21.272   6.116   6.453
10279POPC   C2B66836  21.220   6.079   6.753
10279POPC   C3B66837  21.194   6.099   7.053
10279POPC   C4B66838  21.195   6.045   7.353
10280POPC   NC366839  17.516  27.640   5.553
10280POPC   PO466840  17.509  27.629   5.853
10280POPC   GL166841  17.537  27.571   6.153
10280POPC   GL266842  17.406  27.448   6.153
10280POPC   C1A66843  17.480  27.629   6.453
10280POPC   D2A66844  17.501  27.580   6.753
10280POPC   C3A66845  17.462  27.595   7.053
10280POPC   C4A66846  17.479  27.587   7.353
10280POPC   C1B66847  17.366  27.382   6.453
10280POPC   C2B66848  17.320  27.374   6.753
10280POPC   C3B66849  17.340  27.404   7.053
10280POPC   C4B66850  17.416  27.403   7.353
10281POPC   NC366851  25.221  12.042   5.553
10281POPC   PO466852  25.239  12.048   5.853
10281POPC   GL166853  25.306  12.096   6.153
10281POPC   GL266854  25.411  11.968   6.153
10281POPC   C1A66855  25.268  12.071   6.453
10281POPC   D2A66856  25.229  12.091   6.753
10281POPC   C3A66857  25.218  12.119   7.053
10281POPC   C4A66858  25.288  12.066   7.353
10281POPC   C1B66859  25.467  11.898   6.453
10281POPC   C2B66860  25.484  11.962   6.753
10281POPC   C3B66861  25.495  11.976   7.053
10281POPC   C4B66862  25.458  11.916   7.353
10282POPC   NC366863  38.421  25.261   5.553
10282POPC   PO466864  38.426  25.259   5.853
10282POPC   GL166865  38.416  25.225   6.153
10282POPC   GL266866  38.350  25.374   6.153
10282POPC   C1A66867  38.465  25.257   6.453
10282POPC   D2A66868  38.485  25.309   6.753
10282POPC   C3A66869  38.454  25.258   7.053
10282POPC   C4A66870  38.494  25.230   7.353
10282POPC   C1B66871  38.279  25.461   6.453
10282POPC   C2B66872  38.276  25.422   6.753
10282POPC   C3B66873  38.312  25.475   7.053
10282POPC   C4B66874  38.270  25.436   7.353
10283POPC   NC366875  42.321  38.500   5.553
10283POPC   PO466876  42.359  38.449   5.853
10283POPC   GL166877  42.287  38.493   6.153
10283POPC   GL266878  42.288  38.344   6.153
10283POPC   C1A66879  42.383  38.407   6.453
10283POPC   D2A66880  42.287  38.416   6.753
10283POPC   C3A66881  42.371  38.430   7.053
10283POPC   C4A66882  42.289  38.436   7.353
10283POPC   C1B66883  42.147  38.303   6.453
10283POPC   C2B66884  42.149  38.249   6.753
10283POPC   C3B66885  42.133  38.281   7.053
10283POPC   C4B66886  42.201  38.297   7.353
10284POPC   NC366887  15.152  33.829   5.553
10284POPC   PO466888  15.167  33.848   5.853
10284POPC   GL166889  15.180  33.803   6.153
10284POPC   GL266890  15.183  33.878   6.153
10284POPC   C1A66891  15.213  33.758   6.453
10284POPC   D2A66892  15.174  33.825   6.753
10284POPC   C3A66893  15.148  33.847   7.053
10284POPC   C4A66894  15.219  33.847   7.353
10284POPC   C1B66895  15.225  34.088   6.453
10284POPC   C2B66896  15.152  34.086   6.753
10284POPC   C3B66897  15.172  34.074   7.053
10284POPC   C4B66898  15.130  34.017   7.353
10285POPC   NC366899   0.443  19.831   5.553
10285POPC   PO466900   0.446  19.821   5.853
10285POPC   GL166901   0.459  19.815   6.153
10285POPC   GL266902   0.301  19.850   6.153
10285POPC   C1A66903   0.480  19.881   6.453
10285POPC   D2A66904   0.457  19.802   6.753
10285POPC   C3A66905   0.414  19.884   7.053
10285POPC   C4A66906   0.410  19.828   7.353
10285POPC   C1B66907   0.197  19.985   6.453
10285POPC   C2B66908   0.198  19.913   6.753
10285POPC   C3B66909   0.200  19.965   7.053
10285POPC   C4B66910   0.179  19.958   7.353
10286POPC   NC366911  25.299  17.494   5.553
10286POPC   PO466912  25.298  17.512   5.853
10286POPC   GL166913  25.248  17.522   6.153
10286POPC   GL266914  25.184  17.514   6.153
10286POPC   C1A66915  25.249  17.551   6.453
10286POPC   D2A66916  25.286  17.473   6.753
10286POPC   C3A66917  25.219  17.552   7.053
10286POPC   C4A66918  25.235  17.478   7.353
10286POPC   C1B66919  25.034  17.516   6.453
10286POPC   C2B66920  25.060  17.440   6.753
10286POPC   C3B66921  25.013  17.499   7.053
10286POPC   C4B66922  25.044  17.481   7.353
10287POPC   NC366923  36.868  39.186   5.553
10287POPC   PO466924  36.939  39.242   5.853
10287POPC   GL166925  36.891  39.197   6.153
10287POPC   GL266926  36.924  39.117   6.153
10287POPC   C1A66927  36.869  39.247   6.453
10287POPC   D2A66928  36.863  39.239   6.753
10287POPC   C3A66929  36.890  39.260   7.053
10287POPC   C4A66930  36.928  39.206   7.353
10287POPC   C1B66931  36.897  39.003   6.453
10287POPC   C2B66932  36.949  38.943   6.753
10287POPC   C3B66933  36.926  38.988   7.053
10287POPC   C4B66934  36.951  38.958   7.353
10288POPC   NC366935  34.574  40.803   5.553
10288POPC   PO466936  34.571  40.829   5.853
10288POPC   GL166937  34.536  40.786   6.153
10288POPC   GL266938  34.542  40.668   6.153
10288POPC   C1A66939  34.570  40.739   6.453
10288POPC   D2A66940  34.552  40.819   6.753
10288POPC   C3A66941  34.565  40.822   7.053
10288POPC   C4A66942  34.533  40.782   7.353
10288POPC   C1B66943  34.546  40.504   6.453
10288POPC   C2B66944  34.574  40.489   6.753
10288POPC   C3B66945  34.566  40.578   7.053
10288POPC   C4B66946  34.533  40.497   7.353
10289POPC   NC366947  30.714  36.932   5.553
10289POPC   PO466948  30.699  36.902   5.853
10289POPC   GL166949  30.661  36.879   6.153
10289POPC   GL266950  30.635  37.014   6.153
10289POPC   C1A66951  30.731  36.894   6.453
10289POPC   D2A66952  30.745  36.930   6.753
10289POPC   C3A66953  30.683  36.863   7.053
10289POPC   C4A66954  30.649  36.931   7.353
10289POPC   C1B66955  30.577  37.165   6.453
10289POPC   C2B66956  30.572  37.123   6.753
10289POPC   C3B66957  30.625  37.170   7.053
10289POPC   C4B66958  30.602  37.102   7.353
10290POPC   NC366959  10.527  13.585   5.553
10290POPC   PO466960  10.486  13.638   5.853
10290POPC   GL166961  10.556  13.674   6.153
10290POPC   GL266962  10.449  13.487   6.153
10290POPC   C1A66963  10.569  13.636   6.453
10290POPC   D2A66964  10.498  13.596   6.753
10290POPC   C3A66965  10.540  13.612   7.053
10290POPC   C4A66966  10.574  13.621   7.353
10290POPC   C1B66967  10.397  13.395   6.453
10290POPC   C2B66968  10.401  13.442   6.753
10290POPC   C3B66969  10.389  13.439   7.053
10290POPC   C4B66970  10.308  13.487   7.353
10291POPC   NC366971   9.712  40.031   5.553
10291POPC   PO466972   9.765  40.029   5.853
10291POPC   GL166973   9.725  39.999   6.153
10291POPC   GL266974   9.779  39.863   6.153
10291POPC   C1A66975   9.710  40.014   6.453
10291POPC   D2A66976   9.782  40.028   6.753
10291POPC   C3A66977   9.773  40.017   7.053
10291POPC   C4A66978   9.701  39.988   7.353
10291POPC   C1B66979   9.894  39.814   6.453
10291POPC   C2B66980   9.844  39.795   6.753
10291POPC   C3B66981   9.910  39.842   7.053
10291POPC   C4B66982   9.925  39.797   7.353
10292POPC   NC366983  38.438  12.115   5.553
10292POPC   PO466984  38.439  12.122   5.853
10292POPC   GL166985  38.427  12.108   6.153
10292POPC   GL266986  38.524  11.938   6.153
10292POPC   C1A66987  38.469  12.093   6.453
10292POPC   D2A66988  38.485  12.110   6.753
10292POPC   C3A66989  38.436  12.088   7.053
10292POPC   C4A66990  38.446  12.038   7.353
10292POPC   C1B66991  38.638  11.914   6.453
10292POPC   C2B66992  38.665  11.945   6.753
10292POPC   C3B66993  38.639  11.896   7.053
10292POPC   C4B66994  38.666  11.945   7.353
10293POPC   NC366995   4.327  19.805   5.553
10293POPC   PO466996   4.367  19.879   5.853
10293POPC   GL166997   4.317  19.879   6.153
10293POPC   GL266998   4.187  19.906   6.153
10293POPC   C1A66999   4.273  19.854   6.453
10293POPC   D2A67000   4.367  19.884   6.753
10293POPC   C3A67001   4.361  19.811   7.053
10293POPC   C4A67002   4.279  19.843   7.353
10293POPC   C1B67003   4.111  19.961   6.453
10293POPC   C2B67004   4.079  20.031   6.753
10293POPC   C3B67005   4.156  19.984   7.053
10293POPC   C4B67006   4.137  19.982   7.353
10294POPC   NC367007  17.550  17.525   5.553
10294POPC   PO467008  17.511  17.543   5.853
10294POPC   GL167009  17.476  17.467   6.153
10294POPC   GL267010  17.470  17.632   6.153
10294POPC   C1A67011  17.538  17.509   6.453
10294POPC   D2A67012  17.533  17.466   6.753
10294POPC   C3A67013  17.524  17.483   7.053
10294POPC   C4A67014  17.490  17.488   7.353
10294POPC   C1B67015  17.493  17.708   6.453
10294POPC   C2B67016  17.489  17.766   6.753
10294POPC   C3B67017  17.489  17.783   7.053
10294POPC   C4B67018  17.494  17.719   7.353
10295POPC   NC367019  33.043  41.573   5.553
10295POPC   PO467020  33.053  41.595   5.853
10295POPC   GL167021  33.014  41.556   6.153
10295POPC   GL267022  33.062  41.636   6.153
10295POPC   C1A67023  32.992  41.558   6.453
10295POPC   D2A67024  33.034  41.581   6.753
10295POPC   C3A67025  33.065  41.534   7.053
10295POPC   C4A67026  33.060  41.509   7.353
10295POPC   C1B67027  33.163  41.727   6.453
10295POPC   C2B67028  33.149  41.719   6.753
10295POPC   C3B67029  33.183  41.769   7.053
10295POPC   C4B67030  33.134  41.725   7.353
10296POPC   NC367031  22.183  36.945   5.553
10296POPC   PO467032  22.162  36.915   5.853
10296POPC   GL167033  22.148  36.947   6.153
10296POPC   GL267034  22.269  36.925   6.153
10296POPC   C1A67035  22.209  36.908   6.453
10296POPC   D2A67036  22.122  36.867   6.753
10296POPC   C3A67037  22.189  36.904   7.053
10296POPC   C4A67038  22.198  36.898   7.353
10296POPC   C1B67039  22.395  36.878   6.453
10296POPC   C2B67040  22.385  36.869   6.753
10296POPC   C3B67041  22.455  36.901   7.053
10296POPC   C4B67042  22.456  36.860   7.353
10297POPC   NC367043   1.262  22.977   5.553
10297POPC   PO467044   1.173  22.947   5.853
10297POPC   GL167045   1.221  22.900   6.153
10297POPC   GL267046   1.072  22.860   6.153
10297POPC   C1A67047   1.260  22.904   6.453
10297POPC   D2A67048   1.179  22.921   6.753
10297POPC   C3A67049   1.255  22.985   7.053
10297POPC   C4A67050   1.225  22.980   7.353
10297POPC   C1B67051   0.991  22.731   6.453
10297POPC   C2B67052   1.024  22.795   6.753
10297POPC   C3B67053   0.999  22.792   7.053
10297POPC   C4B67054   1.026  22.814   7.353
10298POPC   NC367055  35.326  19.785   5.553
10298POPC   PO467056  35.336  19.814   5.853
10298POPC   GL167057  35.344  19.787   6.153
10298POPC   GL267058  35.312  19.910   6.153
10298POPC   C1A67059  35.372  19.865   6.453
10298POPC   D2A67060  35.376  19.863   6.753
10298POPC   C3A67061  35.339  19.854   7.053
10298POPC   C4A67062  35.393  19.841   7.353
10298POPC   C1B67063  35.264  20.051   6.453
10298POPC   C2B67064  35.291  20.062   6.753
10298POPC   C3B67065  35.239  20.112   7.053
10298POPC   C4B67066  35.274  20.092   7.353
10299POPC   NC367067  44.655  13.605   5.553
10299POPC   PO467068  44.661  13.597   5.853
10299POPC   GL167069  44.621  13.630   6.153
10299POPC   GL267070  44.629  13.734   6.153
10299POPC   C1A67071  44.673  13.677   6.453
10299POPC   D2A67072  44.635  13.638   6.753
10299POPC   C3A67073  44.634  13.669   7.053
10299POPC   C4A67074  44.648  13.646   7.353
10299POPC   C1B67075  44.584  13.830   6.453
10299POPC   C2B67076  44.551  13.862   6.753
10299POPC   C3B67077  44.538  13.824   7.053
10299POPC   C4B67078  44.534  13.818   7.353
10300POPC   NC367079  43.864  29.112   5.553
10300POPC   PO467080  43.879  29.185   5.853
10300POPC   GL167081  43.905  29.150   6.153
10300POPC   GL267082  43.764  29.108   6.153
10300POPC   C1A67083  43.873  29.188   6.453
10300POPC   D2A67084  43.865  29.119   6.753
10300POPC   C3A67085  43.863  29.161   7.053
10300POPC   C4A67086  43.908  29.117   7.353
10300POPC   C1B67087  43.657  29.014   6.453
10300POPC   C2B67088  43.678  29.075   6.753
10300POPC   C3B67089  43.710  29.033   7.053
10300POPC   C4B67090  43.689  29.012   7.353
10301POPC   NC367091  18.269  16.781   5.553
10301POPC   PO467092  18.312  16.756   5.853
10301POPC   GL167093  18.242  16.740   6.153
10301POPC   GL267094  18.269  16.635   6.153
10301POPC   C1A67095  18.233  16.698   6.453
10301POPC   D2A67096  18.277  16.688   6.753
10301POPC   C3A67097  18.295  16.741   7.053
10301POPC   C4A67098  18.253  16.758   7.353
10301POPC   C1B67099  18.152  16.510   6.453
10301POPC   C2B67100  18.152  16.550   6.753
10301POPC   C3B67101  18.155  16.543   7.053
10301POPC   C4B67102  18.218  16.531   7.353
10302POPC   NC367103  40.802  43.126   5.553
10302POPC   PO467104  40.816  43.108   5.853
10302POPC   GL167105  40.830  43.142   6.153
10302POPC   GL267106  40.913  43.139   6.153
10302POPC   C1A67107  40.761  43.069   6.453
10302POPC   D2A67108  40.767  43.093   6.753
10302POPC   C3A67109  40.797  43.084   7.053
10302POPC   C4A67110  40.811  43.110   7.353
10302POPC   C1B67111  41.033  43.285   6.453
10302POPC   C2B67112  41.002  43.281   6.753
10302POPC   C3B67113  40.949  43.256   7.053
10302POPC   C4B67114  41.026  43.249   7.353
10303POPC   NC367115  43.923  38.447   5.553
10303POPC   PO467116  43.911  38.483   5.853
10303POPC   GL167117  43.899  38.441   6.153
10303POPC   GL267118  43.965  38.410   6.153
10303POPC   C1A67119  43.926  38.430   6.453
10303POPC   D2A67120  43.926  38.419   6.753
10303POPC   C3A67121  43.887  38.447   7.053
10303POPC   C4A67122  43.879  38.462   7.353
10303POPC   C1B67123  44.145  38.304   6.453
10303POPC   C2B67124  44.124  38.316   6.753
10303POPC   C3B67125  44.115  38.312   7.053
10303POPC   C4B67126  44.108  38.307   7.353
10304POPC   NC367127  17.467   9.770   5.553
10304POPC   PO467128  17.502   9.744   5.853
10304POPC   GL167129  17.541   9.705   6.153
10304POPC   GL267130  17.400   9.814   6.153
10304POPC   C1A67131  17.489   9.706   6.453
10304POPC   D2A67132  17.503   9.770   6.753
10304POPC   C3A67133  17.467   9.699   7.053
10304POPC   C4A67134  17.469   9.756   7.353
10304POPC   C1B67135  17.345  10.007   6.453
10304POPC   C2B67136  17.367  10.019   6.753
10304POPC   C3B67137  17.375  10.010   7.053
10304POPC   C4B67138  17.380   9.926   7.353
10305POPC   NC367139  27.570  39.191   5.553
10305POPC   PO467140  27.597  39.212   5.853
10305POPC   GL167141  27.589  39.210   6.153
10305POPC   GL267142  27.740  39.206   6.153
10305POPC   C1A67143  27.606  39.210   6.453
10305POPC   D2A67144  27.604  39.277   6.753
10305POPC   C3A67145  27.631  39.265   7.053
10305POPC   C4A67146  27.543  39.252   7.353
10305POPC   C1B67147  27.803  39.192   6.453
10305POPC   C2B67148  27.825  39.216   6.753
10305POPC   C3B67149  27.797  39.139   7.053
10305POPC   C4B67150  27.847  39.170   7.353
10306POPC   NC367151  35.330  44.617   5.553
10306POPC   PO467152  35.318  44.705   5.853
10306POPC   GL167153  35.385  44.694   6.153
10306POPC   GL267154  35.420  44.729   6.153
10306POPC   C1A67155  35.354  44.682   6.453
10306POPC   D2A67156  35.351  44.677   6.753
10306POPC   C3A67157  35.341  44.651   7.053
10306POPC   C4A67158  35.383  44.631   7.353
10306POPC   C1B67159  35.620  44.741   6.453
10306POPC   C2B67160  35.550  44.727   6.753
10306POPC   C3B67161  35.605  44.746   7.053
10306POPC   C4B67162  35.593  44.786   7.353
10307POPC   NC367163  33.844  12.804   5.553
10307POPC   PO467164  33.776  12.858   5.853
10307POPC   GL167165  33.842  12.898   6.153
10307POPC   GL267166  33.893  12.885   6.153
10307POPC   C1A67167  33.751  12.818   6.453
10307POPC   D2A67168  33.831  12.894   6.753
10307POPC   C3A67169  33.781  12.820   7.053
10307POPC   C4A67170  33.777  12.841   7.353
10307POPC   C1B67171  34.087  12.895   6.453
10307POPC   C2B67172  34.042  12.963   6.753
10307POPC   C3B67173  34.054  12.883   7.053
10307POPC   C4B67174  34.042  12.934   7.353
10308POPC   NC367175  19.038   2.005   5.553
10308POPC   PO467176  19.049   1.979   5.853
10308POPC   GL167177  19.071   2.008   6.153
10308POPC   GL267178  18.978   1.933   6.153
10308POPC   C1A67179  19.105   2.037   6.453
10308POPC   D2A67180  19.093   1.959   6.753
10308POPC   C3A67181  19.046   2.014   7.053
10308POPC   C4A67182  19.027   1.983   7.353
10308POPC   C1B67183  18.834   1.935   6.453
10308POPC   C2B67184  18.797   1.962   6.753
10308POPC   C3B67185  18.787   1.962   7.053
10308POPC   C4B67186  18.823   1.891   7.353
10309POPC   NC367187  26.024  44.686   5.553
10309POPC   PO467188  26.011  44.649   5.853
10309POPC   GL167189  26.001  44.710   6.153
10309POPC   GL267190  26.116  44.574   6.153
10309POPC   C1A67191  26.079  44.662   6.453
10309POPC   D2A67192  26.085  44.614   6.753
10309POPC   C3A67193  26.058  44.642   7.053
10309POPC   C4A67194  26.038  44.682   7.353
10309POPC   C1B67195  26.196  44.459   6.453
10309POPC   C2B67196  26.152  44.471   6.753
10309POPC   C3B67197  26.157  44.486   7.053
10309POPC   C4B67198  26.159  44.452   7.353
10310POPC   NC367199  15.183  15.169   5.553
10310POPC   PO467200  15.211  15.135   5.853
10310POPC   GL167201  15.162  15.139   6.153
10310POPC   GL267202  15.143  15.319   6.153
10310POPC   C1A67203  15.135  15.195   6.453
10310POPC   D2A67204  15.183  15.175   6.753
10310POPC   C3A67205  15.169  15.182   7.053
10310POPC   C4A67206  15.228  15.168   7.353
10310POPC   C1B67207  15.077  15.464   6.453
10310POPC   C2B67208  15.088  15.411   6.753
10310POPC   C3B67209  15.131  15.407   7.053
10310POPC   C4B67210  15.060  15.430   7.353
10311POPC   NC367211  40.010  22.116   5.553
10311POPC   PO467212  39.976  22.207   5.853
10311POPC   GL167213  40.028  22.131   6.153
10311POPC   GL267214  40.018  22.315   6.153
10311POPC   C1A67215  39.981  22.147   6.453
10311POPC   D2A67216  40.029  22.204   6.753
10311POPC   C3A67217  40.056  22.134   7.053
10311POPC   C4A67218  40.032  22.202   7.353
10311POPC   C1B67219  39.943  22.355   6.453
10311POPC   C2B67220  39.937  22.433   6.753
10311POPC   C3B67221  39.895  22.404   7.053
10311POPC   C4B67222  39.936  22.390   7.353
10312POPC   NC367223   9.737   8.204   5.553
10312POPC   PO467224   9.701   8.160   5.853
10312POPC   GL167225   9.728   8.199   6.153
10312POPC   GL267226   9.911   8.139   6.153
10312POPC   C1A67227   9.759   8.212   6.453
10312POPC   D2A67228   9.795   8.154   6.753
10312POPC   C3A67229   9.747   8.245   7.053
10312POPC   C4A67230   9.778   8.150   7.353
10312POPC   C1B67231   9.929   8.103   6.453
10312POPC   C2B67232  10.019   8.081   6.753
10312POPC   C3B67233   9.977   8.072   7.053
10312POPC   C4B67234   9.986   8.135   7.353
10313POPC   NC367235  20.643  23.747   5.553
10313POPC   PO467236  20.643  23.745   5.853
10313POPC   GL167237  20.627  23.697   6.153
10313POPC   GL267238  20.587  23.793   6.153
10313POPC   C1A67239  20.593  23.749   6.453
10313POPC   D2A67240  20.588  23.749   6.753
10313POPC   C3A67241  20.655  23.755   7.053
10313POPC   C4A67242  20.597  23.749   7.353
10313POPC   C1B67243  20.461  23.952   6.453
10313POPC   C2B67244  20.541  23.891   6.753
10313POPC   C3B67245  20.454  23.912   7.053
10313POPC   C4B67246  20.496  23.946   7.353
10314POPC   NC367247  12.817  30.695   5.553
10314POPC   PO467248  12.851  30.669   5.853
10314POPC   GL167249  12.877  30.692   6.153
10314POPC   GL267250  12.852  30.559   6.153
10314POPC   C1A67251  12.826  30.740   6.453
10314POPC   D2A67252  12.818  30.735   6.753
10314POPC   C3A67253  12.866  30.735   7.053
10314POPC   C4A67254  12.835  30.670   7.353
10314POPC   C1B67255  12.838  30.461   6.453
10314POPC   C2B67256  12.876  30.457   6.753
10314POPC   C3B67257  12.859  30.400   7.053
10314POPC   C4B67258  12.906  30.418   7.353
10315POPC   NC367259  21.409  17.471   5.553
10315POPC   PO467260  21.376  17.496   5.853
10315POPC   GL167261  21.431  17.538   6.153
10315POPC   GL267262  21.543  17.514   6.153
10315POPC   C1A67263  21.339  17.495   6.453
10315POPC   D2A67264  21.377  17.550   6.753
10315POPC   C3A67265  21.367  17.519   7.053
10315POPC   C4A67266  21.337  17.466   7.353
10315POPC   C1B67267  21.623  17.550   6.453
10315POPC   C2B67268  21.638  17.593   6.753
10315POPC   C3B67269  21.599  17.583   7.053
10315POPC   C4B67270  21.583  17.606   7.353
10316POPC   NC367271   1.206  43.103   5.553
10316POPC   PO467272   1.220  43.065   5.853
10316POPC   GL167273   1.178  43.120   6.153
10316POPC   GL267274   1.222  43.029   6.153
10316POPC   C1A67275   1.227  43.120   6.453
10316POPC   D2A67276   1.167  43.087   6.753
10316POPC   C3A67277   1.226  43.095   7.053
10316POPC   C4A67278   1.201  43.127   7.353
10316POPC   C1B67279   1.204  42.813   6.453
10316POPC   C2B67280   1.190  42.852   6.753
10316POPC   C3B67281   1.227  42.903   7.053
10316POPC   C4B67282   1.237  42.904   7.353
10317POPC   NC367283  43.909  18.278   5.553
10317POPC   PO467284  43.894  18.319   5.853
10317POPC   GL167285  43.883  18.297   6.153
10317POPC   GL267286  44.007  18.362   6.153
10317POPC   C1A67287  43.906  18.317   6.453
10317POPC   D2A67288  43.923  18.268   6.753
10317POPC   C3A67289  43.905  18.266   7.053
10317POPC   C4A67290  43.856  18.321   7.353
10317POPC   C1B67291  44.044  18.408   6.453
10317POPC   C2B67292  44.043  18.402   6.753
10317POPC   C3B67293  44.037  18.416   7.053
10317POPC   C4B67294  44.077  18.465   7.353
10318POPC   NC367295  30.667  40.780   5.553
10318POPC   PO467296  30.708  40.801   5.853
10318POPC   GL167297  30.733  40.760   6.153
10318POPC   GL267298  30.772  40.689   6.153
10318POPC   C1A67299  30.704  40.765   6.453
10318POPC   D2A67300  30.662  40.769   6.753
10318POPC   C3A67301  30.725  40.809   7.053
10318POPC   C4A67302  30.738  40.768   7.353
10318POPC   C1B67303  30.806  40.550   6.453
10318POPC   C2B67304  30.772  40.510   6.753
10318POPC   C3B67305  30.820  40.583   7.053
10318POPC   C4B67306  30.748  40.521   7.353
10319POPC   NC367307  34.560  19.017   5.553
10319POPC   PO467308  34.563  19.020   5.853
10319POPC   GL167309  34.548  19.091   6.153
10319POPC   GL267310  34.700  19.031   6.153
10319POPC   C1A67311  34.541  19.030   6.453
10319POPC   D2A67312  34.590  19.098   6.753
10319POPC   C3A67313  34.538  19.087   7.053
10319POPC   C4A67314  34.586  19.103   7.353
10319POPC   C1B67315  34.857  19.136   6.453
10319POPC   C2B67316  34.831  19.048   6.753
10319POPC   C3B67317  34.805  19.073   7.053
10319POPC   C4B67318  34.832  19.083   7.353
10320POPC   NC367319   9.713  13.655   5.553
10320POPC   PO467320   9.750  13.579   5.853
10320POPC   GL167321   9.765  13.626   6.153
10320POPC   GL267322   9.861  13.653   6.153
10320POPC   C1A67323   9.724  13.639   6.453
10320POPC   D2A67324   9.725  13.605   6.753
10320POPC   C3A67325   9.731  13.646   7.053
10320POPC   C4A67326   9.717  13.604   7.353
10320POPC   C1B67327   9.976  13.751   6.453
10320POPC   C2B67328   9.987  13.789   6.753
10320POPC   C3B67329   9.955  13.804   7.053
10320POPC   C4B67330   9.972  13.730   7.353
10321POPC   NC367331  36.086   5.075   5.553
10321POPC   PO467332  36.144   5.108   5.853
10321POPC   GL167333  36.177   5.065   6.153
10321POPC   GL267334  36.223   5.169   6.153
10321POPC   C1A67335  36.146   5.122   6.453
10321POPC   D2A67336  36.172   5.053   6.753
10321POPC   C3A67337  36.097   5.106   7.053
10321POPC   C4A67338  36.087   5.109   7.353
10321POPC   C1B67339  36.372   5.143   6.453
10321POPC   C2B67340  36.404   5.161   6.753
10321POPC   C3B67341  36.328   5.151   7.053
10321POPC   C4B67342  36.410   5.209   7.353
10322POPC   NC367343  42.357  23.740   5.553
10322POPC   PO467344  42.344  23.732   5.853
10322POPC   GL167345  42.381  23.701   6.153
10322POPC   GL267346  42.265  23.613   6.153
10322POPC   C1A67347  42.352  23.708   6.453
10322POPC   D2A67348  42.356  23.674   6.753
10322POPC   C3A67349  42.339  23.671   7.053
10322POPC   C4A67350  42.362  23.665   7.353
10322POPC   C1B67351  42.146  23.588   6.453
10322POPC   C2B67352  42.094  23.567   6.753
10322POPC   C3B67353  42.110  23.642   7.053
10322POPC   C4B67354  42.064  23.601   7.353
10323POPC   NC367355   2.722   4.332   5.553
10323POPC   PO467356   2.731   4.311   5.853
10323POPC   GL167357   2.731   4.318   6.153
10323POPC   GL267358   2.778   4.188   6.153
10323POPC   C1A67359   2.757   4.338   6.453
10323POPC   D2A67360   2.724   4.326   6.753
10323POPC   C3A67361   2.716   4.317   7.053
10323POPC   C4A67362   2.803   4.314   7.353
10323POPC   C1B67363   2.808   4.110   6.453
10323POPC   C2B67364   2.849   4.023   6.753
10323POPC   C3B67365   2.843   4.071   7.053
10323POPC   C4B67366   2.846   4.114   7.353
10324POPC   NC367367   5.911  35.350   5.553
10324POPC   PO467368   5.888  35.304   5.853
10324POPC   GL167369   5.829  35.314   6.153
10324POPC   GL267370   5.876  35.229   6.153
10324POPC   C1A67371   5.913  35.310   6.453
10324POPC   D2A67372   5.909  35.375   6.753
10324POPC   C3A67373   5.820  35.395   7.053
10324POPC   C4A67374   5.826  35.386   7.353
10324POPC   C1B67375   5.830  35.085   6.453
10324POPC   C2B67376   5.788  35.065   6.753
10324POPC   C3B67377   5.825  35.074   7.053
10324POPC   C4B67378   5.779  35.127   7.353
10325POPC   NC367379  43.853  24.444   5.553
10325POPC   PO467380  43.843  24.444   5.853
10325POPC   GL167381  43.876  24.534   6.153
10325POPC   GL267382  44.004  24.489   6.153
10325POPC   C1A67383  43.867  24.495   6.453
10325POPC   D2A67384  43.860  24.513   6.753
10325POPC   C3A67385  43.934  24.517   7.053
10325POPC   C4A67386  43.878  24.479   7.353
10325POPC   C1B67387  44.126  24.488   6.453
10325POPC   C2B67388  44.184  24.490   6.753
10325POPC   C3B67389  44.143  24.460   7.053
10325POPC   C4B67390  44.155  24.452   7.353
10326POPC   NC367391  38.493  35.368   5.553
10326POPC   PO467392  38.436  35.397   5.853
10326POPC   GL167393  38.419  35.330   6.153
10326POPC   GL267394  38.315  35.432   6.153
10326POPC   C1A67395  38.417  35.359   6.453
10326POPC   D2A67396  38.493  35.326   6.753
10326POPC   C3A67397  38.431  35.357   7.053
10326POPC   C4A67398  38.437  35.369   7.353
10326POPC   C1B67399  38.225  35.572   6.453
10326POPC   C2B67400  38.269  35.516   6.753
10326POPC   C3B67401  38.277  35.544   7.053
10326POPC   C4B67402  38.279  35.534   7.353
10327POPC   NC367403  11.263  24.446   5.553
10327POPC   PO467404  11.272  24.470   5.853
10327POPC   GL167405  11.312  24.501   6.153
10327POPC   GL267406  11.312  24.648   6.153
10327POPC   C1A67407  11.313  24.496   6.453
10327POPC   D2A67408  11.288  24.494   6.753
10327POPC   C3A67409  11.343  24.446   7.053
10327POPC   C4A67410  11.350  24.496   7.353
10327POPC   C1B67411  11.397  24.673   6.453
10327POPC   C2B67412  11.389  24.754   6.753
10327POPC   C3B67413  11.380  24.689   7.053
10327POPC   C4B67414  11.354  24.735   7.353
10328POPC   NC367415  42.334  28.340   5.553
10328POPC   PO467416  42.306  28.361   5.853
10328POPC   GL167417  42.353  28.320   6.153
10328POPC   GL267418  42.244  28.424   6.153
10328POPC   C1A67419  42.383  28.335   6.453
10328POPC   D2A67420  42.382  28.342   6.753
10328POPC   C3A67421  42.382  28.329   7.053
10328POPC   C4A67422  42.339  28.369   7.353
10328POPC   C1B67423  42.073  28.431   6.453
10328POPC   C2B67424  42.069  28.359   6.753
10328POPC   C3B67425  42.102  28.452   7.053
10328POPC   C4B67426  42.105  28.405   7.353
10329POPC   NC367427  24.461  11.296   5.553
10329POPC   PO467428  24.474  11.312   5.853
10329POPC   GL167429  24.537  11.295   6.153
10329POPC   GL267430  24.528  11.402   6.153
10329POPC   C1A67431  24.510  11.255   6.453
10329POPC   D2A67432  24.531  11.270   6.753
10329POPC   C3A67433  24.459  11.336   7.053
10329POPC   C4A67434  24.475  11.319   7.353
10329POPC   C1B67435  24.631  11.496   6.453
10329POPC   C2B67436  24.603  11.501   6.753
10329POPC   C3B67437  24.577  11.547   7.053
10329POPC   C4B67438  24.536  11.490   7.353
10330POPC   NC367439  28.364  33.055   5.553
10330POPC   PO467440  28.414  33.060   5.853
10330POPC   GL167441  28.367  32.982   6.153
10330POPC   GL267442  28.408  33.144   6.153
10330POPC   C1A67443  28.345  33.065   6.453
10330POPC   D2A67444  28.412  33.002   6.753
10330POPC   C3A67445  28.390  32.992   7.053
10330POPC   C4A67446  28.346  32.975   7.353
10330POPC   C1B67447  28.407  33.309   6.453
10330POPC   C2B67448  28.481  33.224   6.753
10330POPC   C3B67449  28.490  33.285   7.053
10330POPC   C4B67450  28.465  33.221   7.353
10331POPC   NC367451  17.492  33.035   5.553
10331POPC   PO467452  17.463  32.996   5.853
10331POPC   GL167453  17.498  32.989   6.153
10331POPC   GL267454  17.527  32.942   6.153
10331POPC   C1A67455  17.552  32.989   6.453
10331POPC   D2A67456  17.555  33.001   6.753
10331POPC   C3A67457  17.463  33.023   7.053
10331POPC   C4A67458  17.504  33.030   7.353
10331POPC   C1B67459  17.581  32.835   6.453
10331POPC   C2B67460  17.591  32.777   6.753
10331POPC   C3B67461  17.561  32.832   7.053
10331POPC   C4B67462  17.580  32.757   7.353
10332POPC   NC367463  40.008   2.722   5.553
10332POPC   PO467464  40.017   2.732   5.853
10332POPC   GL167465  40.051   2.766   6.153
10332POPC   GL267466  39.914   2.639   6.153
10332POPC   C1A67467  39.985   2.787   6.453
10332POPC   D2A67468  39.982   2.754   6.753
10332POPC   C3A67469  40.001   2.762   7.053
10332POPC   C4A67470  40.022   2.739   7.353
10332POPC   C1B67471  39.807   2.623   6.453
10332POPC   C2B67472  39.786   2.647   6.753
10332POPC   C3B67473  39.817   2.648   7.053
10332POPC   C4B67474  39.813   2.590   7.353
10333POPC   NC367475  36.929   7.407   5.553
10333POPC   PO467476  36.935   7.459   5.853
10333POPC   GL167477  36.873   7.438   6.153
10333POPC   GL267478  36.989   7.521   6.153
10333POPC   C1A67479  36.907   7.414   6.453
10333POPC   D2A67480  36.885   7.434   6.753
10333POPC   C3A67481  36.909   7.386   7.053
10333POPC   C4A67482  36.899   7.460   7.353
10333POPC   C1B67483  36.989   7.685   6.453
10333POPC   C2B67484  37.007   7.691   6.753
10333POPC   C3B67485  37.044   7.679   7.053
10333POPC   C4B67486  37.013   7.665   7.353
10334POPC   NC367487   8.158  14.384   5.553
10334POPC   PO467488   8.172  14.354   5.853
10334POPC   GL167489   8.212  14.368   6.153
10334POPC   GL267490   8.096  14.262   6.153
10334POPC   C1A67491   8.240  14.451   6.453
10334POPC   D2A67492   8.178  14.407   6.753
10334POPC   C3A67493   8.219  14.409   7.053
10334POPC   C4A67494   8.215  14.369   7.353
10334POPC   C1B67495   8.055  14.225   6.453
10334POPC   C2B67496   7.999  14.182   6.753
10334POPC   C3B67497   8.069  14.225   7.053
10334POPC   C4B67498   8.067  14.223   7.353
10335POPC   NC367499  25.299  15.963   5.553
10335POPC   PO467500  25.234  15.968   5.853
10335POPC   GL167501  25.313  15.986   6.153
10335POPC   GL267502  25.413  15.964   6.153
10335POPC   C1A67503  25.222  15.931   6.453
10335POPC   D2A67504  25.314  15.999   6.753
10335POPC   C3A67505  25.307  15.940   7.053
10335POPC   C4A67506  25.224  15.966   7.353
10335POPC   C1B67507  25.507  15.911   6.453
10335POPC   C2B67508  25.513  15.926   6.753
10335POPC   C3B67509  25.552  15.929   7.053
10335POPC   C4B67510  25.536  15.947   7.353
10336POPC   NC367511  29.125  41.537   5.553
10336POPC   PO467512  29.121  41.559   5.853
10336POPC   GL167513  29.134  41.548   6.153
10336POPC   GL267514  28.972  41.512   6.153
10336POPC   C1A67515  29.130  41.592   6.453
10336POPC   D2A67516  29.142  41.581   6.753
10336POPC   C3A67517  29.179  41.578   7.053
10336POPC   C4A67518  29.096  41.525   7.353
10336POPC   C1B67519  28.898  41.489   6.453
10336POPC   C2B67520  28.896  41.554   6.753
10336POPC   C3B67521  28.922  41.513   7.053
10336POPC   C4B67522  28.905  41.570   7.353
10337POPC   NC367523  32.291  14.429   5.553
10337POPC   PO467524  32.216  14.355   5.853
10337POPC   GL167525  32.253  14.355   6.153
10337POPC   GL267526  32.156  14.358   6.153
10337POPC   C1A67527  32.228  14.370   6.453
10337POPC   D2A67528  32.236  14.369   6.753
10337POPC   C3A67529  32.254  14.409   7.053
10337POPC   C4A67530  32.210  14.429   7.353
10337POPC   C1B67531  32.005  14.412   6.453
10337POPC   C2B67532  31.991  14.415   6.753
10337POPC   C3B67533  31.951  14.387   7.053
10337POPC   C4B67534  31.951  14.368   7.353
10338POPC   NC367535  30.746   3.530   5.553
10338POPC   PO467536  30.739   3.496   5.853
10338POPC   GL167537  30.688   3.570   6.153
10338POPC   GL267538  30.778   3.579   6.153
10338POPC   C1A67539  30.666   3.587   6.453
10338POPC   D2A67540  30.713   3.501   6.753
10338POPC   C3A67541  30.647   3.577   7.053
10338POPC   C4A67542  30.734   3.520   7.353
10338POPC   C1B67543  30.947   3.635   6.453
10338POPC   C2B67544  30.910   3.680   6.753
10338POPC   C3B67545  30.914   3.647   7.053
10338POPC   C4B67546  30.949   3.680   7.353
10339POPC   NC367547   1.955  14.380   5.553
10339POPC   PO467548   2.027  14.430   5.853
10339POPC   GL167549   2.009  14.361   6.153
10339POPC   GL267550   2.004  14.531   6.153
10339POPC   C1A67551   1.958  14.397   6.453
10339POPC   D2A67552   1.958  14.421   6.753
10339POPC   C3A67553   1.998  14.409   7.053
10339POPC   C4A67554   1.961  14.358   7.353
10339POPC   C1B67555   2.029  14.616   6.453
10339POPC   C2B67556   2.088  14.647   6.753
10339POPC   C3B67557   2.086  14.646   7.053
10339POPC   C4B67558   2.076  14.623   7.353
10340POPC   NC367559  20.655  25.264   5.553
10340POPC   PO467560  20.650  25.251   5.853
10340POPC   GL167561  20.566  25.233   6.153
10340POPC   GL267562  20.659  25.220   6.153
10340POPC   C1A67563  20.585  25.228   6.453
10340POPC   D2A67564  20.595  25.250   6.753
10340POPC   C3A67565  20.600  25.309   7.053
10340POPC   C4A67566  20.650  25.313   7.353
10340POPC   C1B67567  20.789  25.107   6.453
10340POPC   C2B67568  20.834  25.091   6.753
10340POPC   C3B67569  20.822  25.137   7.053
10340POPC   C4B67570  20.794  25.060   7.353
10341POPC   NC367571  21.357  25.259   5.553
10341POPC   PO467572  21.423  25.224   5.853
10341POPC   GL167573  21.419  25.216   6.153
10341POPC   GL267574  21.454  25.387   6.153
10341POPC   C1A67575  21.432  25.289   6.453
10341POPC   D2A67576  21.373  25.227   6.753
10341POPC   C3A67577  21.420  25.233   7.053
10341POPC   C4A67578  21.404  25.249   7.353
10341POPC   C1B67579  21.522  25.422   6.453
10341POPC   C2B67580  21.518  25.448   6.753
10341POPC   C3B67581  21.594  25.477   7.053
10341POPC   C4B67582  21.566  25.457   7.353
10342POPC   NC367583  28.349  26.773   5.553
10342POPC   PO467584  28.371  26.856   5.853
10342POPC   GL167585  28.416  26.779   6.153
10342POPC   GL267586  28.407  26.752   6.153
10342POPC   C1A67587  28.348  26.852   6.453
10342POPC   D2A67588  28.369  26.817   6.753
10342POPC   C3A67589  28.388  26.841   7.053
10342POPC   C4A67590  28.412  26.840   7.353
10342POPC   C1B67591  28.580  26.625   6.453
10342POPC   C2B67592  28.579  26.681   6.753
10342POPC   C3B67593  28.590  26.651   7.053
10342POPC   C4B67594  28.509  26.643   7.353
10343POPC   NC367595   4.342   4.310   5.553
10343POPC   PO467596   4.312   4.337   5.853
10343POPC   GL167597   4.303   4.314   6.153
10343POPC   GL267598   4.281   4.189   6.153
10343POPC   C1A67599   4.327   4.362   6.453
10343POPC   D2A67600   4.295   4.315   6.753
10343POPC   C3A67601   4.274   4.326   7.053
10343POPC   C4A67602   4.277   4.340   7.353
10343POPC   C1B67603   4.248   4.067   6.453
10343POPC   C2B67604   4.272   4.118   6.753
10343POPC   C3B67605   4.233   4.048   7.053
10343POPC   C4B67606   4.264   4.078   7.353
10344POPC   NC367607   8.241  43.145   5.553
10344POPC   PO467608   8.182  43.155   5.853
10344POPC   GL167609   8.161  43.114   6.153
10344POPC   GL267610   8.064  43.183   6.153
10344POPC   C1A67611   8.232  43.079   6.453
10344POPC   D2A67612   8.217  43.083   6.753
10344POPC   C3A67613   8.238  43.109   7.053
10344POPC   C4A67614   8.195  43.153   7.353
10344POPC   C1B67615   7.983  43.229   6.453
10344POPC   C2B67616   8.010  43.276   6.753
10344POPC   C3B67617   8.011  43.292   7.053
10344POPC   C4B67618   7.950  43.230   7.353
10345POPC   NC367619  21.409  36.944   5.553
10345POPC   PO467620  21.374  36.887   5.853
10345POPC   GL167621  21.352  36.925   6.153
10345POPC   GL267622  21.377  36.838   6.153
10345POPC   C1A67623  21.393  36.941   6.453
10345POPC   D2A67624  21.424  36.873   6.753
10345POPC   C3A67625  21.398  36.898   7.053
10345POPC   C4A67626  21.435  36.864   7.353
10345POPC   C1B67627  21.313  36.673   6.453
10345POPC   C2B67628  21.279  36.666   6.753
10345POPC   C3B67629  21.303  36.728   7.053
10345POPC   C4B67630  21.301  36.654   7.353
10346POPC   NC367631  36.123  25.311   5.553
10346POPC   PO467632  36.080  25.267   5.853
10346POPC   GL167633  36.137  25.268   6.153
10346POPC   GL267634  36.094  25.151   6.153
10346POPC   C1A67635  36.165  25.270   6.453
10346POPC   D2A67636  36.129  25.276   6.753
10346POPC   C3A67637  36.129  25.217   7.053
10346POPC   C4A67638  36.133  25.235   7.353
10346POPC   C1B67639  36.008  24.987   6.453
10346POPC   C2B67640  36.005  25.030   6.753
10346POPC   C3B67641  36.070  25.025   7.053
10346POPC   C4B67642  36.033  25.013   7.353
10347POPC   NC367643  28.356  19.786   5.553
10347POPC   PO467644  28.395  19.787   5.853
10347POPC   GL167645  28.333  19.846   6.153
10347POPC   GL267646  28.302  19.729   6.153
10347POPC   C1A67647  28.376  19.791   6.453
10347POPC   D2A67648  28.410  19.820   6.753
10347POPC   C3A67649  28.410  19.862   7.053
10347POPC   C4A67650  28.353  19.824   7.353
10347POPC   C1B67651  28.264  19.651   6.453
10347POPC   C2B67652  28.234  19.586   6.753
10347POPC   C3B67653  28.253  19.629   7.053
10347POPC   C4B67654  28.270  19.601   7.353
10348POPC   NC367655  38.450  43.142   5.553
10348POPC   PO467656  38.411  43.118   5.853
10348POPC   GL167657  38.473  43.144   6.153
10348POPC   GL267658  38.319  43.101   6.153
10348POPC   C1A67659  38.432  43.099   6.453
10348POPC   D2A67660  38.430  43.098   6.753
10348POPC   C3A67661  38.410  43.087   7.053
10348POPC   C4A67662  38.473  43.088   7.353
10348POPC   C1B67663  38.199  43.048   6.453
10348POPC   C2B67664  38.259  43.021   6.753
10348POPC   C3B67665  38.244  43.081   7.053
10348POPC   C4B67666  38.173  43.052   7.353
10349POPC   NC367667  22.969   6.638   5.553
10349POPC   PO467668  22.968   6.634   5.853
10349POPC   GL167669  22.975   6.607   6.153
10349POPC   GL267670  22.978   6.509   6.153
10349POPC   C1A67671  22.931   6.658   6.453
10349POPC   D2A67672  22.956   6.686   6.753
10349POPC   C3A67673  22.931   6.643   7.053
10349POPC   C4A67674  22.968   6.694   7.353
10349POPC   C1B67675  22.983   6.401   6.453
10349POPC   C2B67676  22.927   6.435   6.753
10349POPC   C3B67677  22.991   6.427   7.053
10349POPC   C4B67678  22.953   6.361   7.353
10350POPC   NC367679   6.649  39.242   5.553
10350POPC   PO467680   6.664  39.221   5.853
10350POPC   GL167681   6.652  39.229   6.153
10350POPC   GL267682   6.760  39.231   6.153
10350POPC   C1A67683   6.676  39.250   6.453
10350POPC   D2A67684   6.656  39.256   6.753
10350POPC   C3A67685   6.687  39.235   7.053
10350POPC   C4A67686   6.614  39.218   7.353
10350POPC   C1B67687   6.934  39.336   6.453
10350POPC   C2B67688   6.923  39.312   6.753
10350POPC   C3B67689   6.867  39.304   7.053
10350POPC   C4B67690   6.869  39.329   7.353
10351POPC   NC367691   6.609   9.733   5.553
10351POPC   PO467692   6.678   9.779   5.853
10351POPC   GL167693   6.681   9.717   6.153
10351POPC   GL267694   6.745   9.625   6.153
10351POPC   C1A67695   6.652   9.789   6.453
10351POPC   D2A67696   6.638   9.701   6.753
10351POPC   C3A67697   6.610   9.790   7.053
10351POPC   C4A67698   6.625   9.758   7.353
10351POPC   C1B67699   6.801   9.629   6.453
10351POPC   C2B67700   6.822   9.634   6.753
10351POPC   C3B67701   6.834   9.565   7.053
10351POPC   C4B67702   6.864   9.598   7.353
10352POPC   NC367703  44.656  15.204   5.553
10352POPC   PO467704  44.668  15.175   5.853
10352POPC   GL167705  44.633  15.182   6.153
10352POPC   GL267706  44.573  15.171   6.153
10352POPC   C1A67707  44.639  15.194   6.453
10352POPC   D2A67708  44.630  15.178   6.753
10352POPC   C3A67709  44.669  15.178   7.053
10352POPC   C4A67710  44.654  15.164   7.353
10352POPC   C1B67711  44.432  15.091   6.453
10352POPC   C2B67712  44.371  15.163   6.753
10352POPC   C3B67713  44.431  15.150   7.053
10352POPC   C4B67714  44.423  15.085   7.353
10353POPC   NC367715   7.418  39.216   5.553
10353POPC   PO467716   7.388  39.237   5.853
10353POPC   GL167717   7.378  39.188   6.153
10353POPC   GL267718   7.481  39.130   6.153
10353POPC   C1A67719   7.431  39.187   6.453
10353POPC   D2A67720   7.443  39.256   6.753
10353POPC   C3A67721   7.456  39.195   7.053
10353POPC   C4A67722   7.418  39.277   7.353
10353POPC   C1B67723   7.559  39.006   6.453
10353POPC   C2B67724   7.542  39.007   6.753
10353POPC   C3B67725   7.546  38.994   7.053
10353POPC   C4B67726   7.621  38.987   7.353
10354POPC   NC367727   3.525  29.930   5.553
10354POPC   PO467728   3.504  29.917   5.853
10354POPC   GL167729   3.552  29.964   6.153
10354POPC   GL267730   3.400  29.998   6.153
10354POPC   C1A67731   3.589  29.899   6.453
10354POPC   D2A67732   3.502  29.907   6.753
10354POPC   C3A67733   3.570  29.913   7.053
10354POPC   C4A67734   3.498  29.915   7.353
10354POPC   C1B67735   3.360  30.047   6.453
10354POPC   C2B67736   3.385  30.062   6.753
10354POPC   C3B67737   3.401  30.046   7.053
10354POPC   C4B67738   3.389  30.082   7.353
10355POPC   NC367739   2.806  11.262   5.553
10355POPC   PO467740   2.806  11.278   5.853
10355POPC   GL167741   2.760  11.250   6.153
10355POPC   GL267742   2.796  11.445   6.153
10355POPC   C1A67743   2.734  11.349   6.453
10355POPC   D2A67744   2.780  11.338   6.753
10355POPC   C3A67745   2.794  11.270   7.053
10355POPC   C4A67746   2.795  11.307   7.353
10355POPC   C1B67747   2.879  11.492   6.453
10355POPC   C2B67748   2.942  11.527   6.753
10355POPC   C3B67749   2.871  11.531   7.053
10355POPC   C4B67750   2.941  11.508   7.353
10356POPC   NC367751   3.553  27.571   5.553
10356POPC   PO467752   3.591  27.579   5.853
10356POPC   GL167753   3.494  27.642   6.153
10356POPC   GL267754   3.539  27.510   6.153
10356POPC   C1A67755   3.557  27.584   6.453
10356POPC   D2A67756   3.512  27.641   6.753
10356POPC   C3A67757   3.550  27.607   7.053
10356POPC   C4A67758   3.503  27.549   7.353
10356POPC   C1B67759   3.521  27.382   6.453
10356POPC   C2B67760   3.544  27.317   6.753
10356POPC   C3B67761   3.540  27.312   7.053
10356POPC   C4B67762   3.538  27.309   7.353
10357POPC   NC367763  11.282  41.562   5.553
10357POPC   PO467764  11.263  41.587   5.853
10357POPC   GL167765  11.268  41.518   6.153
10357POPC   GL267766  11.368  41.618   6.153
10357POPC   C1A67767  11.288  41.541   6.453
10357POPC   D2A67768  11.267  41.542   6.753
10357POPC   C3A67769  11.260  41.517   7.053
10357POPC   C4A67770  11.307  41.575   7.353
10357POPC   C1B67771  11.465  41.687   6.453
10357POPC   C2B67772  11.465  41.751   6.753
10357POPC   C3B67773  11.511  41.666   7.053
10357POPC   C4B67774  11.464  41.663   7.353
10358POPC   NC367775   7.394   5.053   5.553
10358POPC   PO467776   7.463   5.096   5.853
10358POPC   GL167777   7.468   5.102   6.153
10358POPC   GL267778   7.332   5.173   6.153
10358POPC   C1A67779   7.400   5.116   6.453
10358POPC   D2A67780   7.418   5.115   6.753
10358POPC   C3A67781   7.427   5.069   7.053
10358POPC   C4A67782   7.433   5.112   7.353
10358POPC   C1B67783   7.302   5.266   6.453
10358POPC   C2B67784   7.251   5.299   6.753
10358POPC   C3B67785   7.261   5.299   7.053
10358POPC   C4B67786   7.302   5.262   7.353
10359POPC   NC367787  40.050   9.784   5.553
10359POPC   PO467788  39.961   9.791   5.853
10359POPC   GL167789  40.029   9.729   6.153
10359POPC   GL267790  39.968   9.605   6.153
10359POPC   C1A67791  39.993   9.709   6.453
10359POPC   D2A67792  39.999   9.755   6.753
10359POPC   C3A67793  39.980   9.745   7.053
10359POPC   C4A67794  40.056   9.766   7.353
10359POPC   C1B67795  40.031   9.466   6.453
10359POPC   C2B67796  39.942   9.510   6.753
10359POPC   C3B67797  40.016   9.472   7.053
10359POPC   C4B67798  39.985   9.479   7.353
10360POPC   NC367799   2.752  24.523   5.553
10360POPC   PO467800   2.729  24.500   5.853
10360POPC   GL167801   2.740  24.484   6.153
10360POPC   GL267802   2.693  24.437   6.153
10360POPC   C1A67803   2.736  24.450   6.453
10360POPC   D2A67804   2.794  24.489   6.753
10360POPC   C3A67805   2.759  24.501   7.053
10360POPC   C4A67806   2.781  24.495   7.353
10360POPC   C1B67807   2.548  24.386   6.453
10360POPC   C2B67808   2.473  24.475   6.753
10360POPC   C3B67809   2.555  24.426   7.053
10360POPC   C4B67810   2.555  24.385   7.353
10361POPC   NC367811   8.948  13.666   5.553
10361POPC   PO467812   8.932  13.594   5.853
10361POPC   GL167813   8.941  13.640   6.153
10361POPC   GL267814   9.098  13.717   6.153
10361POPC   C1A67815   8.980  13.604   6.453
10361POPC   D2A67816   9.004  13.637   6.753
10361POPC   C3A67817   9.014  13.623   7.053
10361POPC   C4A67818   8.990  13.627   7.353
10361POPC   C1B67819   9.170  13.762   6.453
10361POPC   C2B67820   9.161  13.793   6.753
10361POPC   C3B67821   9.200  13.790   7.053
10361POPC   C4B67822   9.171  13.770   7.353
10362POPC   NC367823  29.185  34.609   5.553
10362POPC   PO467824  29.182  34.549   5.853
10362POPC   GL167825  29.133  34.546   6.153
10362POPC   GL267826  29.049  34.628   6.153
10362POPC   C1A67827  29.109  34.553   6.453
10362POPC   D2A67828  29.122  34.583   6.753
10362POPC   C3A67829  29.191  34.565   7.053
10362POPC   C4A67830  29.110  34.532   7.353
10362POPC   C1B67831  28.931  34.601   6.453
10362POPC   C2B67832  28.901  34.608   6.753
10362POPC   C3B67833  28.882  34.569   7.053
10362POPC   C4B67834  28.923  34.565   7.353
10363POPC   NC367835  36.902  36.901   5.553
10363POPC   PO467836  36.927  36.917   5.853
10363POPC   GL167837  36.941  36.887   6.153
10363POPC   GL267838  36.942  36.974   6.153
10363POPC   C1A67839  36.931  36.861   6.453
10363POPC   D2A67840  36.899  36.887   6.753
10363POPC   C3A67841  36.904  36.866   7.053
10363POPC   C4A67842  36.860  36.895   7.353
10363POPC   C1B67843  36.987  37.162   6.453
10363POPC   C2B67844  36.993  37.110   6.753
10363POPC   C3B67845  36.961  37.088   7.053
10363POPC   C4B67846  36.999  37.111   7.353
10364POPC   NC367847   4.269  31.450   5.553
10364POPC   PO467848   4.299  31.489   5.853
10364POPC   GL167849   4.352  31.467   6.153
10364POPC   GL267850   4.224  31.533   6.153
10364POPC   C1A67851   4.364  31.468   6.453
10364POPC   D2A67852   4.364  31.441   6.753
10364POPC   C3A67853   4.294  31.520   7.053
10364POPC   C4A67854   4.352  31.437   7.353
10364POPC   C1B67855   4.087  31.640   6.453
10364POPC   C2B67856   4.073  31.614   6.753
10364POPC   C3B67857   4.161  31.640   7.053
10364POPC   C4B67858   4.136  31.649   7.353
10365POPC   NC367859  13.595  16.002   5.553
10365POPC   PO467860  13.652  15.906   5.853
10365POPC   GL167861  13.611  15.973   6.153
10365POPC   GL267862  13.611  15.784   6.153
10365POPC   C1A67863  13.677  15.947   6.453
10365POPC   D2A67864  13.596  15.938   6.753
10365POPC   C3A67865  13.599  15.945   7.053
10365POPC   C4A67866  13.605  15.910   7.353
10365POPC   C1B67867  13.584  15.693   6.453
10365POPC   C2B67868  13.638  15.703   6.753
10365POPC   C3B67869  13.635  15.701   7.053
10365POPC   C4B67870  13.597  15.669   7.353
10366POPC   NC367871   9.785   7.372   5.553
10366POPC   PO467872   9.702   7.391   5.853
10366POPC   GL167873   9.789   7.435   6.153
10366POPC   GL267874   9.733   7.342   6.153
10366POPC   C1A67875   9.731   7.390   6.453
10366POPC   D2A67876   9.776   7.431   6.753
10366POPC   C3A67877   9.764   7.457   7.053
10366POPC   C4A67878   9.760   7.377   7.353
10366POPC   C1B67879   9.839   7.168   6.453
10366POPC   C2B67880   9.840   7.195   6.753
10366POPC   C3B67881   9.799   7.172   7.053
10366POPC   C4B67882   9.776   7.224   7.353
10367POPC   NC367883  32.981  39.275   5.553
10367POPC   PO467884  33.007  39.241   5.853
10367POPC   GL167885  32.976  39.189   6.153
10367POPC   GL267886  33.110  39.327   6.153
10367POPC   C1A67887  33.041  39.186   6.453
10367POPC   D2A67888  33.011  39.266   6.753
10367POPC   C3A67889  33.039  39.277   7.053
10367POPC   C4A67890  33.002  39.228   7.353
10367POPC   C1B67891  33.128  39.436   6.453
10367POPC   C2B67892  33.115  39.510   6.753
10367POPC   C3B67893  33.144  39.466   7.053
10367POPC   C4B67894  33.066  39.432   7.353
10368POPC   NC367895   9.001  10.475   5.553
10368POPC   PO467896   9.021  10.514   5.853
10368POPC   GL167897   9.016  10.478   6.153
10368POPC   GL267898   8.914  10.421   6.153
10368POPC   C1A67899   9.007  10.563   6.453
10368POPC   D2A67900   9.022  10.499   6.753
10368POPC   C3A67901   9.017  10.481   7.053
10368POPC   C4A67902   8.998  10.481   7.353
10368POPC   C1B67903   8.888  10.307   6.453
10368POPC   C2B67904   8.801  10.299   6.753
10368POPC   C3B67905   8.854  10.306   7.053
10368POPC   C4B67906   8.829  10.353   7.353
10369POPC   NC367907  32.271  16.773   5.553
10369POPC   PO467908  32.226  16.729   5.853
10369POPC   GL167909  32.245  16.707   6.153
10369POPC   GL267910  32.300  16.828   6.153
10369POPC   C1A67911  32.202  16.758   6.453
10369POPC   D2A67912  32.220  16.780   6.753
10369POPC   C3A67913  32.275  16.688   7.053
10369POPC   C4A67914  32.275  16.775   7.353
10369POPC   C1B67915  32.373  16.978   6.453
10369POPC   C2B67916  32.326  16.923   6.753
10369POPC   C3B67917  32.333  17.003   7.053
10369POPC   C4B67918  32.395  16.938   7.353
10370POPC   NC367919  27.595  33.750   5.553
10370POPC   PO467920  27.602  33.769   5.853
10370POPC   GL167921  27.591  33.771   6.153
10370POPC   GL267922  27.544  33.915   6.153
10370POPC   C1A67923  27.588  33.776   6.453
10370POPC   D2A67924  27.617  33.775   6.753
10370POPC   C3A67925  27.618  33.844   7.053
10370POPC   C4A67926  27.634  33.813   7.353
10370POPC   C1B67927  27.436  33.965   6.453
10370POPC   C2B67928  27.432  33.959   6.753
10370POPC   C3B67929  27.382  33.936   7.053
10370POPC   C4B67930  27.437  34.004   7.353
10371POPC   NC367931  31.510  28.398   5.553
10371POPC   PO467932  31.469  28.333   5.853
10371POPC   GL167933  31.460  28.373   6.153
10371POPC   GL267934  31.381  28.456   6.153
10371POPC   C1A67935  31.447  28.336   6.453
10371POPC   D2A67936  31.450  28.389   6.753
10371POPC   C3A67937  31.428  28.395   7.053
10371POPC   C4A67938  31.468  28.320   7.353
10371POPC   C1B67939  31.278  28.488   6.453
10371POPC   C2B67940  31.266  28.521   6.753
10371POPC   C3B67941  31.220  28.532   7.053
10371POPC   C4B67942  31.299  28.477   7.353
10372POPC   NC367943  22.963   9.733   5.553
10372POPC   PO467944  22.907   9.762   5.853
10372POPC   GL167945  22.969   9.733   6.153
10372POPC   GL267946  22.831   9.837   6.153
10372POPC   C1A67947  22.987   9.728   6.453
10372POPC   D2A67948  22.946   9.728   6.753
10372POPC   C3A67949  22.980   9.714   7.053
10372POPC   C4A67950  22.892   9.721   7.353
10372POPC   C1B67951  22.774   9.950   6.453
10372POPC   C2B67952  22.796   9.993   6.753
10372POPC   C3B67953  22.768   9.912   7.053
10372POPC   C4B67954  22.823   9.930   7.353
10373POPC   NC367955   3.574  31.451   5.553
10373POPC   PO467956   3.551  31.489   5.853
10373POPC   GL167957   3.493  31.435   6.153
10373POPC   GL267958   3.394  31.503   6.153
10373POPC   C1A67959   3.533  31.432   6.453
10373POPC   D2A67960   3.494  31.484   6.753
10373POPC   C3A67961   3.570  31.478   7.053
10373POPC   C4A67962   3.576  31.475   7.353
10373POPC   C1B67963   3.309  31.520   6.453
10373POPC   C2B67964   3.298  31.527   6.753
10373POPC   C3B67965   3.270  31.516   7.053
10373POPC   C4B67966   3.282  31.479   7.353
10374POPC   NC367967  38.449   7.459   5.553
10374POPC   PO467968  38.436   7.433   5.853
10374POPC   GL167969  38.423   7.448   6.153
10374POPC   GL267970  38.304   7.536   6.153
10374POPC   C1A67971  38.491   7.400   6.453
10374POPC   D2A67972  38.455   7.371   6.753
10374POPC   C3A67973  38.437   7.400   7.053
10374POPC   C4A67974  38.459   7.375   7.353
10374POPC   C1B67975  38.224   7.566   6.453
10374POPC   C2B67976  38.270   7.566   6.753
10374POPC   C3B67977  38.225   7.537   7.053
10374POPC   C4B67978  38.285   7.529   7.353
10375POPC   NC367979  19.813  37.651   5.553
10375POPC   PO467980  19.785  37.723   5.853
10375POPC   GL167981  19.844  37.717   6.153
10375POPC   GL267982  19.960  37.694   6.153
10375POPC   C1A67983  19.799  37.652   6.453
10375POPC   D2A67984  19.831  37.706   6.753
10375POPC   C3A67985  19.829  37.645   7.053
10375POPC   C4A67986  19.871  37.635   7.353
10375POPC   C1B67987  20.045  37.666   6.453
10375POPC   C2B67988  20.101  37.627   6.753
10375POPC   C3B67989  20.127  37.616   7.053
10375POPC   C4B67990  20.084  37.598   7.353
10376POPC   NC367991  13.669   8.935   5.553
10376POPC   PO467992  13.627   8.989   5.853
10376POPC   GL167993  13.669   8.929   6.153
10376POPC   GL267994  13.748   8.952   6.153
10376POPC   C1A67995  13.652   8.980   6.453
10376POPC   D2A67996  13.622   8.952   6.753
10376POPC   C3A67997  13.672   9.010   7.053
10376POPC   C4A67998  13.665   8.951   7.353
10376POPC   C1B67999  13.887   8.867   6.453
10376POPC   C2B68000  13.808   8.897   6.753
10376POPC   C3B68001  13.894   8.882   7.053
10376POPC   C4B68002  13.863   8.811   7.353
10377POPC   NC368003  22.134   9.764   5.553
10377POPC   PO468004  22.176   9.755   5.853
10377POPC   GL168005  22.169   9.758   6.153
10377POPC   GL268006  22.232   9.672   6.153
10377POPC   C1A68007  22.208   9.742   6.453
10377POPC   D2A68008  22.187   9.707   6.753
10377POPC   C3A68009  22.117   9.738   7.053
10377POPC   C4A68010  22.197   9.792   7.353
10377POPC   C1B68011  22.288   9.549   6.453
10377POPC   C2B68012  22.284   9.514   6.753
10377POPC   C3B68013  22.270   9.539   7.053
10377POPC   C4B68014  22.267   9.530   7.353
10378POPC   NC368015  40.822   2.021   5.553
10378POPC   PO468016  40.765   1.959   5.853
10378POPC   GL168017  40.793   1.993   6.153
10378POPC   GL268018  40.849   1.939   6.153
10378POPC   C1A68019  40.789   1.979   6.453
10378POPC   D2A68020  40.783   2.030   6.753
10378POPC   C3A68021  40.795   1.959   7.053
10378POPC   C4A68022  40.794   1.980   7.353
10378POPC   C1B68023  40.984   1.824   6.453
10378POPC   C2B68024  40.890   1.750   6.753
10378POPC   C3B68025  40.983   1.755   7.053
10378POPC   C4B68026  40.895   1.761   7.353
10379POPC   NC368027  39.223  13.622   5.553
10379POPC   PO468028  39.242  13.621   5.853
10379POPC   GL168029  39.270  13.588   6.153
10379POPC   GL268030  39.236  13.514   6.153
10379POPC   C1A68031  39.188  13.602   6.453
10379POPC   D2A68032  39.235  13.673   6.753
10379POPC   C3A68033  39.204  13.588   7.053
10379POPC   C4A68034  39.240  13.588   7.353
10379POPC   C1B68035  39.323  13.375   6.453
10379POPC   C2B68036  39.317  13.387   6.753
10379POPC   C3B68037  39.365  13.389   7.053
10379POPC   C4B68038  39.345  13.445   7.353
10380POPC   NC368039  37.725  31.520   5.553
10380POPC   PO468040  37.631  31.435   5.853
10380POPC   GL168041  37.650  31.488   6.153
10380POPC   GL268042  37.655  31.615   6.153
10380POPC   C1A68043  37.724  31.486   6.453
10380POPC   D2A68044  37.681  31.466   6.753
10380POPC   C3A68045  37.641  31.469   7.053
10380POPC   C4A68046  37.693  31.476   7.353
10380POPC   C1B68047  37.773  31.681   6.453
10380POPC   C2B68048  37.702  31.680   6.753
10380POPC   C3B68049  37.729  31.746   7.053
10380POPC   C4B68050  37.687  31.713   7.353
10381POPC   NC368051  12.855  41.552   5.553
10381POPC   PO468052  12.812  41.571   5.853
10381POPC   GL168053  12.828  41.522   6.153
10381POPC   GL268054  12.948  41.605   6.153
10381POPC   C1A68055  12.843  41.581   6.453
10381POPC   D2A68056  12.882  41.569   6.753
10381POPC   C3A68057  12.862  41.520   7.053
10381POPC   C4A68058  12.824  41.531   7.353
10381POPC   C1B68059  13.027  41.702   6.453
10381POPC   C2B68060  12.990  41.746   6.753
10381POPC   C3B68061  13.056  41.723   7.053
10381POPC   C4B68062  13.060  41.727   7.353
10382POPC   NC368063   2.806  27.570   5.553
10382POPC   PO468064   2.775  27.572   5.853
10382POPC   GL168065   2.758  27.549   6.153
10382POPC   GL268066   2.856  27.665   6.153
10382POPC   C1A68067   2.728  27.569   6.453
10382POPC   D2A68068   2.808  27.588   6.753
10382POPC   C3A68069   2.772  27.630   7.053
10382POPC   C4A68070   2.734  27.614   7.353
10382POPC   C1B68071   3.019  27.700   6.453
10382POPC   C2B68072   2.954  27.663   6.753
10382POPC   C3B68073   3.009  27.655   7.053
10382POPC   C4B68074   2.998  27.735   7.353
10383POPC   NC368075  16.744   2.783   5.553
10383POPC   PO468076  16.752   2.763   5.853
10383POPC   GL168077  16.724   2.816   6.153
10383POPC   GL268078  16.778   2.872   6.153
10383POPC   C1A68079  16.705   2.815   6.453
10383POPC   D2A68080  16.755   2.730   6.753
10383POPC   C3A68081  16.770   2.719   7.053
10383POPC   C4A68082  16.742   2.723   7.353
10383POPC   C1B68083  16.740   3.046   6.453
10383POPC   C2B68084  16.787   3.007   6.753
10383POPC   C3B68085  16.746   3.014   7.053
10383POPC   C4B68086  16.783   2.971   7.353
10384POPC   NC368087  20.584   6.638   5.553
10384POPC   PO468088  20.588   6.668   5.853
10384POPC   GL168089  20.618   6.629   6.153
10384POPC   GL268090  20.577   6.731   6.153
10384POPC   C1A68091  20.576   6.622   6.453
10384POPC   D2A68092  20.587   6.654   6.753
10384POPC   C3A68093  20.567   6.635   7.053
10384POPC   C4A68094  20.608   6.603   7.353
10384POPC   C1B68095  20.541   6.892   6.453
10384POPC   C2B68096  20.591   6.899   6.753
10384POPC   C3B68097  20.591   6.900   7.053
10384POPC   C4B68098  20.521   6.865   7.353
10385POPC   NC368099  41.574  17.524   5.553
10385POPC   PO468100  41.583  17.471   5.853
10385POPC   GL168101  41.513  17.460   6.153
10385POPC   GL268102  41.580  17.673   6.153
10385POPC   C1A68103  41.539  17.549   6.453
10385POPC   D2A68104  41.509  17.553   6.753
10385POPC   C3A68105  41.577  17.548   7.053
10385POPC   C4A68106  41.581  17.513   7.353
10385POPC   C1B68107  41.636  17.723   6.453
10385POPC   C2B68108  41.654  17.748   6.753
10385POPC   C3B68109  41.614  17.724   7.053
10385POPC   C4B68110  41.611  17.704   7.353
10386POPC   NC368111   2.743  43.111   5.553
10386POPC   PO468112   2.756  43.097   5.853
10386POPC   GL168113   2.779  43.128   6.153
10386POPC   GL268114   2.813  42.988   6.153
10386POPC   C1A68115   2.726  43.075   6.453
10386POPC   D2A68116   2.717  43.110   6.753
10386POPC   C3A68117   2.730  43.093   7.053
10386POPC   C4A68118   2.738  43.108   7.353
10386POPC   C1B68119   2.770  42.903   6.453
10386POPC   C2B68120   2.736  42.868   6.753
10386POPC   C3B68121   2.792  42.815   7.053
10386POPC   C4B68122   2.734  42.898   7.353
10387POPC   NC368123  43.107  15.208   5.553
10387POPC   PO468124  43.119  15.159   5.853
10387POPC   GL168125  43.128  15.156   6.153
10387POPC   GL268126  43.204  15.193   6.153
10387POPC   C1A68127  43.154  15.199   6.453
10387POPC   D2A68128  43.129  15.214   6.753
10387POPC   C3A68129  43.091  15.190   7.053
10387POPC   C4A68130  43.119  15.159   7.353
10387POPC   C1B68131  43.321  15.105   6.453
10387POPC   C2B68132  43.364  15.151   6.753
10387POPC   C3B68133  43.391  15.090   7.053
10387POPC   C4B68134  43.357  15.147   7.353
10388POPC   NC368135  40.816  13.659   5.553
10388POPC   PO468136  40.738  13.640   5.853
10388POPC   GL168137  40.812  13.595   6.153
10388POPC   GL268138  40.642  13.618   6.153
10388POPC   C1A68139  40.822  13.669   6.453
10388POPC   D2A68140  40.789  13.643   6.753
10388POPC   C3A68141  40.764  13.629   7.053
10388POPC   C4A68142  40.786  13.617   7.353
10388POPC   C1B68143  40.502  13.532   6.453
10388POPC   C2B68144  40.533  13.519   6.753
10388POPC   C3B68145  40.545  13.567   7.053
10388POPC   C4B68146  40.576  13.504   7.353
10389POPC   NC368147  29.939   5.873   5.553
10389POPC   PO468148  29.964   5.889   5.853
10389POPC   GL168149  29.966   5.884   6.153
10389POPC   GL268150  29.840   5.793   6.153
10389POPC   C1A68151  29.963   5.864   6.453
10389POPC   D2A68152  29.923   5.863   6.753
10389POPC   C3A68153  29.968   5.896   7.053
10389POPC   C4A68154  29.878   5.857   7.353
10389POPC   C1B68155  29.638   5.757   6.453
10389POPC   C2B68156  29.679   5.773   6.753
10389POPC   C3B68157  29.639   5.755   7.053
10389POPC   C4B68158  29.651   5.761   7.353
10390POPC   NC368159  32.211   9.717   5.553
10390POPC   PO468160  32.263   9.708   5.853
10390POPC   GL168161  32.240   9.709   6.153
10390POPC   GL268162  32.386   9.765   6.153
10390POPC   C1A68163  32.281   9.743   6.453
10390POPC   D2A68164  32.239   9.711   6.753
10390POPC   C3A68165  32.235   9.699   7.053
10390POPC   C4A68166  32.265   9.758   7.353
10390POPC   C1B68167  32.465   9.757   6.453
10390POPC   C2B68168  32.460   9.688   6.753
10390POPC   C3B68169  32.486   9.701   7.053
10390POPC   C4B68170  32.535   9.710   7.353
10391POPC   NC368171   2.759  21.423   5.553
10391POPC   PO468172   2.805  21.377   5.853
10391POPC   GL168173   2.778  21.351   6.153
10391POPC   GL268174   2.922  21.309   6.153
10391POPC   C1A68175   2.770  21.409   6.453
10391POPC   D2A68176   2.740  21.347   6.753
10391POPC   C3A68177   2.732  21.433   7.053
10391POPC   C4A68178   2.724  21.367   7.353
10391POPC   C1B68179   2.970  21.279   6.453
10391POPC   C2B68180   3.006  21.254   6.753
10391POPC   C3B68181   2.965  21.268   7.053
10391POPC   C4B68182   2.979  21.302   7.353
10392POPC   NC368183  35.392   7.416   5.553
10392POPC   PO468184  35.308   7.403   5.853
10392POPC   GL168185  35.315   7.427   6.153
10392POPC   GL268186  35.326   7.309   6.153
10392POPC   C1A68187  35.316   7.375   6.453
10392POPC   D2A68188  35.349   7.428   6.753
10392POPC   C3A68189  35.401   7.377   7.053
10392POPC   C4A68190  35.311   7.384   7.353
10392POPC   C1B68191  35.178   7.236   6.453
10392POPC   C2B68192  35.186   7.181   6.753
10392POPC   C3B68193  35.257   7.226   7.053
10392POPC   C4B68194  35.254   7.158   7.353
10393POPC   NC368195  19.837   0.420   5.553
10393POPC   PO468196  19.861   0.398   5.853
10393POPC   GL168197  19.831   0.401   6.153
10393POPC   GL268198  19.958   0.462   6.153
10393POPC   C1A68199  19.803   0.408   6.453
10393POPC   D2A68200  19.855   0.423   6.753
10393POPC   C3A68201  19.826   0.447   7.053
10393POPC   C4A68202  19.826   0.441   7.353
10393POPC   C1B68203  20.048   0.430   6.453
10393POPC   C2B68204  20.132   0.406   6.753
10393POPC   C3B68205  20.120   0.478   7.053
10393POPC   C4B68206  20.132   0.457   7.353
10394POPC   NC368207  40.770  32.243   5.553
10394POPC   PO468208  40.772  32.226   5.853
10394POPC   GL168209  40.778  32.248   6.153
10394POPC   GL268210  40.750  32.175   6.153
10394POPC   C1A68211  40.774  32.249   6.453
10394POPC   D2A68212  40.819  32.256   6.753
10394POPC   C3A68213  40.793  32.256   7.053
10394POPC   C4A68214  40.760  32.272   7.353
10394POPC   C1B68215  40.669  32.014   6.453
10394POPC   C2B68216  40.607  32.039   6.753
10394POPC   C3B68217  40.631  32.064   7.053
10394POPC   C4B68218  40.616  32.064   7.353
10395POPC   NC368219  23.708  17.548   5.553
10395POPC   PO468220  23.689  17.517   5.853
10395POPC   GL168221  23.667  17.544   6.153
10395POPC   GL268222  23.770  17.540   6.153
10395POPC   C1A68223  23.725  17.541   6.453
10395POPC   D2A68224  23.691  17.525   6.753
10395POPC   C3A68225  23.751  17.535   7.053
10395POPC   C4A68226  23.748  17.525   7.353
10395POPC   C1B68227  23.895  17.605   6.453
10395POPC   C2B68228  23.966  17.657   6.753
10395POPC   C3B68229  23.955  17.622   7.053
10395POPC   C4B68230  23.882  17.625   7.353
10396POPC   NC368231   2.016  26.027   5.553
10396POPC   PO468232   1.964  26.082   5.853
10396POPC   GL168233   1.992  26.072   6.153
10396POPC   GL268234   1.828  25.969   6.153
10396POPC   C1A68235   1.949  26.037   6.453
10396POPC   D2A68236   2.024  26.030   6.753
10396POPC   C3A68237   1.945  26.079   7.053
10396POPC   C4A68238   1.986  26.026   7.353
10396POPC   C1B68239   1.729  25.900   6.453
10396POPC   C2B68240   1.737  25.960   6.753
10396POPC   C3B68241   1.804  25.941   7.053
10396POPC   C4B68242   1.748  25.975   7.353
10397POPC   NC368243  20.623  32.231   5.553
10397POPC   PO468244  20.619  32.268   5.853
10397POPC   GL168245  20.655  32.273   6.153
10397POPC   GL268246  20.588  32.346   6.153
10397POPC   C1A68247  20.607  32.259   6.453
10397POPC   D2A68248  20.586  32.203   6.753
10397POPC   C3A68249  20.642  32.216   7.053
10397POPC   C4A68250  20.590  32.245   7.353
10397POPC   C1B68251  20.606  32.455   6.453
10397POPC   C2B68252  20.525  32.501   6.753
10397POPC   C3B68253  20.599  32.503   7.053
10397POPC   C4B68254  20.540  32.518   7.353
10398POPC   NC368255   9.700  16.747   5.553
10398POPC   PO468256   9.760  16.739   5.853
10398POPC   GL168257   9.768  16.770   6.153
10398POPC   GL268258   9.860  16.753   6.153
10398POPC   C1A68259   9.787  16.731   6.453
10398POPC   D2A68260   9.716  16.768   6.753
10398POPC   C3A68261   9.785  16.737   7.053
10398POPC   C4A68262   9.729  16.713   7.353
10398POPC   C1B68263  10.030  16.755   6.453
10398POPC   C2B68264   9.942  16.820   6.753
10398POPC   C3B68265  10.010  16.819   7.053
10398POPC   C4B68266   9.984  16.754   7.353
10399POPC   NC368267  27.578  35.368   5.553
10399POPC   PO468268  27.638  35.304   5.853
10399POPC   GL168269  27.579  35.387   6.153
10399POPC   GL268270  27.499  35.268   6.153
10399POPC   C1A68271  27.618  35.355   6.453
10399POPC   D2A68272  27.566  35.343   6.753
10399POPC   C3A68273  27.571  35.364   7.053
10399POPC   C4A68274  27.596  35.375   7.353
10399POPC   C1B68275  27.483  35.135   6.453
10399POPC   C2B68276  27.450  35.110   6.753
10399POPC   C3B68277  27.445  35.133   7.053
10399POPC   C4B68278  27.445  35.199   7.353
10400POPC   NC368279  22.920   7.469   5.553
10400POPC   PO468280  22.958   7.460   5.853
10400POPC   GL168281  22.978   7.413   6.153
10400POPC   GL268282  22.834   7.319   6.153
10400POPC   C1A68283  22.911   7.404   6.453
10400POPC   D2A68284  22.987   7.377   6.753
10400POPC   C3A68285  22.968   7.455   7.053
10400POPC   C4A68286  22.967   7.440   7.353
10400POPC   C1B68287  22.800   7.264   6.453
10400POPC   C2B68288  22.758   7.242   6.753
10400POPC   C3B68289  22.753   7.245   7.053
10400POPC   C4B68290  22.764   7.203   7.353
10401POPC   NC368291  39.982  36.864   5.553
10401POPC   PO468292  39.969  36.927   5.853
10401POPC   GL168293  40.027  36.937   6.153
10401POPC   GL268294  40.151  36.889   6.153
10401POPC   C1A68295  40.021  36.927   6.453
10401POPC   D2A68296  40.019  36.922   6.753
10401POPC   C3A68297  40.031  36.863   7.053
10401POPC   C4A68298  40.018  36.879   7.353
10401POPC   C1B68299  40.201  36.991   6.453
10401POPC   C2B68300  40.260  36.996   6.753
10401POPC   C3B68301  40.279  36.994   7.053
10401POPC   C4B68302  40.297  37.005   7.353
10402POPC   NC368303  13.632   9.713   5.553
10402POPC   PO468304  13.622   9.756   5.853
10402POPC   GL168305  13.611   9.771   6.153
10402POPC   GL268306  13.585   9.632   6.153
10402POPC   C1A68307  13.664   9.774   6.453
10402POPC   D2A68308  13.642   9.778   6.753
10402POPC   C3A68309  13.645   9.738   7.053
10402POPC   C4A68310  13.675   9.720   7.353
10402POPC   C1B68311  13.555   9.523   6.453
10402POPC   C2B68312  13.589   9.476   6.753
10402POPC   C3B68313  13.591   9.533   7.053
10402POPC   C4B68314  13.539   9.524   7.353
10403POPC   NC368315  37.654  33.024   5.553
10403POPC   PO468316  37.713  33.043   5.853
10403POPC   GL168317  37.642  33.023   6.153
10403POPC   GL268318  37.780  32.977   6.153
10403POPC   C1A68319  37.659  33.043   6.453
10403POPC   D2A68320  37.683  33.050   6.753
10403POPC   C3A68321  37.641  33.031   7.053
10403POPC   C4A68322  37.647  33.074   7.353
10403POPC   C1B68323  37.844  32.810   6.453
10403POPC   C2B68324  37.791  32.851   6.753
10403POPC   C3B68325  37.851  32.839   7.053
10403POPC   C4B68326  37.887  32.870   7.353
10404POPC   NC368327  44.613  36.177   5.553
10404POPC   PO468328  44.635  36.125   5.853
10404POPC   GL168329  44.627  36.151   6.153
10404POPC   GL268330  44.564  36.071   6.153
10404POPC   C1A68331  44.638  36.162   6.453
10404POPC   D2A68332  44.705  36.087   6.753
10404POPC   C3A68333  44.643  36.132   7.053
10404POPC   C4A68334  44.709  36.155   7.353
10404POPC   C1B68335  44.503  35.949   6.453
10404POPC   C2B68336  44.547  35.937   6.753
10404POPC   C3B68337  44.543  35.942   7.053
10404POPC   C4B68338  44.486  35.961   7.353
10405POPC   NC368339  32.209  22.948   5.553
10405POPC   PO468340  32.236  22.982   5.853
10405POPC   GL168341  32.211  22.906   6.153
10405POPC   GL268342  32.229  22.834   6.153
10405POPC   C1A68343  32.248  22.907   6.453
10405POPC   D2A68344  32.215  22.935   6.753
10405POPC   C3A68345  32.213  22.890   7.053
10405POPC   C4A68346  32.260  22.971   7.353
10405POPC   C1B68347  32.093  22.700   6.453
10405POPC   C2B68348  32.153  22.673   6.753
10405POPC   C3B68349  32.179  22.739   7.053
10405POPC   C4B68350  32.106  22.729   7.353
10406POPC   NC368351  19.798  35.317   5.553
10406POPC   PO468352  19.800  35.323   5.853
10406POPC   GL168353  19.872  35.359   6.153
10406POPC   GL268354  19.755  35.294   6.153
10406POPC   C1A68355  19.787  35.324   6.453
10406POPC   D2A68356  19.813  35.364   6.753
10406POPC   C3A68357  19.849  35.369   7.053
10406POPC   C4A68358  19.847  35.344   7.353
10406POPC   C1B68359  19.635  35.196   6.453
10406POPC   C2B68360  19.650  35.202   6.753
10406POPC   C3B68361  19.669  35.208   7.053
10406POPC   C4B68362  19.702  35.186   7.353
10407POPC   NC368363  26.865  31.500   5.553
10407POPC   PO468364  26.822  31.493   5.853
10407POPC   GL168365  26.820  31.500   6.153
10407POPC   GL268366  26.904  31.591   6.153
10407POPC   C1A68367  26.773  31.502   6.453
10407POPC   D2A68368  26.785  31.454   6.753
10407POPC   C3A68369  26.848  31.428   7.053
10407POPC   C4A68370  26.817  31.468   7.353
10407POPC   C1B68371  26.934  31.689   6.453
10407POPC   C2B68372  26.925  31.714   6.753
10407POPC   C3B68373  26.936  31.715   7.053
10407POPC   C4B68374  26.963  31.693   7.353
10408POPC   NC368375  39.968   4.342   5.553
10408POPC   PO468376  40.028   4.275   5.853
10408POPC   GL168377  40.023   4.318   6.153
10408POPC   GL268378  39.944   4.445   6.153
10408POPC   C1A68379  39.996   4.314   6.453
10408POPC   D2A68380  39.989   4.319   6.753
10408POPC   C3A68381  40.020   4.308   7.053
10408POPC   C4A68382  40.032   4.338   7.353
10408POPC   C1B68383  39.802   4.505   6.453
10408POPC   C2B68384  39.820   4.507   6.753
10408POPC   C3B68385  39.830   4.489   7.053
10408POPC   C4B68386  39.836   4.480   7.353
10409POPC   NC368387  14.432  14.392   5.553
10409POPC   PO468388  14.451  14.394   5.853
10409POPC   GL168389  14.439  14.420   6.153
10409POPC   GL268390  14.420  14.256   6.153
10409POPC   C1A68391  14.413  14.449   6.453
10409POPC   D2A68392  14.424  14.368   6.753
10409POPC   C3A68393  14.403  14.356   7.053
10409POPC   C4A68394  14.415  14.441   7.353
10409POPC   C1B68395  14.448  14.115   6.453
10409POPC   C2B68396  14.424  14.143   6.753
10409POPC   C3B68397  14.444  14.176   7.053
10409POPC   C4B68398  14.455  14.161   7.353
10410POPC   NC368399  33.832  37.710   5.553
10410POPC   PO468400  33.773  37.724   5.853
10410POPC   GL168401  33.808  37.677   6.153
10410POPC   GL268402  33.842  37.535   6.153
10410POPC   C1A68403  33.762  37.641   6.453
10410POPC   D2A68404  33.815  37.667   6.753
10410POPC   C3A68405  33.763  37.652   7.053
10410POPC   C4A68406  33.837  37.654   7.353
10410POPC   C1B68407  33.949  37.504   6.453
10410POPC   C2B68408  33.975  37.454   6.753
10410POPC   C3B68409  33.922  37.498   7.053
10410POPC   C4B68410  33.928  37.463   7.353
10411POPC   NC368411  15.224  33.007   5.553
10411POPC   PO468412  15.174  33.036   5.853
10411POPC   GL168413  15.196  33.012   6.153
10411POPC   GL268414  15.129  33.155   6.153
10411POPC   C1A68415  15.229  32.984   6.453
10411POPC   D2A68416  15.171  33.031   6.753
10411POPC   C3A68417  15.151  33.042   7.053
10411POPC   C4A68418  15.218  33.045   7.353
10411POPC   C1B68419  15.113  33.255   6.453
10411POPC   C2B68420  15.084  33.258   6.753
10411POPC   C3B68421  15.116  33.212   7.053
10411POPC   C4B68422  15.066  33.281   7.353
10412POPC   NC368423  29.115   1.193   5.553
10412POPC   PO468424  29.173   1.255   5.853
10412POPC   GL168425  29.184   1.184   6.153
10412POPC   GL268426  28.987   1.176   6.153
10412POPC   C1A68427  29.107   1.187   6.453
10412POPC   D2A68428  29.175   1.204   6.753
10412POPC   C3A68429  29.113   1.249   7.053
10412POPC   C4A68430  29.119   1.212   7.353
10412POPC   C1B68431  28.862   1.218   6.453
10412POPC   C2B68432  28.869   1.221   6.753
10412POPC   C3B68433  28.887   1.209   7.053
10412POPC   C4B68434  28.925   1.208   7.353
10413POPC   NC368435  32.288  29.103   5.553
10413POPC   PO468436  32.223  29.182   5.853
10413POPC   GL168437  32.289  29.119   6.153
10413POPC   GL268438  32.110  29.196   6.153
10413POPC   C1A68439  32.298  29.172   6.453
10413POPC   D2A68440  32.263  29.141   6.753
10413POPC   C3A68441  32.282  29.146   7.053
10413POPC   C4A68442  32.228  29.128   7.353
10413POPC   C1B68443  31.988  29.128   6.453
10413POPC   C2B68444  32.009  29.142   6.753
10413POPC   C3B68445  31.998  29.182   7.053
10413POPC   C4B68446  32.046  29.225   7.353
10414POPC   NC368447  36.925  26.084   5.553
10414POPC   PO468448  36.940  26.077   5.853
10414POPC   GL168449  36.940  26.027   6.153
10414POPC   GL268450  36.999  26.040   6.153
10414POPC   C1A68451  36.952  26.076   6.453
10414POPC   D2A68452  36.935  26.031   6.753
10414POPC   C3A68453  36.918  26.051   7.053
10414POPC   C4A68454  36.865  26.079   7.353
10414POPC   C1B68455  37.131  26.072   6.453
10414POPC   C2B68456  37.199  26.065   6.753
10414POPC   C3B68457  37.110  26.060   7.053
10414POPC   C4B68458  37.186  26.008   7.353
10415POPC   NC368459   1.949  37.667   5.553
10415POPC   PO468460   2.038  37.718   5.853
10415POPC   GL168461   2.024  37.687   6.153
10415POPC   GL268462   1.862  37.551   6.153
10415POPC   C1A68463   1.980  37.683   6.453
10415POPC   D2A68464   2.018  37.714   6.753
10415POPC   C3A68465   1.974  37.652   7.053
10415POPC   C4A68466   1.944  37.706   7.353
10415POPC   C1B68467   1.815  37.455   6.453
10415POPC   C2B68468   1.831  37.502   6.753
10415POPC   C3B68469   1.853  37.495   7.053
10415POPC   C4B68470   1.815  37.525   7.353
10416POPC   NC368471   8.161  41.562   5.553
10416POPC   PO468472   8.169  41.528   5.853
10416POPC   GL168473   8.169  41.602   6.153
10416POPC   GL268474   8.145  41.389   6.153
10416POPC   C1A68475   8.159  41.596   6.453
10416POPC   D2A68476   8.182  41.566   6.753
10416POPC   C3A68477   8.168  41.588   7.053
10416POPC   C4A68478   8.231  41.559   7.353
10416POPC   C1B68479   8.154  41.355   6.453
10416POPC   C2B68480   8.117  41.354   6.753
10416POPC   C3B68481   8.158  41.286   7.053
10416POPC   C4B68482   8.157  41.321   7.353
10417POPC   NC368483  36.079  27.597   5.553
10417POPC   PO468484  36.125  27.576   5.853
10417POPC   GL168485  36.135  27.570   6.153
10417POPC   GL268486  36.006  27.530   6.153
10417POPC   C1A68487  36.173  27.630   6.453
10417POPC   D2A68488  36.165  27.554   6.753
10417POPC   C3A68489  36.135  27.613   7.053
10417POPC   C4A68490  36.089  27.632   7.353
10417POPC   C1B68491  35.884  27.527   6.453
10417POPC   C2B68492  35.873  27.563   6.753
10417POPC   C3B68493  35.833  27.558   7.053
10417POPC   C4B68494  35.849  27.524   7.353
10418POPC   NC368495  29.180  28.382   5.553
10418POPC   PO468496  29.155  28.349   5.853
10418POPC   GL168497  29.135  28.391   6.153
10418POPC   GL268498  29.173  28.283   6.153
10418POPC   C1A68499  29.149  28.400   6.453
10418POPC   D2A68500  29.178  28.405   6.753
10418POPC   C3A68501  29.184  28.417   7.053
10418POPC   C4A68502  29.187  28.361   7.353
10418POPC   C1B68503  29.301  28.144   6.453
10418POPC   C2B68504  29.313  28.148   6.753
10418POPC   C3B68505  29.232  28.196   7.053
10418POPC   C4B68506  29.299  28.126   7.353
10419POPC   NC368507   4.277  30.682   5.553
10419POPC   PO468508   4.276  30.697   5.853
10419POPC   GL168509   4.288  30.687   6.153
10419POPC   GL268510   4.359  30.832   6.153
10419POPC   C1A68511   4.349  30.673   6.453
10419POPC   D2A68512   4.326  30.703   6.753
10419POPC   C3A68513   4.326  30.681   7.053
10419POPC   C4A68514   4.301  30.708   7.353
10419POPC   C1B68515   4.411  30.927   6.453
10419POPC   C2B68516   4.333  30.985   6.753
10419POPC   C3B68517   4.367  30.907   7.053
10419POPC   C4B68518   4.327  30.896   7.353
10420POPC   NC368519  30.681  10.540   5.553
10420POPC   PO468520  30.704  10.501   5.853
10420POPC   GL168521  30.667  10.537   6.153
10420POPC   GL268522  30.596  10.431   6.153
10420POPC   C1A68523  30.699  10.518   6.453
10420POPC   D2A68524  30.732  10.545   6.753
10420POPC   C3A68525  30.652  10.487   7.053
10420POPC   C4A68526  30.719  10.545   7.353
10420POPC   C1B68527  30.550  10.346   6.453
10420POPC   C2B68528  30.492  10.351   6.753
10420POPC   C3B68529  30.473  10.339   7.053
10420POPC   C4B68530  30.489  10.396   7.353
10421POPC   NC368531  39.197  43.127   5.553
10421POPC   PO468532  39.220  43.153   5.853
10421POPC   GL168533  39.188  43.143   6.153
10421POPC   GL268534  39.157  43.118   6.153
10421POPC   C1A68535  39.253  43.088   6.453
10421POPC   D2A68536  39.253  43.135   6.753
10421POPC   C3A68537  39.234  43.119   7.053
10421POPC   C4A68538  39.206  43.101   7.353
10421POPC   C1B68539  39.008  43.131   6.453
10421POPC   C2B68540  38.941  43.202   6.753
10421POPC   C3B68541  39.015  43.169   7.053
10421POPC   C4B68542  38.941  43.172   7.353
10422POPC   NC368543   5.114  13.661   5.553
10422POPC   PO468544   5.139  13.585   5.853
10422POPC   GL168545   5.080  13.593   6.153
10422POPC   GL268546   5.246  13.536   6.153
10422POPC   C1A68547   5.116  13.656   6.453
10422POPC   D2A68548   5.113  13.638   6.753
10422POPC   C3A68549   5.142  13.660   7.053
10422POPC   C4A68550   5.088  13.610   7.353
10422POPC   C1B68551   5.335  13.474   6.453
10422POPC   C2B68552   5.288  13.488   6.753
10422POPC   C3B68553   5.320  13.540   7.053
10422POPC   C4B68554   5.342  13.546   7.353
10423POPC   NC368555  32.202  12.105   5.553
10423POPC   PO468556  32.265  12.106   5.853
10423POPC   GL168557  32.237  12.120   6.153
10423POPC   GL268558  32.299  12.207   6.153
10423POPC   C1A68559  32.243  12.087   6.453
10423POPC   D2A68560  32.286  12.066   6.753
10423POPC   C3A68561  32.297  12.113   7.053
10423POPC   C4A68562  32.251  12.051   7.353
10423POPC   C1B68563  32.329  12.340   6.453
10423POPC   C2B68564  32.259  12.281   6.753
10423POPC   C3B68565  32.233  12.288   7.053
10423POPC   C4B68566  32.322  12.327   7.353
10424POPC   NC368567  29.144  12.105   5.553
10424POPC   PO468568  29.128  12.095   5.853
10424POPC   GL168569  29.179  12.112   6.153
10424POPC   GL268570  29.052  12.187   6.153
10424POPC   C1A68571  29.115  12.121   6.453
10424POPC   D2A68572  29.131  12.033   6.753
10424POPC   C3A68573  29.123  12.118   7.053
10424POPC   C4A68574  29.162  12.066   7.353
10424POPC   C1B68575  28.996  12.280   6.453
10424POPC   C2B68576  29.064  12.272   6.753
10424POPC   C3B68577  29.012  12.342   7.053
10424POPC   C4B68578  29.079  12.323   7.353
10425POPC   NC368579   0.404   5.079   5.553
10425POPC   PO468580   0.389   5.073   5.853
10425POPC   GL168581   0.442   5.080   6.153
10425POPC   GL268582   0.345   5.166   6.153
10425POPC   C1A68583   0.421   5.091   6.453
10425POPC   D2A68584   0.400   5.111   6.753
10425POPC   C3A68585   0.466   5.068   7.053
10425POPC   C4A68586   0.396   5.124   7.353
10425POPC   C1B68587   0.291   5.238   6.453
10425POPC   C2B68588   0.205   5.232   6.753
10425POPC   C3B68589   0.236   5.286   7.053
10425POPC   C4B68590   0.203   5.245   7.353
10426POPC   NC368591  14.354   8.986   5.553
10426POPC   PO468592  14.453   9.022   5.853
10426POPC   GL168593  14.355   8.945   6.153
10426POPC   GL268594  14.533   8.935   6.153
10426POPC   C1A68595  14.452   8.961   6.453
10426POPC   D2A68596  14.442   9.016   6.753
10426POPC   C3A68597  14.366   8.993   7.053
10426POPC   C4A68598  14.357   8.928   7.353
10426POPC   C1B68599  14.639   8.863   6.453
10426POPC   C2B68600  14.647   8.876   6.753
10426POPC   C3B68601  14.654   8.876   7.053
10426POPC   C4B68602  14.626   8.865   7.353
10427POPC   NC368603   8.164   6.598   5.553
10427POPC   PO468604   8.177   6.653   5.853
10427POPC   GL168605   8.197   6.614   6.153
10427POPC   GL268606   8.288   6.755   6.153
10427POPC   C1A68607   8.186   6.620   6.453
10427POPC   D2A68608   8.227   6.630   6.753
10427POPC   C3A68609   8.208   6.631   7.053
10427POPC   C4A68610   8.205   6.671   7.353
10427POPC   C1B68611   8.341   6.765   6.453
10427POPC   C2B68612   8.337   6.810   6.753
10427POPC   C3B68613   8.391   6.796   7.053
10427POPC   C4B68614   8.380   6.811   7.353
10428POPC   NC368615   5.892  39.980   5.553
10428POPC   PO468616   5.849  39.962   5.853
10428POPC   GL168617   5.913  39.966   6.153
10428POPC   GL268618   5.976  39.914   6.153
10428POPC   C1A68619   5.899  39.971   6.453
10428POPC   D2A68620   5.898  40.032   6.753
10428POPC   C3A68621   5.917  40.014   7.053
10428POPC   C4A68622   5.844  40.031   7.353
10428POPC   C1B68623   6.096  39.870   6.453
10428POPC   C2B68624   6.084  39.887   6.753
10428POPC   C3B68625   6.058  39.953   7.053
10428POPC   C4B68626   6.075  39.947   7.353
10429POPC   NC368627  24.446   5.073   5.553
10429POPC   PO468628  24.536   5.140   5.853
10429POPC   GL168629  24.510   5.084   6.153
10429POPC   GL268630  24.474   5.000   6.153
10429POPC   C1A68631  24.530   5.143   6.453
10429POPC   D2A68632  24.526   5.083   6.753
10429POPC   C3A68633  24.450   5.116   7.053
10429POPC   C4A68634  24.497   5.083   7.353
10429POPC   C1B68635  24.438   4.850   6.453
10429POPC   C2B68636  24.408   4.851   6.753
10429POPC   C3B68637  24.377   4.894   7.053
10429POPC   C4B68638  24.418   4.872   7.353
10430POPC   NC368639  18.235  24.474   5.553
10430POPC   PO468640  18.271  24.464   5.853
10430POPC   GL168641  18.237  24.539   6.153
10430POPC   GL268642  18.313  24.360   6.153
10430POPC   C1A68643  18.286  24.526   6.453
10430POPC   D2A68644  18.254  24.527   6.753
10430POPC   C3A68645  18.293  24.465   7.053
10430POPC   C4A68646  18.286  24.457   7.353
10430POPC   C1B68647  18.255  24.202   6.453
10430POPC   C2B68648  18.308  24.272   6.753
10430POPC   C3B68649  18.317  24.239   7.053
10430POPC   C4B68650  18.293  24.273   7.353
10431POPC   NC368651   6.621  42.300   5.553
10431POPC   PO468652   6.648  42.374   5.853
10431POPC   GL168653   6.667  42.381   6.153
10431POPC   GL268654   6.741  42.239   6.153
10431POPC   C1A68655   6.634  42.360   6.453
10431POPC   D2A68656   6.610  42.339   6.753
10431POPC   C3A68657   6.674  42.328   7.053
10431POPC   C4A68658   6.597  42.326   7.353
10431POPC   C1B68659   6.802  42.159   6.453
10431POPC   C2B68660   6.805  42.178   6.753
10431POPC   C3B68661   6.855  42.131   7.053
10431POPC   C4B68662   6.864  42.215   7.353
10432POPC   NC368663   2.790  14.412   5.553
10432POPC   PO468664   2.767  14.366   5.853
10432POPC   GL168665   2.722  14.359   6.153
10432POPC   GL268666   2.620  14.369   6.153
10432POPC   C1A68667   2.783  14.418   6.453
10432POPC   D2A68668   2.771  14.366   6.753
10432POPC   C3A68669   2.792  14.422   7.053
10432POPC   C4A68670   2.767  14.425   7.353
10432POPC   C1B68671   2.494  14.453   6.453
10432POPC   C2B68672   2.476  14.440   6.753
10432POPC   C3B68673   2.480  14.394   7.053
10432POPC   C4B68674   2.547  14.441   7.353
10433POPC   NC368675  14.374  12.102   5.553
10433POPC   PO468676  14.394  12.115   5.853
10433POPC   GL168677  14.428  12.067   6.153
10433POPC   GL268678  14.565  12.028   6.153
10433POPC   C1A68679  14.360  12.098   6.453
10433POPC   D2A68680  14.442  12.056   6.753
10433POPC   C3A68681  14.356  12.111   7.053
10433POPC   C4A68682  14.396  12.106   7.353
10433POPC   C1B68683  14.640  12.048   6.453
10433POPC   C2B68684  14.655  11.987   6.753
10433POPC   C3B68685  14.631  12.062   7.053
10433POPC   C4B68686  14.679  11.975   7.353
10434POPC   NC368687  13.653  40.770   5.553
10434POPC   PO468688  13.630  40.766   5.853
10434POPC   GL168689  13.595  40.773   6.153
10434POPC   GL268690  13.719  40.690   6.153
10434POPC   C1A68691  13.633  40.774   6.453
10434POPC   D2A68692  13.598  40.783   6.753
10434POPC   C3A68693  13.593  40.827   7.053
10434POPC   C4A68694  13.602  40.800   7.353
10434POPC   C1B68695  13.686  40.569   6.453
10434POPC   C2B68696  13.722  40.580   6.753
10434POPC   C3B68697  13.731  40.560   7.053
10434POPC   C4B68698  13.733  40.501   7.353
10435POPC   NC368699  35.368  15.146   5.553
10435POPC   PO468700  35.378  15.166   5.853
10435POPC   GL168701  35.383  15.199   6.153
10435POPC   GL268702  35.439  15.309   6.153
10435POPC   C1A68703  35.302  15.169   6.453
10435POPC   D2A68704  35.332  15.142   6.753
10435POPC   C3A68705  35.314  15.219   7.053
10435POPC   C4A68706  35.357  15.189   7.353
10435POPC   C1B68707  35.416  15.424   6.453
10435POPC   C2B68708  35.445  15.410   6.753
10435POPC   C3B68709  35.437  15.368   7.053
10435POPC   C4B68710  35.448  15.458   7.353
10436POPC   NC368711  39.251  34.600   5.553
10436POPC   PO468712  39.270  34.601   5.853
10436POPC   GL168713  39.207  34.538   6.153
10436POPC   GL268714  39.311  34.549   6.153
10436POPC   C1A68715  39.194  34.602   6.453
10436POPC   D2A68716  39.245  34.614   6.753
10436POPC   C3A68717  39.221  34.606   7.053
10436POPC   C4A68718  39.225  34.589   7.353
10436POPC   C1B68719  39.472  34.402   6.453
10436POPC   C2B68720  39.480  34.392   6.753
10436POPC   C3B68721  39.417  34.466   7.053
10436POPC   C4B68722  39.448  34.425   7.353
10437POPC   NC368723  13.645  27.567   5.553
10437POPC   PO468724  13.595  27.606   5.853
10437POPC   GL168725  13.651  27.584   6.153
10437POPC   GL268726  13.651  27.671   6.153
10437POPC   C1A68727  13.600  27.605   6.453
10437POPC   D2A68728  13.674  27.553   6.753
10437POPC   C3A68729  13.617  27.591   7.053
10437POPC   C4A68730  13.638  27.596   7.353
10437POPC   C1B68731  13.584  27.813   6.453
10437POPC   C2B68732  13.585  27.825   6.753
10437POPC   C3B68733  13.547  27.883   7.053
10437POPC   C4B68734  13.546  27.800   7.353
10438POPC   NC368735  15.198  13.677   5.553
10438POPC   PO468736  15.152  13.662   5.853
10438POPC   GL168737  15.132  13.632   6.153
10438POPC   GL268738  15.094  13.627   6.153
10438POPC   C1A68739  15.215  13.610   6.453
10438POPC   D2A68740  15.212  13.650   6.753
10438POPC   C3A68741  15.175  13.652   7.053
10438POPC   C4A68742  15.205  13.583   7.353
10438POPC   C1B68743  14.907  13.574   6.453
10438POPC   C2B68744  14.969  13.542   6.753
10438POPC   C3B68745  14.957  13.598   7.053
10438POPC   C4B68746  14.975  13.592   7.353
10439POPC   NC368747  29.931  15.214   5.553
10439POPC   PO468748  29.914  15.205   5.853
10439POPC   GL168749  29.877  15.200   6.153
10439POPC   GL268750  30.065  15.195   6.153
10439POPC   C1A68751  29.904  15.149   6.453
10439POPC   D2A68752  29.883  15.178   6.753
10439POPC   C3A68753  29.874  15.156   7.053
10439POPC   C4A68754  29.877  15.191   7.353
10439POPC   C1B68755  30.126  15.179   6.453
10439POPC   C2B68756  30.216  15.124   6.753
10439POPC   C3B68757  30.217  15.146   7.053
10439POPC   C4B68758  30.155  15.160   7.353
10440POPC   NC368759  36.113  38.476   5.553
10440POPC   PO468760  36.101  38.497   5.853
10440POPC   GL168761  36.162  38.441   6.153
10440POPC   GL268762  36.220  38.389   6.153
10440POPC   C1A68763  36.147  38.437   6.453
10440POPC   D2A68764  36.096  38.424   6.753
10440POPC   C3A68765  36.165  38.414   7.053
10440POPC   C4A68766  36.082  38.461   7.353
10440POPC   C1B68767  36.205  38.214   6.453
10440POPC   C2B68768  36.230  38.247   6.753
10440POPC   C3B68769  36.201  38.227   7.053
10440POPC   C4B68770  36.278  38.221   7.353
10441POPC   NC368771  19.015  36.158   5.553
10441POPC   PO468772  19.046  36.106   5.853
10441POPC   GL168773  19.095  36.131   6.153
10441POPC   GL268774  19.121  35.999   6.153
10441POPC   C1A68775  19.020  36.139   6.453
10441POPC   D2A68776  19.102  36.114   6.753
10441POPC   C3A68777  19.013  36.147   7.053
10441POPC   C4A68778  19.056  36.156   7.353
10441POPC   C1B68779  19.271  35.953   6.453
10441POPC   C2B68780  19.232  35.920   6.753
10441POPC   C3B68781  19.291  35.989   7.053
10441POPC   C4B68782  19.214  35.934   7.353
10442POPC   NC368783  26.828  13.585   5.553
10442POPC   PO468784  26.789  13.585   5.853
10442POPC   GL168785  26.859  13.607   6.153
10442POPC   GL268786  26.754  13.748   6.153
10442POPC   C1A68787  26.825  13.604   6.453
10442POPC   D2A68788  26.839  13.605   6.753
10442POPC   C3A68789  26.771  13.665   7.053
10442POPC   C4A68790  26.807  13.666   7.353
10442POPC   C1B68791  26.701  13.850   6.453
10442POPC   C2B68792  26.790  13.832   6.753
10442POPC   C3B68793  26.742  13.856   7.053
10442POPC   C4B68794  26.728  13.868   7.353
10443POPC   NC368795  24.534  18.312   5.553
10443POPC   PO468796  24.451  18.291   5.853
10443POPC   GL168797  24.500  18.267   6.153
10443POPC   GL268798  24.362  18.368   6.153
10443POPC   C1A68799  24.451  18.237   6.453
10443POPC   D2A68800  24.466  18.309   6.753
10443POPC   C3A68801  24.447  18.234   7.053
10443POPC   C4A68802  24.523  18.286   7.353
10443POPC   C1B68803  24.299  18.438   6.453
10443POPC   C2B68804  24.339  18.503   6.753
10443POPC   C3B68805  24.357  18.474   7.053
10443POPC   C4B68806  24.356  18.492   7.353
10444POPC   NC368807  32.988  13.643   5.553
10444POPC   PO468808  33.054  13.587   5.853
10444POPC   GL168809  33.072  13.668   6.153
10444POPC   GL268810  32.965  13.782   6.153
10444POPC   C1A68811  33.027  13.673   6.453
10444POPC   D2A68812  33.011  13.595   6.753
10444POPC   C3A68813  33.056  13.604   7.053
10444POPC   C4A68814  33.026  13.605   7.353
10444POPC   C1B68815  32.927  13.865   6.453
10444POPC   C2B68816  32.953  13.881   6.753
10444POPC   C3B68817  33.003  13.824   7.053
10444POPC   C4B68818  32.942  13.889   7.353
10445POPC   NC368819   5.142  16.754   5.553
10445POPC   PO468820   5.118  16.720   5.853
10445POPC   GL168821   5.057  16.738   6.153
10445POPC   GL268822   5.117  16.637   6.153
10445POPC   C1A68823   5.115  16.781   6.453
10445POPC   D2A68824   5.093  16.749   6.753
10445POPC   C3A68825   5.103  16.737   7.053
10445POPC   C4A68826   5.099  16.725   7.353
10445POPC   C1B68827   5.128  16.518   6.453
10445POPC   C2B68828   5.156  16.457   6.753
10445POPC   C3B68829   5.136  16.509   7.053
10445POPC   C4B68830   5.141  16.460   7.353
10446POPC   NC368831  24.495  29.169   5.553
10446POPC   PO468832  24.449  29.122   5.853
10446POPC   GL168833  24.475  29.122   6.153
10446POPC   GL268834  24.598  29.112   6.153
10446POPC   C1A68835  24.485  29.109   6.453
10446POPC   D2A68836  24.467  29.123   6.753
10446POPC   C3A68837  24.506  29.142   7.053
10446POPC   C4A68838  24.530  29.183   7.353
10446POPC   C1B68839  24.659  29.009   6.453
10446POPC   C2B68840  24.689  28.974   6.753
10446POPC   C3B68841  24.657  28.971   7.053
10446POPC   C4B68842  24.661  28.986   7.353
10447POPC   NC368843  19.821   3.547   5.553
10447POPC   PO468844  19.793   3.534   5.853
10447POPC   GL168845  19.797   3.521   6.153
10447POPC   GL268846  19.764   3.392   6.153
10447POPC   C1A68847  19.803   3.521   6.453
10447POPC   D2A68848  19.795   3.505   6.753
10447POPC   C3A68849  19.872   3.575   7.053
10447POPC   C4A68850  19.877   3.546   7.353
10447POPC   C1B68851  19.722   3.299   6.453
10447POPC   C2B68852  19.770   3.297   6.753
10447POPC   C3B68853  19.741   3.267   7.053
10447POPC   C4B68854  19.786   3.349   7.353
10448POPC   NC368855  15.164  15.985   5.553
10448POPC   PO468856  15.215  15.915   5.853
10448POPC   GL168857  15.161  15.922   6.153
10448POPC   GL268858  15.203  16.039   6.153
10448POPC   C1A68859  15.179  15.961   6.453
10448POPC   D2A68860  15.190  15.907   6.753
10448POPC   C3A68861  15.180  15.918   7.053
10448POPC   C4A68862  15.149  15.999   7.353
10448POPC   C1B68863  15.260  16.184   6.453
10448POPC   C2B68864  15.265  16.154   6.753
10448POPC   C3B68865  15.260  16.155   7.053
10448POPC   C4B68866  15.235  16.226   7.353
10449POPC   NC368867  36.174  29.125   5.553
10449POPC   PO468868  36.129  29.188   5.853
10449POPC   GL168869  36.159  29.165   6.153
10449POPC   GL268870  36.001  29.039   6.153
10449POPC   C1A68871  36.113  29.153   6.453
10449POPC   D2A68872  36.154  29.169   6.753
10449POPC   C3A68873  36.093  29.122   7.053
10449POPC   C4A68874  36.081  29.102   7.353
10449POPC   C1B68875  35.976  28.999   6.453
10449POPC   C2B68876  35.947  28.964   6.753
10449POPC   C3B68877  35.985  28.947   7.053
10449POPC   C4B68878  35.898  28.958   7.353
10450POPC   NC368879   8.153  40.773   5.553
10450POPC   PO468880   8.241  40.818   5.853
10450POPC   GL168881   8.205  40.744   6.153
10450POPC   GL268882   8.264  40.827   6.153
10450POPC   C1A68883   8.210  40.734   6.453
10450POPC   D2A68884   8.174  40.799   6.753
10450POPC   C3A68885   8.200  40.797   7.053
10450POPC   C4A68886   8.213  40.829   7.353
10450POPC   C1B68887   8.468  40.880   6.453
10450POPC   C2B68888   8.449  40.901   6.753
10450POPC   C3B68889   8.403  40.913   7.053
10450POPC   C4B68890   8.470  40.841   7.353
10451POPC   NC368891  34.566  14.441   5.553
10451POPC   PO468892  34.562  14.380   5.853
10451POPC   GL168893  34.534  14.434   6.153
10451POPC   GL268894  34.646  14.493   6.153
10451POPC   C1A68895  34.594  14.361   6.453
10451POPC   D2A68896  34.558  14.420   6.753
10451POPC   C3A68897  34.593  14.399   7.053
10451POPC   C4A68898  34.546  14.413   7.353
10451POPC   C1B68899  34.679  14.668   6.453
10451POPC   C2B68900  34.690  14.630   6.753
10451POPC   C3B68901  34.712  14.606   7.053
10451POPC   C4B68902  34.658  14.610   7.353
10452POPC   NC368903  35.304  25.309   5.553
10452POPC   PO468904  35.315  25.243   5.853
10452POPC   GL168905  35.356  25.246   6.153
10452POPC   GL268906  35.354  25.428   6.153
10452POPC   C1A68907  35.368  25.219   6.453
10452POPC   D2A68908  35.369  25.224   6.753
10452POPC   C3A68909  35.314  25.278   7.053
10452POPC   C4A68910  35.378  25.315   7.353
10452POPC   C1B68911  35.315  25.508   6.453
10452POPC   C2B68912  35.274  25.551   6.753
10452POPC   C3B68913  35.341  25.514   7.053
10452POPC   C4B68914  35.297  25.546   7.353
10453POPC   NC368915   4.272  15.203   5.553
10453POPC   PO468916   4.297  15.189   5.853
10453POPC   GL168917   4.284  15.151   6.153
10453POPC   GL268918   4.391  15.127   6.153
10453POPC   C1A68919   4.310  15.221   6.453
10453POPC   D2A68920   4.297  15.160   6.753
10453POPC   C3A68921   4.337  15.223   7.053
10453POPC   C4A68922   4.286  15.197   7.353
10453POPC   C1B68923   4.575  15.099   6.453
10453POPC   C2B68924   4.590  15.145   6.753
10453POPC   C3B68925   4.613  15.155   7.053
10453POPC   C4B68926   4.601  15.143   7.353
10454POPC   NC368927  19.814  30.651   5.553
10454POPC   PO468928  19.808  30.745   5.853
10454POPC   GL168929  19.798  30.689   6.153
10454POPC   GL268930  19.684  30.796   6.153
10454POPC   C1A68931  19.842  30.716   6.453
10454POPC   D2A68932  19.809  30.731   6.753
10454POPC   C3A68933  19.790  30.740   7.053
10454POPC   C4A68934  19.824  30.687   7.353
10454POPC   C1B68935  19.651  30.805   6.453
10454POPC   C2B68936  19.620  30.863   6.753
10454POPC   C3B68937  19.663  30.790   7.053
10454POPC   C4B68938  19.633  30.805   7.353
10455POPC   NC368939   5.878  33.806   5.553
10455POPC   PO468940   5.863  33.831   5.853
10455POPC   GL168941   5.846  33.824   6.153
10455POPC   GL268942   5.803  33.714   6.153
10455POPC   C1A68943   5.889  33.826   6.453
10455POPC   D2A68944   5.906  33.816   6.753
10455POPC   C3A68945   5.890  33.794   7.053
10455POPC   C4A68946   5.847  33.847   7.353
10455POPC   C1B68947   5.710  33.625   6.453
10455POPC   C2B68948   5.760  33.553   6.753
10455POPC   C3B68949   5.744  33.553   7.053
10455POPC   C4B68950   5.797  33.614   7.353
10456POPC   NC368951  15.933  26.772   5.553
10456POPC   PO468952  15.940  26.865   5.853
10456POPC   GL168953  15.923  26.776   6.153
10456POPC   GL268954  15.827  26.760   6.153
10456POPC   C1A68955  15.932  26.767   6.453
10456POPC   D2A68956  15.938  26.839   6.753
10456POPC   C3A68957  15.905  26.786   7.053
10456POPC   C4A68958  15.961  26.857   7.353
10456POPC   C1B68959  15.805  26.665   6.453
10456POPC   C2B68960  15.799  26.676   6.753
10456POPC   C3B68961  15.717  26.673   7.053
10456POPC   C4B68962  15.747  26.623   7.353
10457POPC   NC368963  31.474  19.026   5.553
10457POPC   PO468964  31.446  19.090   5.853
10457POPC   GL168965  31.513  19.039   6.153
10457POPC   GL268966  31.404  19.162   6.153
10457POPC   C1A68967  31.498  19.097   6.453
10457POPC   D2A68968  31.505  19.105   6.753
10457POPC   C3A68969  31.502  19.091   7.053
10457POPC   C4A68970  31.474  19.046   7.353
10457POPC   C1B68971  31.256  19.217   6.453
10457POPC   C2B68972  31.327  19.213   6.753
10457POPC   C3B68973  31.264  19.263   7.053
10457POPC   C4B68974  31.319  19.241   7.353
10458POPC   NC368975  21.385  28.328   5.553
10458POPC   PO468976  21.424  28.336   5.853
10458POPC   GL168977  21.428  28.378   6.153
10458POPC   GL268978  21.297  28.274   6.153
10458POPC   C1A68979  21.338  28.386   6.453
10458POPC   D2A68980  21.367  28.333   6.753
10458POPC   C3A68981  21.375  28.409   7.053
10458POPC   C4A68982  21.354  28.389   7.353
10458POPC   C1B68983  21.269  28.141   6.453
10458POPC   C2B68984  21.221  28.110   6.753
10458POPC   C3B68985  21.272  28.155   7.053
10458POPC   C4B68986  21.251  28.182   7.353
10459POPC   NC368987  32.252  42.352   5.553
10459POPC   PO468988  32.266  42.323   5.853
10459POPC   GL168989  32.233  42.357   6.153
10459POPC   GL268990  32.126  42.407   6.153
10459POPC   C1A68991  32.259  42.345   6.453
10459POPC   D2A68992  32.226  42.364   6.753
10459POPC   C3A68993  32.285  42.325   7.053
10459POPC   C4A68994  32.215  42.304   7.353
10459POPC   C1B68995  32.093  42.524   6.453
10459POPC   C2B68996  32.097  42.484   6.753
10459POPC   C3B68997  32.067  42.466   7.053
10459POPC   C4B68998  32.047  42.468   7.353
10460POPC   NC368999  15.954  16.718   5.553
10460POPC   PO469000  15.961  16.746   5.853
10460POPC   GL169001  15.978  16.715   6.153
10460POPC   GL269002  15.926  16.609   6.153
10460POPC   C1A69003  15.973  16.711   6.453
10460POPC   D2A69004  15.985  16.703   6.753
10460POPC   C3A69005  15.923  16.685   7.053
10460POPC   C4A69006  15.934  16.747   7.353
10460POPC   C1B69007  15.935  16.472   6.453
10460POPC   C2B69008  15.881  16.495   6.753
10460POPC   C3B69009  15.921  16.495   7.053
10460POPC   C4B69010  15.939  16.474   7.353
10461POPC   NC369011  14.359  26.859   5.553
10461POPC   PO469012  14.367  26.837   5.853
10461POPC   GL169013  14.448  26.767   6.153
10461POPC   GL269014  14.321  26.926   6.153
10461POPC   C1A69015  14.416  26.804   6.453
10461POPC   D2A69016  14.404  26.857   6.753
10461POPC   C3A69017  14.360  26.780   7.053
10461POPC   C4A69018  14.387  26.828   7.353
10461POPC   C1B69019  14.267  26.976   6.453
10461POPC   C2B69020  14.238  26.983   6.753
10461POPC   C3B69021  14.294  27.009   7.053
10461POPC   C4B69022  14.217  27.012   7.353
10462POPC   NC369023  38.489  10.540   5.553
10462POPC   PO469024  38.452  10.533   5.853
10462POPC   GL169025  38.459  10.493   6.153
10462POPC   GL269026  38.324  10.576   6.153
10462POPC   C1A69027  38.423  10.526   6.453
10462POPC   D2A69028  38.428  10.495   6.753
10462POPC   C3A69029  38.487  10.512   7.053
10462POPC   C4A69030  38.421  10.535   7.353
10462POPC   C1B69031  38.269  10.633   6.453
10462POPC   C2B69032  38.239  10.656   6.753
10462POPC   C3B69033  38.298  10.681   7.053
10462POPC   C4B69034  38.222  10.673   7.353
10463POPC   NC369035  40.045  41.590   5.553
10463POPC   PO469036  40.005  41.554   5.853
10463POPC   GL169037  39.999  41.521   6.153
10463POPC   GL269038  39.982  41.455   6.153
10463POPC   C1A69039  39.987  41.583   6.453
10463POPC   D2A69040  39.994  41.569   6.753
10463POPC   C3A69041  40.013  41.546   7.053
10463POPC   C4A69042  40.027  41.592   7.353
10463POPC   C1B69043  40.027  41.301   6.453
10463POPC   C2B69044  40.034  41.313   6.753
10463POPC   C3B69045  40.081  41.306   7.053
10463POPC   C4B69046  40.093  41.284   7.353
10464POPC   NC369047  33.756  28.331   5.553
10464POPC   PO469048  33.774  28.366   5.853
10464POPC   GL169049  33.762  28.413   6.153
10464POPC   GL269050  33.700  28.323   6.153
10464POPC   C1A69051  33.825  28.374   6.453
10464POPC   D2A69052  33.761  28.399   6.753
10464POPC   C3A69053  33.797  28.358   7.053
10464POPC   C4A69054  33.773  28.337   7.353
10464POPC   C1B69055  33.621  28.275   6.453
10464POPC   C2B69056  33.549  28.209   6.753
10464POPC   C3B69057  33.566  28.216   7.053
10464POPC   C4B69058  33.587  28.254   7.353
10465POPC   NC369059  23.684  19.014   5.553
10465POPC   PO469060  23.706  19.106   5.853
10465POPC   GL169061  23.740  19.073   6.153
10465POPC   GL269062  23.587  19.069   6.153
10465POPC   C1A69063  23.734  19.079   6.453
10465POPC   D2A69064  23.713  19.097   6.753
10465POPC   C3A69065  23.738  19.023   7.053
10465POPC   C4A69066  23.721  19.030   7.353
10465POPC   C1B69067  23.499  19.081   6.453
10465POPC   C2B69068  23.475  19.136   6.753
10465POPC   C3B69069  23.492  19.115   7.053
10465POPC   C4B69070  23.477  19.044   7.353
10466POPC   NC369071  23.735   1.982   5.553
10466POPC   PO469072  23.749   1.988   5.853
10466POPC   GL169073  23.699   2.032   6.153
10466POPC   GL269074  23.620   2.061   6.153
10466POPC   C1A69075  23.743   1.973   6.453
10466POPC   D2A69076  23.731   2.014   6.753
10466POPC   C3A69077  23.669   2.002   7.053
10466POPC   C4A69078  23.730   1.989   7.353
10466POPC   C1B69079  23.549   2.088   6.453
10466POPC   C2B69080  23.473   2.125   6.753
10466POPC   C3B69081  23.470   2.071   7.053
10466POPC   C4B69082  23.537   2.096   7.353
10467POPC   NC369083  30.671  26.047   5.553
10467POPC   PO469084  30.698  26.046   5.853
10467POPC   GL169085  30.729  26.079   6.153
10467POPC   GL269086  30.828  26.034   6.153
10467POPC   C1A69087  30.741  26.046   6.453
10467POPC   D2A69088  30.659  26.076   6.753
10467POPC   C3A69089  30.690  26.039   7.053
10467POPC   C4A69090  30.677  26.015   7.353
10467POPC   C1B69091  30.914  26.123   6.453
10467POPC   C2B69092  30.986  26.094   6.753
10467POPC   C3B69093  30.949  26.117   7.053
10467POPC   C4B69094  30.896  26.143   7.353
10468POPC   NC369095  15.949   7.384   5.553
10468POPC   PO469096  15.926   7.394   5.853
10468POPC   GL169097  15.955   7.446   6.153
10468POPC   GL269098  16.001   7.284   6.153
10468POPC   C1A69099  15.947   7.404   6.453
10468POPC   D2A69100  15.919   7.395   6.753
10468POPC   C3A69101  15.931   7.454   7.053
10468POPC   C4A69102  15.964   7.372   7.353
10468POPC   C1B69103  16.027   7.123   6.453
10468POPC   C2B69104  15.940   7.146   6.753
10468POPC   C3B69105  15.941   7.131   7.053
10468POPC   C4B69106  16.015   7.136   7.353
10469POPC   NC369107   5.901   6.641   5.553
10469POPC   PO469108   5.914   6.692   5.853
10469POPC   GL169109   5.862   6.605   6.153
10469POPC   GL269110   5.804   6.515   6.153
10469POPC   C1A69111   5.895   6.625   6.453
10469POPC   D2A69112   5.890   6.678   6.753
10469POPC   C3A69113   5.905   6.615   7.053
10469POPC   C4A69114   5.850   6.616   7.353
10469POPC   C1B69115   5.718   6.501   6.453
10469POPC   C2B69116   5.650   6.516   6.753
10469POPC   C3B69117   5.695   6.510   7.053
10469POPC   C4B69118   5.692   6.452   7.353
10470POPC   NC369119  26.848  39.216   5.553
10470POPC   PO469120  26.822  39.277   5.853
10470POPC   GL169121  26.853  39.211   6.153
10470POPC   GL269122  26.746  39.262   6.153
10470POPC   C1A69123  26.847  39.195   6.453
10470POPC   D2A69124  26.842  39.210   6.753
10470POPC   C3A69125  26.847  39.216   7.053
10470POPC   C4A69126  26.806  39.211   7.353
10470POPC   C1B69127  26.611  39.366   6.453
10470POPC   C2B69128  26.613  39.354   6.753
10470POPC   C3B69129  26.574  39.369   7.053
10470POPC   C4B69130  26.620  39.357   7.353
10471POPC   NC369131  43.912  23.740   5.553
10471POPC   PO469132  43.869  23.752   5.853
10471POPC   GL169133  43.855  23.732   6.153
10471POPC   GL269134  43.940  23.830   6.153
10471POPC   C1A69135  43.917  23.706   6.453
10471POPC   D2A69136  43.837  23.716   6.753
10471POPC   C3A69137  43.894  23.683   7.053
10471POPC   C4A69138  43.855  23.730   7.353
10471POPC   C1B69139  43.885  23.966   6.453
10471POPC   C2B69140  43.919  23.989   6.753
10471POPC   C3B69141  43.875  24.001   7.053
10471POPC   C4B69142  43.906  23.923   7.353
10472POPC   NC369143  17.555  10.509   5.553
10472POPC   PO469144  17.467  10.536   5.853
10472POPC   GL169145  17.499  10.537   6.153
10472POPC   GL269146  17.467  10.446   6.153
10472POPC   C1A69147  17.527  10.525   6.453
10472POPC   D2A69148  17.553  10.560   6.753
10472POPC   C3A69149  17.460  10.490   7.053
10472POPC   C4A69150  17.540  10.484   7.353
10472POPC   C1B69151  17.435  10.285   6.453
10472POPC   C2B69152  17.387  10.292   6.753
10472POPC   C3B69153  17.445  10.303   7.053
10472POPC   C4B69154  17.436  10.326   7.353
10473POPC   NC369155  36.940  11.350   5.553
10473POPC   PO469156  36.940  11.252   5.853
10473POPC   GL169157  36.878  11.316   6.153
10473POPC   GL269158  36.784  11.178   6.153
10473POPC   C1A69159  36.905  11.341   6.453
10473POPC   D2A69160  36.881  11.311   6.753
10473POPC   C3A69161  36.913  11.263   7.053
10473POPC   C4A69162  36.867  11.313   7.353
10473POPC   C1B69163  36.747  11.138   6.453
10473POPC   C2B69164  36.691  11.150   6.753
10473POPC   C3B69165  36.743  11.119   7.053
10473POPC   C4B69166  36.727  11.154   7.353
10474POPC   NC369167  43.864   1.173   5.553
10474POPC   PO469168  43.881   1.255   5.853
10474POPC   GL169169  43.840   1.230   6.153
10474POPC   GL269170  44.010   1.161   6.153
10474POPC   C1A69171  43.868   1.193   6.453
10474POPC   D2A69172  43.864   1.207   6.753
10474POPC   C3A69173  43.842   1.261   7.053
10474POPC   C4A69174  43.865   1.228   7.353
10474POPC   C1B69175  44.010   1.060   6.453
10474POPC   C2B69176  44.092   0.985   6.753
10474POPC   C3B69177  44.068   1.002   7.053
10474POPC   C4B69178  44.088   0.981   7.353
10475POPC   NC369179  11.344   5.840   5.553
10475POPC   PO469180  11.331   5.916   5.853
10475POPC   GL169181  11.346   5.892   6.153
10475POPC   GL269182  11.365   5.943   6.153
10475POPC   C1A69183  11.300   5.856   6.453
10475POPC   D2A69184  11.325   5.836   6.753
10475POPC   C3A69185  11.335   5.854   7.053
10475POPC   C4A69186  11.327   5.891   7.353
10475POPC   C1B69187  11.466   5.992   6.453
10475POPC   C2B69188  11.450   6.069   6.753
10475POPC   C3B69189  11.484   5.987   7.053
10475POPC   C4B69190  11.470   6.035   7.353
10476POPC   NC369191  22.183  15.159   5.553
10476POPC   PO469192  22.187  15.186   5.853
10476POPC   GL169193  22.158  15.200   6.153
10476POPC   GL269194  22.018  15.259   6.153
10476POPC   C1A69195  22.160  15.216   6.453
10476POPC   D2A69196  22.113  15.183   6.753
10476POPC   C3A69197  22.190  15.223   7.053
10476POPC   C4A69198  22.209  15.181   7.353
10476POPC   C1B69199  21.986  15.272   6.453
10476POPC   C2B69200  21.980  15.332   6.753
10476POPC   C3B69201  21.947  15.293   7.053
10476POPC   C4B69202  21.914  15.277   7.353
10477POPC   NC369203  22.912  16.760   5.553
10477POPC   PO469204  22.988  16.740   5.853
10477POPC   GL169205  22.967  16.761   6.153
10477POPC   GL269206  22.904  16.656   6.153
10477POPC   C1A69207  22.902  16.726   6.453
10477POPC   D2A69208  22.970  16.738   6.753
10477POPC   C3A69209  22.985  16.746   7.053
10477POPC   C4A69210  22.919  16.732   7.353
10477POPC   C1B69211  22.773  16.499   6.453
10477POPC   C2B69212  22.800  16.496   6.753
10477POPC   C3B69213  22.826  16.581   7.053
10477POPC   C4B69214  22.778  16.548   7.353
10478POPC   NC369215  25.310  26.851   5.553
10478POPC   PO469216  25.263  26.811   5.853
10478POPC   GL169217  25.307  26.865   6.153
10478POPC   GL269218  25.301  26.920   6.153
10478POPC   C1A69219  25.257  26.796   6.453
10478POPC   D2A69220  25.237  26.782   6.753
10478POPC   C3A69221  25.254  26.789   7.053
10478POPC   C4A69222  25.281  26.824   7.353
10478POPC   C1B69223  25.333  27.099   6.453
10478POPC   C2B69224  25.282  27.080   6.753
10478POPC   C3B69225  25.275  27.043   7.053
10478POPC   C4B69226  25.286  27.017   7.353
10479POPC   NC369227  17.458  41.548   5.553
10479POPC   PO469228  17.491  41.550   5.853
10479POPC   GL169229  17.458  41.525   6.153
10479POPC   GL269230  17.657  41.547   6.153
10479POPC   C1A69231  17.489  41.592   6.453
10479POPC   D2A69232  17.465  41.575   6.753
10479POPC   C3A69233  17.467  41.538   7.053
10479POPC   C4A69234  17.493  41.553   7.353
10479POPC   C1B69235  17.739  41.441   6.453
10479POPC   C2B69236  17.704  41.475   6.753
10479POPC   C3B69237  17.703  41.484   7.053
10479POPC   C4B69238  17.762  41.468   7.353
10480POPC   NC369239  13.611   8.233   5.553
10480POPC   PO469240  13.599   8.187   5.853
10480POPC   GL169241  13.649   8.156   6.153
10480POPC   GL269242  13.644   8.368   6.153
10480POPC   C1A69243  13.586   8.160   6.453
10480POPC   D2A69244  13.631   8.191   6.753
10480POPC   C3A69245  13.655   8.234   7.053
10480POPC   C4A69246  13.652   8.245   7.353
10480POPC   C1B69247  13.620   8.428   6.453
10480POPC   C2B69248  13.665   8.494   6.753
10480POPC   C3B69249  13.681   8.441   7.053
10480POPC   C4B69250  13.656   8.496   7.353
10481POPC   NC369251   7.432  29.100   5.553
10481POPC   PO469252   7.384  29.165   5.853
10481POPC   GL169253   7.463  29.105   6.153
10481POPC   GL269254   7.267  29.247   6.153
10481POPC   C1A69255   7.461  29.157   6.453
10481POPC   D2A69256   7.398  29.154   6.753
10481POPC   C3A69257   7.460  29.187   7.053
10481POPC   C4A69258   7.401  29.178   7.353
10481POPC   C1B69259   7.169  29.242   6.453
10481POPC   C2B69260   7.185  29.261   6.753
10481POPC   C3B69261   7.250  29.279   7.053
10481POPC   C4B69262   7.201  29.234   7.353
10482POPC   NC369263  29.879  39.247   5.553
10482POPC   PO469264  29.901  39.255   5.853
10482POPC   GL169265  29.936  39.239   6.153
10482POPC   GL269266  29.984  39.139   6.153
10482POPC   C1A69267  29.889  39.251   6.453
10482POPC   D2A69268  29.887  39.261   6.753
10482POPC   C3A69269  29.940  39.184   7.053
10482POPC   C4A69270  29.904  39.253   7.353
10482POPC   C1B69271  30.004  38.952   6.453
10482POPC   C2B69272  29.945  39.001   6.753
10482POPC   C3B69273  29.956  39.029   7.053
10482POPC   C4B69274  29.974  38.999   7.353
10483POPC   NC369275  18.269  41.544   5.553
10483POPC   PO469276  18.266  41.582   5.853
10483POPC   GL169277  18.261  41.597   6.153
10483POPC   GL269278  18.299  41.468   6.153
10483POPC   C1A69279  18.280  41.607   6.453
10483POPC   D2A69280  18.301  41.541   6.753
10483POPC   C3A69281  18.293  41.529   7.053
10483POPC   C4A69282  18.311  41.576   7.353
10483POPC   C1B69283  18.292  41.286   6.453
10483POPC   C2B69284  18.267  41.287   6.753
10483POPC   C3B69285  18.233  41.326   7.053
10483POPC   C4B69286  18.272  41.343   7.353
10484POPC   NC369287  44.652  39.187   5.553
10484POPC   PO469288  44.630  39.279   5.853
10484POPC   GL169289  44.662  39.221   6.153
10484POPC   GL269290  44.706  39.135   6.153
10484POPC   C1A69291  44.683  39.240   6.453
10484POPC   D2A69292  44.665  39.241   6.753
10484POPC   C3A69293  44.706  39.236   7.053
10484POPC   C4A69294  44.673  39.223   7.353
10484POPC   C1B69295  44.644  38.959   6.453
10484POPC   C2B69296  44.700  38.939   6.753
10484POPC   C3B69297  44.624  38.944   7.053
10484POPC   C4B69298  44.667  38.996   7.353
10485POPC   NC369299   3.511  26.808   5.553
10485POPC   PO469300   3.512  26.825   5.853
10485POPC   GL169301   3.555  26.830   6.153
10485POPC   GL269302   3.437  26.735   6.153
10485POPC   C1A69303   3.577  26.855   6.453
10485POPC   D2A69304   3.503  26.812   6.753
10485POPC   C3A69305   3.532  26.770   7.053
10485POPC   C4A69306   3.571  26.855   7.353
10485POPC   C1B69307   3.299  26.767   6.453
10485POPC   C2B69308   3.275  26.735   6.753
10485POPC   C3B69309   3.312  26.675   7.053
10485POPC   C4B69310   3.263  26.687   7.353
10486POPC   NC369311  19.098   5.128   5.553
10486POPC   PO469312  19.072   5.049   5.853
10486POPC   GL169313  19.022   5.074   6.153
10486POPC   GL269314  18.927   5.153   6.153
10486POPC   C1A69315  19.081   5.140   6.453
10486POPC   D2A69316  19.043   5.126   6.753
10486POPC   C3A69317  19.049   5.110   7.053
10486POPC   C4A69318  19.035   5.069   7.353
10486POPC   C1B69319  18.937   5.248   6.453
10486POPC   C2B69320  18.881   5.240   6.753
10486POPC   C3B69321  18.913   5.303   7.053
10486POPC   C4B69322  18.912   5.304   7.353
10487POPC   NC369323  13.675  10.550   5.553
10487POPC   PO469324  13.650  10.500   5.853
10487POPC   GL169325  13.658  10.525   6.153
10487POPC   GL269326  13.506  10.462   6.153
10487POPC   C1A69327  13.580  10.498   6.453
10487POPC   D2A69328  13.610  10.490   6.753
10487POPC   C3A69329  13.626  10.503   7.053
10487POPC   C4A69330  13.603  10.526   7.353
10487POPC   C1B69331  13.384  10.417   6.453
10487POPC   C2B69332  13.389  10.406   6.753
10487POPC   C3B69333  13.387  10.432   7.053
10487POPC   C4B69334  13.412  10.352   7.353
10488POPC   NC369335   5.048  28.395   5.553
10488POPC   PO469336   5.074  28.325   5.853
10488POPC   GL169337   5.111  28.350   6.153
10488POPC   GL269338   5.246  28.304   6.153
10488POPC   C1A69339   5.070  28.350   6.453
10488POPC   D2A69340   5.094  28.355   6.753
10488POPC   C3A69341   5.116  28.353   7.053
10488POPC   C4A69342   5.125  28.338   7.353
10488POPC   C1B69343   5.328  28.292   6.453
10488POPC   C2B69344   5.329  28.209   6.753
10488POPC   C3B69345   5.275  28.277   7.053
10488POPC   C4B69346   5.326  28.219   7.353
10489POPC   NC369347  15.162  32.231   5.553
10489POPC   PO469348  15.196  32.224   5.853
10489POPC   GL169349  15.222  32.217   6.153
10489POPC   GL269350  15.181  32.384   6.153
10489POPC   C1A69351  15.194  32.230   6.453
10489POPC   D2A69352  15.169  32.223   6.753
10489POPC   C3A69353  15.221  32.218   7.053
10489POPC   C4A69354  15.134  32.271   7.353
10489POPC   C1B69355  15.099  32.531   6.453
10489POPC   C2B69356  15.117  32.470   6.753
10489POPC   C3B69357  15.083  32.480   7.053
10489POPC   C4B69358  15.094  32.440   7.353
10490POPC   NC369359  27.611  38.486   5.553
10490POPC   PO469360  27.563  38.479   5.853
10490POPC   GL169361  27.567  38.438   6.153
10490POPC   GL269362  27.601  38.566   6.153
10490POPC   C1A69363  27.636  38.442   6.453
10490POPC   D2A69364  27.590  38.453   6.753
10490POPC   C3A69365  27.616  38.425   7.053
10490POPC   C4A69366  27.560  38.457   7.353
10490POPC   C1B69367  27.598  38.682   6.453
10490POPC   C2B69368  27.606  38.660   6.753
10490POPC   C3B69369  27.634  38.708   7.053
10490POPC   C4B69370  27.673  38.713   7.353
10491POPC   NC369371  33.755  33.043   5.553
10491POPC   PO469372  33.776  33.072   5.853
10491POPC   GL169373  33.849  33.000   6.153
10491POPC   GL269374  33.836  33.106   6.153
10491POPC   C1A69375  33.802  33.034   6.453
10491POPC   D2A69376  33.810  32.997   6.753
10491POPC   C3A69377  33.811  33.016   7.053
10491POPC   C4A69378  33.784  32.990   7.353
10491POPC   C1B69379  33.875  33.288   6.453
10491POPC   C2B69380  33.872  33.211   6.753
10491POPC   C3B69381  33.915  33.225   7.053
10491POPC   C4B69382  33.838  33.219   7.353
10492POPC   NC369383  16.758  28.359   5.553
10492POPC   PO469384  16.752  28.346   5.853
10492POPC   GL169385  16.750  28.348   6.153
10492POPC   GL269386  16.698  28.525   6.153
10492POPC   C1A69387  16.712  28.400   6.453
10492POPC   D2A69388  16.685  28.348   6.753
10492POPC   C3A69389  16.736  28.349   7.053
10492POPC   C4A69390  16.734  28.376   7.353
10492POPC   C1B69391  16.733  28.594   6.453
10492POPC   C2B69392  16.770  28.574   6.753
10492POPC   C3B69393  16.701  28.646   7.053
10492POPC   C4B69394  16.746  28.655   7.353
10493POPC   NC369395  36.858   8.957   5.553
10493POPC   PO469396  36.928   8.931   5.853
10493POPC   GL169397  36.907   8.959   6.153
10493POPC   GL269398  36.989   9.031   6.153
10493POPC   C1A69399  36.880   8.994   6.453
10493POPC   D2A69400  36.885   8.994   6.753
10493POPC   C3A69401  36.906   8.928   7.053
10493POPC   C4A69402  36.910   8.945   7.353
10493POPC   C1B69403  37.151   9.119   6.453
10493POPC   C2B69404  37.168   9.137   6.753
10493POPC   C3B69405  37.157   9.125   7.053
10493POPC   C4B69406  37.111   9.136   7.353
10494POPC   NC369407  31.495  36.129   5.553
10494POPC   PO469408  31.518  36.120   5.853
10494POPC   GL169409  31.490  36.176   6.153
10494POPC   GL269410  31.483  36.233   6.153
10494POPC   C1A69411  31.435  36.144   6.453
10494POPC   D2A69412  31.482  36.109   6.753
10494POPC   C3A69413  31.427  36.170   7.053
10494POPC   C4A69414  31.457  36.106   7.353
10494POPC   C1B69415  31.491  36.407   6.453
10494POPC   C2B69416  31.478  36.392   6.753
10494POPC   C3B69417  31.451  36.421   7.053
10494POPC   C4B69418  31.458  36.329   7.353
10495POPC   NC369419  31.425  44.617   5.553
10495POPC   PO469420  31.464  44.630   5.853
10495POPC   GL169421  31.495  44.687   6.153
10495POPC   GL269422  31.310  44.671   6.153
10495POPC   C1A69423  31.454  44.691   6.453
10495POPC   D2A69424  31.472  44.642   6.753
10495POPC   C3A69425  31.456  44.679   7.053
10495POPC   C4A69426  31.519  44.622   7.353
10495POPC   C1B69427  31.212  44.565   6.453
10495POPC   C2B69428  31.211  44.637   6.753
10495POPC   C3B69429  31.260  44.603   7.053
10495POPC   C4B69430  31.268  44.560   7.353
10496POPC   NC369431  15.154   4.347   5.553
10496POPC   PO469432  15.152   4.289   5.853
10496POPC   GL169433  15.226   4.319   6.153
10496POPC   GL269434  15.007   4.297   6.153
10496POPC   C1A69435  15.129   4.349   6.453
10496POPC   D2A69436  15.208   4.346   6.753
10496POPC   C3A69437  15.223   4.279   7.053
10496POPC   C4A69438  15.204   4.284   7.353
10496POPC   C1B69439  14.919   4.403   6.453
10496POPC   C2B69440  14.928   4.327   6.753
10496POPC   C3B69441  14.977   4.385   7.053
10496POPC   C4B69442  14.885   4.397   7.353
10497POPC   NC369443  33.849  25.257   5.553
10497POPC   PO469444  33.759  25.274   5.853
10497POPC   GL169445  33.811  25.308   6.153
10497POPC   GL269446  33.887  25.193   6.153
10497POPC   C1A69447  33.839  25.292   6.453
10497POPC   D2A69448  33.803  25.270   6.753
10497POPC   C3A69449  33.769  25.259   7.053
10497POPC   C4A69450  33.819  25.251   7.353
10497POPC   C1B69451  34.018  25.185   6.453
10497POPC   C2B69452  34.074  25.171   6.753
10497POPC   C3B69453  34.039  25.186   7.053
10497POPC   C4B69454  34.011  25.234   7.353
10498POPC   NC369455  43.158   0.459   5.553
10498POPC   PO469456  43.136   0.442   5.853
10498POPC   GL169457  43.096   0.467   6.153
10498POPC   GL269458  43.205   0.449   6.153
10498POPC   C1A69459  43.158   0.435   6.453
10498POPC   D2A69460  43.133   0.462   6.753
10498POPC   C3A69461  43.125   0.482   7.053
10498POPC   C4A69462  43.119   0.469   7.353
10498POPC   C1B69463  43.325   0.449   6.453
10498POPC   C2B69464  43.382   0.449   6.753
10498POPC   C3B69465  43.378   0.387   7.053
10498POPC   C4B69466  43.391   0.434   7.353
10499POPC   NC369467  22.133  33.847   5.553
10499POPC   PO469468  22.136  33.780   5.853
10499POPC   GL169469  22.179  33.767   6.153
10499POPC   GL269470  22.233  33.672   6.153
10499POPC   C1A69471  22.182  33.827   6.453
10499POPC   D2A69472  22.187  33.754   6.753
10499POPC   C3A69473  22.205  33.804   7.053
10499POPC   C4A69474  22.158  33.841   7.353
10499POPC   C1B69475  22.259  33.551   6.453
10499POPC   C2B69476  22.291  33.561   6.753
10499POPC   C3B69477  22.252  33.602   7.053
10499POPC   C4B69478  22.260  33.550   7.353
10500POPC   NC369479  44.625  40.014   5.553
10500POPC   PO469480  44.635  40.037   5.853
10500POPC   GL169481  44.657  39.964   6.153
10500POPC   GL269482  44.690  39.935   6.153
10500POPC   C1A69483  44.638  40.024   6.453
10500POPC   D2A69484  44.614  39.983   6.753
10500POPC   C3A69485  44.704  39.993   7.053
10500POPC   C4A69486  44.633  40.050   7.353
10500POPC   C1B69487  44.764  39.755   6.453
10500POPC   C2B69488  44.779  39.780   6.753
10500POPC   C3B69489  44.727  39.788   7.053
10500POPC   C4B69490  44.706  39.801   7.353
10501POPC   NC369491   2.012  19.041   5.553
10501POPC   PO469492   1.943  19.032   5.853
10501POPC   GL169493   1.942  19.015   6.153
10501POPC   GL269494   1.974  19.216   6.153
10501POPC   C1A69495   1.978  19.048   6.453
10501POPC   D2A69496   1.974  19.069   6.753
10501POPC   C3A69497   1.990  19.091   7.053
10501POPC   C4A69498   2.004  19.012   7.353
10501POPC   C1B69499   2.013  19.266   6.453
10501POPC   C2B69500   1.968  19.315   6.753
10501POPC   C3B69501   2.013  19.318   7.053
10501POPC   C4B69502   1.951  19.297   7.353
10502POPC   NC369503  32.992  43.131   5.553
10502POPC   PO469504  32.980  43.083   5.853
10502POPC   GL169505  33.002  43.129   6.153
10502POPC   GL269506  32.886  43.201   6.153
10502POPC   C1A69507  32.994  43.127   6.453
10502POPC   D2A69508  33.030  43.123   6.753
10502POPC   C3A69509  33.004  43.107   7.053
10502POPC   C4A69510  33.065  43.101   7.353
10502POPC   C1B69511  32.799  43.266   6.453
10502POPC   C2B69512  32.783  43.207   6.753
10502POPC   C3B69513  32.784  43.238   7.053
10502POPC   C4B69514  32.849  43.198   7.353
10503POPC   NC369515  39.997   7.372   5.553
10503POPC   PO469516  39.976   7.400   5.853
10503POPC   GL169517  40.037   7.443   6.153
10503POPC   GL269518  40.124   7.515   6.153
10503POPC   C1A69519  40.003   7.449   6.453
10503POPC   D2A69520  40.016   7.455   6.753
10503POPC   C3A69521  40.010   7.429   7.053
10503POPC   C4A69522  40.028   7.389   7.353
10503POPC   C1B69523  40.166   7.560   6.453
10503POPC   C2B69524  40.174   7.531   6.753
10503POPC   C3B69525  40.240   7.561   7.053
10503POPC   C4B69526  40.187   7.529   7.353
10504POPC   NC369527  21.383  32.206   5.553
10504POPC   PO469528  21.366  32.216   5.853
10504POPC   GL169529  21.424  32.292   6.153
10504POPC   GL269530  21.387  32.343   6.153
10504POPC   C1A69531  21.432  32.263   6.453
10504POPC   D2A69532  21.357  32.215   6.753
10504POPC   C3A69533  21.350  32.229   7.053
10504POPC   C4A69534  21.387  32.275   7.353
10504POPC   C1B69535  21.276  32.457   6.453
10504POPC   C2B69536  21.339  32.461   6.753
10504POPC   C3B69537  21.274  32.443   7.053
10504POPC   C4B69538  21.343  32.435   7.353
10505POPC   NC369539  29.881  29.920   5.553
10505POPC   PO469540  29.879  29.902   5.853
10505POPC   GL169541  29.919  29.936   6.153
10505POPC   GL269542  30.070  29.888   6.153
10505POPC   C1A69543  29.946  29.933   6.453
10505POPC   D2A69544  29.894  29.935   6.753
10505POPC   C3A69545  29.873  29.962   7.053
10505POPC   C4A69546  29.967  29.940   7.353
10505POPC   C1B69547  30.184  29.885   6.453
10505POPC   C2B69548  30.197  29.895   6.753
10505POPC   C3B69549  30.124  29.903   7.053
10505POPC   C4B69550  30.136  29.938   7.353
10506POPC   NC369551  20.637  29.952   5.553
10506POPC   PO469552  20.587  29.878   5.853
10506POPC   GL169553  20.647  29.939   6.153
10506POPC   GL269554  20.605  30.022   6.153
10506POPC   C1A69555  20.606  29.959   6.453
10506POPC   D2A69556  20.573  29.889   6.753
10506POPC   C3A69557  20.571  29.935   7.053
10506POPC   C4A69558  20.600  29.875   7.353
10506POPC   C1B69559  20.549  30.160   6.453
10506POPC   C2B69560  20.594  30.128   6.753
10506POPC   C3B69561  20.554  30.160   7.053
10506POPC   C4B69562  20.590  30.188   7.353
10507POPC   NC369563  30.688  32.277   5.553
10507POPC   PO469564  30.667  32.287   5.853
10507POPC   GL169565  30.664  32.289   6.153
10507POPC   GL269566  30.663  32.105   6.153
10507POPC   C1A69567  30.693  32.220   6.453
10507POPC   D2A69568  30.700  32.264   6.753
10507POPC   C3A69569  30.665  32.225   7.053
10507POPC   C4A69570  30.737  32.260   7.353
10507POPC   C1B69571  30.542  32.005   6.453
10507POPC   C2B69572  30.552  32.051   6.753
10507POPC   C3B69573  30.545  32.045   7.053
10507POPC   C4B69574  30.588  32.066   7.353
10508POPC   NC369575  33.847  26.007   5.553
10508POPC   PO469576  33.842  26.042   5.853
10508POPC   GL169577  33.766  26.054   6.153
10508POPC   GL269578  33.683  25.984   6.153
10508POPC   C1A69579  33.795  26.019   6.453
10508POPC   D2A69580  33.788  26.001   6.753
10508POPC   C3A69581  33.820  26.001   7.053
10508POPC   C4A69582  33.829  26.009   7.353
10508POPC   C1B69583  33.590  25.978   6.453
10508POPC   C2B69584  33.566  25.978   6.753
10508POPC   C3B69585  33.569  26.000   7.053
10508POPC   C4B69586  33.601  25.938   7.353
10509POPC   NC369587  40.808  26.075   5.553
10509POPC   PO469588  40.760  26.075   5.853
10509POPC   GL169589  40.816  26.069   6.153
10509POPC   GL269590  40.698  25.970   6.153
10509POPC   C1A69591  40.826  26.014   6.453
10509POPC   D2A69592  40.812  26.004   6.753
10509POPC   C3A69593  40.797  26.053   7.053
10509POPC   C4A69594  40.737  26.008   7.353
10509POPC   C1B69595  40.660  25.871   6.453
10509POPC   C2B69596  40.572  25.851   6.753
10509POPC   C3B69597  40.619  25.900   7.053
10509POPC   C4B69598  40.663  25.878   7.353
10510POPC   NC369599  14.434  31.439   5.553
10510POPC   PO469600  14.438  31.480   5.853
10510POPC   GL169601  14.430  31.423   6.153
10510POPC   GL269602  14.416  31.559   6.153
10510POPC   C1A69603  14.428  31.478   6.453
10510POPC   D2A69604  14.403  31.445   6.753
10510POPC   C3A69605  14.408  31.434   7.053
10510POPC   C4A69606  14.390  31.456   7.353
10510POPC   C1B69607  14.328  31.728   6.453
10510POPC   C2B69608  14.320  31.710   6.753
10510POPC   C3B69609  14.389  31.736   7.053
10510POPC   C4B69610  14.362  31.693   7.353
10511POPC   NC369611  35.363  15.977   5.553
10511POPC   PO469612  35.328  15.914   5.853
10511POPC   GL169613  35.342  15.982   6.153
10511POPC   GL269614  35.390  16.095   6.153
10511POPC   C1A69615  35.373  15.941   6.453
10511POPC   D2A69616  35.377  15.962   6.753
10511POPC   C3A69617  35.326  15.947   7.053
10511POPC   C4A69618  35.370  15.922   7.353
10511POPC   C1B69619  35.417  16.233   6.453
10511POPC   C2B69620  35.432  16.153   6.753
10511POPC   C3B69621  35.476  16.210   7.053
10511POPC   C4B69622  35.422  16.160   7.353
10512POPC   NC369623  39.256  35.390   5.553
10512POPC   PO469624  39.181  35.370   5.853
10512POPC   GL169625  39.201  35.312   6.153
10512POPC   GL269626  39.128  35.362   6.153
10512POPC   C1A69627  39.269  35.343   6.453
10512POPC   D2A69628  39.213  35.332   6.753
10512POPC   C3A69629  39.189  35.372   7.053
10512POPC   C4A69630  39.274  35.311   7.353
10512POPC   C1B69631  39.011  35.237   6.453
10512POPC   C2B69632  39.037  35.288   6.753
10512POPC   C3B69633  38.977  35.312   7.053
10512POPC   C4B69634  39.001  35.308   7.353
10513POPC   NC369635  35.309  32.258   5.553
10513POPC   PO469636  35.397  32.228   5.853
10513POPC   GL169637  35.334  32.264   6.153
10513POPC   GL269638  35.270  32.311   6.153
10513POPC   C1A69639  35.384  32.228   6.453
10513POPC   D2A69640  35.304  32.266   6.753
10513POPC   C3A69641  35.329  32.268   7.053
10513POPC   C4A69642  35.397  32.285   7.353
10513POPC   C1B69643  35.274  32.471   6.453
10513POPC   C2B69644  35.280  32.506   6.753
10513POPC   C3B69645  35.205  32.499   7.053
10513POPC   C4B69646  35.245  32.466   7.353
10514POPC   NC369647   8.931  38.489   5.553
10514POPC   PO469648   8.945  38.426   5.853
10514POPC   GL169649   8.923  38.407   6.153
10514POPC   GL269650   9.080  38.577   6.153
10514POPC   C1A69651   9.005  38.469   6.453
10514POPC   D2A69652   8.940  38.478   6.753
10514POPC   C3A69653   8.941  38.413   7.053
10514POPC   C4A69654   8.984  38.424   7.353
10514POPC   C1B69655   9.102  38.670   6.453
10514POPC   C2B69656   9.141  38.673   6.753
10514POPC   C3B69657   9.191  38.624   7.053
10514POPC   C4B69658   9.158  38.638   7.353
10515POPC   NC369659  38.432  41.598   5.553
10515POPC   PO469660  38.426  41.582   5.853
10515POPC   GL169661  38.479  41.587   6.153
10515POPC   GL269662  38.577  41.636   6.153
10515POPC   C1A69663  38.419  41.580   6.453
10515POPC   D2A69664  38.485  41.530   6.753
10515POPC   C3A69665  38.418  41.546   7.053
10515POPC   C4A69666  38.481  41.574   7.353
10515POPC   C1B69667  38.615  41.778   6.453
10515POPC   C2B69668  38.647  41.753   6.753
10515POPC   C3B69669  38.601  41.780   7.053
10515POPC   C4B69670  38.586  41.719   7.353
10516POPC   NC369671   1.176  39.957   5.553
10516POPC   PO469672   1.233  39.960   5.853
10516POPC   GL169673   1.220  40.026   6.153
10516POPC   GL269674   1.165  40.179   6.153
10516POPC   C1A69675   1.239  40.012   6.453
10516POPC   D2A69676   1.216  40.034   6.753
10516POPC   C3A69677   1.232  39.990   7.053
10516POPC   C4A69678   1.193  40.041   7.353
10516POPC   C1B69679   1.162  40.296   6.453
10516POPC   C2B69680   1.189  40.254   6.753
10516POPC   C3B69681   1.176  40.299   7.053
10516POPC   C4B69682   1.182  40.212   7.353
10517POPC   NC369683  12.843  17.523   5.553
10517POPC   PO469684  12.811  17.471   5.853
10517POPC   GL169685  12.855  17.493   6.153
10517POPC   GL269686  12.857  17.583   6.153
10517POPC   C1A69687  12.838  17.486   6.453
10517POPC   D2A69688  12.820  17.458   6.753
10517POPC   C3A69689  12.802  17.510   7.053
10517POPC   C4A69690  12.878  17.458   7.353
10517POPC   C1B69691  12.876  17.794   6.453
10517POPC   C2B69692  12.850  17.756   6.753
10517POPC   C3B69693  12.833  17.771   7.053
10517POPC   C4B69694  12.889  17.772   7.353
10518POPC   NC369695  29.881   3.564   5.553
10518POPC   PO469696  29.924   3.498   5.853
10518POPC   GL169697  29.900   3.500   6.153
10518POPC   GL269698  30.004   3.455   6.153
10518POPC   C1A69699  29.936   3.591   6.453
10518POPC   D2A69700  29.902   3.527   6.753
10518POPC   C3A69701  29.879   3.567   7.053
10518POPC   C4A69702  29.881   3.583   7.353
10518POPC   C1B69703  30.167   3.481   6.453
10518POPC   C2B69704  30.174   3.447   6.753
10518POPC   C3B69705  30.168   3.449   7.053
10518POPC   C4B69706  30.120   3.429   7.353
10519POPC   NC369707  16.730   3.516   5.553
10519POPC   PO469708  16.768   3.565   5.853
10519POPC   GL169709  16.770   3.494   6.153
10519POPC   GL269710  16.606   3.623   6.153
10519POPC   C1A69711  16.733   3.526   6.453
10519POPC   D2A69712  16.734   3.564   6.753
10519POPC   C3A69713  16.765   3.583   7.053
10519POPC   C4A69714  16.742   3.513   7.353
10519POPC   C1B69715  16.528   3.781   6.453
10519POPC   C2B69716  16.539   3.714   6.753
10519POPC   C3B69717  16.540   3.700   7.053
10519POPC   C4B69718  16.559   3.699   7.353
10520POPC   NC369719  33.047   8.990   5.553
10520POPC   PO469720  33.005   8.931   5.853
10520POPC   GL169721  33.019   8.943   6.153
10520POPC   GL269722  33.091   8.902   6.153
10520POPC   C1A69723  32.975   9.020   6.453
10520POPC   D2A69724  33.022   8.989   6.753
10520POPC   C3A69725  33.044   8.986   7.053
10520POPC   C4A69726  33.008   8.933   7.353
10520POPC   C1B69727  33.204   8.797   6.453
10520POPC   C2B69728  33.266   8.803   6.753
10520POPC   C3B69729  33.282   8.852   7.053
10520POPC   C4B69730  33.261   8.806   7.353
10521POPC   NC369731   5.063  40.828   5.553
10521POPC   PO469732   5.096  40.797   5.853
10521POPC   GL169733   5.045  40.767   6.153
10521POPC   GL269734   5.035  40.839   6.153
10521POPC   C1A69735   5.107  40.735   6.453
10521POPC   D2A69736   5.072  40.828   6.753
10521POPC   C3A69737   5.056  40.822   7.053
10521POPC   C4A69738   5.096  40.802   7.353
10521POPC   C1B69739   5.006  40.985   6.453
10521POPC   C2B69740   4.913  40.967   6.753
10521POPC   C3B69741   4.995  41.029   7.053
10521POPC   C4B69742   4.976  41.006   7.353
10522POPC   NC369743  22.938  33.048   5.553
10522POPC   PO469744  22.923  33.070   5.853
10522POPC   GL169745  22.985  32.984   6.153
10522POPC   GL269746  22.871  32.857   6.153
10522POPC   C1A69747  22.948  33.023   6.453
10522POPC   D2A69748  22.904  33.042   6.753
10522POPC   C3A69749  22.953  33.039   7.053
10522POPC   C4A69750  22.962  33.024   7.353
10522POPC   C1B69751  22.886  32.820   6.453
10522POPC   C2B69752  22.917  32.776   6.753
10522POPC   C3B69753  22.834  32.793   7.053
10522POPC   C4B69754  22.915  32.775   7.353
10523POPC   NC369755   2.796  18.272   5.553
10523POPC   PO469756   2.810  18.280   5.853
10523POPC   GL169757   2.766  18.313   6.153
10523POPC   GL269758   2.647  18.205   6.153
10523POPC   C1A69759   2.751  18.280   6.453
10523POPC   D2A69760   2.786  18.297   6.753
10523POPC   C3A69761   2.727  18.318   7.053
10523POPC   C4A69762   2.737  18.299   7.353
10523POPC   C1B69763   2.553  18.140   6.453
10523POPC   C2B69764   2.575  18.146   6.753
10523POPC   C3B69765   2.532  18.146   7.053
10523POPC   C4B69766   2.540  18.146   7.353
10524POPC   NC369767  28.409   1.169   5.553
10524POPC   PO469768  28.334   1.182   5.853
10524POPC   GL169769  28.401   1.201   6.153
10524POPC   GL269770  28.416   1.304   6.153
10524POPC   C1A69771  28.351   1.251   6.453
10524POPC   D2A69772  28.325   1.182   6.753
10524POPC   C3A69773  28.346   1.250   7.053
10524POPC   C4A69774  28.385   1.217   7.353
10524POPC   C1B69775  28.397   1.462   6.453
10524POPC   C2B69776  28.429   1.491   6.753
10524POPC   C3B69777  28.434   1.497   7.053
10524POPC   C4B69778  28.471   1.440   7.353
10525POPC   NC369779  40.783  23.738   5.553
10525POPC   PO469780  40.764  23.719   5.853
10525POPC   GL169781  40.808  23.735   6.153
10525POPC   GL269782  40.741  23.556   6.153
10525POPC   C1A69783  40.802  23.708   6.453
10525POPC   D2A69784  40.783  23.684   6.753
10525POPC   C3A69785  40.749  23.747   7.053
10525POPC   C4A69786  40.744  23.724   7.353
10525POPC   C1B69787  40.723  23.489   6.453
10525POPC   C2B69788  40.748  23.445   6.753
10525POPC   C3B69789  40.723  23.419   7.053
10525POPC   C4B69790  40.746  23.479   7.353
10526POPC   NC369791  31.453  12.898   5.553
10526POPC   PO469792  31.517  12.807   5.853
10526POPC   GL169793  31.471  12.888   6.153
10526POPC   GL269794  31.541  12.975   6.153
10526POPC   C1A69795  31.424  12.877   6.453
10526POPC   D2A69796  31.427  12.879   6.753
10526POPC   C3A69797  31.475  12.825   7.053
10526POPC   C4A69798  31.476  12.859   7.353
10526POPC   C1B69799  31.547  13.105   6.453
10526POPC   C2B69800  31.536  13.106   6.753
10526POPC   C3B69801  31.507  13.128   7.053
10526POPC   C4B69802  31.489  13.059   7.353
10527POPC   NC369803  31.442  37.705   5.553
10527POPC   PO469804  31.504  37.641   5.853
10527POPC   GL169805  31.515  37.656   6.153
10527POPC   GL269806  31.445  37.593   6.153
10527POPC   C1A69807  31.508  37.709   6.453
10527POPC   D2A69808  31.481  37.715   6.753
10527POPC   C3A69809  31.494  37.727   7.053
10527POPC   C4A69810  31.465  37.634   7.353
10527POPC   C1B69811  31.549  37.415   6.453
10527POPC   C2B69812  31.543  37.417   6.753
10527POPC   C3B69813  31.535  37.434   7.053
10527POPC   C4B69814  31.555  37.446   7.353
10528POPC   NC369815  30.676  39.209   5.553
10528POPC   PO469816  30.686  39.211   5.853
10528POPC   GL169817  30.693  39.195   6.153
10528POPC   GL269818  30.596  39.118   6.153
10528POPC   C1A69819  30.736  39.216   6.453
10528POPC   D2A69820  30.694  39.228   6.753
10528POPC   C3A69821  30.666  39.245   7.053
10528POPC   C4A69822  30.722  39.242   7.353
10528POPC   C1B69823  30.492  39.104   6.453
10528POPC   C2B69824  30.485  39.055   6.753
10528POPC   C3B69825  30.546  39.016   7.053
10528POPC   C4B69826  30.529  39.105   7.353
10529POPC   NC369827   6.622  40.791   5.553
10529POPC   PO469828   6.670  40.831   5.853
10529POPC   GL169829   6.690  40.756   6.153
10529POPC   GL269830   6.696  40.858   6.153
10529POPC   C1A69831   6.634  40.784   6.453
10529POPC   D2A69832   6.619  40.807   6.753
10529POPC   C3A69833   6.650  40.751   7.053
10529POPC   C4A69834   6.655  40.742   7.353
10529POPC   C1B69835   6.697  41.070   6.453
10529POPC   C2B69836   6.672  41.035   6.753
10529POPC   C3B69837   6.683  40.975   7.053
10529POPC   C4B69838   6.714  40.980   7.353
10530POPC   NC369839   1.958  22.115   5.553
10530POPC   PO469840   1.977  22.118   5.853
10530POPC   GL169841   2.011  22.168   6.153
10530POPC   GL269842   1.889  22.067   6.153
10530POPC   C1A69843   2.010  22.126   6.453
10530POPC   D2A69844   2.027  22.157   6.753
10530POPC   C3A69845   2.017  22.194   7.053
10530POPC   C4A69846   1.950  22.196   7.353
10530POPC   C1B69847   1.815  21.997   6.453
10530POPC   C2B69848   1.774  21.999   6.753
10530POPC   C3B69849   1.800  21.973   7.053
10530POPC   C4B69850   1.847  22.021   7.353
10531POPC   NC369851  11.256  38.417   5.553
10531POPC   PO469852  11.315  38.481   5.853
10531POPC   GL169853  11.266  38.442   6.153
10531POPC   GL269854  11.331  38.564   6.153
10531POPC   C1A69855  11.318  38.409   6.453
10531POPC   D2A69856  11.260  38.440   6.753
10531POPC   C3A69857  11.260  38.499   7.053
10531POPC   C4A69858  11.310  38.426   7.353
10531POPC   C1B69859  11.289  38.695   6.453
10531POPC   C2B69860  11.303  38.718   6.753
10531POPC   C3B69861  11.324  38.732   7.053
10531POPC   C4B69862  11.276  38.660   7.353
10532POPC   NC369863   1.217  28.360   5.553
10532POPC   PO469864   1.192  28.377   5.853
10532POPC   GL169865   1.200  28.398   6.153
10532POPC   GL269866   1.120  28.420   6.153
10532POPC   C1A69867   1.264  28.326   6.453
10532POPC   D2A69868   1.202  28.409   6.753
10532POPC   C3A69869   1.187  28.404   7.053
10532POPC   C4A69870   1.260  28.415   7.353
10532POPC   C1B69871   1.004  28.432   6.453
10532POPC   C2B69872   0.984  28.464   6.753
10532POPC   C3B69873   0.964  28.495   7.053
10532POPC   C4B69874   0.987  28.523   7.353
10533POPC   NC369875   1.990  19.877   5.553
10533POPC   PO469876   1.997  19.833   5.853
10533POPC   GL169877   2.028  19.824   6.153
10533POPC   GL269878   1.855  19.703   6.153
10533POPC   C1A69879   2.000  19.840   6.453
10533POPC   D2A69880   2.039  19.797   6.753
10533POPC   C3A69881   2.022  19.861   7.053
10533POPC   C4A69882   1.981  19.859   7.353
10533POPC   C1B69883   1.791  19.700   6.453
10533POPC   C2B69884   1.799  19.667   6.753
10533POPC   C3B69885   1.811  19.691   7.053
10533POPC   C4B69886   1.818  19.638   7.353
10534POPC   NC369887  19.024  17.458   5.553
10534POPC   PO469888  19.097  17.507   5.853
10534POPC   GL169889  19.068  17.552   6.153
10534POPC   GL269890  19.170  17.599   6.153
10534POPC   C1A69891  19.093  17.491   6.453
10534POPC   D2A69892  19.104  17.547   6.753
10534POPC   C3A69893  19.043  17.539   7.053
10534POPC   C4A69894  19.055  17.546   7.353
10534POPC   C1B69895  19.204  17.701   6.453
10534POPC   C2B69896  19.220  17.725   6.753
10534POPC   C3B69897  19.232  17.678   7.053
10534POPC   C4B69898  19.236  17.751   7.353
10535POPC   NC369899   0.464  21.414   5.553
10535POPC   PO469900   0.478  21.430   5.853
10535POPC   GL169901   0.471  21.417   6.153
10535POPC   GL269902   0.537  21.422   6.153
10535POPC   C1A69903   0.440  21.410   6.453
10535POPC   D2A69904   0.403  21.379   6.753
10535POPC   C3A69905   0.488  21.378   7.053
10535POPC   C4A69906   0.450  21.432   7.353
10535POPC   C1B69907   0.643  21.378   6.453
10535POPC   C2B69908   0.667  21.398   6.753
10535POPC   C3B69909   0.699  21.440   7.053
10535POPC   C4B69910   0.682  21.434   7.353
10536POPC   NC369911   5.049   7.396   5.553
10536POPC   PO469912   5.136   7.466   5.853
10536POPC   GL169913   5.101   7.377   6.153
10536POPC   GL269914   4.959   7.333   6.153
10536POPC   C1A69915   5.047   7.426   6.453
10536POPC   D2A69916   5.116   7.465   6.753
10536POPC   C3A69917   5.114   7.387   7.053
10536POPC   C4A69918   5.134   7.409   7.353
10536POPC   C1B69919   4.882   7.319   6.453
10536POPC   C2B69920   4.832   7.356   6.753
10536POPC   C3B69921   4.843   7.314   7.053
10536POPC   C4B69922   4.880   7.306   7.353
10537POPC   NC369923  28.415  36.886   5.553
10537POPC   PO469924  28.386  36.860   5.853
10537POPC   GL169925  28.391  36.891   6.153
10537POPC   GL269926  28.439  36.834   6.153
10537POPC   C1A69927  28.370  36.869   6.453
10537POPC   D2A69928  28.351  36.952   6.753
10537POPC   C3A69929  28.374  36.877   7.053
10537POPC   C4A69930  28.356  36.863   7.353
10537POPC   C1B69931  28.448  36.631   6.453
10537POPC   C2B69932  28.438  36.672   6.753
10537POPC   C3B69933  28.489  36.640   7.053
10537POPC   C4B69934  28.513  36.717   7.353
10538POPC   NC369935  34.547   8.243   5.553
10538POPC   PO469936  34.536   8.199   5.853
10538POPC   GL169937  34.572   8.195   6.153
10538POPC   GL269938  34.646   8.131   6.153
10538POPC   C1A69939  34.591   8.202   6.453
10538POPC   D2A69940  34.623   8.162   6.753
10538POPC   C3A69941  34.576   8.180   7.053
10538POPC   C4A69942  34.605   8.157   7.353
10538POPC   C1B69943  34.754   8.022   6.453
10538POPC   C2B69944  34.779   8.089   6.753
10538POPC   C3B69945  34.788   8.048   7.053
10538POPC   C4B69946  34.725   8.007   7.353
10539POPC   NC369947   5.839  19.030   5.553
10539POPC   PO469948   5.856  19.088   5.853
10539POPC   GL169949   5.825  19.050   6.153
10539POPC   GL269950   5.815  19.005   6.153
10539POPC   C1A69951   5.913  19.023   6.453
10539POPC   D2A69952   5.860  19.041   6.753
10539POPC   C3A69953   5.911  19.070   7.053
10539POPC   C4A69954   5.896  19.065   7.353
10539POPC   C1B69955   5.701  18.915   6.453
10539POPC   C2B69956   5.661  18.882   6.753
10539POPC   C3B69957   5.676  18.921   7.053
10539POPC   C4B69958   5.709  18.877   7.353
10540POPC   NC369959   8.934   9.762   5.553
10540POPC   PO469960   8.948   9.732   5.853
10540POPC   GL169961   8.996   9.754   6.153
10540POPC   GL269962   8.851   9.677   6.153
10540POPC   C1A69963   8.994   9.705   6.453
10540POPC   D2A69964   8.998   9.748   6.753
10540POPC   C3A69965   8.962   9.778   7.053
10540POPC   C4A69966   8.993   9.786   7.353
10540POPC   C1B69967   8.783   9.562   6.453
10540POPC   C2B69968   8.859   9.502   6.753
10540POPC   C3B69969   8.829   9.523   7.053
10540POPC   C4B69970   8.853   9.556   7.353
10541POPC   NC369971  10.535  16.732   5.553
10541POPC   PO469972  10.479  16.718   5.853
10541POPC   GL169973  10.488  16.694   6.153
10541POPC   GL269974  10.515  16.599   6.153
10541POPC   C1A69975  10.519  16.760   6.453
10541POPC   D2A69976  10.567  16.735   6.753
10541POPC   C3A69977  10.485  16.775   7.053
10541POPC   C4A69978  10.573  16.703   7.353
10541POPC   C1B69979  10.549  16.482   6.453
10541POPC   C2B69980  10.498  16.451   6.753
10541POPC   C3B69981  10.503  16.497   7.053
10541POPC   C4B69982  10.508  16.498   7.353
10542POPC   NC369983  37.718  34.618   5.553
10542POPC   PO469984  37.679  34.577   5.853
10542POPC   GL169985  37.715  34.547   6.153
10542POPC   GL269986  37.632  34.724   6.153
10542POPC   C1A69987  37.675  34.595   6.453
10542POPC   D2A69988  37.729  34.547   6.753
10542POPC   C3A69989  37.646  34.583   7.053
10542POPC   C4A69990  37.709  34.621   7.353
10542POPC   C1B69991  37.596  34.859   6.453
10542POPC   C2B69992  37.635  34.841   6.753
10542POPC   C3B69993  37.588  34.824   7.053
10542POPC   C4B69994  37.647  34.792   7.353
10543POPC   NC369995   1.988   9.757   5.553
10543POPC   PO469996   1.997   9.718   5.853
10543POPC   GL169997   2.015   9.782   6.153
10543POPC   GL269998   2.047   9.862   6.153
10543POPC   C1A69999   1.957   9.784   6.453
10543POPC   D2A70000   1.943   9.776   6.753
10543POPC   C3A70001   1.979   9.732   7.053
10543POPC   C4A70002   2.034   9.758   7.353
10543POPC   C1B70003   2.151   9.935   6.453
10543POPC   C2B70004   2.178   9.886   6.753
10543POPC   C3B70005   2.156   9.869   7.053
10543POPC   C4B70006   2.225   9.887   7.353
10544POPC   NC370007  12.812  27.592   5.553
10544POPC   PO470008  12.854  27.616   5.853
10544POPC   GL170009  12.883  27.630   6.153
10544POPC   GL270010  12.877  27.698   6.153
10544POPC   C1A70011  12.865  27.570   6.453
10544POPC   D2A70012  12.887  27.607   6.753
10544POPC   C3A70013  12.897  27.546   7.053
10544POPC   C4A70014  12.824  27.587   7.353
10544POPC   C1B70015  12.887  27.858   6.453
10544POPC   C2B70016  12.872  27.799   6.753
10544POPC   C3B70017  12.863  27.848   7.053
10544POPC   C4B70018  12.828  27.820   7.353
10545POPC   NC370019  26.024  12.113   5.553
10545POPC   PO470020  26.029  12.041   5.853
10545POPC   GL170021  26.075  12.032   6.153
10545POPC   GL270022  25.966  11.987   6.153
10545POPC   C1A70023  26.050  12.061   6.453
10545POPC   D2A70024  26.056  12.111   6.753
10545POPC   C3A70025  26.043  12.122   7.053
10545POPC   C4A70026  26.031  12.073   7.353
10545POPC   C1B70027  25.807  11.970   6.453
10545POPC   C2B70028  25.843  11.947   6.753
10545POPC   C3B70029  25.859  11.974   7.053
10545POPC   C4B70030  25.822  12.007   7.353
10546POPC   NC370031  10.545  43.094   5.553
10546POPC   PO470032  10.519  43.082   5.853
10546POPC   GL170033  10.490  43.088   6.153
10546POPC   GL270034  10.577  43.186   6.153
10546POPC   C1A70035  10.560  43.117   6.453
10546POPC   D2A70036  10.484  43.126   6.753
10546POPC   C3A70037  10.509  43.146   7.053
10546POPC   C4A70038  10.486  43.123   7.353
10546POPC   C1B70039  10.759  43.316   6.453
10546POPC   C2B70040  10.721  43.301   6.753
10546POPC   C3B70041  10.700  43.257   7.053
10546POPC   C4B70042  10.695  43.317   7.353
10547POPC   NC370043   1.177  15.171   5.553
10547POPC   PO470044   1.167  15.200   5.853
10547POPC   GL170045   1.246  15.149   6.153
10547POPC   GL270046   1.264  15.104   6.153
10547POPC   C1A70047   1.258  15.177   6.453
10547POPC   D2A70048   1.237  15.162   6.753
10547POPC   C3A70049   1.182  15.190   7.053
10547POPC   C4A70050   1.221  15.209   7.353
10547POPC   C1B70051   1.375  14.994   6.453
10547POPC   C2B70052   1.368  14.947   6.753
10547POPC   C3B70053   1.284  14.909   7.053
10547POPC   C4B70054   1.313  14.927   7.353
10548POPC   NC370055  44.616  44.646   5.553
10548POPC   PO470056  44.614  44.636   5.853
10548POPC   GL170057  44.698  44.665   6.153
10548POPC   GL270058  44.792  44.609   6.153
10548POPC   C1A70059  44.651  44.655   6.453
10548POPC   D2A70060  44.681  44.682   6.753
10548POPC   C3A70061  44.695  44.618   7.053
10548POPC   C4A70062  44.634  44.669   7.353
10548POPC   C1B70063  44.808  44.502   6.453
10548POPC   C2B70064  44.851  44.461   6.753
10548POPC   C3B70065  44.838  44.480   7.053
10548POPC   C4B70066  44.822  44.455   7.353
10549POPC   NC370067  12.114  24.449   5.553
10549POPC   PO470068  12.091  24.485   5.853
10549POPC   GL170069  12.117  24.492   6.153
10549POPC   GL270070  12.105  24.610   6.153
10549POPC   C1A70071  12.037  24.458   6.453
10549POPC   D2A70072  12.107  24.534   6.753
10549POPC   C3A70073  12.080  24.530   7.053
10549POPC   C4A70074  12.088  24.468   7.353
10549POPC   C1B70075  12.126  24.703   6.453
10549POPC   C2B70076  12.069  24.716   6.753
10549POPC   C3B70077  12.159  24.771   7.053
10549POPC   C4B70078  12.137  24.740   7.353
10550POPC   NC370079   2.740  19.092   5.553
10550POPC   PO470080   2.760  19.031   5.853
10550POPC   GL170081   2.730  19.018   6.153
10550POPC   GL270082   2.788  18.916   6.153
10550POPC   C1A70083   2.753  19.025   6.453
10550POPC   D2A70084   2.765  19.088   6.753
10550POPC   C3A70085   2.718  19.033   7.053
10550POPC   C4A70086   2.760  19.036   7.353
10550POPC   C1B70087   2.904  18.806   6.453
10550POPC   C2B70088   2.918  18.811   6.753
10550POPC   C3B70089   2.907  18.865   7.053
10550POPC   C4B70090   2.888  18.858   7.353
10551POPC   NC370091  27.585  30.667   5.553
10551POPC   PO470092  27.586  30.664   5.853
10551POPC   GL170093  27.548  30.731   6.153
10551POPC   GL270094  27.725  30.656   6.153
10551POPC   C1A70095  27.591  30.723   6.453
10551POPC   D2A70096  27.593  30.691   6.753
10551POPC   C3A70097  27.615  30.691   7.053
10551POPC   C4A70098  27.598  30.711   7.353
10551POPC   C1B70099  27.745  30.566   6.453
10551POPC   C2B70100  27.726  30.486   6.753
10551POPC   C3B70101  27.808  30.552   7.053
10551POPC   C4B70102  27.784  30.489   7.353
10552POPC   NC370103   0.448  29.953   5.553
10552POPC   PO470104   0.429  29.964   5.853
10552POPC   GL170105   0.485  29.880   6.153
10552POPC   GL270106   0.479  29.812   6.153
10552POPC   C1A70107   0.420  29.874   6.453
10552POPC   D2A70108   0.451  29.950   6.753
10552POPC   C3A70109   0.450  29.915   7.053
10552POPC   C4A70110   0.480  29.910   7.353
10552POPC   C1B70111   0.554  29.774   6.453
10552POPC   C2B70112   0.561  29.778   6.753
10552POPC   C3B70113   0.556  29.766   7.053
10552POPC   C4B70114   0.647  29.711   7.353
10553POPC   NC370115  25.997  18.253   5.553
10553POPC   PO470116  26.014  18.251   5.853
10553POPC   GL170117  26.072  18.306   6.153
10553POPC   GL270118  25.944  18.220   6.153
10553POPC   C1A70119  26.041  18.308   6.453
10553POPC   D2A70120  26.083  18.257   6.753
10553POPC   C3A70121  26.063  18.317   7.053
10553POPC   C4A70122  26.040  18.300   7.353
10553POPC   C1B70123  25.770  18.273   6.453
10553POPC   C2B70124  25.841  18.217   6.753
10553POPC   C3B70125  25.809  18.273   7.053
10553POPC   C4B70126  25.817  18.275   7.353
10554POPC   NC370127  33.814   8.934   5.553
10554POPC   PO470128  33.808   8.991   5.853
10554POPC   GL170129  33.770   8.939   6.153
10554POPC   GL270130  33.845   9.103   6.153
10554POPC   C1A70131  33.806   8.973   6.453
10554POPC   D2A70132  33.772   8.954   6.753
10554POPC   C3A70133  33.790   8.981   7.053
10554POPC   C4A70134  33.784   8.995   7.353
10554POPC   C1B70135  33.916   9.202   6.453
10554POPC   C2B70136  33.919   9.193   6.753
10554POPC   C3B70137  33.904   9.182   7.053
10554POPC   C4B70138  33.862   9.238   7.353
10555POPC   NC370139  18.327  43.872   5.553
10555POPC   PO470140  18.266  43.919   5.853
10555POPC   GL170141  18.284  43.911   6.153
10555POPC   GL270142  18.282  43.969   6.153
10555POPC   C1A70143  18.249  43.856   6.453
10555POPC   D2A70144  18.326  43.879   6.753
10555POPC   C3A70145  18.281  43.902   7.053
10555POPC   C4A70146  18.287  43.872   7.353
10555POPC   C1B70147  18.365  44.094   6.453
10555POPC   C2B70148  18.298  44.164   6.753
10555POPC   C3B70149  18.372  44.152   7.053
10555POPC   C4B70150  18.315  44.155   7.353
10556POPC   NC370151  37.633  29.113   5.553
10556POPC   PO470152  37.678  29.192   5.853
10556POPC   GL170153  37.691  29.179   6.153
10556POPC   GL270154  37.521  29.111   6.153
10556POPC   C1A70155  37.690  29.156   6.453
10556POPC   D2A70156  37.665  29.152   6.753
10556POPC   C3A70157  37.725  29.124   7.053
10556POPC   C4A70158  37.667  29.141   7.353
10556POPC   C1B70159  37.415  29.093   6.453
10556POPC   C2B70160  37.413  29.121   6.753
10556POPC   C3B70161  37.406  29.060   7.053
10556POPC   C4B70162  37.433  29.097   7.353
10557POPC   NC370163  19.106  33.837   5.553
10557POPC   PO470164  19.078  33.774   5.853
10557POPC   GL170165  19.049  33.836   6.153
10557POPC   GL270166  19.189  33.784   6.153
10557POPC   C1A70167  19.048  33.761   6.453
10557POPC   D2A70168  19.085  33.793   6.753
10557POPC   C3A70169  19.081  33.776   7.053
10557POPC   C4A70170  19.085  33.799   7.353
10557POPC   C1B70171  19.244  33.755   6.453
10557POPC   C2B70172  19.251  33.708   6.753
10557POPC   C3B70173  19.286  33.690   7.053
10557POPC   C4B70174  19.292  33.685   7.353
10558POPC   NC370175  36.142  26.867   5.553
10558POPC   PO470176  36.121  26.807   5.853
10558POPC   GL170177  36.139  26.817   6.153
10558POPC   GL270178  36.059  26.680   6.153
10558POPC   C1A70179  36.139  26.837   6.453
10558POPC   D2A70180  36.160  26.836   6.753
10558POPC   C3A70181  36.143  26.851   7.053
10558POPC   C4A70182  36.096  26.839   7.353
10558POPC   C1B70183  36.057  26.643   6.453
10558POPC   C2B70184  36.025  26.612   6.753
10558POPC   C3B70185  36.038  26.606   7.053
10558POPC   C4B70186  36.043  26.635   7.353
10559POPC   NC370187  36.086  43.895   5.553
10559POPC   PO470188  36.130  43.855   5.853
10559POPC   GL170189  36.079  43.842   6.153
10559POPC   GL270190  36.110  43.994   6.153
10559POPC   C1A70191  36.094  43.844   6.453
10559POPC   D2A70192  36.137  43.925   6.753
10559POPC   C3A70193  36.117  43.903   7.053
10559POPC   C4A70194  36.141  43.863   7.353
10559POPC   C1B70195  36.030  44.096   6.453
10559POPC   C2B70196  36.047  44.165   6.753
10559POPC   C3B70197  36.082  44.086   7.053
10559POPC   C4B70198  36.005  44.163   7.353
10560POPC   NC370199  16.738  24.471   5.553
10560POPC   PO470200  16.771  24.468   5.853
10560POPC   GL170201  16.694  24.446   6.153
10560POPC   GL270202  16.832  24.638   6.153
10560POPC   C1A70203  16.733  24.498   6.453
10560POPC   D2A70204  16.757  24.459   6.753
10560POPC   C3A70205  16.748  24.494   7.053
10560POPC   C4A70206  16.726  24.509   7.353
10560POPC   C1B70207  16.908  24.690   6.453
10560POPC   C2B70208  16.868  24.732   6.753
10560POPC   C3B70209  16.837  24.709   7.053
10560POPC   C4B70210  16.838  24.676   7.353
10561POPC   NC370211  12.833  26.021   5.553
10561POPC   PO470212  12.890  26.038   5.853
10561POPC   GL170213  12.810  26.047   6.153
10561POPC   GL270214  12.984  26.059   6.153
10561POPC   C1A70215  12.803  26.044   6.453
10561POPC   D2A70216  12.821  26.025   6.753
10561POPC   C3A70217  12.865  26.003   7.053
10561POPC   C4A70218  12.816  26.002   7.353
10561POPC   C1B70219  13.086  26.110   6.453
10561POPC   C2B70220  13.125  26.070   6.753
10561POPC   C3B70221  13.088  26.116   7.053
10561POPC   C4B70222  13.144  26.112   7.353
10562POPC   NC370223   4.315   6.597   5.553
10562POPC   PO470224   4.281   6.611   5.853
10562POPC   GL170225   4.300   6.616   6.153
10562POPC   GL270226   4.389   6.725   6.153
10562POPC   C1A70227   4.318   6.657   6.453
10562POPC   D2A70228   4.337   6.605   6.753
10562POPC   C3A70229   4.318   6.633   7.053
10562POPC   C4A70230   4.339   6.611   7.353
10562POPC   C1B70231   4.419   6.874   6.453
10562POPC   C2B70232   4.497   6.862   6.753
10562POPC   C3B70233   4.427   6.844   7.053
10562POPC   C4B70234   4.504   6.889   7.353
10563POPC   NC370235   1.220  12.809   5.553
10563POPC   PO470236   1.180  12.841   5.853
10563POPC   GL170237   1.236  12.861   6.153
10563POPC   GL270238   1.110  12.922   6.153
10563POPC   C1A70239   1.259  12.892   6.453
10563POPC   D2A70240   1.254  12.872   6.753
10563POPC   C3A70241   1.206  12.863   7.053
10563POPC   C4A70242   1.224  12.828   7.353
10563POPC   C1B70243   0.938  12.871   6.453
10563POPC   C2B70244   0.991  12.864   6.753
10563POPC   C3B70245   0.994  12.890   7.053
10563POPC   C4B70246   0.949  12.887   7.353
10564POPC   NC370247  40.788   2.764   5.553
10564POPC   PO470248  40.808   2.767   5.853
10564POPC   GL170249  40.736   2.739   6.153
10564POPC   GL270250  40.641   2.703   6.153
10564POPC   C1A70251  40.736   2.754   6.453
10564POPC   D2A70252  40.806   2.782   6.753
10564POPC   C3A70253  40.744   2.731   7.053
10564POPC   C4A70254  40.811   2.750   7.353
10564POPC   C1B70255  40.527   2.765   6.453
10564POPC   C2B70256  40.577   2.668   6.753
10564POPC   C3B70257  40.512   2.762   7.053
10564POPC   C4B70258  40.579   2.703   7.353
10565POPC   NC370259   5.898   5.851   5.553
10565POPC   PO470260   5.859   5.851   5.853
10565POPC   GL170261   5.872   5.852   6.153
10565POPC   GL270262   5.771   5.798   6.153
10565POPC   C1A70263   5.832   5.855   6.453
10565POPC   D2A70264   5.858   5.875   6.753
10565POPC   C3A70265   5.895   5.881   7.053
10565POPC   C4A70266   5.847   5.880   7.353
10565POPC   C1B70267   5.612   5.759   6.453
10565POPC   C2B70268   5.697   5.757   6.753
10565POPC   C3B70269   5.707   5.748   7.053
10565POPC   C4B70270   5.664   5.709   7.353
10566POPC   NC370271   1.941   7.395   5.553
10566POPC   PO470272   2.008   7.467   5.853
10566POPC   GL170273   2.036   7.467   6.153
10566POPC   GL270274   1.859   7.427   6.153
10566POPC   C1A70275   2.013   7.419   6.453
10566POPC   D2A70276   1.963   7.407   6.753
10566POPC   C3A70277   2.014   7.407   7.053
10566POPC   C4A70278   2.023   7.406   7.353
10566POPC   C1B70279   1.764   7.412   6.453
10566POPC   C2B70280   1.695   7.435   6.753
10566POPC   C3B70281   1.741   7.405   7.053
10566POPC   C4B70282   1.690   7.409   7.353
10567POPC   NC370283   8.155  19.054   5.553
10567POPC   PO470284   8.181  19.057   5.853
10567POPC   GL170285   8.172  19.064   6.153
10567POPC   GL270286   8.172  19.172   6.153
10567POPC   C1A70287   8.230  19.040   6.453
10567POPC   D2A70288   8.158  19.014   6.753
10567POPC   C3A70289   8.204  19.057   7.053
10567POPC   C4A70290   8.167  19.090   7.353
10567POPC   C1B70291   8.131  19.274   6.453
10567POPC   C2B70292   8.221  19.341   6.753
10567POPC   C3B70293   8.137  19.336   7.053
10567POPC   C4B70294   8.209  19.288   7.353
10568POPC   NC370295   6.659   4.323   5.553
10568POPC   PO470296   6.642   4.361   5.853
10568POPC   GL170297   6.675   4.300   6.153
10568POPC   GL270298   6.779   4.299   6.153
10568POPC   C1A70299   6.622   4.301   6.453
10568POPC   D2A70300   6.646   4.323   6.753
10568POPC   C3A70301   6.675   4.322   7.053
10568POPC   C4A70302   6.625   4.291   7.353
10568POPC   C1B70303   6.836   4.198   6.453
10568POPC   C2B70304   6.893   4.165   6.753
10568POPC   C3B70305   6.808   4.148   7.053
10568POPC   C4B70306   6.904   4.157   7.353
10569POPC   NC370307  21.340   6.676   5.553
10569POPC   PO470308  21.408   6.654   5.853
10569POPC   GL170309  21.420   6.607   6.153
10569POPC   GL270310  21.460   6.639   6.153
10569POPC   C1A70311  21.379   6.639   6.453
10569POPC   D2A70312  21.347   6.617   6.753
10569POPC   C3A70313  21.351   6.639   7.053
10569POPC   C4A70314  21.369   6.616   7.353
10569POPC   C1B70315  21.637   6.732   6.453
10569POPC   C2B70316  21.592   6.675   6.753
10569POPC   C3B70317  21.653   6.725   7.053
10569POPC   C4B70318  21.622   6.661   7.353
10570POPC   NC370319  26.077   4.297   5.553
10570POPC   PO470320  26.055   4.290   5.853
10570POPC   GL170321  26.086   4.354   6.153
10570POPC   GL270322  26.106   4.170   6.153
10570POPC   C1A70323  26.027   4.282   6.453
10570POPC   D2A70324  26.032   4.287   6.753
10570POPC   C3A70325  26.002   4.339   7.053
10570POPC   C4A70326  26.069   4.297   7.353
10570POPC   C1B70327  26.229   4.108   6.453
10570POPC   C2B70328  26.215   4.110   6.753
10570POPC   C3B70329  26.162   4.161   7.053
10570POPC   C4B70330  26.172   4.147   7.353
10571POPC   NC370331  25.313   0.409   5.553
10571POPC   PO470332  25.252   0.409   5.853
10571POPC   GL170333  25.234   0.448   6.153
10571POPC   GL270334  25.293   0.506   6.153
10571POPC   C1A70335  25.282   0.448   6.453
10571POPC   D2A70336  25.297   0.475   6.753
10571POPC   C3A70337  25.235   0.450   7.053
10571POPC   C4A70338  25.222   0.446   7.353
10571POPC   C1B70339  25.359   0.679   6.453
10571POPC   C2B70340  25.437   0.657   6.753
10571POPC   C3B70341  25.355   0.634   7.053
10571POPC   C4B70342  25.424   0.616   7.353
10572POPC   NC370343  38.495   0.419   5.553
10572POPC   PO470344  38.498   0.402   5.853
10572POPC   GL170345  38.415   0.480   6.153
10572POPC   GL270346  38.523   0.574   6.153
10572POPC   C1A70347  38.496   0.466   6.453
10572POPC   D2A70348  38.425   0.423   6.753
10572POPC   C3A70349  38.453   0.468   7.053
10572POPC   C4A70350  38.461   0.474   7.353
10572POPC   C1B70351  38.537   0.697   6.453
10572POPC   C2B70352  38.580   0.630   6.753
10572POPC   C3B70353  38.489   0.674   7.053
10572POPC   C4B70354  38.568   0.723   7.353
10573POPC   NC370355  21.392  10.508   5.553
10573POPC   PO470356  21.401  10.502   5.853
10573POPC   GL170357  21.348  10.530   6.153
10573POPC   GL270358  21.424  10.382   6.153
10573POPC   C1A70359  21.341  10.553   6.453
10573POPC   D2A70360  21.387  10.497   6.753
10573POPC   C3A70361  21.428  10.549   7.053
10573POPC   C4A70362  21.412  10.513   7.353
10573POPC   C1B70363  21.469  10.265   6.453
10573POPC   C2B70364  21.445  10.319   6.753
10573POPC   C3B70365  21.471  10.245   7.053
10573POPC   C4B70366  21.469  10.324   7.353
10574POPC   NC370367   0.452  32.227   5.553
10574POPC   PO470368   0.435  32.230   5.853
10574POPC   GL170369   0.434  32.229   6.153
10574POPC   GL270370   0.297  32.318   6.153
10574POPC   C1A70371   0.484  32.257   6.453
10574POPC   D2A70372   0.423  32.243   6.753
10574POPC   C3A70373   0.483  32.247   7.053
10574POPC   C4A70374   0.473  32.225   7.353
10574POPC   C1B70375   0.227  32.392   6.453
10574POPC   C2B70376   0.219  32.351   6.753
10574POPC   C3B70377   0.211  32.403   7.053
10574POPC   C4B70378   0.241  32.333   7.353
10575POPC   NC370379  26.771   3.567   5.553
10575POPC   PO470380  26.779   3.581   5.853
10575POPC   GL170381  26.768   3.554   6.153
10575POPC   GL270382  26.924   3.457   6.153
10575POPC   C1A70383  26.809   3.543   6.453
10575POPC   D2A70384  26.824   3.526   6.753
10575POPC   C3A70385  26.820   3.497   7.053
10575POPC   C4A70386  26.770   3.500   7.353
10575POPC   C1B70387  26.898   3.328   6.453
10575POPC   C2B70388  26.948   3.316   6.753
10575POPC   C3B70389  26.904   3.348   7.053
10575POPC   C4B70390  26.919   3.319   7.353
10576POPC   NC370391  18.287  36.133   5.553
10576POPC   PO470392  18.278  36.089   5.853
10576POPC   GL170393  18.290  36.144   6.153
10576POPC   GL270394  18.418  36.105   6.153
10576POPC   C1A70395  18.283  36.160   6.453
10576POPC   D2A70396  18.313  36.174   6.753
10576POPC   C3A70397  18.242  36.100   7.053
10576POPC   C4A70398  18.272  36.156   7.353
10576POPC   C1B70399  18.575  36.070   6.453
10576POPC   C2B70400  18.528  36.072   6.753
10576POPC   C3B70401  18.559  36.085   7.053
10576POPC   C4B70402  18.532  36.042   7.353
10577POPC   NC370403  21.356  24.525   5.553
10577POPC   PO470404  21.360  24.460   5.853
10577POPC   GL170405  21.380  24.504   6.153
10577POPC   GL270406  21.318  24.328   6.153
10577POPC   C1A70407  21.337  24.487   6.453
10577POPC   D2A70408  21.341  24.533   6.753
10577POPC   C3A70409  21.374  24.496   7.053
10577POPC   C4A70410  21.424  24.472   7.353
10577POPC   C1B70411  21.321  24.230   6.453
10577POPC   C2B70412  21.374  24.231   6.753
10577POPC   C3B70413  21.307  24.229   7.053
10577POPC   C4B70414  21.352  24.273   7.353
10578POPC   NC370415   9.776  24.480   5.553
10578POPC   PO470416   9.702  24.512   5.853
10578POPC   GL170417   9.714  24.509   6.153
10578POPC   GL270418   9.760  24.403   6.153
10578POPC   C1A70419   9.779  24.524   6.453
10578POPC   D2A70420   9.749  24.444   6.753
10578POPC   C3A70421   9.748  24.461   7.053
10578POPC   C4A70422   9.741  24.488   7.353
10578POPC   C1B70423   9.786  24.272   6.453
10578POPC   C2B70424   9.819  24.215   6.753
10578POPC   C3B70425   9.825  24.255   7.053
10578POPC   C4B70426   9.790  24.241   7.353
10579POPC   NC370427  34.580  10.524   5.553
10579POPC   PO470428  34.577  10.540   5.853
10579POPC   GL170429  34.576  10.550   6.153
10579POPC   GL270430  34.667  10.666   6.153
10579POPC   C1A70431  34.589  10.548   6.453
10579POPC   D2A70432  34.574  10.546   6.753
10579POPC   C3A70433  34.563  10.476   7.053
10579POPC   C4A70434  34.608  10.513   7.353
10579POPC   C1B70435  34.693  10.770   6.453
10579POPC   C2B70436  34.751  10.759   6.753
10579POPC   C3B70437  34.715  10.739   7.053
10579POPC   C4B70438  34.676  10.762   7.353
10580POPC   NC370439   9.769  29.190   5.553
10580POPC   PO470440   9.701  29.115   5.853
10580POPC   GL170441   9.705  29.190   6.153
10580POPC   GL270442   9.666  29.251   6.153
10580POPC   C1A70443   9.772  29.102   6.453
10580POPC   D2A70444   9.711  29.186   6.753
10580POPC   C3A70445   9.758  29.113   7.053
10580POPC   C4A70446   9.717  29.121   7.353
10580POPC   C1B70447   9.534  29.259   6.453
10580POPC   C2B70448   9.481  29.301   6.753
10580POPC   C3B70449   9.519  29.234   7.053
10580POPC   C4B70450   9.579  29.261   7.353
10581POPC   NC370451  20.603   5.899   5.553
10581POPC   PO470452  20.616   5.888   5.853
10581POPC   GL170453  20.628   5.874   6.153
10581POPC   GL270454  20.524   5.860   6.153
10581POPC   C1A70455  20.615   5.847   6.453
10581POPC   D2A70456  20.611   5.824   6.753
10581POPC   C3A70457  20.581   5.895   7.053
10581POPC   C4A70458  20.609   5.821   7.353
10581POPC   C1B70459  20.341   5.826   6.453
10581POPC   C2B70460  20.345   5.819   6.753
10581POPC   C3B70461  20.371   5.838   7.053
10581POPC   C4B70462  20.377   5.833   7.353
10582POPC   NC370463  29.933  36.109   5.553
10582POPC   PO470464  29.947  36.080   5.853
10582POPC   GL170465  29.942  36.105   6.153
10582POPC   GL270466  29.777  36.118   6.153
10582POPC   C1A70467  29.933  36.078   6.453
10582POPC   D2A70468  29.951  36.078   6.753
10582POPC   C3A70469  29.929  36.095   7.053
10582POPC   C4A70470  29.928  36.083   7.353
10582POPC   C1B70471  29.653  36.188   6.453
10582POPC   C2B70472  29.717  36.194   6.753
10582POPC   C3B70473  29.648  36.178   7.053
10582POPC   C4B70474  29.714  36.252   7.353
10583POPC   NC370475   6.636  12.044   5.553
10583POPC   PO470476   6.622  12.071   5.853
10583POPC   GL170477   6.665  12.059   6.153
10583POPC   GL270478   6.662  11.942   6.153
10583POPC   C1A70479   6.675  12.084   6.453
10583POPC   D2A70480   6.651  12.056   6.753
10583POPC   C3A70481   6.685  12.108   7.053
10583POPC   C4A70482   6.605  12.044   7.353
10583POPC   C1B70483   6.578  11.836   6.453
10583POPC   C2B70484   6.659  11.826   6.753
10583POPC   C3B70485   6.597  11.784   7.053
10583POPC   C4B70486   6.572  11.809   7.353
10584POPC   NC370487  39.212  25.276   5.553
10584POPC   PO470488  39.272  25.267   5.853
10584POPC   GL170489  39.196  25.216   6.153
10584POPC   GL270490  39.191  25.137   6.153
10584POPC   C1A70491  39.238  25.313   6.453
10584POPC   D2A70492  39.205  25.307   6.753
10584POPC   C3A70493  39.210  25.263   7.053
10584POPC   C4A70494  39.273  25.308   7.353
10584POPC   C1B70495  39.119  25.032   6.453
10584POPC   C2B70496  39.112  25.028   6.753
10584POPC   C3B70497  39.086  25.103   7.053
10584POPC   C4B70498  39.114  25.087   7.353
10585POPC   NC370499  37.645  25.220   5.553
10585POPC   PO470500  37.663  25.224   5.853
10585POPC   GL170501  37.719  25.300   6.153
10585POPC   GL270502  37.574  25.337   6.153
10585POPC   C1A70503  37.706  25.288   6.453
10585POPC   D2A70504  37.670  25.239   6.753
10585POPC   C3A70505  37.662  25.272   7.053
10585POPC   C4A70506  37.638  25.232   7.353
10585POPC   C1B70507  37.589  25.458   6.453
10585POPC   C2B70508  37.527  25.458   6.753
10585POPC   C3B70509  37.590  25.500   7.053
10585POPC   C4B70510  37.604  25.469   7.353
10586POPC   NC370511  43.895  21.367   5.553
10586POPC   PO470512  43.886  21.361   5.853
10586POPC   GL170513  43.924  21.352   6.153
10586POPC   GL270514  43.752  21.318   6.153
10586POPC   C1A70515  43.918  21.410   6.453
10586POPC   D2A70516  43.903  21.383   6.753
10586POPC   C3A70517  43.894  21.361   7.053
10586POPC   C4A70518  43.884  21.391   7.353
10586POPC   C1B70519  43.706  21.203   6.453
10586POPC   C2B70520  43.639  21.214   6.753
10586POPC   C3B70521  43.684  21.215   7.053
10586POPC   C4B70522  43.665  21.208   7.353
10587POPC   NC370523  38.471  34.530   5.553
10587POPC   PO470524  38.421  34.616   5.853
10587POPC   GL170525  38.430  34.552   6.153
10587POPC   GL270526  38.531  34.634   6.153
10587POPC   C1A70527  38.481  34.614   6.453
10587POPC   D2A70528  38.455  34.596   6.753
10587POPC   C3A70529  38.414  34.601   7.053
10587POPC   C4A70530  38.406  34.619   7.353
10587POPC   C1B70531  38.603  34.778   6.453
10587POPC   C2B70532  38.657  34.756   6.753
10587POPC   C3B70533  38.691  34.783   7.053
10587POPC   C4B70534  38.683  34.756   7.353
10588POPC   NC370535  44.630  38.491   5.553
10588POPC   PO470536  44.677  38.469   5.853
10588POPC   GL170537  44.642  38.443   6.153
10588POPC   GL270538  44.696  38.526   6.153
10588POPC   C1A70539  44.670  38.457   6.453
10588POPC   D2A70540  44.666  38.457   6.753
10588POPC   C3A70541  44.687  38.475   7.053
10588POPC   C4A70542  44.631  38.426   7.353
10588POPC   C1B70543  44.758  38.665   6.453
10588POPC   C2B70544  44.842  38.637   6.753
10588POPC   C3B70545  44.789  38.647   7.053
10588POPC   C4B70546  44.820  38.632   7.353
10589POPC   NC370547   1.247  23.698   5.553
10589POPC   PO470548   1.258  23.742   5.853
10589POPC   GL170549   1.208  23.735   6.153
10589POPC   GL270550   1.258  23.855   6.153
10589POPC   C1A70551   1.257  23.672   6.453
10589POPC   D2A70552   1.231  23.750   6.753
10589POPC   C3A70553   1.187  23.673   7.053
10589POPC   C4A70554   1.186  23.716   7.353
10589POPC   C1B70555   1.247  23.955   6.453
10589POPC   C2B70556   1.257  23.960   6.753
10589POPC   C3B70557   1.214  23.925   7.053
10589POPC   C4B70558   1.266  23.941   7.353
10590POPC   NC370559  20.632   0.453   5.553
10590POPC   PO470560  20.634   0.412   5.853
10590POPC   GL170561  20.657   0.477   6.153
10590POPC   GL270562  20.619   0.559   6.153
10590POPC   C1A70563  20.579   0.429   6.453
10590POPC   D2A70564  20.610   0.444   6.753
10590POPC   C3A70565  20.620   0.475   7.053
10590POPC   C4A70566  20.560   0.433   7.353
10590POPC   C1B70567  20.703   0.690   6.453
10590POPC   C2B70568  20.657   0.633   6.753
10590POPC   C3B70569  20.696   0.643   7.053
10590POPC   C4B70570  20.681   0.723   7.353
10591POPC   NC370571  26.815  30.693   5.553
10591POPC   PO470572  26.797  30.719   5.853
10591POPC   GL170573  26.840  30.744   6.153
10591POPC   GL270574  26.945  30.793   6.153
10591POPC   C1A70575  26.789  30.695   6.453
10591POPC   D2A70576  26.831  30.703   6.753
10591POPC   C3A70577  26.776  30.672   7.053
10591POPC   C4A70578  26.829  30.715   7.353
10591POPC   C1B70579  26.983  30.841   6.453
10591POPC   C2B70580  27.055  30.870   6.753
10591POPC   C3B70581  26.991  30.878   7.053
10591POPC   C4B70582  26.995  30.810   7.353
10592POPC   NC370583  33.791  13.594   5.553
10592POPC   PO470584  33.762  13.593   5.853
10592POPC   GL170585  33.817  13.586   6.153
10592POPC   GL270586  33.722  13.620   6.153
10592POPC   C1A70587  33.835  13.585   6.453
10592POPC   D2A70588  33.833  13.663   6.753
10592POPC   C3A70589  33.835  13.666   7.053
10592POPC   C4A70590  33.792  13.664   7.353
10592POPC   C1B70591  33.567  13.652   6.453
10592POPC   C2B70592  33.556  13.663   6.753
10592POPC   C3B70593  33.530  13.612   7.053
10592POPC   C4B70594  33.599  13.590   7.353
10593POPC   NC370595  33.754  36.129   5.553
10593POPC   PO470596  33.793  36.163   5.853
10593POPC   GL170597  33.769  36.175   6.153
10593POPC   GL270598  33.857  36.011   6.153
10593POPC   C1A70599  33.795  36.135   6.453
10593POPC   D2A70600  33.821  36.102   6.753
10593POPC   C3A70601  33.837  36.139   7.053
10593POPC   C4A70602  33.759  36.152   7.353
10593POPC   C1B70603  33.890  35.901   6.453
10593POPC   C2B70604  33.895  35.868   6.753
10593POPC   C3B70605  33.964  35.876   7.053
10593POPC   C4B70606  33.949  35.865   7.353
10594POPC   NC370607  21.389  18.246   5.553
10594POPC   PO470608  21.402  18.242   5.853
10594POPC   GL170609  21.415  18.308   6.153
10594POPC   GL270610  21.416  18.375   6.153
10594POPC   C1A70611  21.338  18.289   6.453
10594POPC   D2A70612  21.426  18.324   6.753
10594POPC   C3A70613  21.359  18.278   7.053
10594POPC   C4A70614  21.423  18.270   7.353
10594POPC   C1B70615  21.471  18.495   6.453
10594POPC   C2B70616  21.553  18.536   6.753
10594POPC   C3B70617  21.483  18.534   7.053
10594POPC   C4B70618  21.538  18.517   7.353
10595POPC   NC370619  25.999   3.574   5.553
10595POPC   PO470620  26.057   3.495   5.853
10595POPC   GL170621  26.037   3.520   6.153
10595POPC   GL270622  26.165   3.459   6.153
10595POPC   C1A70623  26.025   3.543   6.453
10595POPC   D2A70624  26.060   3.531   6.753
10595POPC   C3A70625  26.031   3.529   7.053
10595POPC   C4A70626  26.026   3.517   7.353
10595POPC   C1B70627  26.253   3.392   6.453
10595POPC   C2B70628  26.263   3.467   6.753
10595POPC   C3B70629  26.275   3.446   7.053
10595POPC   C4B70630  26.301   3.415   7.353
10596POPC   NC370631  15.168  29.153   5.553
10596POPC   PO470632  15.150  29.122   5.853
10596POPC   GL170633  15.173  29.136   6.153
10596POPC   GL270634  15.129  29.264   6.153
10596POPC   C1A70635  15.134  29.137   6.453
10596POPC   D2A70636  15.220  29.164   6.753
10596POPC   C3A70637  15.160  29.184   7.053
10596POPC   C4A70638  15.151  29.168   7.353
10596POPC   C1B70639  14.989  29.288   6.453
10596POPC   C2B70640  14.962  29.338   6.753
10596POPC   C3B70641  15.023  29.321   7.053
10596POPC   C4B70642  15.007  29.285   7.353
10597POPC   NC370643   3.502  33.801   5.553
10597POPC   PO470644   3.514  33.753   5.853
10597POPC   GL170645   3.553  33.793   6.153
10597POPC   GL270646   3.550  33.894   6.153
10597POPC   C1A70647   3.539  33.766   6.453
10597POPC   D2A70648   3.553  33.762   6.753
10597POPC   C3A70649   3.583  33.838   7.053
10597POPC   C4A70650   3.513  33.778   7.353
10597POPC   C1B70651   3.508  34.063   6.453
10597POPC   C2B70652   3.503  34.049   6.753
10597POPC   C3B70653   3.544  34.023   7.053
10597POPC   C4B70654   3.522  34.072   7.353
10598POPC   NC370655  21.341  20.641   5.553
10598POPC   PO470656  21.348  20.653   5.853
10598POPC   GL170657  21.363  20.615   6.153
10598POPC   GL270658  21.434  20.546   6.153
10598POPC   C1A70659  21.382  20.590   6.453
10598POPC   D2A70660  21.359  20.647   6.753
10598POPC   C3A70661  21.357  20.631   7.053
10598POPC   C4A70662  21.421  20.625   7.353
10598POPC   C1B70663  21.528  20.397   6.453
10598POPC   C2B70664  21.538  20.348   6.753
10598POPC   C3B70665  21.496  20.436   7.053
10598POPC   C4B70666  21.506  20.442   7.353
10599POPC   NC370667  29.930  22.922   5.553
10599POPC   PO470668  29.925  22.971   5.853
10599POPC   GL170669  29.876  22.967   6.153
10599POPC   GL270670  29.806  23.050   6.153
10599POPC   C1A70671  29.884  22.914   6.453
10599POPC   D2A70672  29.895  22.978   6.753
10599POPC   C3A70673  29.883  22.969   7.053
10599POPC   C4A70674  29.906  22.909   7.353
10599POPC   C1B70675  29.760  23.107   6.453
10599POPC   C2B70676  29.702  23.154   6.753
10599POPC   C3B70677  29.763  23.091   7.053
10599POPC   C4B70678  29.742  23.126   7.353
10600POPC   NC370679   5.852  38.447   5.553
10600POPC   PO470680   5.904  38.504   5.853
10600POPC   GL170681   5.820  38.466   6.153
10600POPC   GL270682   5.798  38.347   6.153
10600POPC   C1A70683   5.901  38.455   6.453
10600POPC   D2A70684   5.872  38.467   6.753
10600POPC   C3A70685   5.899  38.456   7.053
10600POPC   C4A70686   5.841  38.488   7.353
10600POPC   C1B70687   5.711  38.241   6.453
10600POPC   C2B70688   5.732  38.259   6.753
10600POPC   C3B70689   5.699  38.229   7.053
10600POPC   C4B70690   5.722  38.310   7.353
10601POPC   NC370691  25.217  33.011   5.553
10601POPC   PO470692  25.261  33.059   5.853
10601POPC   GL170693  25.278  32.994   6.153
10601POPC   GL270694  25.411  33.119   6.153
10601POPC   C1A70695  25.252  33.066   6.453
10601POPC   D2A70696  25.284  32.987   6.753
10601POPC   C3A70697  25.270  33.008   7.053
10601POPC   C4A70698  25.311  33.049   7.353
10601POPC   C1B70699  25.426  33.134   6.453
10601POPC   C2B70700  25.497  33.206   6.753
10601POPC   C3B70701  25.439  33.197   7.053
10601POPC   C4B70702  25.424  33.222   7.353
10602POPC   NC370703   7.402  33.820   5.553
10602POPC   PO470704   7.464  33.769   5.853
10602POPC   GL170705   7.449  33.818   6.153
10602POPC   GL270706   7.542  33.880   6.153
10602POPC   C1A70707   7.444  33.778   6.453
10602POPC   D2A70708   7.455  33.820   6.753
10602POPC   C3A70709   7.464  33.807   7.053
10602POPC   C4A70710   7.435  33.790   7.353
10602POPC   C1B70711   7.563  33.949   6.453
10602POPC   C2B70712   7.622  34.010   6.753
10602POPC   C3B70713   7.646  33.963   7.053
10602POPC   C4B70714   7.581  33.967   7.353
10603POPC   NC370715  28.399   4.320   5.553
10603POPC   PO470716  28.334   4.308   5.853
10603POPC   GL170717  28.387   4.329   6.153
10603POPC   GL270718  28.417   4.450   6.153
10603POPC   C1A70719  28.376   4.328   6.453
10603POPC   D2A70720  28.320   4.319   6.753
10603POPC   C3A70721  28.337   4.341   7.053
10603POPC   C4A70722  28.406   4.270   7.353
10603POPC   C1B70723  28.539   4.512   6.453
10603POPC   C2B70724  28.552   4.551   6.753
10603POPC   C3B70725  28.520   4.560   7.053
10603POPC   C4B70726  28.493   4.508   7.353
10604POPC   NC370727  22.168  10.535   5.553
10604POPC   PO470728  22.164  10.570   5.853
10604POPC   GL170729  22.142  10.524   6.153
10604POPC   GL270730  22.025  10.580   6.153
10604POPC   C1A70731  22.149  10.567   6.453
10604POPC   D2A70732  22.196  10.518   6.753
10604POPC   C3A70733  22.194  10.510   7.053
10604POPC   C4A70734  22.166  10.535   7.353
10604POPC   C1B70735  21.896  10.624   6.453
10604POPC   C2B70736  21.965  10.623   6.753
10604POPC   C3B70737  21.895  10.570   7.053
10604POPC   C4B70738  21.960  10.632   7.353
10605POPC   NC370739  40.023  22.945   5.553
10605POPC   PO470740  40.042  22.952   5.853
10605POPC   GL170741  40.049  22.933   6.153
10605POPC   GL270742  39.924  22.959   6.153
10605POPC   C1A70743  39.973  22.947   6.453
10605POPC   D2A70744  39.976  22.971   6.753
10605POPC   C3A70745  39.960  22.971   7.053
10605POPC   C4A70746  40.010  22.946   7.353
10605POPC   C1B70747  39.758  23.087   6.453
10605POPC   C2B70748  39.732  23.054   6.753
10605POPC   C3B70749  39.825  23.049   7.053
10605POPC   C4B70750  39.828  23.006   7.353
10606POPC   NC370751  39.995  31.514   5.553
10606POPC   PO470752  40.008  31.463   5.853
10606POPC   GL170753  39.976  31.427   6.153
10606POPC   GL270754  40.034  31.602   6.153
10606POPC   C1A70755  40.033  31.504   6.453
10606POPC   D2A70756  39.986  31.518   6.753
10606POPC   C3A70757  40.035  31.491   7.053
10606POPC   C4A70758  40.009  31.465   7.353
10606POPC   C1B70759  40.069  31.740   6.453
10606POPC   C2B70760  40.093  31.665   6.753
10606POPC   C3B70761  40.079  31.744   7.053
10606POPC   C4B70762  40.145  31.732   7.353
10607POPC   NC370763  43.149  22.909   5.553
10607POPC   PO470764  43.080  22.978   5.853
10607POPC   GL170765  43.080  22.894   6.153
10607POPC   GL270766  43.155  22.998   6.153
10607POPC   C1A70767  43.063  22.908   6.453
10607POPC   D2A70768  43.097  22.970   6.753
10607POPC   C3A70769  43.101  22.937   7.053
10607POPC   C4A70770  43.117  22.965   7.353
10607POPC   C1B70771  43.250  23.175   6.453
10607POPC   C2B70772  43.230  23.099   6.753
10607POPC   C3B70773  43.294  23.164   7.053
10607POPC   C4B70774  43.271  23.148   7.353
10608POPC   NC370775  15.169  43.081   5.553
10608POPC   PO470776  15.150  43.099   5.853
10608POPC   GL170777  15.139  43.127   6.153
10608POPC   GL270778  15.299  43.150   6.153
10608POPC   C1A70779  15.156  43.108   6.453
10608POPC   D2A70780  15.150  43.084   6.753
10608POPC   C3A70781  15.154  43.112   7.053
10608POPC   C4A70782  15.132  43.103   7.353
10608POPC   C1B70783  15.425  43.285   6.453
10608POPC   C2B70784  15.354  43.267   6.753
10608POPC   C3B70785  15.392  43.231   7.053
10608POPC   C4B70786  15.364  43.223   7.353
10609POPC   NC370787   5.864  29.887   5.553
10609POPC   PO470788   5.890  29.874   5.853
10609POPC   GL170789   5.875  29.902   6.153
10609POPC   GL270790   5.830  29.984   6.153
10609POPC   C1A70791   5.911  29.902   6.453
10609POPC   D2A70792   5.836  29.903   6.753
10609POPC   C3A70793   5.916  29.945   7.053
10609POPC   C4A70794   5.882  29.922   7.353
10609POPC   C1B70795   5.777  30.116   6.453
10609POPC   C2B70796   5.750  30.094   6.753
10609POPC   C3B70797   5.710  30.142   7.053
10609POPC   C4B70798   5.761  30.111   7.353
10610POPC   NC370799  35.384  26.034   5.553
10610POPC   PO470800  35.384  26.077   5.853
10610POPC   GL170801  35.343  26.072   6.153
10610POPC   GL270802  35.215  26.056   6.153
10610POPC   C1A70803  35.356  26.002   6.453
10610POPC   D2A70804  35.323  26.056   6.753
10610POPC   C3A70805  35.336  26.036   7.053
10610POPC   C4A70806  35.315  26.074   7.353
10610POPC   C1B70807  35.133  26.201   6.453
10610POPC   C2B70808  35.155  26.171   6.753
10610POPC   C3B70809  35.160  26.152   7.053
10610POPC   C4B70810  35.133  26.145   7.353
10611POPC   NC370811  29.192  22.171   5.553
10611POPC   PO470812  29.167  22.121   5.853
10611POPC   GL170813  29.103  22.152   6.153
10611POPC   GL270814  29.197  22.074   6.153
10611POPC   C1A70815  29.125  22.121   6.453
10611POPC   D2A70816  29.139  22.155   6.753
10611POPC   C3A70817  29.104  22.137   7.053
10611POPC   C4A70818  29.121  22.157   7.353
10611POPC   C1B70819  29.296  21.925   6.453
10611POPC   C2B70820  29.250  21.922   6.753
10611POPC   C3B70821  29.334  21.969   7.053
10611POPC   C4B70822  29.334  21.928   7.353
10612POPC   NC370823  16.690  14.417   5.553
10612POPC   PO470824  16.763  14.414   5.853
10612POPC   GL170825  16.692  14.376   6.153
10612POPC   GL270826  16.813  14.439   6.153
10612POPC   C1A70827  16.715  14.387   6.453
10612POPC   D2A70828  16.760  14.426   6.753
10612POPC   C3A70829  16.696  14.389   7.053
10612POPC   C4A70830  16.769  14.384   7.353
10612POPC   C1B70831  16.999  14.411   6.453
10612POPC   C2B70832  16.932  14.328   6.753
10612POPC   C3B70833  16.992  14.329   7.053
10612POPC   C4B70834  17.008  14.410   7.353
10613POPC   NC370835  42.381  33.771   5.553
10613POPC   PO470836  42.363  33.811   5.853
10613POPC   GL170837  42.291  33.803   6.153
10613POPC   GL270838  42.308  33.943   6.153
10613POPC   C1A70839  42.372  33.783   6.453
10613POPC   D2A70840  42.340  33.766   6.753
10613POPC   C3A70841  42.377  33.846   7.053
10613POPC   C4A70842  42.370  33.774   7.353
10613POPC   C1B70843  42.253  34.045   6.453
10613POPC   C2B70844  42.215  34.048   6.753
10613POPC   C3B70845  42.203  34.039   7.053
10613POPC   C4B70846  42.186  33.999   7.353
10614POPC   NC370847  38.448   3.494   5.553
10614POPC   PO470848  38.486   3.492   5.853
10614POPC   GL170849  38.460   3.497   6.153
10614POPC   GL270850  38.452   3.423   6.153
10614POPC   C1A70851  38.448   3.527   6.453
10614POPC   D2A70852  38.501   3.554   6.753
10614POPC   C3A70853  38.498   3.545   7.053
10614POPC   C4A70854  38.480   3.591   7.353
10614POPC   C1B70855  38.422   3.243   6.453
10614POPC   C2B70856  38.466   3.331   6.753
10614POPC   C3B70857  38.434   3.313   7.053
10614POPC   C4B70858  38.426   3.263   7.353
10615POPC   NC370859  31.431  22.139   5.553
10615POPC   PO470860  31.464  22.207   5.853
10615POPC   GL170861  31.514  22.135   6.153
10615POPC   GL270862  31.386  22.082   6.153
10615POPC   C1A70863  31.459  22.184   6.453
10615POPC   D2A70864  31.504  22.165   6.753
10615POPC   C3A70865  31.511  22.179   7.053
10615POPC   C4A70866  31.492  22.154   7.353
10615POPC   C1B70867  31.376  21.902   6.453
10615POPC   C2B70868  31.353  21.988   6.753
10615POPC   C3B70869  31.332  21.987   7.053
10615POPC   C4B70870  31.343  21.974   7.353
10616POPC   NC370871   3.494  28.378   5.553
10616POPC   PO470872   3.492  28.399   5.853
10616POPC   GL170873   3.588  28.360   6.153
10616POPC   GL270874   3.474  28.527   6.153
10616POPC   C1A70875   3.563  28.407   6.453
10616POPC   D2A70876   3.508  28.324   6.753
10616POPC   C3A70877   3.579  28.339   7.053
10616POPC   C4A70878   3.551  28.327   7.353
10616POPC   C1B70879   3.473  28.638   6.453
10616POPC   C2B70880   3.492  28.608   6.753
10616POPC   C3B70881   3.486  28.567   7.053
10616POPC   C4B70882   3.506  28.587   7.353
10617POPC   NC370883  26.020  35.352   5.553
10617POPC   PO470884  26.008  35.312   5.853
10617POPC   GL170885  26.090  35.348   6.153
10617POPC   GL270886  26.044  35.468   6.153
10617POPC   C1A70887  26.054  35.381   6.453
10617POPC   D2A70888  26.073  35.361   6.753
10617POPC   C3A70889  26.028  35.336   7.053
10617POPC   C4A70890  26.090  35.400   7.353
10617POPC   C1B70891  25.945  35.556   6.453
10617POPC   C2B70892  25.908  35.552   6.753
10617POPC   C3B70893  25.949  35.622   7.053
10617POPC   C4B70894  25.959  35.591   7.353
10618POPC   NC370895  17.486  12.902   5.553
10618POPC   PO470896  17.522  12.804   5.853
10618POPC   GL170897  17.505  12.841   6.153
10618POPC   GL270898  17.483  12.741   6.153
10618POPC   C1A70899  17.543  12.829   6.453
10618POPC   D2A70900  17.479  12.885   6.753
10618POPC   C3A70901  17.505  12.879   7.053
10618POPC   C4A70902  17.534  12.900   7.353
10618POPC   C1B70903  17.447  12.642   6.453
10618POPC   C2B70904  17.461  12.645   6.753
10618POPC   C3B70905  17.430  12.578   7.053
10618POPC   C4B70906  17.405  12.635   7.353
10619POPC   NC370907  21.374   8.245   5.553
10619POPC   PO470908  21.381   8.246   5.853
10619POPC   GL170909  21.378   8.195   6.153
10619POPC   GL270910  21.280   8.117   6.153
10619POPC   C1A70911  21.416   8.157   6.453
10619POPC   D2A70912  21.351   8.232   6.753
10619POPC   C3A70913  21.336   8.161   7.053
10619POPC   C4A70914  21.432   8.234   7.353
10619POPC   C1B70915  21.243   8.040   6.453
10619POPC   C2B70916  21.258   7.959   6.753
10619POPC   C3B70917  21.227   7.968   7.053
10619POPC   C4B70918  21.257   8.013   7.353
10620POPC   NC370919  32.255  36.918   5.553
10620POPC   PO470920  32.239  36.942   5.853
10620POPC   GL170921  32.264  36.935   6.153
10620POPC   GL270922  32.169  36.769   6.153
10620POPC   C1A70923  32.225  36.936   6.453
10620POPC   D2A70924  32.243  36.930   6.753
10620POPC   C3A70925  32.220  36.885   7.053
10620POPC   C4A70926  32.295  36.874   7.353
10620POPC   C1B70927  32.106  36.729   6.453
10620POPC   C2B70928  32.089  36.715   6.753
10620POPC   C3B70929  32.110  36.668   7.053
10620POPC   C4B70930  32.073  36.685   7.353
10621POPC   NC370931   5.882   8.182   5.553
10621POPC   PO470932   5.878   8.180   5.853
10621POPC   GL170933   5.905   8.151   6.153
10621POPC   GL270934   5.873   8.087   6.153
10621POPC   C1A70935   5.824   8.222   6.453
10621POPC   D2A70936   5.885   8.242   6.753
10621POPC   C3A70937   5.841   8.158   7.053
10621POPC   C4A70938   5.856   8.201   7.353
10621POPC   C1B70939   5.867   7.941   6.453
10621POPC   C2B70940   5.773   8.000   6.753
10621POPC   C3B70941   5.785   7.965   7.053
10621POPC   C4B70942   5.780   7.956   7.353
10622POPC   NC370943   0.412  39.231   5.553
10622POPC   PO470944   0.415  39.277   5.853
10622POPC   GL170945   0.413  39.205   6.153
10622POPC   GL270946   0.373  39.320   6.153
10622POPC   C1A70947   0.458  39.280   6.453
10622POPC   D2A70948   0.454  39.182   6.753
10622POPC   C3A70949   0.440  39.271   7.053
10622POPC   C4A70950   0.421  39.258   7.353
10622POPC   C1B70951   0.219  39.368   6.453
10622POPC   C2B70952   0.231  39.385   6.753
10622POPC   C3B70953   0.223  39.315   7.053
10622POPC   C4B70954   0.173  39.380   7.353
10623POPC   NC370955  19.862  26.062   5.553
10623POPC   PO470956  19.865  26.016   5.853
10623POPC   GL170957  19.785  26.087   6.153
10623POPC   GL270958  19.914  26.155   6.153
10623POPC   C1A70959  19.801  26.050   6.453
10623POPC   D2A70960  19.814  26.029   6.753
10623POPC   C3A70961  19.836  26.036   7.053
10623POPC   C4A70962  19.867  26.017   7.353
10623POPC   C1B70963  19.982  26.242   6.453
10623POPC   C2B70964  19.894  26.285   6.753
10623POPC   C3B70965  19.934  26.318   7.053
10623POPC   C4B70966  19.895  26.223   7.353
10624POPC   NC370967  35.401  32.980   5.553
10624POPC   PO470968  35.335  32.991   5.853
10624POPC   GL170969  35.392  33.000   6.153
10624POPC   GL270970  35.256  32.889   6.153
10624POPC   C1A70971  35.337  32.979   6.453
10624POPC   D2A70972  35.365  33.037   6.753
10624POPC   C3A70973  35.363  32.988   7.053
10624POPC   C4A70974  35.315  33.007   7.353
10624POPC   C1B70975  35.222  32.866   6.453
10624POPC   C2B70976  35.211  32.792   6.753
10624POPC   C3B70977  35.241  32.825   7.053
10624POPC   C4B70978  35.163  32.788   7.353
10625POPC   NC370979  31.462  13.643   5.553
10625POPC   PO470980  31.436  13.614   5.853
10625POPC   GL170981  31.448  13.635   6.153
10625POPC   GL270982  31.361  13.700   6.153
10625POPC   C1A70983  31.475  13.613   6.453
10625POPC   D2A70984  31.444  13.676   6.753
10625POPC   C3A70985  31.444  13.624   7.053
10625POPC   C4A70986  31.439  13.600   7.353
10625POPC   C1B70987  31.261  13.832   6.453
10625POPC   C2B70988  31.314  13.785   6.753
10625POPC   C3B70989  31.285  13.787   7.053
10625POPC   C4B70990  31.295  13.800   7.353
10626POPC   NC370991  22.958  43.854   5.553
10626POPC   PO470992  22.907  43.850   5.853
10626POPC   GL170993  22.906  43.877   6.153
10626POPC   GL270994  22.805  43.875   6.153
10626POPC   C1A70995  22.972  43.851   6.453
10626POPC   D2A70996  22.942  43.909   6.753
10626POPC   C3A70997  22.913  43.911   7.053
10626POPC   C4A70998  22.972  43.869   7.353
10626POPC   C1B70999  22.664  43.908   6.453
10626POPC   C2B71000  22.715  43.909   6.753
10626POPC   C3B71001  22.717  43.975   7.053
10626POPC   C4B71002  22.732  43.886   7.353
10627POPC   NC371003  36.175  34.570   5.553
10627POPC   PO471004  36.143  34.546   5.853
10627POPC   GL171005  36.078  34.587   6.153
10627POPC   GL271006  36.291  34.547   6.153
10627POPC   C1A71007  36.148  34.564   6.453
10627POPC   D2A71008  36.152  34.597   6.753
10627POPC   C3A71009  36.098  34.572   7.053
10627POPC   C4A71010  36.150  34.572   7.353
10627POPC   C1B71011  36.363  34.591   6.453
10627POPC   C2B71012  36.416  34.548   6.753
10627POPC   C3B71013  36.418  34.580   7.053
10627POPC   C4B71014  36.369  34.628   7.353
10628POPC   NC371015   1.973  12.053   5.553
10628POPC   PO471016   2.016  12.054   5.853
10628POPC   GL171017   2.005  12.114   6.153
10628POPC   GL271018   1.998  11.995   6.153
10628POPC   C1A71019   1.962  12.072   6.453
10628POPC   D2A71020   1.970  12.079   6.753
10628POPC   C3A71021   1.995  12.044   7.053
10628POPC   C4A71022   1.969  12.091   7.353
10628POPC   C1B71023   2.041  11.827   6.453
10628POPC   C2B71024   1.976  11.860   6.753
10628POPC   C3B71025   1.971  11.786   7.053
10628POPC   C4B71026   2.050  11.856   7.353
10629POPC   NC371027   0.412  35.346   5.553
10629POPC   PO471028   0.412  35.371   5.853
10629POPC   GL171029   0.403  35.314   6.153
10629POPC   GL271030   0.545  35.382   6.153
10629POPC   C1A71031   0.469  35.326   6.453
10629POPC   D2A71032   0.404  35.341   6.753
10629POPC   C3A71033   0.416  35.341   7.053
10629POPC   C4A71034   0.469  35.314   7.353
10629POPC   C1B71035   0.603  35.491   6.453
10629POPC   C2B71036   0.655  35.486   6.753
10629POPC   C3B71037   0.679  35.544   7.053
10629POPC   C4B71038   0.653  35.457   7.353
10630POPC   NC371039  21.434  30.661   5.553
10630POPC   PO471040  21.364  30.683   5.853
10630POPC   GL171041  21.360  30.696   6.153
10630POPC   GL271042  21.488  30.730   6.153
10630POPC   C1A71043  21.360  30.691   6.453
10630POPC   D2A71044  21.369  30.720   6.753
10630POPC   C3A71045  21.395  30.715   7.053
10630POPC   C4A71046  21.434  30.660   7.353
10630POPC   C1B71047  21.597  30.797   6.453
10630POPC   C2B71048  21.616  30.787   6.753
10630POPC   C3B71049  21.620  30.739   7.053
10630POPC   C4B71050  21.654  30.806   7.353
10631POPC   NC371051  18.330  17.496   5.553
10631POPC   PO471052  18.322  17.546   5.853
10631POPC   GL171053  18.327  17.551   6.153
10631POPC   GL271054  18.344  17.369   6.153
10631POPC   C1A71055  18.234  17.498   6.453
10631POPC   D2A71056  18.293  17.491   6.753
10631POPC   C3A71057  18.260  17.510   7.053
10631POPC   C4A71058  18.257  17.543   7.353
10631POPC   C1B71059  18.386  17.289   6.453
10631POPC   C2B71060  18.355  17.305   6.753
10631POPC   C3B71061  18.400  17.319   7.053
10631POPC   C4B71062  18.424  17.234   7.353
10632POPC   NC371063   5.875  26.786   5.553
10632POPC   PO471064   5.843  26.822   5.853
10632POPC   GL171065   5.842  26.832   6.153
10632POPC   GL271066   5.775  26.790   6.153
10632POPC   C1A71067   5.854  26.825   6.453
10632POPC   D2A71068   5.903  26.848   6.753
10632POPC   C3A71069   5.885  26.862   7.053
10632POPC   C4A71070   5.861  26.775   7.353
10632POPC   C1B71071   5.589  26.892   6.453
10632POPC   C2B71072   5.654  26.892   6.753
10632POPC   C3B71073   5.609  26.898   7.053
10632POPC   C4B71074   5.597  26.868   7.353
10633POPC   NC371075  15.151  29.960   5.553
10633POPC   PO471076  15.208  29.911   5.853
10633POPC   GL171077  15.139  29.965   6.153
10633POPC   GL271078  15.065  29.949   6.153
10633POPC   C1A71079  15.198  29.942   6.453
10633POPC   D2A71080  15.207  29.936   6.753
10633POPC   C3A71081  15.176  29.951   7.053
10633POPC   C4A71082  15.229  29.911   7.353
10633POPC   C1B71083  14.985  30.062   6.453
10633POPC   C2B71084  14.939  29.996   6.753
10633POPC   C3B71085  14.981  30.048   7.053
10633POPC   C4B71086  14.958  30.040   7.353
10634POPC   NC371087  42.376   2.730   5.553
10634POPC   PO471088  42.314   2.732   5.853
10634POPC   GL171089  42.346   2.743   6.153
10634POPC   GL271090  42.306   2.690   6.153
10634POPC   C1A71091  42.383   2.772   6.453
10634POPC   D2A71092  42.355   2.772   6.753
10634POPC   C3A71093  42.353   2.746   7.053
10634POPC   C4A71094  42.382   2.736   7.353
10634POPC   C1B71095  42.390   2.492   6.453
10634POPC   C2B71096  42.344   2.485   6.753
10634POPC   C3B71097  42.356   2.508   7.053
10634POPC   C4B71098  42.323   2.524   7.353
10635POPC   NC371099  15.935  29.150   5.553
10635POPC   PO471100  15.972  29.180   5.853
10635POPC   GL171101  15.908  29.162   6.153
10635POPC   GL271102  15.864  29.007   6.153
10635POPC   C1A71103  15.977  29.098   6.453
10635POPC   D2A71104  15.934  29.132   6.753
10635POPC   C3A71105  15.966  29.116   7.053
10635POPC   C4A71106  15.949  29.117   7.353
10635POPC   C1B71107  15.800  28.919   6.453
10635POPC   C2B71108  15.861  28.949   6.753
10635POPC   C3B71109  15.889  28.876   7.053
10635POPC   C4B71110  15.881  28.886   7.353
10636POPC   NC371111   5.862  36.130   5.553
10636POPC   PO471112   5.870  36.151   5.853
10636POPC   GL171113   5.874  36.140   6.153
10636POPC   GL271114   5.920  36.243   6.153
10636POPC   C1A71115   5.845  36.172   6.453
10636POPC   D2A71116   5.870  36.169   6.753
10636POPC   C3A71117   5.819  36.084   7.053
10636POPC   C4A71118   5.916  36.098   7.353
10636POPC   C1B71119   6.041  36.275   6.453
10636POPC   C2B71120   6.071  36.332   6.753
10636POPC   C3B71121   6.030  36.306   7.053
10636POPC   C4B71122   5.986  36.293   7.353
10637POPC   NC371123  26.839  35.315   5.553
10637POPC   PO471124  26.783  35.325   5.853
10637POPC   GL171125  26.859  35.400   6.153
10637POPC   GL271126  26.671  35.305   6.153
10637POPC   C1A71127  26.850  35.371   6.453
10637POPC   D2A71128  26.844  35.361   6.753
10637POPC   C3A71129  26.798  35.352   7.053
10637POPC   C4A71130  26.850  35.392   7.353
10637POPC   C1B71131  26.576  35.281   6.453
10637POPC   C2B71132  26.602  35.325   6.753
10637POPC   C3B71133  26.616  35.316   7.053
10637POPC   C4B71134  26.571  35.301   7.353
10638POPC   NC371135  19.824  40.779   5.553
10638POPC   PO471136  19.852  40.775   5.853
10638POPC   GL171137  19.787  40.815   6.153
10638POPC   GL271138  19.921  40.838   6.153
10638POPC   C1A71139  19.845  40.816   6.453
10638POPC   D2A71140  19.848  40.734   6.753
10638POPC   C3A71141  19.814  40.795   7.053
10638POPC   C4A71142  19.838  40.757   7.353
10638POPC   C1B71143  20.053  40.751   6.453
10638POPC   C2B71144  20.128  40.829   6.753
10638POPC   C3B71145  20.082  40.784   7.053
10638POPC   C4B71146  20.122  40.784   7.353
10639POPC   NC371147  43.111  37.644   5.553
10639POPC   PO471148  43.111  37.669   5.853
10639POPC   GL171149  43.157  37.642   6.153
10639POPC   GL271150  43.178  37.658   6.153
10639POPC   C1A71151  43.150  37.697   6.453
10639POPC   D2A71152  43.109  37.672   6.753
10639POPC   C3A71153  43.077  37.698   7.053
10639POPC   C4A71154  43.146  37.723   7.353
10639POPC   C1B71155  43.308  37.522   6.453
10639POPC   C2B71156  43.340  37.589   6.753
10639POPC   C3B71157  43.288  37.576   7.053
10639POPC   C4B71158  43.300  37.618   7.353
10640POPC   NC371159  23.707  40.029   5.553
10640POPC   PO471160  23.712  40.038   5.853
10640POPC   GL171161  23.739  39.993   6.153
10640POPC   GL271162  23.761  40.135   6.153
10640POPC   C1A71163  23.750  39.981   6.453
10640POPC   D2A71164  23.733  39.968   6.753
10640POPC   C3A71165  23.698  40.045   7.053
10640POPC   C4A71166  23.705  40.053   7.353
10640POPC   C1B71167  23.883  40.236   6.453
10640POPC   C2B71168  23.870  40.211   6.753
10640POPC   C3B71169  23.861  40.251   7.053
10640POPC   C4B71170  23.832  40.227   7.353
10641POPC   NC371171   1.975   1.977   5.553
10641POPC   PO471172   1.951   2.022   5.853
10641POPC   GL171173   2.037   2.033   6.153
10641POPC   GL271174   2.055   2.105   6.153
10641POPC   C1A71175   1.941   2.027   6.453
10641POPC   D2A71176   1.990   1.978   6.753
10641POPC   C3A71177   1.977   2.038   7.053
10641POPC   C4A71178   1.971   1.945   7.353
10641POPC   C1B71179   2.182   2.154   6.453
10641POPC   C2B71180   2.138   2.181   6.753
10641POPC   C3B71181   2.201   2.141   7.053
10641POPC   C4B71182   2.151   2.149   7.353
10642POPC   NC371183   1.180  26.061   5.553
10642POPC   PO471184   1.193  26.027   5.853
10642POPC   GL171185   1.203  26.076   6.153
10642POPC   GL271186   1.127  25.998   6.153
10642POPC   C1A71187   1.254  25.996   6.453
10642POPC   D2A71188   1.234  26.072   6.753
10642POPC   C3A71189   1.229  26.063   7.053
10642POPC   C4A71190   1.179  26.048   7.353
10642POPC   C1B71191   0.965  25.969   6.453
10642POPC   C2B71192   1.012  26.012   6.753
10642POPC   C3B71193   1.006  25.946   7.053
10642POPC   C4B71194   1.003  26.017   7.353
10643POPC   NC371195  36.929   5.138   5.553
10643POPC   PO471196  36.952   5.091   5.853
10643POPC   GL171197  36.871   5.112   6.153
10643POPC   GL271198  36.872   5.188   6.153
10643POPC   C1A71199  36.881   5.128   6.453
10643POPC   D2A71200  36.864   5.113   6.753
10643POPC   C3A71201  36.914   5.110   7.053
10643POPC   C4A71202  36.889   5.114   7.353
10643POPC   C1B71203  36.852   5.284   6.453
10643POPC   C2B71204  36.800   5.305   6.753
10643POPC   C3B71205  36.841   5.378   7.053
10643POPC   C4B71206  36.842   5.365   7.353
10644POPC   NC371207  16.776  34.559   5.553
10644POPC   PO471208  16.779  34.603   5.853
10644POPC   GL171209  16.725  34.539   6.153
10644POPC   GL271210  16.844  34.539   6.153
10644POPC   C1A71211  16.698  34.528   6.453
10644POPC   D2A71212  16.744  34.538   6.753
10644POPC   C3A71213  16.698  34.554   7.053
10644POPC   C4A71214  16.736  34.557   7.353
10644POPC   C1B71215  16.939  34.436   6.453
10644POPC   C2B71216  16.968  34.412   6.753
10644POPC   C3B71217  16.949  34.473   7.053
10644POPC   C4B71218  16.969  34.474   7.353
10645POPC   NC371219  21.412   0.402   5.553
10645POPC   PO471220  21.391   0.462   5.853
10645POPC   GL171221  21.357   0.396   6.153
10645POPC   GL271222  21.442   0.581   6.153
10645POPC   C1A71223  21.434   0.401   6.453
10645POPC   D2A71224  21.392   0.429   6.753
10645POPC   C3A71225  21.346   0.400   7.053
10645POPC   C4A71226  21.412   0.413   7.353
10645POPC   C1B71227  21.495   0.679   6.453
10645POPC   C2B71228  21.573   0.628   6.753
10645POPC   C3B71229  21.545   0.688   7.053
10645POPC   C4B71230  21.551   0.649   7.353
10646POPC   NC371231  27.574  19.817   5.553
10646POPC   PO471232  27.583  19.842   5.853
10646POPC   GL171233  27.573  19.868   6.153
10646POPC   GL271234  27.436  19.776   6.153
10646POPC   C1A71235  27.561  19.855   6.453
10646POPC   D2A71236  27.639  19.856   6.753
10646POPC   C3A71237  27.605  19.880   7.053
10646POPC   C4A71238  27.643  19.838   7.353
10646POPC   C1B71239  27.311  19.731   6.453
10646POPC   C2B71240  27.317  19.722   6.753
10646POPC   C3B71241  27.374  19.711   7.053
10646POPC   C4B71242  27.361  19.752   7.353
10647POPC   NC371243  19.054  40.802   5.553
10647POPC   PO471244  19.033  40.786   5.853
10647POPC   GL171245  19.038  40.817   6.153
10647POPC   GL271246  19.179  40.785   6.153
10647POPC   C1A71247  19.019  40.755   6.453
10647POPC   D2A71248  19.038  40.811   6.753
10647POPC   C3A71249  19.065  40.750   7.053
10647POPC   C4A71250  19.093  40.812   7.353
10647POPC   C1B71251  19.344  40.696   6.453
10647POPC   C2B71252  19.283  40.740   6.753
10647POPC   C3B71253  19.308  40.723   7.053
10647POPC   C4B71254  19.263  40.719   7.353
10648POPC   NC371255   0.393   5.909   5.553
10648POPC   PO471256   0.455   5.824   5.853
10648POPC   GL171257   0.435   5.915   6.153
10648POPC   GL271258   0.468   6.018   6.153
10648POPC   C1A71259   0.470   5.830   6.453
10648POPC   D2A71260   0.420   5.862   6.753
10648POPC   C3A71261   0.462   5.894   7.053
10648POPC   C4A71262   0.426   5.855   7.353
10648POPC   C1B71263   0.519   6.117   6.453
10648POPC   C2B71264   0.574   6.142   6.753
10648POPC   C3B71265   0.518   6.093   7.053
10648POPC   C4B71266   0.548   6.077   7.353
10649POPC   NC371267  28.328  39.245   5.553
10649POPC   PO471268  28.350  39.224   5.853
10649POPC   GL171269  28.374  39.240   6.153
10649POPC   GL271270  28.288  39.309   6.153
10649POPC   C1A71271  28.320  39.197   6.453
10649POPC   D2A71272  28.373  39.271   6.753
10649POPC   C3A71273  28.326  39.211   7.053
10649POPC   C4A71274  28.377  39.193   7.353
10649POPC   C1B71275  28.150  39.388   6.453
10649POPC   C2B71276  28.124  39.341   6.753
10649POPC   C3B71277  28.150  39.369   7.053
10649POPC   C4B71278  28.105  39.350   7.353
10650POPC   NC371279  36.902  44.696   5.553
10650POPC   PO471280  36.896  44.703   5.853
10650POPC   GL171281  36.941  44.632   6.153
10650POPC   GL271282  36.981  44.622   6.153
10650POPC   C1A71283  36.937  44.640   6.453
10650POPC   D2A71284  36.874  44.679   6.753
10650POPC   C3A71285  36.944  44.628   7.053
10650POPC   C4A71286  36.896  44.669   7.353
10650POPC   C1B71287  37.067  44.535   6.453
10650POPC   C2B71288  37.098  44.464   6.753
10650POPC   C3B71289  37.125  44.460   7.053
10650POPC   C4B71290  37.092  44.499   7.353
10651POPC   NC371291  16.773   0.465   5.553
10651POPC   PO471292  16.684   0.480   5.853
10651POPC   GL171293  16.703   0.467   6.153
10651POPC   GL271294  16.801   0.320   6.153
10651POPC   C1A71295  16.772   0.410   6.453
10651POPC   D2A71296  16.687   0.450   6.753
10651POPC   C3A71297  16.726   0.487   7.053
10651POPC   C4A71298  16.704   0.457   7.353
10651POPC   C1B71299  16.851   0.204   6.453
10651POPC   C2B71300  16.855   0.157   6.753
10651POPC   C3B71301  16.838   0.160   7.053
10651POPC   C4B71302  16.821   0.170   7.353
10652POPC   NC371303   7.413  12.886   5.553
10652POPC   PO471304   7.381  12.856   5.853
10652POPC   GL171305   7.415  12.811   6.153
10652POPC   GL271306   7.420  12.930   6.153
10652POPC   C1A71307   7.428  12.811   6.453
10652POPC   D2A71308   7.412  12.881   6.753
10652POPC   C3A71309   7.443  12.868   7.053
10652POPC   C4A71310   7.388  12.881   7.353
10652POPC   C1B71311   7.454  13.061   6.453
10652POPC   C2B71312   7.455  13.136   6.753
10652POPC   C3B71313   7.430  13.107   7.053
10652POPC   C4B71314   7.361  13.095   7.353
10653POPC   NC371315  27.587  12.887   5.553
10653POPC   PO471316  27.636  12.815   5.853
10653POPC   GL171317  27.551  12.816   6.153
10653POPC   GL271318  27.592  12.980   6.153
10653POPC   C1A71319  27.552  12.836   6.453
10653POPC   D2A71320  27.561  12.871   6.753
10653POPC   C3A71321  27.545  12.841   7.053
10653POPC   C4A71322  27.617  12.856   7.353
10653POPC   C1B71323  27.542  13.104   6.453
10653POPC   C2B71324  27.519  13.122   6.753
10653POPC   C3B71325  27.503  13.116   7.053
10653POPC   C4B71326  27.529  13.036   7.353
10654POPC   NC371327  37.678  13.616   5.553
10654POPC   PO471328  37.696  13.585   5.853
10654POPC   GL171329  37.692  13.580   6.153
10654POPC   GL271330  37.700  13.478   6.153
10654POPC   C1A71331  37.716  13.592   6.453
10654POPC   D2A71332  37.711  13.630   6.753
10654POPC   C3A71333  37.632  13.589   7.053
10654POPC   C4A71334  37.683  13.589   7.353
10654POPC   C1B71335  37.808  13.356   6.453
10654POPC   C2B71336  37.756  13.436   6.753
10654POPC   C3B71337  37.817  13.366   7.053
10654POPC   C4B71338  37.763  13.411   7.353
10655POPC   NC371339  39.267   8.221   5.553
10655POPC   PO471340  39.246   8.242   5.853
10655POPC   GL171341  39.212   8.243   6.153
10655POPC   GL271342  39.155   8.312   6.153
10655POPC   C1A71343  39.227   8.203   6.453
10655POPC   D2A71344  39.275   8.234   6.753
10655POPC   C3A71345  39.237   8.196   7.053
10655POPC   C4A71346  39.278   8.226   7.353
10655POPC   C1B71347  39.031   8.367   6.453
10655POPC   C2B71348  39.044   8.443   6.753
10655POPC   C3B71349  39.114   8.383   7.053
10655POPC   C4B71350  39.110   8.435   7.353
10656POPC   NC371351  25.259  36.894   5.553
10656POPC   PO471352  25.275  36.917   5.853
10656POPC   GL171353  25.290  36.945   6.153
10656POPC   GL271354  25.323  36.784   6.153
10656POPC   C1A71355  25.223  36.885   6.453
10656POPC   D2A71356  25.261  36.874   6.753
10656POPC   C3A71357  25.274  36.923   7.053
10656POPC   C4A71358  25.250  36.947   7.353
10656POPC   C1B71359  25.429  36.722   6.453
10656POPC   C2B71360  25.463  36.698   6.753
10656POPC   C3B71361  25.403  36.706   7.053
10656POPC   C4B71362  25.410  36.713   7.353
10657POPC   NC371363   5.843  19.821   5.553
10657POPC   PO471364   5.916  19.839   5.853
10657POPC   GL171365   5.917  19.879   6.153
10657POPC   GL271366   5.719  19.866   6.153
10657POPC   C1A71367   5.872  19.814   6.453
10657POPC   D2A71368   5.820  19.862   6.753
10657POPC   C3A71369   5.892  19.810   7.053
10657POPC   C4A71370   5.843  19.846   7.353
10657POPC   C1B71371   5.586  19.819   6.453
10657POPC   C2B71372   5.603  19.885   6.753
10657POPC   C3B71373   5.606  19.795   7.053
10657POPC   C4B71374   5.618  19.850   7.353
10658POPC   NC371375  29.170   5.049   5.553
10658POPC   PO471376  29.118   5.140   5.853
10658POPC   GL171377  29.101   5.122   6.153
10658POPC   GL271378  29.049   5.018   6.153
10658POPC   C1A71379  29.175   5.043   6.453
10658POPC   D2A71380  29.147   5.100   6.753
10658POPC   C3A71381  29.145   5.093   7.053
10658POPC   C4A71382  29.127   5.066   7.353
10658POPC   C1B71383  28.868   5.019   6.453
10658POPC   C2B71384  28.894   4.984   6.753
10658POPC   C3B71385  28.956   5.055   7.053
10658POPC   C4B71386  28.929   4.976   7.353
10659POPC   NC371387  23.746  26.819   5.553
10659POPC   PO471388  23.743  26.801   5.853
10659POPC   GL171389  23.678  26.860   6.153
10659POPC   GL271390  23.803  26.885   6.153
10659POPC   C1A71391  23.738  26.791   6.453
10659POPC   D2A71392  23.754  26.808   6.753
10659POPC   C3A71393  23.694  26.802   7.053
10659POPC   C4A71394  23.694  26.864   7.353
10659POPC   C1B71395  23.823  27.040   6.453
10659POPC   C2B71396  23.833  27.013   6.753
10659POPC   C3B71397  23.854  26.993   7.053
10659POPC   C4B71398  23.814  26.992   7.353
10660POPC   NC371399   2.767  29.126   5.553
10660POPC   PO471400   2.725  29.140   5.853
10660POPC   GL171401   2.795  29.164   6.153
10660POPC   GL271402   2.676  29.214   6.153
10660POPC   C1A71403   2.717  29.169   6.453
10660POPC   D2A71404   2.791  29.154   6.753
10660POPC   C3A71405   2.793  29.150   7.053
10660POPC   C4A71406   2.791  29.097   7.353
10660POPC   C1B71407   2.542  29.235   6.453
10660POPC   C2B71408   2.511  29.317   6.753
10660POPC   C3B71409   2.601  29.277   7.053
10660POPC   C4B71410   2.564  29.272   7.353
10661POPC   NC371411  26.062  28.357   5.553
10661POPC   PO471412  26.002  28.329   5.853
10661POPC   GL171413  26.065  28.357   6.153
10661POPC   GL271414  25.874  28.334   6.153
10661POPC   C1A71415  26.005  28.398   6.453
10661POPC   D2A71416  26.076  28.406   6.753
10661POPC   C3A71417  26.008  28.338   7.053
10661POPC   C4A71418  26.063  28.355   7.353
10661POPC   C1B71419  25.832  28.256   6.453
10661POPC   C2B71420  25.777  28.256   6.753
10661POPC   C3B71421  25.794  28.285   7.053
10661POPC   C4B71422  25.775  28.290   7.353
10662POPC   NC371423   2.721   7.469   5.553
10662POPC   PO471424   2.799   7.463   5.853
10662POPC   GL171425   2.767   7.371   6.153
10662POPC   GL271426   2.635   7.420   6.153
10662POPC   C1A71427   2.761   7.448   6.453
10662POPC   D2A71428   2.772   7.410   6.753
10662POPC   C3A71429   2.754   7.427   7.053
10662POPC   C4A71430   2.743   7.422   7.353
10662POPC   C1B71431   2.537   7.298   6.453
10662POPC   C2B71432   2.498   7.298   6.753
10662POPC   C3B71433   2.519   7.305   7.053
10662POPC   C4B71434   2.517   7.364   7.353
10663POPC   NC371435  22.974  44.648   5.553
10663POPC   PO471436  22.905  44.667   5.853
10663POPC   GL171437  22.959  44.624   6.153
10663POPC   GL271438  22.897  44.758   6.153
10663POPC   C1A71439  22.936  44.623   6.453
10663POPC   D2A71440  22.969  44.619   6.753
10663POPC   C3A71441  22.917  44.688   7.053
10663POPC   C4A71442  22.946  44.686   7.353
10663POPC   C1B71443  22.935  44.877   6.453
10663POPC   C2B71444  22.930  44.911   6.753
10663POPC   C3B71445  22.884  44.867   7.053
10663POPC   C4B71446  22.858  44.858   7.353
10664POPC   NC371447   9.745  17.463   5.553
10664POPC   PO471448   9.736  17.498   5.853
10664POPC   GL171449   9.736  17.532   6.153
10664POPC   GL271450   9.766  17.654   6.153
10664POPC   C1A71451   9.734  17.471   6.453
10664POPC   D2A71452   9.729  17.519   6.753
10664POPC   C3A71453   9.704  17.486   7.053
10664POPC   C4A71454   9.773  17.546   7.353
10664POPC   C1B71455   9.804  17.710   6.453
10664POPC   C2B71456   9.791  17.722   6.753
10664POPC   C3B71457   9.822  17.797   7.053
10664POPC   C4B71458   9.828  17.744   7.353
10665POPC   NC371459  34.574   2.759   5.553
10665POPC   PO471460  34.582   2.749   5.853
10665POPC   GL171461  34.536   2.751   6.153
10665POPC   GL271462  34.516   2.658   6.153
10665POPC   C1A71463  34.611   2.765   6.453
10665POPC   D2A71464  34.591   2.729   6.753
10665POPC   C3A71465  34.583   2.725   7.053
10665POPC   C4A71466  34.556   2.743   7.353
10665POPC   C1B71467  34.439   2.592   6.453
10665POPC   C2B71468  34.395   2.619   6.753
10665POPC   C3B71469  34.365   2.599   7.053
10665POPC   C4B71470  34.424   2.607   7.353
10666POPC   NC371471  40.738  32.983   5.553
10666POPC   PO471472  40.829  32.986   5.853
10666POPC   GL171473  40.807  33.036   6.153
10666POPC   GL271474  40.687  32.875   6.153
10666POPC   C1A71475  40.756  33.022   6.453
10666POPC   D2A71476  40.761  33.019   6.753
10666POPC   C3A71477  40.802  32.989   7.053
10666POPC   C4A71478  40.808  33.062   7.353
10666POPC   C1B71479  40.598  32.824   6.453
10666POPC   C2B71480  40.669  32.783   6.753
10666POPC   C3B71481  40.613  32.836   7.053
10666POPC   C4B71482  40.655  32.865   7.353
10667POPC   NC371483  26.790  27.595   5.553
10667POPC   PO471484  26.783  27.559   5.853
10667POPC   GL171485  26.861  27.608   6.153
10667POPC   GL271486  26.849  27.486   6.153
10667POPC   C1A71487  26.814  27.628   6.453
10667POPC   D2A71488  26.770  27.583   6.753
10667POPC   C3A71489  26.811  27.617   7.053
10667POPC   C4A71490  26.798  27.592   7.353
10667POPC   C1B71491  26.930  27.346   6.453
10667POPC   C2B71492  26.937  27.387   6.753
10667POPC   C3B71493  26.903  27.333   7.053
10667POPC   C4B71494  26.848  27.370   7.353
10668POPC   NC371495  18.310   4.288   5.553
10668POPC   PO471496  18.318   4.366   5.853
10668POPC   GL171497  18.266   4.351   6.153
10668POPC   GL271498  18.271   4.459   6.153
10668POPC   C1A71499  18.300   4.342   6.453
10668POPC   D2A71500  18.328   4.303   6.753
10668POPC   C3A71501  18.295   4.303   7.053
10668POPC   C4A71502  18.325   4.348   7.353
10668POPC   C1B71503  18.256   4.608   6.453
10668POPC   C2B71504  18.239   4.523   6.753
10668POPC   C3B71505  18.270   4.597   7.053
10668POPC   C4B71506  18.265   4.597   7.353
10669POPC   NC371507  17.494  15.211   5.553
10669POPC   PO471508  17.475  15.171   5.853
10669POPC   GL171509  17.499  15.225   6.153
10669POPC   GL271510  17.577  15.234   6.153
10669POPC   C1A71511  17.481  15.146   6.453
10669POPC   D2A71512  17.534  15.184   6.753
10669POPC   C3A71513  17.548  15.176   7.053
10669POPC   C4A71514  17.459  15.203   7.353
10669POPC   C1B71515  17.692  15.313   6.453
10669POPC   C2B71516  17.760  15.276   6.753
10669POPC   C3B71517  17.733  15.310   7.053
10669POPC   C4B71518  17.731  15.337   7.353
10670POPC   NC371519  37.700  23.748   5.553
10670POPC   PO471520  37.678  23.752   5.853
10670POPC   GL171521  37.715  23.714   6.153
10670POPC   GL271522  37.775  23.586   6.153
10670POPC   C1A71523  37.722  23.719   6.453
10670POPC   D2A71524  37.704  23.728   6.753
10670POPC   C3A71525  37.723  23.697   7.053
10670POPC   C4A71526  37.700  23.725   7.353
10670POPC   C1B71527  37.864  23.548   6.453
10670POPC   C2B71528  37.870  23.544   6.753
10670POPC   C3B71529  37.800  23.527   7.053
10670POPC   C4B71530  37.814  23.485   7.353
10671POPC   NC371531  43.074   1.255   5.553
10671POPC   PO471532  43.092   1.241   5.853
10671POPC   GL171533  43.113   1.196   6.153
10671POPC   GL271534  43.033   1.086   6.153
10671POPC   C1A71535  43.129   1.215   6.453
10671POPC   D2A71536  43.155   1.233   6.753
10671POPC   C3A71537  43.095   1.196   7.053
10671POPC   C4A71538  43.101   1.169   7.353
10671POPC   C1B71539  42.926   1.025   6.453
10671POPC   C2B71540  42.914   1.058   6.753
10671POPC   C3B71541  42.897   1.081   7.053
10671POPC   C4B71542  42.959   1.054   7.353
10672POPC   NC371543  27.597  17.469   5.553
10672POPC   PO471544  27.625  17.494   5.853
10672POPC   GL171545  27.573  17.485   6.153
10672POPC   GL271546  27.494  17.397   6.153
10672POPC   C1A71547  27.604  17.487   6.453
10672POPC   D2A71548  27.582  17.502   6.753
10672POPC   C3A71549  27.608  17.493   7.053
10672POPC   C4A71550  27.586  17.491   7.353
10672POPC   C1B71551  27.395  17.309   6.453
10672POPC   C2B71552  27.379  17.366   6.753
10672POPC   C3B71553  27.394  17.319   7.053
10672POPC   C4B71554  27.401  17.306   7.353
10673POPC   NC371555   4.332  37.660   5.553
10673POPC   PO471556   4.357  37.709   5.853
10673POPC   GL171557   4.360  37.680   6.153
10673POPC   GL271558   4.398  37.580   6.153
10673POPC   C1A71559   4.307  37.631   6.453
10673POPC   D2A71560   4.319  37.650   6.753
10673POPC   C3A71561   4.333  37.701   7.053
10673POPC   C4A71562   4.338  37.680   7.353
10673POPC   C1B71563   4.471  37.482   6.453
10673POPC   C2B71564   4.397  37.482   6.753
10673POPC   C3B71565   4.434  37.490   7.053
10673POPC   C4B71566   4.434  37.415   7.353
10674POPC   NC371567  41.603   6.664   5.553
10674POPC   PO471568  41.544   6.670   5.853
10674POPC   GL171569  41.532   6.618   6.153
10674POPC   GL271570  41.627   6.567   6.153
10674POPC   C1A71571  41.560   6.624   6.453
10674POPC   D2A71572  41.596   6.676   6.753
10674POPC   C3A71573  41.557   6.609   7.053
10674POPC   C4A71574  41.564   6.615   7.353
10674POPC   C1B71575  41.621   6.409   6.453
10674POPC   C2B71576  41.619   6.438   6.753
10674POPC   C3B71577  41.573   6.409   7.053
10674POPC   C4B71578  41.626   6.383   7.353
10675POPC   NC371579  31.512  38.485   5.553
10675POPC   PO471580  31.516  38.485   5.853
10675POPC   GL171581  31.447  38.463   6.153
10675POPC   GL271582  31.575  38.387   6.153
10675POPC   C1A71583  31.427  38.460   6.453
10675POPC   D2A71584  31.435  38.465   6.753
10675POPC   C3A71585  31.458  38.427   7.053
10675POPC   C4A71586  31.444  38.501   7.353
10675POPC   C1B71587  31.651  38.254   6.453
10675POPC   C2B71588  31.615  38.214   6.753
10675POPC   C3B71589  31.605  38.268   7.053
10675POPC   C4B71590  31.617  38.240   7.353
10676POPC   NC371591   8.156  10.541   5.553
10676POPC   PO471592   8.155  10.495   5.853
10676POPC   GL171593   8.235  10.487   6.153
10676POPC   GL271594   8.336  10.624   6.153
10676POPC   C1A71595   8.193  10.542   6.453
10676POPC   D2A71596   8.157  10.493   6.753
10676POPC   C3A71597   8.189  10.529   7.053
10676POPC   C4A71598   8.209  10.485   7.353
10676POPC   C1B71599   8.430  10.661   6.453
10676POPC   C2B71600   8.369  10.608   6.753
10676POPC   C3B71601   8.440  10.617   7.053
10676POPC   C4B71602   8.371  10.674   7.353
10677POPC   NC371603   0.479  26.847   5.553
10677POPC   PO471604   0.478  26.822   5.853
10677POPC   GL171605   0.482  26.771   6.153
10677POPC   GL271606   0.569  26.782   6.153
10677POPC   C1A71607   0.485  26.838   6.453
10677POPC   D2A71608   0.389  26.836   6.753
10677POPC   C3A71609   0.471  26.781   7.053
10677POPC   C4A71610   0.404  26.812   7.353
10677POPC   C1B71611   0.668  26.741   6.453
10677POPC   C2B71612   0.672  26.718   6.753
10677POPC   C3B71613   0.693  26.791   7.053
10677POPC   C4B71614   0.668  26.760   7.353
10678POPC   NC371615  33.022  43.890   5.553
10678POPC   PO471616  33.047  43.877   5.853
10678POPC   GL171617  33.070  43.933   6.153
10678POPC   GL271618  33.191  43.878   6.153
10678POPC   C1A71619  33.073  43.913   6.453
10678POPC   D2A71620  33.073  43.899   6.753
10678POPC   C3A71621  32.975  43.924   7.053
10678POPC   C4A71622  32.989  43.935   7.353
10678POPC   C1B71623  33.299  43.814   6.453
10678POPC   C2B71624  33.248  43.844   6.753
10678POPC   C3B71625  33.307  43.758   7.053
10678POPC   C4B71626  33.267  43.782   7.353
10679POPC   NC371627  25.286  12.867   5.553
10679POPC   PO471628  25.256  12.827   5.853
10679POPC   GL171629  25.264  12.831   6.153
10679POPC   GL271630  25.239  12.925   6.153
10679POPC   C1A71631  25.274  12.820   6.453
10679POPC   D2A71632  25.267  12.858   6.753
10679POPC   C3A71633  25.238  12.830   7.053
10679POPC   C4A71634  25.299  12.818   7.353
10679POPC   C1B71635  25.142  13.015   6.453
10679POPC   C2B71636  25.099  13.040   6.753
10679POPC   C3B71637  25.113  13.098   7.053
10679POPC   C4B71638  25.140  13.081   7.353
10680POPC   NC371639  33.007  27.558   5.553
10680POPC   PO471640  32.985  27.617   5.853
10680POPC   GL171641  33.057  27.637   6.153
10680POPC   GL271642  32.992  27.457   6.153
10680POPC   C1A71643  32.979  27.550   6.453
10680POPC   D2A71644  33.070  27.550   6.753
10680POPC   C3A71645  33.068  27.596   7.053
10680POPC   C4A71646  33.029  27.571   7.353
10680POPC   C1B71647  32.934  27.403   6.453
10680POPC   C2B71648  32.946  27.427   6.753
10680POPC   C3B71649  32.913  27.354   7.053
10680POPC   C4B71650  32.848  27.333   7.353
10681POPC   NC371651  42.322  39.226   5.553
10681POPC   PO471652  42.290  39.196   5.853
10681POPC   GL171653  42.336  39.236   6.153
10681POPC   GL271654  42.451  39.111   6.153
10681POPC   C1A71655  42.306  39.219   6.453
10681POPC   D2A71656  42.320  39.200   6.753
10681POPC   C3A71657  42.337  39.225   7.053
10681POPC   C4A71658  42.364  39.197   7.353
10681POPC   C1B71659  42.480  39.112   6.453
10681POPC   C2B71660  42.560  39.066   6.753
10681POPC   C3B71661  42.568  39.083   7.053
10681POPC   C4B71662  42.505  39.072   7.353
10682POPC   NC371663  29.953  13.609   5.553
10682POPC   PO471664  29.945  13.645   5.853
10682POPC   GL171665  29.875  13.590   6.153
10682POPC   GL271666  29.837  13.582   6.153
10682POPC   C1A71667  29.873  13.612   6.453
10682POPC   D2A71668  29.902  13.601   6.753
10682POPC   C3A71669  29.948  13.594   7.053
10682POPC   C4A71670  29.912  13.667   7.353
10682POPC   C1B71671  29.706  13.607   6.453
10682POPC   C2B71672  29.667  13.584   6.753
10682POPC   C3B71673  29.664  13.607   7.053
10682POPC   C4B71674  29.694  13.565   7.353
10683POPC   NC371675  15.942   1.968   5.553
10683POPC   PO471676  15.970   1.986   5.853
10683POPC   GL171677  15.985   1.984   6.153
10683POPC   GL271678  16.056   1.915   6.153
10683POPC   C1A71679  15.998   1.970   6.453
10683POPC   D2A71680  15.966   2.010   6.753
10683POPC   C3A71681  15.909   2.018   7.053
10683POPC   C4A71682  15.966   1.981   7.353
10683POPC   C1B71683  16.207   1.904   6.453
10683POPC   C2B71684  16.169   1.854   6.753
10683POPC   C3B71685  16.208   1.860   7.053
10683POPC   C4B71686  16.135   1.885   7.353
10684POPC   NC371687  29.118  29.124   5.553
10684POPC   PO471688  29.120  29.164   5.853
10684POPC   GL171689  29.102  29.170   6.153
10684POPC   GL271690  29.263  29.170   6.153
10684POPC   C1A71691  29.154  29.179   6.453
10684POPC   D2A71692  29.156  29.176   6.753
10684POPC   C3A71693  29.114  29.111   7.053
10684POPC   C4A71694  29.149  29.153   7.353
10684POPC   C1B71695  29.354  29.181   6.453
10684POPC   C2B71696  29.402  29.158   6.753
10684POPC   C3B71697  29.349  29.208   7.053
10684POPC   C4B71698  29.364  29.178   7.353
10685POPC   NC371699  22.897  10.520   5.553
10685POPC   PO471700  22.917  10.494   5.853
10685POPC   GL171701  22.918  10.565   6.153
10685POPC   GL271702  22.878  10.399   6.153
10685POPC   C1A71703  22.942  10.529   6.453
10685POPC   D2A71704  22.906  10.574   6.753
10685POPC   C3A71705  22.972  10.566   7.053
10685POPC   C4A71706  22.924  10.572   7.353
10685POPC   C1B71707  22.834  10.343   6.453
10685POPC   C2B71708  22.845  10.317   6.753
10685POPC   C3B71709  22.764  10.314   7.053
10685POPC   C4B71710  22.820  10.265   7.353
10686POPC   NC371711  32.265  22.194   5.553
10686POPC   PO471712  32.247  22.172   5.853
10686POPC   GL171713  32.289  22.139   6.153
10686POPC   GL271714  32.323  22.032   6.153
10686POPC   C1A71715  32.230  22.163   6.453
10686POPC   D2A71716  32.267  22.164   6.753
10686POPC   C3A71717  32.263  22.151   7.053
10686POPC   C4A71718  32.253  22.154   7.353
10686POPC   C1B71719  32.366  21.909   6.453
10686POPC   C2B71720  32.299  21.937   6.753
10686POPC   C3B71721  32.353  21.897   7.053
10686POPC   C4B71722  32.297  21.880   7.353
10687POPC   NC371723  29.132  37.685   5.553
10687POPC   PO471724  29.106  37.715   5.853
10687POPC   GL171725  29.149  37.698   6.153
10687POPC   GL271726  29.230  37.781   6.153
10687POPC   C1A71727  29.101  37.630   6.453
10687POPC   D2A71728  29.166  37.709   6.753
10687POPC   C3A71729  29.153  37.638   7.053
10687POPC   C4A71730  29.171  37.650   7.353
10687POPC   C1B71731  29.359  37.866   6.453
10687POPC   C2B71732  29.365  37.849   6.753
10687POPC   C3B71733  29.367  37.890   7.053
10687POPC   C4B71734  29.331  37.807   7.353
10688POPC   NC371735  26.816  14.360   5.553
10688POPC   PO471736  26.861  14.362   5.853
10688POPC   GL171737  26.800  14.446   6.153
10688POPC   GL271738  26.694  14.313   6.153
10688POPC   C1A71739  26.784  14.403   6.453
10688POPC   D2A71740  26.805  14.384   6.753
10688POPC   C3A71741  26.801  14.415   7.053
10688POPC   C4A71742  26.846  14.373   7.353
10688POPC   C1B71743  26.576  14.257   6.453
10688POPC   C2B71744  26.652  14.298   6.753
10688POPC   C3B71745  26.640  14.201   7.053
10688POPC   C4B71746  26.612  14.287   7.353
10689POPC   NC371747  16.748  25.235   5.553
10689POPC   PO471748  16.717  25.281   5.853
10689POPC   GL171749  16.766  25.275   6.153
10689POPC   GL271750  16.698  25.176   6.153
10689POPC   C1A71751  16.706  25.298   6.453
10689POPC   D2A71752  16.691  25.237   6.753
10689POPC   C3A71753  16.688  25.277   7.053
10689POPC   C4A71754  16.732  25.221   7.353
10689POPC   C1B71755  16.770  25.039   6.453
10689POPC   C2B71756  16.731  25.032   6.753
10689POPC   C3B71757  16.800  25.037   7.053
10689POPC   C4B71758  16.806  24.984   7.353
10690POPC   NC371759   8.216  17.484   5.553
10690POPC   PO471760   8.220  17.462   5.853
10690POPC   GL171761   8.163  17.490   6.153
10690POPC   GL271762   8.309  17.568   6.153
10690POPC   C1A71763   8.225  17.539   6.453
10690POPC   D2A71764   8.173  17.479   6.753
10690POPC   C3A71765   8.211  17.477   7.053
10690POPC   C4A71766   8.210  17.509   7.353
10690POPC   C1B71767   8.429  17.551   6.453
10690POPC   C2B71768   8.396  17.584   6.753
10690POPC   C3B71769   8.477  17.563   7.053
10690POPC   C4B71770   8.435  17.542   7.353
10691POPC   NC371771  37.686  20.589   5.553
10691POPC   PO471772  37.706  20.645   5.853
10691POPC   GL171773  37.722  20.643   6.153
10691POPC   GL271774  37.592  20.682   6.153
10691POPC   C1A71775  37.725  20.578   6.453
10691POPC   D2A71776  37.728  20.603   6.753
10691POPC   C3A71777  37.690  20.594   7.053
10691POPC   C4A71778  37.715  20.591   7.353
10691POPC   C1B71779  37.549  20.803   6.453
10691POPC   C2B71780  37.583  20.787   6.753
10691POPC   C3B71781  37.526  20.811   7.053
10691POPC   C4B71782  37.566  20.879   7.353
10692POPC   NC371783  20.591   1.227   5.553
10692POPC   PO471784  20.589   1.165   5.853
10692POPC   GL171785  20.574   1.259   6.153
10692POPC   GL271786  20.649   1.124   6.153
10692POPC   C1A71787  20.624   1.222   6.453
10692POPC   D2A71788  20.562   1.257   6.753
10692POPC   C3A71789  20.647   1.255   7.053
10692POPC   C4A71790  20.641   1.191   7.353
10692POPC   C1B71791  20.649   1.016   6.453
10692POPC   C2B71792  20.667   1.014   6.753
10692POPC   C3B71793  20.651   0.981   7.053
10692POPC   C4B71794  20.609   1.005   7.353
10693POPC   NC371795  25.315  33.830   5.553
10693POPC   PO471796  25.241  33.810   5.853
10693POPC   GL171797  25.244  33.820   6.153
10693POPC   GL271798  25.146  33.860   6.153
10693POPC   C1A71799  25.277  33.820   6.453
10693POPC   D2A71800  25.255  33.835   6.753
10693POPC   C3A71801  25.269  33.825   7.053
10693POPC   C4A71802  25.260  33.777   7.353
10693POPC   C1B71803  25.075  33.912   6.453
10693POPC   C2B71804  25.028  33.848   6.753
10693POPC   C3B71805  24.994  33.884   7.053
10693POPC   C4B71806  25.023  33.871   7.353
10694POPC   NC371807  20.595  33.804   5.553
10694POPC   PO471808  20.630  33.840   5.853
10694POPC   GL171809  20.641  33.759   6.153
10694POPC   GL271810  20.736  33.778   6.153
10694POPC   C1A71811  20.609  33.786   6.453
10694POPC   D2A71812  20.583  33.785   6.753
10694POPC   C3A71813  20.578  33.849   7.053
10694POPC   C4A71814  20.601  33.761   7.353
10694POPC   C1B71815  20.819  33.708   6.453
10694POPC   C2B71816  20.817  33.749   6.753
10694POPC   C3B71817  20.811  33.726   7.053
10694POPC   C4B71818  20.812  33.768   7.353
10695POPC   NC371819  19.053  15.217   5.553
10695POPC   PO471820  19.075  15.158   5.853
10695POPC   GL171821  19.018  15.131   6.153
10695POPC   GL271822  19.170  15.284   6.153
10695POPC   C1A71823  19.070  15.139   6.453
10695POPC   D2A71824  19.021  15.171   6.753
10695POPC   C3A71825  19.033  15.175   7.053
10695POPC   C4A71826  19.056  15.226   7.353
10695POPC   C1B71827  19.275  15.299   6.453
10695POPC   C2B71828  19.233  15.319   6.753
10695POPC   C3B71829  19.211  15.345   7.053
10695POPC   C4B71830  19.261  15.299   7.353
10696POPC   NC371831  23.672  10.563   5.553
10696POPC   PO471832  23.745  10.517   5.853
10696POPC   GL171833  23.683  10.542   6.153
10696POPC   GL271834  23.842  10.565   6.153
10696POPC   C1A71835  23.693  10.486   6.453
10696POPC   D2A71836  23.673  10.485   6.753
10696POPC   C3A71837  23.705  10.544   7.053
10696POPC   C4A71838  23.745  10.568   7.353
10696POPC   C1B71839  23.982  10.543   6.453
10696POPC   C2B71840  23.918  10.487   6.753
10696POPC   C3B71841  23.944  10.533   7.053
10696POPC   C4B71842  23.966  10.537   7.353
10697POPC   NC371843   2.755  40.781   5.553
10697POPC   PO471844   2.761  40.797   5.853
10697POPC   GL171845   2.724  40.810   6.153
10697POPC   GL271846   2.907  40.685   6.153
10697POPC   C1A71847   2.744  40.811   6.453
10697POPC   D2A71848   2.722  40.827   6.753
10697POPC   C3A71849   2.748  40.822   7.053
10697POPC   C4A71850   2.778  40.821   7.353
10697POPC   C1B71851   2.991  40.660   6.453
10697POPC   C2B71852   3.003  40.685   6.753
10697POPC   C3B71853   3.000  40.713   7.053
10697POPC   C4B71854   3.026  40.701   7.353
10698POPC   NC371855  29.874  25.261   5.553
10698POPC   PO471856  29.876  25.223   5.853
10698POPC   GL171857  29.892  25.257   6.153
10698POPC   GL271858  29.924  25.407   6.153
10698POPC   C1A71859  29.898  25.231   6.453
10698POPC   D2A71860  29.906  25.277   6.753
10698POPC   C3A71861  29.962  25.241   7.053
10698POPC   C4A71862  29.932  25.231   7.353
10698POPC   C1B71863  29.926  25.467   6.453
10698POPC   C2B71864  29.943  25.469   6.753
10698POPC   C3B71865  29.960  25.488   7.053
10698POPC   C4B71866  29.897  25.516   7.353
10699POPC   NC371867   3.560  41.584   5.553
10699POPC   PO471868   3.547  41.578   5.853
10699POPC   GL171869   3.522  41.542   6.153
10699POPC   GL271870   3.580  41.653   6.153
10699POPC   C1A71871   3.519  41.604   6.453
10699POPC   D2A71872   3.546  41.595   6.753
10699POPC   C3A71873   3.530  41.579   7.053
10699POPC   C4A71874   3.515  41.513   7.353
10699POPC   C1B71875   3.567  41.824   6.453
10699POPC   C2B71876   3.543  41.759   6.753
10699POPC   C3B71877   3.569  41.852   7.053
10699POPC   C4B71878   3.561  41.758   7.353
10700POPC   NC371879  15.213  28.388   5.553
10700POPC   PO471880  15.216  28.351   5.853
10700POPC   GL171881  15.221  28.372   6.153
10700POPC   GL271882  15.046  28.360   6.153
10700POPC   C1A71883  15.214  28.372   6.453
10700POPC   D2A71884  15.162  28.356   6.753
10700POPC   C3A71885  15.199  28.409   7.053
10700POPC   C4A71886  15.194  28.407   7.353
10700POPC   C1B71887  14.946  28.397   6.453
10700POPC   C2B71888  14.903  28.379   6.753
10700POPC   C3B71889  14.902  28.415   7.053
10700POPC   C4B71890  14.945  28.427   7.353
10701POPC   NC371891  27.605   4.296   5.553
10701POPC   PO471892  27.585   4.364   5.853
10701POPC   GL171893  27.574   4.269   6.153
10701POPC   GL271894  27.555   4.479   6.153
10701POPC   C1A71895  27.576   4.337   6.453
10701POPC   D2A71896  27.563   4.310   6.753
10701POPC   C3A71897  27.580   4.340   7.053
10701POPC   C4A71898  27.558   4.310   7.353
10701POPC   C1B71899  27.504   4.557   6.453
10701POPC   C2B71900  27.493   4.582   6.753
10701POPC   C3B71901  27.503   4.541   7.053
10701POPC   C4B71902  27.560   4.595   7.353
10702POPC   NC371903   6.602  19.846   5.553
10702POPC   PO471904   6.627  19.817   5.853
10702POPC   GL171905   6.620  19.884   6.153
10702POPC   GL271906   6.692  19.749   6.153
10702POPC   C1A71907   6.626  19.817   6.453
10702POPC   D2A71908   6.640  19.808   6.753
10702POPC   C3A71909   6.598  19.882   7.053
10702POPC   C4A71910   6.686  19.826   7.353
10702POPC   C1B71911   6.759  19.640   6.453
10702POPC   C2B71912   6.810  19.668   6.753
10702POPC   C3B71913   6.799  19.605   7.053
10702POPC   C4B71914   6.794  19.616   7.353
10703POPC   NC371915  24.480  39.208   5.553
10703POPC   PO471916  24.512  39.280   5.853
10703POPC   GL171917  24.464  39.182   6.153
10703POPC   GL271918  24.386  39.131   6.153
10703POPC   C1A71919  24.513  39.189   6.453
10703POPC   D2A71920  24.499  39.249   6.753
10703POPC   C3A71921  24.467  39.276   7.053
10703POPC   C4A71922  24.532  39.275   7.353
10703POPC   C1B71923  24.228  39.142   6.453
10703POPC   C2B71924  24.242  39.118   6.753
10703POPC   C3B71925  24.272  39.159   7.053
10703POPC   C4B71926  24.297  39.102   7.353
10704POPC   NC371927  26.865  36.090   5.553
10704POPC   PO471928  26.824  36.141   5.853
10704POPC   GL171929  26.792  36.143   6.153
10704POPC   GL271930  26.704  36.183   6.153
10704POPC   C1A71931  26.771  36.107   6.453
10704POPC   D2A71932  26.787  36.123   6.753
10704POPC   C3A71933  26.773  36.083   7.053
10704POPC   C4A71934  26.783  36.174   7.353
10704POPC   C1B71935  26.643  36.269   6.453
10704POPC   C2B71936  26.637  36.289   6.753
10704POPC   C3B71937  26.615  36.297   7.053
10704POPC   C4B71938  26.669  36.243   7.353
10705POPC   NC371939  33.051  24.531   5.553
10705POPC   PO471940  33.070  24.476   5.853
10705POPC   GL171941  33.026  24.482   6.153
10705POPC   GL271942  32.925  24.495   6.153
10705POPC   C1A71943  33.002  24.446   6.453
10705POPC   D2A71944  32.987  24.446   6.753
10705POPC   C3A71945  32.988  24.536   7.053
10705POPC   C4A71946  33.067  24.522   7.353
10705POPC   C1B71947  32.743  24.568   6.453
10705POPC   C2B71948  32.749  24.608   6.753
10705POPC   C3B71949  32.802  24.604   7.053
10705POPC   C4B71950  32.750  24.538   7.353
10706POPC   NC371951  40.807  36.094   5.553
10706POPC   PO471952  40.769  36.170   5.853
10706POPC   GL171953  40.742  36.177   6.153
10706POPC   GL271954  40.860  36.206   6.153
10706POPC   C1A71955  40.782  36.168   6.453
10706POPC   D2A71956  40.799  36.079   6.753
10706POPC   C3A71957  40.818  36.116   7.053
10706POPC   C4A71958  40.787  36.096   7.353
10706POPC   C1B71959  41.037  36.258   6.453
10706POPC   C2B71960  40.973  36.252   6.753
10706POPC   C3B71961  41.037  36.303   7.053
10706POPC   C4B71962  41.000  36.296   7.353
10707POPC   NC371963  44.701  33.007   5.553
10707POPC   PO471964  44.631  32.991   5.853
10707POPC   GL171965  44.665  33.013   6.153
10707POPC   GL271966  44.671  32.934   6.153
10707POPC   C1A71967  44.686  32.990   6.453
10707POPC   D2A71968  44.711  33.015   6.753
10707POPC   C3A71969  44.641  32.981   7.053
10707POPC   C4A71970  44.698  32.974   7.353
10707POPC   C1B71971  44.599  32.739   6.453
10707POPC   C2B71972  44.566  32.810   6.753
10707POPC   C3B71973  44.605  32.792   7.053
10707POPC   C4B71974  44.591  32.811   7.353
10708POPC   NC371975  12.065   6.673   5.553
10708POPC   PO471976  12.085   6.671   5.853
10708POPC   GL171977  12.044   6.600   6.153
10708POPC   GL271978  11.995   6.740   6.153
10708POPC   C1A71979  12.120   6.630   6.453
10708POPC   D2A71980  12.085   6.657   6.753
10708POPC   C3A71981  12.033   6.651   7.053
10708POPC   C4A71982  12.063   6.651   7.353
10708POPC   C1B71983  11.995   6.881   6.453
10708POPC   C2B71984  11.940   6.905   6.753
10708POPC   C3B71985  11.919   6.903   7.053
10708POPC   C4B71986  11.937   6.832   7.353
10709POPC   NC371987  11.263  12.076   5.553
10709POPC   PO471988  11.273  12.102   5.853
10709POPC   GL171989  11.318  12.114   6.153
10709POPC   GL271990  11.371  12.210   6.153
10709POPC   C1A71991  11.290  12.079   6.453
10709POPC   D2A71992  11.346  12.038   6.753
10709POPC   C3A71993  11.278  12.043   7.053
10709POPC   C4A71994  11.340  12.055   7.353
10709POPC   C1B71995  11.378  12.312   6.453
10709POPC   C2B71996  11.416  12.285   6.753
10709POPC   C3B71997  11.379  12.324   7.053
10709POPC   C4B71998  11.412  12.308   7.353
10710W        W71999  18.651  21.101   5.117
10711W        W72000  33.003  26.143   0.244
10712W        W72001  26.698   8.303  13.938
10713W        W72002  27.166   1.897  12.885
10714W        W72003   4.701  21.749   2.712
10715W        W72004  13.279  30.031  11.501
10716W        W72005   1.351  28.576   0.849
10717W        W72006  31.595  32.407   4.314
10718W        W72007  31.921  34.989   1.767
10719W        W72008  22.038  14.309   0.797
10720W        W72009   9.304  27.498   4.124
10721W        W72010  28.168   9.831  14.484
10722W        W72011   9.343  42.876  14.963
10723W        W72012   6.248  30.597   9.968
10724W        W72013  13.696  37.063  10.589
10725W        W72014  26.171  37.475  14.919
10726W        W72015   2.821  23.194  14.941
10727W        W72016  29.454  37.999  13.343
10728W        W72017   6.769  18.164  13.927
10729W        W72018  38.396   6.392  11.107
10730W        W72019  41.369  23.498   2.726
10731W        W72020   9.681   3.721  12.569
10732W        W72021  16.720  37.340  14.942
10733W        W72022  14.107  24.520   2.716
10734W        W72023  33.582  39.877  11.077
10735W        W72024   4.301  17.117  13.914
10736W        W72025  36.515  33.928  14.005
10737W        W72026  22.164  14.770   3.327
10738W        W72027   1.878  31.146  11.586
10739W        W72028  32.937   4.773   1.435
10740W        W72029  38.950   9.735   1.256
10741W        W72030  18.683  23.111   4.331
10742W        W72031  26.128  30.485   0.461
10743W        W72032  30.047  36.885  13.798
10744W        W72033  10.674  17.633   4.218
10745W        W72034  26.953  41.374   1.742
10746W        W72035   8.227   9.289   0.395
10747W        W72036  20.639  38.421  11.110
10748W        W72037  14.629   3.723   0.903
10749W        W72038  35.017  31.023   3.707
10750W        W72039  21.255   3.284  10.078
10751W        W72040   8.272  39.873  10.908
10752W        W72041  32.987  25.127  10.914
10753W        W72042   0.411  35.060   0.312
10754W        W72043  43.779  11.158   1.330
10755W        W72044  35.101  15.657  11.941
10756W        W72045   2.739  22.080   0.895
10757W        W72046   4.903  19.161  11.421
10758W        W72047  40.522  39.366  14.290
10759W        W72048  18.691  17.680   3.346
10760W        W72049   9.272  19.639  11.973
10761W        W72050  39.408  24.719  14.500
10762W        W72051  36.985  32.070   9.970
10763W        W72052   2.259  17.138   3.241
10764W        W72053  41.020  24.708  14.005
10765W        W72054  43.509  27.122  12.405
10766W        W72055   7.710  44.356  13.063
10767W        W72056  36.576  26.168  10.544
10768W        W72057  16.639   2.319  11.859
10769W        W72058   9.866  40.511  10.483
10770W        W72059  36.861  17.647   0.953
10771W        W72060  16.201  13.697  12.418
10772W        W72061  13.730  16.684  10.507
10773W        W72062  26.171  11.780   3.387
10774W        W72063  44.782  24.626  13.054
10775W        W72064  20.258   8.775  14.008
10776W        W72065  30.160   8.673   2.666
10777W        W72066   0.350  32.127  12.496
10778W        W72067  29.540  24.532  14.381
10779W        W72068   8.395  41.029   4.629
10780W        W72069   9.176  44.373   3.189
10781W        W72070  32.077  42.352   2.338
10782W        W72071  30.977  18.553  14.898
10783W        W72072   7.240  23.006  10.921
10784W        W72073  38.982  38.893   4.151
10785W        W72074  30.908  34.430  12.929
10786W        W72075  16.106  39.476   1.299
10787W        W72076   5.431  26.681  13.515
10788W        W72077  18.573   0.273  11.950
10789W        W72078  26.540  32.608   4.142
10790W        W72079  36.963   9.158   0.839
10791W        W72080  42.359   4.788  11.001
10792W        W72081  43.382  38.072  12.913
10793W        W72082   4.230  36.865  12.354
10794W        W72083  37.849  14.626   2.382
10795W        W72084  34.886  24.540   4.773
10796W        W72085  40.976   8.663  13.326
10797W        W72086  27.038   4.304   4.829
10798W        W72087  12.636  39.351   1.832
10799W        W72088   0.812   2.262   3.187
10800W        W72089   0.402  39.032   4.717
10801W        W72090  36.447  44.877   3.240
10802W        W72091  10.307  35.488  14.901
10803W        W72092   5.320  28.610  11.113
10804W        W72093  18.116   9.776   1.840
10805W        W72094  43.978  41.388  12.575
10806W        W72095  34.405  42.002   3.778
10807W        W72096  11.708  17.266   4.598
10808W        W72097  31.412  27.582   3.284
10809W        W72098   7.358  17.211   0.889
10810W        W72099  15.164   5.325  13.034
10811W        W72100  34.371  38.445  12.424
10812W        W72101   8.760  39.361  11.595
10813W        W72102  21.154  12.139  13.856
10814W        W72103  32.949  39.909   3.308
10815W        W72104  17.255  23.080   2.217
10816W        W72105  42.811  15.298  14.376
10817W        W72106  27.002  25.688  13.961
10818W        W72107  12.785  42.878  14.420
10819W        W72108   1.829  25.482   4.808
10820W        W72109   4.333   3.274  11.978
10821W        W72110  15.704  20.732   2.771
10822W        W72111  43.412  22.549   0.427
10823W        W72112  17.098   1.861   3.725
10824W        W72113  32.946  22.628   1.882
10825W        W72114  35.550   3.854   5.083
10826W        W72115  22.007  33.383  13.380
10827W        W72116  19.167  40.970  13.496
10828W        W72117  23.566  32.630   0.899
10829W        W72118  16.172  38.513  13.891
10830W        W72119   5.364  23.143   4.672
10831W        W72120  24.688  43.301  12.075
10832W        W72121  34.895   5.323  12.014
10833W        W72122  19.635   0.475  12.435
10834W        W72123  10.771  11.697  13.453
10835W        W72124   8.204   7.285  10.948
10836W        W72125  29.535   7.741  10.983
10837W        W72126   0.909  22.022  13.875
10838W        W72127  26.657  34.600   4.217
10839W        W72128   8.776   9.224  13.478
10840W        W72129   1.781  37.944   2.373
10841W        W72130  17.154   7.313  11.934
10842W        W72131   3.954  31.492  11.904
10843W        W72132  33.454   7.281   1.760
10844W        W72133  11.175  19.057  12.399
10845W        W72134  42.380  21.595   1.265
10846W        W72135  20.127  23.662   1.417
10847W        W72136  31.455  29.575  14.767
10848W        W72137   3.919  30.079   0.899
10849W        W72138  26.050  20.138   1.234
10850W        W72139  35.558   6.304  13.451
10851W        W72140  29.132  21.549  11.915
10852W        W72141   5.207  12.719   1.931
10853W        W72142  16.166  20.074   4.794
10854W        W72143  12.130  14.270  14.287
10855W        W72144  43.476   5.416  11.560
10856W        W72145   6.198   2.236   1.842
10857W        W72146  13.297  24.074   0.801
10858W        W72147  34.977  33.965   2.759
10859W        W72148  29.088  28.170   1.777
10860W        W72149  28.174  19.158  13.867
10861W        W72150   0.422   3.308  14.000
10862W        W72151  31.985  38.026  12.384
10863W        W72152  39.060  27.066   2.732
10864W        W72153  39.424   0.809   3.342
10865W        W72154  18.189   8.284  14.297
10866W        W72155   2.448  22.647  10.589
10867W        W72156  20.165  12.205   2.703
10868W        W72157  25.683   9.318   0.392
10869W        W72158  30.159  26.157  13.497
10870W        W72159   3.750   8.772   3.352
10871W        W72160   6.733  35.046   5.220
10872W        W72161   4.439  30.472   3.676
10873W        W72162  13.242  11.859   1.448
10874W        W72163  10.337  27.603  11.943
10875W        W72164  37.378  12.707   4.311
10876W        W72165  37.028   7.751  10.430
10877W        W72166   1.857  44.861   3.168
10878W        W72167   9.793  19.591   1.224
10879W        W72168  18.751  22.179   1.828
10880W        W72169  32.011  40.502  12.072
10881W        W72170  24.570  19.734  12.445
10882W        W72171  10.307  18.201   1.721
10883W        W72172   8.870  13.339  11.880
10884W        W72173   3.927  18.697  13.799
10885W        W72174  42.497  20.068  13.459
10886W        W72175  21.610  10.207  12.567
10887W        W72176  22.226   5.393   3.335
10888W        W72177  26.517  26.613   1.772
10889W        W72178  17.125   8.386  12.018
10890W        W72179  12.629  34.608  14.871
10891W        W72180  40.362   8.255  12.933
10892W        W72181  11.708  12.241   1.337
10893W        W72182   9.273  44.298   1.786
10894W        W72183  36.565   3.848  13.390
10895W        W72184  12.169  39.990   3.208
10896W        W72185  41.807  27.661   0.820
10897W        W72186   3.833   4.284   1.756
10898W        W72187   6.851  23.705  12.935
10899W        W72188  34.509  24.524  12.570
10900W        W72189  41.355  34.896   4.286
10901W        W72190  12.274  42.301   2.225
10902W        W72191  24.691  32.420   4.764
10903W        W72192   9.361  41.514  10.903
10904W        W72193   6.213  12.832  12.079
10905W        W72194  19.753  16.771  12.422
10906W        W72195   4.753  44.011  12.459
10907W        W72196  21.657  37.023   2.272
10908W        W72197   7.365  17.062  10.451
10909W        W72198  36.934  21.057  14.031
10910W        W72199  19.123  22.673   3.819
10911W        W72200   0.326  17.676  12.469
10912W        W72201  39.965  43.777   3.723
10913W        W72202  10.207  30.053  10.432
10914W        W72203  37.384  20.072  13.332
10915W        W72204   6.749  13.696   2.405
10916W        W72205  28.112   2.784  13.872
10917W        W72206  35.060  17.601  12.074
10918W        W72207  42.482  15.799  11.509
10919W        W72208   2.258  39.550   1.431
10920W        W72209  41.999  11.308   4.256
10921W        W72210  17.771  19.155   4.734
10922W        W72211  21.752  20.084  13.349
10923W        W72212   0.374  16.157  12.926
10924W        W72213  33.549  18.151   4.116
10925W        W72214  26.662  23.538   4.224
10926W        W72215  26.608  38.018  11.017
10927W        W72216  33.046   7.764   1.431
10928W        W72217  17.123  31.141   1.841
10929W        W72218  25.191  28.946   4.623
10930W        W72219   9.707  25.985  12.979
10931W        W72220  35.926  13.340  10.592
10932W        W72221  30.992  17.247  11.395
10933W        W72222  28.018  17.578   0.791
10934W        W72223   5.336  36.451   4.674
10935W        W72224   7.349  18.156   4.287
10936W        W72225  13.738  17.738  14.761
10937W        W72226   1.809  41.502   3.219
10938W        W72227  31.529  30.153   0.471
10939W        W72228  27.452  35.093   0.416
10940W        W72229   0.764  44.483  14.883
10941W        W72230  14.733  35.443   4.807
10942W        W72231   2.262  29.633  14.784
10943W        W72232   4.433  37.531  10.418
10944W        W72233  16.588  22.588   3.667
10945W        W72234  24.601  38.042   3.154
10946W        W72235  28.138   8.673   2.772
10947W        W72236  38.912  35.369   2.774
10948W        W72237  29.484  40.339   0.431
10949W        W72238   1.861  17.085   2.679
10950W        W72239  35.890  35.087  12.537
10951W        W72240  24.217   9.801   5.605
10952W        W72241  40.849  34.114   1.712
10953W        W72242  24.117  22.179  14.450
10954W        W72243  38.029   4.916  10.919
10955W        W72244   7.727  35.089   1.834
10956W        W72245   5.697  39.872   0.871
10957W        W72246  40.858   9.688  13.841
10958W        W72247  18.146  32.506  14.330
10959W        W72248  42.973  41.442   0.305
10960W        W72249  36.841  38.916  12.986
10961W        W72250  10.689   0.483   2.732
10962W        W72251  33.590  13.812   2.829
10963W        W72252  21.651  31.411  12.437
10964W        W72253  26.111  22.086  12.060
10965W        W72254   4.255  31.994   1.304
10966W        W72255  29.975  11.326  11.994
10967W        W72256  39.824   7.786   3.670
10968W        W72257   2.744   8.316  11.903
10969W        W72258  31.005   6.726   1.841
10970W        W72259  43.965   0.397   3.222
10971W        W72260   7.411  35.933  10.522
10972W        W72261  10.714  21.626  11.521
10973W        W72262  22.022   9.868   4.115
10974W        W72263  28.619  43.017  10.514
10975W        W72264   6.337  18.151  11.525
10976W        W72265   6.718  37.937  11.126
10977W        W72266  34.431  19.121   2.805
10978W        W72267  22.636  31.023  12.835
10979W        W72268  42.987  15.147  10.906
10980W        W72269   2.401  43.868   1.269
10981W        W72270   2.951  19.648   1.315
10982W        W72271  38.992  35.869   1.754
10983W        W72272  44.758  24.154   2.339
10984W        W72273  25.499  33.065   1.444
10985W        W72274   8.193   4.390  11.541
10986W        W72275   0.979   9.383   3.252
10987W        W72276   3.742  30.535  12.578
10988W        W72277   0.936   2.869   3.859
10989W        W72278   4.842  19.694   1.397
10990W        W72279  41.834  11.786  12.933
10991W        W72280  17.688  24.058  14.812
10992W        W72281  30.435  13.280  12.955
10993W        W72282   2.235   1.857  12.841
10994W        W72283  12.319  15.214  13.045
10995W        W72284  22.018  13.740   4.704
10996W        W72285  23.725  20.132   2.869
10997W        W72286   6.376   3.846  14.278
10998W        W72287  23.125  25.595   3.380
10999W        W72288  40.321   8.253   1.729
11000W        W72289  22.198  41.821   1.423
11001W        W72290  18.720  35.006   3.781
11002W        W72291  26.099  34.594  14.452
11003W        W72292  22.197  28.041  12.877
11004W        W72293  23.566  36.588   2.764
11005W        W72294  12.724  20.626   0.471
11006W        W72295  23.001   9.215   1.772
11007W        W72296  13.678  17.289  11.942
11008W        W72297  11.839  44.358  10.622
11009W        W72298  16.179  33.537   0.270
11010W        W72299  34.933   5.838  13.989
11011W        W72300   7.767  39.377   4.160
11012W        W72301  40.514  13.187   2.674
11013W        W72302   7.781  43.837   0.443
11014W        W72303  41.297  39.396   2.369
11015W        W72304  28.013  17.764   1.815
11016W        W72305  22.103  37.977  12.043
11017W        W72306  32.130  17.111   4.269
11018W        W72307   1.929  14.819  11.971
11019W        W72308  21.664  38.568   3.724
11020W        W72309   3.832  32.050  14.966
11021W        W72310  21.652   5.926  10.444
11022W        W72311  34.533  15.166   4.609
11023W        W72312  15.706  23.720  14.847
11024W        W72313  42.019  33.960  14.834
11025W        W72314  38.522  39.503   1.431
11026W        W72315   3.285  28.616   0.767
11027W        W72316  10.251  43.298   1.339
11028W        W72317   3.266  39.426   3.302
11029W        W72318  43.963   2.328   0.830
11030W        W72319  31.540  22.521  13.545
11031W        W72320   9.392  30.458   2.707
11032W        W72321  10.260  44.469   2.339
11033W        W72322  35.453  43.800   0.791
11034W        W72323  25.025  12.316   4.686
11035W        W72324  17.064   4.244  14.365
11036W        W72325  27.465  24.198   0.373
11037W        W72326   7.898   0.321  11.948
11038W        W72327  34.970  31.557  11.123
11039W        W72328  11.353  26.656   0.356
11040W        W72329  42.312  43.884   3.832
11041W        W72330   2.395   6.835  14.886
11042W        W72331  21.029  43.351   3.276
11043W        W72332  11.195  11.152  12.356
11044W        W72333   4.883  19.113   2.279
11045W        W72334  37.566  19.066   1.246
11046W        W72335  44.931  19.155  11.563
11047W        W72336  32.462  26.050  14.379
11048W        W72337   9.718  25.646   0.311
11049W        W72338  14.248  14.788  13.890
11050W        W72339   2.924  42.023  11.501
11051W        W72340  43.383   8.797  13.358
11052W        W72341  41.952  20.134  12.935
11053W        W72342  27.968   0.948  14.498
11054W        W72343  41.970  37.507  12.992
11055W        W72344  32.104  29.989  12.450
11056W        W72345  42.985  37.393   2.755
11057W        W72346  15.155  10.874  14.905
11058W        W72347  18.286  17.774  11.859
11059W        W72348  29.999  25.173  11.018
11060W        W72349  12.696   0.920  13.399
11061W        W72350  39.943  39.936   0.741
11062W        W72351  22.511   2.231   3.822
11063W        W72352   1.296  17.218  12.447
11064W        W72353  29.653  23.533   3.804
11065W        W72354  14.133  39.853  14.366
11066W        W72355   1.415  29.551   2.288
11067W        W72356  20.174  16.742   1.721
11068W        W72357  33.059  17.298  11.520
11069W        W72358   7.867   5.250   4.770
11070W        W72359  35.595  41.472  10.412
11071W        W72360  15.799  10.254   3.315
11072W        W72361  37.876  26.155   4.737
11073W        W72362  19.683  20.031   4.196
11074W        W72363   2.457   2.959   2.814
11075W        W72364  27.514  39.862  14.999
11076W        W72365  11.191   4.426   9.651
11077W        W72366  29.522  10.316   1.903
11078W        W72367  10.255  39.879  11.068
11079W        W72368  41.822  19.748  13.893
11080W        W72369   5.708  20.126  14.289
11081W        W72370   5.842  19.656  13.314
11082W        W72371  22.687  11.740   0.887
11083W        W72372  41.521  39.841  11.945
11084W        W72373   3.810  14.595   4.166
11085W        W72374  31.404  39.435  13.027
11086W        W72375   6.835  25.081   2.864
11087W        W72376   0.936  23.182   1.831
11088W        W72377  10.765  38.497  12.074
11089W        W72378  26.153  10.320   0.936
11090W        W72379   8.700  34.583   4.251
11091W        W72380   9.888  29.432   2.248
11092W        W72381   3.283  27.577   0.769
11093W        W72382  43.366  15.182  13.003
11094W        W72383  44.474  32.111   2.233
11095W        W72384  38.866   0.938  12.531
11096W        W72385  28.055  28.462   4.310
11097W        W72386  21.641   4.821  10.427
11098W        W72387  15.634  21.186  13.452
11099W        W72388  28.538  42.411  14.391
11100W        W72389  28.931  19.254  11.577
11101W        W72390  18.077   3.941  10.464
11102W        W72391  43.291  29.010   2.185
11103W        W72392  16.628  43.864  13.427
11104W        W72393  39.348  34.011  13.471
11105W        W72394  31.982  44.007   2.769
11106W        W72395   9.377  14.259   3.675
11107W        W72396  24.073  33.569  12.507
11108W        W72397  14.172  17.667   3.229
11109W        W72398  44.884  38.939  13.354
11110W        W72399   3.780  44.336   2.268
11111W        W72400  19.656  29.126  12.008
11112W        W72401  23.661  22.603   3.737
11113W        W72402  37.569  20.574  12.384
11114W        W72403  35.011   4.246   2.347
11115W        W72404  33.975  39.418   1.293
11116W        W72405  14.829  28.620   2.798
11117W        W72406  20.769  39.488  12.065
11118W        W72407  22.616  24.647   0.477
11119W        W72408  43.303  34.534   3.866
11120W        W72409  14.314  29.457   3.373
11121W        W72410  26.461  19.765  12.542
11122W        W72411  18.059  33.458  12.033
11123W        W72412  14.260  13.333  12.996
11124W        W72413   9.698   8.881   5.092
11125W        W72414  12.245  22.124   2.681
11126W        W72415  15.207  11.229   3.209
11127W        W72416  24.496   4.857   2.818
11128W        W72417  27.117  10.279   1.370
11129W        W72418   3.779  21.694  13.344
11130W        W72419   8.165  32.894   0.398
11131W        W72420  28.186  29.123  10.137
11132W        W72421  30.047  13.223   1.249
11133W        W72422  29.076  18.281   2.318
11134W        W72423  44.321  20.186  12.400
11135W        W72424  24.200  30.640  12.537
11136W        W72425  17.140  39.498   2.872
11137W        W72426  35.922  26.686   4.249
11138W        W72427   9.389  31.617   2.816
11139W        W72428  14.170  25.212   3.172
11140W        W72429  25.681  44.995  11.486
11141W        W72430  37.977  36.062   0.779
11142W        W72431  23.196   0.764   0.888
11143W        W72432  44.922   7.315  11.525
11144W        W72433  34.521   2.757  14.776
11145W        W72434  34.468  28.027  12.067
11146W        W72435   7.337  31.419  12.870
11147W        W72436  34.066  16.704   3.194
11148W        W72437  17.607   9.175   1.733
11149W        W72438  18.716   4.816  14.308
11150W        W72439  18.605  17.105   0.798
11151W        W72440  25.526   9.387  11.558
11152W        W72441  32.887  16.243   2.307
11153W        W72442  34.571  28.992  12.974
11154W        W72443  37.522  24.676  13.518
11155W        W72444  21.695   6.271   2.832
11156W        W72445  23.636  12.290   0.929
11157W        W72446  38.548   6.401  11.909
11158W        W72447  14.799   0.965  12.408
11159W        W72448  25.475  44.463  11.896
11160W        W72449  35.487  15.685   0.805
11161W        W72450   3.423  23.049   3.240
11162W        W72451  10.159   7.389  14.299
11163W        W72452   3.820  20.036  12.516
11164W        W72453   8.278   6.224  10.991
11165W        W72454  36.977  39.889  14.779
11166W        W72455   7.906  17.214  14.992
11167W        W72456  33.410  15.254   1.783
11168W        W72457  11.627  43.475  14.016
11169W        W72458   3.734  29.942  14.765
11170W        W72459  16.082  44.354  14.276
11171W        W72460  19.768  36.531  10.589
11172W        W72461  29.927   3.273   4.146
11173W        W72462  41.395  31.506  14.933
11174W        W72463  20.701  37.399  14.918
11175W        W72464  29.919  16.579  13.464
11176W        W72465  44.932  37.961   3.714
11177W        W72466  29.095  13.740   2.254
11178W        W72467   7.406  41.786   0.456
11179W        W72468  15.747   6.711  10.493
11180W        W72469   0.848  32.584   4.831
11181W        W72470  40.307  30.072  14.909
11182W        W72471  22.689  16.797  12.462
11183W        W72472  34.997  23.544  11.468
11184W        W72473  31.528  13.188   0.297
11185W        W72474  30.075  40.462  13.487
11186W        W72475  38.036   4.887   0.465
11187W        W72476  12.647  26.698  10.931
11188W        W72477  25.128  35.415  13.390
11189W        W72478  39.474  22.070  13.432
11190W        W72479  26.178  34.481   3.227
11191W        W72480   1.416  28.975   2.279
11192W        W72481  22.026  34.600  10.551
11193W        W72482  11.718  28.485   4.133
11194W        W72483   2.727  22.585  10.541
11195W        W72484   6.772  13.143  11.611
11196W        W72485  10.365  15.311  14.018
11197W        W72486  38.388  22.065   4.620
11198W        W72487   4.703   8.758   4.309
11199W        W72488  15.751  30.914  10.511
11200W        W72489   2.858  38.545  11.915
11201W        W72490  22.628  28.664   2.827
11202W        W72491   1.859  41.381  12.402
11203W        W72492  20.608  23.593  12.423
11204W        W72493  40.798  30.018  14.974
11205W        W72494  15.595   1.901  11.953
11206W        W72495  16.075  30.575  12.877
11207W        W72496  17.299  38.347  11.027
11208W        W72497  43.348   7.671  13.451
11209W        W72498   5.736  25.494  13.967
11210W        W72499  36.009   8.264  14.831
11211W        W72500   2.885  44.467   3.800
11212W        W72501  18.558  44.853   4.232
11213W        W72502   3.380  40.349   1.305
11214W        W72503   5.294  33.992  12.037
11215W        W72504   8.252  36.907  11.878
11216W        W72505  11.162  40.390   1.426
11217W        W72506  39.878  36.938   1.397
11218W        W72507  21.522  10.814  12.023
11219W        W72508  26.648  37.971   1.405
11220W        W72509  14.649  11.740  14.767
11221W        W72510  38.404  33.536  11.492
11222W        W72511  34.023  28.125  12.841
11223W        W72512  27.033  13.240  14.281
11224W        W72513   3.908  33.601   2.253
11225W        W72514  18.786  13.716  13.920
11226W        W72515  18.648  14.624   2.352
11227W        W72516  21.581  28.162  12.837
11228W        W72517  28.125  32.489   0.834
11229W        W72518  24.627  28.112   0.280
11230W        W72519  19.060  28.972   1.724
11231W        W72520  27.632  27.626   0.930
11232W        W72521  18.726   1.795   2.391
11233W        W72522  18.060  41.412   0.371
11234W        W72523  42.360   4.395   3.265
11235W        W72524  21.577  34.554   2.812
11236W        W72525  33.404  20.061   1.885
11237W        W72526  14.804  44.991  12.922
11238W        W72527   9.387  13.602  14.848
11239W        W72528  18.547   0.841  13.851
11240W        W72529  23.179   9.696  13.835
11241W        W72530  11.348   0.834  12.404
11242W        W72531  31.015  31.934   4.686
11243W        W72532  33.567  30.992  13.523
11244W        W72533  32.484  28.042  14.354
11245W        W72534  20.719  24.075   2.696
11246W        W72535  12.726  36.406   1.279
11247W        W72536  10.200  38.511  12.339
11248W        W72537  21.580   2.857   2.195
11249W        W72538   5.859  42.946  14.488
11250W        W72539  30.112  38.435  11.898
11251W        W72540  17.646  33.463  10.566
11252W        W72541  27.646  41.351   3.264
11253W        W72542  29.542  43.829   0.419
11254W        W72543  41.452  23.193  12.380
11255W        W72544  20.701  41.323   1.256
11256W        W72545  38.910  40.367  12.947
11257W        W72546  28.045  10.764   2.743
11258W        W72547  42.780   8.184  10.584
11259W        W72548  19.779  21.045  12.475
11260W        W72549  14.235   0.407  12.966
11261W        W72550   8.294  41.979  14.863
11262W        W72551  41.871   8.732   3.740
11263W        W72552  33.926  43.937  13.369
11264W        W72553  33.475  30.537   4.208
11265W        W72554  14.725  11.650   0.355
11266W        W72555   3.940   5.835   1.749
11267W        W72556  17.687  33.548   3.217
11268W        W72557   4.726  32.915   0.374
11269W        W72558   1.368  34.406   2.267
11270W        W72559   6.870   4.296   1.319
11271W        W72560   1.480  20.762  13.495
11272W        W72561   0.749   0.897  11.484
11273W        W72562  14.666  31.139   3.341
11274W        W72563  31.546  40.442   2.369
11275W        W72564  26.617  30.615  13.799
11276W        W72565  32.020  26.061  12.923
11277W        W72566   1.402  23.517  11.071
11278W        W72567  38.036  30.084   1.780
11279W        W72568  14.623   1.890   3.686
11280W        W72569  40.513  17.575  12.012
11281W        W72570  20.029  21.151  14.312
11282W        W72571  39.953  29.658   3.255
11283W        W72572  43.271  15.595   3.328
11284W        W72573  16.268   2.246  14.422
11285W        W72574  26.594  20.705   2.405
11286W        W72575  30.043  31.513  14.475
11287W        W72576   8.174  23.612   9.974
11288W        W72577  42.893  41.303  12.357
11289W        W72578  34.890   2.753   3.269
11290W        W72579  28.646   2.409  11.468
11291W        W72580  18.609  38.559  10.142
11292W        W72581   9.151  40.412  13.920
11293W        W72582  19.675  26.567  11.991
11294W        W72583  39.403  29.094   3.762
11295W        W72584  32.400   6.731   3.691
11296W        W72585  34.938  12.146   0.820
11297W        W72586  18.281  39.424  11.527
11298W        W72587  41.861  15.184  12.560
11299W        W72588   7.328  41.799   2.867
11300W        W72589  20.690  13.324  13.994
11301W        W72590  19.674  41.418   4.177
11302W        W72591   7.735  35.523   3.148
11303W        W72592  39.535   9.657   1.236
11304W        W72593  29.088  12.262  13.399
11305W        W72594  14.703  16.728  14.927
11306W        W72595  23.025  44.004  13.902
11307W        W72596  37.465  18.718   0.904
11308W        W72597   1.284  44.781   1.248
11309W        W72598  37.557   1.850  14.785
11310W        W72599  31.017   1.288  12.428
11311W        W72600  41.851   9.259  13.809
11312W        W72601  12.213  15.658   2.379
11313W        W72602  32.609   8.282   4.831
11314W        W72603  41.478  43.313   0.823
11315W        W72604  22.080  13.823   1.407
11316W        W72605  14.248   1.836  10.494
11317W        W72606  22.051   6.784   1.326
11318W        W72607  12.810   7.300  14.299
11319W        W72608  12.842   8.271   3.244
11320W        W72609  21.590  10.247   2.335
11321W        W72610  35.385  44.970  10.569
11322W        W72611   7.261  25.517   1.703
11323W        W72612  13.106  32.081  10.441
11324W        W72613  20.238  24.647  11.010
11325W        W72614  34.369  16.760   3.234
11326W        W72615  26.565   5.288  14.928
11327W        W72616   8.273   2.741   0.925
11328W        W72617  26.965   8.790  12.037
11329W        W72618  10.286  32.532   3.767
11330W        W72619  33.917  30.012   3.259
11331W        W72620  16.081   6.733   3.290
11332W        W72621   7.849  19.147   0.941
11333W        W72622  36.005  44.449  14.509
11334W        W72623  24.179   1.383  11.432
11335W        W72624  36.065  27.570   1.414
11336W        W72625   6.809  38.338   1.777
11337W        W72626  16.086  42.938   2.217
11338W        W72627  36.060  16.218   2.773
11339W        W72628   2.388  24.077   1.847
11340W        W72629  40.028  32.101  11.489
11341W        W72630  22.690   7.230  12.552
11342W        W72631   1.900  25.195   0.255
11343W        W72632  13.151   1.855  14.863
11344W        W72633  20.217  20.689   3.364
11345W        W72634  39.954  25.672  12.431
11346W        W72635  22.627  16.262  12.550
11347W        W72636  31.479  20.564   0.811
11348W        W72637   1.780  43.993  11.097
11349W        W72638  29.502  36.867   0.310
11350W        W72639  40.842  26.458  14.329
11351W        W72640  16.738  34.459  12.049
11352W        W72641  16.713  44.962  11.397
11353W        W72642  24.978  23.202   3.212
11354W        W72643  15.646  13.213   0.966
11355W        W72644  37.577  33.053   3.355
11356W        W72645   2.801   9.786  10.518
11357W        W72646  15.156  15.219   1.404
11358W        W72647  13.816   3.448  13.308
11359W        W72648  36.029  42.489   4.136
11360W        W72649  13.163  25.558  12.041
11361W        W72650  40.908  30.942  12.009
11362W        W72651  22.536  44.926  13.978
11363W        W72652  36.098  28.037  13.446
11364W        W72653  41.906  14.800  12.883
11365W        W72654  16.211  37.034  13.935
11366W        W72655  44.407  44.890  12.976
11367W        W72656  21.255  15.704  13.014
11368W        W72657   1.837  31.450  14.281
11369W        W72658  27.619  40.976  13.905
11370W        W72659  43.889  24.489   0.331
11371W        W72660  31.605  40.458  12.947
11372W        W72661  36.842   7.175   0.350
11373W        W72662  41.921  26.496   2.754
11374W        W72663  25.967   7.238  14.770
11375W        W72664  20.695  27.045  10.912
11376W        W72665  15.100   4.836   4.617
11377W        W72666   3.761   9.791  12.350
11378W        W72667   6.919  22.546  10.479
11379W        W72668  20.768  31.975   1.752
11380W        W72669  21.109  19.554  10.022
11381W        W72670  24.613  24.213  14.962
11382W        W72671  14.601  35.364   3.852
11383W        W72672   1.888  31.897  13.979
11384W        W72673  32.009  22.058  11.902
11385W        W72674  12.284  26.599   3.346
11386W        W72675  37.396  18.657   3.727
11387W        W72676   5.694   0.875   1.869
11388W        W72677  17.299  37.378   2.336
11389W        W72678  39.918  23.685  14.478
11390W        W72679  36.482  28.461   3.241
11391W        W72680  37.891  27.006  10.941
11392W        W72681  19.181  39.996  11.584
11393W        W72682  30.912  29.627  10.148
11394W        W72683  27.554  31.456   0.317
11395W        W72684  40.490  44.482  14.441
11396W        W72685  16.690   4.450  12.354
11397W        W72686  43.809   3.302   2.210
11398W        W72687  16.149  31.535   2.833
11399W        W72688  13.111  14.774  14.904
11400W        W72689  16.576  22.073   1.867
11401W        W72690   7.668  31.952   2.782
11402W        W72691  13.765  12.664  10.407
11403W        W72692   5.196   4.930  13.389
11404W        W72693  14.338  32.132  13.426
11405W        W72694   8.685  32.070   1.355
11406W        W72695  44.333  35.044   4.662
11407W        W72696  18.241  14.716   2.902
11408W        W72697  10.720   3.450  12.963
11409W        W72698  11.675   9.162   2.200
11410W        W72699  23.511  25.105   4.222
11411W        W72700  29.523  10.730  10.426
11412W        W72701  30.981  14.772  13.539
11413W        W72702   7.181   7.357  10.951
11414W        W72703  31.459  19.537   1.802
11415W        W72704  44.844  25.174   4.200
11416W        W72705  32.985   9.165   4.207
11417W        W72706  35.910  25.998  12.982
11418W        W72707  11.198  25.475   4.781
11419W        W72708  20.245  33.506  14.315
11420W        W72709  36.555  11.255   1.804
11421W        W72710  21.220   9.654  13.827
11422W        W72711  13.627  23.576  14.425
11423W        W72712  12.853   3.395   2.187
11424W        W72713   1.842   4.253  12.363
11425W        W72714  27.677   4.313   0.320
11426W        W72715  28.499  40.940  12.824
11427W        W72716  11.201  17.600  11.422
11428W        W72717  11.658  38.830  11.518
11429W        W72718   0.917   8.799   2.267
11430W        W72719  37.516  35.566   2.770
11431W        W72720  24.488  34.385   2.681
11432W        W72721   0.784   6.921   1.895
11433W        W72722  17.305  38.528   0.773
11434W        W72723  27.973  17.063   0.269
11435W        W72724  19.109  16.695   4.719
11436W        W72725  37.516  14.292  11.483
11437W        W72726  12.755  40.420   1.345
11438W        W72727  27.620  18.154   2.210
11439W        W72728  25.521  32.444  11.119
11440W        W72729  14.637  38.007   1.890
11441W        W72730  36.069  20.053   3.742
11442W        W72731  33.925   4.344   4.659
11443W        W72732  29.168   8.391   2.793
11444W        W72733  33.935  39.515   3.202
11445W        W72734  21.713  25.561   4.346
11446W        W72735   1.878  19.624   0.359
11447W        W72736  30.503  12.805  10.470
11448W        W72737  11.136  37.409  12.551
11449W        W72738  17.769  39.821   4.709
11450W        W72739  44.469  29.003  10.460
11451W        W72740  33.109  10.219  13.475
11452W        W72741  36.872  14.698   1.231
11453W        W72742  31.928  31.000  14.313
11454W        W72743  34.592   2.360  14.030
11455W        W72744   1.829   4.871   0.750
11456W        W72745   1.948   0.948  10.639
11457W        W72746  22.194  43.510  14.374
11458W        W72747   1.439  28.955  12.397
11459W        W72748  27.186  15.170   0.912
11460W        W72749  24.689  24.163   1.382
11461W        W72750  17.066  39.860   3.695
11462W        W72751  28.451  32.448  14.454
11463W        W72752  32.107  14.187   0.886
11464W        W72753  42.363  31.607  10.495
11465W        W72754  21.524  29.484  11.084
11466W        W72755  39.895   7.750  10.591
11467W        W72756  21.065  45.000  13.534
11468W        W72757  23.515   7.243  14.821
11469W        W72758  39.336   2.801   0.765
11470W        W72759  15.308  27.095   3.280
11471W        W72760   9.791   8.866  10.932
11472W        W72761  12.664  35.957  14.787
11473W        W72762  36.487   9.837   4.318
11474W        W72763  12.299  22.029   1.423
11475W        W72764  18.283   4.745   3.710
11476W        W72765  42.526   1.482   0.787
11477W        W72766  12.360  17.618  13.945
11478W        W72767  21.159  21.181  14.930
11479W        W72768  26.636  34.566   1.218
11480W        W72769  34.051   1.267  12.396
11481W        W72770  27.548  42.017   3.651
11482W        W72771  14.787  20.586  11.378
11483W        W72772   5.416  37.087  11.479
11484W        W72773  29.156  27.674   1.918
11485W        W72774  24.599  27.551   3.274
11486W        W72775  44.333  23.182  11.904
11487W        W72776  35.459  20.174  13.339
11488W        W72777  40.978   4.431   3.248
11489W        W72778  10.283   7.319  13.532
11490W        W72779  23.084  26.653  14.825
11491W        W72780  34.948  44.866  12.977
11492W        W72781   2.423  43.986  12.939
11493W        W72782  33.484  40.826   4.214
11494W        W72783  14.621  40.872  14.876
11495W        W72784   7.308   2.783  13.499
11496W        W72785  31.492  36.032   3.275
11497W        W72786  28.039  27.593  13.380
11498W        W72787  29.031  12.755   4.348
11499W        W72788  25.493   9.267  14.866
11500W        W72789  38.454   9.236  14.325
11501W        W72790   5.786  30.625  13.928
11502W        W72791  16.633  40.317   1.379
11503W        W72792  37.478   2.235   3.214
11504W        W72793   4.355   8.726   1.301
11505W        W72794  30.968  30.452   0.766
11506W        W72795  10.673  21.056  10.027
11507W        W72796  12.626   0.785  14.843
11508W        W72797  19.089   4.327  13.325
11509W        W72798   5.344  39.492   4.312
11510W        W72799  32.018   4.904  10.922
11511W        W72800  38.819  26.521   4.649
11512W        W72801   8.817   2.785  13.795
11513W        W72802   6.413  15.166  13.497
11514W        W72803  10.861  29.610   2.876
11515W        W72804  10.168  23.191  12.994
11516W        W72805   3.836  24.024   0.753
11517W        W72806   7.908   8.748  10.574
11518W        W72807  19.659  33.050  13.533
11519W        W72808  15.791  10.694  13.814
11520W        W72809  13.280  39.315  12.428
11521W        W72810  44.996  23.206  13.931
11522W        W72811  18.784  35.568   3.146
11523W        W72812   3.443  41.924   0.429
11524W        W72813  38.364  22.028   0.954
11525W        W72814  21.114   9.157   1.447
11526W        W72815  40.502   6.296  11.027
11527W        W72816  31.078  39.004  12.492
11528W        W72817  25.025   7.768  11.023
11529W        W72818  10.178   3.417  12.354
11530W        W72819  15.219  24.662  12.456
11531W        W72820  22.145  14.339  13.946
11532W        W72821  32.420  18.211  12.401
11533W        W72822  39.446  43.279  11.593
11534W        W72823  40.818  40.473  13.428
11535W        W72824  31.027  28.580  10.423
11536W        W72825  10.845   5.776  10.935
11537W        W72826  37.077  23.031   3.838
11538W        W72827  12.240  15.749  13.019
11539W        W72828  38.564  18.089   1.835
11540W        W72829  32.552  42.029   3.685
11541W        W72830  17.576   1.282  11.113
11542W        W72831  27.020  32.071  11.973
11543W        W72832   4.801  41.406   0.834
11544W        W72833   9.862  33.540  14.859
11545W        W72834  24.223  11.820  13.021
11546W        W72835  28.124  24.649   3.798
11547W        W72836  24.974   6.804  12.473
11548W        W72837  28.027   3.950   1.344
11549W        W72838  20.545  24.012   1.933
11550W        W72839  22.693  28.528   4.307
11551W        W72840  41.865  19.040   0.736
11552W        W72841  24.127  32.044   0.871
11553W        W72842  28.109  36.569   3.147
11554W        W72843  35.495   2.954   3.722
11555W        W72844   0.405  21.656   2.298
11556W        W72845  35.451   6.247  11.992
11557W        W72846  41.332  34.434   3.853
11558W        W72847  15.247  15.714   2.372
11559W        W72848   6.685  16.280  13.022
11560W        W72849   5.405  13.658  14.465
11561W        W72850  36.873  26.022   3.646
11562W        W72851  10.285   3.897   1.722
11563W        W72852  13.180   2.425   3.798
11564W        W72853  42.879   8.278   1.813
11565W        W72854  33.541  32.529   4.188
11566W        W72855  32.034  44.407   3.312
11567W        W72856  26.193   4.425  13.487
11568W        W72857  19.761  41.468   2.830
11569W        W72858  30.627  25.663  12.090
11570W        W72859  18.660  20.242   2.391
11571W        W72860  16.259  31.130  11.569
11572W        W72861  41.864  42.858  11.436
11573W        W72862  35.476  32.400   1.241
11574W        W72863   2.831  20.738   3.708
11575W        W72864  32.050  19.749   4.693
11576W        W72865  32.418   4.797  13.989
11577W        W72866  27.635  44.882  10.606
11578W        W72867   0.815  31.913   1.855
11579W        W72868  43.355  19.541  12.480
11580W        W72869  31.626   5.850  13.334
11581W        W72870  20.082   0.831   1.443
11582W        W72871  17.274   9.369   4.122
11583W        W72872  24.695  44.337  11.041
11584W        W72873  31.041  24.529   1.281
11585W        W72874  16.648  25.612   4.150
11586W        W72875  14.754   6.813   4.310
11587W        W72876  25.034  14.765   1.330
11588W        W72877  36.058  18.598  11.035
11589W        W72878  12.195   1.284   4.643
11590W        W72879  27.055   1.884  12.460
11591W        W72880  26.668  39.521  13.422
11592W        W72881  19.666  39.511  13.862
11593W        W72882  33.915  39.052  12.889
11594W        W72883  30.476   4.932  12.439
11595W        W72884  14.797  16.640  12.912
11596W        W72885   7.763  43.318  13.834
11597W        W72886  25.650   9.758  12.062
11598W        W72887  42.980  30.424   2.246
11599W        W72888  30.933  12.307  10.410
11600W        W72889  28.586  35.414  14.397
11601W        W72890  19.111   1.847   0.332
11602W        W72891   5.319   0.275  10.914
11603W        W72892  18.277   7.214  12.911
11604W        W72893  10.233  44.329   0.252
11605W        W72894  37.893  41.415  13.021
11606W        W72895  18.071  12.836  13.426
11607W        W72896  17.231   3.252  10.104
11608W        W72897   5.763  19.699   0.450
11609W        W72898  30.060  40.359   2.330
11610W        W72899  39.523  22.704  12.048
11611W        W72900  15.812  15.142  10.459
11612W        W72901  31.918   0.277  11.480
11613W        W72902   6.835  36.531   4.745
11614W        W72903  29.661  34.464   3.250
11615W        W72904  42.798  44.468   0.946
11616W        W72905  23.676  22.051   1.837
11617W        W72906  27.574  28.099   2.663
11618W        W72907   9.160   7.708   0.318
11619W        W72908  39.846  44.471   2.891
11620W        W72909   7.417   4.859  10.570
11621W        W72910  38.409  10.352   2.665
11622W        W72911   6.379   9.776   4.145
11623W        W72912  39.818   2.304   4.724
11624W        W72913   7.824  34.036   0.248
11625W        W72914  24.173   5.358  10.963
11626W        W72915  44.312  25.009   1.827
11627W        W72916  29.520  10.291   0.830
11628W        W72917  40.342   2.309   1.385
11629W        W72918  15.762  11.638   1.779
11630W        W72919  16.302   7.250   3.175
11631W        W72920  36.045  26.171   4.279
11632W        W72921   1.251  14.099  13.370
11633W        W72922   3.233  14.591  14.920
11634W        W72923   9.345  43.488  12.496
11635W        W72924  19.166   1.915  12.006
11636W        W72925  33.419  42.427  13.325
11637W        W72926  40.494   9.346   4.697
11638W        W72927  27.085  20.149   0.386
11639W        W72928  37.360  36.570  11.952
11640W        W72929  20.072  41.400   3.732
11641W        W72930  21.232  13.344  11.930
11642W        W72931   9.171  12.841  14.832
11643W        W72932  37.516  39.522   0.815
11644W        W72933   0.926  25.043   9.971
11645W        W72934  10.222  18.730  10.154
11646W        W72935   3.867   9.304  11.413
11647W        W72936  29.549  21.710  11.466
11648W        W72937  34.566  14.767   1.777
11649W        W72938  19.758  10.697   0.414
11650W        W72939   5.360   1.879   1.733
11651W        W72940  19.053   1.387  12.078
11652W        W72941  34.926  13.237   2.876
11653W        W72942   0.275  39.502   1.886
11654W        W72943  42.799  26.590  12.965
11655W        W72944  27.549  26.640  13.804
11656W        W72945  33.052  13.146  10.462
11657W        W72946  20.557   6.426  13.410
11658W        W72947  19.064  37.401   4.818
11659W        W72948  31.534  26.159   3.760
11660W        W72949  29.496  17.294   2.826
11661W        W72950  19.553   9.687  11.436
11662W        W72951  11.361  35.036   1.856
11663W        W72952  39.390  27.126  12.846
11664W        W72953  44.828   6.745  11.453
11665W        W72954   6.424  27.061   0.441
11666W        W72955   4.932  13.807   3.661
11667W        W72956  19.607  11.700   4.602
11668W        W72957  10.364  40.487  13.458
11669W        W72958  13.163  36.545   5.241
11670W        W72959  37.564   7.410  12.014
11671W        W72960  14.235  15.761   2.210
11672W        W72961  10.790  11.743  11.092
11673W        W72962   9.230  16.785  14.308
11674W        W72963  39.400  40.920  11.881
11675W        W72964   4.806  13.206  13.394
11676W        W72965   3.266  21.705  11.036
11677W        W72966  10.792  43.317  13.813
11678W        W72967   0.837  24.012   5.156
11679W        W72968   3.807   6.198  10.897
11680W        W72969  28.583  11.184  13.327
11681W        W72970  44.987  36.873  14.301
11682W        W72971  20.688   5.697  13.943
11683W        W72972   1.373   2.424  12.502
11684W        W72973  27.464  39.869  14.475
11685W        W72974   8.404   2.339  12.929
11686W        W72975   0.265  14.314  12.406
11687W        W72976  32.042  14.223  10.487
11688W        W72977  29.496   8.372   2.778
11689W        W72978  35.953  40.960   3.788
11690W        W72979  20.532  22.653   4.333
11691W        W72980   7.771  35.090   3.183
11692W        W72981  18.696  36.431   1.709
11693W        W72982  24.179   6.222   2.781
11694W        W72983   8.712  27.152   5.097
11695W        W72984  21.224   8.780  13.322
11696W        W72985  37.561  17.621   0.739
11697W        W72986   8.312  11.745  13.383
11698W        W72987  18.738  13.715  14.397
11699W        W72988   5.306  35.453   0.274
11700W        W72989  25.092  33.388  11.063
11701W        W72990  10.661  27.510   2.377
11702W        W72991   0.361  10.666   2.362
11703W        W72992  27.680  42.298   4.191
11704W        W72993  38.494  20.203   4.247
11705W        W72994  28.067  38.400  13.489
11706W        W72995  15.167  14.093   0.317
11707W        W72996   6.421  17.216  12.520
11708W        W72997   7.259  43.330   3.651
11709W        W72998  20.704  33.483   4.639
11710W        W72999  42.492   5.221  11.526
11711W        W73000  39.481  39.950  14.975
11712W        W73001   3.828  19.689  11.058
11713W        W73002  26.600  27.478   4.717
11714W        W73003  16.306  41.928  11.965
11715W        W73004   5.219  10.814  12.930
11716W        W73005  39.876  25.210  11.988
11717W        W73006  35.020  33.883  11.507
11718W        W73007   3.415   1.785  11.466
11719W        W73008   8.218  33.970  12.576
11720W        W73009  35.962  44.948   1.343
11721W        W73010  21.019  17.227   0.302
11722W        W73011  37.336   9.390   4.268
11723W        W73012  30.155  14.336   3.236
11724W        W73013  16.658  19.748  14.488
11725W        W73014  21.617  29.563  13.942
11726W        W73015  23.563  43.922   1.732
11727W        W73016  21.617  36.375  10.451
11728W        W73017   8.780  33.069  12.071
11729W        W73018   0.832   1.875   2.681
11730W        W73019  40.313  39.352  12.438
11731W        W73020  37.541  22.531  12.946
11732W        W73021  24.656   7.727   4.335
11733W        W73022  21.741  34.988  14.359
11734W        W73023  14.801   4.283  14.292
11735W        W73024  44.435  33.013  13.052
11736W        W73025  44.408  40.964  13.470
11737W        W73026   4.224  10.383   4.839
11738W        W73027  30.081  29.578  11.396
11739W        W73028  12.352  18.064   4.757
11740W        W73029  36.014  33.879  12.028
11741W        W73030   7.804  43.402  12.502
11742W        W73031  11.707   7.302   2.726
11743W        W73032   8.356  18.136   2.879
11744W        W73033   6.366  28.582  14.932
11745W        W73034  32.554   7.382   0.452
11746W        W73035  32.572  10.247   2.178
11747W        W73036  42.439  44.992   2.677
11748W        W73037   3.370   5.239   1.396
11749W        W73038  37.347   5.882  11.105
11750W        W73039  11.868  20.091  11.403
11751W        W73040  20.752  18.265   3.262
11752W        W73041  13.726  20.644  10.949
11753W        W73042  35.598   6.196   0.846
11754W        W73043  11.238   3.382   4.130
11755W        W73044   5.331   8.376   0.392
11756W        W73045   2.400  12.658   0.311
11757W        W73046  23.988  13.810   4.198
11758W        W73047   6.783  26.981   1.315
11759W        W73048  14.335  42.032  14.926
11760W        W73049  43.299  21.239   2.185
11761W        W73050  31.091  20.569   3.658
11762W        W73051  27.960  15.310  13.808
11763W        W73052  16.701  24.582   4.201
11764W        W73053  20.257  24.110   2.757
11765W        W73054  11.337  15.318   1.228
11766W        W73055  44.310   8.693  13.966
11767W        W73056  22.682  36.576  13.877
11768W        W73057  21.057   0.414  11.919
11769W        W73058  42.474  26.082   1.813
11770W        W73059  39.864   7.380  12.852
11771W        W73060  33.040   8.194   1.702
11772W        W73061  39.460  27.463   0.318
11773W        W73062  34.881  40.492   3.151
11774W        W73063  14.636  26.527   4.637
11775W        W73064  10.652  16.173   4.316
11776W        W73065  31.078   3.255   1.416
11777W        W73066  31.465   6.768  11.962
11778W        W73067  15.773   4.716  10.425
11779W        W73068   9.671  33.906  11.997
11780W        W73069   6.886   2.464   2.225
11781W        W73070  41.523   6.392   3.328
11782W        W73071  43.381  21.591   0.385
11783W        W73072  33.513  30.489   0.460
11784W        W73073  31.462   5.751  10.906
11785W        W73074  42.007  41.894  11.964
11786W        W73075   2.456   5.382  11.076
11787W        W73076  14.293  44.002   0.897
11788W        W73077  28.064  17.273  10.478
11789W        W73078  37.855  34.578  11.866
11790W        W73079   9.175  14.628  13.884
11791W        W73080  39.984  18.058  14.810
11792W        W73081  22.115  33.901   3.682
11793W        W73082  36.093  13.778   0.479
11794W        W73083   0.416  39.535  14.999
11795W        W73084  33.529  25.615  13.430
11796W        W73085  19.243   2.868   4.637
11797W        W73086   3.419  35.881   3.846
11798W        W73087  15.594  27.962   0.734
11799W        W73088  10.801  33.096   2.306
11800W        W73089  24.534  36.084   3.743
11801W        W73090  11.300  40.964   1.332
11802W        W73091  26.977  26.653   0.922
11803W        W73092   3.306  42.298   2.405
11804W        W73093  30.066  31.947  14.483
11805W        W73094   0.796  42.498  13.019
11806W        W73095  28.520  13.615  13.459
11807W        W73096  35.993  15.114   3.703
11808W        W73097  35.461  20.198   0.735
11809W        W73098  15.278   4.776   4.149
11810W        W73099  13.749  30.608   2.412
11811W        W73100   6.232  40.308   1.793
11812W        W73101  39.872  35.003   1.356
11813W        W73102  25.080  38.554  11.554
11814W        W73103  19.658   7.684  14.021
11815W        W73104   4.764  44.766  10.974
11816W        W73105  23.101  24.975  10.096
11817W        W73106  37.543  28.621   2.200
11818W        W73107  42.900  19.255   2.303
11819W        W73108   3.402   3.243   3.733
11820W        W73109  15.096  11.655  12.842
11821W        W73110  14.299  32.502  13.845
11822W        W73111  23.621  41.996   2.849
11823W        W73112   1.860   2.740  11.116
11824W        W73113  27.687  13.837   3.690
11825W        W73114  19.175  29.600  14.935
11826W        W73115  41.969   8.249   5.316
11827W        W73116  33.621  21.190   4.278
11828W        W73117  36.491  29.121  14.412
11829W        W73118  14.240   5.913   3.796
11830W        W73119  24.585  24.094  14.314
11831W        W73120  18.638   5.396  13.472
11832W        W73121  16.239  17.203  12.379
11833W        W73122  40.315  15.708  11.453
11834W        W73123  42.856   2.871  11.906
11835W        W73124  19.191   4.881   0.335
11836W        W73125  31.524   6.890   3.863
11837W        W73126  27.653  25.679   4.123
11838W        W73127  26.592   0.420  10.507
11839W        W73128   8.657  24.027   0.846
11840W        W73129  16.756   4.291   2.768
11841W        W73130   0.345  17.746   0.736
11842W        W73131  29.642  40.912  11.993
11843W        W73132  17.099  39.006  11.413
11844W        W73133  36.081   7.739  12.070
11845W        W73134  20.045  13.269  13.330
11846W        W73135  35.038  40.915   2.685
11847W        W73136  33.121  39.982  13.324
11848W        W73137  32.016   4.357   2.269
11849W        W73138   5.407  20.581  11.093
11850W        W73139  43.352  15.329  14.979
11851W        W73140  20.258  44.996   3.633
11852W        W73141   9.252  20.673   2.720
11853W        W73142  41.910  24.204   1.894
11854W        W73143  31.914  19.617   3.806
11855W        W73144  42.944   9.395   2.327
11856W        W73145   5.771  18.628   4.829
11857W        W73146  25.547  34.419   3.361
11858W        W73147  39.416   6.359  14.957
11859W        W73148  10.200  28.675  12.891
11860W        W73149  10.162   3.890   2.287
11861W        W73150  37.350  20.654   1.767
11862W        W73151  18.617  40.434  14.420
11863W        W73152  19.228  40.037  14.400
11864W        W73153  38.829   9.368  10.425
11865W        W73154  34.508  20.048   4.142
11866W        W73155  36.974   4.761   9.987
11867W        W73156  31.527  35.594  12.842
11868W        W73157   5.828  30.080   3.662
11869W        W73158  40.317  15.703   3.795
11870W        W73159  36.563   4.715   1.277
11871W        W73160  15.282  28.961  11.473
11872W        W73161  11.766  42.030  13.808
11873W        W73162  23.229  22.691  14.949
11874W        W73163   8.815  34.383   2.744
11875W        W73164  40.465  28.087  10.045
11876W        W73165  26.012  10.266  13.834
11877W        W73166  37.468  42.850  14.761
11878W        W73167  19.081  16.655   1.261
11879W        W73168   9.834  36.089  11.929
11880W        W73169  10.757  14.227   2.824
11881W        W73170  24.122  43.315  13.874
11882W        W73171  38.372   1.458   3.162
11883W        W73172   3.269  36.016   4.682
11884W        W73173  12.326  16.765  14.802
11885W        W73174  30.095  11.741   1.259
11886W        W73175  30.914  43.816  14.924
11887W        W73176  23.204  35.380  14.481
11888W        W73177  43.336   7.884   2.770
11889W        W73178  20.155  31.000  13.896
11890W        W73179  35.885   9.270   4.652
11891W        W73180  39.482  14.793  10.573
11892W        W73181  22.056  44.971   1.330
11893W        W73182  12.691   9.865   1.703
11894W        W73183  27.655  10.755   1.373
11895W        W73184  41.959   9.201   1.870
11896W        W73185  17.726  31.051  12.488
11897W        W73186  23.545  15.649  10.982
11898W        W73187  27.494  12.809   0.396
11899W        W73188   1.896  37.413   4.787
11900W        W73189  41.985  38.075  14.303
11901W        W73190  42.894  44.426  14.801
11902W        W73191  13.697   2.731   3.827
11903W        W73192  31.528  37.019  12.366
11904W        W73193  20.557  28.570  11.006
11905W        W73194  21.160  42.791  14.779
11906W        W73195  12.838  17.177  13.319
11907W        W73196  32.547   9.237  11.934
11908W        W73197   2.784   6.776   3.190
11909W        W73198  22.525  21.607   9.618
11910W        W73199  36.849  16.082  14.879
11911W        W73200  27.564  35.899  11.578
11912W        W73201  30.122   5.912  14.823
11913W        W73202  23.620  30.595   0.384
11914W        W73203   5.313  20.641   1.375
11915W        W73204  19.086   6.716   0.362
11916W        W73205   9.843   0.786   3.762
11917W        W73206  22.147  34.892   2.757
11918W        W73207  27.950  16.573   2.783
11919W        W73208  16.219  32.139   0.395
11920W        W73209   8.836  20.053   1.405
11921W        W73210   9.202  22.218   4.193
11922W        W73211  41.863  15.257   2.761
11923W        W73212  38.830  24.200   4.658
11924W        W73213   8.400   6.382  12.071
11925W        W73214  18.732  43.481   0.745
11926W        W73215  13.738  24.546   3.869
11927W        W73216  16.655  14.190   2.193
11928W        W73217  37.382  43.459   2.259
11929W        W73218  27.182  25.541   2.358
11930W        W73219  37.916  13.807   2.264
11931W        W73220  40.341  20.637  12.877
11932W        W73221  28.039   0.866  11.066
11933W        W73222  14.226  43.856   4.798
11934W        W73223   9.221  44.865  10.544
11935W        W73224  18.702  18.184  10.975
11936W        W73225  11.677  16.690   0.857
11937W        W73226  15.794   4.306   0.874
11938W        W73227  19.284  30.099   0.782
11939W        W73228   0.430  38.915  14.896
11940W        W73229   6.258  21.068   5.286
11941W        W73230  22.108  39.837   3.299
11942W        W73231  14.158  41.312  14.314
11943W        W73232  38.003  44.991   2.817
11944W        W73233  10.658   5.724   0.457
11945W        W73234   1.434  20.527   1.244
11946W        W73235  16.616  21.701  12.469
11947W        W73236   9.644   1.273   3.302
11948W        W73237  12.626  17.734  12.475
11949W        W73238  16.206  28.491   3.249
11950W        W73239  29.998   7.416  12.515
11951W        W73240  42.487   7.793  13.013
11952W        W73241   7.275  19.687  12.943
11953W        W73242   0.387  35.401  10.969
11954W        W73243  11.736  34.431  13.392
11955W        W73244  30.412  25.564   0.848
11956W        W73245  21.023   4.206   1.834
11957W        W73246   1.961  10.167  13.392
11958W        W73247  23.534  40.922   4.292
11959W        W73248  21.546  41.841  12.541
11960W        W73249  12.710   5.776  10.590
11961W        W73250  17.252   7.408  11.509
11962W        W73251  39.984   5.905  14.990
11963W        W73252  17.787  41.005   3.651
11964W        W73253  33.908  27.156  13.037
11965W        W73254  23.052  16.646  14.423
11966W        W73255  10.672   9.357   1.893
11967W        W73256  25.696  34.546  12.376
11968W        W73257  34.046   2.411   1.220
11969W        W73258   9.869  21.261  14.332
11970W        W73259   3.868  17.718   2.762
11971W        W73260  37.473  27.610   9.976
11972W        W73261  23.577  24.999  12.939
11973W        W73262   2.885   2.383  10.645
11974W        W73263  19.041  18.576  13.038
11975W        W73264   3.931  39.889  11.464
11976W        W73265  13.621  29.624  11.390
11977W        W73266  28.623  33.921   1.874
11978W        W73267  41.931  18.212  12.906
11979W        W73268   1.786  18.280   2.305
11980W        W73269  13.288  30.985  13.545
11981W        W73270  36.051  32.517  13.339
11982W        W73271  32.052  25.688  11.533
11983W        W73272  22.606  33.617   5.256
11984W        W73273   1.480   9.842  10.584
11985W        W73274  44.958  41.873   4.644
11986W        W73275  31.482   6.837  12.402
11987W        W73276   1.779  18.688   1.325
11988W        W73277  43.016  10.361   3.695
11989W        W73278   1.884   3.955  13.938
11990W        W73279  21.107  37.381   2.233
11991W        W73280  18.251  39.346   1.287
11992W        W73281  13.189  20.612   2.890
11993W        W73282   4.421  28.617   3.381
11994W        W73283  39.852   1.808  12.891
11995W        W73284  10.307  44.814   1.734
11996W        W73285  15.270   7.218   4.768
11997W        W73286  20.158  41.312  11.601
11998W        W73287  36.893  28.080  10.961
11999W        W73288  37.980  31.075   1.315
12000W        W73289  18.673  20.257  11.054
12001W        W73290   4.887  43.921   4.320
12002W        W73291  14.330  11.160   1.408
12003W        W73292  17.179  15.627   2.214
12004W        W73293  28.069  21.087  10.532
12005W        W73294  22.678  14.737   0.887
12006W        W73295  41.944   4.903   4.180
12007W        W73296   1.901   9.845  11.967
12008W        W73297  15.735  41.357  12.575
12009W        W73298   8.281   2.896   1.261
12010W        W73299  33.989  12.321  13.366
12011W        W73300  14.747   0.331  13.447
12012W        W73301  26.963  30.160   1.415
12013W        W73302   9.351   7.724   3.853
12014W        W73303  39.353  26.137   0.853
12015W        W73304  19.208  24.143   4.618
12016W        W73305  15.640  25.541  10.509
12017W        W73306   8.247   0.835   9.984
12018W        W73307   8.783   0.779   4.306
12019W        W73308  33.962  29.132  11.497
12020W        W73309  33.463   8.663  11.029
12021W        W73310  32.133  13.764   1.248
12022W        W73311   4.411  21.067   1.861
12023W        W73312   6.895  23.200   1.812
12024W        W73313  21.139  28.482   2.410
12025W        W73314  27.157  36.845   3.353
12026W        W73315  43.308   1.973   4.617
12027W        W73316   4.934  42.460  11.401
12028W        W73317  26.118  32.471   1.325
12029W        W73318   9.769  43.931   4.276
12030W        W73319   0.830   6.424  11.944
12031W        W73320  40.494  34.121   2.842
12032W        W73321  35.498  12.289   4.707
12033W        W73322  41.325   6.779  11.573
12034W        W73323   6.292  25.102  13.459
12035W        W73324  33.516  28.492  11.592
12036W        W73325  25.998   8.822  11.594
12037W        W73326  12.239   5.730   0.888
12038W        W73327  43.512  13.264   5.103
12039W        W73328   3.848   6.782   2.826
12040W        W73329  22.528  39.040  13.805
12041W        W73330  17.609  18.738   1.809
12042W        W73331  25.981  28.596  13.062
12043W        W73332  20.578  26.593   4.303
12044W        W73333  32.938   3.425  11.532
12045W        W73334  30.472  16.674   4.642
12046W        W73335  38.972   5.714  14.468
12047W        W73336  23.232  25.069  13.434
12048W        W73337  28.649  26.106   1.308
12049W        W73338  22.110  19.203   2.833
12050W        W73339  12.843  43.823   1.835
12051W        W73340  44.428  11.705  13.997
12052W        W73341  14.721  19.159  10.990
12053W        W73342  28.150  10.753  12.845
12054W        W73343   6.374   8.246  10.412
12055W        W73344  43.960  21.584  11.472
12056W        W73345  12.725  32.025  12.374
12057W        W73346  18.611   7.833   5.090
12058W        W73347   7.751  32.561  13.869
12059W        W73348  39.322  44.338   4.323
12060W        W73349  12.159   9.649  11.981
12061W        W73350  42.317  37.460  11.884
12062W        W73351   9.294  18.202   5.089
12063W        W73352  12.213  25.982  12.535
12064W        W73353  37.522   8.713   0.837
12065W        W73354  43.992  33.002  11.954
12066W        W73355  16.216   9.251   2.728
12067W        W73356  32.409  25.208  13.510
12068W        W73357  24.487   8.182   2.258
12069W        W73358  28.164  34.864   0.443
12070W        W73359  41.990   1.471   0.313
12071W        W73360  40.917  31.028   3.825
12072W        W73361  26.636  21.651  11.490
12073W        W73362  40.442  33.443  10.083
12074W        W73363  12.330  13.298   0.780
12075W        W73364  27.673  41.943  13.383
12076W        W73365  31.585  28.117   1.909
12077W        W73366  40.383  41.418   0.894
12078W        W73367  13.648   0.273  13.818
12079W        W73368   3.858   6.200   3.630
12080W        W73369  33.409  25.006   5.255
12081W        W73370   6.732  32.408  11.027
12082W        W73371  43.890  21.088  13.422
12083W        W73372  18.172   5.747  12.017
12084W        W73373  40.876  30.418   1.341
12085W        W73374   8.387  30.655  11.071
12086W        W73375  29.126  25.979   0.290
12087W        W73376  43.799  14.192  10.978
12088W        W73377   9.815  35.455   1.304
12089W        W73378  42.892  33.129  10.575
12090W        W73379  22.531  23.561   4.336
12091W        W73380  10.639  15.255  14.460
12092W        W73381  21.742  26.470   1.858
12093W        W73382  34.563   7.760  10.912
12094W        W73383  17.751  18.053  10.468
12095W        W73384   6.239   2.450  13.809
12096W        W73385  39.929   1.455   4.238
12097W        W73386  14.713  16.188   0.339
12098W        W73387   6.367  32.059  11.911
12099W        W73388  32.117  35.937   4.295
12100W        W73389   9.203   0.333   5.775
12101W        W73390  28.671  37.046  13.947
12102W        W73391  31.515  11.310   2.202
12103W        W73392  15.158   9.859   4.118
12104W        W73393  18.252  21.037  14.951
12105W        W73394   0.865  31.998   2.900
12106W        W73395  11.326   7.746   4.253
12107W        W73396  21.732  44.277   4.821
12108W        W73397  11.697   4.852   4.326
12109W        W73398  24.064  41.390   2.208
12110W        W73399  15.246  40.879  10.530
12111W        W73400  20.072   6.342   5.294
12112W        W73401  40.510  34.559  14.967
12113W        W73402  24.510   6.218   4.195
12114W        W73403  34.370  41.470   1.402
12115W        W73404  31.522  13.775  13.540
12116W        W73405  30.599  17.616  10.416
12117W        W73406  39.021  38.489  14.837
12118W        W73407  43.363   1.869  10.408
12119W        W73408  34.120   7.705  11.912
12120W        W73409  37.891  37.082  12.464
12121W        W73410   8.281  38.398   3.291
12122W        W73411   5.713  43.964   4.319
12123W        W73412  26.493  43.979  14.967
12124W        W73413   6.288  32.445   0.263
12125W        W73414  31.107  26.173   2.706
12126W        W73415  11.712   1.841   2.774
12127W        W73416  36.993   9.334   4.631
12128W        W73417  26.004  35.878   4.806
12129W        W73418  44.339  25.011   3.827
12130W        W73419  41.413  42.344   3.179
12131W        W73420  12.765  23.076   0.300
12132W        W73421   3.265  37.569  10.076
12133W        W73422  36.587  25.146   2.841
12134W        W73423  32.036  29.493  13.862
12135W        W73424  25.004  15.206   2.231
12136W        W73425  44.868  16.090   1.316
12137W        W73426  35.872  22.016  14.999
12138W        W73427  43.868  20.079  11.090
12139W        W73428   0.343  38.359  11.947
12140W        W73429  10.304  24.610  11.560
12141W        W73430  13.115  40.376  13.477
12142W        W73431  35.865  30.419  12.014
12143W        W73432  27.004  31.932   3.678
12144W        W73433  29.577   4.832  14.865
12145W        W73434  17.184  40.331  10.992
12146W        W73435  23.074  30.424  10.483
12147W        W73436  14.208  24.601  14.504
12148W        W73437  15.281  15.301   2.899
12149W        W73438  15.269   0.746   2.375
12150W        W73439  31.931   8.169   2.713
12151W        W73440  37.081   3.856   3.194
12152W        W73441  33.949   9.834   3.228
12153W        W73442  26.042  29.170  14.472
12154W        W73443   5.402  23.564  13.379
12155W        W73444  40.973  28.446  13.975
12156W        W73445  30.133  43.477   0.448
12157W        W73446  27.654   2.449  13.320
12158W        W73447  44.800  38.836   4.806
12159W        W73448  27.941  18.726  12.962
12160W        W73449   9.281  25.572  12.089
12161W        W73450  17.730  21.736  11.001
12162W        W73451  40.415   9.804   3.700
12163W        W73452  43.955  22.694   2.896
12164W        W73453  20.212   3.887   1.719
12165W        W73454  36.403  26.159   2.217
12166W        W73455  33.401  37.943  14.807
12167W        W73456  34.457  15.683   0.819
12168W        W73457  44.994  28.665   1.370
12169W        W73458  42.789  28.098  12.538
12170W        W73459  30.024  15.589  12.417
12171W        W73460  25.141  21.554  11.379
12172W        W73461  28.549  29.527   1.396
12173W        W73462  36.033  14.146   2.306
12174W        W73463  11.700  22.720  14.996
12175W        W73464  21.649  43.279  10.568
12176W        W73465  36.451  30.435   4.673
12177W        W73466   1.917  41.948   2.229
12178W        W73467  39.998  34.539   4.345
12179W        W73468  25.542   7.351  13.369
12180W        W73469  39.404  28.932  11.376
12181W        W73470  21.609  38.964  13.834
12182W        W73471   7.223  26.617   1.449
12183W        W73472  37.988  24.565   1.932
12184W        W73473  28.634  29.037  13.324
12185W        W73474   5.696   9.680  13.527
12186W        W73475  18.625  13.119  10.544
12187W        W73476   3.437  12.345   0.407
12188W        W73477  35.019   8.718  10.017
12189W        W73478  40.524  37.074   0.905
12190W        W73479  19.197  26.117  13.411
12191W        W73480  30.087  44.468  11.081
12192W        W73481  27.074  38.857  12.381
12193W        W73482   1.242  26.673   0.921
12194W        W73483  11.696  41.347   4.654
12195W        W73484  30.005  24.663  12.436
12196W        W73485  27.128  24.664  12.523
12197W        W73486   1.445  34.522   3.817
12198W        W73487  40.386  43.787  13.542
12199W        W73488  22.501  29.538  11.871
12200W        W73489  11.213  13.684   1.295
12201W        W73490   3.783  44.865  10.610
12202W        W73491  22.095  15.322   0.938
12203W        W73492  42.385  40.400  11.417
12204W        W73493  31.921  25.649   1.888
12205W        W73494  20.151  26.666  11.883
12206W        W73495  12.799  36.862   5.119
12207W        W73496   9.774  20.059  10.951
12208W        W73497   3.251  34.902  12.889
12209W        W73498  28.642   9.719   1.382
12210W        W73499   3.410   8.693   0.376
12211W        W73500   4.837  16.703   2.842
12212W        W73501  30.923  28.554   1.244
12213W        W73502  12.720  42.377  11.405
12214W        W73503  28.032  44.789  12.931
12215W        W73504  38.470  43.483   2.845
12216W        W73505  43.854  42.031  10.579
12217W        W73506   2.732   0.341  10.545
12218W        W73507   1.832  27.521   2.308
12219W        W73508   9.753  19.593  14.776
12220W        W73509   2.734  17.258  13.846
12221W        W73510   7.336  34.483   1.730
12222W        W73511  41.799  18.768   3.172
12223W        W73512  14.246  40.401  13.813
12224W        W73513   7.408   7.851   1.216
12225W        W73514  40.385  12.851  12.906
12226W        W73515  34.598  20.678   0.399
12227W        W73516   1.767   7.803   3.221
12228W        W73517  33.076   0.402   5.285
12229W        W73518  23.727  17.577  11.026
12230W        W73519  16.226  38.074  10.511
12231W        W73520  11.770  31.102   0.903
12232W        W73521  10.824  11.266  13.445
12233W        W73522  10.327   0.748  14.505
12234W        W73523  25.607  22.726   2.673
12235W        W73524  38.495  33.569   3.763
12236W        W73525   4.239   2.784   1.403
12237W        W73526  29.099  40.897  10.408
12238W        W73527  30.640  13.335   4.636
12239W        W73528  17.184  17.801   3.707
12240W        W73529  33.404   4.313   1.731
12241W        W73530  20.629  39.828   2.880
12242W        W73531  41.328  32.081   4.723
12243W        W73532   0.933  25.014   0.373
12244W        W73533  38.898   6.277   3.320
12245W        W73534   2.226  30.039   0.836
12246W        W73535   0.883  39.816   2.368
12247W        W73536   7.871  17.743   0.869
12248W        W73537  27.173   3.420  11.504
12249W        W73538   8.843  12.714   2.901
12250W        W73539   6.335  28.177  10.578
12251W        W73540   3.434  42.023  14.400
12252W        W73541  41.378   2.848  11.942
12253W        W73542  11.213   1.972  14.499
12254W        W73543  11.142  44.315   4.606
12255W        W73544  42.388  36.398  13.476
12256W        W73545  29.096  18.578   2.409
12257W        W73546   8.165  30.420  13.829
12258W        W73547  16.592  37.077  13.361
12259W        W73548  15.778  12.288  12.081
12260W        W73549  12.733   6.378   1.429
12261W        W73550  26.047  18.684   3.227
12262W        W73551  11.775  24.149   4.735
12263W        W73552  23.621  43.349  11.564
12264W        W73553  39.317  11.713  12.382
12265W        W73554  24.043  12.280   0.477
12266W        W73555  33.059  38.457   1.834
12267W        W73556  31.566  23.143  12.973
12268W        W73557  17.743   1.452  13.898
12269W        W73558   4.808  12.156  14.491
12270W        W73559  30.621  11.266  14.425
12271W        W73560  19.048  19.121   0.384
12272W        W73561  17.594  31.420   3.165
12273W        W73562  14.652  23.188  14.818
12274W        W73563  41.810  39.333   0.481
12275W        W73564  27.185  12.847  11.961
12276W        W73565  20.744  27.616   2.895
12277W        W73566  35.602   7.262   2.700
12278W        W73567  21.590  35.920   3.831
12279W        W73568  14.314   8.273  11.422
12280W        W73569   8.297  17.136   3.844
12281W        W73570  29.062  42.413  13.362
12282W        W73571  44.461  41.301   2.282
12283W        W73572  33.078   9.740  14.911
12284W        W73573  23.037  28.120   3.150
12285W        W73574   6.755  13.820  13.442
12286W        W73575  35.072  26.461   0.874
12287W        W73576  43.337   9.393  14.832
12288W        W73577  18.628   6.856   1.337
12289W        W73578  44.389  15.224   1.742
12290W        W73579  23.657  25.566   2.886
12291W        W73580  14.606   6.255   3.703
12292W        W73581  19.086  42.295  13.468
12293W        W73582  30.991   8.890   4.704
12294W        W73583  20.089  21.258  13.486
12295W        W73584  13.284  42.932  10.081
12296W        W73585  12.272  28.155   2.671
12297W        W73586  26.620  42.970   3.173
12298W        W73587   9.198  33.587  14.016
12299W        W73588  28.938  44.484   1.261
12300W        W73589  44.295   0.887  12.494
12301W        W73590  36.967  24.636  13.027
12302W        W73591  21.210  10.743   4.352
12303W        W73592  42.908   1.869  12.034
12304W        W73593   6.907  16.181  14.379
12305W        W73594  14.690  11.800  11.083
12306W        W73595  20.228  19.049  13.530
12307W        W73596  19.050   9.227   2.803
12308W        W73597   9.368  33.081  14.464
12309W        W73598  43.475   9.212   4.627
12310W        W73599  18.743   6.889  13.471
12311W        W73600  18.704   1.474   2.196
12312W        W73601  26.566  10.287  12.911
12313W        W73602  25.659  27.044   0.796
12314W        W73603  28.575  22.715   1.935
12315W        W73604  18.647  19.244   3.305
12316W        W73605  13.303  41.990  14.428
12317W        W73606  36.399   2.292  14.507
12318W        W73607  41.852  15.316  13.973
12319W        W73608  41.947  26.976   2.326
12320W        W73609  30.433   9.156  11.588
12321W        W73610  40.426   9.257   5.236
12322W        W73611  24.224   0.343  12.460
12323W        W73612  13.130  23.655   0.826
12324W        W73613   4.800  35.068   1.298
12325W        W73614  36.382  17.107   9.972
12326W        W73615  37.573  15.681  14.842
12327W        W73616  36.522  12.784   1.715
12328W        W73617  20.567  21.589   2.263
12329W        W73618  36.001  12.708  14.773
12330W        W73619  26.609  19.243  11.939
12331W        W73620  30.009  27.181   0.837
12332W        W73621  31.481  31.147  10.531
12333W        W73622   1.797  43.893   0.259
12334W        W73623   6.870   9.214  13.389
12335W        W73624  41.870   5.746   0.849
12336W        W73625   1.961   9.324  12.042
12337W        W73626  33.498  20.052   3.285
12338W        W73627  39.019   0.308   3.644
12339W        W73628   7.812  29.964  13.501
12340W        W73629  35.479  22.682  11.898
12341W        W73630  20.201  19.568   4.621
12342W        W73631   7.173  16.109   1.247
12343W        W73632  29.509  13.136   1.233
12344W        W73633  25.058   6.350   0.352
12345W        W73634  10.266   7.268   3.780
12346W        W73635  24.224  42.353  13.335
12347W        W73636  33.424  15.220  12.004
12348W        W73637  15.190   2.437  13.355
12349W        W73638   4.209  35.378  12.037
12350W        W73639  15.232  37.980   1.761
12351W        W73640  22.579   9.342  13.985
12352W        W73641  40.802  30.086   0.315
12353W        W73642  11.346  38.347   4.122
12354W        W73643  13.756  37.483  12.893
12355W        W73644  40.429   2.948   4.204
12356W        W73645  16.771  42.905   4.177
12357W        W73646  22.687   7.297  10.936
12358W        W73647  43.432  43.920   0.342
12359W        W73648   6.393  25.192  13.850
12360W        W73649  24.530  33.607   1.906
12361W        W73650   6.246  20.539  11.856
12362W        W73651  23.138  37.074   3.756
12363W        W73652  38.509   6.256   4.209
12364W        W73653  14.815   6.809  14.340
12365W        W73654  33.077  23.096   4.710
12366W        W73655  43.962  29.489  12.408
12367W        W73656  15.823  11.147   2.720
12368W        W73657   7.764  35.872   0.806
12369W        W73658  37.520   9.299  12.892
12370W        W73659  19.678  35.887  12.445
12371W        W73660  15.729   1.747   0.945
12372W        W73661  26.675  14.722   3.216
12373W        W73662  19.662  35.908   1.899
12374W        W73663   7.863  13.219  10.514
12375W        W73664  10.857  11.272   2.291
12376W        W73665   6.260   2.935  10.983
12377W        W73666   8.179   6.398   4.294
12378W        W73667  42.373  42.801   2.336
12379W        W73668   3.940   7.861   0.755
12380W        W73669   3.781  11.332  10.973
12381W        W73670   0.458  20.113   3.708
12382W        W73671  33.429  30.654  14.913
12383W        W73672  27.544   8.265  13.503
12384W        W73673   1.791   8.694  13.060
12385W        W73674  17.091  35.916   3.348
12386W        W73675   1.787  39.353   1.877
12387W        W73676  44.323  37.923  12.476
12388W        W73677  35.398  14.756  10.511
12389W        W73678   5.822  26.049   4.287
12390W        W73679  13.277  42.853  14.979
12391W        W73680  35.940  42.484   3.178
12392W        W73681  42.508  30.533  10.550
12393W        W73682  13.792  23.733  12.863
12394W        W73683  16.089   1.762   4.210
12395W        W73684   9.659  38.907   0.882
12396W        W73685  17.635  26.609  12.947
12397W        W73686   4.736  19.208   0.967
12398W        W73687  15.135   1.880  10.055
12399W        W73688  19.077   1.468   2.401
12400W        W73689  18.557  11.337   1.225
12401W        W73690  16.084  32.469   1.294
12402W        W73691  29.590   1.811  11.508
12403W        W73692  26.493  29.574   3.785
12404W        W73693   1.904  44.854  13.898
12405W        W73694  21.104   8.662  14.287
12406W        W73695  30.639  42.404   4.199
12407W        W73696  12.827  32.407  13.043
12408W        W73697   9.831  39.049  12.994
12409W        W73698  30.015   9.853   2.703
12410W        W73699  35.043  33.547   0.893
12411W        W73700  18.619  31.584  13.949
12412W        W73701   1.893  10.238  11.973
12413W        W73702  26.073  24.573  12.458
12414W        W73703  20.250  13.278   4.729
12415W        W73704  25.486  17.074  10.924
12416W        W73705  33.517  11.334   0.305
12417W        W73706  10.191  16.119  12.950
12418W        W73707  17.156  10.364   3.166
12419W        W73708  34.560  26.461   3.752
12420W        W73709  13.700  33.444  13.307
12421W        W73710  28.115   4.771   0.258
12422W        W73711  35.863  40.919  12.489
12423W        W73712  39.473  26.107   4.241
12424W        W73713  10.686  19.255   1.881
12425W        W73714   9.390  28.470  13.425
12426W        W73715  41.396   2.873  13.909
12427W        W73716  38.890  31.005   4.184
12428W        W73717  36.903   8.716  12.556
12429W        W73718  13.823   0.409   2.683
12430W        W73719  41.919  16.235  10.063
12431W        W73720  36.910  38.415   2.838
12432W        W73721  44.460  27.052   3.684
12433W        W73722   4.290  28.657  11.508
12434W        W73723  14.776  31.122  13.358
12435W        W73724  28.996  23.101  13.507
12436W        W73725   0.941  23.699  10.992
12437W        W73726  43.833  21.030   4.617
12438W        W73727  38.437   8.260  14.355
12439W        W73728  32.634   0.910  10.104
12440W        W73729  39.831  25.562  13.483
12441W        W73730  41.361  40.802   2.363
12442W        W73731  36.357  27.111   4.180
12443W        W73732  12.768  18.590  12.579
12444W        W73733  32.124  44.379   0.860
12445W        W73734  10.823   3.789  10.529
12446W        W73735   7.680  17.113  13.024
12447W        W73736  26.548  13.632  12.836
12448W        W73737  12.119  44.951  11.435
12449W        W73738   2.808  14.200  13.446
12450W        W73739   6.809  43.278  10.952
12451W        W73740  41.531  35.443   1.349
12452W        W73741  19.705   5.296  14.993
12453W        W73742   5.408  36.033  13.064
12454W        W73743  10.266  10.841  11.392
12455W        W73744   7.216  19.248  11.442
12456W        W73745  39.047  17.171   1.897
12457W        W73746   9.334  16.167  12.090
12458W        W73747  43.769  36.478   1.745
12459W        W73748  40.457  22.187  11.867
12460W        W73749  14.803  15.730   2.214
12461W        W73750  15.219  19.775   5.787
12462W        W73751  21.052  20.255   5.193
12463W        W73752  13.216   6.347  10.968
12464W        W73753  26.579  18.244   0.357
12465W        W73754   1.967  38.553   0.950
12466W        W73755  36.883  23.041  14.277
12467W        W73756   0.942  21.579  12.963
12468W        W73757   2.388  17.162  13.895
12469W        W73758  43.425  27.661   0.868
12470W        W73759  37.880  41.507   3.647
12471W        W73760  23.667  42.428  13.494
12472W        W73761   8.237  40.436   3.821
12473W        W73762  43.911   4.428  12.000
12474W        W73763  19.228  26.511  12.388
12475W        W73764  36.592   0.968  12.436
12476W        W73765   1.963  23.082   4.609
12477W        W73766  35.920   2.328   2.337
12478W        W73767   6.246   4.843   0.952
12479W        W73768  17.799  42.473  13.389
12480W        W73769   8.245  27.113  14.319
12481W        W73770  14.105  29.032  10.549
12482W        W73771  42.484  12.848   2.352
12483W        W73772   3.356  10.636   4.221
12484W        W73773  10.664  14.699  13.811
12485W        W73774  29.953   4.228   0.748
12486W        W73775  42.487   3.733   3.254
12487W        W73776  39.872  33.582  11.530
12488W        W73777  36.039   9.346  12.452
12489W        W73778  36.021  30.437   2.275
12490W        W73779  15.310  31.954   1.356
12491W        W73780  32.979  14.228   4.768
12492W        W73781   0.436   6.717  14.325
12493W        W73782  14.217  16.098  11.875
12494W        W73783  18.711   2.839   0.317
12495W        W73784  20.132  26.042  10.541
12496W        W73785  24.587  40.826  13.939
12497W        W73786   1.383  36.439   1.894
12498W        W73787  32.514  11.854  11.951
12499W        W73788   8.779   2.880   3.652
12500W        W73789   3.321  33.417   3.366
12501W        W73790   1.919  37.969  10.889
12502W        W73791  21.564  28.060  12.550
12503W        W73792  25.026  38.875  13.927
12504W        W73793  17.747  44.951   0.245
12505W        W73794  19.592  44.382  12.901
12506W        W73795  16.127   4.374   1.779
12507W        W73796  37.989   0.788   0.957
12508W        W73797  40.471   1.742   9.939
12509W        W73798   3.397   4.726   1.889
12510W        W73799  10.168  39.982   1.900
12511W        W73800  14.691  37.378  11.044
12512W        W73801  36.433  22.030  11.489
12513W        W73802  12.342   2.820  13.881
12514W        W73803  13.155  29.510   4.123
12515W        W73804   1.389  17.105   2.203
12516W        W73805  44.854   2.963   0.413
12517W        W73806  15.655  37.042  13.319
12518W        W73807  12.274  33.065  14.423
12519W        W73808   9.813  43.859  10.999
12520W        W73809  28.564  30.536   0.817
12521W        W73810  33.046  17.215   1.764
12522W        W73811  35.477   3.437  11.930
12523W        W73812  14.829  43.428   0.771
12524W        W73813  39.979  22.252  12.903
12525W        W73814  26.492   1.466   3.720
12526W        W73815  20.626   1.420   2.722
12527W        W73816   1.434  28.164   0.259
12528W        W73817  16.629  31.983  13.501
12529W        W73818  26.461  42.472  11.481
12530W        W73819   9.862  15.184   2.261
12531W        W73820  26.956  36.380  12.965
12532W        W73821  30.003   4.902   3.640
12533W        W73822   3.933  20.052  14.020
12534W        W73823   3.453  29.589   2.663
12535W        W73824  38.833  34.931   3.641
12536W        W73825   8.201  10.865  14.320
12537W        W73826   2.408  18.631  10.945
12538W        W73827  16.174  27.462  14.821
12539W        W73828   9.692  34.450  10.587
12540W        W73829  31.015  40.483  10.155
12541W        W73830  11.211  35.562  11.939
12542W        W73831  32.965  37.445   4.347
12543W        W73832  11.162   6.916  13.344
12544W        W73833   0.909   6.843   0.845
12545W        W73834   0.491  34.605   2.762
12546W        W73835   1.318   6.866   0.443
12547W        W73836   4.268  20.650   3.263
12548W        W73837   9.179  39.827   1.357
12549W        W73838   6.389  14.304   0.898
12550W        W73839   2.419  34.551   2.368
12551W        W73840  10.767  13.262  13.533
12552W        W73841  32.930  15.247  14.768
12553W        W73842  36.536  40.521   4.158
12554W        W73843  43.016  37.832  12.865
12555W        W73844  43.970  14.769  10.593
12556W        W73845   5.877  41.465   2.802
12557W        W73846   1.754  42.803   0.390
12558W        W73847   8.288  40.364  14.918
12559W        W73848  33.952  12.296   2.220
12560W        W73849   2.244  33.957   3.637
12561W        W73850  43.386  39.437   3.863
12562W        W73851  21.024  41.885  12.483
12563W        W73852  18.660  28.611  13.489
12564W        W73853   3.431  22.030   2.349
12565W        W73854  33.957  36.044   4.656
12566W        W73855   2.287  37.561  11.397
12567W        W73856   2.354   8.231  11.979
12568W        W73857   1.928  13.662  13.351
12569W        W73858  43.961  27.459   2.829
12570W        W73859  38.031  24.021  14.348
12571W        W73860  11.156   5.808  13.460
12572W        W73861  31.577  22.743   2.249
12573W        W73862  15.092  20.608  10.488
12574W        W73863  24.049  13.674   1.400
12575W        W73864  29.630  21.123  14.897
12576W        W73865  16.179  42.380  14.920
12577W        W73866  19.564  25.203   4.730
12578W        W73867  13.708   0.926  12.578
12579W        W73868  38.474  34.532   0.354
12580W        W73869  28.667  22.107  10.903
12581W        W73870  37.931   1.930  11.459
12582W        W73871  19.669  16.238   0.367
12583W        W73872  38.328  25.053  12.067
12584W        W73873  41.477  31.479  10.478
12585W        W73874   0.973  43.000   3.327
12586W        W73875   6.284  13.197   2.197
12587W        W73876   3.763  26.201  13.403
12588W        W73877   0.944   4.373  14.960
12589W        W73878  15.108  31.462   4.600
12590W        W73879   4.226  26.625  12.973
12591W        W73880   6.281  42.864  13.974
12592W        W73881  34.916   5.192   1.753
12593W        W73882  10.256  36.033  13.846
12594W        W73883  37.015  22.230  10.424
12595W        W73884  24.490  22.695   1.323
12596W        W73885  37.370  41.841   3.267
12597W        W73886   6.746   9.763  12.086
12598W        W73887   0.812  41.994  12.400
12599W        W73888  36.901  30.571  13.367
12600W        W73889  44.325  26.624  14.458
12601W        W73890   7.754  19.762  14.797
12602W        W73891  40.028  40.009  14.878
12603W        W73892  22.026  32.080  11.582
12604W        W73893  26.544  25.589   4.770
12605W        W73894  43.770  35.946   1.450
12606W        W73895  28.974  41.921   3.831
12607W        W73896  15.815  16.255   2.370
12608W        W73897   6.825  38.381  13.811
12609W        W73898  32.409  15.816  12.839
12610W        W73899  30.472  30.441  14.817
12611W        W73900  27.466  33.538   2.748
12612W        W73901   1.483  10.255   0.929
12613W        W73902  40.950   0.476  10.483
12614W        W73903  29.931  30.012  13.367
12615W        W73904  30.077  14.625  14.364
12616W        W73905  26.630  32.527   0.318
12617W        W73906   7.749  41.982  14.369
12618W        W73907  37.548  35.082  13.368
12619W        W73908  17.786   4.369  11.520
12620W        W73909  37.908   7.887  11.390
12621W        W73910  19.581  40.853   0.309
12622W        W73911  42.382  31.956  14.418
12623W        W73912   0.805  41.308   2.330
12624W        W73913   5.861   6.393  14.476
12625W        W73914  10.807  19.633  11.555
12626W        W73915   5.828  34.482   0.837
12627W        W73916  40.881  19.557  12.070
12628W        W73917  33.045  20.720  11.609
12629W        W73918  11.840  25.526  14.343
12630W        W73919  12.714  22.169   0.915
12631W        W73920  41.471  13.833  12.341
12632W        W73921  39.448  27.601  13.992
12633W        W73922  37.577  15.807   0.325
12634W        W73923  40.496  30.467  13.445
12635W        W73924  17.687  14.671   3.333
12636W        W73925  35.459  44.500   0.423
12637W        W73926  12.722  35.472   9.669
12638W        W73927  21.253   6.284   1.884
12639W        W73928  18.246  10.278  12.498
12640W        W73929  21.723   2.247   1.797
12641W        W73930  32.043  16.232   4.750
12642W        W73931  11.143  41.902  11.446
12643W        W73932  18.771  11.285   0.410
12644W        W73933  16.196  42.449  10.541
12645W        W73934  33.927  22.623   3.293
12646W        W73935  29.984   5.268  12.064
12647W        W73936  20.093  43.996   0.825
12648W        W73937  15.601   7.194   4.202
12649W        W73938  15.322   8.794   0.348
12650W        W73939  35.018  31.909   4.800
12651W        W73940  14.148  40.387   0.446
12652W        W73941   9.257   4.810  10.915
12653W        W73942  40.028  41.794   3.160
12654W        W73943  15.223  27.001  13.352
12655W        W73944  14.276  25.969  11.408
12656W        W73945  34.919  18.127   1.376
12657W        W73946  43.831  44.342  14.003
12658W        W73947  29.561  13.668   3.176
12659W        W73948   0.473   9.671  10.009
12660W        W73949  16.781  25.601  11.521
12661W        W73950  44.432  32.941   4.269
12662W        W73951  13.215   4.285   1.430
12663W        W73952  22.250  12.355   4.189
12664W        W73953  29.073  43.273   1.250
12665W        W73954  24.144  24.998   4.297
12666W        W73955  33.620  36.448  12.443
12667W        W73956  30.152  34.485  12.484
12668W        W73957  41.893  37.582   4.155
12669W        W73958  26.671  12.659  11.596
12670W        W73959  43.470  12.689  12.084
12671W        W73960   3.869   7.213   4.627
12672W        W73961  26.049  11.753   1.836
12673W        W73962  29.029  17.160  12.447
12674W        W73963  14.326   3.725  11.391
12675W        W73964  34.020  35.533   3.261
12676W        W73965  32.970  13.844  10.478
12677W        W73966  42.820  17.098   3.705
12678W        W73967  34.051  21.130   3.236
12679W        W73968  24.540  27.184  13.945
12680W        W73969  30.011  36.379  13.539
12681W        W73970  19.195  40.805  11.371
12682W        W73971  33.039  26.560  11.021
12683W        W73972  23.189  13.799  12.059
12684W        W73973   0.430  12.254  14.901
12685W        W73974  41.460  20.679  12.388
12686W        W73975  25.062   2.398  14.872
12687W        W73976  44.273   3.251   4.644
12688W        W73977  33.538  18.053   1.818
12689W        W73978   9.664   3.268   2.694
12690W        W73979   8.213  40.438  12.420
12691W        W73980  15.618  28.009  13.547
12692W        W73981   8.780  15.653  13.385
12693W        W73982   5.902  11.129  11.429
12694W        W73983   5.342  13.152  13.308
12695W        W73984   2.428  20.738   4.146
12696W        W73985  12.775  43.284  12.449
12697W        W73986  25.015   5.411  11.070
12698W        W73987  14.818  12.728   3.292
12699W        W73988   4.380   6.393  11.986
12700W        W73989  36.960  18.788  12.934
12701W        W73990  11.721  32.430  10.519
12702W        W73991  25.704  33.986  13.330
12703W        W73992  15.246  38.434   2.182
12704W        W73993  21.021  33.087  13.813
12705W        W73994   5.784  34.062   1.905
12706W        W73995  16.315  14.264  13.915
12707W        W73996   1.762  18.578  10.604
12708W        W73997  13.208  13.267  11.928
12709W        W73998  23.683  11.283   3.871
12710W        W73999  31.144  34.082  14.946
12711W        W74000  38.360  10.309   2.191
12712W        W74001   0.449  16.231   2.698
12713W        W74002  28.450  24.649   2.709
12714W        W74003  42.909  25.978  12.364
12715W        W74004   1.763  26.161   3.307
12716W        W74005  19.160  20.220   2.279
12717W        W74006  28.111  11.830  13.331
12718W        W74007  37.460  16.294   0.824
12719W        W74008  30.579  14.799  13.482
12720W        W74009   3.867  31.939   2.872
12721W        W74010  37.070  14.251   1.749
12722W        W74011  35.867  32.140   1.846
12723W        W74012   1.256  11.201   1.812
12724W        W74013  12.196  23.094  14.983
12725W        W74014  28.998   9.188   1.364
12726W        W74015  29.564   3.874  10.441
12727W        W74016  20.273  37.344   4.597
12728W        W74017  43.799  16.711  13.825
12729W        W74018   7.802   1.835  10.157
12730W        W74019  31.419  28.110  11.113
12731W        W74020  25.560  25.103  13.419
12732W        W74021  34.041  18.727  10.534
12733W        W74022  19.643  30.433   2.223
12734W        W74023   8.879  16.289   3.215
12735W        W74024  27.657  43.473   0.454
12736W        W74025  19.115  28.011   0.883
12737W        W74026   0.422  39.505  12.031
12738W        W74027  21.193  37.572  14.819
12739W        W74028   9.238  15.083   1.304
12740W        W74029  27.489  11.682   2.193
12741W        W74030  21.246  28.023   3.773
12742W        W74031  40.974  33.449   2.374
12743W        W74032  34.502  25.057   0.885
12744W        W74033  25.088  24.048   2.762
12745W        W74034  33.974  42.850  13.002
12746W        W74035   4.858  15.594   0.355
12747W        W74036  40.901   2.909  14.334
12748W        W74037  36.481   4.349   4.231
12749W        W74038  29.469   6.311  11.031
12750W        W74039  35.882   2.838   4.749
12751W        W74040  43.408  18.600  12.931
12752W        W74041  31.030  26.167   0.819
12753W        W74042  13.301  43.913  13.888
12754W        W74043   2.897  25.037   3.175
12755W        W74044  41.925  27.592  11.083
12756W        W74045  23.691  37.926  12.015
12757W        W74046  35.905   5.319   4.141
12758W        W74047  32.464  23.106  11.374
12759W        W74048  12.644  32.122   1.285
12760W        W74049  10.196  43.857   4.786
12761W        W74050  37.534  15.721   0.842
12762W        W74051  30.506  16.276   4.810
12763W        W74052  26.512  35.381   0.826
12764W        W74053  18.749   5.208   4.329
12765W        W74054  26.677  16.766   4.287
12766W        W74055  21.097  15.174  13.509
12767W        W74056  20.187  15.779  13.317
12768W        W74057  22.716  43.842   3.257
12769W        W74058  41.304  32.609  12.986
12770W        W74059  41.460  18.566  13.945
12771W        W74060  21.540  18.079   4.292
12772W        W74061   9.301  12.308  10.637
12773W        W74062   2.237  21.632   4.170
12774W        W74063  31.956  36.865  10.594
12775W        W74064   6.312   1.471  11.855
12776W        W74065  27.147  43.436  14.026
12777W        W74066  25.976  37.918   4.698
12778W        W74067  35.603   0.259   4.283
12779W        W74068  38.867  27.546   3.757
12780W        W74069  43.513   7.767  14.866
12781W        W74070  34.108  17.660  13.407
12782W        W74071  28.969   7.364  11.409
12783W        W74072  28.137  13.320  14.311
12784W        W74073  12.263  28.086  14.776
12785W        W74074  31.060  24.105  11.006
12786W        W74075  24.014  16.680   3.232
12787W        W74076  10.801  24.565   1.321
12788W        W74077  35.369  29.592  13.436
12789W        W74078  30.117  15.231   1.881
12790W        W74079  38.829  31.020   2.211
12791W        W74080  29.992  39.946  12.408
12792W        W74081  33.441  18.129  14.396
12793W        W74082  44.455  26.584   0.346
12794W        W74083  19.088  27.614  10.621
12795W        W74084   5.289  37.359  10.563
12796W        W74085   2.866  44.958   2.814
12797W        W74086   0.830  16.126   4.283
12798W        W74087   9.387  42.491   2.806
12799W        W74088  28.454  25.187  14.873
12800W        W74089  29.114  20.167  12.073
12801W        W74090   1.888  40.462   2.191
12802W        W74091  27.013  25.114   4.147
12803W        W74092  27.101  13.783  14.979
12804W        W74093  26.622   1.480  13.312
12805W        W74094  14.591  13.708  13.489
12806W        W74095  27.982   0.947  12.063
12807W        W74096  37.079  40.864  11.129
12808W        W74097  35.379  22.614   4.272
12809W        W74098   2.898  24.999  10.523
12810W        W74099  36.022  41.017   4.144
12811W        W74100  21.193  35.508   2.685
12812W        W74101   8.258  15.590  11.421
12813W        W74102  19.066  42.984  12.550
12814W        W74103   3.377  18.687  11.521
12815W        W74104  36.867  41.434   1.331
12816W        W74105  25.656  36.589  12.013
12817W        W74106  44.332  14.117   3.855
12818W        W74107  33.560  32.941  12.084
12819W        W74108  15.655  34.952   2.900
12820W        W74109  17.801  12.633   2.885
12821W        W74110  19.181  14.752   3.853
12822W        W74111  44.423  15.136  14.016
12823W        W74112  12.723  27.522  11.568
12824W        W74113  12.285  21.664  10.554
12825W        W74114  35.897  24.649  11.929
12826W        W74115  26.652   6.834   5.238
12827W        W74116  41.537   2.870   0.257
12828W        W74117   3.220  26.181   2.694
12829W        W74118  28.938  26.198  14.766
12830W        W74119  16.751  28.613   2.824
12831W        W74120  16.592  19.076  11.492
12832W        W74121  22.633  13.768  11.924
12833W        W74122   6.336  33.067  10.154
12834W        W74123   5.861   0.956   2.677
12835W        W74124  33.096   2.232   3.163
12836W        W74125  38.370  39.855   4.790
12837W        W74126   4.862  15.309  13.516
12838W        W74127  38.524   9.676  12.990
12839W        W74128   5.899  13.161  11.020
12840W        W74129  18.062  44.771  12.935
12841W        W74130  11.254  42.959  12.041
12842W        W74131  39.995  13.283   4.203
12843W        W74132  22.536  27.608  12.067
12844W        W74133  16.679  27.184   2.843
12845W        W74134  35.477  11.847  11.566
12846W        W74135  29.160   6.869   0.882
12847W        W74136  33.127  22.671   4.639
12848W        W74137  44.428  21.610   2.268
12849W        W74138  21.251   6.791   3.369
12850W        W74139   2.775  26.123   0.819
12851W        W74140  21.057  34.465  13.013
12852W        W74141  33.085  25.698   4.819
12853W        W74142   2.746  37.845  10.497
12854W        W74143  34.521   6.361  12.022
12855W        W74144  38.875  35.424  12.920
12856W        W74145   9.727  30.922  13.426
12857W        W74146   2.386  12.218  13.530
12858W        W74147  31.481   1.775  14.008
12859W        W74148  37.456  38.854  10.603
12860W        W74149  23.114  33.574   2.360
12861W        W74150  24.212   8.346   1.848
12862W        W74151  40.835  15.172  14.885
12863W        W74152  17.763  38.983   2.186
12864W        W74153  38.557   0.981  10.983
12865W        W74154  40.876  12.660   1.416
12866W        W74155  30.648  16.072   4.138
12867W        W74156   1.815  43.387   0.448
12868W        W74157   3.240  29.156   3.286
12869W        W74158  26.145  42.328   2.772
12870W        W74159  35.507   1.823  13.977
12871W        W74160   5.818  25.034  12.924
12872W        W74161  31.911  32.397   1.842
12873W        W74162  38.988  35.469   2.406
12874W        W74163  36.370  38.460  12.554
12875W        W74164  44.462  23.104   1.695
12876W        W74165  31.586  35.436   4.816
12877W        W74166  24.208  38.520  13.021
12878W        W74167  44.356  42.434   2.251
12879W        W74168  25.698  18.222   1.918
12880W        W74169  17.615  36.974  14.944
12881W        W74170  17.735  24.135   4.206
12882W        W74171  36.471  31.093  11.098
12883W        W74172  13.319   4.785  12.553
12884W        W74173  37.905  10.780   1.428
12885W        W74174  22.697  30.565   0.770
12886W        W74175   3.719  30.097  13.344
12887W        W74176  29.474  35.902   0.348
12888W        W74177  34.542  18.580  13.063
12889W        W74178  20.059  41.457  14.344
12890W        W74179  34.493  36.098  10.962
12891W        W74180  30.077  33.105  12.378
12892W        W74181   5.776  29.052   3.840
12893W        W74182  30.956  32.447  10.427
12894W        W74183  40.833  26.152   3.769
12895W        W74184  11.823  12.751   3.195
12896W        W74185  37.062  12.197  13.366
12897W        W74186   5.923  28.167   4.807
12898W        W74187  18.702  20.226  12.859
12899W        W74188  13.665   0.391  11.427
12900W        W74189  39.327  35.509  12.430
12901W        W74190  12.850  30.976   2.804
12902W        W74191  27.669  30.011  13.975
12903W        W74192  38.050  37.439   4.642
12904W        W74193  42.507  12.830  11.408
12905W        W74194  30.073  24.504  13.899
12906W        W74195  28.067  10.153  13.353
12907W        W74196  21.573  41.845  14.338
12908W        W74197  38.920  14.248   0.869
12909W        W74198  38.359  35.560  11.999
12910W        W74199  23.728   3.736   3.773
12911W        W74200  31.052   6.314   5.155
12912W        W74201  34.910   6.914  11.019
12913W        W74202   1.356  13.335  13.369
12914W        W74203   4.225  26.971   2.754
12915W        W74204  21.236  39.042   0.783
12916W        W74205  41.810  15.277   0.823
12917W        W74206  16.794  15.325  14.514
12918W        W74207  44.287   1.380  14.773
12919W        W74208  41.805  26.546  10.449
12920W        W74209  22.161  22.137   1.386
12921W        W74210   9.381   8.265  14.843
12922W        W74211   7.228  28.029   3.385
12923W        W74212  25.014  37.858  12.355
12924W        W74213   6.869  30.908  13.342
12925W        W74214  26.172   7.723  14.911
12926W        W74215  18.637  19.265  12.461
12927W        W74216  13.845  18.609  11.523
12928W        W74217  44.477   3.256   4.291
12929W        W74218  44.991  35.483   1.718
12930W        W74219  15.798  14.222  12.490
12931W        W74220  43.962  23.003  13.921
12932W        W74221   6.412  34.574   4.158
12933W        W74222  10.203  34.465   1.236
12934W        W74223  30.604   0.326  14.365
12935W        W74224   4.753  24.530  14.889
12936W        W74225  31.489   1.762   0.782
12937W        W74226  10.367   7.319   4.617
12938W        W74227  24.143  29.455  14.759
12939W        W74228  39.984  42.294   0.429
12940W        W74229  33.526  19.687  14.310
12941W        W74230   9.369  42.508  14.975
12942W        W74231  38.350  17.769  10.955
12943W        W74232  40.912  19.227   3.630
12944W        W74233  14.339  22.641  11.933
12945W        W74234  21.151  35.409  13.827
12946W        W74235  14.700  30.463   3.323
12947W        W74236   3.949  29.656  14.820
12948W        W74237  35.913   1.247  12.441
12949W        W74238  24.182  42.918  11.056
12950W        W74239  23.687  11.735  10.461
12951W        W74240  33.074  31.423  14.772
12952W        W74241  13.692  37.082  13.885
12953W        W74242   4.381   2.445   4.241
12954W        W74243  33.424  10.191  13.513
12955W        W74244  35.479  25.151   0.923
12956W        W74245  32.517   7.388   4.644
12957W        W74246  32.477  25.679   1.711
12958W        W74247  44.287  43.902  10.057
12959W        W74248  42.289  25.206  14.972
12960W        W74249  35.452   5.905   0.286
12961W        W74250  17.677   4.425   2.750
12962W        W74251  18.211   2.333  13.060
12963W        W74252  26.638   4.404  12.523
12964W        W74253  25.003  34.447  12.024
12965W        W74254   8.392  32.598   2.324
12966W        W74255  15.747  40.396  11.930
12967W        W74256   5.333  27.149   1.337
12968W        W74257  16.291  24.528  10.903
12969W        W74258  31.087  37.378   4.714
12970W        W74259  17.596   7.679  14.337
12971W        W74260  32.909  29.486   0.886
12972W        W74261  36.090  42.346   0.800
12973W        W74262  30.975  39.993  14.989
12974W        W74263  31.931  14.279   1.408
12975W        W74264  18.613  36.440   0.906
12976W        W74265  12.724  30.108  10.505
12977W        W74266  29.973  20.545   3.701
12978W        W74267  40.489  25.006   0.325
12979W        W74268   7.696   5.749   3.383
12980W        W74269   8.342  38.470   2.758
12981W        W74270   1.443   2.852   2.749
12982W        W74271  18.752  15.783  14.000
12983W        W74272  12.313  17.636   3.214
12984W        W74273  44.846  36.880  11.512
12985W        W74274  21.120  21.161  12.577
12986W        W74275  10.718  18.286  14.804
12987W        W74276  26.624   7.862   0.355
12988W        W74277  11.186  35.533   3.349
12989W        W74278  20.618  41.846   1.774
12990W        W74279  35.018  37.912  11.448
12991W        W74280  16.242  38.387  14.296
12992W        W74281  38.015  39.344   2.234
12993W        W74282   6.266  38.397  10.948
12994W        W74283  11.664  21.149  12.547
12995W        W74284   7.784  36.441  11.041
12996W        W74285  23.550  10.879   3.790
12997W        W74286  13.350  24.159  14.975
12998W        W74287  33.094  24.687   2.258
12999W        W74288  31.489  16.631   2.737
13000W        W74289  12.256  38.482   1.216
13001W        W74290  14.759  37.539   0.771
13002W        W74291  28.497  23.701  13.337
13003W        W74292  28.059  23.661  12.449
13004W        W74293  44.818  25.708   3.694
13005W        W74294  33.436  11.727  10.970
13006W        W74295  37.012  15.823  11.552
13007W        W74296  11.345  38.830  10.996
13008W        W74297  10.757  37.488   4.721
13009W        W74298  12.794  21.174   1.388
13010W        W74299  15.635  11.700  12.864
13011W        W74300  27.621   3.425  11.593
13012W        W74301  25.658   0.948  12.078
13013W        W74302  34.051   5.787   0.263
13014W        W74303  28.473  16.134   3.378
13015W        W74304  18.613  28.183   2.687
13016W        W74305  20.655  33.973   0.764
13017W        W74306  25.598  23.009   5.666
13018W        W74307  14.771  35.026   1.871
13019W        W74308  36.873  26.532  12.021
13020W        W74309  10.235   4.800  12.403
13021W        W74310  20.256  17.657  13.337
13022W        W74311  28.128  15.718   4.163
13023W        W74312  29.622  40.318   4.115
13024W        W74313  24.499  14.667   0.935
13025W        W74314   5.892  12.726   2.235
13026W        W74315  28.172  43.864   0.866
13027W        W74316  33.056   0.982   4.777
13028W        W74317  16.101  19.681  12.363
13029W        W74318  12.256  15.689   4.666
13030W        W74319  27.940  21.217  13.343
13031W        W74320  30.513   7.238   3.302
13032W        W74321  29.161  15.085   3.371
13033W        W74322  10.664  36.371   0.750
13034W        W74323  30.549  15.794   4.759
13035W        W74324  34.477  24.111  11.378
13036W        W74325  34.011  10.210   3.679
13037W        W74326  36.426  27.569   0.872
13038W        W74327  23.046   4.775   0.276
13039W        W74328  23.645  13.159   0.890
13040W        W74329  28.622  14.661  11.581
13041W        W74330  11.297  25.989  13.038
13042W        W74331  39.560   1.316   3.255
13043W        W74332  20.631  27.035   0.437
13044W        W74333  29.469   1.971  10.632
13045W        W74334  13.213  42.908   1.741
13046W        W74335  22.669  28.492  14.500
13047W        W74336  24.022  39.492  14.781
13048W        W74337  12.292   6.323   4.828
13049W        W74338  34.524  43.459  13.062
13050W        W74339  11.805  36.526   4.223
13051W        W74340  22.185  36.535  13.371
13052W        W74341  34.572  27.100  12.950
13053W        W74342  38.820  22.510   0.261
13054W        W74343  29.030   1.297  14.400
13055W        W74344  38.402  12.360  11.515
13056W        W74345  13.304  12.353  13.882
13057W        W74346   7.228  35.103   0.357
13058W        W74347   7.694  12.212   3.329
13059W        W74348  16.119  26.073   3.793
13060W        W74349  35.959  42.359   1.306
13061W        W74350  17.250  38.939  10.074
13062W        W74351   7.237  41.500   3.225
13063W        W74352  43.426  26.116   4.244
13064W        W74353  14.338  41.356  11.984
13065W        W74354  11.328  13.343   2.851
13066W        W74355   5.789  20.664  12.577
13067W        W74356  11.659  31.506  12.382
13068W        W74357  16.103  40.000  11.100
13069W        W74358   3.869  42.381   1.449
13070W        W74359  29.125  24.049  12.344
13071W        W74360   0.290  14.162  10.943
13072W        W74361  42.934  28.951   1.347
13073W        W74362   1.942  43.828   2.813
13074W        W74363  20.155  24.631  12.000
13075W        W74364  10.305  43.410  10.976
13076W        W74365   2.379  22.201  13.455
13077W        W74366  37.441  14.734   3.200
13078W        W74367  41.317  29.453   2.871
13079W        W74368  44.813   7.815  13.038
13080W        W74369  21.023  17.647   1.870
13081W        W74370  34.391  32.505   3.369
13082W        W74371  39.825  26.493  11.068
13083W        W74372  33.467   9.757  13.327
13084W        W74373  29.100   4.868  14.439
13085W        W74374  14.713  14.634  12.484
13086W        W74375  17.166  40.000   1.415
13087W        W74376  16.761  32.080   1.291
13088W        W74377  18.079   2.912   3.773
13089W        W74378  43.516  17.769   3.716
13090W        W74379  20.192   4.782  12.856
13091W        W74380  35.365   9.223   4.265
13092W        W74381  29.988   8.848   5.261
13093W        W74382  44.809  29.139  11.449
13094W        W74383  42.008  12.133   2.801
13095W        W74384   4.725  26.151   4.756
13096W        W74385  29.055  40.984   2.772
13097W        W74386  26.975  22.644  13.939
13098W        W74387  33.009   6.223  11.411
13099W        W74388   6.302  41.351   2.398
13100W        W74389  38.873  23.212  14.435
13101W        W74390  12.695  10.840   2.409
13102W        W74391  43.273  14.281  12.411
13103W        W74392  18.661  25.044  14.470
13104W        W74393  14.719  16.080  11.440
13105W        W74394  43.003  19.144   1.871
13106W        W74395  34.607  10.654  12.829
13107W        W74396   8.259   4.756   0.910
13108W        W74397  20.549  43.492  12.408
13109W        W74398   9.384  26.566   2.808
13110W        W74399  21.263  23.081  12.023
13111W        W74400  25.119  27.568  10.416
13112W        W74401   7.226  18.647   2.350
13113W        W74402  24.653   6.745   2.355
13114W        W74403   7.253  37.532   3.347
13115W        W74404  21.653  19.552   2.321
13116W        W74405  31.440  13.256   2.883
13117W        W74406  23.198   0.464   3.766
13118W        W74407  39.062  30.455  13.014
13119W        W74408   1.769  11.749   4.782
13120W        W74409  20.687  25.070  11.532
13121W        W74410   3.816  29.659  10.563
13122W        W74411  37.953  22.665  12.386
13123W        W74412  44.421  17.175  13.525
13124W        W74413  39.956   0.988  13.505
13125W        W74414  34.471  36.410   4.800
13126W        W74415   7.727  33.612   1.264
13127W        W74416   4.372  34.979  11.473
13128W        W74417  44.421  22.155  11.995
13129W        W74418  39.332  12.669  11.444
13130W        W74419  16.591  31.460   2.794
13131W        W74420   5.271  39.854   2.204
13132W        W74421  13.136  28.608  14.981
13133W        W74422  37.388  16.667  14.501
13134W        W74423   1.358  26.568   0.393
13135W        W74424  12.818  34.381   1.706
13136W        W74425  14.761  34.465  14.502
13137W        W74426  40.998  27.509  12.879
13138W        W74427  37.364  41.916  13.372
13139W        W74428  42.450   2.903   1.416
13140W        W74429  24.226  27.118  14.762
13141W        W74430  13.808  29.627  12.982
13142W        W74431  11.286  39.986  13.944
13143W        W74432   0.825   1.293  14.422
13144W        W74433  22.561  38.452   3.192
13145W        W74434   9.372  37.853  11.516
13146W        W74435   8.869   1.799   2.201
13147W        W74436  32.542  38.056   3.340
13148W        W74437   9.158   5.766  14.988
13149W        W74438  37.499  38.401  12.950
13150W        W74439  41.407  10.643  11.605
13151W        W74440  40.997  25.184  14.387
13152W        W74441  12.805  41.499  12.354
13153W        W74442  36.071  24.574   3.295
13154W        W74443   7.254   6.848   3.375
13155W        W74444   8.820  37.559  10.033
13156W        W74445  29.515  41.306  12.571
13157W        W74446  35.963  26.068   1.734
13158W        W74447  38.007  29.113  14.499
13159W        W74448  39.938  32.479   4.221
13160W        W74449  19.233   9.660  12.469
13161W        W74450  29.537  17.282  10.012
13162W        W74451  14.117  18.733   4.345
13163W        W74452   1.394  19.744   1.301
13164W        W74453  19.271  44.912  13.885
13165W        W74454  26.063  35.954   4.207
13166W        W74455  44.830  34.500   1.311
13167W        W74456  27.166  28.678  11.567
13168W        W74457  21.514  29.512  11.971
13169W        W74458  29.139  16.673   1.415
13170W        W74459  13.684  41.408  12.530
13171W        W74460   9.255  19.187   3.756
13172W        W74461  12.351  15.787  14.386
13173W        W74462   2.276  14.237   2.856
13174W        W74463  11.707  41.300   1.835
13175W        W74464  41.043  15.108   4.289
13176W        W74465  16.114  11.837  12.977
13177W        W74466  37.009  11.776   3.247
13178W        W74467   2.889  13.254  13.027
13179W        W74468  12.137  37.877  13.940
13180W        W74469  44.316  19.551   1.859
13181W        W74470  15.682  32.433  13.798
13182W        W74471   7.391   2.286  11.008
13183W        W74472  23.004  16.145   4.826
13184W        W74473  14.111  16.172   2.663
13185W        W74474  33.975  26.619   2.346
13186W        W74475  22.217  31.555   3.869
13187W        W74476   1.973   0.484   1.441
13188W        W74477  16.672   0.854   4.344
13189W        W74478   4.440  19.566  12.989
13190W        W74479  41.337  38.954   4.137
13191W        W74480  44.432  18.558  12.466
13192W        W74481  38.344   1.403  11.912
13193W        W74482  14.716   1.373   4.150
13194W        W74483   5.876  23.511  14.875
13195W        W74484  30.930   0.900   2.725
13196W        W74485  20.139  11.754  12.900
13197W        W74486   2.889  24.137  12.406
13198W        W74487  40.384   3.815   0.824
13199W        W74488  18.710  16.730   3.842
13200W        W74489  35.376  26.160  14.973
13201W        W74490  22.108  13.645   3.311
13202W        W74491   9.836  31.623   2.397
13203W        W74492  33.624   6.699  10.082
13204W        W74493  35.899  37.953   3.162
13205W        W74494  22.174  15.675   4.682
13206W        W74495  41.906  43.827   3.846
13207W        W74496  27.993  32.958  14.844
13208W        W74497   9.291  18.087  11.087
13209W        W74498  44.282   7.761   0.945
13210W        W74499  26.527   3.301   3.739
13211W        W74500  22.697   0.418  11.544
13212W        W74501  15.099  19.180  10.527
13213W        W74502  12.155   4.292  11.481
13214W        W74503  40.043  22.116  14.020
13215W        W74504  10.878  35.038  10.933
13216W        W74505  19.639  20.766  14.416
13217W        W74506  10.146   9.787  10.638
13218W        W74507  31.060  36.054  11.464
13219W        W74508   9.376  25.102  10.503
13220W        W74509  24.227  38.381   3.678
13221W        W74510   9.844   2.299  10.432
13222W        W74511  13.187  27.151  13.834
13223W        W74512   5.393   0.966   4.302
13224W        W74513  21.618  33.116   4.653
13225W        W74514  17.668  12.727   3.771
13226W        W74515  14.681   4.722  10.013
13227W        W74516  44.302  25.132   4.274
13228W        W74517  44.262  30.562   2.204
13229W        W74518  24.602   2.782  13.864
13230W        W74519  13.243  22.237  13.941
13231W        W74520  41.861  31.967   1.739
13232W        W74521  32.041  16.600   9.928
13233W        W74522  10.193  42.453   4.634
13234W        W74523  36.901  35.900  12.891
13235W        W74524  11.640  27.069   0.819
13236W        W74525  24.483  44.755   3.736
13237W        W74526  17.305  44.408  13.887
13238W        W74527   1.902  27.043   1.772
13239W        W74528  27.046  39.827   2.666
13240W        W74529  10.665  30.601  12.446
13241W        W74530  16.163  17.106  14.958
13242W        W74531  28.088  10.162   4.313
13243W        W74532  33.957  35.597  14.010
13244W        W74533  19.148  24.621  14.808
13245W        W74534  27.485  38.498   0.318
13246W        W74535  43.445  20.029   3.721
13247W        W74536  44.304  32.618   0.746
13248W        W74537  12.265   2.894  12.412
13249W        W74538  32.604  29.618  14.402
13250W        W74539  29.455   3.713  11.876
13251W        W74540  32.492  30.031  12.006
13252W        W74541   1.908   1.379   0.353
13253W        W74542   0.337   0.950  13.340
13254W        W74543  15.104   1.777  12.085
13255W        W74544  29.977   5.225   0.916
13256W        W74545  33.049  30.084   1.371
13257W        W74546  41.493  33.417   0.842
13258W        W74547  15.107  21.096  13.855
13259W        W74548   1.363  20.131  11.471
13260W        W74549  43.846  28.590   0.747
13261W        W74550  35.384  41.463  12.529
13262W        W74551  34.552   9.805   1.254
13263W        W74552  38.842  21.535   2.718
13264W        W74553  29.535  18.561   3.335
13265W        W74554  17.730  32.575   4.600
13266W        W74555  27.946  30.998   1.261
13267W        W74556   2.267  10.696   2.368
13268W        W74557  29.520  34.959  13.020
13269W        W74558  39.888   4.895   1.221
13270W        W74559  41.845  15.764  13.429
13271W        W74560  37.547  25.986  11.107
13272W        W74561   1.430  40.923  10.894
13273W        W74562   6.874  13.151  13.461
13274W        W74563  39.417  19.581   2.230
13275W        W74564  25.520   5.726  11.959
13276W        W74565  15.206  33.880   4.313
13277W        W74566  10.808   8.398   3.281
13278W        W74567   3.874  20.526   1.813
13279W        W74568   1.785   3.781   2.283
13280W        W74569  42.796  37.872   2.863
13281W        W74570  19.139   3.361   1.925
13282W        W74571   7.774  10.866   0.938
13283W        W74572  10.338  12.349  12.463
13284W        W74573  33.902  33.542   4.778
13285W        W74574  44.972  27.949  13.046
13286W        W74575  23.636  22.664   2.817
13287W        W74576  39.869  19.052   0.267
13288W        W74577  32.408  38.484   4.298
13289W        W74578   8.747   8.804   9.938
13290W        W74579   0.481  15.724  12.344
13291W        W74580   5.228   3.866   0.773
13292W        W74581   0.380  21.079  11.424
13293W        W74582  33.492  10.168  12.431
13294W        W74583  17.795  33.499   0.250
13295W        W74584  26.559  32.569  10.516
13296W        W74585  23.240  11.808  10.426
13297W        W74586  33.599  27.091   0.816
13298W        W74587  36.935  20.174   1.741
13299W        W74588   7.355  29.138  12.542
13300W        W74589  18.552  25.167  11.925
13301W        W74590  15.263   0.898   4.621
13302W        W74591  34.586  28.489  12.997
13303W        W74592  16.206  27.164  12.887
13304W        W74593   1.273  20.140  10.448
13305W        W74594   0.844   8.886   5.135
13306W        W74595  37.408  24.088  11.884
13307W        W74596  12.189  42.788  14.856
13308W        W74597   6.749  34.893  14.006
13309W        W74598  35.492  18.124  12.004
13310W        W74599   5.417  26.114   1.915
13311W        W74600  43.447   1.271   2.185
13312W        W74601   4.277  43.887  14.470
13313W        W74602  19.063  33.109  11.914
13314W        W74603  12.226  44.500   9.489
13315W        W74604  16.642  30.955   4.135
13316W        W74605  21.125  20.610   1.391
13317W        W74606  31.021  11.225   0.878
13318W        W74607  29.036   6.712  13.019
13319W        W74608  20.655   5.271   3.348
13320W        W74609   6.889  31.592  13.960
13321W        W74610   0.272  28.116   2.200
13322W        W74611  34.498  22.038  14.452
13323W        W74612  20.601  10.245   3.197
13324W        W74613   5.399  30.620   4.708
13325W        W74614  42.937   1.801  10.444
13326W        W74615  25.021  33.407   1.833
13327W        W74616  18.084  31.509   4.221
13328W        W74617  15.314  29.918   3.248
13329W        W74618  32.437  14.696  13.335
13330W        W74619  24.002  25.531  14.008
13331W        W74620  39.557  43.789  12.036
13332W        W74621  33.020   8.758   4.795
13333W        W74622  37.936  27.035   3.758
13334W        W74623   0.320  22.208  10.600
13335W        W74624  30.078  18.084  14.821
13336W        W74625  36.418  42.944   4.305
13337W        W74626  16.156  12.116  11.060
13338W        W74627  15.820  42.809  13.980
13339W        W74628  42.362  17.688   0.379
13340W        W74629   0.854  39.856  13.315
13341W        W74630  21.163  39.506   0.482
13342W        W74631  14.596  11.262   2.369
13343W        W74632  30.918  21.706  11.109
13344W        W74633  42.288  35.568   0.750
13345W        W74634  37.046  18.205  10.144
13346W        W74635  20.229   5.439  12.506
13347W        W74636  33.039  25.658  11.012
13348W        W74637   0.832   7.844   4.739
13349W        W74638  27.493  40.409  14.419
13350W        W74639   8.291   4.255  13.053
13351W        W74640  32.422  22.028   4.307
13352W        W74641   4.398  39.555  10.541
13353W        W74642  14.663   5.421  13.377
13354W        W74643   6.881  39.557   0.390
13355W        W74644  17.745   7.667  13.910
13356W        W74645  11.209  41.377   0.953
13357W        W74646  13.838   3.441   3.704
13358W        W74647  44.280  23.221   0.762
13359W        W74648  37.878   8.401  13.030
13360W        W74649  37.445  18.126  14.801
13361W        W74650  16.149  16.588  14.494
13362W        W74651  29.030  25.122   1.804
13363W        W74652  13.168  14.736   3.291
13364W        W74653  33.012   1.319   2.179
13365W        W74654  42.886  30.100   4.308
13366W        W74655  19.142   2.304   2.749
13367W        W74656  30.508  27.659   4.654
13368W        W74657   0.480   6.304  13.379
13369W        W74658  13.664  42.841   0.332
13370W        W74659  12.747   7.871  14.506
13371W        W74660  19.771  24.526   1.350
13372W        W74661   2.909  13.288  14.916
13373W        W74662  32.110  24.540   3.703
13374W        W74663  36.050  40.437   0.456
13375W        W74664  18.620  42.931   2.800
13376W        W74665  27.067  39.454  11.529
13377W        W74666  25.541  39.454  13.413
13378W        W74667  23.103  13.299  12.487
13379W        W74668  15.707  20.570  14.858
13380W        W74669  41.864  36.098   4.340
13381W        W74670  13.707  15.662  12.511
13382W        W74671  37.962   7.686   0.427
13383W        W74672  35.005   4.302  12.340
13384W        W74673  23.212   9.748  11.093
13385W        W74674  41.974  15.713  11.993
13386W        W74675   1.755  11.255   3.844
13387W        W74676  15.637   6.343   5.221
13388W        W74677  17.740  26.097   4.604
13389W        W74678  37.491   7.898   3.295
13390W        W74679  36.504  37.469   2.726
13391W        W74680  29.160  20.246   2.253
13392W        W74681  37.086  39.835   3.658
13393W        W74682  20.108  11.178   1.816
13394W        W74683  34.502  10.194   0.831
13395W        W74684  27.571  40.399  13.356
13396W        W74685   7.399   6.712  14.974
13397W        W74686  34.398  10.828  13.800
13398W        W74687  15.300  26.650  14.970
13399W        W74688   6.838  13.702  13.985
13400W        W74689  21.049  10.727  12.549
13401W        W74690  29.655  22.620   3.691
13402W        W74691  25.077  20.637   3.383
13403W        W74692  19.710  17.583   2.796
13404W        W74693  27.473  37.381   4.765
13405W        W74694   9.812   1.255   2.249
13406W        W74695  27.634  21.229  14.482
13407W        W74696  25.571  29.172   1.315
13408W        W74697  22.030   6.359   4.225
13409W        W74698   2.371  27.508   1.694
13410W        W74699  19.596  28.443  14.940
13411W        W74700   2.813   9.703   4.162
13412W        W74701  37.910  33.926   3.783
13413W        W74702   6.788  34.433  13.793
13414W        W74703  23.993  42.025   3.781
13415W        W74704  22.694  41.410  14.296
13416W        W74705  23.523  41.967  14.007
13417W        W74706   6.680  31.552   4.737
13418W        W74707  26.156  14.677   3.867
13419W        W74708  15.207   2.430   1.320
13420W        W74709  44.981  29.940  13.930
13421W        W74710  24.214  39.027  12.526
13422W        W74711  42.296   1.284  11.595
13423W        W74712  25.200  22.234  12.472
13424W        W74713  21.217   1.868  13.451
13425W        W74714  11.703  29.450   5.283
13426W        W74715  33.612  14.211  11.978
13427W        W74716  35.444  39.549  14.355
13428W        W74717  24.091  22.151  13.420
13429W        W74718   2.452   7.712  12.843
13430W        W74719   5.771   7.398  12.841
13431W        W74720  24.085  23.715  13.461
13432W        W74721  16.261   5.341   4.687
13433W        W74722  44.365  23.034   4.165
13434W        W74723  29.530   7.838  11.443
13435W        W74724  15.683  14.784  13.543
13436W        W74725  29.661  36.589   3.784
13437W        W74726  24.569  41.987   0.279
13438W        W74727   1.828  10.184   0.333
13439W        W74728  10.865  33.129  14.327
13440W        W74729  32.088  43.964   3.695
13441W        W74730  25.156  29.558  13.481
13442W        W74731   6.720  17.723   1.761
13443W        W74732  38.364   7.347  14.783
13444W        W74733  32.133   6.738   4.309
13445W        W74734  25.687  10.765  12.343
13446W        W74735  43.872  15.755   1.422
13447W        W74736   3.332  11.665   4.606
13448W        W74737   1.384   7.194  10.451
13449W        W74738   1.282  22.593  11.536
13450W        W74739  18.165  39.919   2.206
13451W        W74740  27.680  38.047   0.839
13452W        W74741  10.701  32.531  13.397
13453W        W74742  40.448  33.949   3.336
13454W        W74743   3.934  28.514  12.052
13455W        W74744   2.399  12.173  13.825
13456W        W74745  34.551   7.753   4.266
13457W        W74746   8.380  29.539  11.913
13458W        W74747  33.954  32.410  12.024
13459W        W74748   3.252  14.237  12.924
13460W        W74749  36.089  40.467  11.606
13461W        W74750  29.612  26.151  13.799
13462W        W74751  11.811   9.382   0.910
13463W        W74752  34.539  31.982  10.636
13464W        W74753  33.519  21.711  12.570
13465W        W74754  12.126  38.420   3.851
13466W        W74755  19.747  36.936   0.754
13467W        W74756   4.248  41.449   4.707
13468W        W74757  18.238   4.398   1.249
13469W        W74758  29.157  12.153   1.883
13470W        W74759  13.298   0.975   1.805
13471W        W74760  22.170  23.130   3.778
13472W        W74761  38.032  10.166   3.747
13473W        W74762  31.515  42.367  14.924
13474W        W74763  16.191  29.486   3.202
13475W        W74764  38.969   7.396  12.440
13476W        W74765  30.963  20.620  12.476
13477W        W74766  15.803  10.838   1.213
13478W        W74767   5.349  37.931   0.266
13479W        W74768  30.530  13.751   2.277
13480W        W74769   3.932  15.798  12.022
13481W        W74770  17.801  21.141   5.580
13482W        W74771  39.427   5.901   4.816
13483W        W74772  20.159  27.182  11.952
13484W        W74773  43.952  17.641  11.591
13485W        W74774  22.525   6.828  13.961
13486W        W74775  43.312   0.357  11.951
13487W        W74776   3.728  40.799   0.741
13488W        W74777  17.759  10.674  10.605
13489W        W74778  12.140  28.595  13.547
13490W        W74779  17.279   3.435  10.591
13491W        W74780  18.561  19.778  12.443
13492W        W74781  25.019  24.050   3.680
13493W        W74782  10.319  34.592  12.012
13494W        W74783  17.739  11.188  14.943
13495W        W74784  16.141  38.350   2.390
13496W        W74785  12.768  11.742   4.633
13497W        W74786  37.053   9.208   1.766
13498W        W74787  38.024  23.513  11.373
13499W        W74788  41.316   4.420   1.365
13500W        W74789   1.832   7.282  11.372
13501W        W74790  29.108  40.486  12.362
13502W        W74791  13.647  23.187  11.373
13503W        W74792   6.229   9.306   4.599
13504W        W74793  24.685  27.965   2.400
13505W        W74794  24.190  36.530   4.614
13506W        W74795  31.130  32.017   2.395
13507W        W74796   0.933  34.499   2.846
13508W        W74797   7.726  11.235  10.479
13509W        W74798  31.915  41.000   4.160
13510W        W74799   6.757  37.030  13.473
13511W        W74800  43.497   8.892   1.420
13512W        W74801  28.046   5.225  13.471
13513W        W74802  11.143  22.541   2.863
13514W        W74803  15.122   6.273  10.964
13515W        W74804   1.861  32.524  11.040
13516W        W74805  28.142  35.456   2.870
13517W        W74806  29.944  13.698  12.072
13518W        W74807  14.178   5.906  13.476
13519W        W74808  12.155  10.353  12.025
13520W        W74809  12.305  24.505   0.852
13521W        W74810   5.931  28.639  12.944
13522W        W74811  19.168   0.388  13.915
13523W        W74812  26.957  27.172  10.493
13524W        W74813   8.378  24.482   2.883
13525W        W74814   1.899  36.863   4.344
13526W        W74815  21.750  13.617  14.297
13527W        W74816  13.277  32.539  12.475
13528W        W74817  37.876  19.110  14.483
13529W        W74818  28.554   6.715   2.249
13530W        W74819  15.823   9.701   1.215
13531W        W74820  37.502  17.789  11.472
13532W        W74821   0.492  44.795  12.902
13533W        W74822  35.867  24.609  11.441
13534W        W74823  18.152  25.030   4.685
13535W        W74824  15.790  16.632  11.064
13536W        W74825  40.889  40.433  13.827
13537W        W74826  40.410  13.681  14.468
13538W        W74827   9.293  43.775  11.855
13539W        W74828  19.760  43.000   5.212
13540W        W74829   9.356  27.068   5.789
13541W        W74830  38.044   1.325  13.866
13542W        W74831  29.645  40.850   4.334
13543W        W74832  40.339  16.295  11.914
13544W        W74833   6.774  31.933   9.955
13545W        W74834   1.469  21.229  10.579
13546W        W74835  18.229  38.844   0.261
13547W        W74836  14.781  30.997  14.782
13548W        W74837  10.174  30.648  10.563
13549W        W74838  38.906  15.638   2.878
13550W        W74839   4.835  19.177  13.922
13551W        W74840  29.999  26.071   0.868
13552W        W74841  21.704  38.981   3.311
13553W        W74842  32.497  19.584  10.521
13554W        W74843  27.122  20.531   2.866
13555W        W74844  18.224  36.566   1.832
13556W        W74845  39.977  14.321  13.538
13557W        W74846  31.567   6.278  14.823
13558W        W74847   6.208  21.066  11.093
13559W        W74848  33.482  37.401   1.290
13560W        W74849  38.061  35.546   2.784
13561W        W74850  27.193   4.748  11.430
13562W        W74851  39.887  21.171   1.806
13563W        W74852  36.485  40.314   0.392
13564W        W74853   9.192  31.505   2.341
13565W        W74854  32.464   5.247  11.954
13566W        W74855  12.352  43.949   3.242
13567W        W74856  34.967   3.335   1.418
13568W        W74857  26.992  44.401   0.907
13569W        W74858  15.718  28.011   3.272
13570W        W74859  40.975  36.852  12.090
13571W        W74860  24.038  44.258   1.707
13572W        W74861   2.887  40.962  14.289
13573W        W74862  16.310  25.705   1.764
13574W        W74863   3.823  41.353   4.817
13575W        W74864  14.762  23.097  13.351
13576W        W74865  15.779  25.583   4.652
13577W        W74866  35.514  28.143   1.741
13578W        W74867  30.075  36.375   2.391
13579W        W74868   2.955  39.952  11.465
13580W        W74869  29.073  10.701   2.847
13581W        W74870  19.215  12.311   1.838
13582W        W74871   9.367   1.392   4.683
13583W        W74872   6.872  14.320  12.922
13584W        W74873   4.793   2.343  14.845
13585W        W74874   9.769  41.846   2.190
13586W        W74875  12.696  12.294  14.774
13587W        W74876  36.921  36.966  10.537
13588W        W74877   3.751  44.920   2.346
13589W        W74878  35.463  41.361   3.866
13590W        W74879   4.335  36.591   3.686
13591W        W74880  15.796  25.650   5.705
13592W        W74881  20.691   3.412   3.323
13593W        W74882  19.217  44.756  14.837
13594W        W74883   0.945  31.910   5.103
13595W        W74884  13.619  11.176  11.859
13596W        W74885  27.483  10.228  11.930
13597W        W74886  42.972  24.007  11.019
13598W        W74887  26.619  40.852   1.447
13599W        W74888  40.461  36.988   2.285
13600W        W74889   4.767   8.249   3.824
13601W        W74890  44.493   2.887   4.761
13602W        W74891  41.437  10.832   3.309
13603W        W74892  18.293  42.394  13.435
13604W        W74893  25.054  41.356  14.003
13605W        W74894   6.428   3.315   4.693
13606W        W74895  15.652  26.690   2.827
13607W        W74896  29.576  43.766   0.850
13608W        W74897  33.503   0.810  12.082
13609W        W74898  39.932  40.995   4.682
13610W        W74899  11.181  34.020   5.259
13611W        W74900  13.827  27.124  13.863
13612W        W74901  13.621  29.642   1.829
13613W        W74902  34.507  38.404   2.359
13614W        W74903  10.305  21.549  11.036
13615W        W74904  13.710   5.737  13.995
13616W        W74905  28.486  12.167   1.819
13617W        W74906  35.557  24.183  12.350
13618W        W74907  29.071  14.692  13.521
13619W        W74908  39.011  15.188  12.935
13620W        W74909  42.001  35.542  14.974
13621W        W74910  42.455  36.442   2.193
13622W        W74911   5.395  24.993  14.487
13623W        W74912  34.470  27.069   0.345
13624W        W74913  37.995  23.666  14.457
13625W        W74914   1.376  18.648  11.112
13626W        W74915   7.721  27.675   0.477
13627W        W74916  43.384   0.324   3.225
13628W        W74917  20.087  13.123   1.752
13629W        W74918  21.030  35.063   3.319
13630W        W74919  23.218  25.146  13.920
13631W        W74920  35.954   8.335  11.572
13632W        W74921  41.031  27.686   2.777
13633W        W74922   7.755  41.440  12.506
13634W        W74923  22.613  29.542   3.761
13635W        W74924  39.837  33.893  13.062
13636W        W74925   7.879   9.721   0.443
13637W        W74926   8.777  41.421  12.844
13638W        W74927   5.233  13.628  12.560
13639W        W74928  26.635  23.653  13.886
13640W        W74929  21.566   5.309  14.867
13641W        W74930  43.403  13.645  14.295
13642W        W74931  33.045  20.720   0.933
13643W        W74932  39.511  30.919   3.382
13644W        W74933  44.854  35.395  14.961
13645W        W74934  19.142  22.718   1.429
13646W        W74935  23.503  18.564   4.685
13647W        W74936  31.587  28.550   4.274
13648W        W74937  37.001  27.630   2.219
13649W        W74938   8.663  33.390  12.995
13650W        W74939  42.505   3.252  12.565
13651W        W74940  25.101   2.335   1.333
13652W        W74941  34.373  31.420   0.950
13653W        W74942  26.597   7.357   3.810
13654W        W74943  18.752  23.988  11.068
13655W        W74944  28.624  33.528  13.937
13656W        W74945   9.253  15.242   0.823
13657W        W74946  22.640  38.028   1.768
13658W        W74947  25.154  42.503   1.862
13659W        W74948  17.164   8.388   0.362
13660W        W74949   1.336  22.638   1.253
13661W        W74950  30.483   7.678  13.488
13662W        W74951  38.961  33.475  11.578
13663W        W74952  37.889   6.757  14.853
13664W        W74953  18.710  44.801   1.246
13665W        W74954  34.926  44.319   5.231
13666W        W74955   1.905   1.958  10.999
13667W        W74956   4.408  13.785  13.007
13668W        W74957  40.878   8.660   4.598
13669W        W74958  38.944  37.350   5.208
13670W        W74959   3.428  35.384  11.981
13671W        W74960  39.319  39.441  13.320
13672W        W74961  31.450  18.624   1.333
13673W        W74962  31.495   7.264  12.380
13674W        W74963  19.147  18.283   4.203
13675W        W74964  41.332  27.543  10.446
13676W        W74965  29.921  20.034   3.316
13677W        W74966  37.076  29.012  12.480
13678W        W74967   4.232  15.683  10.563
13679W        W74968   0.777  32.410  12.361
13680W        W74969   5.722  27.007   2.827
13681W        W74970  27.108  42.429   0.952
13682W        W74971  44.802  41.352  14.895
13683W        W74972  12.655  34.975  13.351
13684W        W74973  27.608  42.379  11.112
13685W        W74974  18.241  34.110  13.974
13686W        W74975  42.407  14.154   3.759
13687W        W74976  31.071   3.854   4.658
13688W        W74977   0.373  10.818   3.324
13689W        W74978   4.250  26.665  13.492
13690W        W74979  21.123   5.870   1.810
13691W        W74980   7.349  34.456   4.237
13692W        W74981   0.930  41.303  12.438
13693W        W74982  11.818   4.885  13.872
13694W        W74983  19.741  15.619  10.568
13695W        W74984  27.641  33.940  13.886
13696W        W74985  10.837   9.716  14.029
13697W        W74986  20.573  19.197  12.552
13698W        W74987  40.315  22.655  10.900
13699W        W74988  43.824  30.046   3.180
13700W        W74989  38.861  16.098   4.256
13701W        W74990  27.031  33.910   4.150
13702W        W74991  26.490   7.699  14.482
13703W        W74992   5.199  10.273  11.603
13704W        W74993  15.670  42.324   4.222
13705W        W74994  44.259  31.998  14.435
13706W        W74995   4.748  36.518  14.368
13707W        W74996  24.707  11.144   4.755
13708W        W74997  13.281  40.320  11.494
13709W        W74998  29.607  22.167  11.450
13710W        W74999  11.147  28.127  13.970
13711W        W75000  28.028  12.741  14.803
13712W        W75001   6.325  37.367   2.867
13713W        W75002   2.390   1.891   0.913
13714W        W75003  17.691  10.807  14.922
13715W        W75004  39.885   9.825  14.452
13716W        W75005  36.432  27.017   3.836
13717W        W75006  43.902  17.616   1.441
13718W        W75007  17.769  35.942  12.877
13719W        W75008  42.775  36.500   1.347
13720W        W75009  39.483  44.925  13.516
13721W        W75010   1.432   3.385   3.681
13722W        W75011  37.925  27.447  13.896
13723W        W75012  35.087  32.399  12.930
13724W        W75013  38.979  18.683  11.119
13725W        W75014   5.318  30.912  12.523
13726W        W75015   8.776  20.677  14.892
13727W        W75016  35.891  29.978   1.903
13728W        W75017  10.702   1.782  10.626
13729W        W75018  31.521  10.705  14.358
13730W        W75019  44.767   0.823  14.000
13731W        W75020  44.299  44.418   0.804
13732W        W75021  14.767   2.761  11.419
13733W        W75022  24.590  26.131   2.287
13734W        W75023   5.414  31.614   3.331
13735W        W75024  42.930  23.054  14.505
13736W        W75025  19.539  13.346  14.382
13737W        W75026   1.770   1.315  14.455
13738W        W75027  43.310   3.352   3.653
13739W        W75028  26.146  42.857  10.517
13740W        W75029  38.346  13.258  10.958
13741W        W75030   4.912  16.234   0.791
13742W        W75031   4.923  43.323  10.482
13743W        W75032  12.141   9.655  11.385
13744W        W75033  27.641  29.118  13.860
13745W        W75034   7.196   6.368   2.672
13746W        W75035  19.166  25.547   4.262
13747W        W75036  24.098  11.230  10.929
13748W        W75037  41.418  36.847   1.233
13749W        W75038  25.101  43.979  10.989
13750W        W75039  25.631  15.203  14.828
13751W        W75040   7.866  30.498  13.888
13752W        W75041  14.159  40.332  13.458
13753W        W75042  19.285  15.186  11.911
13754W        W75043  35.562  12.149   3.316
13755W        W75044   3.884  44.459  12.474
13756W        W75045  10.239   5.389  12.523
13757W        W75046  11.336   2.780  12.456
13758W        W75047  37.340  13.630   3.751
13759W        W75048  37.046  13.662   1.227
13760W        W75049  37.923   8.277  13.793
13761W        W75050   6.738  23.046  10.584
13762W        W75051  28.067  28.491   1.439
13763W        W75052  39.833   8.756   9.450
13764W        W75053   2.285  39.479  10.618
13765W        W75054  12.347   4.867  13.012
13766W        W75055  21.080   0.399   3.325
13767W        W75056  26.094   0.816  10.420
13768W        W75057  42.346  22.654   0.908
13769W        W75058  29.164  32.584   1.818
13770W        W75059  17.788  22.174  10.480
13771W        W75060  14.302  11.373   2.781
13772W        W75061  41.513   2.400  14.303
13773W        W75062  24.231  43.826   1.761
13774W        W75063  18.197  40.023   1.265
13775W        W75064  34.405  22.523   3.212
13776W        W75065  25.501  19.619   3.855
13777W        W75066  24.052  19.664  10.606
13778W        W75067  10.654  26.069  11.070
13779W        W75068   8.895  33.986  13.491
13780W        W75069   8.299   2.372  12.002
13781W        W75070   2.887   8.691  14.895
13782W        W75071  12.215   2.341   0.472
13783W        W75072  35.934  19.239   1.385
13784W        W75073   1.251  33.589  10.434
13785W        W75074  32.022   2.377  11.545
13786W        W75075  12.734  15.322  11.056
13787W        W75076  25.496  18.738  14.812
13788W        W75077  28.022  28.463   2.749
13789W        W75078   7.867  38.993  14.834
13790W        W75079  12.154  17.748   4.156
13791W        W75080   2.790  37.883   0.455
13792W        W75081  37.448   1.813  14.023
13793W        W75082  36.889  37.430   1.813
13794W        W75083   8.330  38.437   1.866
13795W        W75084  11.179   5.697   3.664
13796W        W75085  19.062   6.771   3.643
13797W        W75086  43.864  42.996   3.330
13798W        W75087   5.727   2.835   0.760
13799W        W75088  44.789   0.784  14.882
13800W        W75089  25.132   3.443  13.440
13801W        W75090  35.881  23.080   0.808
13802W        W75091  43.428  39.033   3.189
13803W        W75092  32.124  29.435   1.851
13804W        W75093  20.745   3.218   0.852
13805W        W75094  25.008  39.972   4.837
13806W        W75095   1.290   3.416  13.327
13807W        W75096  40.046  42.304   3.748
13808W        W75097  40.966  13.255  14.878
13809W        W75098  17.208   5.232   4.829
13810W        W75099  28.495  32.097  13.374
13811W        W75100  31.496  14.328   3.709
13812W        W75101  13.319  17.242   1.897
13813W        W75102   4.790  31.405   0.476
13814W        W75103  18.549  39.477  10.427
13815W        W75104  37.961  22.720   2.375
13816W        W75105   0.808  14.150   1.333
13817W        W75106   9.737   0.883   0.332
13818W        W75107  17.181  25.154   2.388
13819W        W75108  18.631  28.995   3.349
13820W        W75109  31.641   6.832   1.386
13821W        W75110  21.056  19.181   2.747
13822W        W75111  40.548  29.503  14.972
13823W        W75112  20.083  18.779   0.457
13824W        W75113  40.376  41.341  10.574
13825W        W75114  28.469  26.514   2.784
13826W        W75115  33.094   4.846  13.321
13827W        W75116  13.308  38.349   5.605
13828W        W75117   5.333  30.998  13.355
13829W        W75118  28.592   0.459  10.500
13830W        W75119  33.528   2.955   1.847
13831W        W75120   5.381  10.773   4.640
13832W        W75121  26.578  33.901  12.356
13833W        W75122  23.068   6.418  12.392
13834W        W75123  13.323  27.158  12.485
13835W        W75124   1.919  10.767   0.900
13836W        W75125  11.835  17.214  13.805
13837W        W75126   4.309  15.694   1.886
13838W        W75127  21.754  41.517  12.421
13839W        W75128   8.811  18.609   0.378
13840W        W75129   6.229  41.889   0.458
13841W        W75130  27.500  38.899  14.987
13842W        W75131  16.781   4.234   0.280
13843W        W75132  29.458  27.088   0.395
13844W        W75133   3.749  12.230  10.472
13845W        W75134  42.996   0.266   2.318
13846W        W75135   3.910   7.784   1.384
13847W        W75136   5.409   0.450  13.014
13848W        W75137  21.038  19.682  12.888
13849W        W75138   0.805  19.282   4.204
13850W        W75139  10.228  22.239  12.417
13851W        W75140  41.986   1.398  14.993
13852W        W75141  23.631  39.503  14.479
13853W        W75142  22.178  39.494   3.159
13854W        W75143  18.077  10.340   0.786
13855W        W75144  30.471  18.719   3.209
13856W        W75145  14.761  19.071  10.465
13857W        W75146  43.953  16.770  13.456
13858W        W75147  19.632   1.956  10.477
13859W        W75148   3.931  29.006   1.414
13860W        W75149  19.280  15.303   4.207
13861W        W75150  40.969  18.592   4.777
13862W        W75151   8.686   4.273  10.999
13863W        W75152  43.801  26.492   1.314
13864W        W75153  22.514  41.917  14.415
13865W        W75154   8.386   2.790   3.337
13866W        W75155  16.270  19.685   1.842
13867W        W75156  28.093   2.377  13.990
13868W        W75157  34.522  24.702   2.393
13869W        W75158  27.189   7.684   2.713
13870W        W75159   6.679  23.090   4.333
13871W        W75160  15.692  34.609   0.311
13872W        W75161  26.555  41.976   3.845
13873W        W75162  10.704  43.852   4.144
13874W        W75163  32.397  28.075  11.862
13875W        W75164  11.802  21.637   0.319
13876W        W75165  37.078  30.516  12.340
13877W        W75166  15.097  42.450  12.928
13878W        W75167  41.796   0.432   2.727
13879W        W75168  29.532   5.392   4.606
13880W        W75169  11.346  23.146  14.010
13881W        W75170  23.160  39.980  10.607
13882W        W75171  35.938   3.851  12.894
13883W        W75172  19.642  30.920   4.671
13884W        W75173  14.817  37.849   3.376
13885W        W75174  22.071  21.027  10.906
13886W        W75175   7.225  38.859   2.868
13887W        W75176  44.818   1.872  10.490
13888W        W75177   2.759  30.017   3.225
13889W        W75178  19.212  16.627  10.524
13890W        W75179  14.334  36.513  14.295
13891W        W75180  40.887  26.992   1.745
13892W        W75181  34.964  10.869   3.634
13893W        W75182   4.761  12.315   4.759
13894W        W75183   7.689   0.747  12.033
13895W        W75184   9.738  17.258  14.812
13896W        W75185  35.075   1.879   3.743
13897W        W75186  22.086  44.886  11.457
13898W        W75187  42.798  32.635  10.503
13899W        W75188  12.296  26.034  14.373
13900W        W75189  15.302  14.668   4.650
13901W        W75190  21.625  18.276  11.100
13902W        W75191   5.296  12.631  13.366
13903W        W75192  13.709  16.187  12.827
13904W        W75193  24.614  12.772  13.331
13905W        W75194  38.561  14.616   5.178
13906W        W75195  28.104  38.425  12.403
13907W        W75196   9.222  10.337  12.538
13908W        W75197  30.079  40.372   1.304
13909W        W75198  17.702   6.371  10.508
13910W        W75199  27.135  14.612  13.546
13911W        W75200  39.889  27.980  12.842
13912W        W75201  43.850   7.301  11.395
13913W        W75202  42.846  33.597   5.278
13914W        W75203  15.255  10.736   4.138
13915W        W75204  26.041  30.518   2.246
13916W        W75205  13.745  13.760   4.152
13917W        W75206  34.491  13.636   0.250
13918W        W75207  28.034   5.312  14.315
13919W        W75208  38.928  13.725   5.319
13920W        W75209  22.182  32.421   0.445
13921W        W75210  39.399  37.337   1.770
13922W        W75211  23.998   1.884  12.941
13923W        W75212  28.991   1.894  11.029
13924W        W75213   8.786  14.199   2.232
13925W        W75214  17.116   0.820  10.144
13926W        W75215  30.037  41.921   3.746
13927W        W75216  42.995  20.103  13.394
13928W        W75217  37.969  15.092   1.699
13929W        W75218  44.977  38.502   0.796
13930W        W75219   5.214  18.174   0.931
13931W        W75220  32.474   9.868  14.306
13932W        W75221  11.172  25.538  14.944
13933W        W75222  32.892  41.900   3.752
13934W        W75223  36.431   9.362   0.319
13935W        W75224   5.723  27.684  10.897
13936W        W75225   6.236   8.376  13.791
13937W        W75226  20.197  12.128  12.403
13938W        W75227  12.170  13.603  10.608
13939W        W75228   6.746  12.733  11.121
13940W        W75229  39.517  30.098   3.764
13941W        W75230  24.597  19.728  11.018
13942W        W75231  10.771   6.282   3.203
13943W        W75232   9.215  20.643  14.283
13944W        W75233   7.849   9.877   1.211
13945W        W75234  11.175  19.698  14.417
13946W        W75235  16.782  38.935  12.457
13947W        W75236   8.284   7.848  11.453
13948W        W75237  37.963  43.973  12.031
13949W        W75238   4.709  17.768   0.772
13950W        W75239  10.326  19.048   4.177
13951W        W75240  15.300  14.718  13.348
13952W        W75241  22.213   5.801  12.970
13953W        W75242  16.710  44.970  10.470
13954W        W75243  39.429  28.487   0.479
13955W        W75244  34.064  29.003   0.949
13956W        W75245  28.526  23.526   0.270
13957W        W75246  19.221  25.207  10.917
13958W        W75247  38.563  12.165   0.333
13959W        W75248  25.567  29.544   0.458
13960W        W75249  40.956  44.008   1.837
13961W        W75250  35.451  35.510  11.403
13962W        W75251  14.835  11.189   1.781
13963W        W75252  38.400  17.141  12.004
13964W        W75253  29.055   1.463  10.581
13965W        W75254   7.779  18.629   2.361
13966W        W75255  20.618  10.801  11.988
13967W        W75256   0.295  23.990  11.440
13968W        W75257  28.962   6.730  14.977
13969W        W75258  19.245  13.714  14.463
13970W        W75259  30.082  31.941   3.849
13971W        W75260  38.909   8.788  12.351
13972W        W75261  30.497   7.257  14.887
13973W        W75262  28.181  35.991  12.096
13974W        W75263  37.992   5.219  13.508
13975W        W75264  34.085  31.526  12.567
13976W        W75265  42.316  38.046  14.768
13977W        W75266   5.885  39.998  10.484
13978W        W75267  34.943   7.726  12.955
13979W        W75268  21.541   0.951   2.851
13980W        W75269  28.665  16.218   4.318
13981W        W75270   7.806  30.537   4.667
13982W        W75271  23.526  33.035  11.959
13983W        W75272  18.077  41.912  13.384
13984W        W75273  17.719  39.930   1.306
13985W        W75274   9.793  38.455  10.920
13986W        W75275  43.402  42.880   2.699
13987W        W75276  28.503   2.868   3.712
13988W        W75277  35.041  40.416   4.230
13989W        W75278  27.642  10.691  10.638
13990W        W75279   8.663  34.047  10.447
13991W        W75280  38.563  44.814  14.368
13992W        W75281   0.462  33.509   2.409
13993W        W75282  35.365  44.809   4.262
13994W        W75283  12.283  29.143   1.855
13995W        W75284   5.271  23.173  13.870
13996W        W75285  16.182   0.953   2.278
13997W        W75286   1.805  43.489   2.689
13998W        W75287  14.670  41.381  11.530
13999W        W75288  18.727  43.843  12.485
14000W        W75289  34.120  24.542  11.547
14001W        W75290  15.102  10.685  13.473
14002W        W75291  40.801  33.497  10.912
14003W        W75292  36.990  10.676  10.899
14004W        W75293   1.469   7.892   4.180
14005W        W75294   5.205  43.936   0.836
14006W        W75295  31.015  21.747  14.808
14007W        W75296  40.408  28.028   3.245
14008W        W75297   1.955  34.058  14.950
14009W        W75298   0.908  20.586   0.760
14010W        W75299   6.360  10.732   4.281
14011W        W75300  43.794   4.424  12.492
14012W        W75301  19.221  15.661  12.520
14013W        W75302  27.690  44.925   2.416
14014W        W75303   4.851   3.403  13.898
14015W        W75304   6.806  20.113  13.411
14016W        W75305  23.545  27.994   4.803
14017W        W75306  21.090  31.911   2.781
14018W        W75307  27.982  44.767  11.585
14019W        W75308  24.218  23.047  13.499
14020W        W75309  33.386  37.069   0.957
14021W        W75310  32.067   5.780   2.780
14022W        W75311  34.875  19.675   3.265
14023W        W75312   9.162  44.379   2.773
14024W        W75313  14.133  13.171  11.545
14025W        W75314   5.287  11.641  10.991
14026W        W75315  24.594  21.194  12.084
14027W        W75316  16.177  22.017  11.989
14028W        W75317   3.407  12.718  10.934
14029W        W75318  42.882  41.921   4.252
14030W        W75319  30.121  22.018  11.890
14031W        W75320  24.988  32.635  14.821
14032W        W75321  30.607  20.754   2.855
14033W        W75322   9.804  16.175  12.935
14034W        W75323  44.849  33.499  11.941
14035W        W75324   5.287   4.860  10.630
14036W        W75325   3.357  19.040   2.721
14037W        W75326  18.229  35.960  13.458
14038W        W75327  28.148  13.177  11.104
14039W        W75328  21.522  30.040   4.755
14040W        W75329  32.052  30.432  11.112
14041W        W75330  11.860  44.939  10.563
14042W        W75331  40.041  13.298  13.387
14043W        W75332  40.371  44.811   0.278
14044W        W75333  34.547  37.482   1.290
14045W        W75334  37.834  43.773   3.352
14046W        W75335   9.361  27.607   4.658
14047W        W75336  20.071  24.580  13.010
14048W        W75337   3.402   9.194   0.855
14049W        W75338  41.921  31.478  12.025
14050W        W75339   6.824  11.147   0.822
14051W        W75340   2.314   4.228  11.492
14052W        W75341  27.115  15.264   3.160
14053W        W75342  25.112   4.408  12.554
14054W        W75343  35.037  41.494   0.876
14055W        W75344  28.460  26.581   4.345
14056W        W75345  21.109   3.776  10.535
14057W        W75346   4.278  22.119   1.783
14058W        W75347  19.657  41.310  11.541
14059W        W75348  32.508  42.987   2.757
14060W        W75349  24.123  44.828  12.505
14061W        W75350  17.755  44.454  12.533
14062W        W75351  41.895  18.703  12.081
14063W        W75352  23.164  12.745   2.856
14064W        W75353   9.718  42.365  14.955
14065W        W75354  11.209  35.420  11.519
14066W        W75355   9.160  43.829   3.633
14067W        W75356  25.485  44.875   4.207
14068W        W75357  33.132  14.213  11.538
14069W        W75358  10.267  41.373  11.537
14070W        W75359  38.069  25.565  14.389
14071W        W75360   1.394  35.588   4.776
14072W        W75361  29.629  32.521  12.849
14073W        W75362  24.127  36.416  12.037
14074W        W75363  27.658  26.121  12.041
14075W        W75364   6.817  32.517  12.890
14076W        W75365  30.540   3.872   2.226
14077W        W75366  15.632  35.438  14.989
14078W        W75367  20.605  35.905   2.185
14079W        W75368   3.740  35.985  14.322
14080W        W75369  27.173  32.898  14.975
14081W        W75370  31.015  34.595  14.278
14082W        W75371  23.039  12.199   0.413
14083W        W75372  32.574  14.703  13.998
14084W        W75373  30.965  26.052   4.651
14085W        W75374  39.333  42.446  14.879
14086W        W75375  40.439  42.455  14.829
14087W        W75376   9.338   9.315  14.834
14088W        W75377  26.544   4.300  11.473
14089W        W75378   3.416   8.223  14.356
14090W        W75379   3.449   5.687  13.899
14091W        W75380   0.340  25.128  14.323
14092W        W75381  39.549  36.922   4.627
14093W        W75382  33.999   3.904   0.728
14094W        W75383  25.220   6.750  13.950
14095W        W75384  41.348  34.898   0.766
14096W        W75385  41.908  14.788   3.675
14097W        W75386  39.933  31.934   1.729
14098W        W75387  28.085  30.926  14.395
14099W        W75388   1.272  18.187   0.790
14100W        W75389  18.253  17.134   3.812
14101W        W75390  43.507  39.483   0.944
14102W        W75391  36.544   0.340   3.860
14103W        W75392  20.203   2.261   4.236
14104W        W75393  38.880  13.645   3.321
14105W        W75394  39.383   2.428   3.220
14106W        W75395  18.186  36.546   4.215
14107W        W75396  35.097  44.281   3.690
14108W        W75397  15.123  43.958  10.976
14109W        W75398  44.307  24.549   1.321
14110W        W75399   5.875  21.114  14.029
14111W        W75400   2.797  20.729   2.190
14112W        W75401  13.298   3.910  12.442
14113W        W75402  35.941  41.417   0.949
14114W        W75403  18.646  39.395  12.956
14115W        W75404  26.136  32.951   4.630
14116W        W75405  25.968  17.156  11.577
14117W        W75406  36.355  22.622  14.833
14118W        W75407  19.143  37.524  13.456
14119W        W75408  31.071  11.730  11.499
14120W        W75409  27.078  17.789   4.355
14121W        W75410  43.829  17.641   2.858
14122W        W75411  38.954  32.096   3.250
14123W        W75412  21.209  25.106  12.501
14124W        W75413  25.709  42.449  11.100
14125W        W75414  11.647  33.527   3.808
14126W        W75415  13.308  27.524  13.479
14127W        W75416  22.541   4.381   2.864
14128W        W75417  24.091  18.164   5.116
14129W        W75418   4.337   4.431  13.466
14130W        W75419   4.429  40.463  12.577
14131W        W75420  12.855  17.074   0.874
14132W        W75421   4.404   9.685  10.936
14133W        W75422  22.565   3.295   4.683
14134W        W75423  11.836   1.735  14.432
14135W        W75424  22.998  28.931   0.358
14136W        W75425  29.027  13.791  14.309
14137W        W75426  26.479  36.410  12.460
14138W        W75427  34.044   3.915  13.864
14139W        W75428   6.206   7.338   5.083
14140W        W75429  22.644  35.986  14.379
14141W        W75430  16.173  41.503  11.510
14142W        W75431   5.210  43.409   3.772
14143W        W75432  20.688  10.345  11.545
14144W        W75433  21.749  40.936  12.984
14145W        W75434  32.440  12.633   0.880
14146W        W75435  40.009   1.458  14.021
14147W        W75436  17.780   1.762  12.493
14148W        W75437  30.537   0.474   0.811
14149W        W75438  21.130  16.309  10.982
14150W        W75439   4.828  20.742  13.965
14151W        W75440  24.078  44.275  14.315
14152W        W75441  11.750  29.457   4.712
14153W        W75442  34.988  17.146  11.100
14154W        W75443  32.425   2.868  12.963
14155W        W75444  29.921  40.946   0.912
14156W        W75445  10.197   4.804   1.357
14157W        W75446   4.805  28.121   4.291
14158W        W75447  30.434  19.103   4.601
14159W        W75448  34.440  11.759  13.386
14160W        W75449  36.351   1.923   0.787
14161W        W75450   8.233  12.659  12.892
14162W        W75451  33.111  19.147  12.474
14163W        W75452  41.966  37.036   4.320
14164W        W75453  29.932  31.535   3.640
14165W        W75454  25.490  18.630  11.859
14166W        W75455  16.622  41.438  11.024
14167W        W75456  31.940   4.881   4.140
14168W        W75457   6.795   0.858   4.634
14169W        W75458  19.665  44.392   4.717
14170W        W75459  15.204  19.172  14.009
14171W        W75460   1.408  33.903  13.961
14172W        W75461  23.678   2.356  12.062
14173W        W75462  26.675  18.106  11.053
14174W        W75463  19.688  19.063  14.384
14175W        W75464  39.847  40.537   0.362
14176W        W75465  12.818  12.307  13.955
14177W        W75466  10.384  15.705   1.444
14178W        W75467   7.319  14.168  13.038
14179W        W75468  13.655  42.899   5.212
14180W        W75469  43.278  42.451   0.780
14181W        W75470  12.769  19.536  12.991
14182W        W75471  29.475  17.187   0.886
14183W        W75472  28.675   8.274   3.655
14184W        W75473  10.717  29.543  10.624
14185W        W75474  30.616  25.188  14.801
14186W        W75475   8.253  33.407   2.692
14187W        W75476  10.262  18.126  12.523
14188W        W75477   5.374  13.664   4.296
14189W        W75478  14.759  27.686  11.487
14190W        W75479   7.833  37.019   4.703
14191W        W75480  36.531  11.371   4.750
14192W        W75481   8.315  33.461  13.985
14193W        W75482   2.248  26.127   1.749
14194W        W75483  18.590  11.649  10.896
14195W        W75484  17.120   4.226  12.063
14196W        W75485  22.614  21.108   2.200
14197W        W75486   9.789  21.062   1.832
14198W        W75487  35.456  44.932   3.196
14199W        W75488  16.679  30.496   0.873
14200W        W75489  44.904   1.906  13.479
14201W        W75490   4.843  33.487  13.855
14202W        W75491  27.446   1.311   1.402
14203W        W75492  21.169  10.367   2.266
14204W        W75493   5.192  35.895  14.844
14205W        W75494  21.187  30.076  12.052
14206W        W75495  42.930  15.124   0.925
14207W        W75496  41.298  41.328   1.930
14208W        W75497  21.667   8.398   4.115
14209W        W75498  17.128  20.049   5.084
14210W        W75499  37.938  11.139  10.979
14211W        W75500  38.829  43.359   1.835
14212W        W75501  16.202  10.344  14.945
14213W        W75502  21.662  14.288   0.247
14214W        W75503  20.652  22.546  12.509
14215W        W75504  20.703   9.782  10.932
14216W        W75505  10.662  25.643  13.516
14217W        W75506   4.858  11.745   1.712
14218W        W75507  37.580  31.559   4.703
14219W        W75508   5.765  27.952   1.437
14220W        W75509  19.763  42.329   1.801
14221W        W75510  17.738  43.878   1.368
14222W        W75511  13.203   0.446  13.443
14223W        W75512  33.111   3.452   3.277
14224W        W75513  44.871   2.304  13.977
14225W        W75514  18.059  15.200  14.976
14226W        W75515  43.392   4.338   4.191
14227W        W75516  24.015   8.301  14.899
14228W        W75517  19.169  21.214   1.373
14229W        W75518  33.453  32.399   1.311
14230W        W75519  17.562  14.776   1.347
14231W        W75520   9.389  41.410  12.526
14232W        W75521  15.115  35.557  14.332
14233W        W75522  37.869   1.404   4.756
14234W        W75523  40.952  32.580   2.695
14235W        W75524  26.109   6.842  10.963
14236W        W75525  41.399   4.815   4.643
14237W        W75526  29.496  44.956   1.413
14238W        W75527  17.760  32.525   1.730
14239W        W75528  26.960  23.094  12.918
14240W        W75529  30.117   5.787   3.248
14241W        W75530   4.784   2.886   1.388
14242W        W75531  18.743  24.690  11.045
14243W        W75532  13.749  43.962   4.247
14244W        W75533  35.910   5.726  13.011
14245W        W75534  36.025  18.242  14.283
14246W        W75535   0.303  38.958   0.759
14247W        W75536   2.756  34.065  13.467
14248W        W75537  25.061  29.061   2.237
14249W        W75538  21.096  28.110  12.488
14250W        W75539  17.597  33.501  13.946
14251W        W75540  31.152  15.293  11.517
14252W        W75541  38.068  38.010   0.460
14253W        W75542  21.163   1.752   0.430
14254W        W75543  14.227  25.184  12.496
14255W        W75544  21.705  20.171   3.806
14256W        W75545  24.111  29.950   1.397
14257W        W75546  19.130  21.083  13.943
14258W        W75547  24.217  42.915  13.942
14259W        W75548  38.015  11.298   0.930
14260W        W75549   2.349  33.947  14.472
14261W        W75550  35.886  29.924   4.142
14262W        W75551  20.160  14.600   0.375
14263W        W75552  15.746   3.797  14.782
14264W        W75553  18.186   6.695  11.867
14265W        W75554  23.161  42.966   3.190
14266W        W75555  29.590   3.218   1.810
14267W        W75556   4.749  29.021   3.707
14268W        W75557   9.766  35.415  10.911
14269W        W75558   8.806  13.667   1.319
14270W        W75559   5.882  34.546   2.800
14271W        W75560   0.824   4.698   3.237
14272W        W75561  35.852   7.399  10.462
14273W        W75562  26.016  41.978   4.669
14274W        W75563  28.502   0.769   4.292
14275W        W75564  34.369   0.475   9.558
14276W        W75565  16.751  19.767   1.447
14277W        W75566  36.870  30.504   3.358
14278W        W75567  26.080   0.800   0.252
14279W        W75568   7.818   8.838   3.271
14280W        W75569  17.767   5.840  11.563
14281W        W75570   5.918   2.786  13.442
14282W        W75571  41.316   9.250  12.474
14283W        W75572  26.688   3.387   3.203
14284W        W75573   1.896  35.852  13.377
14285W        W75574  36.524  20.575   4.799
14286W        W75575  14.252   5.784  12.400
14287W        W75576  41.020  42.453  12.853
14288W        W75577  34.541   6.353   3.293
14289W        W75578  40.825   1.892  13.323
14290W        W75579  28.062  43.318  12.400
14291W        W75580   8.402   2.413   0.890
14292W        W75581   8.296  38.418  11.596
14293W        W75582  25.020  17.636   4.125
14294W        W75583  20.737  42.388  12.902
14295W        W75584  17.649  14.337  14.357
14296W        W75585  37.430   9.815  11.600
14297W        W75586   4.726  35.439   3.229
14298W        W75587  40.490   9.368   0.375
14299W        W75588  40.882  20.655  13.814
14300W        W75589  19.688  19.573  13.543
14301W        W75590   2.452   8.254   4.777
14302W        W75591   8.399  33.556   2.411
14303W        W75592  23.607  20.261   1.385
14304W        W75593  25.043   4.361   3.850
14305W        W75594  13.157  40.448   3.735
14306W        W75595  13.617  43.990   0.928
14307W        W75596  29.667  21.245  10.966
14308W        W75597  38.348   1.732  14.886
14309W        W75598   9.853   6.365   1.757
14310W        W75599  31.963  40.513  13.493
14311W        W75600  37.846  13.634   2.679
14312W        W75601  14.183  19.111   0.361
14313W        W75602  38.567  20.565   9.961
14314W        W75603  19.662  31.647  12.027
14315W        W75604  12.760  16.738  11.901
14316W        W75605  15.815   7.236  14.356
14317W        W75606  23.506  11.695   2.830
14318W        W75607   7.191  31.973  11.980
14319W        W75608  42.005  29.069   3.663
14320W        W75609  21.601   4.376  14.415
14321W        W75610  27.070  39.026   1.863
14322W        W75611   5.356   6.417   3.196
14323W        W75612  28.949  40.953   4.752
14324W        W75613  31.901  19.638  11.555
14325W        W75614  37.862  33.017  12.923
14326W        W75615   0.949  29.007  10.888
14327W        W75616  34.397  33.974   1.325
14328W        W75617  40.043  31.114  13.873
14329W        W75618  25.166  18.786  10.455
14330W        W75619  27.067  27.051   4.760
14331W        W75620  42.788   3.236  11.939
14332W        W75621  37.920   3.305  11.596
14333W        W75622  37.369  23.191  13.794
14334W        W75623   7.234  39.491  12.392
14335W        W75624   4.344  36.919   0.768
14336W        W75625  31.115   0.390  14.377
14337W        W75626  18.622  26.027   3.748
14338W        W75627  15.091  36.558   9.951
14339W        W75628  12.748   1.912   2.269
14340W        W75629  39.512  36.409   2.720
14341W        W75630  43.847  21.729   2.887
14342W        W75631  35.359  40.903   3.862
14343W        W75632  20.655   7.692  14.785
14344W        W75633  41.981  22.532   1.406
14345W        W75634  20.674  38.921  10.991
14346W        W75635  10.866  36.348   1.236
14347W        W75636  35.037  23.655  11.963
14348W        W75637  30.915  44.323  12.008
14349W        W75638  11.734   5.803  10.929
14350W        W75639   7.254  27.640  11.395
14351W        W75640  29.961  35.484  11.989
14352W        W75641  16.206  37.063   0.450
14353W        W75642  40.875  10.315   3.379
14354W        W75643   2.745  40.488  13.528
14355W        W75644  41.954   2.414   2.200
14356W        W75645   8.833   5.272   4.730
14357W        W75646  21.616  34.599  11.916
14358W        W75647  26.179  44.933   3.701
14359W        W75648   4.778  13.315  14.828
14360W        W75649   7.400   1.423  13.380
14361W        W75650   2.830  37.966  13.546
14362W        W75651  43.440   3.824   0.268
14363W        W75652   8.726  30.497   3.288
14364W        W75653  44.453  36.447   2.352
14365W        W75654  11.329   3.913   1.358
14366W        W75655  17.143  16.743   1.304
14367W        W75656  29.559   1.480  11.402
14368W        W75657  41.901  26.173   3.768
14369W        W75658  32.060  35.565  14.493
14370W        W75659  38.460  38.518   0.260
14371W        W75660  40.518  16.797   1.243
14372W        W75661  23.102   2.379   4.675
14373W        W75662  15.215  22.106  13.408
14374W        W75663  20.248  25.545   3.191
14375W        W75664   2.370  12.151   4.337
14376W        W75665  36.477  32.586   4.353
14377W        W75666   8.839   4.377   3.803
14378W        W75667  30.534  39.556  14.772
14379W        W75668   3.387  28.952   0.843
14380W        W75669  27.626  26.600  14.512
14381W        W75670  22.500  38.403  11.438
14382W        W75671   5.907  31.945   3.350
14383W        W75672  28.471  24.168  11.413
14384W        W75673  25.657   8.806   3.651
14385W        W75674  37.954  44.890  13.993
14386W        W75675  28.575  22.222   4.310
14387W        W75676  39.544  41.871   4.288
14388W        W75677   1.247  24.071  14.478
14389W        W75678  28.439  11.235   2.375
14390W        W75679  22.998  26.060   1.930
14391W        W75680  17.650  27.558  12.038
14392W        W75681   6.822  22.208   2.307
14393W        W75682  10.868   6.414  14.291
14394W        W75683  18.101  19.216   0.957
14395W        W75684  28.092  33.613   4.299
14396W        W75685  14.280   0.294  14.345
14397W        W75686  40.534  28.013   2.402
14398W        W75687  40.012  24.111  11.867
14399W        W75688  35.462   4.304   1.368
14400W        W75689  25.193  27.196   4.634
14401W        W75690   3.868  32.020  14.452
14402W        W75691  21.707  40.350   2.742
14403W        W75692  17.705   8.711   4.694
14404W        W75693  33.393  37.444  11.423
14405W        W75694  40.432  44.441   9.944
14406W        W75695   1.742  32.016   4.788
14407W        W75696  22.199  10.858   4.711
14408W        W75697  37.950  11.761  11.044
14409W        W75698  18.770  40.833  12.513
14410W        W75699  31.564  16.107   1.220
14411W        W75700  31.622  42.440   4.214
14412W        W75701   5.701  14.670  12.467
14413W        W75702  41.494  35.380   3.650
14414W        W75703   5.206   8.256   1.405
14415W        W75704  11.740  21.100   9.989
14416W        W75705  38.937  13.634  12.554
14417W        W75706  17.781   3.374  13.326
14418W        W75707  39.446  15.165   5.220
14419W        W75708   9.679   0.438  11.067
14420W        W75709  43.380  38.376  14.470
14421W        W75710  29.427  34.916  10.956
14422W        W75711  44.759   8.176  11.530
14423W        W75712  43.971   2.752  14.411
14424W        W75713  39.838  18.725  13.007
14425W        W75714   0.862  25.706   1.226
14426W        W75715  34.445  42.023   2.842
14427W        W75716  44.868  22.152   3.349
14428W        W75717  35.370   8.351   3.304
14429W        W75718  25.068   5.783  12.353
14430W        W75719  17.065   1.373  11.371
14431W        W75720  36.941  30.126   4.291
14432W        W75721  22.159   5.411  13.898
14433W        W75722  24.095  16.312   1.890
14434W        W75723  33.005  38.024   4.809
14435W        W75724  29.043  16.274   1.391
14436W        W75725  42.486  27.603  13.501
14437W        W75726  14.789  17.167  12.932
14438W        W75727  22.688  12.786  12.367
14439W        W75728  22.164  16.308  11.473
14440W        W75729  28.507  36.070   4.267
14441W        W75730   5.914  16.637  14.854
14442W        W75731   9.266  20.254  12.927
14443W        W75732  28.667   0.946  11.514
14444W        W75733  13.639  40.408   1.831
14445W        W75734   1.784  32.585   0.399
14446W        W75735  12.753  24.158  11.969
14447W        W75736  18.290   8.699  14.377
14448W        W75737  22.542  34.535  13.383
14449W        W75738   6.244  43.407  11.561
14450W        W75739  22.249   1.346   2.405
14451W        W75740  41.953  20.113   2.365
14452W        W75741   9.689  35.905  10.014
14453W        W75742   7.672  27.146   2.750
14454W        W75743   7.785  39.808   2.834
14455W        W75744  30.432  21.555   1.215
14456W        W75745  13.770  15.118  12.064
14457W        W75746  37.565  25.215   2.320
14458W        W75747  34.115   2.786   4.172
14459W        W75748   4.720   3.732  14.814
14460W        W75749  21.742   0.308   1.749
14461W        W75750  25.198  24.983   4.628
14462W        W75751  23.148  17.671   1.277
14463W        W75752  22.010  28.491  14.399
14464W        W75753  26.104  12.118  13.436
14465W        W75754  16.150  22.198  13.056
14466W        W75755  11.314  16.307  10.449
14467W        W75756  40.499   6.761   0.251
14468W        W75757  11.632  43.920   5.627
14469W        W75758  18.141  23.190   0.432
14470W        W75759  37.473  42.945   3.633
14471W        W75760  37.353   2.394  14.396
14472W        W75761  11.366   6.746   0.866
14473W        W75762  22.684   3.225  11.426
14474W        W75763  36.550  37.060   4.729
14475W        W75764   6.186  36.984  11.389
14476W        W75765  23.068  15.597  14.444
14477W        W75766  32.959  19.566  12.929
14478W        W75767  16.074  35.107   1.294
14479W        W75768   7.706  32.564   3.294
14480W        W75769  27.643   7.796   4.837
14481W        W75770  39.873  30.156   4.133
14482W        W75771  19.090  16.649   0.381
14483W        W75772  36.533  44.937   0.755
14484W        W75773   7.674  28.053   1.361
14485W        W75774  44.833  34.598  11.397
14486W        W75775  24.623  36.437   0.268
14487W        W75776  20.561   4.835  14.315
14488W        W75777   6.706  43.456   1.388
14489W        W75778  41.027   6.775   4.173
14490W        W75779  23.985  35.369   1.700
14491W        W75780  21.524  22.576  10.629
14492W        W75781   4.302   3.218   3.664
14493W        W75782  29.562   4.213   5.191
14494W        W75783   9.149  17.161   3.779
14495W        W75784  34.414  22.178  11.991
14496W        W75785  32.957  44.959   1.340
14497W        W75786  40.443   7.181   0.854
14498W        W75787  34.420   3.939  14.912
14499W        W75788   0.395   2.916  12.435
14500W        W75789   1.369  43.984  11.032
14501W        W75790  28.165  25.984  14.947
14502W        W75791  23.210  31.627   4.169
14503W        W75792   5.194  23.055   1.379
14504W        W75793  37.408  30.650  13.057
14505W        W75794  38.883  38.571   2.685
14506W        W75795  39.471  19.091  14.023
14507W        W75796   8.393  44.337   1.852
14508W        W75797  41.860  30.143   0.413
14509W        W75798  25.023  26.523  12.013
14510W        W75799  31.976  23.565   1.436
14511W        W75800  44.990  37.418  13.951
14512W        W75801  27.123  38.050  13.871
14513W        W75802  39.886  10.689  12.872
14514W        W75803   3.461   3.817   2.333
14515W        W75804  42.003  22.022   4.799
14516W        W75805  44.477  19.206  13.914
14517W        W75806  41.884  31.925  14.412
14518W        W75807  30.425  33.549  14.340
14519W        W75808  10.270  24.601   2.304
14520W        W75809  17.157  13.321   0.887
14521W        W75810  44.003  11.323   0.302
14522W        W75811  25.135  42.844   1.291
14523W        W75812  26.002  13.769  10.461
14524W        W75813  34.541   1.238  11.870
14525W        W75814  15.316   0.471   4.172
14526W        W75815  42.514  35.906   4.304
14527W        W75816  29.119  29.600  12.465
14528W        W75817  35.369  24.078  12.891
14529W        W75818  38.443  15.240   3.702
14530W        W75819  30.546   4.350   1.771
14531W        W75820  38.564  42.448  11.971
14532W        W75821  32.048  35.883  11.914
14533W        W75822  24.552   4.752   4.212
14534W        W75823  29.593   0.326  12.850
14535W        W75824   0.790  29.451   3.349
14536W        W75825  32.113  27.074  12.938
14537W        W75826  15.111  17.271   4.243
14538W        W75827  33.525   6.825   4.834
14539W        W75828   9.848   4.356  11.476
14540W        W75829   9.697  44.500   0.859
14541W        W75830  22.700  26.127   1.307
14542W        W75831  41.334  12.258   9.987
14543W        W75832  21.699  10.250  13.542
14544W        W75833  15.239  11.292  13.413
14545W        W75834   4.915  40.929  14.349
14546W        W75835  20.222  10.675  13.312
14547W        W75836   5.806  26.153   3.688
14548W        W75837  41.328   4.917  11.035
14549W        W75838  12.848  43.809  13.512
14550W        W75839  22.532  43.350  11.939
14551W        W75840   1.383  36.010  10.486
14552W        W75841  35.575  14.190  11.597
14553W        W75842   2.895  40.533   1.334
14554W        W75843   4.702  24.037   0.297
14555W        W75844   7.305  19.221   2.681
14556W        W75845  42.314   2.752  10.594
14557W        W75846  37.875   2.445  11.937
14558W        W75847  21.023  18.603  14.024
14559W        W75848  24.626  17.288   4.240
14560W        W75849  30.033  30.645   0.788
14561W        W75850  20.618   5.713   0.274
14562W        W75851  15.108  14.702  14.867
14563W        W75852  42.401  42.872  14.931
14564W        W75853  19.742  35.926   3.212
14565W        W75854  43.870  11.695   3.161
14566W        W75855  37.066  10.747  12.856
14567W        W75856  40.948  22.743   4.614
14568W        W75857  22.240  16.673   4.739
14569W        W75858   1.301  40.452  12.019
14570W        W75859  24.088  40.479   1.736
14571W        W75860  10.807  31.100   3.245
14572W        W75861  35.381  40.373  12.016
14573W        W75862  23.542  11.634   3.368
14574W        W75863   4.248  32.956   2.876
14575W        W75864  38.920  21.539  14.276
14576W        W75865  44.294  23.222  11.037
14577W        W75866  29.065  34.065  11.487
14578W        W75867   5.217   4.905  11.536
14579W        W75868  40.365  22.655   2.308
14580W        W75869  27.657  11.142   2.368
14581W        W75870  27.144   0.454   4.717
14582W        W75871  21.197  42.882  10.505
14583W        W75872   7.415  25.547  13.817
14584W        W75873   4.239  33.975  13.322
14585W        W75874  41.420  44.902  11.013
14586W        W75875   2.917   2.751   3.846
14587W        W75876  12.210  37.018   9.968
14588W        W75877  19.178   6.333  11.588
14589W        W75878  21.725  14.772  13.491
14590W        W75879   8.215  30.444   0.312
14591W        W75880  13.653  43.408  10.551
14592W        W75881  20.610  11.175   2.297
14593W        W75882  17.584  32.531  11.888
14594W        W75883   7.745  44.448  11.882
14595W        W75884   6.817   5.419   3.672
14596W        W75885  24.103  27.602  12.366
14597W        W75886   6.238  19.678  10.581
14598W        W75887  42.935   6.356  13.810
14599W        W75888  29.167  16.181  10.422
14600W        W75889  26.169  12.749   0.906
14601W        W75890   4.333  15.201   1.803
14602W        W75891  14.778  25.518   4.206
14603W        W75892  27.165   3.788   0.412
14604W        W75893   0.798  35.514   1.280
14605W        W75894   3.366  32.988  11.010
14606W        W75895  32.392  35.866  11.538
14607W        W75896  20.258  28.676   1.885
14608W        W75897   6.694  29.132  12.515
14609W        W75898  43.400  43.793  12.031
14610W        W75899   9.209   0.944   5.128
14611W        W75900   2.247   6.791   3.371
14612W        W75901  37.889   0.373  13.496
14613W        W75902  33.059  28.472  14.410
14614W        W75903  43.450  31.507  11.569
14615W        W75904  34.515   1.285  10.500
14616W        W75905  17.597  14.637  13.867
14617W        W75906   2.313  23.696  10.574
14618W        W75907  36.508   6.417  11.862
14619W        W75908  34.507  44.784   1.913
14620W        W75909  11.264  42.403  14.795
14621W        W75910   5.886  27.022   0.441
14622W        W75911  23.597  30.613   2.257
14623W        W75912  19.633  10.271   4.666
14624W        W75913  19.710  38.900  14.007
14625W        W75914  36.536   8.381  14.476
14626W        W75915  21.524  22.719   0.467
14627W        W75916  11.313  30.994  12.946
14628W        W75917  15.624  35.377   3.303
14629W        W75918   8.232  20.709  14.856
14630W        W75919  32.954   4.228  12.461
14631W        W75920  16.309  29.542  12.523
14632W        W75921  37.070  31.598  12.453
14633W        W75922   3.937  10.202   0.442
14634W        W75923   3.841  38.867   2.787
14635W        W75924  26.987   1.279   2.676
14636W        W75925   7.702  40.843   2.740
14637W        W75926  36.556  39.447   1.695
14638W        W75927  30.562  37.518  12.383
14639W        W75928  11.302   4.773   4.753
14640W        W75929   2.242   5.814   1.893
14641W        W75930  41.925  28.079  12.032
14642W        W75931  17.089  10.638   4.634
14643W        W75932  38.053  30.434  11.890
14644W        W75933  35.884  28.625   0.442
14645W        W75934   1.309  36.430   0.830
14646W        W75935  12.273  20.634  10.910
14647W        W75936  31.439  18.166  11.968
14648W        W75937   2.738  24.217   3.243
14649W        W75938   7.857   0.362   2.336
14650W        W75939  30.994  27.962  14.416
14651W        W75940  17.273   0.743  10.567
14652W        W75941  13.630  11.727   3.742
14653W        W75942  25.650  26.200  11.963
14654W        W75943  38.849  29.029   3.382
14655W        W75944  43.476   1.928  12.001
14656W        W75945   4.814  29.954  14.996
14657W        W75946   3.330  10.143  14.831
14658W        W75947  28.512  14.136  12.910
14659W        W75948  40.946   6.856  12.521
14660W        W75949  44.329  12.257  11.943
14661W        W75950  14.747  25.011  13.365
14662W        W75951   4.405  14.755  11.431
14663W        W75952  31.627  29.068  13.850
14664W        W75953   0.271  10.765  12.421
14665W        W75954  27.565   4.227   2.716
14666W        W75955   7.320  22.670  11.915
14667W        W75956   3.364   1.261   0.350
14668W        W75957  27.152  44.888   2.875
14669W        W75958   6.387   9.303   0.242
14670W        W75959  22.742  18.739   1.911
14671W        W75960   5.221  21.195  13.059
14672W        W75961  28.166  43.997   0.397
14673W        W75962  39.326  19.056   1.871
14674W        W75963   9.769   2.290  11.574
14675W        W75964   4.922  39.459  14.922
14676W        W75965  15.233  37.512   2.393
14677W        W75966  30.971   3.909  12.033
14678W        W75967  37.436  37.385  12.865
14679W        W75968  33.490  16.622  14.448
14680W        W75969   8.809   7.821   3.770
14681W        W75970   7.845  21.047   5.213
14682W        W75971  32.080  10.738   2.216
14683W        W75972  16.594  33.918   4.191
14684W        W75973   9.844   3.331   3.229
14685W        W75974  11.284  34.951  11.042
14686W        W75975   3.429  42.879   0.252
14687W        W75976  34.036  43.483   4.754
14688W        W75977  41.921  12.786   0.366
14689W        W75978  13.128  11.834  11.385
14690W        W75979  19.567  14.222   1.244
14691W        W75980  24.617  35.487   4.819
14692W        W75981  26.525  18.737   4.240
14693W        W75982  41.503   8.786   5.101
14694W        W75983  16.178  13.284   0.878
14695W        W75984  17.556  22.164  10.976
14696W        W75985  14.716  44.397   4.218
14697W        W75986  22.638  33.100   0.435
14698W        W75987  17.652  27.474   3.175
14699W        W75988  15.105  33.993  13.982
14700W        W75989  35.443   2.430   9.978
14701W        W75990  19.118  27.120  12.558
14702W        W75991  38.035   6.804  10.978
14703W        W75992  31.900   8.201   3.369
14704W        W75993  22.568  22.690  14.902
14705W        W75994   0.309   7.812  14.020
14706W        W75995  41.825  13.181   5.277
14707W        W75996   1.307   2.950  11.065
14708W        W75997  11.836  41.426   0.340
14709W        W75998  31.932  39.351  10.594
14710W        W75999  18.565   3.889   4.745
14711W        W76000  18.679  23.208   3.789
14712W        W76001  15.622  40.386  10.543
14713W        W76002  16.637   9.306   3.157
14714W        W76003   7.293   4.360  14.503
14715W        W76004  12.229   2.408  13.956
14716W        W76005  29.099  30.990   0.452
14717W        W76006  43.842  39.933  13.831
14718W        W76007   7.666  29.446  11.940
14719W        W76008  41.918  31.950  12.411
14720W        W76009  26.505  21.132   5.242
14721W        W76010   4.870  41.500  12.861
14722W        W76011   5.248  38.448  13.045
14723W        W76012  44.300  24.645   2.179
14724W        W76013  23.194  14.267   1.827
14725W        W76014  13.295  27.657  12.841
14726W        W76015   4.772  44.379   4.805
14727W        W76016  41.836  32.431   1.717
14728W        W76017  32.508  25.677   1.437
14729W        W76018  14.253  18.700  10.476
14730W        W76019   9.728  12.764   3.315
14731W        W76020   9.743  19.218   0.312
14732W        W76021  27.673   5.408   0.803
14733W        W76022  42.928   5.431  14.467
14734W        W76023  10.800   0.866   1.924
14735W        W76024   6.787  34.043  14.344
14736W        W76025  15.583  42.857   1.916
14737W        W76026  20.706   4.738  10.404
14738W        W76027  12.332   0.851  13.049
14739W        W76028  40.887  36.421  11.377
14740W        W76029  10.149  26.990   2.886
14741W        W76030  18.112  31.492   3.765
14742W        W76031  16.259  21.537  10.965
14743W        W76032  14.620   8.803   4.209
14744W        W76033  39.470  29.438  11.909
14745W        W76034  41.354  42.876   3.182
14746W        W76035  29.503  25.043  10.523
14747W        W76036  38.923  15.237  12.423
14748W        W76037   9.782  14.739  12.066
14749W        W76038  19.231  14.254   1.793
14750W        W76039   6.799   4.269   0.326
14751W        W76040  11.339   8.183   4.295
14752W        W76041  18.729  11.811  14.485
14753W        W76042   2.365  22.046   1.730
14754W        W76043  36.358  42.301   3.865
14755W        W76044   5.755  29.054   4.231
14756W        W76045  15.751  40.439   4.779
14757W        W76046  20.087  39.958  14.840
14758W        W76047  37.413   0.479  13.911
14759W        W76048  11.863  21.232  13.324
14760W        W76049   1.355   8.707   1.906
14761W        W76050  42.983   6.409   4.732
14762W        W76051   7.271   5.831   1.280
14763W        W76052  18.055   9.802  14.852
14764W        W76053   6.236   8.764  11.073
14765W        W76054  39.434  43.498   3.739
14766W        W76055  16.146  13.327  12.527
14767W        W76056  24.055   5.725   2.776
14768W        W76057  11.228  18.096   0.891
14769W        W76058  25.490  27.536   4.274
14770W        W76059  27.967  38.561   4.140
14771W        W76060  21.134  39.343   0.828
14772W        W76061  12.212  14.761   4.156
14773W        W76062  13.119  12.733   1.787
14774W        W76063  23.509   3.216   1.326
14775W        W76064  23.151  16.727  13.356
14776W        W76065  14.626  23.613  14.762
14777W        W76066  25.064   8.161   4.789
14778W        W76067  10.725  16.569  12.392
14779W        W76068  28.658  12.138   4.236
14780W        W76069  43.316  23.706  11.606
14781W        W76070  29.039  22.599   4.304
14782W        W76071   8.185  30.916   2.279
14783W        W76072   9.338  22.200   2.260
14784W        W76073  28.008  32.540   1.425
14785W        W76074  13.631  11.254   0.269
14786W        W76075  11.639  32.525   3.838
14787W        W76076  17.718   6.914   2.790
14788W        W76077  23.207   5.714   4.794
14789W        W76078  42.486  40.817   1.695
14790W        W76079  13.797   1.752  13.421
14791W        W76080  37.060  29.982  13.441
14792W        W76081  40.875   7.390   5.098
14793W        W76082  42.922  26.962  13.018
14794W        W76083  38.884  34.010  11.020
14795W        W76084  30.126  26.190   4.323
14796W        W76085   8.726   3.267  12.901
14797W        W76086   3.896  16.189   3.184
14798W        W76087  44.387  25.494   2.382
14799W        W76088  31.132  14.338  13.343
14800W        W76089  15.146  27.005  14.301
14801W        W76090  22.068   9.367   0.332
14802W        W76091  42.359   6.862   4.802
14803W        W76092  17.701   6.408   4.308
14804W        W76093  17.695  28.630   4.813
14805W        W76094  33.085  17.751  12.392
14806W        W76095  24.184  37.952  14.440
14807W        W76096  27.506   1.390   2.900
14808W        W76097  37.008  16.592  12.981
14809W        W76098  29.927   1.879  11.974
14810W        W76099  22.696  26.564   2.206
14811W        W76100   6.191  30.910   1.343
14812W        W76101   7.339  42.910   1.744
14813W        W76102  43.516  30.495   1.852
14814W        W76103  19.201  34.943  14.353
14815W        W76104  41.894  23.706  14.351
14816W        W76105  24.985  30.907  14.001
14817W        W76106  27.625  30.065   0.957
14818W        W76107  24.973  43.376  11.035
14819W        W76108  22.592   0.778  13.527
14820W        W76109  40.899  10.304   0.413
14821W        W76110  12.713  18.297  10.441
14822W        W76111   7.202  17.649   4.741
14823W        W76112  19.063   0.802  13.856
14824W        W76113  44.492  18.194   4.700
14825W        W76114  13.279  29.457   0.254
14826W        W76115   1.278  16.113  11.983
14827W        W76116  43.906  18.649  13.059
14828W        W76117  11.148  12.704  12.904
14829W        W76118   9.285  23.053  13.432
14830W        W76119  28.511   4.864  10.951
14831W        W76120  13.257  23.186   3.665
14832W        W76121   6.233   2.946  13.379
14833W        W76122   2.293  41.846   2.279
14834W        W76123  20.637  34.032  14.448
14835W        W76124  36.088   2.956  10.624
14836W        W76125  16.163  38.556   1.711
14837W        W76126   3.924  20.214  13.330
14838W        W76127  18.212  22.519  10.950
14839W        W76128  43.396  27.465   4.223
14840W        W76129  19.061  17.693  12.352
14841W        W76130  15.646  20.264  13.896
14842W        W76131  12.706  23.225  11.040
14843W        W76132  29.920  25.592  13.044
14844W        W76133  34.119  11.747   1.419
14845W        W76134  25.511  36.500  10.928
14846W        W76135  26.667  14.783  10.511
14847W        W76136  41.843   5.712   2.280
14848W        W76137  44.909  37.908  12.970
14849W        W76138  31.503  20.123  11.869
14850W        W76139  16.596   3.324  14.907
14851W        W76140  39.365  14.137   1.427
14852W        W76141  20.596   6.713   1.270
14853W        W76142   8.383   1.932   1.428
14854W        W76143   5.348  17.111   1.311
14855W        W76144  10.149  22.134  13.881
14856W        W76145   1.395  38.887  10.551
14857W        W76146  22.051  24.612  11.494
14858W        W76147  25.972  39.322   2.186
14859W        W76148  30.573  10.355   3.694
14860W        W76149  41.850  38.848   4.205
14861W        W76150  14.615  26.665   4.253
14862W        W76151  28.498   9.392   3.353
14863W        W76152  43.506  26.474   3.844
14864W        W76153  40.474  14.295  14.973
14865W        W76154   6.823  23.734  11.871
14866W        W76155  14.790  35.937  12.057
14867W        W76156  15.238  30.468   1.760
14868W        W76157   1.905  30.056   0.300
14869W        W76158  40.372  29.996  13.058
14870W        W76159   2.272   9.268  14.913
14871W        W76160  15.766  38.067   0.247
14872W        W76161  22.598  33.027  14.941
14873W        W76162   1.913   2.316  13.931
14874W        W76163  37.422  14.673  14.501
14875W        W76164   7.413   6.875  11.573
14876W        W76165   7.351  30.480   1.760
14877W        W76166   4.358  24.976   1.286
14878W        W76167   6.314   0.789   1.424
14879W        W76168  14.182   3.793  10.905
14880W        W76169  44.306  30.153   3.286
14881W        W76170  20.052  28.081  11.508
14882W        W76171  10.647  29.127  10.517
14883W        W76172   9.324   4.733  10.077
14884W        W76173  36.873  36.936  12.977
14885W        W76174   8.226   1.927  11.125
14886W        W76175  25.554  32.947  11.533
14887W        W76176  30.567  27.505   4.289
14888W        W76177  21.033  23.174  12.986
14889W        W76178  34.527   1.750   1.711
14890W        W76179   6.690   5.731   2.885
14891W        W76180   4.314  29.096  10.897
14892W        W76181   2.889  10.356   2.816
14893W        W76182  35.505  32.489  11.420
14894W        W76183  40.992  18.080  12.548
14895W        W76184  43.946  37.858  11.458
14896W        W76185  10.194   7.323   1.213
14897W        W76186   4.299  30.420   0.310
14898W        W76187  12.190  36.471  10.000
14899W        W76188  14.102  13.332   3.744
14900W        W76189  36.066  26.587   2.219
14901W        W76190   6.710  13.773  14.506
14902W        W76191  14.618  14.814  11.927
14903W        W76192   0.490  38.486   2.669
14904W        W76193   1.433  39.954  10.452
14905W        W76194  10.188  25.701   4.143
14906W        W76195  37.478  24.127   3.863
14907W        W76196  28.609   7.911  10.978
14908W        W76197   7.868   9.871  14.448
14909W        W76198  15.253  14.737   2.706
14910W        W76199  41.996  43.862  12.940
14911W        W76200   4.782   6.717  12.519
14912W        W76201  39.859  37.032  10.626
14913W        W76202  12.278  30.635   2.864
14914W        W76203   9.378  15.132   0.421
14915W        W76204  43.365   4.917  10.054
14916W        W76205  21.587  29.445   1.294
14917W        W76206  28.502  29.113  12.449
14918W        W76207  11.728   5.856  12.070
14919W        W76208  33.470  11.668   0.415
14920W        W76209  22.509  32.010   1.705
14921W        W76210  41.036  33.464  12.876
14922W        W76211  41.919   4.827  14.472
14923W        W76212  10.307  21.696  12.947
14924W        W76213   9.683  36.056  10.476
14925W        W76214   9.269  30.954   5.591
14926W        W76215  28.139  15.644   3.657
14927W        W76216   2.910  44.859   4.835
14928W        W76217  17.098  25.059  11.929
14929W        W76218  38.430  23.174   0.296
14930W        W76219   5.349  22.572  11.008
14931W        W76220   0.249  42.467   3.629
14932W        W76221   7.327  40.999  11.490
14933W        W76222  28.160   7.749   1.381
14934W        W76223  40.466  10.372   0.941
14935W        W76224  10.760  13.608  13.810
14936W        W76225  38.449  20.128   0.956
14937W        W76226  42.012  41.410  10.439
14938W        W76227  29.136   9.844  14.836
14939W        W76228   9.755  15.277  10.514
14940W        W76229  36.981  31.607  10.430
14941W        W76230   6.253   8.296   2.760
14942W        W76231  18.664  35.894  14.288
14943W        W76232  21.707  34.967   0.859
14944W        W76233  14.774  17.155  11.949
14945W        W76234  13.668  34.920   1.813
14946W        W76235  22.126  13.175  12.564
14947W        W76236  16.161  14.813   2.764
14948W        W76237   5.202   5.725  10.958
14949W        W76238   4.920   4.766   0.770
14950W        W76239  13.164   3.749  14.429
14951W        W76240   5.785  20.552  13.489
14952W        W76241  33.623   9.751   3.157
14953W        W76242  12.652  32.069  14.859
14954W        W76243   4.918  37.897  14.461
14955W        W76244  24.548  23.588  13.382
14956W        W76245  43.774   6.788  13.546
14957W        W76246  42.450  35.437  11.105
14958W        W76247   8.287  21.203   3.269
14959W        W76248  34.454  32.093   4.231
14960W        W76249  15.207  32.985  14.980
14961W        W76250  27.570  23.612  14.025
14962W        W76251  34.020   6.207   2.690
14963W        W76252   7.324  32.433   9.608
14964W        W76253  13.145  35.085   2.808
14965W        W76254  41.891   6.873   2.864
14966W        W76255  24.697  16.783   2.698
14967W        W76256  14.295  14.287  11.538
14968W        W76257  19.589  27.644  12.884
14969W        W76258   1.357  37.551  14.274
14970W        W76259  30.651  37.473  11.128
14971W        W76260  16.748  36.992  14.446
14972W        W76261  37.508   6.287  10.456
14973W        W76262  35.861  43.390  12.455
14974W        W76263  28.055  38.890   0.393
14975W        W76264   1.431  23.704   3.639
14976W        W76265   1.793  13.325  10.443
14977W        W76266  34.463  41.409   3.672
14978W        W76267  39.000  14.594  10.016
14979W        W76268  15.179   1.343   4.173
14980W        W76269   4.335  18.105   2.317
14981W        W76270  34.483  37.986   2.182
14982W        W76271  33.070  42.286   2.698
14983W        W76272  25.566  31.990   3.256
14984W        W76273  13.204  30.071   1.894
14985W        W76274   7.704   0.931   4.298
14986W        W76275   9.737  38.519  13.803
14987W        W76276  39.065  11.262  10.908
14988W        W76277  38.905  44.401   1.861
14989W        W76278  36.574  15.207  10.504
14990W        W76279   5.260  12.249  13.450
14991W        W76280   4.438   6.891  12.543
14992W        W76281  36.429   6.200   0.295
14993W        W76282  26.203  23.019   3.871
14994W        W76283  10.703  15.245  11.556
14995W        W76284  26.960   3.858  13.027
14996W        W76285  11.240  34.587   2.281
14997W        W76286  31.146   7.264   1.723
14998W        W76287  19.051  39.544   3.292
14999W        W76288   2.892  18.619   0.741
15000W        W76289  14.166  33.550  13.525
15001W        W76290  38.940  24.672  12.924
15002W        W76291  26.686  19.778   0.875
15003W        W76292   0.938  19.090  14.344
15004W        W76293   3.866  10.877  13.411
15005W        W76294  31.131  12.309   2.344
15006W        W76295   5.924   8.373  11.961
15007W        W76296  34.081  40.456  12.480
15008W        W76297  20.084  40.394   3.374
15009W        W76298  24.218  35.364   3.786
15010W        W76299  16.243  38.359   3.743
15011W        W76300   3.266  12.269   2.206
15012W        W76301  30.159  12.161  10.429
15013W        W76302  37.041  33.567   4.287
15014W        W76303   6.800   9.809   3.175
15015W        W76304   1.886  29.987  10.513
15016W        W76305  24.563   7.780  11.888
15017W        W76306  30.057  10.650   2.699
15018W        W76307  32.001  34.492   4.776
15019W        W76308  44.848  31.641   2.709
15020W        W76309  31.474  25.601  14.293
15021W        W76310  42.973   8.658  11.965
15022W        W76311  27.667  18.259   3.870
15023W        W76312  31.931  34.939   3.182
15024W        W76313  37.930  33.483  11.455
15025W        W76314   6.769  33.070   1.244
15026W        W76315  31.900  12.746  12.479
15027W        W76316  43.385   1.282   1.240
15028W        W76317  15.212  13.308  11.386
15029W        W76318   6.230  39.979   0.466
15030W        W76319   7.879  20.092   1.280
15031W        W76320  22.654  44.385  13.337
15032W        W76321   3.282   4.360  13.862
15033W        W76322  31.421   3.390  12.014
15034W        W76323   2.259   8.200   0.948
15035W        W76324  27.994  33.940   4.720
15036W        W76325  28.677  27.997   4.316
15037W        W76326  29.618  10.317   4.262
15038W        W76327  24.518  12.638   4.297
15039W        W76328  37.419  29.590  12.902
15040W        W76329   6.319  16.131  10.503
15041W        W76330   5.418  30.997   0.333
15042W        W76331   0.986  43.012   5.089
15043W        W76332  44.356  15.311   3.214
15044W        W76333  26.560  28.641  14.324
15045W        W76334  21.598  13.248   1.246
15046W        W76335  32.554  44.949  11.012
15047W        W76336  41.530  43.885  11.566
15048W        W76337  14.650  41.924  10.970
15049W        W76338  27.010  18.636   3.374
15050W        W76339   4.341  28.536  10.429
15051W        W76340  39.017   9.680   4.202
15052W        W76341  21.127  32.006   4.282
15053W        W76342  37.867   3.807  14.316
15054W        W76343  36.984  17.089   5.171
15055W        W76344  15.755   4.871  14.816
15056W        W76345  32.092  37.469   0.862
15057W        W76346   0.438  27.042  14.484
15058W        W76347  40.815   3.846   3.680
15059W        W76348  11.828  28.145   0.333
15060W        W76349   0.987   9.162  14.279
15061W        W76350  42.502  22.148   2.680
15062W        W76351  28.670  16.206   0.750
15063W        W76352  43.935  38.072  10.888
15064W        W76353  40.831  31.124   4.764
15065W        W76354  16.785  17.562   4.196
15066W        W76355  27.067  21.222   4.171
15067W        W76356  17.580  43.309  12.889
15068W        W76357   2.954   4.882   4.751
15069W        W76358  21.135   4.331  13.838
15070W        W76359  42.947  36.540   3.302
15071W        W76360  21.035   7.865  11.080
15072W        W76361  16.161  17.266   2.671
15073W        W76362  28.513   6.427  13.481
15074W        W76363  10.270   1.846  11.969
15075W        W76364   2.420  40.318  10.112
15076W        W76365   0.487   6.405   2.850
15077W        W76366  38.542  41.960   2.868
15078W        W76367  22.689  10.341  14.348
15079W        W76368  14.829  30.559   1.698
15080W        W76369   8.190  35.495   4.177
15081W        W76370  26.491  29.958  11.942
15082W        W76371  15.224  43.905   3.635
15083W        W76372  41.901  36.438  13.011
15084W        W76373  17.727  35.001  14.462
15085W        W76374   1.888  15.591   3.332
15086W        W76375  29.990   8.183   5.772
15087W        W76376  20.263   7.904  12.997
15088W        W76377  11.354  27.542  10.584
15089W        W76378   2.236  38.415  13.908
15090W        W76379   8.710  39.860  14.464
15091W        W76380  38.511  21.149  12.867
15092W        W76381   6.806  15.637   2.346
15093W        W76382  38.055  28.672   0.449
15094W        W76383  27.173  39.454   3.272
15095W        W76384  32.047  24.067   2.378
15096W        W76385  33.034  13.735   4.671
15097W        W76386  17.605   5.726   2.889
15098W        W76387  23.534  20.197  13.932
15099W        W76388  35.941  35.460  13.015
15100W        W76389  24.222  22.564   2.759
15101W        W76390  17.093   5.903  12.094
15102W        W76391  15.579  27.673   0.345
15103W        W76392   7.211  24.994   1.332
15104W        W76393  19.215   6.247  11.094
15105W        W76394  14.241  23.620   0.394
15106W        W76395  16.811  17.646  10.405
15107W        W76396  11.717  26.476  10.542
15108W        W76397   8.304  41.848  11.471
15109W        W76398  43.946  29.112   1.869
15110W        W76399  43.824  28.578   1.235
15111W        W76400  42.439  20.758  11.048
15112W        W76401  42.794   2.822  13.415
15113W        W76402  14.679  41.458   2.326
15114W        W76403  18.603   2.387   1.752
15115W        W76404  41.003  30.435  12.555
15116W        W76405   3.415  42.320   3.637
15117W        W76406  38.499   1.411   4.756
15118W        W76407  11.186  32.034  14.791
15119W        W76408  20.110  34.580  13.506
15120W        W76409   5.687   0.791   4.343
15121W        W76410  12.146  19.686  10.410
15122W        W76411   7.184  40.337  13.384
15123W        W76412  38.951  33.479   2.321
15124W        W76413  23.509  41.819   1.892
15125W        W76414  32.136   4.256  12.413
15126W        W76415  38.556  26.515   3.854
15127W        W76416  12.326  34.007  12.863
15128W        W76417  28.609  26.089   3.827
15129W        W76418   1.393   6.896   1.718
15130W        W76419  38.056  43.959   0.761
15131W        W76420  29.596  22.033  12.377
15132W        W76421  18.736  21.695   1.739
15133W        W76422  31.897  42.418  11.906
15134W        W76423   4.823  43.815  10.563
15135W        W76424  24.230  10.359  11.589
15136W        W76425  26.666  29.950  14.928
15137W        W76426  13.272  20.537  13.488
15138W        W76427  12.237  15.778   1.436
15139W        W76428  11.732  43.415   4.260
15140W        W76429   9.792  43.001  14.381
15141W        W76430  40.407  43.984  12.571
15142W        W76431  26.053  14.687  12.938
15143W        W76432  11.232  37.892  13.532
15144W        W76433  10.833  32.033  13.964
15145W        W76434   7.171  33.028   2.380
15146W        W76435  28.059  33.497   3.294
15147W        W76436   5.297  28.664   1.858
15148W        W76437  38.467  39.536   4.720
15149W        W76438  11.843  12.167   0.953
15150W        W76439  14.613  17.682  13.401
15151W        W76440  33.504  25.963  10.949
15152W        W76441   6.323   4.380   3.345
15153W        W76442  35.416  38.571  10.618
15154W        W76443  11.298  34.988  10.539
15155W        W76444  25.656  40.898  12.509
15156W        W76445  14.285  23.712   3.776
15157W        W76446   7.811  11.808   1.732
15158W        W76447   2.262  40.903  14.983
15159W        W76448  31.495  28.094   0.813
15160W        W76449  42.324   7.317   0.909
15161W        W76450   2.797  26.588  12.468
15162W        W76451  39.951  26.102   0.907
15163W        W76452  21.024  42.399  12.975
15164W        W76453   8.655  39.416   2.753
15165W        W76454  23.239  11.205  10.583
15166W        W76455   8.364  31.421   3.185
15167W        W76456  21.035  18.213   0.886
15168W        W76457  43.355  23.226   4.831
15169W        W76458  42.506  20.574  13.968
15170W        W76459  35.868  33.897  12.382
15171W        W76460  16.632  36.437   4.301
15172W        W76461  14.604  31.444   4.192
15173W        W76462  11.639  42.924   2.341
15174W        W76463  33.012  28.551  11.968
15175W        W76464   7.417  12.830   1.884
15176W        W76465  27.576   6.835   4.659
15177W        W76466  20.034  11.847  11.872
15178W        W76467  19.188   4.902   2.885
15179W        W76468  14.301  28.497   1.797
15180W        W76469  26.972  31.426   3.297
15181W        W76470  43.488  10.740   0.858
15182W        W76471  24.173  31.984  12.512
15183W        W76472  12.785  18.737  11.434
15184W        W76473  42.933  27.625   2.717
15185W        W76474  21.205  13.173  13.971
15186W        W76475  32.559  20.556   3.721
15187W        W76476  11.345  17.753   2.243
15188W        W76477  24.052   4.714   9.979
15189W        W76478  39.420  20.743   0.807
15190W        W76479  27.462  23.216   4.813
15191W        W76480  17.557  41.942   2.822
15192W        W76481  41.925  10.318  12.968
15193W        W76482  17.580  40.442   4.254
15194W        W76483  44.263   8.356  14.810
15195W        W76484  20.698  34.574  12.001
15196W        W76485   8.298   3.770   0.893
15197W        W76486  29.426  17.593   2.181
15198W        W76487   5.871  30.421   4.685
15199W        W76488  15.697   4.853   1.435
15200W        W76489  26.599   9.878   2.877
15201W        W76490  40.825   0.375  14.323
15202W        W76491  34.455  35.890  10.406
15203W        W76492   4.837  35.478  13.400
15204W        W76493  34.055   1.430   0.887
15205W        W76494  43.891   1.912  14.888
15206W        W76495   1.469   7.877  14.792
15207W        W76496  17.665  38.882  14.768
15208W        W76497  42.512   9.385   2.769
15209W        W76498  12.199  11.350  12.853
15210W        W76499  23.043  25.679   4.121
15211W        W76500  43.304  37.056  10.928
15212W        W76501  36.040  14.706   2.396
15213W        W76502  15.120  13.168  14.340
15214W        W76503  36.583   5.350  10.555
15215W        W76504  29.432  43.275   4.665
15216W        W76505  12.823   1.785  13.318
15217W        W76506  37.985  41.833  11.496
15218W        W76507   9.327   1.285  11.995
15219W        W76508  29.120   4.813  13.448
15220W        W76509  20.768  30.977  14.391
15221W        W76510  44.944  34.386  12.509
15222W        W76511  29.010  37.042  13.902
15223W        W76512  37.868  11.204  12.908
15224W        W76513  40.989  10.746   2.293
15225W        W76514  24.597   9.818   0.792
15226W        W76515  35.580  34.088   3.319
15227W        W76516  24.675  41.976  12.390
15228W        W76517  40.412  32.555  10.517
15229W        W76518  27.031  10.756   4.675
15230W        W76519  30.153   9.157   3.332
15231W        W76520  40.855  25.695   4.809
15232W        W76521  29.647   6.813   4.813
15233W        W76522   4.754  34.050  14.855
15234W        W76523   1.852   2.254   1.369
15235W        W76524  37.500  33.461   5.307
15236W        W76525  14.608  18.685  10.617
15237W        W76526   8.175  17.210   3.178
15238W        W76527  23.003   6.235  13.392
15239W        W76528  44.495   4.923   0.768
15240W        W76529  32.067  43.503   1.735
15241W        W76530  23.537  21.619  10.488
15242W        W76531  34.411  42.814   5.205
15243W        W76532  41.037   7.679  10.582
15244W        W76533  38.444  15.620  11.602
15245W        W76534   5.836  27.033  13.535
15246W        W76535  35.397  30.421   1.843
15247W        W76536  30.067  24.162  11.902
15248W        W76537   7.353  18.678   4.784
15249W        W76538   5.366  17.660  13.974
15250W        W76539  43.322  37.870   0.438
15251W        W76540   0.307   9.682  13.857
15252W        W76541  40.482  38.954  14.310
15253W        W76542  42.485  23.515  10.432
15254W        W76543   5.758  22.605  12.921
15255W        W76544  43.846   5.885   0.892
15256W        W76545  21.116  44.420  11.001
15257W        W76546  18.110  32.924  14.792
15258W        W76547  40.881   4.334   0.439
15259W        W76548  17.199  13.207  14.821
15260W        W76549  14.300  11.290  14.005
15261W        W76550   7.742  31.931   0.476
15262W        W76551  39.326  25.024   1.245
15263W        W76552   0.463  32.080   2.701
15264W        W76553  10.266  23.230  13.386
15265W        W76554  38.025  13.289  14.513
15266W        W76555   9.351  38.529  13.462
15267W        W76556  11.760  38.529   2.787
15268W        W76557   5.350  15.721  12.839
15269W        W76558  41.509  17.268   0.316
15270W        W76559   8.765  42.007  11.972
15271W        W76560  25.608  14.638  12.500
15272W        W76561  10.704  37.880  12.021
15273W        W76562  43.472  36.989  12.451
15274W        W76563  36.489   0.784  12.889
15275W        W76564  14.620  40.509   4.776
15276W        W76565  43.489   2.466   3.841
15277W        W76566   5.392  20.064   3.725
15278W        W76567  41.797  43.966   4.238
15279W        W76568  32.609   1.921   2.829
15280W        W76569  29.643   6.391   0.896
15281W        W76570  33.445  38.048   1.746
15282W        W76571   9.722  23.236   0.898
15283W        W76572  19.721  36.480  11.126
15284W        W76573  25.170   1.900   1.867
15285W        W76574  19.190  13.298   3.187
15286W        W76575  12.768   3.796  12.990
15287W        W76576  33.416   1.888   1.844
15288W        W76577  43.962  15.100   0.845
15289W        W76578  29.156  10.834  13.470
15290W        W76579  44.919  30.130  11.940
15291W        W76580  33.581   3.888   1.382
15292W        W76581  37.883  33.925  14.286
15293W        W76582  37.453  20.693  10.939
15294W        W76583   5.894  30.485   0.285
15295W        W76584   2.880   6.287   4.822
15296W        W76585  14.324   5.751  11.428
15297W        W76586  28.671  43.438   0.268
15298W        W76587  42.431   8.305   5.724
15299W        W76588  18.646  15.251   1.925
15300W        W76589  38.515  39.997   3.159
15301W        W76590  42.928  17.231   0.440
15302W        W76591  25.475  25.660  14.770
15303W        W76592  31.963  12.237  11.015
15304W        W76593  10.654   8.315  10.478
15305W        W76594  23.990  13.841  11.588
15306W        W76595  14.809  21.174  14.462
15307W        W76596  21.698  33.003   0.318
15308W        W76597  40.962  20.101   2.766
15309W        W76598  31.462   2.435  14.828
15310W        W76599  11.633  39.061  14.310
15311W        W76600  25.676  20.175   3.695
15312W        W76601  15.783  32.903  13.370
15313W        W76602  16.651  43.778  11.922
15314W        W76603  44.962  30.974  13.929
15315W        W76604  12.856  20.116  14.848
15316W        W76605  27.057  31.460  11.903
15317W        W76606  32.507  10.822   0.810
15318W        W76607  25.094  17.134   4.227
15319W        W76608  28.145  39.458   1.376
15320W        W76609  25.972   1.334  13.863
15321W        W76610   3.859  36.563  11.070
15322W        W76611  37.897   2.288   3.188
15323W        W76612  15.594  25.094  10.129
15324W        W76613  38.438  33.038  13.432
15325W        W76614  20.240  21.258   1.811
15326W        W76615  18.683  39.452   0.784
15327W        W76616  32.106  25.992  10.430
15328W        W76617   4.849  42.862  11.531
15329W        W76618   6.848  41.430  14.885
15330W        W76619  34.610  23.195   2.323
15331W        W76620  36.933  39.017  13.942
15332W        W76621  20.735   2.261  11.555
15333W        W76622  41.797  32.024   2.884
15334W        W76623  33.566   7.905   5.226
15335W        W76624  26.021  34.605   4.286
15336W        W76625   2.434  11.721   1.214
15337W        W76626  26.458  42.997  14.861
15338W        W76627  43.497  15.310   3.245
15339W        W76628   4.765  10.762  14.927
15340W        W76629  40.916  36.935   2.889
15341W        W76630  11.203  43.462   2.883
15342W        W76631  13.267  39.913  11.579
15343W        W76632  21.181  27.688   2.808
15344W        W76633  14.785  39.501   1.806
15345W        W76634  22.163   1.939   2.200
15346W        W76635  11.196  18.645   2.268
15347W        W76636  12.845  20.191   3.761
15348W        W76637  37.501  19.719   1.321
15349W        W76638  37.920  41.357  13.479
15350W        W76639  31.103  25.993  13.340
15351W        W76640  37.027  41.388  10.575
15352W        W76641  14.671   5.298  11.424
15353W        W76642  15.705  26.049   3.646
15354W        W76643   3.823  21.756  12.522
15355W        W76644  25.177  15.093   0.902
15356W        W76645   6.302  37.403  13.941
15357W        W76646  32.917  39.410  12.377
15358W        W76647   7.215  17.147   1.281
15359W        W76648  42.318  28.170  12.037
15360W        W76649  16.139  25.054   1.430
15361W        W76650  40.303  40.483   3.262
15362W        W76651  41.402  10.306   2.191
15363W        W76652  35.055  13.843  10.521
15364W        W76653  21.074   1.299   9.924
15365W        W76654  18.689   8.396  14.336
15366W        W76655   8.764  10.374  14.845
15367W        W76656  18.775  20.154  11.932
15368W        W76657  20.218  37.989  12.824
15369W        W76658  26.538   3.293  12.081
15370W        W76659   1.912  32.454   4.215
15371W        W76660  23.505  29.506  13.838
15372W        W76661  20.658  33.499   2.708
15373W        W76662   1.761  30.488   3.703
15374W        W76663   7.849  20.663  12.481
15375W        W76664  28.517  39.350  11.874
15376W        W76665  23.147   3.436  11.376
15377W        W76666  34.010  31.628  10.493
15378W        W76667  24.135   6.772  13.906
15379W        W76668  25.104  41.875  11.441
15380W        W76669   6.813  35.478   3.646
15381W        W76670  15.133   6.308   1.759
15382W        W76671   6.682  19.084  13.368
15383W        W76672   7.271  20.638  10.590
15384W        W76673  28.166  20.229  11.044
15385W        W76674   4.815   6.268   1.730
15386W        W76675  42.881  17.172  11.929
15387W        W76676  25.572  20.247  13.818
15388W        W76677  18.751  20.707   3.753
15389W        W76678  24.148  10.202   1.729
15390W        W76679  14.723  36.543  13.450
15391W        W76680  32.425  17.692  13.870
15392W        W76681  41.321  38.009   3.797
15393W        W76682  38.361  12.682   2.667
15394W        W76683  12.228  26.582   0.381
15395W        W76684   6.772   4.251   4.130
15396W        W76685  27.087  39.874   4.134
15397W        W76686  25.973  10.244   1.792
15398W        W76687  40.523  24.489  14.391
15399W        W76688  10.374  40.886   0.326
15400W        W76689  36.979   0.958  12.022
15401W        W76690  19.707  22.562  12.854
15402W        W76691  26.650  11.202   0.918
15403W        W76692   1.975  39.981  10.988
15404W        W76693   2.749  31.113  13.526
15405W        W76694  35.052  15.685  12.468
15406W        W76695   5.865  44.478  14.839
15407W        W76696   0.801   2.262  13.936
15408W        W76697  36.953  38.867  14.315
15409W        W76698  27.088  41.483  13.867
15410W        W76699  29.133  24.513  14.372
15411W        W76700  41.975   4.742   2.323
15412W        W76701   4.288  43.883  13.993
15413W        W76702  43.486  23.120  11.377
15414W        W76703  26.522  10.352  13.851
15415W        W76704   7.796  17.197   3.298
15416W        W76705   2.945  13.678   4.250
15417W        W76706  41.924  20.187   1.811
15418W        W76707  19.128  24.102   0.315
15419W        W76708  26.703  21.084  14.004
15420W        W76709  37.046  19.245  13.386
15421W        W76710  39.529  17.625   1.336
15422W        W76711  13.258   8.722  11.978
15423W        W76712   4.252  20.086  12.839
15424W        W76713  11.804  24.598   3.202
15425W        W76714  26.026   6.287   1.341
15426W        W76715  19.130  26.992  12.841
15427W        W76716   9.844  44.435  13.823
15428W        W76717   9.285  38.893   3.355
15429W        W76718  37.934  12.147  13.857
15430W        W76719   3.835  20.607   0.733
15431W        W76720  38.554  19.284   1.885
15432W        W76721  13.263   7.856   3.828
15433W        W76722   6.816  42.499  11.881
15434W        W76723   2.343  35.969  10.517
15435W        W76724  24.132  34.566  10.130
15436W        W76725   8.689  26.679   2.798
15437W        W76726  12.823  23.094  11.888
15438W        W76727  34.463  29.524   2.359
15439W        W76728  40.352  42.887  10.475
15440W        W76729  42.863  23.114  13.924
15441W        W76730  36.996  28.126   1.388
15442W        W76731  32.960  27.997  14.436
15443W        W76732  36.878  17.160   3.717
15444W        W76733  19.628  35.468   3.270
15445W        W76734   4.276  22.175   4.136
15446W        W76735  34.595   5.344  11.568
15447W        W76736  10.649  18.600   4.614
15448W        W76737  42.031  43.774  10.973
15449W        W76738  42.497  15.231   4.232
15450W        W76739  30.644  30.003   2.715
15451W        W76740  12.753  13.800   3.651
15452W        W76741   9.327  14.660   0.812
15453W        W76742  39.457  37.924   1.795
15454W        W76743  37.409   9.807   2.291
15455W        W76744  10.851  26.053  12.052
15456W        W76745  36.530  40.862   1.447
15457W        W76746  34.103  15.686   2.412
15458W        W76747  14.763   9.673   2.384
15459W        W76748  23.235  16.104  12.498
15460W        W76749   4.427  20.127   4.767
15461W        W76750  39.834   0.800   0.395
15462W        W76751   3.774  44.406  10.894
15463W        W76752   3.946   9.853  13.958
15464W        W76753  43.998  28.105   1.753
15465W        W76754  17.574  26.118   3.708
15466W        W76755  12.193  20.199   3.862
15467W        W76756  26.957  37.446   2.202
15468W        W76757  28.048  37.366  14.379
15469W        W76758  37.929  26.189   2.386
15470W        W76759   9.691  34.936  14.999
15471W        W76760   4.943   5.744   1.232
15472W        W76761  29.127  26.529  12.522
15473W        W76762  11.850  41.439   3.382
15474W        W76763  22.531  32.498  14.006
15475W        W76764   9.303  35.031   3.646
15476W        W76765  23.564  23.709  14.470
15477W        W76766  23.580  39.526   0.391
15478W        W76767   4.853  12.150  12.944
15479W        W76768   3.241   3.295  10.957
15480W        W76769  22.106  42.503   0.351
15481W        W76770  30.013   8.794   0.470
15482W        W76771  16.734   1.894  11.403
15483W        W76772  35.437   1.964  12.411
15484W        W76773  24.578  33.609   1.335
15485W        W76774  30.525   8.404  10.536
15486W        W76775   4.819  34.411  14.500
15487W        W76776  30.074  10.172  13.864
15488W        W76777  25.493  28.624  11.925
15489W        W76778  22.117   0.878  12.906
15490W        W76779   6.770  35.443  13.869
15491W        W76780  15.261  34.608  14.018
15492W        W76781  19.670  35.984  10.404
15493W        W76782  42.012  15.737  14.984
15494W        W76783  15.693  27.521  11.942
15495W        W76784  41.847   7.803   0.822
15496W        W76785  27.947  13.617  14.431
15497W        W76786  38.915  43.395  13.873
15498W        W76787   5.278  33.399  12.864
15499W        W76788  38.950  40.830   0.480
15500W        W76789  40.809  18.252  10.029
15501W        W76790  12.821  41.819  14.875
15502W        W76791  44.472  16.283   1.290
15503W        W76792  18.674   5.322   0.457
15504W        W76793   3.416   6.864   2.206
15505W        W76794   8.776  42.831  13.403
15506W        W76795  16.256   4.350  12.914
15507W        W76796  30.155  39.465   1.320
15508W        W76797   4.897  42.799   1.845
15509W        W76798  21.164   2.909   2.871
15510W        W76799  10.643   3.761   4.781
15511W        W76800  17.293  31.483   3.745
15512W        W76801  13.618  33.099   2.407
15513W        W76802  34.430  27.073  12.411
15514W        W76803  29.996  20.640  14.032
15515W        W76804  27.055  42.805   1.808
15516W        W76805  27.638  41.926  12.434
15517W        W76806   9.384  16.803   4.243
15518W        W76807  38.048   2.411  14.831
15519W        W76808  31.448   9.839   4.179
15520W        W76809   5.730  38.819   1.809
15521W        W76810  30.590  20.718  10.440
15522W        W76811  36.500  16.269  13.876
15523W        W76812  41.510   0.404   3.374
15524W        W76813  12.306  16.098   3.297
15525W        W76814  11.155  15.295   2.406
15526W        W76815  13.823  39.025   0.754
15527W        W76816  27.550  31.922   4.824
15528W        W76817  30.008  32.080   5.154
15529W        W76818   2.854  21.184  11.564
15530W        W76819  16.791  27.052  11.081
15531W        W76820  30.054  17.572  14.822
15532W        W76821  44.348  33.538  12.068
15533W        W76822  11.239   3.738  12.492
15534W        W76823  25.137   6.771  12.042
15535W        W76824  14.791  24.713  12.346
15536W        W76825  15.696   2.945  12.005
15537W        W76826  10.238  14.121   3.331
15538W        W76827  35.430   6.894   2.675
15539W        W76828  28.537  27.545  11.567
15540W        W76829  14.807  32.443   4.712
15541W        W76830  19.106  16.148   3.820
15542W        W76831  40.455  22.998   1.320
15543W        W76832   7.749  10.240   2.671
15544W        W76833  30.630  17.102  14.293
15545W        W76834   0.385  31.616   0.375
15546W        W76835  30.424  27.480  11.006
15547W        W76836  27.174  38.999   2.884
15548W        W76837  28.611  25.979  12.988
15549W        W76838  21.640  17.774  13.357
15550W        W76839  23.683  24.125  10.502
15551W        W76840  14.685  36.995  14.960
15552W        W76841  34.966   8.674   5.131
15553W        W76842  32.960   7.236  11.917
15554W        W76843  15.247   7.234  10.518
15555W        W76844  20.693   1.411   0.941
15556W        W76845  43.847  17.775   3.751
15557W        W76846  26.960  26.088   1.262
15558W        W76847  27.680   8.318   3.678
15559W        W76848  32.941  43.314   2.316
15560W        W76849  30.074  32.518  13.395
15561W        W76850  25.051  13.698   2.903
15562W        W76851  11.662   4.901   1.340
15563W        W76852  18.164  41.423  13.397
15564W        W76853   9.318  42.432  11.020
15565W        W76854  10.762  27.993   0.258
15566W        W76855  18.191   6.385  11.408
15567W        W76856  16.727  22.251   3.812
15568W        W76857  29.147  21.602   0.732
15569W        W76858   7.185  34.567  12.089
15570W        W76859  26.106  28.115  14.023
15571W        W76860  23.509  12.680   4.680
15572W        W76861   8.851   7.215   3.326
15573W        W76862  38.363  23.039   3.706
15574W        W76863  28.051  10.730   1.313
15575W        W76864   4.339   6.216  13.350
15576W        W76865  11.622  37.896   3.177
15577W        W76866  28.505  12.658  10.533
15578W        W76867  13.676   9.709   1.227
15579W        W76868  37.072  18.682  10.415
15580W        W76869  12.118  24.060  12.376
15581W        W76870  10.863  20.071  14.321
15582W        W76871   2.315  35.099   0.834
15583W        W76872   0.352  17.632  14.366
15584W        W76873  18.636  23.643   0.299
15585W        W76874  18.691  14.283  10.600
15586W        W76875  10.258  44.929  11.979
15587W        W76876  10.671   1.907   3.211
15588W        W76877   9.796  37.388  10.899
15589W        W76878   7.241  14.782   0.776
15590W        W76879  42.500  19.580   2.289
15591W        W76880  36.045  10.717   3.151
15592W        W76881  44.421   6.680   0.416
15593W        W76882   1.467   8.240   0.775
15594W        W76883   8.812   8.340   2.178
15595W        W76884  30.547   2.232  12.546
15596W        W76885  36.404  25.122  10.048
15597W        W76886  23.643   9.201   1.846
15598W        W76887  23.708   6.224   4.606
15599W        W76888  41.852  14.636   4.116
15600W        W76889   9.772   8.191   2.762
15601W        W76890  21.576  10.762  12.837
15602W        W76891  17.610  33.091   2.874
15603W        W76892   1.273  24.585   4.165
15604W        W76893  33.442  23.189   2.743
15605W        W76894  37.851  43.378  14.975
15606W        W76895   2.847  43.508   4.817
15607W        W76896  44.902  21.217   2.207
15608W        W76897  23.059  36.906   1.443
15609W        W76898  41.806   1.239   4.753
15610W        W76899  42.950  42.347   0.786
15611W        W76900   6.298  27.147   3.228
15612W        W76901  39.949   8.811   0.930
15613W        W76902  19.105  29.092   4.708
15614W        W76903  19.739  37.083   2.682
15615W        W76904  43.448  32.456   3.361
15616W        W76905  37.953  42.789  12.471
15617W        W76906  37.501  14.301   0.360
15618W        W76907  35.074  16.628   2.864
15619W        W76908  32.124   6.289   9.990
15620W        W76909   4.425  25.510   2.837
15621W        W76910  18.602  15.587   1.282
15622W        W76911  39.401  37.866   2.413
15623W        W76912   8.756   1.330   1.221
15624W        W76913  20.046   6.862   1.735
15625W        W76914  29.541  19.750   2.265
15626W        W76915   6.408  10.164   5.107
15627W        W76916  21.041  29.613   1.875
15628W        W76917   1.741  41.928  11.569
15629W        W76918  11.713  30.083  14.805
15630W        W76919  38.856  38.463  13.039
15631W        W76920  34.537  43.497   1.235
15632W        W76921  19.714  24.200   3.379
15633W        W76922  30.067   0.282   1.262
15634W        W76923  35.950   0.914  13.352
15635W        W76924  10.740  14.648  11.095
15636W        W76925  19.670  27.641  14.905
15637W        W76926  40.358  14.231   4.663
15638W        W76927  19.575  43.360  14.930
15639W        W76928  24.524  36.948   0.927
15640W        W76929  10.669  35.960   1.390
15641W        W76930  35.546  37.567  14.916
15642W        W76931   7.860  28.974  11.128
15643W        W76932   7.244  38.529   4.694
15644W        W76933   7.311  12.245   0.365
15645W        W76934  28.970  12.652   2.181
15646W        W76935   9.276  25.189  13.310
15647W        W76936  33.620  12.760   5.092
15648W        W76937   3.806  17.594   4.165
15649W        W76938  25.581  40.797   0.781
15650W        W76939   6.198   6.905   4.339
15651W        W76940  16.178  40.899   0.441
15652W        W76941  17.214  27.477   3.721
15653W        W76942   6.773   7.291  14.370
15654W        W76943   0.395  26.142  13.391
15655W        W76944  30.136  36.480  10.975
15656W        W76945  34.583  18.057   0.432
15657W        W76946  23.496  28.602  10.445
15658W        W76947  16.269  39.344  12.839
15659W        W76948   6.688  43.324   0.339
15660W        W76949  10.197  10.663  13.529
15661W        W76950   2.839  24.526  11.083
15662W        W76951   4.828  18.565   3.652
15663W        W76952  16.272  38.014  12.463
15664W        W76953  23.490  13.188   4.178
15665W        W76954  27.537  12.151   4.262
15666W        W76955   1.823  40.052  12.942
15667W        W76956  11.851  39.443  14.765
15668W        W76957  30.056  28.135   0.483
15669W        W76958  38.389  38.532   1.895
15670W        W76959  39.361  25.966  13.859
15671W        W76960   2.237  31.529   3.749
15672W        W76961  33.006  21.049  11.501
15673W        W76962  24.670  28.046   3.642
15674W        W76963  21.755  12.309   4.181
15675W        W76964   6.746  42.926   1.370
15676W        W76965   0.401  23.107  14.446
15677W        W76966  29.554  22.118  13.058
15678W        W76967   1.796  39.942   3.238
15679W        W76968  26.115  16.707  13.475
15680W        W76969   5.699   3.259  13.975
15681W        W76970  25.011   3.282  11.504
15682W        W76971   5.750  32.611  10.627
15683W        W76972  23.137  14.800   4.198
15684W        W76973   4.831  39.458   4.135
15685W        W76974  33.589  44.358   4.329
15686W        W76975  17.610  36.511  12.376
15687W        W76976   1.347  13.214   3.236
15688W        W76977   7.764   8.328   3.292
15689W        W76978  43.280  12.661  11.102
15690W        W76979  19.119   2.832   4.156
15691W        W76980  30.637  14.215   4.247
15692W        W76981  37.565  20.537   4.131
15693W        W76982  34.095   8.896   4.129
15694W        W76983  22.744  19.258  11.910
15695W        W76984  20.068   8.301   0.306
15696W        W76985   2.335   2.260  12.547
15697W        W76986  28.542  36.900  13.460
15698W        W76987  29.941  10.709  14.345
15699W        W76988  28.614   0.349   3.857
15700W        W76989  43.473  20.109  10.644
15701W        W76990  15.211  26.553  12.900
15702W        W76991  37.975  36.428   4.727
15703W        W76992  38.011  31.406   0.432
15704W        W76993   2.341   8.826  10.127
15705W        W76994  26.112  23.557  14.023
15706W        W76995  11.703  29.635  14.406
15707W        W76996  30.918  36.996   4.670
15708W        W76997   9.662  10.663  11.582
15709W        W76998  24.003  21.714   0.250
15710W        W76999   4.445  10.219   0.963
15711W        W77000  16.164  40.323  10.099
15712W        W77001  16.633  27.543  10.594
15713W        W77002  10.208  33.528   2.816
15714W        W77003  21.644  21.676   3.244
15715W        W77004   6.264  24.137  11.882
15716W        W77005  20.257  33.950   0.393
15717W        W77006   6.409  31.025   0.255
15718W        W77007  10.366  32.922   3.269
15719W        W77008  29.500   3.457  13.484
15720W        W77009   5.877   7.851  10.490
15721W        W77010  36.522  21.723   3.814
15722W        W77011  43.888  31.978   2.867
15723W        W77012  12.751  43.959  11.601
15724W        W77013  44.459  19.723   5.215
15725W        W77014   6.357   2.803   0.244
15726W        W77015  25.490  18.057   3.342
15727W        W77016  17.253  16.239  10.936
15728W        W77017  18.611  14.719   4.283
15729W        W77018  18.156   3.263  12.455
15730W        W77019  25.521  18.158   2.668
15731W        W77020  19.585   1.337  13.898
15732W        W77021  40.873   8.832   2.712
15733W        W77022   5.850   6.777  13.507
15734W        W77023  22.061  37.007   0.928
15735W        W77024  30.632  25.485  10.460
15736W        W77025  40.382  33.093   1.931
15737W        W77026  18.704  21.672  12.562
15738W        W77027  15.720  40.952   5.144
15739W        W77028  10.744  38.414   2.674
15740W        W77029  40.949  19.614   0.798
15741W        W77030  18.782  41.905   1.256
15742W        W77031   5.415  34.967   0.327
15743W        W77032  19.766   1.375  12.890
15744W        W77033  23.674   9.345  13.906
15745W        W77034   3.304  14.148  14.776
15746W        W77035  34.486   6.266  14.900
15747W        W77036  14.202  35.982  11.457
15748W        W77037  22.561  30.637  14.464
15749W        W77038  21.684  13.843   4.279
15750W        W77039  11.333  18.580   1.789
15751W        W77040  43.410  42.401   1.431
15752W        W77041  35.458  36.015   0.815
15753W        W77042  15.161  34.380  13.352
15754W        W77043   4.265  44.911  13.381
15755W        W77044  41.497  22.683  10.980
15756W        W77045   9.154  42.385   2.310
15757W        W77046  32.394   1.379  12.923
15758W        W77047  40.536   2.381  12.396
15759W        W77048  24.116  16.134   4.771
15760W        W77049  40.466   5.701  13.973
15761W        W77050   4.780  23.715  14.386
15762W        W77051  35.472  36.467  10.897
15763W        W77052  10.776   8.334  13.934
15764W        W77053   0.252  44.846  10.987
15765W        W77054  19.564   8.661  14.015
15766W        W77055  39.052  16.106   0.738
15767W        W77056  27.982  43.817   1.400
15768W        W77057  12.683  14.150  11.579
15769W        W77058  27.567   9.376   3.690
15770W        W77059  21.738  16.636  13.828
15771W        W77060  23.997  34.906  12.859
15772W        W77061  38.009   7.216  13.389
15773W        W77062   0.903  18.584   3.800
15774W        W77063  29.477  30.589  12.840
15775W        W77064   5.288  23.555   0.900
15776W        W77065  14.588  18.058  11.434
15777W        W77066  37.871  36.555  11.866
15778W        W77067  39.859  26.986  10.641
15779W        W77068  32.449  33.483   1.923
15780W        W77069  31.494   2.295   1.803
15781W        W77070  29.533  39.436   2.687
15782W        W77071  24.205   2.301   1.867
15783W        W77072   0.857  30.069   4.643
15784W        W77073  12.177  11.641  13.471
15785W        W77074  26.995  24.072   2.296
15786W        W77075  15.289  15.651  11.069
15787W        W77076   0.416  28.030   4.309
15788W        W77077  10.873  25.968   4.145
15789W        W77078  23.091   3.777   2.370
15790W        W77079   6.227  41.950  10.473
15791W        W77080   1.371   3.870  10.530
15792W        W77081  22.200  29.522   1.384
15793W        W77082  16.772  19.182  12.505
15794W        W77083  33.937  33.510  11.923
15795W        W77084   4.904  38.482  11.042
15796W        W77085  42.317  31.094  12.545
15797W        W77086   4.796   4.414  13.330
15798W        W77087  34.102  28.944  14.019
15799W        W77088   9.871  12.740  14.488
15800W        W77089  27.971   3.761   4.325
15801W        W77090  39.374  33.112  11.531
15802W        W77091   2.816  30.035  11.110
15803W        W77092   6.888  31.596   1.869
15804W        W77093  34.384  12.625  11.939
15805W        W77094  27.672  37.971   1.421
15806W        W77095  28.972  39.889   2.728
15807W        W77096  20.680  24.684  11.547
15808W        W77097  38.493  10.268  12.392
15809W        W77098  20.603  26.660   0.738
15810W        W77099  29.045  31.127   2.399
15811W        W77100  39.524   4.289  13.982
15812W        W77101  19.612  11.768  12.569
15813W        W77102  14.162  32.574   3.380
15814W        W77103  10.147  26.152  11.915
15815W        W77104   1.301  37.054  14.935
15816W        W77105  20.139  34.884   4.791
15817W        W77106  42.871   7.238  13.404
15818W        W77107  19.135  34.475   1.405
15819W        W77108   1.802  14.710   3.841
15820W        W77109  10.757  26.687   0.339
15821W        W77110  43.784   3.739  13.040
15822W        W77111   7.753   3.236  13.842
15823W        W77112  42.470  15.795  10.630
15824W        W77113  17.749  19.549   1.725
15825W        W77114  11.631  34.119   1.353
15826W        W77115  16.648  22.195  11.032
15827W        W77116   8.827  22.630  14.974
15828W        W77117  26.994  21.169  13.986
15829W        W77118  41.905  16.647  14.497
15830W        W77119  11.730  21.593   1.444
15831W        W77120   9.369   2.748  14.389
15832W        W77121  44.381   8.844  11.388
15833W        W77122   4.373  27.488  13.017
15834W        W77123  10.221  35.092   0.379
15835W        W77124  24.491  27.089   0.448
15836W        W77125  42.281  23.727   4.342
15837W        W77126  16.173  23.016   4.235
15838W        W77127   7.321  32.061  14.925
15839W        W77128  36.459  24.662  10.515
15840W        W77129  11.733  10.778   1.238
15841W        W77130  23.121   6.182  11.936
15842W        W77131  36.397  26.967  11.910
15843W        W77132  28.980  19.047  14.377
15844W        W77133  29.074  13.294  12.835
15845W        W77134  34.991   7.879   4.270
15846W        W77135  16.570  23.185  13.001
15847W        W77136  35.517  37.027  13.529
15848W        W77137   7.779  11.359   4.799
15849W        W77138  24.657  41.918   1.277
15850W        W77139  31.480  29.956   2.868
15851W        W77140   2.803  15.774   4.179
15852W        W77141  25.000  44.391   1.800
15853W        W77142  29.090   1.407  11.593
15854W        W77143  32.409   4.844  12.853
15855W        W77144   6.803  41.346   1.831
15856W        W77145  18.643   2.774  11.913
15857W        W77146  22.247   3.332  13.002
15858W        W77147  30.162  34.923  13.418
15859W        W77148  39.459  19.684  10.146
15860W        W77149  29.536   6.203   4.690
15861W        W77150  44.427  35.899  12.880
15862W        W77151  43.892   7.408  11.933
15863W        W77152  38.344  26.573   2.309
15864W        W77153  13.711  33.027  13.948
15865W        W77154  35.494  21.552   1.373
15866W        W77155  16.640  24.691  13.924
15867W        W77156  10.646   6.298   1.695
15868W        W77157  10.681  10.269   0.935
15869W        W77158  21.188  10.243  13.953
15870W        W77159  26.618  12.197   4.247
15871W        W77160   0.382   2.449   1.840
15872W        W77161  18.704  33.125   4.345
15873W        W77162  27.179   7.756   3.290
15874W        W77163  17.785   4.361  12.989
15875W        W77164   2.330  18.636  11.858
15876W        W77165  10.157   4.836  13.977
15877W        W77166  25.621  25.159   4.746
15878W        W77167   0.460  39.883   0.768
15879W        W77168  13.632  29.493   3.846
15880W        W77169  21.133   1.442  14.016
15881W        W77170  23.614  41.471   3.692
15882W        W77171  11.752   7.906   2.388
15883W        W77172  21.592  33.421   1.933
15884W        W77173  22.644  41.014  13.402
15885W        W77174   4.256   2.934  13.915
15886W        W77175  25.627  41.292  13.967
15887W        W77176   1.473  30.646   1.408
15888W        W77177  13.165  19.254  14.419
15889W        W77178   6.182  17.221   2.848
15890W        W77179  36.571  19.538   0.254
15891W        W77180  30.048  27.599  10.582
15892W        W77181  18.253   3.446   3.275
15893W        W77182  37.384  37.048   0.454
15894W        W77183   9.160  17.253  11.496
15895W        W77184   1.402  13.815   4.278
15896W        W77185  19.705  32.423  13.913
15897W        W77186   0.269  32.005   3.843
15898W        W77187  17.614  44.836  10.476
15899W        W77188   5.760  10.800  11.468
15900W        W77189  37.030  26.997   0.393
15901W        W77190  21.542  16.087  12.007
15902W        W77191  41.874  33.498   0.325
15903W        W77192   4.732   5.910   3.746
15904W        W77193  37.367  28.519   0.260
15905W        W77194   2.350   1.250   4.283
15906W        W77195  32.604  30.104   4.243
15907W        W77196   3.820  17.241  13.876
15908W        W77197  23.125  36.373   0.901
15909W        W77198  14.121  19.276  12.867
15910W        W77199  38.521  11.714   1.768
15911W        W77200  27.168  40.901   2.706
15912W        W77201  36.422  44.481  14.817
15913W        W77202   7.404  15.295   4.299
15914W        W77203   6.889  42.492   1.696
15915W        W77204  37.837  41.458  13.981
15916W        W77205  28.083   7.849  11.909
15917W        W77206  27.454   9.803  13.509
15918W        W77207   0.878  41.395  11.993
15919W        W77208  12.754  17.790   4.633
15920W        W77209  20.613  22.597   0.794
15921W        W77210   1.320   4.438  11.027
15922W        W77211  17.679  33.038  12.876
15923W        W77212  39.511   5.370   3.166
15924W        W77213  25.593  38.459  11.904
15925W        W77214  16.135  24.193   4.699
15926W        W77215   9.350   0.272   9.925
15927W        W77216   3.461  22.219  10.919
15928W        W77217  39.516   7.246   1.809
15929W        W77218  27.999   6.883   3.223
15930W        W77219  36.480   8.819   0.764
15931W        W77220   2.889  21.037   3.686
15932W        W77221   0.968  38.453  12.922
15933W        W77222  31.021  10.140  13.935
15934W        W77223   7.196  23.156  14.375
15935W        W77224  22.689  44.461   5.225
15936W        W77225  38.441  24.188   1.363
15937W        W77226   8.858  40.505  11.400
15938W        W77227  35.058  15.138  14.946
15939W        W77228  14.775  14.290   2.258
15940W        W77229  41.043  24.052   1.362
15941W        W77230  16.606   7.799   3.191
15942W        W77231  14.615  34.576  11.031
15943W        W77232  36.568   6.321   3.147
15944W        W77233  29.147  29.170   0.479
15945W        W77234  11.226  28.106  13.375
15946W        W77235  35.864  44.268  14.780
15947W        W77236  28.982   0.442   0.929
15948W        W77237   3.805  41.474   2.722
15949W        W77238  38.571  43.908  12.027
15950W        W77239  21.233  38.473  11.481
15951W        W77240  23.005  24.056   4.256
15952W        W77241  20.612   0.759  14.956
15953W        W77242   2.720  25.577   1.758
15954W        W77243  22.643  34.044  14.408
15955W        W77244   1.312  34.009   4.744
15956W        W77245  14.167  27.543  14.493
15957W        W77246  30.105   0.841  14.368
15958W        W77247  33.605  32.980   1.336
15959W        W77248  42.347  38.407  14.814
15960W        W77249  34.585  37.556   1.884
15961W        W77250  26.645  16.741  14.768
15962W        W77251  18.115  40.945  12.379
15963W        W77252  25.093  20.567  12.516
15964W        W77253  37.865  10.184  10.573
15965W        W77254   8.721  35.526   3.151
15966W        W77255  30.578  21.252  10.099
15967W        W77256  24.165  39.441   4.197
15968W        W77257   2.424  22.655  13.344
15969W        W77258  40.505  23.230  11.949
15970W        W77259  10.149  19.078   2.395
15971W        W77260  36.537  10.208  13.360
15972W        W77261  23.111  26.480   3.208
15973W        W77262  11.370  34.413  12.559
15974W        W77263  12.787  44.436  11.897
15975W        W77264  27.197  16.586  11.937
15976W        W77265  44.262  43.922  11.127
15977W        W77266  23.691  21.112  10.517
15978W        W77267  27.065   8.875  12.365
15979W        W77268  13.297  36.890  14.316
15980W        W77269  19.563   0.796  11.062
15981W        W77270  42.384  16.316   3.206
15982W        W77271  37.378   2.855  10.551
15983W        W77272  24.201   1.800  14.329
15984W        W77273  36.092  19.274  11.987
15985W        W77274  36.488  19.044  11.508
15986W        W77275  22.706  35.990   0.289
15987W        W77276  13.149  24.191  11.857
15988W        W77277  18.613  39.423   3.728
15989W        W77278  43.368   1.294  13.374
15990W        W77279  20.221  17.600  14.334
15991W        W77280  42.906  15.168  12.371
15992W        W77281   8.658  27.552  13.908
15993W        W77282  19.546   5.329   3.178
15994W        W77283  14.248  16.571  14.022
15995W        W77284  28.942  10.299   1.821
15996W        W77285  32.433   4.287  11.108
15997W        W77286  15.120  14.761   2.288
15998W        W77287  35.869  38.481   2.392
15999W        W77288  37.507  18.099   5.636
16000W        W77289   2.397  26.554  11.007
16001W        W77290  20.160  25.181   2.678
16002W        W77291  31.078  23.693  12.567
16003W        W77292  31.123  19.100  12.067
16004W        W77293  40.967  32.586  12.406
16005W        W77294  36.373  25.110  11.032
16006W        W77295  11.639  36.914  12.555
16007W        W77296  27.669   7.813  10.473
16008W        W77297  37.411   8.811  13.835
16009W        W77298  29.032  29.575   3.642
16010W        W77299  21.232  18.665  14.860
16011W        W77300  39.858  38.882   4.298
16012W        W77301  33.560   0.941  12.547
16013W        W77302  17.735  30.440   0.885
16014W        W77303  13.350  31.097   4.350
16015W        W77304  24.644  24.195  12.431
16016W        W77305  25.057  19.667  13.350
16017W        W77306  28.465  20.553   1.305
16018W        W77307   1.424  26.128   3.385
16019W        W77308  11.711  31.144  13.030
16020W        W77309  14.110   7.718   4.812
16021W        W77310  33.446  16.691   4.623
16022W        W77311  25.675  43.296   4.242
16023W        W77312  23.522  21.614   1.734
16024W        W77313   4.921  28.939   4.818
16025W        W77314   2.879  26.111   1.449
16026W        W77315  10.159  30.918   1.782
16027W        W77316   0.400  15.176  12.919
16028W        W77317   1.909  42.505   1.902
16029W        W77318   0.492  18.567  10.998
16030W        W77319   5.843  34.524   1.446
16031W        W77320  44.830   0.911   0.847
16032W        W77321  23.007  24.121   2.891
16033W        W77322   3.953  24.494   5.593
16034W        W77323  39.054  28.565   4.819
16035W        W77324  41.819   3.862   4.633
16036W        W77325  16.662   6.818   4.823
16037W        W77326   0.488  44.950  14.022
16038W        W77327  18.698  17.271  10.939
16039W        W77328   2.784  20.708  14.470
16040W        W77329   6.258   6.849   4.787
16041W        W77330   2.834  41.024  13.353
16042W        W77331   0.830  32.962   0.385
16043W        W77332  39.557   5.291  12.852
16044W        W77333   1.837  19.772  12.027
16045W        W77334   4.769   8.689  12.049
16046W        W77335  33.466  22.097   4.233
16047W        W77336  23.570  40.830   0.419
16048W        W77337  14.124  17.190  13.479
16049W        W77338  15.717  12.620  10.935
16050W        W77339  22.236  10.812   4.256
16051W        W77340  41.464   6.829  12.090
16052W        W77341   9.735   7.219  14.450
16053W        W77342  11.745  27.105   1.222
16054W        W77343  15.817  13.192   2.859
16055W        W77344  20.149  35.440  11.069
16056W        W77345   4.259  26.496  14.888
16057W        W77346  14.117  34.502  14.494
16058W        W77347  11.673  16.761   1.732
16059W        W77348  38.427  30.631   1.893
16060W        W77349  25.975  28.614   4.346
16061W        W77350   1.803  30.968  14.943
16062W        W77351  36.381  19.125  14.820
16063W        W77352  22.532   2.881   4.311
16064W        W77353  32.429  23.990  11.910
16065W        W77354  19.547  38.827  10.537
16066W        W77355  21.719   3.902   3.829
16067W        W77356  43.313  28.992   5.261
16068W        W77357  36.388  14.832   4.653
16069W        W77358  13.638  25.116   4.264
16070W        W77359  35.546  24.079   2.877
16071W        W77360  40.906  37.901  12.580
16072W        W77361  19.653  36.003   3.712
16073W        W77362  14.300  40.336  14.402
16074W        W77363  22.674  40.981  14.866
16075W        W77364  27.119   6.737  11.084
16076W        W77365  39.869  35.020  13.793
16077W        W77366  26.600  11.663  13.921
16078W        W77367  35.922  26.161   2.795
16079W        W77368  26.070  13.184   4.625
16080W        W77369  36.586  23.580  13.411
16081W        W77370  36.525  34.106   2.777
16082W        W77371  24.193  28.088   1.767
16083W        W77372   5.860  11.675   0.273
16084W        W77373  37.406   5.272   3.204
16085W        W77374  36.509  30.414   2.745
16086W        W77375  23.232  35.056   4.816
16087W        W77376  36.490  15.261   1.363
16088W        W77377  34.439  42.460  10.412
16089W        W77378  41.030   7.317  12.965
16090W        W77379  27.008   2.958  13.005
16091W        W77380  38.447  22.127  14.763
16092W        W77381  35.864  29.012   0.481
16093W        W77382   3.241   6.832  14.875
16094W        W77383  31.942  39.831  11.009
16095W        W77384  40.487  42.985   4.625
16096W        W77385  16.708  29.045  14.435
16097W        W77386  10.367  29.053  14.990
16098W        W77387  37.416  15.765   1.738
16099W        W77388  16.774  12.210   1.353
16100W        W77389  16.106  31.477  13.439
16101W        W77390  15.179  14.108  12.474
16102W        W77391  18.657  29.101  14.901
16103W        W77392  27.046   7.868  13.319
16104W        W77393  44.791   4.891   1.876
16105W        W77394  25.104  33.012   2.234
16106W        W77395  40.369  26.655   4.758
16107W        W77396  17.152  19.088  12.508
16108W        W77397  24.060  39.382  14.314
16109W        W77398  43.995  42.010   3.699
16110W        W77399  38.035  27.647   0.270
16111W        W77400  14.758   1.362   4.701
16112W        W77401  30.126   9.652   1.705
16113W        W77402  22.136   5.751  14.761
16114W        W77403  22.194  26.539  10.054
16115W        W77404  13.273  38.418   5.120
16116W        W77405  18.728  36.949   3.184
16117W        W77406   7.226  17.695   0.954
16118W        W77407  17.797  13.202   0.892
16119W        W77408  34.027  20.172   4.207
16120W        W77409  18.247  13.336  11.607
16121W        W77410  18.129  35.514   3.288
16122W        W77411  21.138   2.897   1.408
16123W        W77412  30.423   2.850  14.993
16124W        W77413  18.677  35.572  10.971
16125W        W77414  28.445  10.371   3.836
16126W        W77415  35.560  22.037  13.937
16127W        W77416  11.696  19.629  11.433
16128W        W77417  36.359   4.292  14.924
16129W        W77418  31.916  23.666   4.278
16130W        W77419  35.107  24.980   4.302
16131W        W77420   1.296   7.250   4.636
16132W        W77421   2.897  17.167   2.346
16133W        W77422  40.860  43.491  12.345
16134W        W77423  12.350  37.496   4.339
16135W        W77424   4.931  16.762   3.669
16136W        W77425   2.839  33.005   2.266
16137W        W77426  35.392  41.863   0.898
16138W        W77427  37.991  22.014  13.455
16139W        W77428  28.086  14.230   1.739
16140W        W77429  28.972   6.248  10.507
16141W        W77430  36.053  17.265   2.232
16142W        W77431   0.264   6.743   1.907
16143W        W77432  19.661  33.009  11.070
16144W        W77433  25.650   8.354   9.551
16145W        W77434  42.870   6.750   2.761
16146W        W77435  30.552  19.257  12.980
16147W        W77436  12.121  36.425  13.895
16148W        W77437  33.616  43.887   2.391
16149W        W77438  21.075  17.223  11.032
16150W        W77439  19.620  34.450  14.029
16151W        W77440  32.944   9.658   3.382
16152W        W77441  38.006  16.603  10.949
16153W        W77442  36.461  18.740   4.818
16154W        W77443  16.569  23.191  10.994
16155W        W77444   2.784  19.109  13.402
16156W        W77445  17.188  16.678  10.990
16157W        W77446  13.702  31.942  12.343
16158W        W77447  29.619  37.554   1.242
16159W        W77448   8.286  38.021   3.860
16160W        W77449  26.610  44.485   2.890
16161W        W77450  42.466  34.389  11.586
16162W        W77451  28.510  23.729   2.853
16163W        W77452   7.845  43.460  11.962
16164W        W77453   9.643  30.994   1.210
16165W        W77454  13.633  12.216   4.805
16166W        W77455   3.284  27.140   0.266
16167W        W77456  41.994  15.609   4.131
16168W        W77457  15.112   4.926  14.468
16169W        W77458  34.601  24.125  14.478
16170W        W77459  26.666  31.082   0.391
16171W        W77460  39.877  14.747   3.689
16172W        W77461   7.194   2.252   3.387
16173W        W77462   3.764   4.911   5.220
16174W        W77463  30.086  26.173  11.075
16175W        W77464  20.683  38.483   4.818
16176W        W77465  28.161  28.491  12.362
16177W        W77466   9.228   3.875   2.272
16178W        W77467  19.763  28.020   2.230
16179W        W77468  32.437  17.663  14.408
16180W        W77469  38.908  18.686  13.518
16181W        W77470   6.340  36.397   3.760
16182W        W77471   3.878  23.143  14.343
16183W        W77472  20.538  22.720  13.538
16184W        W77473   8.258  32.398   0.402
16185W        W77474  28.179  30.489  14.886
16186W        W77475  38.468   5.351  11.587
16187W        W77476   9.853  14.761   0.425
16188W        W77477  40.534  29.655   2.859
16189W        W77478  40.473  26.483  10.490
16190W        W77479   9.845  21.590  11.556
16191W        W77480   3.265  43.914   4.707
16192W        W77481  21.518  25.711  12.828
16193W        W77482  21.167  30.961  14.366
16194W        W77483  43.429  22.541   1.884
16195W        W77484   6.768  26.648   3.802
16196W        W77485  31.988  14.261   4.791
16197W        W77486  41.951  19.613   1.415
16198W        W77487  10.674  18.779  14.504
16199W        W77488   7.715   4.377   2.331
16200W        W77489  42.957  32.456   1.831
16201W        W77490   3.893  21.106   1.394
16202W        W77491  32.428  19.567  14.971
16203W        W77492  37.541  36.593   3.360
16204W        W77493  44.448  24.192  11.983
16205W        W77494  17.158   6.744   2.698
16206W        W77495  28.504   4.441  12.520
16207W        W77496  30.514   4.370  11.416
16208W        W77497   6.236  35.988   1.298
16209W        W77498  29.135   0.777  14.411
16210W        W77499   3.775  32.580  14.276
16211W        W77500  13.280   8.779  10.439
16212W        W77501   0.942  23.590  12.020
16213W        W77502   9.662  32.440  11.106
16214W        W77503  43.973  14.136  11.592
16215W        W77504  37.524   2.268  12.459
16216W        W77505  27.964  12.786   2.815
16217W        W77506  38.400   2.916  13.485
16218W        W77507  30.068  34.921   2.835
16219W        W77508  16.293  13.165  10.948
16220W        W77509  25.015  12.802   0.941
16221W        W77510  11.738  44.913  11.045
16222W        W77511  27.946  22.079  14.416
16223W        W77512  17.125  15.167   0.322
16224W        W77513  38.325  13.820  13.449
16225W        W77514  13.341   2.236  12.827
16226W        W77515  18.712  37.888  11.070
16227W        W77516  42.299  15.595  12.565
16228W        W77517  10.669  11.164  14.464
16229W        W77518  30.005   6.874  12.378
16230W        W77519  41.976   1.339  11.975
16231W        W77520  23.162  23.511   4.744
16232W        W77521  42.965  20.189   4.340
16233W        W77522   0.270  32.017   1.711
16234W        W77523  37.017  26.548   3.315
16235W        W77524  42.025  39.336  12.495
16236W        W77525  22.250   7.892   2.381
16237W        W77526  21.222  11.771  13.370
16238W        W77527  17.123   8.776   0.809
16239W        W77528  29.526  25.556   3.687
16240W        W77529  33.617   3.223   2.703
16241W        W77530  15.140   3.431  12.470
16242W        W77531   0.396  11.747   5.192
16243W        W77532  39.926   3.333  12.390
16244W        W77533  22.097   2.265   2.375
16245W        W77534  40.484  29.571  10.043
16246W        W77535  14.282  41.410  12.497
16247W        W77536  22.692  22.123  11.883
16248W        W77537  24.557   3.929   2.313
16249W        W77538  11.738  29.085  12.010
16250W        W77539  34.507  16.240  13.048
16251W        W77540   1.434  26.195  12.568
16252W        W77541   1.901  25.689   2.247
16253W        W77542   0.426  13.133  14.869
16254W        W77543  25.060  22.551  11.525
16255W        W77544  43.302  34.424   4.777
16256W        W77545   2.957  22.579   1.239
16257W        W77546  29.531  11.663   2.752
16258W        W77547  37.030  44.961  13.447
16259W        W77548  27.191  22.076   0.874
16260W        W77549  11.357  10.652  11.933
16261W        W77550  36.893  42.952   4.168
16262W        W77551  17.619  43.902   1.733
16263W        W77552  13.316  40.844  10.567
16264W        W77553  32.005   7.826   4.184
16265W        W77554  22.205  17.794  12.366
16266W        W77555  20.259  30.138   2.874
16267W        W77556  11.631  36.572  14.442
16268W        W77557  42.895   5.228   1.343
16269W        W77558  43.312  21.519   3.722
16270W        W77559  37.940  31.549  11.013
16271W        W77560  18.231  27.082   4.297
16272W        W77561  35.887   0.954   1.359
16273W        W77562  13.130  44.387   0.790
16274W        W77563  41.827  28.062  10.018
16275W        W77564  21.557   8.716   0.846
16276W        W77565  35.439  33.078  13.477
16277W        W77566  11.684  15.096  12.423
16278W        W77567  37.007  30.543   2.868
16279W        W77568  34.938   4.840  14.491
16280W        W77569  18.211  15.133   2.705
16281W        W77570  12.746  28.626   0.787
16282W        W77571  38.468   9.220   2.178
16283W        W77572  26.167   3.312   5.278
16284W        W77573  17.675   3.361  13.050
16285W        W77574  25.144   3.756   0.917
16286W        W77575   6.382  19.275   3.696
16287W        W77576  37.478  44.462   4.614
16288W        W77577   2.726  31.547   1.755
16289W        W77578  13.627  31.440   2.255
16290W        W77579  44.414  24.163   0.808
16291W        W77580  30.596  15.212   0.267
16292W        W77581  21.723  44.788  11.982
16293W        W77582  11.360  16.708  12.876
16294W        W77583   2.754   4.853   4.186
16295W        W77584  17.101  21.135   2.227
16296W        W77585  44.805   0.281  13.933
16297W        W77586  13.678  23.125  10.035
16298W        W77587   4.287   7.858   2.314
16299W        W77588   2.363  21.681  10.507
16300W        W77589  38.975  42.508  13.850
16301W        W77590  43.000  31.080   4.719
16302W        W77591  15.774  34.893  13.866
16303W        W77592  40.338   3.827   4.764
16304W        W77593  25.709  24.158  13.530
16305W        W77594  26.687  36.946   4.625
16306W        W77595  28.561  31.919   2.252
16307W        W77596  41.980  11.246  13.394
16308W        W77597  23.025  14.178  14.477
16309W        W77598  29.021  32.030   3.224
16310W        W77599   6.398  10.663   0.793
16311W        W77600  36.381  30.099  10.999
16312W        W77601  29.653  10.831  11.395
16313W        W77602  23.611  16.223  12.979
16314W        W77603   6.695  10.262  14.849
16315W        W77604  27.989   9.197   2.831
16316W        W77605  26.961  12.141   2.858
16317W        W77606  42.449   3.399  14.323
16318W        W77607  15.226  42.843  13.021
16319W        W77608   1.458  31.931   0.909
16320W        W77609  10.725  22.136   3.316
16321W        W77610  18.248  17.187   0.958
16322W        W77611  15.219  44.464  13.830
16323W        W77612  16.158  35.585   0.804
16324W        W77613   3.833   4.273   1.349
16325W        W77614  23.009  32.499  11.942
16326W        W77615  27.018  40.930   1.919
16327W        W77616  41.824  43.475  11.892
16328W        W77617  28.060  10.167  14.402
16329W        W77618   6.814  14.756   3.164
16330W        W77619  40.514  29.499  11.457
16331W        W77620  40.823  43.013  11.974
16332W        W77621  30.507  30.607   0.309
16333W        W77622  25.176  38.394   0.475
16334W        W77623   3.754   7.364  12.913
16335W        W77624  31.640  43.425   2.212
16336W        W77625  16.279  26.152   4.317
16337W        W77626  39.003  40.397   2.743
16338W        W77627  40.499   5.245  11.433
16339W        W77628  20.231  34.936   1.865
16340W        W77629   5.736  35.448  12.906
16341W        W77630   4.211   8.325  13.033
16342W        W77631  43.431  23.186   0.353
16343W        W77632   5.383   0.471  13.966
16344W        W77633   3.317  42.899  11.594
16345W        W77634  26.464  25.584   1.404
16346W        W77635  25.695  26.510   5.118
16347W        W77636  34.878  43.512  12.470
16348W        W77637  34.971  20.119  13.029
16349W        W77638   0.931  35.521   1.732
16350W        W77639  14.273  21.026   3.857
16351W        W77640   1.361  13.839   0.945
16352W        W77641  23.014   8.226   3.204
16353W        W77642   5.892  43.306   0.351
16354W        W77643  34.946   7.186   4.767
16355W        W77644   9.856   4.325   1.278
16356W        W77645  21.562  25.144  12.979
16357W        W77646  21.035  42.468   1.833
16358W        W77647  39.835  11.159   2.888
16359W        W77648  41.460   9.332   2.684
16360W        W77649  24.981  36.590  11.036
16361W        W77650   0.439   1.346   3.368
16362W        W77651  24.020  25.681  11.082
16363W        W77652  25.679  26.496  12.960
16364W        W77653  18.139   3.390  14.759
16365W        W77654   4.277  31.622  10.468
16366W        W77655  38.421  37.036   0.346
16367W        W77656  42.462  42.905   4.292
16368W        W77657   0.951  40.831  13.340
16369W        W77658  34.981   9.837  12.934
16370W        W77659  34.598  44.456   4.353
16371W        W77660  42.323  19.196   2.224
16372W        W77661  19.557  36.423   2.364
16373W        W77662  14.777  14.243  11.975
16374W        W77663  17.596  42.859   2.217
16375W        W77664   1.435  28.578  13.514
16376W        W77665  34.922  10.168   5.146
16377W        W77666  23.109  12.227  14.782
16378W        W77667  21.595  30.047   3.639
16379W        W77668  43.791  30.100  10.631
16380W        W77669  15.784  41.837  13.482
16381W        W77670  36.857   8.324  12.944
16382W        W77671  21.076  34.911   0.766
16383W        W77672  18.572  25.150   3.363
16384W        W77673  21.568  40.910  14.980
16385W        W77674  43.459  42.993  13.034
16386W        W77675  37.887   7.752   4.723
16387W        W77676   7.172  14.256   3.637
16388W        W77677  32.475  35.925  10.592
16389W        W77678  12.212   1.459   1.811
16390W        W77679  25.986   8.229  12.378
16391W        W77680  31.146  26.553   3.221
16392W        W77681   4.892   6.235  13.418
16393W        W77682  23.209   2.439  10.888
16394W        W77683  30.614  41.423  12.493
16395W        W77684   1.766  35.512  12.533
16396W        W77685  43.393  19.225   4.813
16397W        W77686  31.007  42.391  11.387
16398W        W77687  32.446  28.588  11.552
16399W        W77688  19.040  42.777  10.907
16400W        W77689   5.355   7.712  14.858
16401W        W77690  13.214  31.947  14.484
16402W        W77691  18.673  18.642   0.399
16403W        W77692  21.602  11.290  11.929
16404W        W77693  27.627  26.556  10.947
16405W        W77694  16.809  29.125  10.966
16406W        W77695  42.326  44.952   4.208
16407W        W77696  17.114   2.732  12.550
16408W        W77697   2.785  37.008   4.651
16409W        W77698  13.720  22.147  11.990
16410W        W77699  15.707  16.747   4.231
16411W        W77700   5.418  25.644   5.251
16412W        W77701   5.423   3.263   0.286
16413W        W77702   3.952  41.903   1.757
16414W        W77703  21.745  11.636   0.336
16415W        W77704  44.272  32.012  12.361
16416W        W77705  34.610  19.074  12.886
16417W        W77706  42.028   2.328   1.919
16418W        W77707  14.595   0.458  11.977
16419W        W77708  35.473  37.448   2.797
16420W        W77709   2.883  14.776  14.005
16421W        W77710  15.691  39.877   3.630
16422W        W77711   4.876  24.070   3.335
16423W        W77712  34.374  39.890   4.189
16424W        W77713   3.939  24.166   3.696
16425W        W77714  25.543   7.748  10.932
16426W        W77715  10.674  10.267  13.980
16427W        W77716   0.373  41.982   2.324
16428W        W77717  39.427   1.770  14.991
16429W        W77718  15.282  19.283   1.749
16430W        W77719   7.790  33.875  10.973
16431W        W77720  15.199  18.097  12.889
16432W        W77721  38.036   9.868   0.290
16433W        W77722   0.751  21.148  12.918
16434W        W77723  24.175  36.901   0.829
16435W        W77724  40.028  39.427   1.286
16436W        W77725  42.824   1.385  10.518
16437W        W77726  16.235  28.082   1.305
16438W        W77727  28.558  22.654  12.502
16439W        W77728  37.940   5.737   2.770
16440W        W77729  38.995   0.836   2.881
16441W        W77730  25.585   6.362   1.766
16442W        W77731  17.212  19.582   3.240
16443W        W77732  25.050  39.490   4.642
16444W        W77733  30.629   1.478   4.605
16445W        W77734  11.177  11.695   0.910
16446W        W77735  37.970  14.824   0.832
16447W        W77736   1.885   1.804  13.936
16448W        W77737  26.022  11.681   2.307
16449W        W77738  21.617  12.210  12.507
16450W        W77739  19.672   1.407   1.416
16451W        W77740  42.481  32.090  12.430
16452W        W77741  39.493   1.277  13.541
16453W        W77742  27.668  39.833   1.737
16454W        W77743  14.338  35.065   4.239
16455W        W77744  22.033  10.841   0.845
16456W        W77745  30.930   7.763   4.794
16457W        W77746  37.446   6.696  11.496
16458W        W77747  23.119  42.011   0.261
16459W        W77748   8.276  42.382  13.858
16460W        W77749   3.286  23.984  12.525
16461W        W77750  44.806   9.347  11.932
16462W        W77751   0.859  41.325   0.427
16463W        W77752  38.360  20.185   3.379
16464W        W77753  40.027  13.162   2.379
16465W        W77754   7.742  38.859  12.558
16466W        W77755   6.864  34.417  11.914
16467W        W77756  33.041   5.432  13.929
16468W        W77757  26.959  32.917   1.272
16469W        W77758  26.527  31.633   1.390
16470W        W77759   6.708  20.040  12.406
16471W        W77760   6.891  25.103  12.070
16472W        W77761  27.042   3.309  11.979
16473W        W77762  31.085  23.996  13.428
16474W        W77763   1.309  37.351  14.858
16475W        W77764  35.523  24.974  10.595
16476W        W77765  21.199  41.868  12.865
16477W        W77766  39.473  24.158  12.347
16478W        W77767  13.715   1.294   1.837
16479W        W77768  15.767  15.803  13.876
16480W        W77769  37.484   0.814   3.661
16481W        W77770  18.712   6.373  14.491
16482W        W77771  34.381  14.665   3.741
16483W        W77772  41.811   1.363   3.703
16484W        W77773  11.757  23.688   3.147
16485W        W77774   3.895  24.568   2.197
16486W        W77775  26.568  44.958  10.560
16487W        W77776   6.205  19.108   1.739
16488W        W77777   1.340   0.956  14.491
16489W        W77778  25.562   5.429  11.562
16490W        W77779  13.753  38.022   1.406
16491W        W77780  31.107  27.065   2.736
16492W        W77781   5.226  44.423   2.744
16493W        W77782   6.221  13.706   4.321
16494W        W77783  23.055  31.589  11.928
16495W        W77784  30.921   9.689   3.385
16496W        W77785  23.562  36.364   3.185
16497W        W77786   0.789  41.966  11.044
16498W        W77787  24.574  41.403  12.958
16499W        W77788  35.539   2.780   2.831
16500W        W77789  33.918  34.424   4.333
16501W        W77790  30.501  32.428   0.747
16502W        W77791  24.646  32.502  13.860
16503W        W77792  16.182  20.732   0.302
16504W        W77793  42.370   9.244   1.213
16505W        W77794  42.796  30.618  13.425
16506W        W77795  19.265  39.050  13.309
16507W        W77796   9.259  36.986   1.336
16508W        W77797  19.546   1.402   3.223
16509W        W77798   1.930  34.601  12.861
16510W        W77799   8.837  17.715   3.325
16511W        W77800  22.615  21.154   1.700
16512W        W77801  34.535  31.416  11.610
16513W        W77802  39.841  21.609  11.394
16514W        W77803  33.420  44.400  12.352
16515W        W77804  17.089  21.729  11.500
16516W        W77805   9.162   6.372  14.425
16517W        W77806  38.348   0.356   1.246
16518W        W77807  22.065  14.829   3.867
16519W        W77808  34.925  41.808  11.512
16520W        W77809  38.899  16.768   2.188
16521W        W77810  17.675  18.699   3.640
16522W        W77811   8.344  34.115  10.138
16523W        W77812  34.480  13.309   2.410
16524W        W77813  42.436   1.366  14.824
16525W        W77814  40.929  21.519   2.336
16526W        W77815  25.059  28.117   0.334
16527W        W77816  40.303  35.596   3.780
16528W        W77817  14.769  36.438   2.661
16529W        W77818  11.724  27.154   3.294
16530W        W77819  31.460   6.285   1.315
16531W        W77820   9.836  24.614  12.049
16532W        W77821  40.911  18.688   3.851
16533W        W77822  35.091  10.792  12.358
16534W        W77823  25.570  11.206   3.364
16535W        W77824   2.773  23.673  11.492
16536W        W77825   1.897  14.601  14.906
16537W        W77826  23.668  23.994  13.063
16538W        W77827  36.577   9.705   1.931
16539W        W77828  35.410  21.686  14.344
16540W        W77829  11.248  27.151   2.766
16541W        W77830  42.841  29.003  13.924
16542W        W77831  13.232  40.548  12.834
16543W        W77832  12.225  41.499   2.269
16544W        W77833  21.242  18.649   5.279
16545W        W77834  29.483  31.145   4.727
16546W        W77835  41.370  14.637  12.961
16547W        W77836  18.565  10.708  14.434
16548W        W77837  16.151  27.955   3.675
16549W        W77838  31.559  31.047   4.741
16550W        W77839  27.103  17.281   0.948
16551W        W77840  22.051  15.165   4.307
16552W        W77841  29.090  31.088  12.071
16553W        W77842  19.079   5.718   2.789
16554W        W77843   7.840  16.282   0.317
16555W        W77844  19.627  42.026  12.829
16556W        W77845  40.304   4.432   2.818
16557W        W77846   3.300  10.861  14.485
16558W        W77847  34.069  30.532   0.261
16559W        W77848   6.824  10.337   1.903
16560W        W77849  40.416  20.647   2.786
16561W        W77850  29.081  21.062  13.830
16562W        W77851  41.017   6.418  14.284
16563W        W77852   6.728  31.465  14.285
16564W        W77853  15.665  22.555  11.989
16565W        W77854   8.789  29.594   5.260
16566W        W77855  40.418  41.455  13.933
16567W        W77856  18.228  11.729   0.396
16568W        W77857   6.894  17.190  13.451
16569W        W77858  19.664  12.750   1.310
16570W        W77859  30.019  39.530  12.873
16571W        W77860  21.725  22.535  11.598
16572W        W77861   2.452  24.616  13.962
16573W        W77862  29.953  24.566  13.380
16574W        W77863  34.448  14.141  11.974
16575W        W77864  20.226  38.028   3.734
16576W        W77865   3.299  44.383   3.731
16577W        W77866  20.609  10.176  14.773
16578W        W77867  32.500  36.480   2.333
16579W        W77868  14.130  13.798  14.824
16580W        W77869  13.623  28.016  13.962
16581W        W77870  18.585  40.868   4.679
16582W        W77871  18.709  31.045   4.835
16583W        W77872  12.838  17.177   1.776
16584W        W77873   1.277   2.843  11.872
16585W        W77874  23.575  38.873   1.332
16586W        W77875  17.712  39.549  11.960
16587W        W77876  21.151  17.147  12.065
16588W        W77877  38.485  17.209   3.286
16589W        W77878  29.073   7.311   1.727
16590W        W77879   3.925  24.165   2.759
16591W        W77880  29.950  12.768  14.456
16592W        W77881  32.967   0.979   9.587
16593W        W77882  36.478  11.856  12.039
16594W        W77883  36.059  14.334   1.766
16595W        W77884  10.782  15.261   3.818
16596W        W77885   7.225   3.244  11.556
16597W        W77886   3.375  31.404  10.625
16598W        W77887  40.864  21.202  11.376
16599W        W77888   9.685  27.610   0.457
16600W        W77889  20.037  38.833   3.805
16601W        W77890  11.314  41.814   2.407
16602W        W77891  20.263  33.984   3.675
16603W        W77892  20.538  11.778  14.775
16604W        W77893  29.474  26.013  12.065
16605W        W77894  28.442   7.351   3.726
16606W        W77895  39.497  35.603  13.332
16607W        W77896  32.594  31.961  13.489
16608W        W77897   0.459  31.428   2.269
16609W        W77898   2.923  35.402   3.825
16610W        W77899  34.048   9.251  13.910
16611W        W77900  14.702  33.478  12.893
16612W        W77901  25.650  43.872  12.359
16613W        W77902  40.025   0.822   1.240
16614W        W77903  36.488  22.713  13.829
16615W        W77904  31.000   1.339   4.194
16616W        W77905  25.655  21.643   1.741
16617W        W77906  44.367  14.656   2.839
16618W        W77907  33.007  22.174   4.816
16619W        W77908  31.912  30.990  13.018
16620W        W77909  42.967  38.537   0.316
16621W        W77910  21.695  18.063  12.371
16622W        W77911   5.872  34.069  13.881
16623W        W77912  10.146  31.426  14.960
16624W        W77913  26.058   9.848   2.189
16625W        W77914  11.222  31.103   0.768
16626W        W77915  34.057  29.432   2.809
16627W        W77916  44.893  39.887   2.765
16628W        W77917  25.154   8.273  12.823
16629W        W77918   2.272  28.027   3.229
16630W        W77919   0.469  30.433   0.884
16631W        W77920  19.159  23.716   1.856
16632W        W77921  18.079  44.379   2.800
16633W        W77922  13.825  43.824   3.253
16634W        W77923   9.229   4.283  10.524
16635W        W77924   3.744  10.318  13.910
16636W        W77925  24.129  24.215   4.321
16637W        W77926  31.423   4.836   3.205
16638W        W77927  15.300  30.615   3.778
16639W        W77928  31.627  44.436  14.470
16640W        W77929  33.603   9.314   1.372
16641W        W77930  44.310  15.808   1.757
16642W        W77931  12.217   6.762   1.229
16643W        W77932  26.587   5.226   0.402
16644W        W77933  31.603   8.758  14.430
16645W        W77934  35.436  16.242   1.244
16646W        W77935  19.255  30.570  11.116
16647W        W77936  17.556  32.526  12.980
16648W        W77937   3.727  11.298  10.519
16649W        W77938  23.563  25.625   2.413
16650W        W77939  20.600  41.852   2.398
16651W        W77940   7.850  34.524  12.481
16652W        W77941   3.733  10.184  10.092
16653W        W77942  39.499  21.706   4.182
16654W        W77943   9.805  31.149   3.366
16655W        W77944  32.896  43.339   2.693
16656W        W77945  32.395  11.634  14.319
16657W        W77946   5.707  11.269  13.045
16658W        W77947  16.664  27.595   1.726
16659W        W77948  24.628  11.706  14.801
16660W        W77949   9.766  20.644  11.545
16661W        W77950  32.451  40.910  13.356
16662W        W77951  37.967  44.348  10.499
16663W        W77952  11.348  11.857   0.295
16664W        W77953   4.368   6.917   2.321
16665W        W77954  22.090   9.790  14.767
16666W        W77955   9.339  37.852  11.068
16667W        W77956   2.799  42.837  12.380
16668W        W77957  42.952  18.086   4.135
16669W        W77958  12.625  34.961  13.865
16670W        W77959   7.700  17.166  12.493
16671W        W77960  36.421  19.539  14.387
16672W        W77961  18.148  38.061  14.874
16673W        W77962  15.583   2.455  10.424
16674W        W77963  20.260  10.178   0.868
16675W        W77964  42.830  22.618  13.392
16676W        W77965  41.436  27.006  11.448
16677W        W77966  15.190  27.966  13.802
16678W        W77967  40.521  18.639   2.305
16679W        W77968  13.713  44.804  14.963
16680W        W77969  33.608  44.273  11.949
16681W        W77970  35.853  28.074   2.346
16682W        W77971  24.164  22.137   2.238
16683W        W77972  43.463  18.153  12.077
16684W        W77973  11.710  14.656  12.977
16685W        W77974   4.870  39.560  14.512
16686W        W77975  23.108  24.229  11.866
16687W        W77976  26.107  27.568  13.904
16688W        W77977  20.694   6.317  14.497
16689W        W77978  41.800  36.425   4.698
16690W        W77979  32.023   7.378   2.333
16691W        W77980  16.169  12.201  11.408
16692W        W77981  10.838   3.928   2.262
16693W        W77982  33.491   5.853  12.955
16694W        W77983  27.150  43.938   3.687
16695W        W77984  26.519  21.746   0.440
16696W        W77985  27.171  15.599   3.697
16697W        W77986   6.224  37.003  12.004
16698W        W77987   4.856  21.034   5.123
16699W        W77988  30.115  37.886  13.414
16700W        W77989  27.145  10.278   2.330
16701W        W77990  34.090  10.641  14.502
16702W        W77991  16.730  40.379  14.912
16703W        W77992  24.487  38.851  14.021
16704W        W77993  14.238  21.578   3.695
16705W        W77994   6.303  43.506   3.380
16706W        W77995  24.684   0.927   0.391
16707W        W77996   9.216  18.268  12.980
16708W        W77997  23.613  39.378  11.916
16709W        W77998  34.062  11.294  13.503
16710W        W77999  13.773  43.361   4.616
16711W        W78000  11.830  14.263  11.089
16712W        W78001  12.157  29.176  11.538
16713W        W78002  10.159   6.804  12.884
16714W        W78003  17.603  18.594   0.461
16715W        W78004  42.419  18.192  13.944
16716W        W78005   1.392   4.396  11.590
16717W        W78006   5.265   9.331   4.741
16718W        W78007  43.828  16.224   2.234
16719W        W78008  41.324   3.323   1.379
16720W        W78009   6.721   8.820  11.915
16721W        W78010  33.971  33.966   0.246
16722W        W78011  23.697  15.594   4.809
16723W        W78012  40.483   2.363   1.908
16724W        W78013  41.806  24.221   1.413
16725W        W78014  14.648  34.450   2.225
16726W        W78015  39.425  19.725   2.706
16727W        W78016  38.872  39.931  13.835
16728W        W78017  35.370  13.824   0.390
16729W        W78018   1.918  41.864   0.274
16730W        W78019  28.125  26.155  12.340
16731W        W78020  30.594   8.890  12.461
16732W        W78021  24.659  30.656  10.989
16733W        W78022  22.720  29.976   0.742
16734W        W78023  38.481   3.830  13.433
16735W        W78024  27.535   9.804   2.354
16736W        W78025   9.309  34.409   3.729
16737W        W78026  38.011   6.419  12.516
16738W        W78027   6.680  21.589  12.372
16739W        W78028   2.837  39.554  14.505
16740W        W78029   0.770  27.600  10.435
16741W        W78030  41.485  31.628  13.858
16742W        W78031  12.179  33.956  10.928
16743W        W78032  20.126   6.207  11.495
16744W        W78033  43.991  44.310  10.105
16745W        W78034   1.359  27.690   2.860
16746W        W78035  26.127   6.351   3.754
16747W        W78036  31.575   4.729   0.315
16748W        W78037   3.308  37.056  11.987
16749W        W78038  11.719  44.491  14.508
16750W        W78039  36.971  34.961  13.537
16751W        W78040  13.646   0.281  11.040
16752W        W78041  33.403  35.880   3.297
16753W        W78042  35.448  24.480   4.224
16754W        W78043  14.229   6.778   2.201
16755W        W78044  37.913  25.997  13.385
16756W        W78045   7.315  16.664   1.916
16757W        W78046   9.857  28.645   2.773
16758W        W78047  24.508  19.161  10.970
16759W        W78048  34.951  33.048   4.641
16760W        W78049   5.401  25.978  13.440
16761W        W78050  19.718  33.592  13.940
16762W        W78051  14.103   0.896   0.866
16763W        W78052   7.300   9.267   2.753
16764W        W78053   5.432  17.122  11.394
16765W        W78054   8.219   5.882   0.738
16766W        W78055  34.925  32.028   3.700
16767W        W78056  33.877  21.547   2.403
16768W        W78057  12.646  39.446  12.379
16769W        W78058  34.117  40.510   3.272
16770W        W78059  31.435  35.943   0.860
16771W        W78060   1.874  21.617   0.385
16772W        W78061  17.071  22.180  14.846
16773W        W78062  21.604  30.077   0.917
16774W        W78063  20.680   8.851  12.348
16775W        W78064   7.765  17.171  13.922
16776W        W78065  39.503  36.913  13.973
16777W        W78066   5.762  27.110  11.500
16778W        W78067   0.482   8.371  13.893
16779W        W78068  18.091  40.316  12.440
16780W        W78069  23.002   5.914   2.212
16781W        W78070  31.642  40.389  11.862
16782W        W78071   4.290   5.272   4.800
16783W        W78072  19.230  34.437   3.192
16784W        W78073  14.707  41.964   2.382
16785W        W78074  20.755  34.057   1.703
16786W        W78075  22.679  34.567   3.355
16787W        W78076   2.924  21.146   0.263
16788W        W78077   2.268  32.119  12.513
16789W        W78078  24.585  39.882  13.397
16790W        W78079  26.107  19.155  10.443
16791W        W78080  40.958  26.061   2.677
16792W        W78081  35.006  25.087  14.863
16793W        W78082   5.719  23.992  11.464
16794W        W78083   6.700  27.971  13.489
16795W        W78084  42.819  38.837   3.163
16796W        W78085  15.734  13.296  12.363
16797W        W78086  17.197  39.993  10.630
16798W        W78087  19.254  38.903  12.469
16799W        W78088   5.298  40.548  14.454
16800W        W78089   6.715  28.112  12.916
16801W        W78090  43.924  15.644  11.933
16802W        W78091  17.137  19.232   3.251
16803W        W78092  10.649  25.695  13.904
16804W        W78093  19.145  24.513  13.048
16805W        W78094  18.669   3.459   4.599
16806W        W78095  24.128  20.691   1.899
16807W        W78096  29.535  30.118   2.743
16808W        W78097  20.070   6.380  13.019
16809W        W78098   1.849   2.284   4.744
16810W        W78099  19.104  10.365  14.376
16811W        W78100  21.172  42.946   0.822
16812W        W78101  43.921  41.801  11.479
16813W        W78102  19.545  20.672   1.889
16814W        W78103  15.747  43.373  14.352
16815W        W78104  18.247   3.216   2.835
16816W        W78105   8.251  42.510   2.814
16817W        W78106  44.777  13.134  11.581
16818W        W78107  40.515   6.849   2.781
16819W        W78108   9.879   6.265   1.241
16820W        W78109   7.183  28.604  12.992
16821W        W78110  23.163  13.728  14.276
16822W        W78111  17.691  10.343  11.603
16823W        W78112  37.414  33.603  12.438
16824W        W78113  36.498  18.636   4.311
16825W        W78114  27.013  41.927   0.754
16826W        W78115   8.851  42.386  11.958
16827W        W78116  15.783  10.746   3.793
16828W        W78117  35.971  28.943   4.720
16829W        W78118  24.572  42.015  13.334
16830W        W78119  37.890  39.400   1.404
16831W        W78120  31.460  39.833  11.547
16832W        W78121  25.982  11.631  11.517
16833W        W78122  41.386  36.957  13.453
16834W        W78123  23.668   1.406   0.475
16835W        W78124  16.645  27.584  13.381
16836W        W78125  27.619  32.988  13.348
16837W        W78126   1.894  25.979   2.798
16838W        W78127  14.644  18.623   3.650
16839W        W78128  11.767  19.765  12.579
16840W        W78129  27.679  31.926  11.058
16841W        W78130  35.936  12.188  11.588
16842W        W78131   5.434  44.337  13.410
16843W        W78132  39.894   7.730  11.023
16844W        W78133  25.521  29.033  12.024
16845W        W78134  38.543   3.316  12.045
16846W        W78135  10.361  17.593   1.345
16847W        W78136  38.478   1.356   1.884
16848W        W78137  15.245  35.987  10.150
16849W        W78138  39.457   6.687  11.893
16850W        W78139  35.507  34.485  12.909
16851W        W78140  13.260   6.744  13.543
16852W        W78141  13.317   4.914   4.637
16853W        W78142  22.634  39.486   3.758
16854W        W78143  20.631  16.112  10.645
16855W        W78144  35.561  38.987   1.869
16856W        W78145  17.141   2.422  12.558
16857W        W78146  19.182  41.307  12.908
16858W        W78147  42.829   7.377  11.094
16859W        W78148  19.694  26.994   3.315
16860W        W78149   6.347  40.798   0.478
16861W        W78150  41.317  37.474  14.822
16862W        W78151  15.760  16.144  13.956
16863W        W78152   4.401   5.261   4.257
16864W        W78153  42.341  39.346   1.358
16865W        W78154  20.094  39.509   4.350
16866W        W78155  20.058  23.579  11.972
16867W        W78156  22.678  36.352   2.409
16868W        W78157   1.461  42.458  10.962
16869W        W78158   7.401   3.742   0.779
16870W        W78159  25.004  39.871  11.436
16871W        W78160  36.986  10.865  11.376
16872W        W78161  20.112  17.688  14.774
16873W        W78162  19.597  31.529  13.962
16874W        W78163  26.480  38.023   4.709
16875W        W78164  11.866   3.373  11.536
16876W        W78165  14.616  11.237   3.700
16877W        W78166  31.411  18.235  14.490
16878W        W78167   4.394  44.411   1.378
16879W        W78168  27.513   8.286   4.241
16880W        W78169  28.639  40.817   2.817
16881W        W78170  40.944  43.511  14.468
16882W        W78171  38.466  24.184   2.418
16883W        W78172  25.032  33.126   2.902
16884W        W78173  36.362  21.225   4.230
16885W        W78174  37.981  10.198  13.868
16886W        W78175  17.068  41.397   3.224
16887W        W78176  41.792  37.378  10.505
16888W        W78177  33.953  24.225   1.879
16889W        W78178  30.971   8.701  10.475
16890W        W78179  10.350  30.023  14.361
16891W        W78180  21.218   4.739   5.163
16892W        W78181  44.442  34.959  12.970
16893W        W78182  16.317  37.537   3.209
16894W        W78183  23.503  34.465  14.868
16895W        W78184  16.790  14.627   1.401
16896W        W78185   2.725  15.156  12.403
16897W        W78186  30.488   2.879   5.575
16898W        W78187  28.183  39.492  11.886
16899W        W78188  10.241  44.422   1.228
16900W        W78189  14.735   9.226   4.730
16901W        W78190  33.569  17.148   3.821
16902W        W78191  31.030  36.494   1.422
16903W        W78192   1.831  43.390  12.557
16904W        W78193  13.174  27.627   1.840
16905W        W78194   3.352  33.467  10.927
16906W        W78195  18.611   0.795  12.983
16907W        W78196   4.736  35.069  13.503
16908W        W78197  10.267  19.629   3.766
16909W        W78198   1.260  18.646   2.386
16910W        W78199  20.232  16.805  12.504
16911W        W78200   6.183   6.832  14.356
16912W        W78201  27.534   0.386  13.525
16913W        W78202  43.368  10.747  13.489
16914W        W78203  39.828  42.329  12.039
16915W        W78204  39.323   3.884   0.482
16916W        W78205  15.092  21.702   0.275
16917W        W78206   3.310   4.338   4.298
16918W        W78207  15.171  10.720   2.329
16919W        W78208  36.529  42.437  10.923
16920W        W78209  23.174  38.052  10.507
16921W        W78210  13.209  38.930   1.284
16922W        W78211  34.560  15.636  13.829
16923W        W78212  38.995  39.864  11.480
16924W        W78213  22.553  33.442   0.904
16925W        W78214  13.709  15.723  14.392
16926W        W78215   5.240  15.273  12.044
16927W        W78216  18.684   0.412   3.353
16928W        W78217   3.342  21.683  13.343
16929W        W78218   5.404  22.546  14.794
16930W        W78219   9.647   8.237  10.434
16931W        W78220  35.477  39.495  10.532
16932W        W78221  35.078  35.047  13.405
16933W        W78222  32.524  11.356   3.689
16934W        W78223   3.923   5.410   0.287
16935W        W78224  11.130  44.842  14.297
16936W        W78225   1.808  30.522   0.390
16937W        W78226  16.278   4.896   1.402
16938W        W78227   9.343  38.031   2.699
16939W        W78228  41.443  24.004   0.794
16940W        W78229  43.329   5.867  14.461
16941W        W78230  44.420  14.646   3.206
16942W        W78231  10.177  22.512   3.646
16943W        W78232  33.115   4.891   3.379
16944W        W78233   5.295  36.988   1.394
16945W        W78234  12.191  22.702  14.965
16946W        W78235  44.796  12.208  12.085
16947W        W78236   6.874  17.267  12.887
16948W        W78237  35.591  37.352   1.364
16949W        W78238   8.182  44.396  14.920
16950W        W78239  27.449  15.679   0.330
16951W        W78240   3.407  42.854   1.776
16952W        W78241  24.505  34.929   4.193
16953W        W78242  19.623  35.497   2.405
16954W        W78243  38.531   1.738  11.997
16955W        W78244  14.722  39.958   1.400
16956W        W78245   5.214  18.577  14.783
16957W        W78246  21.656  28.121  12.014
16958W        W78247  16.270  34.939   4.610
16959W        W78248  36.547  15.310  10.971
16960W        W78249  18.577  19.233  13.444
16961W        W78250  27.463  27.061   3.851
16962W        W78251  10.208  14.651  11.078
16963W        W78252  15.721  13.631  12.459
16964W        W78253   0.814  34.053   3.750
16965W        W78254  30.158  29.663  12.362
16966W        W78255  15.732  14.649  10.549
16967W        W78256  15.190  21.622  13.864
16968W        W78257   8.884  18.782   3.636
16969W        W78258   7.244  17.160  10.925
16970W        W78259  41.891  29.607  10.516
16971W        W78260  17.595   6.379   1.291
16972W        W78261  14.269  29.487  10.938
16973W        W78262   0.288   0.430   2.322
16974W        W78263  16.221   8.868  11.861
16975W        W78264  37.349  35.941   3.648
16976W        W78265   5.827  21.518   5.321
16977W        W78266  26.127  28.593   2.204
16978W        W78267  10.384  26.626  14.807
16979W        W78268  25.138  43.492   1.247
16980W        W78269   1.902  16.145  13.351
16981W        W78270  39.458   2.800  12.509
16982W        W78271  19.188   9.812   4.151
16983W        W78272  14.656  28.636  10.981
16984W        W78273  36.993  43.961  13.830
16985W        W78274  26.527  24.527  11.610
16986W        W78275  18.587  32.437   3.297
16987W        W78276  39.059  26.007  13.963
16988W        W78277  25.683  29.620  13.970
16989W        W78278  23.506  30.963  13.416
16990W        W78279  42.471   5.848  11.551
16991W        W78280  35.456  21.050   0.818
16992W        W78281  19.753  33.493  14.513
16993W        W78282  20.696  31.524   1.699
16994W        W78283  44.908  38.928  12.383
16995W        W78284  30.501  31.988  12.527
16996W        W78285  11.244  29.482   2.729
16997W        W78286  31.427   9.221  14.365
16998W        W78287  36.888  17.086  11.120
16999W        W78288  24.139   0.456   1.720
17000W        W78289  33.415   4.302   3.802
17001W        W78290  20.069  20.752   4.187
17002W        W78291  31.134  18.756  13.485
17003W        W78292  28.976  31.642   2.378
17004W        W78293  10.707  39.823   1.391
17005W        W78294   5.210  32.392  13.978
17006W        W78295  13.138  17.588   1.319
17007W        W78296  20.689  22.055   0.443
17008W        W78297  37.445  43.339   0.796
17009W        W78298  19.242  29.427  13.808
17010W        W78299  44.330  16.292   5.102
17011W        W78300  12.263  20.732   4.178
17012W        W78301  41.305  21.543  14.486
17013W        W78302  13.692  34.517  11.602
17014W        W78303  38.365  15.723   2.416
17015W        W78304   2.327   4.390   0.376
17016W        W78305  13.311  40.912   1.815
17017W        W78306   1.381   1.802  11.014
17018W        W78307  32.535  42.844  13.024
17019W        W78308   7.907  14.704  11.550
17020W        W78309  36.415  19.632   1.865
17021W        W78310  14.602  32.897   0.282
17022W        W78311  31.027   6.911  13.470
17023W        W78312  41.957  16.072  14.978
17024W        W78313   8.323  22.613   4.786
17025W        W78314  31.112   9.224   4.654
17026W        W78315  34.988  40.330   4.792
17027W        W78316  34.374   5.210   4.720
17028W        W78317  25.203  33.412  11.595
17029W        W78318  30.916  42.997   1.751
17030W        W78319  30.639  44.351   4.815
17031W        W78320   4.783   9.209  10.645
17032W        W78321  16.196   5.751  14.362
17033W        W78322  34.481   0.383   0.758
17034W        W78323  40.818   5.238  11.980
17035W        W78324  28.020  34.076   3.178
17036W        W78325   2.837  43.376   2.208
17037W        W78326   0.896  29.462   0.776
17038W        W78327  29.066  23.179   4.690
17039W        W78328  13.680  29.652   2.740
17040W        W78329   5.297  34.083   4.162
17041W        W78330  14.663  27.032  11.102
17042W        W78331   9.296   3.951   4.722
17043W        W78332  17.721  20.568  12.363
17044W        W78333  13.741  19.134  12.937
17045W        W78334  36.439  35.033  11.439
17046W        W78335   1.297  10.850  10.109
17047W        W78336   4.211  35.053  14.010
17048W        W78337  19.746   1.934   2.278
17049W        W78338  22.721  38.885  12.914
17050W        W78339  34.023  42.366   3.636
17051W        W78340  24.980  31.425   3.357
17052W        W78341  17.678  32.137   4.178
17053W        W78342  16.754  41.493   1.325
17054W        W78343  17.556  18.774  13.793
17055W        W78344  37.430  18.083   3.779
17056W        W78345  40.945  22.159   3.783
17057W        W78346  26.463  12.628   4.614
17058W        W78347  17.235   0.878   3.314
17059W        W78348  29.622  38.326   0.372
17060W        W78349  35.885   3.263   2.209
17061W        W78350  23.055   7.209  10.447
17062W        W78351  38.427  15.625  10.993
17063W        W78352  23.518  14.743   3.728
17064W        W78353  15.103  40.933  14.502
17065W        W78354   9.151  16.232  14.399
17066W        W78355  22.660  25.649   4.321
17067W        W78356   8.662  26.523  12.040
17068W        W78357  27.575  36.026   2.674
17069W        W78358  35.034  26.125  11.908
17070W        W78359  40.858  41.489  12.066
17071W        W78360  44.276  12.631   5.111
17072W        W78361   9.800  21.732  13.413
17073W        W78362  39.056   4.761   2.300
17074W        W78363  40.863  25.065   0.905
17075W        W78364   0.399   2.288   4.288
17076W        W78365  13.748  36.055  13.916
17077W        W78366  42.469  25.135  12.363
17078W        W78367  17.241  43.927   3.685
17079W        W78368  31.423  42.934   2.756
17080W        W78369  10.693  25.108   2.862
17081W        W78370  41.903  14.184   3.385
17082W        W78371  40.008  18.282  13.998
17083W        W78372  36.917   4.330  14.996
17084W        W78373   3.757  36.505  11.964
17085W        W78374  15.295  42.431   1.296
17086W        W78375  30.505  36.476   3.225
17087W        W78376  18.161  40.384  10.157
17088W        W78377  23.001  28.072  13.502
17089W        W78378   9.736  30.461   4.829
17090W        W78379  31.610  10.280   0.813
17091W        W78380   3.398   5.439   3.378
17092W        W78381  29.524  42.330  10.989
17093W        W78382  17.578  29.473  12.023
17094W        W78383   4.850  40.822  11.587
17095W        W78384   3.716   6.824   1.386
17096W        W78385  14.672   1.731  13.494
17097W        W78386  36.971  42.963  13.898
17098W        W78387   8.817  36.043   1.890
17099W        W78388   3.943   4.850  12.072
17100W        W78389   9.231   7.696   4.129
17101W        W78390  40.421   2.964  14.396
17102W        W78391  34.035  34.898  12.893
17103W        W78392  36.917  26.143  11.517
17104W        W78393  40.980   6.755  12.844
17105W        W78394  29.618  16.158   1.806
17106W        W78395   0.252  28.456  14.369
17107W        W78396   0.850  20.193  10.547
17108W        W78397  29.022  37.082  13.417
17109W        W78398  12.344  37.467   5.203
17110W        W78399  43.492  40.834  10.525
17111W        W78400  29.547  37.519  14.945
17112W        W78401  34.534   3.750  11.437
17113W        W78402  32.437   4.700   4.156
17114W        W78403   5.931  17.091   3.293
17115W        W78404   4.318  24.719  13.904
17116W        W78405  29.448   0.439  10.443
17117W        W78406   0.898  29.951  13.992
17118W        W78407  18.689   5.861   3.262
17119W        W78408  30.926  30.157  13.023
17120W        W78409  36.929   9.738  13.995
17121W        W78410  14.168   5.840  11.860
17122W        W78411  37.084  10.166  11.452
17123W        W78412  33.052  22.232  13.823
17124W        W78413  24.187  42.797  12.871
17125W        W78414  39.946  23.162  12.017
17126W        W78415  25.692  32.408  10.641
17127W        W78416  23.489  43.423  10.420
17128W        W78417  14.319   9.282   4.797
17129W        W78418  19.598   8.361   3.374
17130W        W78419  22.042  30.616  10.440
17131W        W78420   8.295   6.395   3.372
17132W        W78421  28.034  31.537  14.884
17133W        W78422  16.312  12.300   1.807
17134W        W78423   6.185  13.806  13.482
17135W        W78424  11.766  42.947  13.965
17136W        W78425   2.368   3.251  11.429
17137W        W78426  36.869  31.013   4.117
17138W        W78427  30.446  17.166   5.091
17139W        W78428  27.023  30.623   2.349
17140W        W78429  34.095  44.854  14.389
17141W        W78430  31.923  27.986  12.565
17142W        W78431  42.996  23.152   0.910
17143W        W78432  31.640  19.739  11.101
17144W        W78433  23.683  13.779   4.787
17145W        W78434  13.294   1.860  11.856
17146W        W78435  40.849  15.802  13.529
17147W        W78436  13.691   8.323   0.421
17148W        W78437  30.087  43.002  12.879
17149W        W78438  33.059  21.571   1.814
17150W        W78439   8.654   8.666   0.402
17151W        W78440   4.289  27.013   0.736
17152W        W78441  43.351  16.767  10.988
17153W        W78442   6.345  39.520  11.887
17154W        W78443  39.828  12.206  12.033
17155W        W78444  14.711  41.442   0.469
17156W        W78445  19.144  19.771  11.513
17157W        W78446   8.216  23.101  12.539
17158W        W78447   7.332  16.785   3.751
17159W        W78448  10.664  24.981   3.191
17160W        W78449  43.964  35.599  11.463
17161W        W78450   9.297   4.701  14.355
17162W        W78451   7.736  43.334  11.000
17163W        W78452   6.295  41.457  12.045
17164W        W78453  10.676  35.077   0.444
17165W        W78454  36.446  43.359   2.385
17166W        W78455  15.688   6.695  11.516
17167W        W78456  38.428   0.945   0.945
17168W        W78457  18.098  38.337   3.364
17169W        W78458   6.890   6.203  12.079
17170W        W78459  18.277   1.946   3.797
17171W        W78460  32.596  32.391   4.663
17172W        W78461  16.706  16.667   1.287
17173W        W78462  33.091  27.612  12.981
17174W        W78463  25.510  26.486   2.287
17175W        W78464  22.742  10.687   4.220
17176W        W78465  29.011  10.163   3.242
17177W        W78466   1.456  25.150   0.802
17178W        W78467  39.874   3.261  10.471
17179W        W78468  38.529   0.941   1.881
17180W        W78469  32.543  32.051  11.509
17181W        W78470  26.113  35.473  13.507
17182W        W78471  44.786  29.470  10.077
17183W        W78472  40.878   5.818  11.094
17184W        W78473  39.934  33.875  11.069
17185W        W78474  21.546  34.520   3.231
17186W        W78475  16.805  21.143  12.876
17187W        W78476  13.646  26.004   4.219
17188W        W78477  28.559  41.856   4.296
17189W        W78478  28.986  16.583   2.389
17190W        W78479  24.590  35.372  14.429
17191W        W78480  25.679  44.341  14.861
17192W        W78481  36.069  28.637   3.262
17193W        W78482  44.425  15.114   2.827
17194W        W78483  26.690   8.391   2.393
17195W        W78484  14.160  29.934  10.920
17196W        W78485  29.112  17.581  11.987
17197W        W78486  13.342  21.226   2.269
17198W        W78487  39.016   6.706  13.828
17199W        W78488  31.550  29.015  11.563
17200W        W78489  27.067  11.202   1.217
17201W        W78490  37.848  38.019   4.128
17202W        W78491  22.204  23.613   5.314
17203W        W78492   9.864  11.281  14.344
17204W        W78493  38.026  22.560  10.537
17205W        W78494  22.690  13.713   1.924
17206W        W78495  12.755  17.635  11.499
17207W        W78496  26.608  36.972   1.307
17208W        W78497  22.737  29.619  14.359
17209W        W78498  36.913  11.807   4.253
17210W        W78499  10.754  27.987   1.359
17211W        W78500  21.203   6.735  12.907
17212W        W78501   3.824  25.575  12.396
17213W        W78502  40.873  21.605   3.353
17214W        W78503  17.203  13.188  13.327
17215W        W78504  42.789  42.976   4.166
17216W        W78505  35.077  12.788  10.125
17217W        W78506  22.712  20.723   1.444
17218W        W78507  23.597  42.361  14.461
17219W        W78508  25.129  21.582   5.122
17220W        W78509  39.032   9.275  10.888
17221W        W78510  17.226  36.028  11.371
17222W        W78511  18.777  12.637  14.513
17223W        W78512   5.321  18.771  13.546
17224W        W78513  18.117  16.661  10.425
17225W        W78514  43.814  23.655   4.651
17226W        W78515  20.190   7.338  14.438
17227W        W78516  27.189  16.177  12.962
17228W        W78517  18.121  19.096   1.265
17229W        W78518  28.592   6.185   3.377
17230W        W78519   9.238  14.339  11.890
17231W        W78520  27.683   9.276  10.043
17232W        W78521   7.234  19.283  10.912
17233W        W78522  32.919  18.098  13.392
17234W        W78523  12.839   0.349   1.285
17235W        W78524  17.598  38.915   3.327
17236W        W78525  25.634  38.415  12.502
17237W        W78526  44.818  27.082   2.716
17238W        W78527  24.122  18.258   1.932
17239W        W78528   6.190   1.440  11.072
17240W        W78529   4.340  11.314   2.370
17241W        W78530   4.931  25.198   1.443
17242W        W78531  27.470  44.786  14.838
17243W        W78532   7.798  41.525  10.054
17244W        W78533   5.745  44.800   0.294
17245W        W78534   0.848  17.705  14.912
17246W        W78535  27.137   9.705   4.229
17247W        W78536   0.431  26.527  14.476
17248W        W78537  10.643  38.341  11.550
17249W        W78538   6.902   2.934   0.322
17250W        W78539  35.361  23.175   3.219
17251W        W78540  24.147  11.847   4.598
17252W        W78541  23.580  38.371   0.750
17253W        W78542  20.225  41.517   2.768
17254W        W78543  27.584  39.367   0.469
17255W        W78544  27.604   0.433   0.442
17256W        W78545  24.491  13.809   3.794
17257W        W78546  34.938   7.400   0.880
17258W        W78547   4.750  13.843  13.313
17259W        W78548  34.519  31.432   2.760
17260W        W78549   3.896  30.654   4.808
17261W        W78550  17.064   6.894   3.869
17262W        W78551  14.714  11.723   3.810
17263W        W78552  44.320   3.458   0.948
17264W        W78553  13.237  41.385   2.816
17265W        W78554  15.739  27.535   3.642
17266W        W78555  23.030   2.262  13.468
17267W        W78556  16.193  39.536   3.637
17268W        W78557   3.401  37.056  11.451
17269W        W78558  28.485  19.585   3.322
17270W        W78559  25.518  41.808  10.517
17271W        W78560   3.377   8.316   2.264
17272W        W78561  13.298  35.366  11.032
17273W        W78562  30.636  42.489   0.293
17274W        W78563  16.770  39.863   4.290
17275W        W78564  43.976  13.189  11.390
17276W        W78565  42.447  29.110  13.357
17277W        W78566  16.114  37.568   1.797
17278W        W78567  31.914   9.268   2.214
17279W        W78568  13.343  32.072   0.932
17280W        W78569  37.384  34.118  13.836
17281W        W78570   6.314  34.526   1.765
17282W        W78571  17.275  22.173  13.907
17283W        W78572  22.687  22.690   0.759
17284W        W78573  12.834   9.884   0.932
17285W        W78574  33.884  10.707  12.579
17286W        W78575  28.116  19.745  12.881
17287W        W78576  23.637  11.826  13.346
17288W        W78577  40.315  30.030  11.484
17289W        W78578  13.786  23.041   3.325
17290W        W78579  41.837  35.991   3.834
17291W        W78580   8.691  24.173  12.408
17292W        W78581   6.331  35.399  14.319
17293W        W78582  40.362  42.413  13.319
17294W        W78583  32.919  34.561   1.271
17295W        W78584  44.753  30.465   3.839
17296W        W78585  12.691  42.455  14.805
17297W        W78586  33.987  16.280  10.484
17298W        W78587  15.196   4.248  12.397
17299W        W78588  44.322  19.079  12.459
17300W        W78589  29.596  17.229  14.775
17301W        W78590  17.099  43.426  12.942
17302W        W78591  27.467  41.532   4.798
17303W        W78592   9.368   6.748   3.147
17304W        W78593   3.752  42.853   1.749
17305W        W78594  10.365   5.922  12.501
17306W        W78595   8.360  31.470  10.592
17307W        W78596  29.046  12.700   2.847
17308W        W78597  14.714  13.182   0.871
17309W        W78598  32.918   1.309  10.014
17310W        W78599  22.708  12.737  10.491
17311W        W78600   8.811  13.350   4.190
17312W        W78601  37.897  33.007   4.705
17313W        W78602  19.728  41.485  11.957
17314W        W78603  32.584  24.211   0.934
17315W        W78604  26.505  17.261  13.447
17316W        W78605   9.818  37.963  13.048
17317W        W78606   8.357  39.864   4.287
17318W        W78607  12.235   8.266   1.355
17319W        W78608  30.604  11.362   4.617
17320W        W78609   1.460  10.172  10.595
17321W        W78610   5.409  15.191   1.814
17322W        W78611   9.820  39.886  12.469
17323W        W78612  42.792  42.789   0.880
17324W        W78613  40.869  22.109  11.100
17325W        W78614  29.630  19.672   0.422
17326W        W78615  29.643  40.362   2.842
17327W        W78616  33.071  26.460  13.469
17328W        W78617  43.977  20.165  12.473
17329W        W78618  14.670  40.878  13.053
17330W        W78619  16.671  30.979   0.451
17331W        W78620  26.063  23.633  12.009
17332W        W78621  32.915   9.314  13.988
17333W        W78622  34.069  18.059   0.794
17334W        W78623  44.450  24.008  11.509
17335W        W78624   6.320  27.539   4.189
17336W        W78625   6.837  34.958   3.235
17337W        W78626  43.321  26.461  13.835
17338W        W78627   3.736  37.015  10.899
17339W        W78628   6.269  33.395  13.832
17340W        W78629  26.977  39.476  14.287
17341W        W78630   4.273  19.184  13.063
17342W        W78631   4.792  34.584  14.941
17343W        W78632  31.109  37.382   0.733
17344W        W78633  11.277  31.066   3.362
17345W        W78634  28.160  37.843  13.320
17346W        W78635  37.981   7.282   2.756
17347W        W78636  36.586  17.215  13.447
17348W        W78637  13.795  30.968  12.494
17349W        W78638   3.418  35.965  10.932
17350W        W78639  10.632   4.902   2.305
17351W        W78640  39.981   9.204  11.972
17352W        W78641  34.986  10.290  12.407
17353W        W78642  31.069  27.947   0.917
17354W        W78643   7.379  21.260  11.402
17355W        W78644  26.018  26.472  11.385
17356W        W78645  29.111  41.793  13.324
17357W        W78646  23.638  35.427  11.545
17358W        W78647  44.492   3.277   2.221
17359W        W78648  25.656   2.722  11.471
17360W        W78649  24.500  22.689  12.911
17361W        W78650  32.469  36.899  10.504
17362W        W78651  23.718  23.577  14.938
17363W        W78652   9.865  16.204  14.352
17364W        W78653   2.752  21.241   1.265
17365W        W78654  39.448  36.372   4.166
17366W        W78655   6.187  28.652   5.127
17367W        W78656  20.554  18.724  12.450
17368W        W78657  42.931   0.744   1.823
17369W        W78658  41.397   5.807  13.468
17370W        W78659  32.523   7.893   0.460
17371W        W78660  35.953  29.583   0.942
17372W        W78661  13.193  34.882   0.904
17373W        W78662  38.486  18.053  13.424
17374W        W78663  39.931  22.164   2.213
17375W        W78664  25.138  13.637   3.377
17376W        W78665  35.385  40.326   3.857
17377W        W78666  39.394  26.995   3.311
17378W        W78667  40.536  34.942   5.119
17379W        W78668  11.143  39.002  12.368
17380W        W78669  37.856  23.116  11.599
17381W        W78670  32.096  39.532   4.219
17382W        W78671   0.308  18.077   0.243
17383W        W78672  16.261  27.122  11.964
17384W        W78673  43.914  18.117   1.227
17385W        W78674  39.032   9.260   0.447
17386W        W78675  24.592  15.611   0.744
17387W        W78676  44.382  30.583   3.187
17388W        W78677  13.809  31.560  12.482
17389W        W78678  35.387  25.703   3.378
17390W        W78679   6.261  43.948   0.394
17391W        W78680   4.807  13.139  12.910
17392W        W78681  23.528  12.617   0.932
17393W        W78682  36.498   0.396   1.834
17394W        W78683  18.214  18.584   3.739
17395W        W78684  36.017  22.701   5.124
17396W        W78685  42.525   6.215  11.372
17397W        W78686  19.685  32.019  13.912
17398W        W78687  36.910   6.402  13.886
17399W        W78688  42.928  40.940  12.505
17400W        W78689  11.677  13.673  10.103
17401W        W78690  39.370  34.098  10.426
17402W        W78691  16.647   3.836   1.877
17403W        W78692  35.557  12.329  14.870
17404W        W78693  28.608   0.288   0.479
17405W        W78694  20.582   3.425   0.469
17406W        W78695  31.150  15.187  14.886
17407W        W78696  30.430   6.811   0.318
17408W        W78697  24.559  12.823   0.426
17409W        W78698  13.702  22.556   0.933
17410W        W78699  19.280  43.958   1.738
17411W        W78700  21.646   5.256   0.910
17412W        W78701  28.673  44.943  14.898
17413W        W78702   9.270   1.919   0.832
17414W        W78703  35.528  26.627  14.297
17415W        W78704  18.287  34.060   2.252
17416W        W78705  31.573  31.150  13.313
17417W        W78706   2.321  28.542  14.875
17418W        W78707  26.641  37.579  13.383
17419W        W78708  40.479  40.467   3.825
17420W        W78709  19.718  14.713   1.214
17421W        W78710  11.166  34.932  13.942
17422W        W78711   3.290  18.681   0.394
17423W        W78712  18.600  23.690  13.831
17424W        W78713  33.965  40.345   3.862
17425W        W78714  44.915  33.461   0.781
17426W        W78715   7.852  33.076  11.112
17427W        W78716  42.942  40.528  12.973
17428W        W78717   3.835  35.991   1.226
17429W        W78718   1.840  35.590   2.362
17430W        W78719   0.850  22.052  14.767
17431W        W78720   5.879  17.650   1.443
17432W        W78721  22.211  20.164  13.479
17433W        W78722  23.074  33.053   4.162
17434W        W78723  15.638  27.460  14.314
17435W        W78724  10.729  28.580  12.365
17436W        W78725   4.943  29.125   3.298
17437W        W78726  34.073  12.198   2.678
17438W        W78727   1.781  33.578  12.073
17439W        W78728  40.922  16.621   4.700
17440W        W78729  28.550   0.270  14.995
17441W        W78730   8.891  17.147   0.323
17442W        W78731  35.392  37.064  12.959
17443W        W78732  10.676  29.438  11.502
17444W        W78733  29.001  33.429   3.701
17445W        W78734  38.352   4.347   2.811
17446W        W78735  35.402  26.968   4.247
17447W        W78736   3.403   2.366  12.930
17448W        W78737  31.151   8.688   4.225
17449W        W78738  13.158  34.005  13.801
17450W        W78739   6.761  33.568  11.054
17451W        W78740  15.099   9.244   1.824
17452W        W78741  41.417  15.683   1.768
17453W        W78742  44.796  42.816   0.396
17454W        W78743  22.614  29.044   5.084
17455W        W78744  24.226  20.580   4.642
17456W        W78745  25.159  23.717  12.347
17457W        W78746  19.657  37.872   1.900
17458W        W78747  31.463  34.105   2.735
17459W        W78748   6.270  29.013  13.313
17460W        W78749  25.174   1.303  13.342
17461W        W78750  42.886   1.241  11.534
17462W        W78751   8.223   6.721  10.887
17463W        W78752  39.056  40.833  13.842
17464W        W78753  41.329  20.708   3.760
17465W        W78754  21.523  20.734  12.023
17466W        W78755  21.526  34.542   4.313
17467W        W78756  34.399   2.880   2.682
17468W        W78757  13.299   4.213  11.547
17469W        W78758  32.103  14.823   1.828
17470W        W78759  28.138   7.250   2.323
17471W        W78760   8.274  42.400   1.826
17472W        W78761  43.336  33.057   3.331
17473W        W78762  38.958  28.480   1.369
17474W        W78763   3.258  31.571   2.886
17475W        W78764  40.841  42.882  13.799
17476W        W78765  11.826   5.772  12.871
17477W        W78766  12.326   3.944  12.508
17478W        W78767  31.135  14.673  13.847
17479W        W78768  36.521  32.575   4.727
17480W        W78769  31.990  10.781  13.493
17481W        W78770  40.380   1.850   3.708
17482W        W78771  20.179  22.708  13.518
17483W        W78772  26.005  38.407   3.713
17484W        W78773  33.459   9.391  10.474
17485W        W78774   7.184  29.029  13.334
17486W        W78775   7.210  33.600   1.888
17487W        W78776  10.714  39.055   4.828
17488W        W78777  15.663   0.978   1.696
17489W        W78778  30.157  16.240   3.813
17490W        W78779  39.835  26.540   4.623
17491W        W78780  33.923   0.892  13.339
17492W        W78781  44.007  43.865  11.890
17493W        W78782  37.580  18.284  13.444
17494W        W78783  28.090  34.971   2.297
17495W        W78784  12.315  23.162   4.607
17496W        W78785   8.394  42.899  10.437
17497W        W78786  21.611   3.419  14.853
17498W        W78787   1.746  22.618  10.933
17499W        W78788   7.707  19.588  11.523
17500W        W78789   2.327  21.739  12.529
17501W        W78790  40.910  20.583   3.383
17502W        W78791  37.894  14.274  11.045
17503W        W78792   3.257  27.496   0.410
17504W        W78793  19.179  11.792  14.909
17505W        W78794  40.346   2.416  14.910
17506W        W78795   0.916  33.475  13.987
17507W        W78796  15.192  14.294   2.362
17508W        W78797  31.902  17.222  13.375
17509W        W78798  28.062  29.943   1.304
17510W        W78799   9.334  17.679  14.774
17511W        W78800  34.467  28.502  11.584
17512W        W78801  23.172  44.993   1.725
17513W        W78802  22.575  42.502   4.233
17514W        W78803   8.228  17.767   2.679
17515W        W78804  40.951  34.940   4.229
17516W        W78805  29.461   4.346   3.784
17517W        W78806  30.453  17.084  10.924
17518W        W78807   1.407  11.260  13.815
17519W        W78808  39.992  18.256  13.052
17520W        W78809   7.223  14.752  12.993
17521W        W78810   8.239   3.738   4.649
17522W        W78811   6.408  42.964  14.285
17523W        W78812   7.698  32.097  11.374
17524W        W78813  28.596   9.794  14.023
17525W        W78814   5.425  28.953  12.028
17526W        W78815  37.428  28.070   2.216
17527W        W78816  19.274  26.162  14.890
17528W        W78817  37.524  25.490   1.784
17529W        W78818   5.869  26.516  11.396
17530W        W78819  18.108   6.303  14.418
17531W        W78820  44.378  44.337  14.368
17532W        W78821  20.657  19.669   4.770
17533W        W78822  36.045  27.498   4.831
17534W        W78823   7.845  23.021   2.788
17535W        W78824   2.905  12.345   3.332
17536W        W78825  12.275  34.917  14.965
17537W        W78826  12.193  17.576  14.296
17538W        W78827  15.712  31.154  11.017
17539W        W78828  22.200   8.809  13.860
17540W        W78829  34.466   6.703  11.009
17541W        W78830  33.959  43.281   0.347
17542W        W78831  10.266  25.546  11.977
17543W        W78832  33.884  30.588  14.819
17544W        W78833  30.038  20.096  10.419
17545W        W78834  24.149  42.777  11.877
17546W        W78835  35.065  17.089  11.440
17547W        W78836  35.456  34.567  13.411
17548W        W78837  35.076  25.516  11.889
17549W        W78838   0.337  42.775   1.425
17550W        W78839   3.916   2.835   1.873
17551W        W78840  30.488  43.984  13.810
17552W        W78841  44.313  12.660   2.333
17553W        W78842  39.370  16.588  12.551
17554W        W78843  25.038   6.411   1.870
17555W        W78844   7.226  41.857  13.379
17556W        W78845   6.266   7.836   3.294
17557W        W78846  11.774  24.983  10.928
17558W        W78847  23.491  36.408  12.866
17559W        W78848  22.660  30.019  11.450
17560W        W78849  11.177  22.670  11.097
17561W        W78850  13.183  37.417   2.743
17562W        W78851   9.365   4.806   3.726
17563W        W78852  12.763  20.131  12.862
17564W        W78853  12.173  17.726  11.093
17565W        W78854  33.507   5.860  11.996
17566W        W78855  31.524  21.647   0.405
17567W        W78856   0.914   3.417   3.384
17568W        W78857  36.405  27.606   4.692
17569W        W78858  12.166  20.723  11.507
17570W        W78859  25.975   5.793  14.445
17571W        W78860  22.561   3.260   0.358
17572W        W78861   6.827  37.856   4.662
17573W        W78862  21.030  41.484  13.493
17574W        W78863  16.146   9.848   2.232
17575W        W78864  30.122   4.712  14.317
17576W        W78865  19.211  44.403  11.568
17577W        W78866  31.583  22.168  10.622
17578W        W78867  41.312  24.051   2.828
17579W        W78868   0.949  15.744   0.404
17580W        W78869  34.023  40.044   3.291
17581W        W78870  39.956   5.234  11.945
17582W        W78871  21.133   6.396  14.346
17583W        W78872   6.213  44.350  12.426
17584W        W78873  11.625  24.201   3.649
17585W        W78874  39.950  19.656  12.481
17586W        W78875  39.854   7.352   3.802
17587W        W78876  43.850  34.031   1.336
17588W        W78877  37.550   9.346   5.091
17589W        W78878  31.597  33.886  13.973
17590W        W78879   0.468  31.467  10.507
17591W        W78880   4.327  22.724   9.515
17592W        W78881  19.168  21.176   3.336
17593W        W78882  33.625   6.909  14.822
17594W        W78883  30.574   1.749  12.507
17595W        W78884  10.234  19.157  13.926
17596W        W78885   0.858  20.732  12.921
17597W        W78886  24.213  20.138   3.159
17598W        W78887  31.938  23.570  13.851
17599W        W78888  29.635  41.871   3.703
17600W        W78889  18.711  12.841  14.810
17601W        W78890  17.686  26.050  11.856
17602W        W78891  15.674  43.360   4.629
17603W        W78892   2.385  12.857   4.808
17604W        W78893   1.278   4.446   2.802
17605W        W78894   8.797   4.237  13.827
17606W        W78895  32.038  39.428   1.738
17607W        W78896  40.053  22.567  13.994
17608W        W78897  36.348  10.670  11.395
17609W        W78898   6.856   0.350  14.940
17610W        W78899  36.545  21.175   4.646
17611W        W78900  24.068  41.440   4.128
17612W        W78901   9.870  28.954   3.793
17613W        W78902  16.632  38.344  13.866
17614W        W78903  39.314  44.811   2.664
17615W        W78904   6.309  35.505   4.203
17616W        W78905   9.694  35.853  12.966
17617W        W78906  34.974  34.867  12.452
17618W        W78907  18.601  19.184  14.771
17619W        W78908  44.912  34.004   4.824
17620W        W78909  41.955  40.532  11.444
17621W        W78910  14.736  17.159  13.510
17622W        W78911  12.260  35.571   4.641
17623W        W78912   6.359  22.246  10.636
17624W        W78913  21.627  25.530  13.997
17625W        W78914  22.097  27.456  12.343
17626W        W78915  19.612  13.791  13.394
17627W        W78916  41.878  24.021   2.250
17628W        W78917  10.734  20.244  14.811
17629W        W78918  19.613   7.315  13.914
17630W        W78919  44.422  38.851  12.551
17631W        W78920   4.846   7.882   0.773
17632W        W78921  32.029  35.563   3.353
17633W        W78922  10.736  44.499   0.323
17634W        W78923  37.575   1.780   4.193
17635W        W78924  27.159   6.867  14.929
17636W        W78925  18.295  42.322   4.707
17637W        W78926   4.937   2.937  11.872
17638W        W78927  34.014  29.071   3.765
17639W        W78928  26.035  44.455   1.771
17640W        W78929   8.768  22.247  14.298
17641W        W78930  31.551  36.530   4.155
17642W        W78931   7.708  36.964   3.799
17643W        W78932   4.208   1.845   1.823
17644W        W78933  20.557  35.561  11.602
17645W        W78934  23.179  39.324   0.338
17646W        W78935  19.575  21.734   4.725
17647W        W78936  26.675  16.185  12.089
17648W        W78937   7.290  11.717   0.356
17649W        W78938   0.842  21.752   3.233
17650W        W78939  32.920  44.411   1.369
17651W        W78940  42.304   7.309   1.750
17652W        W78941  21.082   2.252  12.880
17653W        W78942   0.849  16.617  14.970
17654W        W78943  35.474   1.364   2.827
17655W        W78944   8.383  30.936  14.337
17656W        W78945   2.319  19.061   1.341
17657W        W78946  21.702   7.265   3.211
17658W        W78947  31.083  16.237   4.250
17659W        W78948  41.312   1.357  13.008
17660W        W78949   5.709   1.763   0.483
17661W        W78950  44.359  19.585   2.886
17662W        W78951  39.019   7.700  12.525
17663W        W78952  16.297  35.956   0.427
17664W        W78953  17.270  43.319  10.984
17665W        W78954   0.858  25.656   0.822
17666W        W78955  41.879  18.185  11.374
17667W        W78956  10.796  37.552   0.889
17668W        W78957  43.423   5.279   3.711
17669W        W78958   1.853  41.998   1.214
17670W        W78959  40.321  36.488  14.971
17671W        W78960  39.869  19.582  14.970
17672W        W78961  38.830  40.007   4.792
17673W        W78962  41.967   6.758  13.035
17674W        W78963  34.559  10.351  14.760
17675W        W78964  27.037  10.181  11.525
17676W        W78965  11.853  42.010   1.783
17677W        W78966  32.028  42.952  12.566
17678W        W78967  33.978  44.394   4.283
17679W        W78968  32.625  27.152   3.375
17680W        W78969  43.780  10.840  13.816
17681W        W78970  27.010  32.115  10.154
17682W        W78971   9.284  38.373   2.196
17683W        W78972   3.920  33.103  11.106
17684W        W78973   5.419  33.535  11.532
17685W        W78974   6.679  17.162  13.872
17686W        W78975  11.720  41.982  13.396
17687W        W78976  13.174  23.079   4.207
17688W        W78977   6.192  17.122  11.544
17689W        W78978  22.245  33.490  12.356
17690W        W78979   4.367  15.611  12.073
17691W        W78980   1.914  15.794   0.265
17692W        W78981  43.367  42.388   2.770
17693W        W78982  31.026   2.317   0.894
17694W        W78983   4.723  30.441   3.698
17695W        W78984   9.328  29.652   4.138
17696W        W78985   1.736  43.328  14.503
17697W        W78986  34.579  35.360  14.452
17698W        W78987  27.969   4.722  12.484
17699W        W78988  34.878  41.416   2.367
17700W        W78989   8.770  19.083  12.489
17701W        W78990   6.721  34.068  13.997
17702W        W78991   6.880  35.026   2.210
17703W        W78992  29.506  43.491  12.393
17704W        W78993  35.431  18.788  13.441
17705W        W78994  40.878  31.150  10.427
17706W        W78995   7.225  40.521   1.768
17707W        W78996  31.017  22.086   0.908
17708W        W78997  36.403  42.004  14.882
17709W        W78998   2.964  17.614  14.997
17710W        W78999  24.160  40.856   0.292
17711W        W79000  30.518  11.263   0.772
17712W        W79001   0.436  12.809   2.327
17713W        W79002  22.733  35.036  12.988
17714W        W79003  41.532  43.441  12.081
17715W        W79004  19.681  21.158   0.860
17716W        W79005  24.574   5.753   1.918
17717W        W79006  28.618  11.227  12.019
17718W        W79007  21.605  18.580  13.846
17719W        W79008  34.587  38.861  12.094
17720W        W79009  32.906  30.567  10.575
17721W        W79010  21.215  42.831  12.072
17722W        W79011  31.918  38.982   2.886
17723W        W79012   0.925  18.562  11.082
17724W        W79013  18.079   9.234  14.319
17725W        W79014  43.312  22.236  11.486
17726W        W79015   9.331  29.611  12.432
17727W        W79016  11.154   3.845   2.295
17728W        W79017  25.186  14.738  11.464
17729W        W79018   7.690  40.318   2.822
17730W        W79019   5.368  16.585   2.266
17731W        W79020  16.690  16.602   3.194
17732W        W79021  23.177  43.482  10.591
17733W        W79022  41.469  37.452   4.329
17734W        W79023  11.671   4.387  14.402
17735W        W79024  20.608  29.054  11.594
17736W        W79025  43.391  27.095  11.994
17737W        W79026  33.876  16.232   0.774
17738W        W79027  37.935  38.523   4.794
17739W        W79028  31.534   9.805  11.429
17740W        W79029  35.028  15.179   1.377
17741W        W79030  22.592  20.087   3.631
17742W        W79031  20.205  31.618  12.507
17743W        W79032  20.199  14.316  12.058
17744W        W79033  36.954  28.481  14.862
17745W        W79034  14.147  38.953  14.461
17746W        W79035   8.245   9.807   4.134
17747W        W79036   8.297  37.896  12.929
17748W        W79037   3.220  24.114   0.366
17749W        W79038  11.358  36.353  10.500
17750W        W79039  32.551   5.203  11.039
17751W        W79040   9.799  21.033   1.403
17752W        W79041  34.464  33.587   0.341
17753W        W79042  26.654   7.893  12.844
17754W        W79043   8.365  14.801   1.258
17755W        W79044  27.030   4.391  12.993
17756W        W79045  26.096  22.028   1.783
17757W        W79046  27.108  33.475  10.486
17758W        W79047  19.065   8.684   3.713
17759W        W79048   6.774  34.411   4.145
17760W        W79049  28.466  12.348   3.197
17761W        W79050  39.860  38.074   4.652
17762W        W79051  28.086  32.509  12.903
17763W        W79052   1.847   1.381   2.328
17764W        W79053   4.352  24.220  12.007
17765W        W79054   5.738  19.733  13.808
17766W        W79055  37.582  10.312   1.761
17767W        W79056   4.890   5.774  14.813
17768W        W79057  17.095  42.014  10.586
17769W        W79058  23.636  38.930   3.787
17770W        W79059  26.572   8.698  12.829
17771W        W79060  22.117  25.553  10.624
17772W        W79061   0.322   5.852   0.916
17773W        W79062  40.956  38.836  10.567
17774W        W79063   0.487  12.239  11.902
17775W        W79064   0.920  20.088   1.751
17776W        W79065  33.551  13.790  13.421
17777W        W79066  20.216   4.801   1.909
17778W        W79067  26.652  10.379  12.061
17779W        W79068  19.599  22.154   1.394
17780W        W79069  10.381   8.378   4.345
17781W        W79070   3.815  21.045  11.963
17782W        W79071  26.604  44.500  11.899
17783W        W79072  18.677  34.096  12.874
17784W        W79073  12.807  17.162  11.926
17785W        W79074   6.784  20.633  10.562
17786W        W79075  32.636  22.219   0.896
17787W        W79076  33.382   8.849   0.764
17788W        W79077   2.450  13.756  13.414
17789W        W79078  44.815   4.905  13.468
17790W        W79079  21.671   6.315  10.979
17791W        W79080  16.791   3.310  11.954
17792W        W79081  10.780  36.452  12.539
17793W        W79082  30.913  28.990  10.639
17794W        W79083   9.317  18.154  10.466
17795W        W79084   8.688  40.840   3.651
17796W        W79085  26.992  12.808  14.464
17797W        W79086  40.847   0.352  13.805
17798W        W79087  10.370  19.744   4.765
17799W        W79088  32.038   1.942   0.400
17800W        W79089  44.755  37.520  14.327
17801W        W79090  25.137   2.886  13.849
17802W        W79091  27.669  19.651  11.910
17803W        W79092  26.497  15.311   3.783
17804W        W79093  19.249  11.189   3.381
17805W        W79094  41.807   1.788   1.284
17806W        W79095  35.911  43.427   3.818
17807W        W79096  37.580   7.747   4.770
17808W        W79097   4.747  21.090  13.417
17809W        W79098  17.702  21.119  10.098
17810W        W79099  29.505  15.197   3.704
17811W        W79100  22.590  37.527   2.213
17812W        W79101  21.625  42.525   1.450
17813W        W79102  27.584  32.573  12.840
17814W        W79103  26.002   3.840   0.288
17815W        W79104  13.237  10.245   3.259
17816W        W79105   9.277  14.208   3.336
17817W        W79106   1.277  28.041   0.905
17818W        W79107  19.276  43.294   3.260
17819W        W79108   7.834  15.645  12.005
17820W        W79109  21.160   5.741  12.020
17821W        W79110  31.468  41.814  12.887
17822W        W79111   1.252   1.350   0.410
17823W        W79112  16.794  14.130  12.399
17824W        W79113   2.357  39.420  12.880
17825W        W79114  21.546  11.304  13.409
17826W        W79115  43.280   5.355   1.719
17827W        W79116  26.530  18.127   2.860
17828W        W79117  40.494   6.320   3.736
17829W        W79118  15.805  29.048   0.422
17830W        W79119   1.822  18.089  13.516
17831W        W79120  40.980  35.383  14.447
17832W        W79121  12.723  11.341  10.444
17833W        W79122  24.481   8.179  10.101
17834W        W79123  22.224  30.148   2.759
17835W        W79124  25.211  23.507   5.741
17836W        W79125  40.502   9.308  13.509
17837W        W79126  42.363  18.198  11.500
17838W        W79127  16.090  23.562   0.743
17839W        W79128  36.554  27.119  14.416
17840W        W79129  26.476  37.491   3.207
17841W        W79130  34.468  30.939  12.456
17842W        W79131  40.895  32.998   2.817
17843W        W79132  20.729  24.558   2.766
17844W        W79133  39.343  28.085  14.835
17845W        W79134   0.287  40.800  10.587
17846W        W79135   8.331  44.342   4.131
17847W        W79136   1.436   2.886  12.936
17848W        W79137  35.428  36.980   2.768
17849W        W79138  20.707  36.062   4.659
17850W        W79139  20.117  10.333   3.362
17851W        W79140  19.266   1.256   4.186
17852W        W79141  14.127  41.817  13.987
17853W        W79142  16.220  16.221   1.331
17854W        W79143  11.828   0.934   3.636
17855W        W79144  14.649  14.691   4.285
17856W        W79145  36.009  13.662   0.857
17857W        W79146  42.313  18.291   0.882
17858W        W79147  10.315  11.816  14.934
17859W        W79148  28.966   4.370  11.112
17860W        W79149   7.399  17.256   3.153
17861W        W79150  22.562   2.443   5.268
17862W        W79151  39.946  36.039  14.896
17863W        W79152  33.079  11.318   2.717
17864W        W79153  40.475  15.114  10.529
17865W        W79154  33.946  38.052   4.142
17866W        W79155  16.165  28.598  14.816
17867W        W79156   8.167  32.527  13.896
17868W        W79157  38.492  26.662   3.147
17869W        W79158  35.581  33.521   3.738
17870W        W79159  33.406  39.863   3.386
17871W        W79160  33.443  30.986  11.952
17872W        W79161  21.728  28.468  12.371
17873W        W79162  40.816  12.331   3.853
17874W        W79163  34.915  13.327   4.628
17875W        W79164  39.024  21.077   2.247
17876W        W79165  14.306  25.039   2.316
17877W        W79166   8.364  10.223  12.967
17878W        W79167  34.467  28.588   4.677
17879W        W79168  23.714  33.102   4.326
17880W        W79169  24.678  36.360  14.898
17881W        W79170  38.488  25.703  13.373
17882W        W79171  13.305  20.535   4.603
17883W        W79172  22.702   3.882   4.681
17884W        W79173  44.955  11.749   1.919
17885W        W79174  27.449  15.733   4.741
17886W        W79175   0.868  20.595   4.239
17887W        W79176   9.793  30.545  14.859
17888W        W79177  16.171  44.829   3.655
17889W        W79178  31.540  22.028  12.968
17890W        W79179  38.822  37.561   2.737
17891W        W79180   0.784  26.984  13.436
17892W        W79181  38.491  30.427  12.883
17893W        W79182  29.015  25.677  14.023
17894W        W79183   2.820  15.711  11.607
17895W        W79184  17.566  10.754   3.148
17896W        W79185  22.136  16.222  10.634
17897W        W79186  18.689  15.243  11.925
17898W        W79187  30.080  13.720   3.221
17899W        W79188   9.663  31.451  11.485
17900W        W79189  40.535  32.439  10.942
17901W        W79190  34.531  13.128   1.231
17902W        W79191   3.773  35.449   3.685
17903W        W79192  25.668  18.602   0.811
17904W        W79193   2.316  26.070   3.714
17905W        W79194  26.675  23.569   0.400
17906W        W79195  44.501   4.874   2.306
17907W        W79196  26.700   6.891  14.388
17908W        W79197  27.087   8.260   0.812
17909W        W79198  29.931  32.523   4.214
17910W        W79199  22.009  10.160   1.373
17911W        W79200  18.588  17.191   4.305
17912W        W79201   1.911  22.714   1.899
17913W        W79202  18.722  23.591  11.478
17914W        W79203   8.166  42.411  12.871
17915W        W79204  31.557  42.924   4.640
17916W        W79205  30.981  32.907  14.920
17917W        W79206   8.675  31.634   0.876
17918W        W79207  14.591  42.344   0.855
17919W        W79208  15.713  40.399  12.533
17920W        W79209  30.990   3.792   1.339
17921W        W79210  32.467  30.147  12.899
17922W        W79211  28.968  39.313  14.316
17923W        W79212  43.879  12.155   4.754
17924W        W79213  30.952   9.286  12.068
17925W        W79214  12.207  26.175  14.020
17926W        W79215  37.082   5.241   4.676
17927W        W79216   2.423  27.495   1.411
17928W        W79217  36.380   7.256  10.015
17929W        W79218  43.869  24.589  11.474
17930W        W79219   1.442  39.033   4.210
17931W        W79220  34.049  35.604   1.448
17932W        W79221  28.036   2.336   3.747
17933W        W79222   4.277   3.923   3.312
17934W        W79223  31.614  39.401  11.589
17935W        W79224  13.610  24.156  10.459
17936W        W79225   9.387  23.577   4.676
17937W        W79226  40.876  19.548  12.459
17938W        W79227  33.494   4.364   5.157
17939W        W79228  19.046  34.012  13.309
17940W        W79229  33.114  38.364  10.572
17941W        W79230  12.318  35.369  12.930
17942W        W79231  19.209  44.753   2.328
17943W        W79232  16.206  40.893  11.910
17944W        W79233  18.149   1.884  11.949
17945W        W79234  35.874  36.021   2.780
17946W        W79235  10.873   7.879   1.406
17947W        W79236  35.082  26.624  11.952
17948W        W79237  41.451  12.742  12.984
17949W        W79238  43.403  38.455   2.665
17950W        W79239  40.991  31.937   0.331
17951W        W79240  35.882   9.289  12.857
17952W        W79241  29.092  14.618   0.848
17953W        W79242  41.961   3.720   1.853
17954W        W79243  18.232  42.330   2.814
17955W        W79244  24.081  14.677   4.824
17956W        W79245  19.564   0.282   0.818
17957W        W79246  34.412  41.330  12.060
17958W        W79247  29.121  30.037  13.353
17959W        W79248  32.968  24.038  13.475
17960W        W79249  22.532  13.809   3.853
17961W        W79250  44.767  17.112   4.824
17962W        W79251  21.583   7.691  13.991
17963W        W79252  13.254  23.060   1.921
17964W        W79253  21.698   0.847  11.535
17965W        W79254  30.933  40.304   1.757
17966W        W79255  24.659  31.561  13.056
17967W        W79256  26.471  12.146   2.336
17968W        W79257   2.289  19.659  14.416
17969W        W79258  40.964  43.339   1.794
17970W        W79259  42.450  22.068   4.779
17971W        W79260  22.239  24.220   2.690
17972W        W79261  18.639   6.244   2.739
17973W        W79262  19.045  18.160  12.986
17974W        W79263  17.144  43.443  10.043
17975W        W79264  38.030  26.598  14.317
17976W        W79265  14.152  12.638  11.513
17977W        W79266  27.554  41.359  11.865
17978W        W79267   8.862  16.674   1.823
17979W        W79268  22.053  40.813  13.980
17980W        W79269  33.114  15.820  12.519
17981W        W79270   4.331  39.517   2.329
17982W        W79271  22.020  25.107   4.201
17983W        W79272  31.083  39.943  10.904
17984W        W79273  15.694  23.200  13.027
17985W        W79274  13.169  14.261   3.159
17986W        W79275  10.176  43.790   0.930
17987W        W79276  20.531  11.654   1.386
17988W        W79277  30.574  43.282   4.193
17989W        W79278  22.611  37.969  14.335
17990W        W79279  34.540  29.975   1.731
17991W        W79280  16.118  34.081   0.266
17992W        W79281  11.281  34.948  12.024
17993W        W79282  33.943   9.850   3.765
17994W        W79283  44.324  34.052  12.370
17995W        W79284  43.309  34.542  12.363
17996W        W79285   5.411  36.921   0.877
17997W        W79286  43.924  38.030  10.494
17998W        W79287  18.296  29.616  10.540
17999W        W79288  16.785  37.890  12.894
18000W        W79289  13.675  27.099   0.775
18001W        W79290  32.407   5.310   5.204
18002W        W79291  20.243  20.083   2.801
18003W        W79292  20.247   8.287  11.962
18004W        W79293  25.705   0.792   1.763
18005W        W79294  42.000   2.471   0.351
18006W        W79295  41.974  43.395   3.846
18007W        W79296  27.550   2.380   3.845
18008W        W79297  12.273  13.168   2.402
18009W        W79298  37.872  12.335  13.453
18010W        W79299   7.208  24.188  12.992
18011W        W79300  12.785   9.646  12.525
18012W        W79301  10.274  20.627  13.841
18013W        W79302   2.430  20.248  10.894
18014W        W79303  29.992   2.868   1.264
18015W        W79304  17.075  25.640  11.111
18016W        W79305   0.893  28.065   0.812
18017W        W79306  10.334  15.669   0.919
18018W        W79307  22.580  42.477  10.104
18019W        W79308  20.110   6.261  14.368
18020W        W79309  30.440  22.624  11.568
18021W        W79310  24.032  15.691   1.320
18022W        W79311   4.395  36.473   4.124
18023W        W79312  24.694  12.775  12.059
18024W        W79313  27.664  26.141   3.744
18025W        W79314  13.260  21.040   2.782
18026W        W79315  21.056  41.389  10.466
18027W        W79316  20.526   5.332  11.540
18028W        W79317  13.612  21.071  14.869
18029W        W79318  29.051  36.920   3.791
18030W        W79319  26.049  42.474  13.854
18031W        W79320  38.040  22.140   0.866
18032W        W79321  13.271  23.131   1.280
18033W        W79322  40.532  37.060  11.959
18034W        W79323  23.720   3.363   3.163
18035W        W79324  36.452  29.426  11.056
18036W        W79325  36.352  28.542   2.214
18037W        W79326  41.854  27.047  11.452
18038W        W79327  16.744  36.535   1.238
18039W        W79328  34.869  31.912  11.533
18040W        W79329   7.879  41.327   5.215
18041W        W79330  29.463  26.975  12.884
18042W        W79331  21.694  35.418   0.797
18043W        W79332   8.206  25.483  11.054
18044W        W79333  35.517  34.945  11.408
18045W        W79334  44.780  20.247  11.006
18046W        W79335  10.733  34.381  13.885
18047W        W79336  37.028  28.153   0.894
18048W        W79337   2.313  17.622   2.407
18049W        W79338  22.189  27.096  10.557
18050W        W79339  28.577  15.754  12.051
18051W        W79340  12.841  21.552   0.433
18052W        W79341  23.495   2.964  10.548
18053W        W79342  27.099  26.613   4.261
18054W        W79343  15.256  15.740   0.782
18055W        W79344   3.732  43.479  12.568
18056W        W79345  20.233  18.217  10.105
18057W        W79346   9.858   3.769   1.893
18058W        W79347  10.352  32.430  10.913
18059W        W79348  32.103  15.588   0.936
18060W        W79349  20.530  14.716  13.825
18061W        W79350  13.623   9.794   4.197
18062W        W79351  37.526  27.499   1.811
18063W        W79352   2.743   0.895  13.968
18064W        W79353  42.931  10.166  13.977
18065W        W79354  37.355  12.320   0.772
18066W        W79355  13.711  20.066   1.367
18067W        W79356  19.760  31.075   3.216
18068W        W79357   6.287  42.517  14.317
18069W        W79358  37.961   8.227  10.470
18070W        W79359  19.754   5.756  11.973
18071W        W79360  30.494  14.213  13.865
18072W        W79361  10.693  40.500  10.460
18073W        W79362   3.419  25.180   4.628
18074W        W79363  32.105  18.783   2.301
18075W        W79364  25.081   1.421   0.275
18076W        W79365  11.715  14.226   4.689
18077W        W79366  21.636   0.962   2.271
18078W        W79367  22.509  10.139   4.236
18079W        W79368  40.855   1.438  11.946
18080W        W79369  33.433  25.127  13.802
18081W        W79370  27.953   0.485   3.711
18082W        W79371   1.901   2.424  13.315
18083W        W79372  39.003   0.264  10.970
18084W        W79373  31.528  44.975   0.455
18085W        W79374   0.349  42.885  11.381
18086W        W79375   9.664  41.358  11.587
18087W        W79376  31.641   8.720   2.269
18088W        W79377  18.271   3.219  13.440
18089W        W79378  11.711  16.124   0.462
18090W        W79379  15.709   0.265  12.473
18091W        W79380   0.901   0.770   0.285
18092W        W79381  39.550  18.202  13.886
18093W        W79382  44.410  28.144  11.915
18094W        W79383   8.263   9.662  12.538
18095W        W79384  26.184  21.093   1.716
18096W        W79385  44.342   4.814  13.319
18097W        W79386  27.177  30.145   1.766
18098W        W79387   5.875  13.744   1.752
18099W        W79388  36.526   6.319   5.302
18100W        W79389  28.515   4.831  11.883
18101W        W79390  32.020   8.303   2.378
18102W        W79391  16.318  24.990  12.404
18103W        W79392   0.433  20.541  11.020
18104W        W79393  31.032  31.534   2.247
18105W        W79394  42.367  18.776  10.539
18106W        W79395  29.436  41.497   1.864
18107W        W79396  24.219  28.028   0.870
18108W        W79397  31.107   9.204  14.390
18109W        W79398  14.633  23.223   0.266
18110W        W79399   4.787  23.699   9.584
18111W        W79400  25.559  29.579   3.726
18112W        W79401  19.673  27.509   4.232
18113W        W79402  32.107  17.572   3.267
18114W        W79403  36.008  20.179  10.417
18115W        W79404  35.952  12.741  11.113
18116W        W79405  36.447   1.354   4.691
18117W        W79406  19.573  42.778  11.861
18118W        W79407  14.331  10.694   0.352
18119W        W79408  40.426   9.308   1.251
18120W        W79409  30.467  16.647  13.931
18121W        W79410  12.805  22.233  11.005
18122W        W79411  24.107  12.719  14.895
18123W        W79412  23.132  23.491   2.285
18124W        W79413   3.896  13.657  12.962
18125W        W79414  29.575   2.831  11.933
18126W        W79415  14.726  15.725   2.736
18127W        W79416  41.416  17.220  13.435
18128W        W79417  39.011  26.976   3.338
18129W        W79418  38.543  25.980  11.574
18130W        W79419  38.065  33.389  14.383
18131W        W79420  17.196  12.655   5.260
18132W        W79421  43.365  29.574  13.436
18133W        W79422  19.695   2.414  13.310
18134W        W79423  30.953  17.659  13.876
18135W        W79424  30.467  33.487  12.048
18136W        W79425   0.275  35.502  13.792
18137W        W79426  28.150   9.191   0.738
18138W        W79427  24.618   0.883   3.664
18139W        W79428  30.956  32.575   1.270
18140W        W79429  23.535   9.268   4.635
18141W        W79430  33.076  20.045  13.911
18142W        W79431  43.475  14.751   0.273
18143W        W79432  37.536  37.378  10.615
18144W        W79433  12.716  10.142  11.531
18145W        W79434  43.782  43.933   0.350
18146W        W79435  41.335  19.194  12.934
18147W        W79436   7.182  25.514   1.378
18148W        W79437  42.011  39.946   1.258
18149W        W79438   1.320  24.695  12.857
18150W        W79439  15.705   4.274   0.371
18151W        W79440   6.743  19.056  10.891
18152W        W79441  17.664  21.745  12.962
18153W        W79442   9.179  16.590  11.997
18154W        W79443  33.546  12.703   2.202
18155W        W79444   2.245  31.487   2.325
18156W        W79445   1.800  13.343  13.880
18157W        W79446   1.840  39.960   4.154
18158W        W79447  10.377  19.092   1.433
18159W        W79448  41.804  16.805  11.380
18160W        W79449  14.194  15.582   3.305
18161W        W79450  40.338  28.512   3.344
18162W        W79451  29.965   8.665  13.924
18163W        W79452  41.971  32.005   3.710
18164W        W79453  38.995  17.219   3.846
18165W        W79454  30.577  44.309   2.408
18166W        W79455  38.044  15.250  14.411
18167W        W79456  38.484  37.910  14.396
18168W        W79457  34.989  44.392   1.879
18169W        W79458   2.917  14.776   2.361
18170W        W79459  30.573  12.740   1.907
18171W        W79460  13.167  13.231   5.242
18172W        W79461  37.057   9.845  11.871
18173W        W79462  36.528  41.986   2.323
18174W        W79463  27.174   9.155   0.734
18175W        W79464  17.115   1.302  12.471
18176W        W79465  31.989  41.459   2.801
18177W        W79466   4.445  32.600  14.964
18178W        W79467   5.857  39.531   2.786
18179W        W79468  40.357  24.562   1.855
18180W        W79469  32.633  29.168  13.033
18181W        W79470  11.215  18.255   1.883
18182W        W79471  15.163  39.009  14.851
18183W        W79472   3.432  32.018   1.340
18184W        W79473  23.639  10.693   1.743
18185W        W79474  19.152  43.902   1.305
18186W        W79475  21.753  31.013  10.965
18187W        W79476  30.638  28.954  10.566
18188W        W79477   6.257  14.774   2.198
18189W        W79478  27.512   8.660   0.349
18190W        W79479  43.911  29.123  11.523
18191W        W79480  22.045  17.564  11.958
18192W        W79481  31.096  29.529   1.214
18193W        W79482   6.185  41.970  11.572
18194W        W79483  43.308  20.627  12.410
18195W        W79484   7.239  37.933   3.329
18196W        W79485  38.394  40.431   0.457
18197W        W79486  44.301  18.748   4.290
18198W        W79487  12.619  15.616  10.984
18199W        W79488  10.872  28.485  14.004
18200W        W79489  11.724  22.707   1.260
18201W        W79490   5.790  34.035  14.846
18202W        W79491  13.349  43.876  13.497
18203W        W79492  33.972   0.419  14.877
18204W        W79493   3.943  28.588   3.200
18205W        W79494  40.367   2.908  11.588
18206W        W79495  20.174  29.451  11.561
18207W        W79496  23.027  28.627   3.212
18208W        W79497  37.402  12.622   3.862
18209W        W79498  10.204  22.165  10.603
18210W        W79499  12.270  19.778  11.566
18211W        W79500   0.861  40.817  14.840
18212W        W79501  16.573  39.919   1.728
18213W        W79502   0.750  40.452  14.880
18214W        W79503   6.186  30.539   4.630
18215W        W79504  20.534   6.785  14.307
18216W        W79505  35.466  41.987   4.605
18217W        W79506  21.580  36.521  12.371
18218W        W79507  44.497  44.353  11.992
18219W        W79508  19.185   2.230   2.316
18220W        W79509  14.643   4.291   1.299
18221W        W79510  37.470  38.061  12.385
18222W        W79511  34.092  11.627  13.875
18223W        W79512  41.003  38.349   2.899
18224W        W79513  23.014   8.885   1.933
18225W        W79514  16.073   2.462  12.502
18226W        W79515  10.807   1.874  12.018
18227W        W79516  21.646  36.893   2.838
18228W        W79517  39.367  18.658  13.903
18229W        W79518  29.933  34.450   4.757
18230W        W79519  33.087   6.844   4.191
18231W        W79520  37.869  28.082   2.831
18232W        W79521  41.302  30.558   0.780
18233W        W79522  19.119  41.971  10.925
18234W        W79523  38.506  27.607  13.885
18235W        W79524  17.272  17.648  12.831
18236W        W79525  32.467  42.812   4.268
18237W        W79526  24.089  17.641  11.415
18238W        W79527  11.643  32.012   2.780
18239W        W79528   6.740  17.268  10.888
18240W        W79529  32.013  24.072   0.855
18241W        W79530  40.924  17.664   0.289
18242W        W79531  37.881  22.586  13.516
18243W        W79532   5.333  29.128  14.021
18244W        W79533   0.897  42.412  14.428
18245W        W79534  39.890   8.342   4.696
18246W        W79535  40.468  11.260   2.772
18247W        W79536  21.264  22.718  13.548
18248W        W79537  26.960   2.779  13.409
18249W        W79538  27.024  12.821  13.357
18250W        W79539  17.561  38.884   0.465
18251W        W79540  18.548  11.753   1.751
18252W        W79541  21.132  17.196  13.930
18253W        W79542  44.997  42.974  14.506
18254W        W79543   4.414  22.165  12.965
18255W        W79544  28.016  40.974   2.894
18256W        W79545   8.828  40.313  12.486
18257W        W79546   9.336  38.071   1.918
18258W        W79547  11.775  18.195   2.762
18259W        W79548  36.586  31.595   1.776
18260W        W79549   2.896  27.956   1.809
18261W        W79550  33.491  19.748   2.339
18262W        W79551  18.578   9.809  14.820
18263W        W79552   6.223  29.008  13.907
18264W        W79553  12.813  34.087   2.846
18265W        W79554  20.122  28.676  14.805
18266W        W79555  34.451   6.733  12.948
18267W        W79556   9.304  15.268   4.175
18268W        W79557  22.083   9.693   0.482
18269W        W79558  33.950   9.822   4.154
18270W        W79559  38.020  13.297  11.857
18271W        W79560  31.103  11.186  14.368
18272W        W79561  34.035  33.462   1.356
18273W        W79562  38.367  41.456  13.368
18274W        W79563  20.550  38.356   0.876
18275W        W79564  39.975   7.247   4.132
18276W        W79565  44.820   5.362  12.448
18277W        W79566  21.158  38.530   2.831
18278W        W79567  19.140  18.687   2.836
18279W        W79568  21.109  26.985  12.350
18280W        W79569   9.839  23.990  14.457
18281W        W79570  37.958  24.164  12.941
18282W        W79571  19.275  28.980  10.946
18283W        W79572  29.503  43.915   4.643
18284W        W79573  41.794  12.671  13.443
18285W        W79574  10.262   3.273   3.175
18286W        W79575  39.424  14.115  14.955
18287W        W79576  15.256  22.669   0.377
18288W        W79577  25.559  30.652   3.762
18289W        W79578  43.492  16.269   1.862
18290W        W79579  32.492  23.104  14.349
18291W        W79580  25.152  11.636  14.808
18292W        W79581  24.550  24.036   0.367
18293W        W79582  29.493  26.652   4.763
18294W        W79583  21.066  31.420  14.022
18295W        W79584   3.323   1.465  11.533
18296W        W79585  17.738  29.568   1.720
18297W        W79586  35.969   9.281  10.909
18298W        W79587  10.647  30.945  14.470
18299W        W79588  24.689  42.422   3.715
18300W        W79589  14.319  13.280  14.961
18301W        W79590  32.034   8.215  13.997
18302W        W79591  43.361   8.756   3.748
18303W        W79592  24.484  12.273   0.916
18304W        W79593  38.384  37.946  13.954
18305W        W79594  37.922   0.328  11.608
18306W        W79595  15.116  24.020   0.443
18307W        W79596   2.360  38.848   3.163
18308W        W79597  44.877   8.693  14.796
18309W        W79598   2.927  22.691   1.790
18310W        W79599  36.926  30.979  14.279
18311W        W79600  24.574  16.308   3.719
18312W        W79601  30.440   2.815  11.548
18313W        W79602  12.746   4.219  12.076
18314W        W79603  23.221  34.870  12.563
18315W        W79604  40.030   1.858  14.483
18316W        W79605  40.013  28.061  14.423
18317W        W79606   8.665  25.547  10.446
18318W        W79607   8.805   1.451   3.851
18319W        W79608  43.354  13.692   0.800
18320W        W79609   4.749  15.182  12.905
18321W        W79610  20.727  13.279   4.604
18322W        W79611  42.014  30.508   2.903
18323W        W79612  26.487   6.895  13.888
18324W        W79613  14.613  31.484   0.760
18325W        W79614  30.530  33.965  11.924
18326W        W79615  23.233  11.718   2.694
18327W        W79616  25.709  26.672   1.417
18328W        W79617  33.968  32.886  13.519
18329W        W79618  38.970   4.793   3.317
18330W        W79619  39.868   1.296   2.690
18331W        W79620  13.176  44.832   2.775
18332W        W79621  19.652  44.802   3.659
18333W        W79622  36.023  28.558   1.755
18334W        W79623   1.862   2.847  12.492
18335W        W79624  43.324  14.813   1.859
18336W        W79625  25.593   3.231  14.460
18337W        W79626  34.442  20.760  12.444
18338W        W79627   7.892  19.056   3.342
18339W        W79628  24.505  30.536   1.362
18340W        W79629  41.799  38.039   4.223
18341W        W79630  39.997  27.173  11.469
18342W        W79631  24.046  27.998  13.376
18343W        W79632  44.412  30.573   2.680
18344W        W79633   9.653  42.442  12.896
18345W        W79634  29.641  27.458   4.832
18346W        W79635  39.990   5.287  12.429
18347W        W79636  19.617  39.539  14.875
18348W        W79637  23.555  19.221   2.759
18349W        W79638  39.873  40.961  10.623
18350W        W79639  23.648   5.688   1.425
18351W        W79640  28.541  41.947  10.981
18352W        W79641  16.257   3.793  12.839
18353W        W79642   2.763  14.634  10.588
18354W        W79643  12.673  24.586  12.425
18355W        W79644  24.075  24.014  11.605
18356W        W79645  12.742   9.327  14.495
18357W        W79646  27.480  11.696   5.180
18358W        W79647   5.821  44.883   2.247
18359W        W79648   3.720  22.573   2.855
18360W        W79649  22.094  30.593  14.317
18361W        W79650  37.478  22.053   0.957
18362W        W79651  35.403   5.409   1.360
18363W        W79652  14.656  33.566  13.865
18364W        W79653  21.616  18.093  10.608
18365W        W79654  14.764  34.397   3.216
18366W        W79655   2.877   4.905  14.958
18367W        W79656   7.312  38.569   3.302
18368W        W79657  43.010  33.063  13.307
18369W        W79658   2.961  20.176  13.831
18370W        W79659   7.703  22.543  11.383
18371W        W79660   9.383  38.041   3.687
18372W        W79661  17.143  35.516   3.653
18373W        W79662   0.972   8.834  11.422
18374W        W79663  18.735  31.458  11.007
18375W        W79664  17.747  31.483  13.402
18376W        W79665  32.590  27.045   3.794
18377W        W79666   0.799  33.530  12.005
18378W        W79667   9.647  28.989   1.801
18379W        W79668  29.938  15.682   4.770
18380W        W79669  42.781  37.532  11.089
18381W        W79670  20.037  27.076   4.723
18382W        W79671  20.706  43.836   1.342
18383W        W79672  12.146  25.161   4.195
18384W        W79673   3.806  25.203   4.205
18385W        W79674  13.776  31.569  11.540
18386W        W79675  23.035  28.110  12.394
18387W        W79676   9.287  17.292   9.943
18388W        W79677  33.904   3.266   3.809
18389W        W79678  14.332  41.305   0.319
18390W        W79679  13.619  10.351  10.626
18391W        W79680   8.815  33.587  11.957
18392W        W79681  43.373  19.642  14.361
18393W        W79682  20.632  38.919   2.258
18394W        W79683  35.897  19.185  10.890
18395W        W79684   2.359  43.837   4.707
18396W        W79685  18.788  15.084   2.184
18397W        W79686   2.925   6.354   1.712
18398W        W79687  18.764  16.641   1.261
18399W        W79688  40.920  42.014   1.877
18400W        W79689  11.208   6.689  11.545
18401W        W79690  30.481  23.152   2.338
18402W        W79691  18.193  22.164   2.683
18403W        W79692  19.754   2.864  12.371
18404W        W79693  10.367  28.533   0.866
18405W        W79694  31.107  16.760   3.861
18406W        W79695   7.692  44.952  10.962
18407W        W79696  21.668  21.191   2.777
18408W        W79697   3.844  37.900  13.362
18409W        W79698  34.523  41.362   0.402
18410W        W79699  43.794  26.998   1.403
18411W        W79700  42.930  39.028  14.950
18412W        W79701   0.821  27.126   1.800
18413W        W79702  32.401  28.037  10.525
18414W        W79703   9.852  39.357   2.254
18415W        W79704  20.158  30.607  14.334
18416W        W79705  33.023  36.488   1.893
18417W        W79706   4.319  34.552  10.596
18418W        W79707  35.446  28.096   4.727
18419W        W79708  30.028  27.467   0.727
18420W        W79709  33.624  20.184   1.318
18421W        W79710  22.225  21.587  12.887
18422W        W79711  15.618  26.466  14.015
18423W        W79712  44.423  41.301  13.409
18424W        W79713  32.100  18.072  12.517
18425W        W79714  36.492  30.102   4.172
18426W        W79715  25.619  32.905  14.296
18427W        W79716  13.144  42.462  11.933
18428W        W79717  25.566  39.859  12.574
18429W        W79718   9.242  25.646  14.930
18430W        W79719   4.358  40.997   4.631
18431W        W79720   2.264  12.740  11.477
18432W        W79721  44.463  21.706  11.522
18433W        W79722   2.271   1.379   3.862
18434W        W79723  13.639   2.426   1.892
18435W        W79724  37.537   4.441  10.623
18436W        W79725  15.088  42.790  11.105
18437W        W79726   8.804  36.948  10.439
18438W        W79727  19.282  20.680  10.620
18439W        W79728  31.484   4.816  12.379
18440W        W79729  18.677  28.598   1.388
18441W        W79730  19.075  38.447   1.415
18442W        W79731   1.321  11.859   1.911
18443W        W79732  33.122  32.072   1.390
18444W        W79733  18.724  19.763  10.078
18445W        W79734   8.855  27.150   4.143
18446W        W79735  29.133  44.927  11.112
18447W        W79736  17.183  33.559   1.892
18448W        W79737   9.826  28.650   1.900
18449W        W79738   9.771  37.959   3.287
18450W        W79739  16.645  25.531  12.494
18451W        W79740  35.411  31.584  12.998
18452W        W79741  39.468  15.191   0.280
18453W        W79742  39.451  40.392   0.444
18454W        W79743   6.313  20.169  11.609
18455W        W79744  40.350   2.856   1.334
18456W        W79745  34.556  12.351   0.404
18457W        W79746  20.561  16.691  11.081
18458W        W79747  27.163   3.915  13.987
18459W        W79748  14.314  40.945  12.412
18460W        W79749   8.815  22.161  14.771
18461W        W79750   0.965  18.136   2.418
18462W        W79751   4.407  18.779   3.767
18463W        W79752   2.405  23.536  13.483
18464W        W79753  18.085  44.420  14.941
18465W        W79754  29.076   5.799   2.696
18466W        W79755   3.451  32.587  11.945
18467W        W79756  29.987  35.600   3.685
18468W        W79757  34.056  10.150   4.778
18469W        W79758   5.857   7.716  14.797
18470W        W79759  11.651  22.063  12.353
18471W        W79760  35.918  13.136  11.423
18472W        W79761   7.788  38.536   4.740
18473W        W79762  18.210   8.683  13.034
18474W        W79763  28.050  16.622  12.497
18475W        W79764   7.751  39.419  13.868
18476W        W79765  26.089  28.628   2.800
18477W        W79766  35.532  11.282  13.886
18478W        W79767  29.482  25.687   2.392
18479W        W79768  43.904  18.696   4.689
18480W        W79769  35.483  11.731  12.447
18481W        W79770  11.258  37.558   0.882
18482W        W79771  32.910  33.051   2.188
18483W        W79772  36.914  14.129   2.777
18484W        W79773  18.114   8.735   1.443
18485W        W79774  13.140  28.520  12.538
18486W        W79775  17.666   3.876  10.641
18487W        W79776  25.714  31.463   0.249
18488W        W79777  26.630  20.604   0.420
18489W        W79778   9.217  24.597   4.773
18490W        W79779  24.495  36.483  13.425
18491W        W79780  21.078  11.153  13.894
18492W        W79781  36.025  16.180  14.346
18493W        W79782   9.213  23.594   2.309
18494W        W79783  38.564  17.150  14.918
18495W        W79784  18.158  22.657   1.804
18496W        W79785  33.442  27.637   2.392
18497W        W79786  39.338  20.142   5.213
18498W        W79787  22.652  30.064  10.416
18499W        W79788  22.093  17.211  13.813
18500W        W79789  30.467  34.569   4.769
18501W        W79790  33.453   5.734   2.770
18502W        W79791  10.789  11.769  10.002
18503W        W79792  23.668  21.635   4.240
18504W        W79793  14.253  19.731  10.592
18505W        W79794  27.159  18.197   3.362
18506W        W79795  31.072  10.805   1.443
18507W        W79796  13.822  12.153  10.966
18508W        W79797  26.700  37.569   0.846
18509W        W79798  22.709  15.217   2.861
18510W        W79799   4.223  33.567   3.664
18511W        W79800  39.314  41.324  12.974
18512W        W79801  44.356  26.609  11.089
18513W        W79802   0.285   4.929  13.530
18514W        W79803  23.604  20.735   4.683
18515W        W79804  25.072  34.998  14.839
18516W        W79805  30.997  30.462  10.522
18517W        W79806   5.329  41.849  14.791
18518W        W79807   0.863   4.344  11.951
18519W        W79808   9.225  36.999  14.334
18520W        W79809  31.487  19.248  13.317
18521W        W79810  33.552  34.376   5.201
18522W        W79811   4.845   5.341   2.417
18523W        W79812   0.303   1.457  13.834
18524W        W79813  36.397  44.458   2.800
18525W        W79814  30.428   4.322  11.916
18526W        W79815  17.290  21.168   3.725
18527W        W79816  44.347  26.186  11.553
18528W        W79817   7.390  35.412   4.343
18529W        W79818   7.207  44.442   3.791
18530W        W79819  32.450   1.969   0.850
18531W        W79820   3.765  15.630  13.471
18532W        W79821  23.680   9.191  14.897
18533W        W79822  14.231  21.573  13.024
18534W        W79823  43.821  41.368   4.240
18535W        W79824  34.079  29.644   0.244
18536W        W79825  36.008  15.771  10.042
18537W        W79826  35.383   2.225   1.274
18538W        W79827  19.733   8.346   4.702
18539W        W79828   5.726  32.116   2.417
18540W        W79829  33.970  25.165   3.661
18541W        W79830  18.083  35.102  14.919
18542W        W79831  40.379  18.287  13.350
18543W        W79832  20.130   8.750  14.422
18544W        W79833   2.453  19.666   3.698
18545W        W79834  40.405  29.427   2.256
18546W        W79835  19.241  26.524  11.510
18547W        W79836   2.835   3.933   2.218
18548W        W79837   5.855   8.665   0.920
18549W        W79838  41.018  32.411   3.245
18550W        W79839  17.601  13.802  12.097
18551W        W79840  19.686   9.836  11.021
18552W        W79841  11.804  36.009  14.332
18553W        W79842  15.803  39.978  13.353
18554W        W79843  32.453  29.128  13.422
18555W        W79844  41.843  19.209   4.768
18556W        W79845  30.444   0.833  13.452
18557W        W79846   6.410  10.763   1.750
18558W        W79847   2.919  30.081   1.895
18559W        W79848  22.567  41.038  10.573
18560W        W79849   9.347  32.021  12.341
18561W        W79850  40.967  15.296   0.726
18562W        W79851   8.681  16.726   4.181
18563W        W79852  20.112  14.145   4.708
18564W        W79853   0.857  27.680  11.901
18565W        W79854  19.595  15.789   0.261
18566W        W79855  25.664  25.544   4.827
18567W        W79856  36.530  14.220   4.814
18568W        W79857  41.957   8.661   2.788
18569W        W79858  16.608   7.207   2.670
18570W        W79859  28.488   7.673  13.939
18571W        W79860   9.847  17.712  13.836
18572W        W79861  28.680  28.589   3.811
18573W        W79862  16.202   6.745  13.509
18574W        W79863  18.246  41.787  11.465
18575W        W79864  22.052  28.957  11.556
18576W        W79865  42.295  38.881  14.843
18577W        W79866  34.511  30.459  10.576
18578W        W79867   9.697  13.679  11.501
18579W        W79868  39.973   4.808   4.742
18580W        W79869   3.363  14.129  13.420
18581W        W79870   1.760  33.004   4.251
18582W        W79871  32.122  32.982   3.327
18583W        W79872  19.598  22.230   0.762
18584W        W79873   4.248  28.556   3.673
18585W        W79874   5.828  17.750   2.266
18586W        W79875  44.305  25.690   4.290
18587W        W79876  19.241  30.098  14.313
18588W        W79877  43.372  29.659  13.837
18589W        W79878  36.543   4.713  10.436
18590W        W79879   7.197  24.722  13.844
18591W        W79880  10.161  11.210   4.319
18592W        W79881  39.374  33.913   4.835
18593W        W79882  43.458  36.522   1.311
18594W        W79883   4.822  32.634   2.273
18595W        W79884  34.462  32.936  13.413
18596W        W79885  19.630  28.008   0.419
18597W        W79886  17.162  21.613  12.871
18598W        W79887  30.151   2.468  10.076
18599W        W79888   8.826  39.032  13.385
18600W        W79889  33.019  27.480  13.343
18601W        W79890   0.817  35.960   2.824
18602W        W79891  24.565  10.301  11.126
18603W        W79892   0.382  14.731  11.014
18604W        W79893  23.505  24.983  13.372
18605W        W79894  30.590  13.617   0.336
18606W        W79895  21.215  15.096   0.391
18607W        W79896  18.070   8.832  14.896
18608W        W79897  39.867   5.715  14.317
18609W        W79898  39.860   3.853   3.245
18610W        W79899  30.581  29.624   0.327
18611W        W79900   6.320  32.533  12.443
18612W        W79901  19.167   8.734  11.957
18613W        W79902  11.215  10.325   4.708
18614W        W79903  44.446  37.402   3.312
18615W        W79904  11.784   8.322   1.768
18616W        W79905  26.206  26.962  10.551
18617W        W79906  19.201  23.645   4.600
18618W        W79907  23.113  17.748   3.712
18619W        W79908  30.022  43.305  11.082
18620W        W79909  40.372   5.720   1.764
18621W        W79910  29.478  27.982   2.324
18622W        W79911   2.849  41.301   1.275
18623W        W79912  31.511  30.964  11.444
18624W        W79913  27.613  19.141   4.620
18625W        W79914  24.487  34.911  11.008
18626W        W79915   4.845  43.846  12.987
18627W        W79916  12.297  17.638   2.891
18628W        W79917  26.088  18.278   1.722
18629W        W79918   5.924   8.327   1.268
18630W        W79919   8.776  27.116   4.686
18631W        W79920  26.126  40.513   4.621
18632W        W79921  26.137  23.131   1.441
18633W        W79922  31.093  20.039   2.209
18634W        W79923  29.652   5.239   0.784
18635W        W79924   2.396  41.895  11.981
18636W        W79925  44.795   8.349   1.417
18637W        W79926   4.713   7.862   1.911
18638W        W79927   4.765   5.752   2.766
18639W        W79928  43.918  31.091   4.265
18640W        W79929  16.249  18.247   0.787
18641W        W79930  10.818  14.212   2.386
18642W        W79931  43.988  18.226   2.355
18643W        W79932  24.554  18.099   4.753
18644W        W79933  29.933  22.675  14.802
18645W        W79934  12.247  15.602  13.473
18646W        W79935  44.941  43.300  12.367
18647W        W79936  29.649  29.068  11.878
18648W        W79937   7.288  22.570  14.400
18649W        W79938  25.507  37.048  12.991
18650W        W79939  16.103  39.393   4.735
18651W        W79940  33.042  17.120   2.726
18652W        W79941  40.002  35.399  14.465
18653W        W79942  28.520   1.873   0.889
18654W        W79943  37.933  38.997  12.997
18655W        W79944  20.104  12.703  10.419
18656W        W79945  29.607  23.034   4.184
18657W        W79946  13.281  37.548  12.966
18658W        W79947   0.408  41.399   1.795
18659W        W79948   7.864  31.453   4.344
18660W        W79949  10.196  28.028  11.909
18661W        W79950   0.859  16.812  13.888
18662W        W79951  16.158   4.813   2.854
18663W        W79952  12.171  32.549   4.671
18664W        W79953  32.498   8.709   1.923
18665W        W79954  19.704   8.696  12.889
18666W        W79955  23.709  31.090   0.952
18667W        W79956  16.254  12.812  12.052
18668W        W79957  31.134  32.061  11.553
18669W        W79958   3.813  41.373   1.694
18670W        W79959  23.209  19.153  11.937
18671W        W79960  37.461  14.739   3.666
18672W        W79961   7.242  43.422   2.749
18673W        W79962  43.974  26.479  13.399
18674W        W79963  34.903  37.848   4.760
18675W        W79964  19.681  37.363   4.744
18676W        W79965  21.610  34.484  14.427
18677W        W79966  37.980   0.865   1.815
18678W        W79967  26.613  11.835   2.805
18679W        W79968   5.346  14.137   1.261
18680W        W79969  37.372  28.439  12.389
18681W        W79970  41.011  16.765  13.460
18682W        W79971   5.226  25.014  10.630
18683W        W79972  29.932  13.105   3.208
18684W        W79973  13.610  26.026  13.350
18685W        W79974  36.469  16.583   4.247
18686W        W79975   4.246  25.991   4.142
18687W        W79976  43.287  37.072   0.912
18688W        W79977  22.528  12.650  14.876
18689W        W79978  23.110  24.657  11.598
18690W        W79979  35.398   0.760  13.316
18691W        W79980  14.150   9.756  11.042
18692W        W79981  37.512   3.817  12.378
18693W        W79982  40.440  15.098   2.200
18694W        W79983  12.838  26.631  12.985
18695W        W79984  19.155   5.359   0.397
18696W        W79985  33.092  39.425   3.677
18697W        W79986  22.150  19.627  11.550
18698W        W79987  38.970  21.753   4.810
18699W        W79988  17.622   0.786   0.732
18700W        W79989   3.289  10.237   0.247
18701W        W79990  26.602  26.534   5.164
18702W        W79991  11.190  36.585  12.910
18703W        W79992  14.310  30.430   2.817
18704W        W79993  30.456  34.957  12.881
18705W        W79994  14.610  23.219  12.489
18706W        W79995  15.665   5.277  14.483
18707W        W79996  21.177   8.888   4.701
18708W        W79997  17.682  29.494  11.373
18709W        W79998  18.723  16.807  12.943
18710W        W79999  22.117   3.948  13.929
18711W        W80000  28.537  34.864  14.917
18712W        W80001  42.430  28.126   0.879
18713W        W80002  39.011  32.403  10.534
18714W        W80003  20.245   1.742  12.372
18715W        W80004  37.899  27.051  13.523
18716W        W80005  23.109  32.522  14.469
18717W        W80006  30.948  21.714  11.969
18718W        W80007  30.999  13.282  10.628
18719W        W80008  15.082  29.622   4.119
18720W        W80009  35.975  44.005  10.409
18721W        W80010   2.354  21.616  13.970
18722W        W80011  14.109  30.984   1.921
18723W        W80012  36.941  11.720   3.870
18724W        W80013  41.405  32.433   0.782
18725W        W80014  14.822  19.557   4.161
18726W        W80015  38.867  43.946   3.776
18727W        W80016   0.426   1.893   3.836
18728W        W80017   7.676   8.760  14.018
18729W        W80018   2.374  16.743  14.327
18730W        W80019   5.867  42.006   4.623
18731W        W80020  41.023  11.236   1.273
18732W        W80021  35.082   7.299   3.680
18733W        W80022  38.988  27.472   1.843
18734W        W80023  23.711   2.751   4.257
18735W        W80024  10.303  25.003  10.526
18736W        W80025  16.789  12.184  11.408
18737W        W80026  41.490  43.853  11.874
18738W        W80027   5.225  20.733   0.386
18739W        W80028  44.310  18.736   2.736
18740W        W80029  17.266  40.415   1.830
18741W        W80030  40.849  26.149   0.367
18742W        W80031  18.556  29.493  10.042
18743W        W80032  23.686  19.092   3.158
18744W        W80033   4.216   0.277  10.490
18745W        W80034  21.028  13.283   3.296
18746W        W80035  41.863  19.573  14.845
18747W        W80036  33.024  33.002   1.729
18748W        W80037  19.130   8.242  11.087
18749W        W80038   6.685  23.102   0.810
18750W        W80039  34.962  29.075   3.315
18751W        W80040  19.108  25.022  11.873
18752W        W80041   2.253   3.280   1.417
18753W        W80042  10.170  19.120  10.541
18754W        W80043   5.427  22.170   2.409
18755W        W80044   2.309  15.235  14.314
18756W        W80045   0.853  15.727  14.958
18757W        W80046  19.675  24.687   2.322
18758W        W80047  44.331  38.846  14.362
18759W        W80048  16.597  20.191  13.525
18760W        W80049  27.640  30.561  11.379
18761W        W80050  16.706   4.305   1.440
18762W        W80051  40.320  13.227   2.257
18763W        W80052  30.150  23.622  12.503
18764W        W80053  22.706   5.717   2.301
18765W        W80054  36.518  34.499  14.030
18766W        W80055  39.026  28.456  11.496
18767W        W80056  28.470  44.930   2.384
18768W        W80057  42.498   6.339  13.019
18769W        W80058  24.187  43.841  10.522
18770W        W80059  24.627  17.218   2.352
18771W        W80060  43.420  38.000   1.791
18772W        W80061  28.564  14.245   4.709
18773W        W80062  35.503  38.021  12.996
18774W        W80063   3.932  33.023   3.725
18775W        W80064  25.651  12.774   5.295
18776W        W80065  13.178  44.782   0.363
18777W        W80066   5.209   6.743   1.405
18778W        W80067   4.717  15.771  10.584
18779W        W80068  40.045  14.651  11.478
18780W        W80069  38.974  23.495   4.158
18781W        W80070  36.503  41.921  10.559
18782W        W80071   9.682  19.187  14.839
18783W        W80072  12.358  27.122   0.309
18784W        W80073  44.405  38.853   4.127
18785W        W80074  18.201  42.917  13.931
18786W        W80075   7.786  10.874  13.934
18787W        W80076  26.987  39.355   1.751
18788W        W80077  36.912  36.423  11.856
18789W        W80078  34.889  25.661  10.608
18790W        W80079  23.211  38.925  10.022
18791W        W80080  44.376   2.385  11.000
18792W        W80081  25.626  12.764   1.289
18793W        W80082   9.345  24.571  13.504
18794W        W80083   1.896  33.566  14.832
18795W        W80084   5.269   9.285  12.832
18796W        W80085  22.617   0.388   1.360
18797W        W80086  43.308  18.558   3.771
18798W        W80087  36.550  35.374   0.956
18799W        W80088  19.127   0.402  14.909
18800W        W80089  42.283  15.195  12.989
18801W        W80090   2.263   1.900  10.142
18802W        W80091  22.039  24.482  13.509
18803W        W80092  27.506  31.412  11.083
18804W        W80093   6.845   5.371   4.320
18805W        W80094  38.481  23.493  12.959
18806W        W80095  34.402  28.151   1.374
18807W        W80096   4.730  38.962  11.523
18808W        W80097  27.127  13.260   3.723
18809W        W80098   3.437  10.229  14.431
18810W        W80099  41.311   2.855   3.791
18811W        W80100  21.707  24.220   2.300
18812W        W80101   3.273  36.897  14.764
18813W        W80102   2.868   7.378   3.178
18814W        W80103  40.869  14.615  14.468
18815W        W80104  40.874  27.189  10.412
18816W        W80105  20.592  31.620  12.361
18817W        W80106  19.670  25.116  11.603
18818W        W80107   0.816  25.192   2.201
18819W        W80108  20.582   0.905  12.076
18820W        W80109   4.774  30.587  13.850
18821W        W80110  31.124  30.430   3.154
18822W        W80111  12.268  35.403  10.609
18823W        W80112  28.508  19.173  10.416
18824W        W80113  14.332  18.093   3.783
18825W        W80114  30.951  16.626   2.786
18826W        W80115  13.164  17.293  14.502
18827W        W80116  14.596  19.252  14.024
18828W        W80117  29.071   2.275  13.438
18829W        W80118  32.115  41.819   4.731
18830W        W80119  20.586  25.067   0.907
18831W        W80120  33.459  36.473   2.680
18832W        W80121   7.318  18.679   3.206
18833W        W80122  10.724  26.563   3.326
18834W        W80123  35.917   8.324   3.638
18835W        W80124  25.120  22.620  14.792
18836W        W80125  18.220  19.579  12.073
18837W        W80126  33.958  44.989   2.706
18838W        W80127  25.113  31.551  14.486
18839W        W80128  42.309   0.799  14.830
18840W        W80129   7.722  44.459  13.338
18841W        W80130  42.002   2.385  10.919
18842W        W80131   6.784  33.129   1.868
18843W        W80132  30.478  29.094  13.969
18844W        W80133  13.770   9.648  10.483
18845W        W80134  34.875  18.716  13.415
18846W        W80135  31.928  44.345   4.802
18847W        W80136   0.304  28.681  13.967
18848W        W80137  25.699  13.311  10.500
18849W        W80138  15.600  38.835   2.684
18850W        W80139   4.447  23.046  12.825
18851W        W80140  33.563   1.251   0.476
18852W        W80141  19.619  43.942  10.456
18853W        W80142  31.085  12.777   0.291
18854W        W80143  36.078  13.233  10.985
18855W        W80144  41.820  30.147   3.279
18856W        W80145   0.761  44.380  14.369
18857W        W80146   4.872  12.195   0.335
18858W        W80147   7.395  42.877   1.308
18859W        W80148  27.464   5.315   0.271
18860W        W80149  44.903  34.919   1.316
18861W        W80150  35.595  19.079   3.237
18862W        W80151   6.339  37.031   1.213
18863W        W80152  11.769  15.184   4.178
18864W        W80153  11.143   4.701  10.154
18865W        W80154  43.830  13.295   0.373
18866W        W80155  10.180  40.385   3.735
18867W        W80156  34.596  10.794   3.677
18868W        W80157  12.818  22.082   1.373
18869W        W80158  20.741  21.180  10.566
18870W        W80159   5.928   0.892   4.648
18871W        W80160  15.730  41.433   2.218
18872W        W80161   6.819  12.227   2.790
18873W        W80162  44.001  27.450  14.365
18874W        W80163  35.858  40.418  13.834
18875W        W80164  12.236  32.483   3.326
18876W        W80165  37.836  28.991   3.349
18877W        W80166  44.853  24.011  13.847
18878W        W80167  32.138  30.055   3.325
18879W        W80168   5.321  42.343  10.897
18880W        W80169  15.778   2.274  13.876
18881W        W80170  39.906  24.675  13.845
18882W        W80171  14.220  35.372  11.451
18883W        W80172  24.037  16.718   4.258
18884W        W80173  13.623  25.103  13.817
18885W        W80174  24.615   9.331  12.035
18886W        W80175  21.199  22.065  10.042
18887W        W80176  16.758  27.041  13.943
18888W        W80177  42.960  43.814   4.767
18889W        W80178  30.579  29.442   5.290
18890W        W80179  31.982  37.473   3.285
18891W        W80180  36.046   0.408   0.842
18892W        W80181  39.951  43.363  10.608
18893W        W80182  38.492  28.468  10.946
18894W        W80183  39.342  33.482  12.980
18895W        W80184  21.755  20.542   0.243
18896W        W80185   7.746  21.230  14.482
18897W        W80186   4.741  10.822   3.658
18898W        W80187  44.783  35.382  14.298
18899W        W80188  41.370   4.800   9.944
18900W        W80189  28.945  12.791  13.021
18901W        W80190   8.247  31.516  13.977
18902W        W80191  16.292  43.319   2.892
18903W        W80192  33.531   5.380  11.102
18904W        W80193  36.014  29.080   2.747
18905W        W80194  20.240  15.651  14.408
18906W        W80195  17.754  42.520  13.986
18907W        W80196  12.714   4.853  13.884
18908W        W80197  15.283  15.278   0.897
18909W        W80198  11.800  13.170   1.438
18910W        W80199  42.344  40.444   0.956
18911W        W80200  15.134   3.852  12.095
18912W        W80201  33.961  25.091   2.355
18913W        W80202  43.376  28.677  13.413
18914W        W80203  33.067  37.561   3.793
18915W        W80204  14.658  39.469  12.470
18916W        W80205  28.609  21.743   2.841
18917W        W80206  22.735  37.552   3.699
18918W        W80207  17.086  30.955   4.779
18919W        W80208  39.830  28.020  13.339
18920W        W80209   5.806   2.934  12.908
18921W        W80210  27.005  15.312  11.948
18922W        W80211  16.184  16.576   1.825
18923W        W80212  26.627   1.400  14.405
18924W        W80213  43.846  18.144   3.862
18925W        W80214  11.798  11.777   2.330
18926W        W80215  43.968  36.925   3.257
18927W        W80216  35.059   8.296   4.724
18928W        W80217  39.910   4.428  12.986
18929W        W80218   8.782  42.904  12.997
18930W        W80219  37.348  30.618  11.906
18931W        W80220  30.563  29.652   4.310
18932W        W80221   8.315  44.754  14.983
18933W        W80222  23.614   9.264  12.045
18934W        W80223  36.456   0.248   0.262
18935W        W80224  35.075   1.737  13.036
18936W        W80225  41.297   1.454   3.176
18937W        W80226  22.053  33.886   4.113
18938W        W80227   1.846  15.699   3.752
18939W        W80228  10.171  39.870  13.997
18940W        W80229  38.514  44.904  12.825
18941W        W80230   9.294  12.782  11.044
18942W        W80231  13.752   8.318  12.345
18943W        W80232  37.398  44.837  14.898
18944W        W80233  16.807  22.202  12.515
18945W        W80234  16.262   2.317   2.785
18946W        W80235  39.981  12.149   1.820
18947W        W80236  10.331  18.287   0.301
18948W        W80237  17.580  13.698  11.018
18949W        W80238  18.151  41.430  14.761
18950W        W80239  35.544  10.767   0.877
18951W        W80240  35.085  29.652  13.861
18952W        W80241   0.835  26.579   0.370
18953W        W80242  21.753  20.757   0.764
18954W        W80243  26.526  44.868   2.394
18955W        W80244  15.601  37.002   1.325
18956W        W80245  19.576  42.453  14.282
18957W        W80246   4.875  18.630  10.633
18958W        W80247   2.921   7.904   4.683
18959W        W80248  22.719  18.655  13.446
18960W        W80249   8.406  21.555   4.281
18961W        W80250   9.713  42.459  10.473
18962W        W80251  40.523  19.574  12.023
18963W        W80252  35.389  44.913   0.259
18964W        W80253  16.306  42.353  12.068
18965W        W80254  37.355   7.176   0.389
18966W        W80255   7.179  31.954  12.490
18967W        W80256   2.727   9.762  12.029
18968W        W80257   2.897  43.354  12.010
18969W        W80258  30.067  15.187  10.968
18970W        W80259  10.719  20.151  12.557
18971W        W80260   6.248  15.704  11.092
18972W        W80261   2.270  38.497  10.465
18973W        W80262  40.885   5.433  10.968
18974W        W80263  20.044  30.073   3.317
18975W        W80264   5.407  28.595   1.258
18976W        W80265  17.294  20.052  10.964
18977W        W80266  35.931  39.395   2.252
18978W        W80267  11.311  24.693  13.985
18979W        W80268  36.393  41.927   0.820
18980W        W80269  35.553  39.544  12.063
18981W        W80270  35.360  34.559   1.287
18982W        W80271  38.859   4.805  14.390
18983W        W80272  40.943  18.257   0.242
18984W        W80273  18.729  33.609   1.284
18985W        W80274  24.689  27.017   4.737
18986W        W80275  29.669  33.478   1.742
18987W        W80276  42.427  22.187  10.426
18988W        W80277  19.252  19.248  11.073
18989W        W80278   5.858  23.589  13.838
18990W        W80279  39.808  30.617  11.599
18991W        W80280  36.006   0.479  12.073
18992W        W80281  33.952  35.938   3.285
18993W        W80282  26.541  35.105   2.662
18994W        W80283  31.101  19.261   3.276
18995W        W80284  42.844  22.618   4.319
18996W        W80285  21.715  27.159   2.676
18997W        W80286   3.278  39.015   1.878
18998W        W80287  36.514  35.420   4.624
18999W        W80288  42.515   7.708  11.043
19000W        W80289  29.029  32.134  12.516
19001W        W80290  27.454  35.393  11.081
19002W        W80291  40.343  34.554  10.558
19003W        W80292  34.037  17.725   0.416
19004W        W80293  21.657  12.737   0.466
19005W        W80294  12.774  36.049  13.513
19006W        W80295   5.330  27.099  10.906
19007W        W80296  42.845  31.129   4.180
19008W        W80297  32.594  29.998   1.446
19009W        W80298  11.185  18.241   4.156
19010W        W80299  15.768  40.901   3.762
19011W        W80300  25.978   5.208  11.981
19012W        W80301   2.363  37.046  11.128
19013W        W80302  18.256  15.800   2.719
19014W        W80303  42.826  12.677   1.844
19015W        W80304  43.906   0.443   1.792
19016W        W80305  27.493  23.573  11.471
19017W        W80306  24.065   1.461   4.184
19018W        W80307  42.520   4.935  14.443
19019W        W80308   7.213   5.899  11.484
19020W        W80309  27.157   2.815   2.356
19021W        W80310  29.099  17.088   1.743
19022W        W80311  18.130   4.892   4.639
19023W        W80312  36.573  36.432  12.533
19024W        W80313  21.115   4.818  11.085
19025W        W80314   4.377  24.058   4.811
19026W        W80315  40.944   8.198  11.953
19027W        W80316  24.129   6.894  13.471
19028W        W80317  29.488  33.521   5.105
19029W        W80318  12.327  24.720  11.982
19030W        W80319  23.123  25.114  10.460
19031W        W80320  19.238  11.310   1.807
19032W        W80321  11.674   5.834   3.172
19033W        W80322   3.276   9.665  12.031
19034W        W80323  38.914  35.581   4.254
19035W        W80324  35.046   5.887  14.397
19036W        W80325  43.451   9.317   2.344
19037W        W80326  40.344  28.980  13.803
19038W        W80327  22.711  19.264   3.815
19039W        W80328  17.578  15.208   3.224
19040W        W80329  22.553   1.324   0.333
19041W        W80330  19.257   3.828  11.478
19042W        W80331  29.606   0.909  13.791
19043W        W80332  32.453  18.650  14.934
19044W        W80333   8.861  33.994  12.376
19045W        W80334   3.220  12.163  11.961
19046W        W80335  43.442  14.298   2.271
19047W        W80336  43.442  14.788  11.485
19048W        W80337   5.281  41.522  14.784
19049W        W80338  20.103  23.184  14.916
19050W        W80339  17.139  22.524   1.742
19051W        W80340  29.107  11.700  10.612
19052W        W80341   8.822  35.902  11.122
19053W        W80342   5.432  39.434  10.982
19054W        W80343  35.454  14.294  12.465
19055W        W80344   0.309  36.529  12.362
19056W        W80345   4.820  30.497  11.934
19057W        W80346  29.597  16.220  10.509
19058W        W80347  17.073  12.706  12.906
19059W        W80348  12.120   0.426  11.912
19060W        W80349  22.637  23.537  11.600
19061W        W80350  12.716   3.854  11.928
19062W        W80351  26.993   0.296  14.865
19063W        W80352  29.037  39.863  12.960
19064W        W80353   6.905  25.180   1.900
19065W        W80354   4.887   4.851   3.695
19066W        W80355  34.881  18.762  10.487
19067W        W80356  41.895  23.991  14.489
19068W        W80357  41.994  41.409   3.275
19069W        W80358   3.219  27.598   3.237
19070W        W80359  27.062  32.529   4.737
19071W        W80360   2.819  38.995   3.314
19072W        W80361  10.805  24.101  10.609
19073W        W80362  22.047  14.660   4.276
19074W        W80363   1.782   2.472   0.442
19075W        W80364  21.240  33.913  13.047
19076W        W80365  43.372  15.664  14.362
19077W        W80366  41.495  37.464   0.931
19078W        W80367   3.904  22.556   9.989
19079W        W80368  17.616  18.283  11.047
19080W        W80369  39.062  14.623   2.292
19081W        W80370  40.378  28.019  14.914
19082W        W80371  30.618   3.753   1.802
19083W        W80372  11.240   9.882   4.827
19084W        W80373  28.662  41.822   4.626
19085W        W80374  10.659   3.742   0.316
19086W        W80375  29.661   9.197   0.748
19087W        W80376  32.526  21.197  14.278
19088W        W80377  27.563  33.549   0.827
19089W        W80378  24.676  38.874  11.945
19090W        W80379  17.221  36.844  11.387
19091W        W80380  12.774  11.132  14.028
19092W        W80381  31.020  32.092  13.014
19093W        W80382  19.272  26.177   1.919
19094W        W80383   9.239  25.543   4.815
19095W        W80384  19.224  39.874   0.289
19096W        W80385   7.705  42.819   3.773
19097W        W80386  31.530  34.536  10.628
19098W        W80387  37.505  24.502  11.941
19099W        W80388  39.914   5.330   2.290
19100W        W80389  34.566  25.163   1.212
19101W        W80390  26.635  41.326   2.196
19102W        W80391   5.859  18.081   0.352
19103W        W80392  40.442   8.812   0.383
19104W        W80393  40.368  38.547  14.397
19105W        W80394  39.008  42.884  11.069
19106W        W80395  14.588  21.237  11.984
19107W        W80396  40.891  13.237  11.557
19108W        W80397  39.974  29.511   2.303
19109W        W80398  20.260  25.095   1.737
19110W        W80399  21.150   2.741   2.403
19111W        W80400   8.750  31.550  11.436
19112W        W80401  15.664  41.792   3.181
19113W        W80402  24.061  23.171   3.355
19114W        W80403   0.815  26.540   3.702
19115W        W80404   9.648  38.976   4.295
19116W        W80405  13.650  11.227  11.561
19117W        W80406  42.950   3.363   3.234
19118W        W80407  32.910  33.965   3.683
19119W        W80408  39.510   1.798  12.487
19120W        W80409  16.762   9.858  11.426
19121W        W80410  10.235   7.723  11.067
19122W        W80411  44.369  26.021  12.988
19123W        W80412  17.180  27.523  10.504
19124W        W80413   0.403  12.651  13.063
19125W        W80414  34.864   9.649   2.310
19126W        W80415   3.325   6.779   3.851
19127W        W80416   5.880   8.761   4.120
19128W        W80417  36.490  17.194   3.787
19129W        W80418  12.673  38.963  11.390
19130W        W80419  19.740  23.227  14.999
19131W        W80420  21.574  44.394  13.539
19132W        W80421  31.955  30.555   4.345
19133W        W80422  38.476   2.246  11.121
19134W        W80423  15.583  26.574  14.978
19135W        W80424  17.066  21.178  13.975
19136W        W80425  34.922  28.171  14.796
19137W        W80426  28.553  37.559   2.691
19138W        W80427  43.407  36.519   1.740
19139W        W80428  31.106   3.860  14.001
19140W        W80429  41.809  30.138   2.356
19141W        W80430   9.289  12.248   4.805
19142W        W80431  43.440  36.089  12.976
19143W        W80432  20.047  20.564   1.928
19144W        W80433  18.167  23.065  10.445
19145W        W80434   1.783   3.345  11.607
19146W        W80435   8.209   5.880  13.808
19147W        W80436   8.846  44.955  14.775
19148W        W80437   9.257  35.552  11.573
19149W        W80438  19.238  10.142   0.824
19150W        W80439  27.170   5.385   2.815
19151W        W80440  26.982  12.206   0.455
19152W        W80441  24.643  17.076   2.675
19153W        W80442  34.074  35.889  14.771
19154W        W80443  37.355   1.298   2.808
19155W        W80444   8.725  23.223   3.660
19156W        W80445  27.603  30.590   0.309
19157W        W80446   2.806   1.349  13.381
19158W        W80447   4.225  22.555   2.416
19159W        W80448  39.902  30.627   4.263
19160W        W80449   4.827  10.239   0.250
19161W        W80450  32.468  20.630   4.663
19162W        W80451   4.254   6.772   0.268
19163W        W80452  43.336  14.320  13.354
19164W        W80453  14.196  15.115   2.365
19165W        W80454  10.226  23.527  11.861
19166W        W80455  26.499  19.621  10.489
19167W        W80456  27.106   5.799  13.472
19168W        W80457  34.076   4.287   5.128
19169W        W80458   4.895   1.975  10.009
19170W        W80459  19.709   9.812   2.894
19171W        W80460   4.844   3.301   3.713
19172W        W80461  43.437  17.081  13.900
19173W        W80462  41.486  27.163  10.983
19174W        W80463  31.591   6.742   2.320
19175W        W80464  29.975  29.643   2.785
19176W        W80465  10.189   1.400   3.347
19177W        W80466  19.253   9.858  11.057
19178W        W80467  17.574  10.635  12.518
19179W        W80468  24.048  25.558  10.446
19180W        W80469   5.748  42.449   3.832
19181W        W80470  30.914   6.371  12.853
19182W        W80471  28.999  41.426  10.617
19183W        W80472  13.206   5.261   4.113
19184W        W80473  15.168  43.309   2.259
19185W        W80474  16.162  42.782   4.769
19186W        W80475   0.756  33.465   3.244
19187W        W80476   9.360  30.565   2.204
19188W        W80477   8.206  11.636  12.417
19189W        W80478  32.124   0.318  11.880
19190W        W80479   3.417   0.366   1.279
19191W        W80480   4.913  32.596  10.052
19192W        W80481  25.214  12.763   0.358
19193W        W80482   2.257  16.745  11.856
19194W        W80483  37.428  43.892   1.219
19195W        W80484  24.624  17.081   1.286
19196W        W80485  17.253   0.394   1.286
19197W        W80486  12.763  41.316   0.935
19198W        W80487   1.402  34.404   4.831
19199W        W80488  41.040  34.916   0.361
19200W        W80489  28.583  42.789   2.809
19201W        W80490  21.089  31.647  11.855
19202W        W80491  41.359  25.661  13.816
19203W        W80492  32.073  40.371   4.190
19204W        W80493  33.496  29.099  12.540
19205W        W80494   5.332   4.232  13.487
19206W        W80495  10.231  44.853  12.928
19207W        W80496  20.237  24.497   4.603
19208W        W80497  33.034  37.350  10.934
19209W        W80498  41.862  14.209  14.390
19210W        W80499  18.177  10.175  14.869
19211W        W80500  41.522  44.409   0.387
19212W        W80501  39.536  23.533   4.621
19213W        W80502  40.457  20.113   2.846
19214W        W80503  40.840   7.679   4.197
19215W        W80504  18.104   6.760   3.335
19216W        W80505  18.061   3.786  14.023
19217W        W80506  38.874  30.961   5.092
19218W        W80507  35.989   9.226   1.308
19219W        W80508   3.923  23.091   4.782
19220W        W80509   5.396  19.267  11.036
19221W        W80510  28.981   8.736   3.634
19222W        W80511   5.337  22.629   4.746
19223W        W80512  26.971  32.558  14.430
19224W        W80513  22.629  42.512  14.376
19225W        W80514   2.471  27.950   4.645
19226W        W80515  41.525  14.645   4.801
19227W        W80516  43.291  44.462   2.331
19228W        W80517  11.751   6.229  12.004
19229W        W80518  30.597   5.698   4.700
19230W        W80519  21.736  40.967   3.838
19231W        W80520  31.485  24.641   4.123
19232W        W80521  20.651   8.752   2.870
19233W        W80522  27.520   7.760   4.230
19234W        W80523  14.270  26.079  13.824
19235W        W80524  18.115  13.766  14.924
19236W        W80525  26.660  41.306   2.900
19237W        W80526  15.175  24.096  13.344
19238W        W80527  18.546   4.717  13.987
19239W        W80528  42.897  32.424  12.003
19240W        W80529  21.645  21.607  12.089
19241W        W80530   8.404  29.533  14.455
19242W        W80531  36.918   4.915   4.674
19243W        W80532  39.394  19.668   4.719
19244W        W80533   9.316  28.003   0.433
19245W        W80534  31.518  14.692   2.722
19246W        W80535  17.085   0.809  12.913
19247W        W80536  23.211  43.891   2.325
19248W        W80537  11.632  17.760   4.331
19249W        W80538  42.835   5.238   4.259
19250W        W80539  18.580   4.447  14.999
19251W        W80540   3.949  39.396  12.935
19252W        W80541  11.148  12.263  11.394
19253W        W80542  28.076  36.969  11.032
19254W        W80543   0.289  25.533   2.771
19255W        W80544  10.277  16.108   0.841
19256W        W80545  21.025  40.923  12.362
19257W        W80546  38.386  12.164  14.780
19258W        W80547  37.068  20.104  10.450
19259W        W80548   1.343  36.875  10.439
19260W        W80549  39.435  20.594   1.721
19261W        W80550  39.881   4.917   3.866
19262W        W80551   5.743   0.986   0.963
19263W        W80552   6.270  18.175   0.442
19264W        W80553  43.400   7.190  12.348
19265W        W80554   5.304  37.028  12.036
19266W        W80555  31.470  44.910   3.207
19267W        W80556  15.151  21.627  11.444
19268W        W80557  35.522   1.755   2.349
19269W        W80558   5.361  33.430  12.505
19270W        W80559  15.596  30.131  10.946
19271W        W80560  19.145  12.842  12.091
19272W        W80561  13.642  21.585   0.858
19273W        W80562  25.987  11.705  13.807
19274W        W80563   8.165  44.924   4.615
19275W        W80564  32.971   5.799   9.923
19276W        W80565  30.966  30.064  14.908
19277W        W80566   4.270  17.674   2.352
19278W        W80567   3.352  21.576   1.330
19279W        W80568  10.317   8.273  10.442
19280W        W80569  15.181  28.438  14.785
19281W        W80570  15.276   3.364   0.837
19282W        W80571  22.640  38.831  13.308
19283W        W80572  33.389  33.086  10.073
19284W        W80573   1.481  33.129  14.968
19285W        W80574  32.633   3.447   3.741
19286W        W80575  14.126   5.437   4.199
19287W        W80576  32.044   2.306  14.825
19288W        W80577  41.383  35.547  12.392
19289W        W80578   1.396  15.591  14.356
19290W        W80579  32.635  10.811   4.643
19291W        W80580  16.593  22.235   2.811
19292W        W80581  42.500  11.184  11.899
19293W        W80582  42.354  43.004   2.737
19294W        W80583   6.274  32.943  12.002
19295W        W80584   0.922  40.046  12.344
19296W        W80585  27.951  44.425   0.265
19297W        W80586  19.134  14.263  11.892
19298W        W80587  21.163  41.328  12.838
19299W        W80588  28.488  15.728   2.723
19300W        W80589   7.802  25.058   3.868
19301W        W80590  15.823  33.977   4.347
19302W        W80591  16.584  36.985  10.968
19303W        W80592  20.613  34.542  13.850
19304W        W80593  37.861   5.770   1.353
19305W        W80594   9.852   1.834  14.298
19306W        W80595  22.123  11.202   3.741
19307W        W80596   4.406  35.020  14.498
19308W        W80597  34.439  32.104  14.011
19309W        W80598   9.207  25.026   2.289
19310W        W80599  37.481  16.159   0.327
19311W        W80600  16.747  20.531   5.782
19312W        W80601  21.230  14.802  12.420
19313W        W80602  38.942  25.644   3.676
19314W        W80603   9.190   7.839  14.911
19315W        W80604   8.185  42.845   0.288
19316W        W80605  40.536  11.634   1.881
19317W        W80606  36.469  37.836   2.852
19318W        W80607  24.669   8.278   1.733
19319W        W80608  42.952  15.677   1.883
19320W        W80609  39.384  21.629   2.761
19321W        W80610  22.569  37.917   0.435
19322W        W80611  30.652   0.881   1.803
19323W        W80612  30.945  13.186  12.569
19324W        W80613  27.639  27.075   2.262
19325W        W80614   8.734  23.199  13.466
19326W        W80615  41.387  11.193  13.843
19327W        W80616  24.675  14.682  14.327
19328W        W80617  38.462  34.530   1.778
19329W        W80618  19.261  31.948  13.064
19330W        W80619  10.201  17.799  13.396
19331W        W80620   5.707  14.133   1.253
19332W        W80621   9.733  31.473   3.845
19333W        W80622  43.994   4.772   2.823
19334W        W80623  30.130  24.205  12.341
19335W        W80624  35.490  18.579   0.768
19336W        W80625  44.822   7.392   1.305
19337W        W80626  41.478  41.467   4.667
19338W        W80627  32.004  32.396   0.380
19339W        W80628  39.825  29.645   1.242
19340W        W80629   0.480   4.328  13.359
19341W        W80630  32.586   9.296   2.765
19342W        W80631   7.266   3.414   5.280
19343W        W80632  42.874  33.887  11.044
19344W        W80633   1.910  10.306  12.458
19345W        W80634  42.399  44.871   4.788
19346W        W80635   4.725  43.359  13.348
19347W        W80636  30.015  32.022   2.740
19348W        W80637  38.950  12.724   4.777
19349W        W80638  13.323   6.680   4.708
19350W        W80639  16.311  16.648  13.835
19351W        W80640  14.646  31.608   2.895
19352W        W80641  41.834  12.632  12.863
19353W        W80642   0.257   4.848  14.773
19354W        W80643   0.298  29.940   3.699
19355W        W80644   6.757  42.398   0.349
19356W        W80645  41.473  43.864   3.769
19357W        W80646   1.814  34.556  10.487
19358W        W80647  37.383  22.668  11.927
19359W        W80648  12.761  29.095  13.357
19360W        W80649   4.721  13.719   1.344
19361W        W80650  33.488  18.148   4.733
19362W        W80651  39.397  41.470   4.698
19363W        W80652  37.446  20.759  11.972
19364W        W80653  36.460   8.299   1.250
19365W        W80654  21.623  21.706   1.300
19366W        W80655  26.644  27.657  13.358
19367W        W80656  16.192  23.227  14.306
19368W        W80657  25.635   3.443   0.397
19369W        W80658  13.670   2.900   1.761
19370W        W80659  24.129  31.099   3.785
19371W        W80660  21.182  34.487  10.610
19372W        W80661  43.004  21.681   2.186
19373W        W80662  41.477  30.479  10.493
19374W        W80663  34.067  21.092   1.908
19375W        W80664  24.638  38.376  10.995
19376W        W80665   6.410  25.705   1.409
19377W        W80666  37.434  30.442  14.885
19378W        W80667  28.578  26.955  10.977
19379W        W80668   9.343   8.238   1.423
19380W        W80669  11.180  18.731   2.863
19381W        W80670  16.123  17.705   4.349
19382W        W80671   2.780  40.051  12.026
19383W        W80672   9.666   6.800   4.290
19384W        W80673  44.970  39.314  14.859
19385W        W80674   5.909   6.361   2.198
19386W        W80675  43.922   0.261   4.695
19387W        W80676   5.425  13.188  11.887
19388W        W80677   4.324  30.622  13.945
19389W        W80678  11.369  27.995  11.574
19390W        W80679  27.558  11.661  13.048
19391W        W80680  10.800   2.250  11.572
19392W        W80681  14.288  27.597   2.333
19393W        W80682  12.347  43.452  13.423
19394W        W80683  35.068  35.064  10.514
19395W        W80684   7.702  11.849   0.821
19396W        W80685  12.216  19.725   1.771
19397W        W80686  27.648  16.071  10.616
19398W        W80687  24.670  25.130  11.098
19399W        W80688   2.837  30.608   3.268
19400W        W80689  42.905  24.478   1.275
19401W        W80690  40.535  34.451  13.868
19402W        W80691  14.726   2.964   2.742
19403W        W80692  28.605  24.048  11.095
19404W        W80693   9.877  13.707  12.956
19405W        W80694   6.274  41.361  12.476
19406W        W80695  30.007   9.153   9.504
19407W        W80696  19.580  40.415   4.282
19408W        W80697  24.598  16.746  12.421
19409W        W80698  31.632  29.489  14.346
19410W        W80699  38.345  19.558  14.810
19411W        W80700  14.325  24.034   0.763
19412W        W80701  27.950  41.399   9.961
19413W        W80702  16.621   1.771  10.555
19414W        W80703  30.526  14.317   2.733
19415W        W80704   6.761  38.005   2.663
19416W        W80705  44.961  23.527  13.422
19417W        W80706  23.192   9.773   4.148
19418W        W80707  43.456  44.814   4.211
19419W        W80708  13.209  19.186   2.366
19420W        W80709  36.486  32.053   2.365
19421W        W80710  15.682  41.299  13.028
19422W        W80711   6.319  13.138  11.998
19423W        W80712  28.943  17.638  13.853
19424W        W80713  18.089  28.681   3.306
19425W        W80714  23.031  10.689   1.774
19426W        W80715  15.236  27.156   2.290
19427W        W80716   3.254  40.818  13.360
19428W        W80717  30.018  33.938   3.326
19429W        W80718  25.532  23.070   2.207
19430W        W80719  39.524  27.125  12.480
19431W        W80720  18.190  38.982  10.436
19432W        W80721   8.170  19.688   4.254
19433W        W80722  23.525   9.312   4.321
19434W        W80723  41.901  42.934   2.280
19435W        W80724  13.330  11.259  10.586
19436W        W80725  31.522   4.210   2.783
19437W        W80726  25.504   0.926   2.672
19438W        W80727  28.497  36.022  11.944
19439W        W80728  19.126  17.148  13.475
19440W        W80729  18.260  25.963   4.320
19441W        W80730   0.443  33.881  14.886
19442W        W80731  10.302   7.755  14.991
19443W        W80732  15.280  23.508  14.508
19444W        W80733  27.639  20.527  12.089
19445W        W80734  34.116  28.615  14.296
19446W        W80735  40.335  38.568  10.626
19447W        W80736   1.370  11.695   3.728
19448W        W80737  36.932   5.721   1.232
19449W        W80738  11.840  18.609  10.628
19450W        W80739  26.060  39.951   1.288
19451W        W80740  11.158  29.595  13.026
19452W        W80741  10.233   4.281  11.124
19453W        W80742   6.385  12.798   0.412
19454W        W80743  23.594   1.831  11.043
19455W        W80744  38.511  22.031  12.453
19456W        W80745  13.169  26.635  14.338
19457W        W80746  22.739   8.187  13.879
19458W        W80747  29.157  25.627  13.462
19459W        W80748  42.282  43.488   0.772
19460W        W80749  10.763  28.469   0.735
19461W        W80750  40.854  11.161  14.889
19462W        W80751  18.784  13.798  12.898
19463W        W80752  41.899   3.351  11.478
19464W        W80753  22.217  38.991  13.469
19465W        W80754   0.758  30.056   0.748
19466W        W80755   9.217   0.906  11.059
19467W        W80756  44.276  36.038   9.931
19468W        W80757  40.449  25.203   1.386
19469W        W80758  39.407   2.355  13.334
19470W        W80759  39.991   7.850  11.604
19471W        W80760  33.993  19.236   2.669
19472W        W80761  33.899   8.259   3.728
19473W        W80762   2.251  24.193  12.914
19474W        W80763  22.501  18.600   0.797
19475W        W80764  26.544  24.565  13.923
19476W        W80765   4.254  36.076  14.446
19477W        W80766   4.742  17.718  13.348
19478W        W80767   7.273  44.429  13.794
19479W        W80768   7.245   6.800  13.032
19480W        W80769   4.827  32.077   2.885
19481W        W80770  31.047  11.729  13.868
19482W        W80771  44.305  14.673   4.354
19483W        W80772   1.286  37.854   4.640
19484W        W80773  26.080  44.948  14.015
19485W        W80774  18.189  21.222   4.294
19486W        W80775  13.226  35.488  13.911
19487W        W80776   8.695  18.741  14.835
19488W        W80777   0.866  42.986  12.473
19489W        W80778  33.058  15.208  14.462
19490W        W80779  43.962  16.079   1.298
19491W        W80780  26.512  11.236   3.376
19492W        W80781  14.706  28.034  10.127
19493W        W80782  39.333  35.890  14.321
19494W        W80783   0.293  35.901  10.532
19495W        W80784  27.967  42.340   3.284
19496W        W80785  28.950  15.268  12.048
19497W        W80786  20.524   0.270  11.089
19498W        W80787   9.652  25.968   0.811
19499W        W80788  42.947  42.941  11.399
19500W        W80789   8.305   6.384   4.660
19501W        W80790   2.256  27.455  14.994
19502W        W80791  14.826  12.715  14.011
19503W        W80792  39.028  13.752   0.963
19504W        W80793  10.172  12.249  14.900
19505W        W80794   5.250  19.763   4.664
19506W        W80795   9.787  44.371  10.428
19507W        W80796  38.444   8.755  11.920
19508W        W80797   7.835   3.278   1.351
19509W        W80798  40.377  44.797  13.513
19510W        W80799  30.007   1.456   0.273
19511W        W80800  37.914  27.638  14.900
19512W        W80801   3.841  11.799  13.339
19513W        W80802  29.944   7.392   1.855
19514W        W80803  10.736  38.972   1.708
19515W        W80804  29.537  17.625  13.354
19516W        W80805  21.037   0.988  14.498
19517W        W80806  39.810  32.973  13.527
19518W        W80807  44.468  19.274   3.781
19519W        W80808  23.084   1.414   2.313
19520W        W80809   4.289   0.921   4.825
19521W        W80810  30.133  21.737  12.839
19522W        W80811   5.428  22.059   1.326
19523W        W80812   6.398  33.986   2.416
19524W        W80813   0.383  36.399  13.808
19525W        W80814   1.763  18.781  11.955
19526W        W80815   1.468  31.566  12.452
19527W        W80816  38.479  24.709   4.258
19528W        W80817  22.526  37.387  10.452
19529W        W80818  13.602  20.638  13.995
19530W        W80819  22.658  28.089   0.325
19531W        W80820  15.206  18.688  10.104
19532W        W80821  44.335   1.298   1.422
19533W        W80822  10.243  12.283  13.446
19534W        W80823  11.664  12.801   2.875
19535W        W80824  20.056  15.755   5.279
19536W        W80825  20.768  15.622   4.288
19537W        W80826  43.865  30.645   1.820
19538W        W80827  43.968  18.638   0.298
19539W        W80828  12.228   3.383  11.505
19540W        W80829  27.136  20.639  11.917
19541W        W80830  25.522  30.951  11.393
19542W        W80831  38.917   8.733  13.412
19543W        W80832  14.668  30.536   4.800
19544W        W80833  13.135   7.269   3.249
19545W        W80834  32.552  34.983   4.812
19546W        W80835   6.756   9.793   4.294
19547W        W80836  22.095  38.415  14.282
19548W        W80837  11.249  30.448   1.332
19549W        W80838  43.993  21.688   1.830
19550W        W80839  23.496  10.250   2.826
19551W        W80840  37.871  33.930  11.407
19552W        W80841   7.292  20.530  11.883
19553W        W80842  30.986  41.923  12.491
19554W        W80843  12.191  11.213   2.876
19555W        W80844  10.823  18.188  13.874
19556W        W80845  27.066   7.403  11.512
19557W        W80846   9.213  41.420  10.465
19558W        W80847  11.761  11.778  10.064
19559W        W80848  34.583  29.946   2.690
19560W        W80849  39.931  25.663  10.423
19561W        W80850  10.321  34.890   4.222
19562W        W80851  22.509  13.251   2.195
19563W        W80852  10.661   0.423   2.192
19564W        W80853  18.251   4.397  13.355
19565W        W80854   8.316   1.882  12.444
19566W        W80855   2.441  35.052   4.661
19567W        W80856  14.593  20.274  13.401
19568W        W80857   5.811  41.845   1.234
19569W        W80858  24.121  11.292   2.209
19570W        W80859  36.982   0.952   0.795
19571W        W80860  14.766  41.374  10.064
19572W        W80861   3.354  44.837  11.485
19573W        W80862  42.957  34.410   1.734
19574W        W80863  35.090  24.145   3.347
19575W        W80864  41.982   3.862  11.873
19576W        W80865  22.177  10.760  11.566
19577W        W80866  18.579   1.918   1.852
19578W        W80867  23.634  29.074   3.758
19579W        W80868  44.857  29.066  10.531
19580W        W80869  20.121  25.499  10.462
19581W        W80870   5.838  36.362  13.906
19582W        W80871  18.160  37.868   4.269
19583W        W80872  30.926  10.246  10.067
19584W        W80873  30.567  20.105  10.590
19585W        W80874   4.383  31.023   0.302
19586W        W80875  29.457  15.202  13.399
19587W        W80876   5.242  34.519   2.903
19588W        W80877  29.435  15.666  12.025
19589W        W80878  42.873  25.085   4.598
19590W        W80879  30.124  22.097   4.679
19591W        W80880  31.900   5.860   1.887
19592W        W80881  32.562  37.030  14.503
19593W        W80882  43.899   8.391   2.294
19594W        W80883  42.854  18.760   2.870
19595W        W80884   5.338  31.090  14.472
19596W        W80885  42.959  38.831   2.893
19597W        W80886   4.703  40.833  14.865
19598W        W80887  10.787  30.027   0.440
19599W        W80888   5.752  29.624  14.312
19600W        W80889  35.378  14.662   1.384
19601W        W80890  31.488  12.237  10.937
19602W        W80891  11.356  20.093   0.312
19603W        W80892  20.162  28.110   0.351
19604W        W80893  20.567  40.531   3.637
19605W        W80894   7.287   5.878   4.741
19606W        W80895   9.664  12.722   4.199
19607W        W80896  26.073  14.183   2.283
19608W        W80897  38.567  21.550  10.892
19609W        W80898  11.186  29.557  10.946
19610W        W80899   2.952  21.520   2.394
19611W        W80900  30.933  37.860   1.730
19612W        W80901  30.933  11.359  11.385
19613W        W80902   9.160  44.984   0.900
19614W        W80903  31.417  37.909   4.801
19615W        W80904  38.441   5.853   2.869
19616W        W80905  34.983  17.779  11.490
19617W        W80906  40.498  27.631  10.540
19618W        W80907  39.040  13.232   3.253
19619W        W80908  41.506  36.578   4.765
19620W        W80909  11.142  21.697   1.214
19621W        W80910  29.488  38.339  14.984
19622W        W80911  35.885  20.129  12.890
19623W        W80912  26.029  12.255  10.423
19624W        W80913  40.442  12.700   9.979
19625W        W80914  34.100  30.147   1.922
19626W        W80915  22.518   9.351   3.243
19627W        W80916   4.345  11.752   4.766
19628W        W80917  36.022   7.892  12.508
19629W        W80918  38.820   8.279   3.759
19630W        W80919  22.624  15.743  13.952
19631W        W80920  13.612   7.233  12.970
19632W        W80921  28.643  41.498  13.981
19633W        W80922  11.783  25.484   1.334
19634W        W80923  15.249  30.142  11.987
19635W        W80924   8.872   5.368  13.982
19636W        W80925   2.290   7.887  11.930
19637W        W80926  27.053  37.335   4.836
19638W        W80927  22.636  36.956  11.885
19639W        W80928  27.968  39.442  11.125
19640W        W80929  34.967  20.595   0.396
19641W        W80930   4.942  24.667  14.477
19642W        W80931   6.879  38.437  12.893
19643W        W80932  31.449   7.778  12.436
19644W        W80933  35.938   9.814   1.802
19645W        W80934  43.895   0.823  10.984
19646W        W80935  35.047  17.763  12.340
19647W        W80936  25.582  44.940  14.766
19648W        W80937   4.440  41.040   1.256
19649W        W80938  30.148  21.039   2.361
19650W        W80939  22.741  12.672   4.652
19651W        W80940  16.677   8.656  11.973
19652W        W80941  20.127  15.236  13.493
19653W        W80942   9.359  19.174  14.370
19654W        W80943  29.549  37.941   4.229
19655W        W80944  13.674   7.209   2.397
19656W        W80945   9.657  10.382   0.816
19657W        W80946   5.748  20.119  11.458
19658W        W80947  11.827  27.572   3.661
19659W        W80948  34.589  12.138  13.428
19660W        W80949  37.482  41.915   4.324
19661W        W80950  18.764   7.774  11.400
19662W        W80951   2.721   1.320   3.708
19663W        W80952  30.997  39.914  14.407
19664W        W80953  28.970  12.673   4.798
19665W        W80954  32.454  35.015  14.439
19666W        W80955   2.450  13.790   1.885
19667W        W80956  11.351  40.445   4.758
19668W        W80957  36.906   1.284   1.807
19669W        W80958   9.708   1.826   3.829
19670W        W80959  14.753  33.934  11.007
19671W        W80960  43.501  26.201  13.431
19672W        W80961   6.266  41.839   2.850
19673W        W80962   0.844  22.697   3.742
19674W        W80963  28.443  38.010  14.487
19675W        W80964   0.362  41.332  11.920
19676W        W80965  32.912  33.093  14.760
19677W        W80966  29.578  20.528  13.872
19678W        W80967  27.183   0.760   4.258
19679W        W80968  33.043   2.809   2.873
19680W        W80969  29.554  39.429   2.220
19681W        W80970  36.382   1.275   2.802
19682W        W80971  16.281   1.374   2.381
19683W        W80972  35.522  36.584   4.342
19684W        W80973   1.430  11.857  13.815
19685W        W80974  41.865  10.151   0.433
19686W        W80975  41.398  12.119   2.274
19687W        W80976   4.391  18.285   3.773
19688W        W80977  17.111  13.130   1.770
19689W        W80978  14.762  36.017  11.103
19690W        W80979  12.664   4.791   0.399
19691W        W80980  17.144  11.828  13.548
19692W        W80981  37.881  12.833   5.317
19693W        W80982  38.073  15.602   9.598
19694W        W80983  28.540  40.977   0.388
19695W        W80984  41.924  16.603  12.371
19696W        W80985  40.889  28.174   1.755
19697W        W80986  21.672  32.908   3.846
19698W        W80987  23.048  37.902   2.870
19699W        W80988  43.965  16.795   3.662
19700W        W80989  35.870  32.490  11.438
19701W        W80990  41.932  17.569  12.565
19702W        W80991  19.046  29.102   2.409
19703W        W80992  34.895  38.567  12.050
19704W        W80993  16.688  11.848   3.348
19705W        W80994  44.271  23.157  10.418
19706W        W80995  10.207  34.461  13.888
19707W        W80996  25.125  38.848   2.696
19708W        W80997  10.321  11.678   4.127
19709W        W80998  44.964   6.692  12.518
19710W        W80999  43.481  41.489  14.967
19711W        W81000  34.405  31.483   2.334
19712W        W81001   0.834  34.073  12.438
19713W        W81002  30.464  38.065  11.413
19714W        W81003  40.548   7.363  13.332
19715W        W81004  18.554  28.492   3.312
19716W        W81005  35.905  25.199  13.382
19717W        W81006  31.480  16.241  12.553
19718W        W81007  32.482   3.282  13.809
19719W        W81008  41.475  20.722   2.773
19720W        W81009  11.204  19.056   3.711
19721W        W81010  10.714   6.394  13.988
19722W        W81011  35.395  25.166  11.462
19723W        W81012  27.182  13.812   4.636
19724W        W81013  23.098  23.135  14.430
19725W        W81014  21.217  41.297   4.713
19726W        W81015  21.221  17.601  14.953
19727W        W81016   9.753  13.127  12.578
19728W        W81017  32.559  41.513  14.903
19729W        W81018  27.573  28.571   0.934
19730W        W81019  15.641  38.373   2.260
19731W        W81020  27.612  15.084   4.606
19732W        W81021   1.767   0.790   0.959
19733W        W81022  11.169  36.961  10.951
19734W        W81023   9.789  14.296  12.504
19735W        W81024  15.320  18.730   2.190
19736W        W81025  31.575  34.584  14.027
19737W        W81026  31.520  11.622  12.526
19738W        W81027   2.946   5.394  12.423
19739W        W81028  38.510  37.847   3.756
19740W        W81029  37.363  20.715  11.515
19741W        W81030  18.746  44.418  10.042
19742W        W81031  10.355  14.747   0.962
19743W        W81032   4.414  35.010   3.831
19744W        W81033  38.037  24.132   0.842
19745W        W81034  43.516  14.142   3.736
19746W        W81035  35.086  30.136   4.692
19747W        W81036  41.965  26.022  10.972
19748W        W81037  37.953  25.215  13.456
19749W        W81038  27.114  32.970  14.411
19750W        W81039  13.602   8.174  13.049
19751W        W81040  31.020  33.484   3.178
19752W        W81041  35.025   4.911   3.643
19753W        W81042   7.685  35.074  12.851
19754W        W81043   2.746  15.639   0.778
19755W        W81044  38.351  14.781   9.954
19756W        W81045   4.701  43.484   4.259
19757W        W81046   0.949  10.734   4.262
19758W        W81047  34.568  34.609  14.902
19759W        W81048  39.335  37.987   2.783
19760W        W81049  41.912   9.273  12.944
19761W        W81050  43.514  10.261  13.406
19762W        W81051  38.345   4.449  13.962
19763W        W81052  17.147  39.481   0.419
19764W        W81053  20.693  13.310  12.404
19765W        W81054   4.408   9.810  13.860
19766W        W81055   8.855   3.885   4.818
19767W        W81056  21.021  22.519   2.289
19768W        W81057  28.514   2.863   1.793
19769W        W81058  11.151  43.966  11.865
19770W        W81059  33.106  19.071   3.822
19771W        W81060   1.309  31.105  10.460
19772W        W81061  39.048  17.216  14.475
19773W        W81062  10.687  31.479   0.796
19774W        W81063  34.965  40.398   1.234
19775W        W81064  17.220  18.661   4.762
19776W        W81065  41.975   3.900  13.314
19777W        W81066  18.070  11.660  12.344
19778W        W81067  23.984  16.149   0.815
19779W        W81068  31.643  30.046  10.551
19780W        W81069  18.547   2.275   3.758
19781W        W81070  13.665  33.417   3.737
19782W        W81071  26.653  28.518   2.183
19783W        W81072  37.081   3.437  12.022
19784W        W81073  15.693   5.846   4.755
19785W        W81074  42.494   5.858   4.628
19786W        W81075  44.383  39.918  13.044
19787W        W81076  31.591   7.720  10.903
19788W        W81077  35.048   5.796  12.046
19789W        W81078  20.041  15.091   3.374
19790W        W81079  44.851   2.787  14.871
19791W        W81080  29.988  15.817   0.403
19792W        W81081  43.317  24.001  12.477
19793W        W81082  43.908  32.471   2.795
19794W        W81083  16.732  14.699  13.441
19795W        W81084  35.588  22.133   0.884
19796W        W81085  16.586  33.447  11.901
19797W        W81086   1.366   4.382   2.289
19798W        W81087  29.544  33.973   0.300
19799W        W81088  41.491  22.594  12.517
19800W        W81089  39.489  15.790   0.449
19801W        W81090  26.178   9.210   1.426
19802W        W81091   4.888  28.530  12.457
19803W        W81092  25.063  17.760   3.649
19804W        W81093  27.461  42.283   3.306
19805W        W81094  34.904  39.810  12.890
19806W        W81095   9.362  44.369   1.303
19807W        W81096  11.837   0.290  10.962
19808W        W81097  42.865   0.396   1.800
19809W        W81098  40.926  27.159   1.337
19810W        W81099   7.793   3.448  11.437
19811W        W81100  21.237   7.735   5.115
19812W        W81101  20.076  17.258  13.482
19813W        W81102  20.136  27.016   2.670
19814W        W81103  40.360   0.412  10.544
19815W        W81104  15.155  21.185  14.853
19816W        W81105  24.981  10.833   3.714
19817W        W81106  41.411   3.907  11.059
19818W        W81107  40.371  29.476   1.354
19819W        W81108  27.665  44.364  12.487
19820W        W81109  17.163  41.329  11.903
19821W        W81110   3.287  21.735   0.859
19822W        W81111   7.777   2.344   4.301
19823W        W81112   4.314  42.440   3.823
19824W        W81113  40.799  29.965  11.885
19825W        W81114  37.901   3.925  12.563
19826W        W81115  42.387  14.820   3.696
19827W        W81116   5.324  13.761   3.857
19828W        W81117   7.411  44.941  12.537
19829W        W81118  24.526  37.566  10.497
19830W        W81119  44.897  22.640   2.682
19831W        W81120   4.231  23.007  12.467
19832W        W81121   8.861   6.228   1.765
19833W        W81122   6.419  14.767   1.365
19834W        W81123  27.546  41.910   3.208
19835W        W81124  13.309   2.932   3.174
19836W        W81125  15.708  30.043  14.835
19837W        W81126  40.430  37.970   2.860
19838W        W81127  28.672   3.393   3.184
19839W        W81128   1.920   8.213  11.977
19840W        W81129  28.021   5.892  11.865
19841W        W81130   1.481  15.214  10.541
19842W        W81131  25.593  40.997  10.919
19843W        W81132  42.957   5.272  12.509
19844W        W81133  39.327  25.493  13.423
19845W        W81134  44.962  39.948   3.225
19846W        W81135  40.823  33.019   4.773
19847W        W81136   4.935  23.210  13.916
19848W        W81137  28.476  44.989  13.025
19849W        W81138  15.775  40.860  11.983
19850W        W81139   0.479   2.408  12.472
19851W        W81140   6.802  44.422  11.438
19852W        W81141  39.409  35.890   0.357
19853W        W81142  38.336  18.769  14.402
19854W        W81143  17.722  33.386  11.016
19855W        W81144  34.910  35.546  10.548
19856W        W81145  39.861   2.864   0.901
19857W        W81146   5.723  34.988   3.723
19858W        W81147  34.536  43.408   3.234
19859W        W81148  20.186   6.245   1.793
19860W        W81149   1.467   1.288  14.330
19861W        W81150  26.030  31.419   2.794
19862W        W81151  20.178  19.050  13.946
19863W        W81152  30.538   6.716   0.883
19864W        W81153  15.612  30.605  10.525
19865W        W81154   2.381  32.995  13.321
19866W        W81155  28.606   0.293   1.787
19867W        W81156   4.873   9.368   1.763
19868W        W81157  35.518  28.142  11.964
19869W        W81158  19.638  15.701  14.841
19870W        W81159  24.700  34.955   2.414
19871W        W81160  27.160  26.584  10.935
19872W        W81161   3.433  19.574   4.824
19873W        W81162  17.679  12.683  11.446
19874W        W81163  24.650  15.747   2.346
19875W        W81164  36.044  26.636   1.882
19876W        W81165  23.620  28.563  11.382
19877W        W81166   6.187  41.312   3.189
19878W        W81167   2.402  32.950   3.867
19879W        W81168  10.778  38.544   3.261
19880W        W81169  12.659   8.192  11.044
19881W        W81170  24.983  11.664   0.867
19882W        W81171  21.131  20.143  11.473
19883W        W81172  22.732  12.229   2.253
19884W        W81173  15.154   6.841  11.039
19885W        W81174  30.006  14.309   4.714
19886W        W81175   9.185   5.733  11.112
19887W        W81176   6.867  29.515   3.852
19888W        W81177  38.970   8.272   4.265
19889W        W81178   4.390   1.923   2.352
19890W        W81179   4.207  44.947  11.521
19891W        W81180  25.627  23.707   3.240
19892W        W81181  35.064   8.821   3.378
19893W        W81182  33.419  22.704  11.606
19894W        W81183   2.900  32.955  12.845
19895W        W81184   4.329   3.772   1.713
19896W        W81185  38.931  13.257  10.552
19897W        W81186  22.590  27.622  10.434
19898W        W81187   1.750  16.768  12.876
19899W        W81188  32.024  37.965   3.837
19900W        W81189   7.811  36.578  10.405
19901W        W81190   7.209  29.548   0.738
19902W        W81191  38.406   1.731   3.296
19903W        W81192  37.086  34.588  14.864
19904W        W81193  19.076   9.823   4.726
19905W        W81194  44.261  25.602   3.373
19906W        W81195   1.780   2.910  12.048
19907W        W81196  28.934  41.027  12.442
19908W        W81197  42.948  42.827  12.910
19909W        W81198  30.950   9.242  14.816
19910W        W81199  22.731  21.199  11.497
19911W        W81200  18.186   6.730  14.940
19912W        W81201  42.952  13.190   0.321
19913W        W81202  42.408  41.436  10.497
19914W        W81203  42.796  14.250  11.074
19915W        W81204  38.492  39.833   0.437
19916W        W81205  29.437  10.874  10.899
19917W        W81206   5.377  16.732  11.602
19918W        W81207  44.312  11.159  14.030
19919W        W81208  29.086  14.700   2.339
19920W        W81209  34.984  31.584   3.291
19921W        W81210  15.262  32.578  12.869
19922W        W81211  18.770  22.588   2.858
19923W        W81212  26.068  38.930   0.876
19924W        W81213  29.172  25.573   4.736
19925W        W81214   2.949  22.189  12.943
19926W        W81215   5.933  43.880   3.277
19927W        W81216  23.019  29.525   4.619
19928W        W81217  22.252   3.413  11.925
19929W        W81218   8.172  41.866  12.897
19930W        W81219  44.908   5.727   3.836
19931W        W81220   1.822  24.040  11.026
19932W        W81221  27.463   3.747   1.248
19933W        W81222  11.207  22.099   0.933
19934W        W81223   9.362  16.738  12.487
19935W        W81224  30.489   8.372  12.492
19936W        W81225  19.684   2.769  11.092
19937W        W81226  40.454  31.030  13.469
19938W        W81227  40.338  12.178   2.717
19939W        W81228  19.057  41.036   0.284
19940W        W81229  41.389  24.038  13.813
19941W        W81230  36.855  30.966  14.906
19942W        W81231  18.667  19.623  13.468
19943W        W81232  18.064   5.926   4.181
19944W        W81233  24.024   8.384   1.219
19945W        W81234  32.440  34.013   2.861
19946W        W81235   5.757  19.618   3.846
19947W        W81236  33.479  37.575  12.454
19948W        W81237  44.795  37.360  10.074
19949W        W81238  44.834  25.149  14.015
19950W        W81239  25.577   6.747   3.776
19951W        W81240  27.969  12.341   2.190
19952W        W81241  14.833  29.088   2.306
19953W        W81242   3.226  18.667   0.871
19954W        W81243  34.442   8.698  12.437
19955W        W81244  11.747  32.537  13.475
19956W        W81245  44.987   1.962   2.178
19957W        W81246  23.002  34.922   2.781
19958W        W81247  36.846  32.052  11.403
19959W        W81248  17.132  22.645   2.390
19960W        W81249  28.042  30.085  12.025
19961W        W81250  14.742  13.176  14.009
19962W        W81251  35.018  15.689   5.166
19963W        W81252   1.823  41.956   3.321
19964W        W81253  29.539  23.609  10.890
19965W        W81254  38.054  28.500  10.405
19966W        W81255  35.593  10.198   3.271
19967W        W81256   4.723  17.165  11.996
19968W        W81257   5.770  15.146  14.798
19969W        W81258  37.574  18.652  12.966
19970W        W81259  37.456  17.076  14.410
19971W        W81260  26.698  20.753   4.205
19972W        W81261  16.806  44.981   4.325
19973W        W81262  34.425   8.879  13.943
19974W        W81263  37.535   5.788   4.838
19975W        W81264  23.653  32.422   1.310
19976W        W81265   6.402  44.423  14.403
19977W        W81266  17.159   0.354  11.414
19978W        W81267  14.640  16.101   2.682
19979W        W81268  30.482  29.162   2.251
19980W        W81269  42.437   0.891  11.993
19981W        W81270  12.152  41.918   1.301
19982W        W81271  27.102  15.768  10.577
19983W        W81272   4.278  27.527   3.225
19984W        W81273  38.006  28.988   1.274
19985W        W81274  17.567  21.022  11.490
19986W        W81275  40.909  28.049  10.572
19987W        W81276  38.371  34.608  10.407
19988W        W81277  20.533  25.168  14.016
19989W        W81278   7.891  26.607   4.660
19990W        W81279  10.868  19.151  10.944
19991W        W81280  23.505  23.603  10.490
19992W        W81281   5.202   9.198  12.397
19993W        W81282  43.479  40.968   4.830
19994W        W81283  21.178  12.856  11.940
19995W        W81284   5.338  43.480  14.318
19996W        W81285  34.977   0.815   1.881
19997W        W81286  11.269  23.494  12.400
19998W        W81287  17.665  12.611  11.010
19999W        W81288  30.413  19.063  14.799
20000W        W81289   5.399  23.669  11.470
20001W        W81290  32.085  31.433  10.902
20002W        W81291  13.742  40.007   2.287
20003W        W81292  29.992  17.655  12.361
20004W        W81293  25.107   3.768  10.531
20005W        W81294  27.944  11.338  12.913
20006W        W81295  21.240   1.798  10.447
20007W        W81296  35.516   3.866   5.766
20008W        W81297  16.150  39.467   3.212
20009W        W81298  23.564  29.514   2.765
20010W        W81299  39.940  20.588  14.979
20011W        W81300  28.971   2.266   0.431
20012W        W81301  30.141   0.247  14.792
20013W        W81302  18.162  29.443  14.414
20014W        W81303  18.131  11.631   4.715
20015W        W81304  44.324   3.745  11.884
20016W        W81305  12.183  19.651   3.333
20017W        W81306  32.985  11.730  12.567
20018W        W81307  40.426  34.897   2.796
20019W        W81308  24.646  20.086   3.838
20020W        W81309   4.415  14.634   1.816
20021W        W81310  29.428  41.311  10.957
20022W        W81311  27.518  38.977  13.870
20023W        W81312   9.650  29.661   4.343
20024W        W81313  43.790  26.025  10.915
20025W        W81314  33.073   9.365   4.744
20026W        W81315  37.847  17.612   0.276
20027W        W81316  10.706  42.936  11.427
20028W        W81317   1.416  36.436   4.728
20029W        W81318  10.305  37.975  12.891
20030W        W81319   8.666  43.510   0.730
20031W        W81320  29.512  11.866   3.708
20032W        W81321  27.644  26.601   1.211
20033W        W81322  27.604  17.617   3.240
20034W        W81323   8.241  28.665   1.746
20035W        W81324  18.696  18.725   5.281
20036W        W81325  37.045  22.744   3.704
20037W        W81326  42.301  29.168  10.462
20038W        W81327   2.283  44.767   3.227
20039W        W81328  31.423  43.958   0.936
20040W        W81329   8.788  27.057  10.938
20041W        W81330  15.692  29.519  11.097
20042W        W81331  37.064  17.107  10.557
20043W        W81332  22.660  42.979  13.906
20044W        W81333  26.577  20.605   3.275
20045W        W81334   6.280   9.320  13.988
20046W        W81335  30.929  30.495   4.246
20047W        W81336   8.377  38.938   1.351
20048W        W81337  35.935   8.741   0.365
20049W        W81338  21.515  41.920   0.954
20050W        W81339  26.602   2.303  12.426
20051W        W81340  12.217  11.155  12.007
20052W        W81341  33.905  37.414  12.461
20053W        W81342  28.625  10.354   0.266
20054W        W81343   6.694  41.971  10.644
20055W        W81344  34.453  35.937  14.866
20056W        W81345  35.576  21.152  10.516
20057W        W81346  42.857   2.444   0.782
20058W        W81347  44.479   9.697  14.964
20059W        W81348  38.828  18.644  12.081
20060W        W81349   4.309  38.989  14.827
20061W        W81350   5.736  41.535  10.410
20062W        W81351   4.908  29.503  13.507
20063W        W81352  22.019   5.747   1.814
20064W        W81353  31.900  27.598  11.942
20065W        W81354  43.930  23.709  12.978
20066W        W81355  15.750  42.502  13.063
20067W        W81356  34.982  18.287  10.074
20068W        W81357   3.284  44.486   4.117
20069W        W81358  44.272  10.279   3.313
20070W        W81359  18.706  23.003   2.243
20071W        W81360   6.199  24.027  13.904
20072W        W81361  35.370  30.005  14.844
20073W        W81362  42.938   0.886  13.982
20074W        W81363  10.246  22.072   1.753
20075W        W81364  32.560  18.585   1.882
20076W        W81365   3.293   6.290  10.510
20077W        W81366  34.016  25.190  12.443
20078W        W81367  33.443  28.163  14.377
20079W        W81368  17.630  11.371  12.007
20080W        W81369   8.668   6.195   3.858
20081W        W81370  11.241   8.323   0.475
20082W        W81371  18.134  30.515   4.814
20083W        W81372  35.584  28.465   2.850
20084W        W81373   8.235  20.541  12.461
20085W        W81374  28.990  25.174  13.012
20086W        W81375  21.096  12.652   3.297
20087W        W81376  30.510  41.489   0.886
20088W        W81377   8.851  43.847  12.481
20089W        W81378  34.476  40.831   0.471
20090W        W81379   9.830  12.231   0.433
20091W        W81380  29.546   1.323   0.818
20092W        W81381   9.338   4.247   3.734
20093W        W81382  10.808   9.325  10.932
20094W        W81383  30.070  27.613  11.874
20095W        W81384   4.776  17.158  13.460
20096W        W81385  33.596  36.993   1.221
20097W        W81386  26.204  33.614  12.570
20098W        W81387  12.766   7.287   0.407
20099W        W81388  11.768  31.472  10.553
20100W        W81389   5.874  36.991   3.291
20101W        W81390   2.900  16.145  11.931
20102W        W81391  21.633  15.756   0.796
20103W        W81392  35.460  44.780  14.347
20104W        W81393  28.112   1.801  12.365
20105W        W81394  16.596   1.789  13.546
20106W        W81395  37.973  40.979  12.550
20107W        W81396  11.636  32.550   4.692
20108W        W81397  28.003   6.842  14.870
20109W        W81398  14.771  18.115   2.859
20110W        W81399   5.388   3.430  14.906
20111W        W81400  40.970  38.022  10.417
20112W        W81401  24.126  14.112   3.369
20113W        W81402  43.463   4.708  13.401
20114W        W81403  12.358  14.191  13.018
20115W        W81404  10.228   3.900   3.724
20116W        W81405  21.061  16.712  10.044
20117W        W81406  11.134  24.188   0.327
20118W        W81407  42.872  43.950  12.973
20119W        W81408  18.759  15.231  13.930
20120W        W81409   0.803  26.056   4.151
20121W        W81410  42.901  10.359  13.452
20122W        W81411  15.743  30.596   5.192
20123W        W81412  29.625   3.797   0.344
20124W        W81413  33.122   7.741   2.341
20125W        W81414  25.046  39.325   1.396
20126W        W81415   7.392  15.660   4.213
20127W        W81416  40.989  44.793  11.862
20128W        W81417  41.979  24.584   4.702
20129W        W81418  19.698  43.806   3.662
20130W        W81419  14.193  30.601  14.420
20131W        W81420  28.185  14.298  13.952
20132W        W81421  11.857   8.238   0.476
20133W        W81422  32.490  42.990   0.287
20134W        W81423   4.437  15.757   4.717
20135W        W81424  22.606  36.998   4.349
20136W        W81425  44.790   1.386  10.452
20137W        W81426  38.463   9.675   3.733
20138W        W81427  40.958  19.082  10.443
20139W        W81428  26.489  40.960   4.694
20140W        W81429   3.324  44.958  10.584
20141W        W81430  33.977   4.711  10.579
20142W        W81431  35.980  44.436   4.263
20143W        W81432   3.433  19.633  10.480
20144W        W81433   4.869  11.354  13.022
20145W        W81434  13.611  14.656  14.016
20146W        W81435  15.173  10.175   3.216
20147W        W81436  39.930  13.166  11.567
20148W        W81437  44.390  33.476   1.748
20149W        W81438   6.844  21.534   0.862
20150W        W81439  14.328  15.222   4.332
20151W        W81440   2.747  35.486   1.336
20152W        W81441  34.542  36.956   3.276
20153W        W81442  43.977  22.218  14.883
20154W        W81443  10.340   8.694   4.200
20155W        W81444  13.618  11.260  12.851
20156W        W81445   0.845  28.937   4.215
20157W        W81446  18.592   1.857  13.478
20158W        W81447  22.244  19.171   2.240
20159W        W81448  24.534  24.163  13.528
20160W        W81449  27.197  14.654  14.968
20161W        W81450  14.795  38.383   3.653
20162W        W81451  19.692  22.513  11.376
20163W        W81452  20.197  43.987  11.394
20164W        W81453  22.705   9.797   4.650
20165W        W81454  26.041  23.639   3.823
20166W        W81455  43.311  35.952   5.114
20167W        W81456  14.215  32.516   1.408
20168W        W81457  10.316  40.369   3.150
20169W        W81458  31.554  21.559  14.768
20170W        W81459  29.020  19.071  11.104
20171W        W81460  32.461  44.461  10.142
20172W        W81461  40.993  13.172   4.828
20173W        W81462  26.509  20.221  11.515
20174W        W81463   6.399  40.442  12.514
20175W        W81464  37.988  22.246  14.863
20176W        W81465  11.162  19.716   1.821
20177W        W81466  32.081   2.286   1.263
20178W        W81467  23.510  26.052   3.644
20179W        W81468   9.372  17.304   3.278
20180W        W81469   8.324  31.974  11.967
20181W        W81470   9.792  21.258   5.150
20182W        W81471   6.867  23.232   3.822
20183W        W81472  20.765  16.074   4.139
20184W        W81473  33.623  15.811  12.878
20185W        W81474  37.916  17.146   3.699
20186W        W81475  39.983   8.725  13.349
20187W        W81476  16.305   6.296  13.912
20188W        W81477  33.560  17.658   4.136
20189W        W81478   9.358  11.707   2.381
20190W        W81479  22.152  18.283   1.823
20191W        W81480  38.939  30.018  10.466
20192W        W81481  21.585  22.647  12.524
20193W        W81482  31.608  27.460  11.985
20194W        W81483  24.981  43.327  13.547
20195W        W81484  41.909   7.294   2.293
20196W        W81485  34.446  11.790   3.657
20197W        W81486  41.436  39.533   4.710
20198W        W81487   7.349  28.065   9.928
20199W        W81488   3.737  38.496   2.272
20200W        W81489   7.901  43.332   3.298
20201W        W81490  16.604  20.186   4.197
20202W        W81491   8.848   3.344   1.735
20203W        W81492  22.212  38.032  10.603
20204W        W81493   0.480  30.536  12.401
20205W        W81494  36.053  24.025   0.397
20206W        W81495  10.184  31.084   2.829
20207W        W81496   4.812  35.866   1.778
20208W        W81497  26.518  36.354   0.763
20209W        W81498   8.669  10.855  12.045
20210W        W81499   0.912  10.354  13.415
20211W        W81500  37.558   7.855   0.732
20212W        W81501  29.964  11.177  13.063
20213W        W81502   6.868  38.554  14.891
20214W        W81503   3.772   6.327   1.283
20215W        W81504  15.301  12.637   4.800
20216W        W81505   8.810  18.120  11.528
20217W        W81506  33.589  39.452  12.519
20218W        W81507  35.886   9.656  12.424
20219W        W81508  38.879  20.242   4.184
20220W        W81509  32.963  41.486   0.426
20221W        W81510  28.647  10.801   4.180
20222W        W81511  23.178  29.151   4.335
20223W        W81512   8.402  19.209  11.889
20224W        W81513  16.652  13.197  11.510
20225W        W81514  40.501  36.966  10.956
20226W        W81515  44.429   7.405  12.396
20227W        W81516  33.602  28.453   4.349
20228W        W81517   0.815   4.294   2.890
20229W        W81518  40.041  38.456  11.490
20230W        W81519   0.896  30.008   3.386
20231W        W81520  35.048   5.754   3.742
20232W        W81521   4.801  35.603  10.405
20233W        W81522   3.924  31.470   4.804
20234W        W81523  26.201   9.237  12.895
20235W        W81524  24.113  36.497   1.857
20236W        W81525  30.576  21.597   0.379
20237W        W81526  39.500   6.695  10.579
20238W        W81527  24.512  10.371   1.253
20239W        W81528  19.153  32.634   3.765
20240W        W81529  41.969  34.372  10.069
20241W        W81530   0.437   9.737  12.874
20242W        W81531  26.019  44.831   3.177
20243W        W81532  43.378   2.386   2.306
20244W        W81533  22.575  21.187   3.305
20245W        W81534   0.386  43.904  13.807
20246W        W81535  40.965  39.548  10.470
20247W        W81536  44.804   1.804  12.513
20248W        W81537  33.491   1.408   1.886
20249W        W81538  10.172   3.357  12.851
20250W        W81539   7.307  21.239   2.359
20251W        W81540  19.240  21.698  12.558
20252W        W81541  28.539  44.780   1.837
20253W        W81542  28.959  31.112   3.862
20254W        W81543   9.805  31.526   2.833
20255W        W81544   3.369  23.011   1.245
20256W        W81545  32.543   4.908  10.577
20257W        W81546  36.376  23.161   3.704
20258W        W81547  18.545  37.452   3.728
20259W        W81548  14.596  22.228   3.280
20260W        W81549  17.192   6.756  14.833
20261W        W81550  41.012  40.414   4.115
20262W        W81551  41.920   9.347   2.890
20263W        W81552  26.138  34.519  13.861
20264W        W81553  15.742  31.941  14.480
20265W        W81554  34.116   0.290  12.839
20266W        W81555  42.919   3.261  12.913
20267W        W81556  17.165   9.765   3.359
20268W        W81557   6.318  28.139   4.647
20269W        W81558  38.349  28.075   3.803
20270W        W81559  41.028  34.883   3.160
20271W        W81560  26.654  20.595  14.889
20272W        W81561   5.230  39.327  11.956
20273W        W81562  31.047  21.639   1.782
20274W        W81563   6.200  44.306  11.378
20275W        W81564   5.217  32.634  14.980
20276W        W81565  28.948  34.935   1.702
20277W        W81566   8.334  17.074   2.775
20278W        W81567   7.893  28.446  12.874
20279W        W81568   1.394  41.482  12.923
20280W        W81569  29.919  10.676  13.879
20281W        W81570  27.947  20.594   4.779
20282W        W81571  29.986  29.121   1.875
20283W        W81572  28.554  38.042   1.257
20284W        W81573  30.520  12.807  14.371
20285W        W81574  10.746   2.308   3.272
20286W        W81575  39.555  10.152   0.457
20287W        W81576  38.058  43.478   3.651
20288W        W81577  32.062  24.100  11.050
20289W        W81578  44.322  41.977  11.494
20290W        W81579   1.345  23.107  13.028
20291W        W81580  14.111   5.868   4.316
20292W        W81581  25.020  20.661  12.017
20293W        W81582  24.028   9.168   2.802
20294W        W81583   8.829  37.473  13.332
20295W        W81584  32.451  37.847   2.226
20296W        W81585  19.551  35.943   4.759
20297W        W81586  37.410  28.046  11.990
20298W        W81587  32.024  26.201   1.449
20299W        W81588  19.185  13.727  11.458
20300W        W81589  18.707  39.884  13.312
20301W        W81590  40.434  39.349  12.973
20302W        W81591  36.862  26.167  12.527
20303W        W81592   8.320  40.999  10.620
20304W        W81593  43.465  15.158  11.064
20305W        W81594   2.788  10.855  10.612
20306W        W81595  43.485  11.724   5.096
20307W        W81596  23.206   1.825  10.928
20308W        W81597  39.833  20.662   0.468
20309W        W81598  20.150   4.300   1.217
20310W        W81599  25.195   8.831   0.265
20311W        W81600   7.412  37.971  12.339
20312W        W81601  11.285  25.621  13.892
20313W        W81602  32.443  30.972   2.737
20314W        W81603   1.480  34.442  14.853
20315W        W81604  23.052  18.629   0.308
20316W        W81605  43.940   4.720  14.995
20317W        W81606   3.823  41.375   0.378
20318W        W81607  26.092  32.518  10.638
20319W        W81608  25.139  25.120   2.861
20320W        W81609  26.608  21.583   1.422
20321W        W81610  14.830  44.347  11.881
20322W        W81611  37.488  34.475  11.492
20323W        W81612  42.490   5.390  11.031
20324W        W81613   1.353  27.978  13.872
20325W        W81614  28.044  12.225   0.781
20326W        W81615   5.762  34.111   0.806
20327W        W81616  41.937  23.700  12.985
20328W        W81617  41.515  34.088   4.121
20329W        W81618  42.374   9.369   0.405
20330W        W81619  31.999   7.870  12.967
20331W        W81620   9.770  11.352  12.080
20332W        W81621  35.888  37.921   2.712
20333W        W81622  20.091  32.030   3.259
20334W        W81623  23.606   1.413  10.944
20335W        W81624  27.078  17.077  10.615
20336W        W81625  44.364  39.388  12.446
20337W        W81626   7.374   2.943  13.892
20338W        W81627  40.332  23.167  10.533
20339W        W81628  34.084   2.916   3.318
20340W        W81629   3.342   0.765  14.305
20341W        W81630  13.819  32.105  11.891
20342W        W81631  40.936   1.791   0.804
20343W        W81632  25.133   2.388   1.750
20344W        W81633  32.421   4.219   2.741
20345W        W81634  35.439  27.012   2.240
20346W        W81635  32.626  24.183   0.425
20347W        W81636   7.296   3.281  12.381
20348W        W81637  30.103  33.125  11.880
20349W        W81638  16.738   1.410  13.312
20350W        W81639  37.896  39.560  10.890
20351W        W81640  19.054   6.793   4.834
20352W        W81641  11.840   8.678   1.775
20353W        W81642  22.056   9.656  12.519
20354W        W81643  17.092   5.795  10.103
20355W        W81644  10.782  44.301  13.438
20356W        W81645  30.022  33.051   1.737
20357W        W81646  20.074  12.634   1.724
20358W        W81647  39.388   3.326   3.826
20359W        W81648   3.436  15.248   4.177
20360W        W81649  17.739  16.753   3.742
20361W        W81650  24.206  31.600   2.744
20362W        W81651  29.670   2.405   0.430
20363W        W81652  16.597  22.512  12.938
20364W        W81653  41.386  11.736  13.848
20365W        W81654  14.227  18.098   2.862
20366W        W81655  27.163  16.095   0.739
20367W        W81656   5.749   0.912  13.004
20368W        W81657   3.907  28.020  10.040
20369W        W81658  29.114  23.498   2.781
20370W        W81659  32.961  41.352   4.801
20371W        W81660  15.602  24.575   0.323
20372W        W81661  18.283  33.070  12.553
20373W        W81662  11.199  36.988  14.759
20374W        W81663   7.378  32.091   2.697
20375W        W81664  40.797  29.938  12.857
20376W        W81665   1.971  41.328   4.236
20377W        W81666  21.678  34.441  12.521
20378W        W81667  24.994  43.808  14.371
20379W        W81668  20.567  42.888  12.944
20380W        W81669  21.198   4.768  11.572
20381W        W81670   3.280  11.136   1.846
20382W        W81671  37.031  40.957  11.578
20383W        W81672  42.811  29.943  10.452
20384W        W81673   5.918  36.416  12.399
20385W        W81674  32.560  12.853   0.444
20386W        W81675  20.531  31.493  13.449
20387W        W81676  28.577  27.993   0.760
20388W        W81677  17.183   4.811  14.343
20389W        W81678   6.350  29.664   1.861
20390W        W81679  27.534   1.818  10.912
20391W        W81680  33.907   2.930   2.367
20392W        W81681  33.478  26.562  13.941
20393W        W81682  28.008  34.464  12.446
20394W        W81683  23.499   9.358   0.877
20395W        W81684  13.710  15.135  14.422
20396W        W81685   3.229  31.151  10.614
20397W        W81686  26.177  38.477   1.914
20398W        W81687  23.595  26.109  11.461
20399W        W81688  35.913  26.173  11.044
20400W        W81689  24.635  17.750   3.771
20401W        W81690   3.274  41.943   2.820
20402W        W81691   8.845  36.443  12.455
20403W        W81692  37.952  19.639   4.295
20404W        W81693  23.592   8.191   2.398
20405W        W81694  41.948  37.956  13.505
20406W        W81695  22.638   5.832  12.061
20407W        W81696  34.926  33.468   2.326
20408W        W81697   0.290   9.323  13.004
20409W        W81698  39.400  38.986   9.939
20410W        W81699   8.342  32.948   0.925
20411W        W81700  22.198   5.745   4.798
20412W        W81701   1.414  40.822   2.885
20413W        W81702  18.614   8.865   4.147
20414W        W81703  12.278   1.315  14.999
20415W        W81704   2.400  37.959   1.878
20416W        W81705  18.180  29.973   0.898
20417W        W81706  24.589  25.635  10.427
20418W        W81707  40.494   6.216  11.964
20419W        W81708  31.922  32.532  11.871
20420W        W81709   1.466  33.067  11.071
20421W        W81710  20.269  42.453   1.708
20422W        W81711  10.299   2.374   3.721
20423W        W81712  11.783  33.482  11.531
20424W        W81713  22.140  38.870   3.220
20425W        W81714  25.600  39.023  13.940
20426W        W81715   3.918  33.438   4.761
20427W        W81716   8.169  22.024   3.734
20428W        W81717  22.546  24.508   3.275
20429W        W81718  22.036  29.116   3.753
20430W        W81719  44.463  33.985   4.610
20431W        W81720  41.975  20.539   2.396
20432W        W81721  32.020   1.740  12.048
20433W        W81722  13.748  32.913   0.421
20434W        W81723  15.802  43.935   0.889
20435W        W81724  28.569  27.964   2.734
20436W        W81725  40.861  34.506   3.171
20437W        W81726   5.867   1.845  11.394
20438W        W81727  23.085  43.843   0.372
20439W        W81728   6.248  43.815  11.612
20440W        W81729  21.050  31.004  13.933
20441W        W81730  30.039  14.305   0.249
20442W        W81731   7.303   4.869   2.716
20443W        W81732  10.710   9.870   3.740
20444W        W81733   6.735  16.580   0.335
20445W        W81734  31.445  29.491   1.331
20446W        W81735  35.538  28.560   4.774
20447W        W81736   7.742  14.142  11.537
20448W        W81737   2.836  41.927  10.580
20449W        W81738  22.025  42.328  13.061
20450W        W81739  32.487  10.383   1.907
20451W        W81740  44.495  10.155   3.866
20452W        W81741  29.075  40.054  11.035
20453W        W81742   6.905  15.158  13.822
20454W        W81743  24.039   4.388  14.866
20455W        W81744  11.858  22.160   0.778
20456W        W81745  42.851  23.002   0.451
20457W        W81746  31.562  42.903  14.803
20458W        W81747  28.554   7.335  13.416
20459W        W81748   7.845  23.067  12.969
20460W        W81749  30.490  25.009   2.252
20461W        W81750   1.412  13.169  14.905
20462W        W81751  23.990  27.013  11.113
20463W        W81752   9.166   2.389  12.863
20464W        W81753   7.786  39.855  12.567
20465W        W81754  18.684  27.681   1.697
20466W        W81755  26.142  11.148   2.232
20467W        W81756  17.153  37.409  11.509
20468W        W81757  24.529  20.147   4.769
20469W        W81758  36.479  28.083   3.294
20470W        W81759  44.410  12.641  12.488
20471W        W81760   8.211  20.673  12.081
20472W        W81761  38.031  13.811  14.361
20473W        W81762  36.056  12.234   1.359
20474W        W81763  30.495  39.399  10.454
20475W        W81764  11.704  14.737   0.765
20476W        W81765  12.313  20.708  12.439
20477W        W81766  24.129  35.536   2.402
20478W        W81767  27.025   6.350   2.724
20479W        W81768  12.784   1.402   3.670
20480W        W81769   7.911   5.410   1.375
20481W        W81770   8.852  17.255   5.240
20482W        W81771  34.497  31.497  12.512
20483W        W81772  16.645  25.468  10.634
20484W        W81773  22.024  15.672   1.843
20485W        W81774   8.239  19.242  10.991
20486W        W81775   4.787  15.688   0.855
20487W        W81776  34.917  26.528  13.880
20488W        W81777  39.375  25.703   4.199
20489W        W81778  32.990  10.236  13.902
20490W        W81779  30.101  10.826   3.177
20491W        W81780  21.532  24.137   0.326
20492W        W81781   3.882  37.343   1.822
20493W        W81782  39.487  24.489  13.829
20494W        W81783  34.502  16.632  10.640
20495W        W81784  39.028   6.368  10.919
20496W        W81785   5.303  11.782   2.802
20497W        W81786  11.130  34.540  13.413
20498W        W81787  25.710  24.978  13.888
20499W        W81788  11.206  28.534   1.368
20500W        W81789  22.703  27.953  11.856
20501W        W81790   2.955   4.364   2.270
20502W        W81791  20.122   6.388   4.606
20503W        W81792   8.285  20.526  11.482
20504W        W81793   0.972  32.010  10.483
20505W        W81794  40.912  16.633   0.731
20506W        W81795  15.824   2.257   2.688
20507W        W81796  25.477  44.413   2.786
20508W        W81797   4.767  18.707   0.341
20509W        W81798  14.810   7.411  14.327
20510W        W81799   4.270  43.979   4.340
20511W        W81800  43.926  34.965   3.650
20512W        W81801  15.269  26.663  13.409
20513W        W81802   2.948  20.169  11.956
20514W        W81803  38.823  13.221  13.895
20515W        W81804  35.469  43.806  13.026
20516W        W81805  14.614  42.874   1.298
20517W        W81806   4.870  13.740  14.905
20518W        W81807  20.055  24.125  12.916
20519W        W81808   4.417  24.629   0.307
20520W        W81809  18.162  32.086   2.297
20521W        W81810   8.829  18.051   0.335
20522W        W81811  34.414   1.749  11.039
20523W        W81812  40.024  39.039  10.591
20524W        W81813  41.933  25.569   4.208
20525W        W81814  31.064   5.335   1.935
20526W        W81815   7.231   9.207  13.396
20527W        W81816  31.093  22.063  14.895
20528W        W81817  15.304  30.152   0.383
20529W        W81818  23.172   3.753  12.407
20530W        W81819  21.232  10.776   2.345
20531W        W81820   1.935  40.392  13.835
20532W        W81821   8.248  13.684   1.343
20533W        W81822  40.929   0.895   1.333
20534W        W81823  30.110  39.868   0.353
20535W        W81824  13.761  23.143   2.229
20536W        W81825  13.633  26.691  11.108
20537W        W81826   0.477   0.302   1.715
20538W        W81827  12.824  38.324  13.948
20539W        W81828   8.794  10.801  12.453
20540W        W81829  33.097  25.977   3.719
20541W        W81830   4.359  22.995   0.423
20542W        W81831  21.603  17.147  10.912
20543W        W81832  43.784   8.265   4.155
20544W        W81833  13.679   2.960  11.587
20545W        W81834  12.792  24.597   2.870
20546W        W81835  31.087   8.889  12.879
20547W        W81836  28.010  16.700   1.298
20548W        W81837  38.542  31.552  13.401
20549W        W81838  18.568  21.188   4.679
20550W        W81839  23.154   2.315   2.190
20551W        W81840   3.268  24.202  14.973
20552W        W81841   3.217  36.532   4.281
20553W        W81842  40.958  35.600   1.248
20554W        W81843  29.592  38.893   3.738
20555W        W81844   0.287   2.398  12.831
20556W        W81845  35.592  33.496  12.873
20557W        W81846  14.775  23.725   2.752
20558W        W81847  15.209  18.174   3.190
20559W        W81848  29.603  15.588   1.856
20560W        W81849  14.203  22.669  14.834
20561W        W81850   4.446   5.904  13.882
20562W        W81851  25.088   2.863   3.336
20563W        W81852   2.929   7.693  12.066
20564W        W81853   0.334  10.698  13.797
20565W        W81854  13.250  35.925  14.771
20566W        W81855   6.812  26.200  11.990
20567W        W81856  31.466   8.340   1.721
20568W        W81857  13.190  22.616  14.867
20569W        W81858  20.055   7.273  13.548
20570W        W81859   6.258  23.028  12.471
20571W        W81860  12.627   6.692  12.367
20572W        W81861  11.790   0.481  11.478
20573W        W81862  11.639  28.462   3.170
20574W        W81863   3.816   5.377   4.692
20575W        W81864  14.180  20.623  11.418
20576W        W81865   8.216  29.948   4.302
20577W        W81866   8.344  44.928   4.205
20578W        W81867  41.442  36.883   2.334
20579W        W81868  17.152  43.411  14.433
20580W        W81869  34.409  34.392  13.360
20581W        W81870  27.014  15.243  10.510
20582W        W81871  12.663  26.104  14.972
20583W        W81872  31.555  41.295   2.751
20584W        W81873  10.167   2.404  12.540
20585W        W81874  20.241   6.213  10.148
20586W        W81875   5.329  23.726   1.746
20587W        W81876  21.530  34.377  13.851
20588W        W81877   8.245   5.276   4.703
20589W        W81878  25.972  10.173  12.447
20590W        W81879  34.949  16.760  13.392
20591W        W81880  31.994  19.133  14.381
20592W        W81881  43.988  41.438   0.732
20593W        W81882  38.383   2.299  12.392
20594W        W81883  20.540  31.982   0.426
20595W        W81884   0.342   1.759  14.447
20596W        W81885  10.845  37.364   3.751
20597W        W81886  44.423  16.213   1.775
20598W        W81887   9.790  28.611   3.260
20599W        W81888  42.889  28.029   0.883
20600W        W81889   1.956  24.608   2.715
20601W        W81890  32.120   8.750  14.392
20602W        W81891  42.325  24.153  11.396
20603W        W81892   5.268   0.843  12.862
20604W        W81893  32.053  21.037   0.337
20605W        W81894  40.462  38.940   1.889
20606W        W81895  20.604  39.490  13.932
20607W        W81896  22.730   3.224   9.961
20608W        W81897  19.726   1.737   1.424
20609W        W81898  41.928  38.328  12.344
20610W        W81899  31.137  20.697   3.382
20611W        W81900   2.304  29.966   2.878
20612W        W81901  15.106  26.201  11.889
20613W        W81902  12.166  16.137   2.231
20614W        W81903  16.312   8.723   1.918
20615W        W81904  38.440  43.303   1.264
20616W        W81905  22.577  19.076   0.857
20617W        W81906  36.074   5.389   2.840
20618W        W81907   3.809  28.935  11.932
20619W        W81908  42.855  20.053   4.604
20620W        W81909  27.576  31.151   3.247
20621W        W81910  26.106  21.734   3.841
20622W        W81911   7.831  10.193  13.541
20623W        W81912  41.898  37.421   2.198
20624W        W81913  35.910  11.304  10.461
20625W        W81914  28.183  17.781   2.220
20626W        W81915  12.761   9.826   4.258
20627W        W81916  23.495  15.639  14.005
20628W        W81917  16.616  40.314   0.262
20629W        W81918  28.982  30.541   1.746
20630W        W81919  42.903   4.900   2.241
20631W        W81920  13.138  13.242  13.861
20632W        W81921  40.520  24.563  13.454
20633W        W81922  32.960  32.108   1.840
20634W        W81923  33.114  21.190  12.579
20635W        W81924   4.238  30.992   4.143
20636W        W81925  36.002  35.044   1.334
20637W        W81926   1.835  21.684  13.061
20638W        W81927  11.860  19.090  12.570
20639W        W81928  12.146  11.624  12.893
20640W        W81929  11.168  14.742   3.720
20641W        W81930  11.291  44.806  11.594
20642W        W81931  20.155  17.254  14.944
20643W        W81932  31.044  11.244  11.977
20644W        W81933  37.049  10.748   1.797
20645W        W81934  12.737  10.150  12.429
20646W        W81935  23.232  15.663   0.325
20647W        W81936  18.087   6.230   2.273
20648W        W81937  15.253  22.707   1.701
20649W        W81938  44.977  33.038   3.306
20650W        W81939  22.505  10.344  11.405
20651W        W81940  26.620  11.821  10.543
20652W        W81941  17.739  43.877  14.284
20653W        W81942  21.542  17.713  14.379
20654W        W81943   1.790  22.193   1.733
20655W        W81944  15.229  35.022  14.969
20656W        W81945  26.077   9.729  13.492
20657W        W81946   2.741  11.781  12.016
20658W        W81947  29.568  27.050  14.443
20659W        W81948   9.182  30.984   0.793
20660W        W81949  34.404  37.069  11.973
20661W        W81950   9.747   5.786  11.958
20662W        W81951  37.436   1.954   3.279
20663W        W81952  20.747  11.721   4.281
20664W        W81953  33.528  15.669  13.455
20665W        W81954   5.895  15.180   4.694
20666W        W81955  37.419  17.796   3.198
20667W        W81956  38.873  15.120   3.852
20668W        W81957  31.997  36.042  14.396
20669W        W81958  24.221  39.448   4.705
20670W        W81959  35.506  21.210  13.440
20671W        W81960  18.143   4.869   0.244
20672W        W81961  37.031   7.848  13.879
20673W        W81962  29.663  13.719  11.540
20674W        W81963  27.089   6.272   1.763
20675W        W81964  40.488  22.161   3.211
20676W        W81965  41.005   9.728  12.965
20677W        W81966  22.084  43.285   4.747
20678W        W81967  12.653  13.224  12.032
20679W        W81968  34.493  20.729   4.258
20680W        W81969  22.214  12.793   2.777
20681W        W81970  12.675  23.583   2.752
20682W        W81971  41.993   6.413   1.303
20683W        W81972  19.172   1.802  12.829
20684W        W81973   1.242  15.601   2.194
20685W        W81974   2.319  17.260  13.387
20686W        W81975  42.455  22.535  14.910
20687W        W81976  29.625  40.437  10.002
20688W        W81977  14.694  27.074  14.836
20689W        W81978  10.691   0.416  14.763
20690W        W81979  40.960  35.426  14.986
20691W        W81980  13.796   8.747  12.566
20692W        W81981  35.485  42.487  14.412
20693W        W81982  12.358  23.684   9.608
20694W        W81983   3.837   2.935   0.440
20695W        W81984  26.651  32.900   3.319
20696W        W81985  18.639  23.634  14.818
20697W        W81986  38.962   0.896  11.499
20698W        W81987  21.053   3.940  12.831
20699W        W81988  39.976  37.400   3.687
20700W        W81989  30.948  40.513  11.494
20701W        W81990  40.968  41.893   2.314
20702W        W81991   9.246   7.184  14.012
20703W        W81992  30.107  41.320  12.400
20704W        W81993  17.733  18.592  13.435
20705W        W81994   0.977  35.571   3.723
20706W        W81995  13.674  11.193  13.472
20707W        W81996  32.078  38.001  10.519
20708W        W81997  20.559   4.372  13.864
20709W        W81998   5.932  43.842   2.299
20710W        W81999  14.652  27.469   1.923
20711W        W82000  19.764  34.463   0.483
20712W        W82001  21.122  28.613  14.330
20713W        W82002  13.707  13.608  14.303
20714W        W82003  40.450  27.563   4.258
20715W        W82004  20.202  11.295   4.638
20716W        W82005  41.905  21.050  11.476
20717W        W82006  19.092   7.416   4.618
20718W        W82007  18.747  23.596  10.623
20719W        W82008  25.977  34.894   4.804
20720W        W82009  20.229  36.523   4.170
20721W        W82010  29.485  33.901  13.403
20722W        W82011   6.415  15.152  14.340
20723W        W82012  28.017   9.763   3.655
20724W        W82013   8.844  43.353   2.214
20725W        W82014  15.762  21.741  10.638
20726W        W82015  25.607   5.416   0.859
20727W        W82016  34.537  27.675  11.036
20728W        W82017  11.314   0.819   0.244
20729W        W82018  40.012  40.546   2.681
20730W        W82019  19.676  15.597  13.461
20731W        W82020   8.222   7.352   1.429
20732W        W82021  31.577  42.985   1.237
20733W        W82022   6.264  12.324  10.965
20734W        W82023  26.037  15.106   1.279
20735W        W82024  30.499   9.804  10.585
20736W        W82025   8.319   8.837   2.673
20737W        W82026  16.286  22.704   1.228
20738W        W82027  31.511  29.981   0.864
20739W        W82028  34.935   8.693   0.424
20740W        W82029  22.087  26.649   3.201
20741W        W82030  24.650   8.330   5.641
20742W        W82031   1.261   7.832  13.519
20743W        W82032  23.659   2.745  12.565
20744W        W82033  35.532  21.679  13.016
20745W        W82034  29.151   4.409  10.608
20746W        W82035  15.162   7.413   2.799
20747W        W82036  16.256  11.853  11.487
20748W        W82037  41.395  42.912  13.012
20749W        W82038  10.639  42.994  11.118
20750W        W82039  10.857  20.546  10.550
20751W        W82040  11.248  14.276   4.345
20752W        W82041  15.089  15.591  11.953
20753W        W82042  19.605   3.747   3.759
20754W        W82043  42.294  31.993   1.892
20755W        W82044  34.076  23.703   1.807
20756W        W82045  30.449  40.896   2.768
20757W        W82046  18.062  24.128  11.495
20758W        W82047   2.377   0.290   2.887
20759W        W82048  31.482  28.056  14.368
20760W        W82049  28.676  15.085  12.057
20761W        W82050  39.506  38.344   1.736
20762W        W82051   1.869   9.301   0.830
20763W        W82052   3.766  35.043  10.479
20764W        W82053  27.514  38.891   3.364
20765W        W82054  42.982  35.430  14.991
20766W        W82055  13.734  21.718   2.745
20767W        W82056  27.509   8.697   3.756
20768W        W82057  34.877  23.575  12.978
20769W        W82058  21.651   3.424  14.378
20770W        W82059  13.182  15.106  10.485
20771W        W82060   6.207  26.018   3.196
20772W        W82061  20.710  31.521   2.738
20773W        W82062  44.004  34.590   4.234
20774W        W82063  21.538  18.221  13.867
20775W        W82064  41.924   1.344  13.852
20776W        W82065   8.207  12.130  14.408
20777W        W82066   0.806  22.505   0.274
20778W        W82067  20.190  29.495  14.479
20779W        W82068  25.557  25.502  14.447
20780W        W82069  21.065  17.084   2.373
20781W        W82070   6.869  22.704   5.660
20782W        W82071  37.974  36.969   1.896
20783W        W82072  14.254  29.163  12.898
20784W        W82073  38.840  10.199   9.934
20785W        W82074  22.747  17.761  14.946
20786W        W82075  33.900   4.837   2.193
20787W        W82076  18.232  20.259   0.416
20788W        W82077   4.726  21.134  13.899
20789W        W82078  11.279  30.417   4.771
20790W        W82079  22.667  20.581   0.472
20791W        W82080  13.259   7.275   1.899
20792W        W82081  30.966  44.475   3.347
20793W        W82082   1.958  43.885   4.256
20794W        W82083  39.946  32.912  11.905
20795W        W82084  35.911   3.333   0.339
20796W        W82085   4.270   8.196   0.750
20797W        W82086  35.024  40.987   1.448
20798W        W82087  43.838  42.813  11.555
20799W        W82088  33.074  20.117  11.981
20800W        W82089  10.357  20.050  10.563
20801W        W82090  22.628  28.498  14.952
20802W        W82091  23.631  14.319  13.974
20803W        W82092  32.431  25.141   0.410
20804W        W82093  15.597  20.111  13.034
20805W        W82094  26.198   1.864   1.294
20806W        W82095  24.565  14.234  13.008
20807W        W82096  30.431  35.383  11.392
20808W        W82097  14.791   3.927  12.904
20809W        W82098  38.826   3.782  13.874
20810W        W82099  14.735   9.711  12.024
20811W        W82100  39.506  22.677  10.029
20812W        W82101  36.430  19.188  12.921
20813W        W82102  38.547  27.192   4.744
20814W        W82103  41.797   7.766   3.173
20815W        W82104  32.424  35.434   4.835
20816W        W82105   2.962  39.423  10.972
20817W        W82106   9.761  44.779   3.368
20818W        W82107  20.739   6.746  12.858
20819W        W82108   6.241  21.081  12.421
20820W        W82109  10.729  25.979  12.480
20821W        W82110  35.525  33.046  11.598
20822W        W82111  44.386  39.350   3.356
20823W        W82112  10.223  44.451  11.024
20824W        W82113  11.798  42.801  14.972
20825W        W82114   9.759  42.495  13.356
20826W        W82115  25.646   3.313  14.846
20827W        W82116  26.564   6.271  14.936
20828W        W82117  16.659  33.993   2.668
20829W        W82118  32.595  26.487   1.879
20830W        W82119  31.135  11.280  10.968
20831W        W82120   5.388  29.095   1.395
20832W        W82121  16.804  29.651   1.311
20833W        W82122  37.969  18.615  13.366
20834W        W82123  23.667  29.635   0.886
20835W        W82124   8.836  24.699  11.584
20836W        W82125  42.382  32.037  11.392
20837W        W82126  33.886   1.881  13.994
20838W        W82127  40.347  10.674   4.651
20839W        W82128   5.806  15.147   3.204
20840W        W82129  18.755  25.024  10.434
20841W        W82130   6.308   5.230  12.457
20842W        W82131   5.931  16.304   4.808
20843W        W82132  17.740  11.135  13.489
20844W        W82133  17.194  39.019   1.869
20845W        W82134  14.640  23.680  10.459
20846W        W82135  39.372  15.822   4.145
20847W        W82136  40.363  40.968  12.395
20848W        W82137  23.200  18.553  12.524
20849W        W82138  26.547  17.078  10.419
20850W        W82139  35.968   0.926  13.827
20851W        W82140  10.198  39.823   4.694
20852W        W82141  38.045   8.855  14.859
20853W        W82142  18.664  36.510  10.422
20854W        W82143   6.327   4.917  11.520
20855W        W82144  16.116   9.787  11.943
20856W        W82145  32.900  37.357  14.771
20857W        W82146  11.768  16.175  11.023
20858W        W82147  11.718  27.049  10.429
20859W        W82148  40.407  32.535   0.262
20860W        W82149   0.382  19.224  12.484
20861W        W82150  24.649  33.988  13.405
20862W        W82151  11.774  28.093   2.895
20863W        W82152  18.772  28.649  14.005
20864W        W82153  20.589   3.220  14.827
20865W        W82154  22.728  41.869  11.530
20866W        W82155  18.113  11.271  13.336
20867W        W82156  31.110  11.757   0.406
20868W        W82157  22.680  35.889   2.188
20869W        W82158  17.799  42.502   1.368
20870W        W82159  26.665   0.327   4.655
20871W        W82160   6.351  44.799  11.402
20872W        W82161  35.930  17.074   1.879
20873W        W82162   7.780   6.734   1.917
20874W        W82163   3.342  40.407  12.522
20875W        W82164  29.945  23.096   4.820
20876W        W82165  26.991  18.106   4.730
20877W        W82166  41.816  16.294  12.407
20878W        W82167  11.132  43.873   1.846
20879W        W82168  23.064  25.214   4.229
20880W        W82169   9.881  10.733   4.147
20881W        W82170  34.100   8.804   1.262
20882W        W82171  10.738  42.845   2.188
20883W        W82172  37.387  24.137  14.758
20884W        W82173  43.441   5.703   4.749
20885W        W82174   9.221  36.083   2.692
20886W        W82175  34.543  32.454   0.847
20887W        W82176  29.090  30.550  14.278
20888W        W82177  42.025  44.386   2.371
20889W        W82178  12.721   3.865  14.322
20890W        W82179  21.028  27.029  12.937
20891W        W82180  34.472  31.146  14.812
20892W        W82181  40.517  12.312   0.869
20893W        W82182  17.585  37.995   4.339
20894W        W82183  42.308  33.533   0.957
20895W        W82184  27.470  33.492   0.275
20896W        W82185   0.931  32.541  10.522
20897W        W82186   6.827  17.287   3.757
20898W        W82187  10.670   7.290  11.049
20899W        W82188  36.022  43.465   4.226
20900W        W82189  11.721  27.988   9.974
20901W        W82190  20.685  21.593  12.908
20902W        W82191   8.887  31.961  12.833
20903W        W82192   7.242  31.118   4.616
20904W        W82193  37.485  40.363   4.780
20905W        W82194  24.050  13.669   4.704
20906W        W82195   7.676  27.454  12.505
20907W        W82196  13.724  16.723  14.429
20908W        W82197  30.971  37.566   4.162
20909W        W82198   8.679  32.540   0.385
20910W        W82199  29.538   5.699  10.611
20911W        W82200  34.955  43.822  14.765
20912W        W82201  17.221   5.312   2.783
20913W        W82202  22.060  31.556   0.899
20914W        W82203  19.213  27.562   1.787
20915W        W82204  21.518  36.403   3.253
20916W        W82205  11.841   9.668  13.368
20917W        W82206  34.513   4.343   2.215
20918W        W82207  16.759  32.604  13.483
20919W        W82208   8.782  16.107   0.857
20920W        W82209  18.050  24.612   2.206
20921W        W82210  24.672  38.546   4.750
20922W        W82211  31.611  32.993   4.712
20923W        W82212  19.173  22.553  11.104
20924W        W82213   6.800  23.609  10.104
20925W        W82214  15.622  40.527   1.273
20926W        W82215  39.505  37.433   3.230
20927W        W82216   5.776   0.307   3.646
20928W        W82217   3.287  42.980   4.346
20929W        W82218  44.407  19.551   0.477
20930W        W82219  25.102   6.678   2.293
20931W        W82220   7.907   8.395  10.610
20932W        W82221  43.949  27.487  11.128
20933W        W82222  11.301  18.569  11.059
20934W        W82223  20.086  29.969   2.237
20935W        W82224  14.622  32.636   2.848
20936W        W82225  37.537  19.615   2.262
20937W        W82226  30.468   8.829   0.455
20938W        W82227   9.358  19.551  10.601
20939W        W82228  34.578  26.484  11.578
20940W        W82229  19.047  20.165   2.708
20941W        W82230   8.363  40.930   1.244
20942W        W82231  12.180  38.871   2.418
20943W        W82232  27.462  10.315   3.198
20944W        W82233  16.129   5.831  12.985
20945W        W82234   1.426   3.777  12.516
20946W        W82235  43.000  29.600   4.605
20947W        W82236  34.565  33.893   3.778
20948W        W82237   3.455   8.763  13.363
20949W        W82238  13.819  21.228  11.402
20950W        W82239  16.292  39.422   2.696
20951W        W82240  29.613  40.384   3.297
20952W        W82241  20.599  42.884   2.700
20953W        W82242   8.818  33.987  10.104
20954W        W82243  12.135  38.490  11.874
20955W        W82244  27.021  17.163  11.569
20956W        W82245   1.881   6.721   1.283
20957W        W82246  10.648  10.181  12.961
20958W        W82247  40.032  31.062   4.343
20959W        W82248   1.804  15.617  11.052
20960W        W82249  32.095  16.258  13.347
20961W        W82250  10.146  15.807   0.396
20962W        W82251  34.378  14.622  11.048
20963W        W82252  15.714   7.288   0.461
20964W        W82253  24.499  20.554   5.190
20965W        W82254  28.038  30.019  10.089
20966W        W82255  13.179  11.715  14.409
20967W        W82256  27.585  32.047  11.926
20968W        W82257  41.960  21.241  12.055
20969W        W82258  35.878  11.160   1.800
20970W        W82259   1.388  20.554  13.826
20971W        W82260  22.505  14.825   2.254
20972W        W82261  34.061  30.934   0.441
20973W        W82262   3.239  32.470  11.122
20974W        W82263  14.675  25.603  14.344
20975W        W82264  33.883   4.766  13.453
20976W        W82265  12.680  41.946   1.443
20977W        W82266  27.073   7.681   4.314
20978W        W82267  11.273  17.223   0.859
20979W        W82268  24.010  32.616  10.581
20980W        W82269  28.931  38.001  10.970
20981W        W82270  17.687  15.225  13.937
20982W        W82271  16.295  38.382   9.438
20983W        W82272  35.553  28.957  13.834
20984W        W82273  20.768  22.506  12.025
20985W        W82274  31.994   9.313  13.497
20986W        W82275  23.204  12.668   5.303
20987W        W82276  29.927  30.955  13.964
20988W        W82277  32.123  11.325  12.041
20989W        W82278  42.850  17.156  11.441
20990W        W82279  22.612  30.128  13.029
20991W        W82280  39.438  15.276   1.393
20992W        W82281  36.584  24.115  10.472
20993W        W82282  37.357  38.954  13.312
20994W        W82283   1.272   2.940  14.342
20995W        W82284  12.841  37.053   2.381
20996W        W82285  26.632  31.944  10.953
20997W        W82286   7.270   8.723  10.520
20998W        W82287   9.374  35.873   1.772
20999W        W82288  44.309  16.620   4.600
21000W        W82289  18.571   1.897  10.584
21001W        W82290  21.624  42.425   0.443
21002W        W82291  12.308  30.652  12.432
21003W        W82292  22.026  19.636   3.195
21004W        W82293  22.149  20.676  11.938
21005W        W82294  43.000  19.042  12.827
21006W        W82295   0.346  29.659  13.005
21007W        W82296  32.446  35.102   0.757
21008W        W82297  16.103   4.807   3.308
21009W        W82298  19.161  24.168   1.753
21010W        W82299   6.700  22.067  14.847
21011W        W82300   0.788  40.942  13.055
21012W        W82301  27.477  38.852  13.394
21013W        W82302  32.477  29.104  12.387
21014W        W82303   6.361  32.908  13.547
21015W        W82304  44.865  28.110  10.102
21016W        W82305  40.051  27.485  13.001
21017W        W82306  11.641  14.264   3.779
21018W        W82307  22.632   0.288  11.019
21019W        W82308  32.959  38.037   2.363
21020W        W82309   7.302  22.502  12.500
21021W        W82310  28.997  18.660   4.172
21022W        W82311  16.583  44.404   4.328
21023W        W82312  39.397  42.320  10.458
21024W        W82313  12.342  42.520   1.808
21025W        W82314   8.830  23.554   0.268
21026W        W82315  16.585  23.589   2.211
21027W        W82316  13.267  41.432   5.115
21028W        W82317  43.453  44.402  14.014
21029W        W82318  37.040  39.062   3.853
21030W        W82319  34.877  21.600  14.882
21031W        W82320  41.818  23.125  14.900
21032W        W82321  34.983  10.233  13.973
21033W        W82322  38.050  37.460  10.480
21034W        W82323  30.505  35.422   4.605
21035W        W82324  42.356  13.162   0.440
21036W        W82325  40.458   8.667   9.579
21037W        W82326  32.961  25.070   0.794
21038W        W82327  19.707   3.353   0.867
21039W        W82328  18.679  43.768  14.445
21040W        W82329   7.263   3.764   0.371
21041W        W82330  14.316  13.681   3.837
21042W        W82331  30.078  31.964   1.730
21043W        W82332  15.176  24.199  11.876
21044W        W82333  20.622  16.615   4.707
21045W        W82334  29.587  25.567   4.185
21046W        W82335  30.948  18.765   2.200
21047W        W82336  27.082  18.574  11.021
21048W        W82337   3.225  24.667   1.913
21049W        W82338  20.526  41.838   3.211
21050W        W82339  40.508  33.538   1.416
21051W        W82340  40.469   8.763  13.375
21052W        W82341  25.149  16.708  11.527
21053W        W82342  32.498  44.310  12.963
21054W        W82343   8.361  23.080  11.376
21055W        W82344   9.836   6.235   0.785
21056W        W82345  22.141  24.614   3.871
21057W        W82346  14.205  32.095   2.276
21058W        W82347  17.580  35.471   0.757
21059W        W82348  25.560  14.313   5.121
21060W        W82349  34.990   3.936   1.888
21061W        W82350   5.703  22.574  13.958
21062W        W82351  39.020  32.541   4.801
21063W        W82352   6.286   3.795   4.769
21064W        W82353   8.215  36.463   2.734
21065W        W82354  17.698  11.636   0.272
21066W        W82355  17.123  27.501   3.246
21067W        W82356  18.789   5.766  14.507
21068W        W82357  32.955   9.828  11.430
21069W        W82358  31.639  44.986  10.955
21070W        W82359  32.537  13.713  12.433
21071W        W82360  36.854  34.498  10.620
21072W        W82361   6.345  16.615  11.919
21073W        W82362  35.046  37.061  10.582
21074W        W82363  20.108  38.822  14.491
21075W        W82364  25.518  28.929  13.850
21076W        W82365  15.597  10.271  14.480
21077W        W82366  11.731  10.329   2.411
21078W        W82367  21.741   8.667  12.535
21079W        W82368  32.531  40.880   1.448
21080W        W82369  25.131  10.716   0.273
21081W        W82370  40.981  13.321   4.296
21082W        W82371  33.567  21.229   2.405
21083W        W82372   9.702  44.765   2.266
21084W        W82373  19.139   3.290  12.514
21085W        W82374  12.785   5.776   2.670
21086W        W82375  36.878   4.265   2.351
21087W        W82376   9.350  42.508   1.348
21088W        W82377  19.167  11.201   2.881
21089W        W82378  37.903  35.495  10.894
21090W        W82379  40.481  40.931  11.879
21091W        W82380  40.945  15.631  12.011
21092W        W82381  15.227  35.960  12.465
21093W        W82382  11.633   6.735  12.964
21094W        W82383   5.792  13.663  13.499
21095W        W82384   6.362   6.396   5.166
21096W        W82385  10.216  31.931   4.278
21097W        W82386  12.828  29.467  11.512
21098W        W82387  24.482  21.195  14.835
21099W        W82388  42.348  43.935  10.514
21100W        W82389  27.145  14.747   1.315
21101W        W82390   1.928  21.750   2.418
21102W        W82391  35.603  43.288   1.857
21103W        W82392  15.763  24.203  12.840
21104W        W82393  35.022   6.266   3.785
21105W        W82394  42.320   9.257  13.349
21106W        W82395   9.699  21.752   0.276
21107W        W82396  20.660  38.993  12.953
21108W        W82397  42.983   2.324  14.889
21109W        W82398  28.069  17.133  13.327
21110W        W82399  40.448  14.691   1.718
21111W        W82400   3.777  43.314   3.160
21112W        W82401  32.086  26.622   2.871
21113W        W82402  24.005  39.515   0.331
21114W        W82403   3.740  16.618  10.581
21115W        W82404  25.159  40.974  12.999
21116W        W82405  24.705  11.171  14.961
21117W        W82406  38.887  36.510  11.434
21118W        W82407  33.992  21.529  13.480
21119W        W82408   4.218  36.067   1.356
21120W        W82409   7.191  24.591   3.283
21121W        W82410  16.688  21.571  14.031
21122W        W82411  20.722  17.711   3.813
21123W        W82412   5.288  14.206   0.898
21124W        W82413  10.717  21.518  13.897
21125W        W82414  16.569   1.286  14.508
21126W        W82415  17.150  14.125   1.781
21127W        W82416  37.872   0.263  14.407
21128W        W82417   2.304  29.628   2.681
21129W        W82418  37.908  38.047  13.866
21130W        W82419   2.957  30.137   2.275
21131W        W82420  23.084   0.310  13.822
21132W        W82421  21.606   1.746  14.303
21133W        W82422  21.063  24.650   1.326
21134W        W82423  28.017  22.502   1.932
21135W        W82424  43.776  19.210  11.989
21136W        W82425  19.231  44.983  10.578
21137W        W82426  22.567  29.062   4.761
21138W        W82427   8.171  39.878   1.930
21139W        W82428  20.750  19.223  14.808
21140W        W82429  30.500  19.167   2.685
21141W        W82430  25.603  14.719   3.228
21142W        W82431  42.782  16.131   3.631
21143W        W82432  42.467  30.994   1.739
21144W        W82433  20.221  21.179   3.841
21145W        W82434  42.834  33.897   2.780
21146W        W82435   1.327  26.177   0.389
21147W        W82436  43.020  41.919   2.350
21148W        W82437  41.419  30.989  14.009
21149W        W82438  10.858  23.197   3.694
21150W        W82439   1.774  11.211  13.414
21151W        W82440  25.168  10.877   4.683
21152W        W82441   2.792  35.484  10.523
21153W        W82442  22.183  41.515  14.002
21154W        W82443  32.097   6.777  12.343
21155W        W82444  23.532   9.678   1.810
21156W        W82445  31.593  30.655   4.169
21157W        W82446  12.350  43.841   3.721
21158W        W82447  32.483  43.494   2.710
21159W        W82448  15.699  18.053   1.903
21160W        W82449  26.144  42.877   4.353
21161W        W82450  35.394  39.920  10.944
21162W        W82451   5.740  37.440  12.943
21163W        W82452  30.032   4.327  14.809
21164W        W82453  39.940  20.109   4.207
21165W        W82454  19.550   9.361   1.224
21166W        W82455  37.925  43.479   0.425
21167W        W82456  43.360  21.085  11.573
21168W        W82457  10.651   8.266  13.316
21169W        W82458  34.435  25.469   1.838
21170W        W82459  29.587   2.739  14.356
21171W        W82460  38.875  34.921  11.482
21172W        W82461  10.274   1.872   4.327
21173W        W82462  31.477  15.737   3.856
21174W        W82463   6.310  37.399   3.334
21175W        W82464   0.248  20.653   2.202
21176W        W82465  24.128  12.286   2.769
21177W        W82466  39.531  32.021   1.362
21178W        W82467  43.895  34.877  11.862
21179W        W82468  10.330  38.877  11.944
21180W        W82469  30.067   6.279   1.738
21181W        W82470  36.842  20.579  13.820
21182W        W82471  27.550  23.055  14.015
21183W        W82472  23.621  29.059  10.967
21184W        W82473   1.976   8.390   1.734
21185W        W82474  41.987  29.461   3.312
21186W        W82475  33.424  40.843  13.520
21187W        W82476  42.893  42.478   0.424
21188W        W82477  10.337  14.203  10.031
21189W        W82478  42.893   6.247  13.321
21190W        W82479   9.265  19.112   3.212
21191W        W82480  36.512  23.120   0.275
21192W        W82481  13.140  25.027   0.314
21193W        W82482   3.736  18.267  13.477
21194W        W82483  27.459   5.815   4.169
21195W        W82484   8.401  42.913   1.347
21196W        W82485  44.988   6.222   0.257
21197W        W82486  31.579  24.667  10.605
21198W        W82487  13.239   8.805  10.048
21199W        W82488  33.927  15.723   3.336
21200W        W82489   9.201  21.526   0.908
21201W        W82490   5.258  34.511  11.420
21202W        W82491   2.342  40.940  11.534
21203W        W82492  18.788  42.997  12.494
21204W        W82493   3.299  38.043  13.017
21205W        W82494  19.251  40.878  14.793
21206W        W82495  20.211   3.821  12.531
21207W        W82496  31.497  31.069  10.953
21208W        W82497  11.866  11.229   1.374
21209W        W82498  27.515   3.261  12.961
21210W        W82499  28.648  23.619  10.942
21211W        W82500   1.774  25.665   1.233
21212W        W82501  21.625   6.385  14.462
21213W        W82502  11.217  39.370  11.472
21214W        W82503   8.316  27.973  11.554
21215W        W82504  19.539   2.818   1.857
21216W        W82505   2.853  16.602   1.334
21217W        W82506  18.132   1.365   2.694
21218W        W82507  20.602  12.794  11.920
21219W        W82508  28.588  20.088   0.795
21220W        W82509  24.723  39.468   0.477
21221W        W82510  13.344  43.966  12.573
21222W        W82511  21.222  26.184   1.773
21223W        W82512  29.959   6.279  11.104
21224W        W82513   5.338   2.394   4.730
21225W        W82514   0.839   4.229  11.012
21226W        W82515  20.044   1.430  13.899
21227W        W82516  36.554  37.002  13.980
21228W        W82517  16.574  30.590  10.474
21229W        W82518  30.543  21.226  13.914
21230W        W82519   0.773  10.779  14.967
21231W        W82520  20.629  14.340  13.346
21232W        W82521  40.423  42.455   4.332
21233W        W82522  12.790   8.205   4.823
21234W        W82523  39.933  15.589  11.076
21235W        W82524  39.350  37.377  13.423
21236W        W82525  10.258  10.353   3.718
21237W        W82526  29.527  26.040  12.351
21238W        W82527   0.925  27.460  13.415
21239W        W82528  24.177  21.557  11.527
21240W        W82529  40.827  20.687   0.413
21241W        W82530  26.609  16.620  13.395
21242W        W82531   1.790  39.450  14.813
21243W        W82532   8.171   4.941  10.629
21244W        W82533  31.446  29.027  14.512
21245W        W82534   4.246  33.087  14.000
21246W        W82535  32.619  23.509   0.856
21247W        W82536  43.799  30.010   1.715
21248W        W82537  22.051  41.453   3.357
21249W        W82538   7.824   0.426  14.789
21250W        W82539   5.212  13.275  11.455
21251W        W82540  27.621  41.855   4.720
21252W        W82541   6.399  14.121  11.477
21253W        W82542  30.461  15.244  11.931
21254W        W82543  21.752   9.773   0.464
21255W        W82544   8.776  24.638  12.541
21256W        W82545  34.998  26.527  10.931
21257W        W82546  29.476   6.393   3.818
21258W        W82547  42.485  16.692  11.394
21259W        W82548  27.510  34.106  13.313
21260W        W82549  11.806  13.769   1.848
21261W        W82550  17.729  44.767  12.034
21262W        W82551  22.545  41.502   3.648
21263W        W82552  21.741  30.522   4.720
21264W        W82553  29.015  26.617   3.337
21265W        W82554  30.050  33.027  11.405
21266W        W82555  40.370  28.118   3.692
21267W        W82556  31.042  17.066  11.056
21268W        W82557  21.219  25.592   4.798
21269W        W82558   5.760  10.213   3.341
21270W        W82559  30.449  42.406  14.811
21271W        W82560  12.831  11.777   2.848
21272W        W82561   8.712  17.177  13.415
21273W        W82562  19.559  33.625  12.944
21274W        W82563  21.560  24.511   2.832
21275W        W82564  35.943  44.968  14.008
21276W        W82565  17.086  17.607   1.840
21277W        W82566  26.605  19.133   2.856
21278W        W82567  36.037  41.024   1.212
21279W        W82568  32.429  28.966  13.950
21280W        W82569  40.370  28.505   2.686
21281W        W82570  22.224  27.457  14.787
21282W        W82571  22.563  27.640   3.655
21283W        W82572  36.080  10.265   4.150
21284W        W82573  11.325  16.238  14.298
21285W        W82574  38.049   1.883  14.890
21286W        W82575   1.460  14.613   3.307
21287W        W82576  35.599  38.906  11.500
21288W        W82577  18.130  26.039   4.770
21289W        W82578  11.281  39.023   4.325
21290W        W82579  18.223  34.041  14.308
21291W        W82580  42.986   2.328  12.516
21292W        W82581  21.051  35.473   4.324
21293W        W82582   5.788  35.962  14.392
21294W        W82583  36.857  13.281   1.775
21295W        W82584  15.666  24.663  14.278
21296W        W82585  13.639  39.395   1.287
21297W        W82586  31.968  32.931  10.448
21298W        W82587  19.051  44.866  11.938
21299W        W82588   9.690  43.973  12.034
21300W        W82589  18.580   7.817   0.768
21301W        W82590  34.867  24.653  13.873
21302W        W82591   1.852   0.477   3.653
21303W        W82592  31.615  32.097  13.943
21304W        W82593  44.890  15.168   4.290
21305W        W82594  38.906  19.139   3.693
21306W        W82595  11.646  31.510   4.799
21307W        W82596   6.759  10.180   2.765
21308W        W82597  14.268  16.582   1.306
21309W        W82598  14.734  12.715   2.269
21310W        W82599   3.889   7.404  10.943
21311W        W82600  26.492  38.512   4.292
21312W        W82601   9.304   2.915   0.305
21313W        W82602  21.706  19.183   4.215
21314W        W82603   0.770  15.322   0.931
21315W        W82604  34.594  23.094   0.925
21316W        W82605  36.873   7.400  14.380
21317W        W82606  25.120   5.749  14.310
21318W        W82607   8.856   0.297   1.391
21319W        W82608  16.624  11.132  14.454
21320W        W82609   3.461  16.255  14.924
21321W        W82610  15.296   7.375   1.296
21322W        W82611  14.326  36.492  12.475
21323W        W82612  10.802   3.746   3.149
21324W        W82613  21.625  34.108  13.548
21325W        W82614   2.923  12.757   3.219
21326W        W82615  23.081   8.241  12.059
21327W        W82616   7.790   6.213  14.870
21328W        W82617   9.223  30.633  14.485
21329W        W82618  12.835   5.386   0.341
21330W        W82619  25.157  40.801   0.839
21331W        W82620   8.697  32.596   2.835
21332W        W82621  36.519  18.128  10.903
21333W        W82622   4.316  13.264  12.348
21334W        W82623   5.439   7.355   1.370
21335W        W82624  37.495  43.481  13.864
21336W        W82625  31.974  44.403   0.281
21337W        W82626   7.824  16.681  14.922
21338W        W82627   9.801   6.745   4.644
21339W        W82628  11.248  17.238   0.336
21340W        W82629   6.828  33.459   2.228
21341W        W82630  29.041   5.280   1.390
21342W        W82631  30.131   9.240   2.180
21343W        W82632  17.698  11.756   1.343
21344W        W82633  37.472  35.984  14.389
21345W        W82634  20.191  34.478   1.306
21346W        W82635  11.312   6.228  14.765
21347W        W82636  18.161  29.140   3.160
21348W        W82637  17.288  11.622   2.862
21349W        W82638   4.286  21.253   1.231
21350W        W82639  26.546  36.021   4.609
21351W        W82640  25.967  21.060   4.832
21352W        W82641  10.167  29.162  12.521
21353W        W82642   8.321  18.675  13.423
21354W        W82643  31.957  24.579  12.082
21355W        W82644  38.501  25.045   2.319
21356W        W82645  39.489  10.852   4.137
21357W        W82646  36.845   0.982   2.800
21358W        W82647  18.692  19.556   1.865
21359W        W82648   8.878  12.720  14.871
21360W        W82649  28.659  44.872  12.374
21361W        W82650  40.329  29.071  14.485
21362W        W82651   2.817   1.975   4.238
21363W        W82652   7.901   8.767   5.227
21364W        W82653  42.419  42.420   2.876
21365W        W82654  16.741  29.590  14.000
21366W        W82655  42.817   6.803   4.698
21367W        W82656  28.681  29.012   3.232
21368W        W82657  33.009   6.841   2.252
21369W        W82658   1.307  36.427  11.961
21370W        W82659   4.715  42.893  10.891
21371W        W82660  32.030  17.148   0.958
21372W        W82661  40.921  10.677   4.720
21373W        W82662  40.914  22.513   3.786
21374W        W82663  12.345  13.118  12.970
21375W        W82664  34.608  32.885   1.816
21376W        W82665  23.532  40.365  13.377
21377W        W82666  41.962  27.072   1.220
21378W        W82667  12.303  40.421  11.372
21379W        W82668  32.136  20.557  10.097
21380W        W82669  11.237  31.144  13.898
21381W        W82670  23.622   1.814   1.218
21382W        W82671  24.550  10.632  12.416
21383W        W82672  10.686  28.118   2.722
21384W        W82673   6.861  26.483  10.888
21385W        W82674   2.837  16.591  10.622
21386W        W82675  35.965  28.597   3.665
21387W        W82676  17.202  19.269  13.410
21388W        W82677  40.515  32.528   0.834
21389W        W82678  38.885  17.683   9.926
21390W        W82679  37.434  37.016  14.810
21391W        W82680  44.490  28.985  11.052
21392W        W82681  36.063  20.235   0.727
21393W        W82682  42.998   3.781  14.840
21394W        W82683   5.365  33.899   3.813
21395W        W82684  18.694   3.748  14.028
21396W        W82685  34.608  14.135   3.323
21397W        W82686   1.935  19.239   2.306
21398W        W82687  34.369   7.232   1.363
21399W        W82688  39.023  39.857   2.854
21400W        W82689  18.082  26.974   1.883
21401W        W82690   3.947   8.404  11.079
21402W        W82691  36.402  36.434   2.805
21403W        W82692  28.442  37.882   3.797
21404W        W82693  36.432  21.547  13.938
21405W        W82694  10.649  42.483   0.465
21406W        W82695  32.916  22.148   1.754
21407W        W82696  17.235  33.407   3.774
21408W        W82697   4.815  13.815  12.401
21409W        W82698  19.132  41.477   0.905
21410W        W82699  34.553  12.252  12.841
21411W        W82700   6.709  35.412  11.062
21412W        W82701  34.470  20.158   3.362
21413W        W82702  44.844  22.205  11.453
21414W        W82703  40.010  43.472  11.376
21415W        W82704  36.364  24.568   3.327
21416W        W82705   9.248  32.010   2.679
21417W        W82706  13.766  22.719   2.217
21418W        W82707  41.920  23.622  14.775
21419W        W82708  34.993  43.447  14.345
21420W        W82709  28.153   0.473  13.887
21421W        W82710   6.791  33.577   0.825
21422W        W82711  36.532  32.473   1.723
21423W        W82712  43.272  40.428   2.701
21424W        W82713   8.805  39.980   3.248
21425W        W82714  35.898  18.623   3.863
21426W        W82715   6.193  11.845   0.391
21427W        W82716  42.510  34.526   1.865
21428W        W82717  28.174  33.586   5.197
21429W        W82718   7.876  36.015   0.368
21430W        W82719   8.782  38.054   1.811
21431W        W82720  38.854   7.314  11.596
21432W        W82721  17.765  14.199   0.398
21433W        W82722   4.889  22.009   1.789
21434W        W82723  22.202  35.945  14.339
21435W        W82724  26.554   5.881  14.769
21436W        W82725  40.881  12.617   1.741
21437W        W82726  43.769   7.189   2.182
21438W        W82727  11.173  15.665  13.395
21439W        W82728   3.230  36.016  12.401
21440W        W82729  23.683  29.998   2.384
21441W        W82730  14.190  11.313  12.891
21442W        W82731   6.895  35.512   4.318
21443W        W82732  21.097  32.061  13.961
21444W        W82733   7.714  22.552   3.244
21445W        W82734  15.813  34.470  13.405
21446W        W82735   6.827  16.699  10.439
21447W        W82736  22.506  16.622   9.997
21448W        W82737  29.950  11.153  14.934
21449W        W82738  38.898  20.565  11.949
21450W        W82739   2.735  22.539  14.982
21451W        W82740  30.647  33.557   1.856
21452W        W82741  13.676  25.084   2.302
21453W        W82742  10.190  18.072   3.715
21454W        W82743  19.643  34.965   5.259
21455W        W82744  42.474  21.025  13.388
21456W        W82745   5.851  15.327  11.124
21457W        W82746  31.471  36.491   1.767
21458W        W82747  38.470  39.481  14.492
21459W        W82748   2.328  33.996   4.230
21460W        W82749   2.472  36.885  11.395
21461W        W82750  34.923   1.285  13.984
21462W        W82751  37.005  18.610   4.763
21463W        W82752  24.724  35.870   1.934
21464W        W82753  16.240  31.638  11.561
21465W        W82754  21.249  39.481  14.998
21466W        W82755  24.668  19.648  11.873
21467W        W82756  17.665   4.853  14.945
21468W        W82757  11.145   4.337   4.241
21469W        W82758   6.702  24.639   4.170
21470W        W82759  41.353  23.549  13.806
21471W        W82760  33.459  23.996   4.117
21472W        W82761  25.013   9.723   4.261
21473W        W82762  28.527  35.017  13.010
21474W        W82763  43.887  24.018   4.226
21475W        W82764  26.161  17.281  12.870
21476W        W82765  16.128   0.775  10.040
21477W        W82766  28.625   9.882   3.694
21478W        W82767   6.773   2.428  14.508
21479W        W82768   8.729  19.080   4.751
21480W        W82769  15.218  22.113   1.310
21481W        W82770  31.435  29.458  13.020
21482W        W82771  43.925  32.450  14.930
21483W        W82772   6.333   0.412  12.975
21484W        W82773  13.611  18.613  14.998
21485W        W82774  35.481  24.206   2.277
21486W        W82775  21.102  19.643   2.736
21487W        W82776  17.255   8.768  13.543
21488W        W82777   5.353  21.579   2.833
21489W        W82778  35.068   2.411  12.095
21490W        W82779   1.752  25.964  12.857
21491W        W82780  40.880  13.783  13.373
21492W        W82781   3.908  15.727   4.724
21493W        W82782   2.889  30.592  12.972
21494W        W82783   5.388   8.717   0.247
21495W        W82784   0.460   2.323  14.404
21496W        W82785  22.011   2.295  11.452
21497W        W82786  32.510  11.276  11.888
21498W        W82787   0.489  26.097  13.891
21499W        W82788   6.759  30.145   1.879
21500W        W82789  35.063   9.273  12.418
21501W        W82790  35.480  41.516   0.943
21502W        W82791  10.641  23.000  13.040
21503W        W82792  43.937  13.173   1.766
21504W        W82793   1.736  28.462   1.738
21505W        W82794  43.999   9.663   2.738
21506W        W82795  34.543  19.722   2.692
21507W        W82796   4.246  15.744   2.265
21508W        W82797  33.389  15.324   4.329
21509W        W82798   4.892  39.389  11.996
21510W        W82799  17.084  13.605  11.895
21511W        W82800   8.696  31.601  14.833
21512W        W82801  30.597  37.059   2.179
21513W        W82802  41.016  39.887  13.395
21514W        W82803  26.056  42.806  11.907
21515W        W82804  37.503  38.531  13.907
21516W        W82805  23.211  23.238  11.116
21517W        W82806  37.934  12.846  14.824
21518W        W82807  38.345   9.679  14.509
21519W        W82808  22.568   8.231   4.181
21520W        W82809  25.024   0.352  11.598
21521W        W82810   1.286  29.934   2.720
21522W        W82811  24.191  24.220  11.890
21523W        W82812  20.728  24.222  11.483
21524W        W82813  16.140   4.940  14.905
21525W        W82814  37.371  29.932   2.350
21526W        W82815  42.824  36.929   2.720
21527W        W82816   4.418  33.579   4.130
21528W        W82817  19.763  34.022  12.843
21529W        W82818  38.833  19.151   1.817
21530W        W82819  31.056  14.139   5.254
21531W        W82820   9.852  35.465   2.374
21532W        W82821  35.043  16.244  14.874
21533W        W82822  15.816  30.547   2.370
21534W        W82823  18.103  23.709  13.420
21535W        W82824   2.362  40.532   3.841
21536W        W82825  35.389  12.703   2.251
21537W        W82826  44.341  13.748   0.253
21538W        W82827   3.283  19.100  10.898
21539W        W82828  22.140  40.443   1.362
21540W        W82829  19.143  15.730  11.917
21541W        W82830   7.253  26.628  14.881
21542W        W82831  24.084  39.501   2.206
21543W        W82832   8.331  26.677   1.748
21544W        W82833  44.855   6.817   4.265
21545W        W82834  31.412  42.405   3.331
21546W        W82835  27.042  39.015  14.808
21547W        W82836  43.778  33.054   1.755
21548W        W82837  21.550   0.774  13.525
21549W        W82838   8.171   8.370  14.328
21550W        W82839  34.003  10.172   2.881
21551W        W82840   2.805  25.074   0.458
21552W        W82841  19.544   7.853   1.266
21553W        W82842  19.226  34.419   4.644
21554W        W82843   7.340   0.899   0.807
21555W        W82844   6.922   3.764   1.820
21556W        W82845  24.567   5.366   1.365
21557W        W82846   1.830  37.361  10.473
21558W        W82847  11.277  40.323  10.632
21559W        W82848  44.336  31.441  14.399
21560W        W82849  21.572  21.054   4.340
21561W        W82850  36.515  39.039  12.442
21562W        W82851  32.036  18.289   4.828
21563W        W82852  12.817  39.960   2.821
21564W        W82853  19.775  32.512  11.589
21565W        W82854   4.368  12.222  12.396
21566W        W82855  35.418  38.344   4.198
21567W        W82856  13.659  38.846  12.977
21568W        W82857  15.652   5.242  11.078
21569W        W82858  33.976  41.475  12.944
21570W        W82859  22.614  11.178   2.845
21571W        W82860   2.924  43.976   1.332
21572W        W82861   0.851  10.207  13.944
21573W        W82862  13.808  22.663  10.443
21574W        W82863   3.452  42.312  10.581
21575W        W82864  14.742  42.503  13.860
21576W        W82865  35.022   3.896   9.973
21577W        W82866  38.427   3.409   0.736
21578W        W82867  27.017  20.153  14.023
21579W        W82868  44.865  16.639  11.597
21580W        W82869  29.111  19.750   0.284
21581W        W82870  37.032  25.515  11.970
21582W        W82871  30.595  18.174   2.794
21583W        W82872   3.800  29.443   0.475
21584W        W82873  18.271  27.051  12.367
21585W        W82874   5.700  21.512  12.888
21586W        W82875  28.648  13.351   4.703
21587W        W82876  41.833  18.128   2.896
21588W        W82877  16.639  31.503   2.360
21589W        W82878  38.849   4.442  12.091
21590W        W82879  40.866  25.152  12.826
21591W        W82880   3.907  31.566   4.122
21592W        W82881  20.564  30.489   3.661
21593W        W82882  43.502   6.868   0.364
21594W        W82883   0.451  35.989  13.347
21595W        W82884  36.369  18.143   3.859
21596W        W82885  41.326  37.479   1.224
21597W        W82886  15.605   8.171   2.192
21598W        W82887   5.399   9.322   1.900
21599W        W82888   3.353  24.598  14.792
21600W        W82889   0.343  24.592   3.857
21601W        W82890   3.875  30.101   0.465
21602W        W82891   6.345   2.730   4.140
21603W        W82892  22.672  24.045   2.722
21604W        W82893  32.123   1.346   5.744
21605W        W82894   5.426  43.372   4.663
21606W        W82895   3.845  36.845  13.800
21607W        W82896  41.495  27.136  13.926
21608W        W82897   3.881  35.007  13.498
21609W        W82898  13.136  41.931   2.281
21610W        W82899  44.906  19.552  12.572
21611W        W82900  25.070   3.883  13.990
21612W        W82901  34.945  10.858  10.428
21613W        W82902  13.657  37.034  14.827
21614W        W82903  23.994   3.370   1.385
21615W        W82904  21.525  23.643   5.164
21616W        W82905  41.956  34.904   4.785
21617W        W82906  25.153  42.863  13.026
21618W        W82907  23.217  12.705  13.859
21619W        W82908  18.148  24.543  11.372
21620W        W82909  16.760   3.785  14.299
21621W        W82910   8.284   0.919  12.419
21622W        W82911   3.409   6.339   3.741
21623W        W82912  21.137  16.216  13.986
21624W        W82913  17.298  31.555   2.241
21625W        W82914   4.376  21.560  14.408
21626W        W82915  36.590  30.623  12.860
21627W        W82916  43.380   5.417  10.427
21628W        W82917   9.356  29.152   1.380
21629W        W82918  33.986  34.052   3.319
21630W        W82919   0.261  14.783   0.773
21631W        W82920   4.387  33.558  11.108
21632W        W82921  33.083  10.149   4.233
21633W        W82922   0.783  43.795   1.229
21634W        W82923   8.308  40.329  10.960
21635W        W82924  13.714  38.436  12.010
21636W        W82925  44.422  23.014   3.855
21637W        W82926  25.679  10.725   1.364
21638W        W82927   8.250  31.098  12.839
21639W        W82928   6.228  22.120  14.909
21640W        W82929   4.883  17.648  12.388
21641W        W82930  25.658  34.603  12.846
21642W        W82931  34.602  27.593   3.803
21643W        W82932  38.409  36.862   0.914
21644W        W82933  20.185   3.813  11.092
21645W        W82934  42.394  23.069  13.836
21646W        W82935  37.467  17.589   2.883
21647W        W82936   6.744   1.893  10.434
21648W        W82937  40.902   5.341   3.650
21649W        W82938  27.066  17.619  12.880
21650W        W82939  43.992  16.278   0.248
21651W        W82940   5.771  39.467   4.832
21652W        W82941  34.910  34.908   2.260
21653W        W82942  32.542  17.216   0.815
21654W        W82943   3.336  28.667   3.837
21655W        W82944  29.518  25.070   1.813
21656W        W82945  37.510  43.300   4.693
21657W        W82946  44.462  42.980   2.385
21658W        W82947  26.053  26.199   5.685
21659W        W82948   0.419  29.439   3.867
21660W        W82949  10.800  17.140   1.399
21661W        W82950  43.350  35.372  13.967
21662W        W82951  25.054  24.584   5.203
21663W        W82952  29.088   5.779   4.251
21664W        W82953   3.740  27.960  10.536
21665W        W82954  22.536  34.923   0.816
21666W        W82955  23.508  29.586   0.289
21667W        W82956  16.207  31.473   1.837
21668W        W82957   1.316  30.144   0.346
21669W        W82958  41.455  18.639   0.862
21670W        W82959   4.714  41.319  11.573
21671W        W82960  34.979   6.717  11.401
21672W        W82961  21.577   5.325  10.579
21673W        W82962  35.506  20.701  10.527
21674W        W82963   7.833   8.744   4.166
21675W        W82964  10.179  18.722   0.312
21676W        W82965  34.406   6.808   1.891
21677W        W82966   6.306  26.184   2.335
21678W        W82967  38.843  18.660  14.376
21679W        W82968  14.806   0.288   3.240
21680W        W82969   2.297  24.044   2.192
21681W        W82970  20.066  42.012   1.403
21682W        W82971  24.150  10.361  12.930
21683W        W82972  33.521  42.337   4.278
21684W        W82973   5.388  25.476   1.704
21685W        W82974  37.570  19.146  13.319
21686W        W82975  31.593  44.862  14.822
21687W        W82976  15.596  38.571   2.772
21688W        W82977  38.908  15.206   1.864
21689W        W82978  16.274  44.885   3.325
21690W        W82979  26.621  12.125   3.848
21691W        W82980  42.361  15.819   4.305
21692W        W82981   9.373   6.912   0.247
21693W        W82982   0.479   7.707   3.200
21694W        W82983  33.623  44.370   3.757
21695W        W82984  38.400  41.042   3.209
21696W        W82985  21.586  37.885  12.841
21697W        W82986  39.895  20.211   0.901
21698W        W82987  14.329  44.933  13.534
21699W        W82988  33.924  42.939  13.914
21700W        W82989  28.533  12.197  13.407
21701W        W82990  28.630  28.082   1.407
21702W        W82991  26.122  33.535  11.005
21703W        W82992  44.398  31.112   2.321
21704W        W82993  18.138  35.989   0.744
21705W        W82994  32.593  29.648  13.353
21706W        W82995  34.584  22.689   0.425
21707W        W82996  28.100  43.832   3.343
21708W        W82997  43.501   7.320  10.952
21709W        W82998  37.884  23.170  11.908
21710W        W82999  37.830  32.974  13.382
21711W        W83000   8.670  18.587   1.726
21712W        W83001  15.719  38.390  11.425
21713W        W83002  14.190  15.275  10.487
21714W        W83003  11.247  16.783   4.286
21715W        W83004  24.635  28.445   2.372
21716W        W83005  20.766   4.867  11.045
21717W        W83006  23.086  19.737  11.991
21718W        W83007  12.260  38.566  12.974
21719W        W83008   7.327  31.896  11.491
21720W        W83009   6.907  39.876   0.244
21721W        W83010  29.059  20.223  14.860
21722W        W83011  20.055   4.855  10.986
21723W        W83012   9.861  22.236  11.462
21724W        W83013   6.800  13.342  13.856
21725W        W83014  30.454  18.575  10.962
21726W        W83015  36.882  33.069   1.435
21727W        W83016  13.618   0.839  11.379
21728W        W83017  32.138  26.104   4.831
21729W        W83018  28.959  16.280   4.631
21730W        W83019   8.819  33.487   3.783
21731W        W83020  20.099  15.171  13.792
21732W        W83021  40.897  33.014   4.119
21733W        W83022   6.289   1.907  10.120
21734W        W83023  33.122  16.807   1.914
21735W        W83024  28.496  19.709  10.432
21736W        W83025   1.762  33.524   1.414
21737W        W83026  11.857  19.583  14.482
21738W        W83027  19.602   4.221  14.433
21739W        W83028  22.062   0.337  10.452
21740W        W83029  36.878   5.338  11.065
21741W        W83030  38.364  12.206  12.539
21742W        W83031  14.243  40.488   5.181
21743W        W83032  21.262   8.865   0.397
21744W        W83033   6.697   0.881   3.671
21745W        W83034  35.450  22.630   2.253
21746W        W83035  32.026  15.280   3.268
21747W        W83036   7.269  36.369   1.247
21748W        W83037   5.381  34.473  13.901
21749W        W83038  33.049   8.676  13.345
21750W        W83039  28.679   2.239  13.451
21751W        W83040  29.064  33.050  10.488
21752W        W83041   4.415   6.267   1.384
21753W        W83042  29.139  24.058  14.284
21754W        W83043  15.734  19.271   0.898
21755W        W83044   1.901   1.302  12.923
21756W        W83045  41.985  41.006  10.607
21757W        W83046  28.164  27.494   2.225
21758W        W83047   2.314  30.012   3.766
21759W        W83048  14.281   6.422  14.451
21760W        W83049  35.999  42.408   4.831
21761W        W83050  18.782  13.195   3.377
21762W        W83051  34.035  33.550  10.952
21763W        W83052  25.156  39.877   4.218
21764W        W83053  31.404   0.361   0.885
21765W        W83054  41.831  44.418  10.983
21766W        W83055   1.483  29.612  14.002
21767W        W83056  29.953  35.019   3.336
21768W        W83057  40.504  22.636  13.905
21769W        W83058  40.325  34.965   3.365
21770W        W83059  16.072  23.497   1.329
21771W        W83060   8.806  35.025   0.941
21772W        W83061   9.230  34.423  11.970
21773W        W83062  30.418  36.892   0.440
21774W        W83063  34.606  29.521  12.942
21775W        W83064   3.247  32.578   0.754
21776W        W83065   2.820  11.643  12.825
21777W        W83066   9.647   6.773  13.816
21778W        W83067  39.395  28.559   2.293
21779W        W83068  25.131  29.463   1.890
21780W        W83069  43.009  40.967  13.018
21781W        W83070  17.766  14.835  13.045
21782W        W83071   3.306  37.363   4.184
21783W        W83072  18.181   6.384  13.961
21784W        W83073   6.345  11.622  12.492
21785W        W83074   6.755   2.933  12.574
21786W        W83075  15.206  24.022  14.298
21787W        W83076   6.299  10.347  13.025
21788W        W83077  19.078  21.195  11.929
21789W        W83078  23.636  44.872   0.380
21790W        W83079   6.243  30.642   1.758
21791W        W83080  22.547   8.782  12.089
21792W        W83081   5.281  12.152  11.482
21793W        W83082  36.894   2.744   1.322
21794W        W83083  42.456   3.235   4.264
21795W        W83084  44.413  34.893   2.313
21796W        W83085  20.259   7.371  12.955
21797W        W83086   1.752  36.483   2.678
21798W        W83087  11.781  39.027   1.323
21799W        W83088  13.624   5.784   0.245
21800W        W83089  24.698  21.114   5.087
21801W        W83090   6.427  13.841   9.950
21802W        W83091  10.757   6.237  10.461
21803W        W83092  17.625  39.062  10.638
21804W        W83093  39.555  11.813   4.820
21805W        W83094  12.751  35.510   0.805
21806W        W83095  39.928  23.605  10.410
21807W        W83096  32.466  20.069  11.895
21808W        W83097  29.622   8.831   1.439
21809W        W83098  30.504  23.564  14.992
21810W        W83099  12.674  18.586   2.265
21811W        W83100  32.936   9.296  14.833
21812W        W83101  34.008  25.551  13.479
21813W        W83102  16.577  35.888   2.405
21814W        W83103  27.641  23.655  14.389
21815W        W83104  24.589   6.694  12.398
21816W        W83105  33.012  43.926  13.892
21817W        W83106   7.305  26.188  14.357
21818W        W83107  17.268  34.878   1.916
21819W        W83108   2.853   0.861  11.418
21820W        W83109  25.607  11.817   1.763
21821W        W83110   1.759  24.515  10.974
21822W        W83111   1.972  19.212   3.841
21823W        W83112   7.382  25.121  12.863
21824W        W83113  36.047  32.951  14.392
21825W        W83114  15.662   7.704   3.231
21826W        W83115  39.032  25.713   4.140
21827W        W83116   3.253   7.206   1.234
21828W        W83117   7.389  15.291  11.901
21829W        W83118   3.772  44.805  12.067
21830W        W83119  21.716  22.686   4.639
21831W        W83120   0.966  37.833  10.452
21832W        W83121  27.552  22.048  14.803
21833W        W83122  21.745  35.014   2.320
21834W        W83123  15.666   0.845  12.543
21835W        W83124   3.454   7.252   0.394
21836W        W83125   5.265  23.137  10.631
21837W        W83126  35.939   6.749  12.848
21838W        W83127   4.756  29.997  10.567
21839W        W83128  12.213   2.907   1.364
21840W        W83129  14.741  29.553  14.991
21841W        W83130  29.942  38.908  10.608
21842W        W83131  29.126  25.192  14.411
21843W        W83132  20.654  20.754   1.224
21844W        W83133  39.837  23.668  11.898
21845W        W83134   6.311  15.651   9.983
21846W        W83135  33.489  40.320  12.072
21847W        W83136  30.478  21.085   2.806
21848W        W83137  19.778  34.094   2.800
21849W        W83138  12.195  19.120  10.420
21850W        W83139   8.662  40.362  11.067
21851W        W83140  39.001  37.026   3.809
21852W        W83141  19.264  38.020  13.945
21853W        W83142  17.138  42.003   1.425
21854W        W83143  21.118   8.404  11.960
21855W        W83144   8.860  40.342   0.762
21856W        W83145  20.667  11.305  13.869
21857W        W83146  23.046   3.233  14.917
21858W        W83147   6.200  29.094   9.985
21859W        W83148   7.292  21.152  10.145
21860W        W83149   0.345  42.376   2.286
21861W        W83150  42.007  33.561   1.718
21862W        W83151  14.116  43.502  10.564
21863W        W83152  24.170  19.742   2.859
21864W        W83153   8.285  13.630  13.986
21865W        W83154   1.887  29.663   1.797
21866W        W83155  12.356  32.438   1.712
21867W        W83156   7.718  40.945   4.835
21868W        W83157   8.401  29.455  11.044
21869W        W83158   1.396   1.872  11.516
21870W        W83159   5.856   0.919   2.404
21871W        W83160  37.890  15.630   2.784
21872W        W83161  28.504  26.104   1.903
21873W        W83162  41.841  38.493   1.929
21874W        W83163  18.133  38.454   4.340
21875W        W83164   9.187  19.280  13.455
21876W        W83165  37.435  43.363   3.720
21877W        W83166   7.787  39.903  14.433
21878W        W83167  34.095  42.409   1.248
21879W        W83168  15.327  13.349   4.599
21880W        W83169   0.257  30.991  11.870
21881W        W83170  15.111  24.604  14.837
21882W        W83171  14.214   6.922  14.017
21883W        W83172  44.982  19.080   3.802
21884W        W83173  22.007  42.384  12.095
21885W        W83174  21.677   4.426  14.785
21886W        W83175   1.783  35.514  12.019
21887W        W83176   2.825  19.743   0.936
21888W        W83177  18.601  36.421  14.957
21889W        W83178  15.163   7.218   2.290
21890W        W83179  32.928  38.390  13.799
21891W        W83180  21.237  11.864  13.048
21892W        W83181  20.676  31.088  13.329
21893W        W83182  18.066  28.619  13.896
21894W        W83183  36.864  37.866   2.838
21895W        W83184  10.306  20.161  11.930
21896W        W83185   2.364  42.031  11.597
21897W        W83186   9.281  37.549   2.788
21898W        W83187  14.735   4.410  14.853
21899W        W83188   6.329  13.658  12.557
21900W        W83189  35.940  17.281   5.715
21901W        W83190  44.773   3.327   2.680
21902W        W83191  10.701  12.141  14.902
21903W        W83192  43.942   4.930  13.832
21904W        W83193  38.848  39.845  14.501
21905W        W83194  33.443  17.646   3.247
21906W        W83195  23.624  44.959   4.786
21907W        W83196  26.543  23.575   3.868
21908W        W83197  13.766  33.111   2.686
21909W        W83198  22.174  33.064   4.792
21910W        W83199  29.078   5.304  11.856
21911W        W83200  40.834   8.660  11.400
21912W        W83201  30.512  39.860   1.449
21913W        W83202   5.404  14.327  12.962
21914W        W83203   6.866   2.326  14.874
21915W        W83204  43.385  34.529  13.793
21916W        W83205  23.178  20.083  13.792
21917W        W83206  33.552  17.191  14.818
21918W        W83207  24.693  40.866  13.420
21919W        W83208  41.367   5.765   2.792
21920W        W83209  31.917  41.941  13.988
21921W        W83210  14.601  11.141   4.697
21922W        W83211  32.546  10.166   4.348
21923W        W83212   6.811  16.306  13.382
21924W        W83213  30.018  43.377  11.399
21925W        W83214  38.376  24.506   3.800
21926W        W83215  14.110  35.051  14.357
21927W        W83216  16.238  14.730   3.337
21928W        W83217  42.468  17.136  13.326
21929W        W83218  33.022   5.246   3.169
21930W        W83219  23.106   7.271   3.185
21931W        W83220  20.711  22.241   3.372
21932W        W83221  26.504  31.555  10.086
21933W        W83222  30.530  29.969   3.149
21934W        W83223  40.983   7.822   3.342
21935W        W83224  19.200  16.254  10.954
21936W        W83225  32.980   3.912  11.459
21937W        W83226   3.431  31.561   0.319
21938W        W83227  35.527  26.200   4.177
21939W        W83228   4.296  33.922   2.215
21940W        W83229   2.458  23.582   0.373
21941W        W83230  24.649   9.689  12.834
21942W        W83231   7.892   6.846   2.754
21943W        W83232  32.916  29.972  12.563
21944W        W83233  25.980  25.534   9.454
21945W        W83234  39.939  29.086  11.577
21946W        W83235  31.451   0.768  11.892
21947W        W83236   3.450  14.286  11.865
21948W        W83237  36.987   6.871  11.541
21949W        W83238  39.315  24.556  10.535
21950W        W83239  21.722   1.951  14.793
21951W        W83240  10.728  23.521   5.321
21952W        W83241  14.314  32.487   3.768
21953W        W83242   9.879  20.716  13.507
21954W        W83243  15.675   8.782   0.476
21955W        W83244  15.106  35.942  11.380
21956W        W83245  42.875  17.247   2.902
21957W        W83246  35.486  25.476   1.334
21958W        W83247  29.620  15.608  13.532
21959W        W83248   2.364  29.424   0.781
21960W        W83249  28.527  39.407   1.319
21961W        W83250   3.397  20.087  14.972
21962W        W83251  39.481  26.536  12.550
21963W        W83252  24.555   2.248   4.159
21964W        W83253   6.421  16.103   3.857
21965W        W83254  34.503   8.217   0.478
21966W        W83255  19.546  30.156  10.501
21967W        W83256  28.438  39.342  10.525
21968W        W83257  29.656  23.515  12.489
21969W        W83258  35.549  25.469   3.766
21970W        W83259  20.600  30.016  13.922
21971W        W83260  11.786  40.897  14.965
21972W        W83261  24.569  17.654   2.418
21973W        W83262  37.418  35.447  13.386
21974W        W83263  44.318   6.298  10.605
21975W        W83264   5.856   8.767   4.682
21976W        W83265  18.213  30.036   4.792
21977W        W83266  31.600  38.861   4.661
21978W        W83267  27.612  25.668   0.268
21979W        W83268   6.220  17.763  12.977
21980W        W83269  32.499  25.658  14.813
21981W        W83270  38.501  24.022  10.521
21982W        W83271  10.303  31.036   5.784
21983W        W83272  32.075  41.922   3.253
21984W        W83273  28.023  13.765   0.379
21985W        W83274   7.383   2.311   3.737
21986W        W83275  17.153   9.201  11.382
21987W        W83276  38.411  32.891  10.633
21988W        W83277   2.434  19.121   4.705
21989W        W83278  23.067   9.214  10.975
21990W        W83279  27.557  20.165  14.773
21991W        W83280  23.087  24.592   3.258
21992W        W83281   2.453  31.588  10.934
21993W        W83282   4.863  42.019   1.903
21994W        W83283  42.872   7.372   1.258
21995W        W83284   6.808  29.018  14.831
21996W        W83285  32.492  40.424  13.388
21997W        W83286   6.347  30.136   2.385
21998W        W83287  36.950  40.872  12.981
21999W        W83288  10.168   2.872  11.433
22000W        W83289  29.156  29.086  10.620
22001W        W83290  35.524  32.995   0.411
22002W        W83291  15.631  16.789  10.474
22003W        W83292  30.635  20.610   3.275
22004W        W83293   8.668  26.106  13.357
22005W        W83294  22.024  22.065   2.364
22006W        W83295   1.909   5.711   4.124
22007W        W83296  12.334  23.215   1.773
22008W        W83297   2.861  32.096  13.371
22009W        W83298  44.264   8.185   0.382
22010W        W83299  34.404  18.649  12.429
22011W        W83300   9.808  38.014   0.839
22012W        W83301  44.956  12.611  14.405
22013W        W83302  17.071  14.733   2.860
22014W        W83303  36.027  27.184   2.326
22015W        W83304  23.062   5.352  13.434
22016W        W83305  25.167  20.697  13.822
22017W        W83306   1.832   0.975   4.736
22018W        W83307   2.804   5.801   3.679
22019W        W83308  17.601  12.833   1.724
22020W        W83309  39.469   8.659   1.812
22021W        W83310  24.112  14.788  12.438
22022W        W83311  16.676  18.741   2.738
22023W        W83312  28.634  35.572   1.362
22024W        W83313  28.946  31.517  10.917
22025W        W83314  21.202  26.030   4.152
22026W        W83315  31.406  35.507  12.421
22027W        W83316   2.406  20.613   2.247
22028W        W83317  25.538   2.888  14.378
22029W        W83318  25.190  25.135   2.219
22030W        W83319  23.717  36.401   0.433
22031W        W83320   0.303  24.627   1.910
22032W        W83321   0.835   0.779   4.343
22033W        W83322  28.025   9.255   1.285
22034W        W83323  19.167  37.469   1.359
22035W        W83324  39.439  26.560   3.171
22036W        W83325   9.310  25.577  11.378
22037W        W83326  33.407  42.403   3.749
22038W        W83327  26.697  43.860  13.856
22039W        W83328  38.369  22.550   3.266
22040W        W83329  41.955  39.849   0.950
22041W        W83330   0.421  24.043  14.336
22042W        W83331   3.348  20.716   3.254
22043W        W83332  43.482  25.207   4.315
22044W        W83333  21.709   1.468  10.939
22045W        W83334  20.159  18.052   1.717
22046W        W83335  27.557  42.809   0.765
22047W        W83336  43.334  28.613  11.045
22048W        W83337  27.195  34.528   1.213
22049W        W83338  41.490  20.546  11.069
22050W        W83339   3.360  14.114  12.390
22051W        W83340  27.023   4.848  10.612
22052W        W83341  27.482   8.399  12.051
22053W        W83342  17.254   2.781  11.976
22054W        W83343  26.193   9.864  14.371
22055W        W83344  32.487  39.857   1.288
22056W        W83345  27.639   8.788  11.048
22057W        W83346  35.553  40.024  14.940
22058W        W83347  18.673  12.128   0.305
22059W        W83348  44.434  26.095  10.528
22060W        W83349  26.148   1.412   2.887
22061W        W83350  11.751   2.773  11.118
22062W        W83351  10.250  35.399   1.719
22063W        W83352  23.723  22.205  12.432
22064W        W83353  22.703  17.732   1.266
22065W        W83354  38.438  32.124  13.325
22066W        W83355   0.922  41.875   2.887
22067W        W83356  22.611  33.408   2.699
22068W        W83357  36.954   0.289   3.215
22069W        W83358  27.105  36.994  12.440
22070W        W83359  34.379  21.125  12.545
22071W        W83360   4.364  14.286  10.532
22072W        W83361   8.257   5.923   1.213
22073W        W83362  38.514  35.916   2.281
22074W        W83363   7.400   1.398   1.868
22075W        W83364  22.517  37.426  12.086
22076W        W83365  10.344  38.491  11.087
22077W        W83366  37.567  10.198  14.289
22078W        W83367  26.483   6.203   4.181
22079W        W83368  15.636  13.139  13.967
22080W        W83369  33.068  36.407   3.845
22081W        W83370  11.804  41.298   2.896
22082W        W83371  16.579  10.683   2.890
22083W        W83372  10.828  11.826  12.860
22084W        W83373  41.498  26.514  10.114
22085W        W83374  12.171   0.323   3.732
22086W        W83375   7.790  35.582  11.120
22087W        W83376  24.997  29.121  14.441
22088W        W83377  25.198  40.392  10.937
22089W        W83378  39.986  40.013  11.891
22090W        W83379  35.499  18.257  12.395
22091W        W83380  25.170  21.198  13.830
22092W        W83381  43.844  32.538  13.454
22093W        W83382  17.105   8.294  12.881
22094W        W83383  13.190  29.654  13.889
22095W        W83384   5.353  10.247  14.888
22096W        W83385  16.131  20.607  13.366
22097W        W83386  27.096  14.663  11.900
22098W        W83387  25.489  18.709  13.828
22099W        W83388  42.942  34.524  10.404
22100W        W83389  12.179   2.253   2.215
22101W        W83390  39.018   0.383  12.501
22102W        W83391  16.716   1.910   0.293
22103W        W83392  41.951  14.136   4.273
22104W        W83393   2.279   8.707  10.520
22105W        W83394  43.516   7.338   5.605
22106W        W83395   5.848  28.532  11.423
22107W        W83396  19.540  15.134   4.286
22108W        W83397   6.766  27.960   3.278
22109W        W83398  20.602  38.382  14.432
22110W        W83399  30.588   4.359   4.291
22111W        W83400   4.284  29.550  13.377
22112W        W83401  37.895   1.754  12.842
22113W        W83402  25.596  15.812  13.531
22114W        W83403  37.436  13.215  12.949
22115W        W83404  26.551  17.237   0.851
22116W        W83405  27.453  10.831  11.932
22117W        W83406  10.655   4.764   4.121
22118W        W83407  40.008   0.840   3.148
22119W        W83408  34.447   1.246  11.005
22120W        W83409  44.008  32.464   0.733
22121W        W83410  12.762  18.137  11.978
22122W        W83411  13.780   3.917  12.030
22123W        W83412  17.236  29.945  13.545
22124W        W83413  18.055  18.162  14.769
22125W        W83414  34.385  15.083   0.834
22126W        W83415   2.743  28.574  14.901
22127W        W83416  22.204  26.662   3.795
22128W        W83417  36.064  16.742   3.343
22129W        W83418  33.034  24.492  14.914
22130W        W83419  34.541  11.225  10.907
22131W        W83420   1.474  16.152   3.355
22132W        W83421  18.285  31.103   3.221
22133W        W83422   0.345  34.414   3.291
22134W        W83423   7.837  24.214   0.313
22135W        W83424  12.856   1.943  13.828
22136W        W83425   4.421  26.983  11.920
22137W        W83426  38.891  37.357   3.223
22138W        W83427  18.699  38.357  11.530
22139W        W83428  22.683  22.104  11.051
22140W        W83429  24.560  13.646   4.165
22141W        W83430  28.625   4.349   4.799
22142W        W83431  24.582  42.502  13.446
22143W        W83432  17.225  31.044   4.301
22144W        W83433  34.583   1.863  14.301
22145W        W83434  32.889  39.423  11.565
22146W        W83435  37.881  25.597  13.335
22147W        W83436   4.827  14.192  11.958
22148W        W83437  37.885  27.528   1.253
22149W        W83438   4.804  41.950   0.309
22150W        W83439   2.938  42.458  11.117
22151W        W83440  39.469  10.820   3.682
22152W        W83441  21.079  26.676  13.901
22153W        W83442  14.143  34.952   3.259
22154W        W83443  43.849  22.725  14.793
22155W        W83444  20.726  27.593   3.188
22156W        W83445  31.098  21.033   2.363
22157W        W83446  21.022  38.901   2.786
22158W        W83447  25.111  29.081   3.850
22159W        W83448   0.491  14.604   2.669
22160W        W83449  19.556  33.541   3.358
22161W        W83450  33.108  22.078   3.751
22162W        W83451   0.857  19.730  12.453
22163W        W83452  36.074  41.036  11.504
22164W        W83453   4.832  20.210  14.351
22165W        W83454  41.518  44.927   1.777
22166W        W83455  32.888   3.914   0.416
22167W        W83456  42.384  34.876   3.693
22168W        W83457  23.148  26.514  13.847
22169W        W83458  33.024  43.860  12.850
22170W        W83459  23.637   5.910  11.512
22171W        W83460   6.799  35.370  13.365
22172W        W83461  44.870  33.431   3.188
22173W        W83462  38.892  41.976  13.816
22174W        W83463  33.469  26.458   3.848
22175W        W83464   4.235  14.631  12.052
22176W        W83465  24.589  14.687  14.956
22177W        W83466  16.151  21.755  14.305
22178W        W83467  24.622   4.383   2.784
22179W        W83468  12.122  36.464  11.935
22180W        W83469  23.063   4.700  10.534
22181W        W83470  32.481  29.151   0.290
22182W        W83471  44.381  21.031  13.810
22183W        W83472  38.878  14.101  10.556
22184W        W83473  26.162   1.348   0.379
22185W        W83474  33.016  32.973  13.026
22186W        W83475  41.442  21.173   1.237
22187W        W83476  10.807   2.452  14.920
22188W        W83477  43.011  19.158   1.366
22189W        W83478  29.526  32.571  11.374
22190W        W83479  18.289  29.637   2.780
22191W        W83480  25.028  24.708  14.367
22192W        W83481  41.022  26.001   1.225
22193W        W83482   6.711   0.304   2.737
22194W        W83483  43.782  36.010   3.719
22195W        W83484  21.621  28.969   1.837
22196W        W83485   7.334  19.670  12.025
22197W        W83486  32.892  36.974   0.957
22198W        W83487  25.161  40.905   2.351
22199W        W83488  12.843  35.017   2.785
22200W        W83489   1.284  14.735  12.017
22201W        W83490   7.266  13.139  10.494
22202W        W83491  31.505  34.882  13.875
22203W        W83492  31.100  41.367   2.275
22204W        W83493   9.213   5.312  11.973
22205W        W83494   6.191  19.172   3.294
22206W        W83495   6.718  35.428  12.390
22207W        W83496  23.553  38.547  10.515
22208W        W83497  40.509  24.644   3.211
22209W        W83498  38.500  15.192   0.959
22210W        W83499  43.914  25.593  14.414
22211W        W83500  44.366  22.553   1.798
22212W        W83501  36.049  35.569  14.511
22213W        W83502  14.759   7.900   0.262
22214W        W83503  44.908   0.470  14.384
22215W        W83504  19.625  34.909   3.179
22216W        W83505  21.517  19.682   4.638
22217W        W83506  23.519  38.371  11.124
22218W        W83507  38.477   9.349   1.334
22219W        W83508   2.364  31.977   3.232
22220W        W83509  26.542  25.215   2.248
22221W        W83510  34.953  24.590   1.278
22222W        W83511  30.475  37.431   2.895
22223W        W83512   7.837  35.384   0.843
22224W        W83513  13.692  44.908   4.270
22225W        W83514  15.689  23.134   4.167
22226W        W83515  40.841  42.025  13.456
22227W        W83516  19.720  12.612  11.015
22228W        W83517   4.827   8.670   2.287
22229W        W83518  38.435  14.217  14.380
22230W        W83519  16.207   9.786   0.400
22231W        W83520  27.140  24.660   3.714
22232W        W83521  27.961  44.270  13.985
22233W        W83522   5.863  40.964  14.844
22234W        W83523   3.216  32.399   2.227
22235W        W83524  25.114  32.914   0.342
22236W        W83525  23.610  39.354  14.800
22237W        W83526  30.492  40.028   3.241
22238W        W83527   9.386  14.798   3.254
22239W        W83528  32.456  44.963   3.726
22240W        W83529  22.508  40.411   4.196
22241W        W83530   0.902  11.287   2.843
22242W        W83531  21.123  36.381   4.740
22243W        W83532   7.838   0.423  10.537
22244W        W83533  28.085  11.715   4.299
22245W        W83534  28.616  20.259  14.276
22246W        W83535  38.355  15.727   5.592
22247W        W83536  37.026  32.128   3.814
22248W        W83537  25.181   7.321  11.043
22249W        W83538  18.065  15.294  14.355
22250W        W83539  22.638  12.660  14.369
22251W        W83540  30.457  13.737  14.762
22252W        W83541  14.240  13.774  10.949
22253W        W83542  17.231  24.606   4.319
22254W        W83543  34.973  25.534  11.129
22255W        W83544  14.700  26.132   2.688
22256W        W83545  35.025  41.313  14.459
22257W        W83546  19.585  10.759  13.409
22258W        W83547  37.954  30.975   1.906
22259W        W83548  10.652  36.940  14.395
22260W        W83549   9.378  20.642  11.906
22261W        W83550  34.590   5.259   3.227
22262W        W83551  33.604   1.791  13.005
22263W        W83552   4.328  18.772  12.842
22264W        W83553  36.520  15.181   0.263
22265W        W83554  28.146  11.723   3.652
22266W        W83555  16.098  19.285   1.862
22267W        W83556  17.598  22.198  13.520
22268W        W83557  11.778  10.758  13.999
22269W        W83558  41.420  18.581   3.284
22270W        W83559  32.986   1.394   5.198
22271W        W83560  42.429  13.717  11.430
22272W        W83561   5.788  36.570  14.949
22273W        W83562   9.335  21.594   1.851
22274W        W83563   3.780   7.268  14.416
22275W        W83564  33.921  38.549  12.923
22276W        W83565  20.748  21.056   3.272
22277W        W83566  29.104  42.503   2.303
22278W        W83567  25.120  34.891   2.897
22279W        W83568  40.917  33.397   0.410
22280W        W83569  40.997  28.594   3.858
22281W        W83570  44.919  43.396   3.839
22282W        W83571   7.841  10.287   5.169
22283W        W83572  33.623   4.826  14.338
22284W        W83573  18.280  18.605  12.908
22285W        W83574  42.806  21.683   3.295
22286W        W83575  41.520   8.252   2.770
22287W        W83576  41.898  44.985  12.010
22288W        W83577   8.874   1.882  14.786
22289W        W83578  22.026  44.951   3.361
22290W        W83579  28.436  18.577   3.796
22291W        W83580  23.241   2.859   1.447
22292W        W83581  15.707  18.253  11.394
22293W        W83582  29.959   8.368  11.392
22294W        W83583   0.786  21.173   2.718
22295W        W83584  21.220  29.045  10.976
22296W        W83585   2.881  14.340   2.763
22297W        W83586   5.201   8.864  14.844
22298W        W83587  28.537  11.706   4.816
22299W        W83588  18.206  14.727   1.841
22300W        W83589  25.998  37.005  12.569
22301W        W83590   7.873  18.678   0.941
22302W        W83591  23.201  30.001   1.925
22303W        W83592   2.464  44.280  11.441
22304W        W83593  36.926  20.145  12.475
22305W        W83594   6.799   9.804  10.618
22306W        W83595   5.812  41.832  14.369
22307W        W83596   2.802  20.132  12.535
22308W        W83597  24.179  42.462   2.736
22309W        W83598  40.414   0.913  11.521
22310W        W83599  17.797   1.376   1.424
22311W        W83600  44.808   5.792  14.813
22312W        W83601  16.601  39.051  11.475
22313W        W83602  43.507  29.653   2.760
22314W        W83603   8.254  21.746  12.459
22315W        W83604  37.416  11.192  11.093
22316W        W83605  33.450  36.852  11.505
22317W        W83606  16.092  43.473   3.219
22318W        W83607  40.480  21.657  14.358
22319W        W83608  29.497   4.271   1.311
22320W        W83609  37.438  29.633   3.864
22321W        W83610  29.010  43.868   1.802
22322W        W83611  40.535  27.653   1.237
22323W        W83612  29.969   1.822  12.530
22324W        W83613  20.148  34.883   1.381
22325W        W83614   6.181  34.926  10.552
22326W        W83615  34.545   6.279   0.471
22327W        W83616   7.403  41.343  13.979
22328W        W83617  27.628  32.888   0.791
22329W        W83618  18.283  20.049  14.012
22330W        W83619   3.943  16.774   0.455
22331W        W83620  11.236  27.050  10.556
22332W        W83621  28.572  32.474  10.472
22333W        W83622  42.876   5.765  11.419
22334W        W83623  36.067  33.465  13.409
22335W        W83624   0.892  18.174  12.429
22336W        W83625  36.480  22.050  11.883
22337W        W83626  17.113  31.122  14.777
22338W        W83627  18.665  27.039  13.020
22339W        W83628  37.554  29.516   2.249
22340W        W83629   3.342  23.099   2.259
22341W        W83630   4.284  36.535   3.309
22342W        W83631   4.386   8.359   4.224
22343W        W83632  20.567  19.779  13.798
22344W        W83633  10.301  41.466   3.787
22345W        W83634   6.856  20.189  14.376
22346W        W83635  37.944  25.215   3.639
22347W        W83636  43.339  37.889   3.191
22348W        W83637  43.855  16.266   4.802
22349W        W83638  24.566   5.258  10.482
22350W        W83639   3.900   2.374   4.235
22351W        W83640  16.635  20.574  11.459
22352W        W83641  43.443   1.407   1.916
22353W        W83642  11.156  25.142  14.310
22354W        W83643  39.814   8.239   0.758
22355W        W83644   6.680  44.413  12.916
22356W        W83645  41.921  24.693   0.369
22357W        W83646  34.065  27.591   1.242
22358W        W83647  20.113  18.207   0.473
22359W        W83648  34.109  11.291   0.900
22360W        W83649   9.779  41.428   4.719
22361W        W83650  28.662  39.967   1.375
22362W        W83651  30.016   2.260  10.968
22363W        W83652  38.973  16.735   9.941
22364W        W83653  25.652   5.378  13.956
22365W        W83654  24.035  31.483  13.428
22366W        W83655  24.996  20.594   0.311
22367W        W83656  41.537  11.175  14.324
22368W        W83657  24.091  11.351   3.822
22369W        W83658  33.612  14.219   5.304
22370W        W83659  14.099   4.225   0.274
22371W        W83660  25.596  37.965  11.102
22372W        W83661   3.925  27.570  13.316
22373W        W83662   7.763  29.604   3.300
22374W        W83663  26.628  27.491   2.773
22375W        W83664   2.938  40.364   4.305
22376W        W83665  36.843   0.875  10.480
22377W        W83666  44.479  18.063  11.099
22378W        W83667   2.461   7.201  14.299
22379W        W83668  19.662  40.538  10.506
22380W        W83669  16.197   0.916  12.385
22381W        W83670   2.232  30.018  13.037
22382W        W83671   4.897  23.625   2.264
22383W        W83672   9.723  27.027  14.030
22384W        W83673  24.518  14.186  14.904
22385W        W83674  34.515  17.747  11.556
22386W        W83675  21.112  44.504  13.886
22387W        W83676  27.996  29.102  10.412
22388W        W83677  22.063  29.547  14.344
22389W        W83678  36.940  16.590   3.160
22390W        W83679  31.082  29.992   4.230
22391W        W83680  39.963  27.568   2.694
22392W        W83681  21.033   0.487   4.275
22393W        W83682  41.795  30.153  12.046
22394W        W83683   3.851   3.274   1.388
22395W        W83684  15.822  44.894   4.753
22396W        W83685  22.650  11.205  12.824
22397W        W83686  23.723   0.903  11.071
22398W        W83687  23.601  25.674   4.769
22399W        W83688  38.492  24.716  11.055
22400W        W83689  41.461  19.107  12.340
22401W        W83690   0.912  23.238   0.875
22402W        W83691  42.807  35.073   4.663
22403W        W83692  35.887  35.093  13.829
22404W        W83693  10.342  41.848  13.340
22405W        W83694  37.473  19.144   1.769
22406W        W83695   3.419  44.435  11.519
22407W        W83696  11.157  13.639   0.397
22408W        W83697   3.248   6.411  11.929
22409W        W83698   5.783  36.563  10.572
22410W        W83699   4.414   6.353  10.981
22411W        W83700   1.467  37.539   4.152
22412W        W83701   5.806  14.294  14.954
22413W        W83702  38.863   9.161   3.323
22414W        W83703  36.982   0.773  13.485
22415W        W83704  38.438  35.878  10.980
22416W        W83705  38.911  18.601  11.583
22417W        W83706   7.230  21.261   1.410
22418W        W83707  34.456  13.748  12.935
22419W        W83708  17.117  30.025   1.427
22420W        W83709  25.647   1.956   4.776
22421W        W83710  28.098  37.917  11.428
22422W        W83711  13.120  29.005   3.715
22423W        W83712   8.188  27.655  10.574
22424W        W83713  32.539  17.657   3.795
22425W        W83714  20.700  12.128  14.813
22426W        W83715  22.187  28.024  14.873
22427W        W83716  34.909  39.005  10.087
22428W        W83717  36.562   1.260   1.376
22429W        W83718  36.459  36.034  10.953
22430W        W83719  20.650  29.493  11.870
22431W        W83720  39.513   5.274  12.521
22432W        W83721  33.506  19.108  11.400
22433W        W83722  39.467  26.528  13.994
22434W        W83723  16.317  19.608   4.780
22435W        W83724  44.937  15.297   2.755
22436W        W83725  11.661  44.853   5.212
22437W        W83726  41.886   3.430  12.910
22438W        W83727  30.163  31.971   1.212
22439W        W83728  33.061   3.361   9.973
22440W        W83729   0.871  41.512   1.299
22441W        W83730   5.832   1.835  10.942
22442W        W83731  30.452  30.948   1.225
22443W        W83732  37.048  42.952   2.778
22444W        W83733  20.603   7.858   4.179
22445W        W83734  23.660  29.097   4.673
22446W        W83735  37.849   4.831   4.281
22447W        W83736  28.942  34.553  13.510
22448W        W83737  36.932  18.240  14.494
22449W        W83738  24.498  12.338   2.377
22450W        W83739  32.616  25.219   1.863
22451W        W83740  27.650  25.554  11.600
22452W        W83741  25.212  23.600  12.919
22453W        W83742  24.530  10.232  11.489
22454W        W83743   5.900  40.370   4.169
22455W        W83744  15.626  19.199  11.528
22456W        W83745  39.944  34.108   4.739
22457W        W83746  37.884  23.114   4.644
22458W        W83747  41.419  26.970  14.793
22459W        W83748  15.755  23.644   5.112
22460W        W83749   1.929  26.154  10.534
22461W        W83750  22.120   2.401   2.733
22462W        W83751  22.521  30.599  12.031
22463W        W83752  20.095  32.392  11.450
22464W        W83753  42.887   8.743   4.630
22465W        W83754  44.456   2.408  12.564
22466W        W83755  26.581   4.382   1.422
22467W        W83756  42.832  14.171   1.248
22468W        W83757  20.730  12.208   2.766
22469W        W83758  31.958  25.517  13.792
22470W        W83759  39.437   3.328   2.898
22471W        W83760  24.557  18.757   0.768
22472W        W83761  28.133  20.124   4.210
22473W        W83762  39.534  10.813  13.511
22474W        W83763  40.990  28.616   2.774
22475W        W83764  36.927  15.321   5.187
22476W        W83765  24.642  39.925  11.425
22477W        W83766  40.802  16.275  12.060
22478W        W83767   8.321  36.351   3.308
22479W        W83768  32.408  14.111   4.348
22480W        W83769  42.333  40.899  11.526
22481W        W83770  32.104  38.851   5.117
22482W        W83771  29.001  38.399  11.403
22483W        W83772  31.942  23.140   0.844
22484W        W83773  33.500  30.572   9.933
22485W        W83774   0.428   2.392  13.353
22486W        W83775  28.131   9.834   0.333
22487W        W83776  28.021  19.704   1.913
22488W        W83777  34.925  42.296   0.822
22489W        W83778  23.638  36.919  12.413
22490W        W83779   8.775  24.723   0.929
22491W        W83780   3.356  24.986  13.530
22492W        W83781  11.278   9.247  12.916
22493W        W83782  32.986   7.298   0.792
22494W        W83783  13.790  34.041   9.638
22495W        W83784  29.014  37.916  12.885
22496W        W83785   6.380  19.104  12.378
22497W        W83786  30.511  36.849  10.912
22498W        W83787   7.388  17.598   1.753
22499W        W83788  36.897  10.635   3.847
22500W        W83789   6.370  23.492  13.824
22501W        W83790   0.285   1.967  14.942
22502W        W83791   9.309   0.339  11.956
22503W        W83792  35.962  16.588  10.465
22504W        W83793  39.982  40.393   1.806
22505W        W83794   9.198   2.931   3.739
22506W        W83795  33.902  32.017   0.365
22507W        W83796  23.614  10.234   4.306
22508W        W83797  38.348  32.511  10.497
22509W        W83798  23.238  42.014  11.102
22510W        W83799  30.475  29.109   4.646
22511W        W83800   3.812  27.537   1.817
22512W        W83801  34.492  34.585  12.485
22513W        W83802  39.064   8.896   1.923
22514W        W83803  37.390  41.521  13.982
22515W        W83804  35.960  20.753   2.849
22516W        W83805   0.951  37.435  13.808
22517W        W83806  23.045  40.856   1.284
22518W        W83807  25.018  23.132  10.418
22519W        W83808  14.338  40.536  14.859
22520W        W83809  39.062   1.842   0.909
22521W        W83810  13.844  19.772   3.722
22522W        W83811  16.699  21.087  12.427
22523W        W83812  21.047  21.526  12.438
22524W        W83813  41.991  37.897  10.472
22525W        W83814  11.248  19.629   3.180
22526W        W83815  23.030  21.591  11.488
22527W        W83816  13.718  26.606   0.752
22528W        W83817  28.962  42.897   4.626
22529W        W83818  42.787   7.775   9.449
22530W        W83819   3.234  33.953   4.806
22531W        W83820  23.700  34.072  10.429
22532W        W83821  16.710  18.096   4.720
22533W        W83822  26.139  15.113   2.836
22534W        W83823  27.057   8.885  14.862
22535W        W83824   6.820   2.962  13.362
22536W        W83825  16.704  33.899  12.493
22537W        W83826   5.331  23.611   9.972
22538W        W83827   6.696  13.785   4.204
22539W        W83828  20.685  43.476   1.392
22540W        W83829  38.398  40.934  13.939
22541W        W83830  29.130  31.494  10.462
22542W        W83831  19.266  36.076  10.464
22543W        W83832  15.660   1.737  13.327
22544W        W83833   9.677  14.796   3.702
22545W        W83834  37.462  21.161  10.985
22546W        W83835   9.716  12.729   3.641
22547W        W83836  33.983  35.394   2.870
22548W        W83837   1.404  29.961  11.452
22549W        W83838  38.534   3.843   3.831
22550W        W83839  27.490  33.529   2.209
22551W        W83840   7.274  14.591   2.280
22552W        W83841  32.131  38.379  13.404
22553W        W83842  31.409  25.166   4.659
22554W        W83843   7.865  33.602  11.016
22555W        W83844  23.109   0.437   4.120
22556W        W83845  17.152   9.876  13.434
22557W        W83846  36.426  18.201  12.010
22558W        W83847   5.835  42.833  11.074
22559W        W83848  42.377  12.286  12.430
22560W        W83849  36.568  17.104   1.736
22561W        W83850  15.670  23.237   5.202
22562W        W83851   1.908   7.239  12.966
22563W        W83852  17.172  43.349   4.228
22564W        W83853  12.824  13.830  10.406
22565W        W83854  22.236  25.497   1.450
22566W        W83855  18.610  10.650  12.085
22567W        W83856   6.838  38.985  10.990
22568W        W83857  25.089  11.249   4.164
22569W        W83858   6.736  36.878   3.716
22570W        W83859  33.012  42.310   4.262
22571W        W83860  31.595  36.424   2.381
22572W        W83861  24.034   1.237  13.343
22573W        W83862  16.807  29.017   1.826
22574W        W83863  21.529  40.968   4.118
22575W        W83864  31.048  35.387   2.366
22576W        W83865   4.294  34.069   2.900
22577W        W83866  36.963  44.777  11.475
22578W        W83867   7.799  22.550  11.073
22579W        W83868  10.760  11.330   0.905
22580W        W83869  28.933  19.228   4.737
22581W        W83870  14.768  15.667  12.557
22582W        W83871  18.580  22.601   0.873
22583W        W83872   2.234  16.205   2.180
22584W        W83873   8.404   2.892   1.741
22585W        W83874   0.405  34.997  12.563
22586W        W83875   6.760  32.123   4.821
22587W        W83876   7.682  21.109   2.833
22588W        W83877  26.668  36.450   1.350
22589W        W83878  26.139  33.485   4.303
22590W        W83879  16.215  15.271  14.438
22591W        W83880  43.379   3.761  12.580
22592W        W83881  12.336  23.987   9.974
22593W        W83882  26.468  20.093  10.892
22594W        W83883  34.067   9.319   2.294
22595W        W83884  14.313  25.018  11.557
22596W        W83885  10.644  13.172   1.306
22597W        W83886  21.591  10.256   4.134
22598W        W83887  12.289   6.215  10.463
22599W        W83888  23.986  33.895  10.626
22600W        W83889  10.783  43.906   3.193
22601W        W83890  23.573  11.826  12.500
22602W        W83891  39.930   1.853   4.268
22603W        W83892  21.658   3.328  11.069
22604W        W83893  30.564  12.750  11.435
22605W        W83894   3.335  27.524  13.951
22606W        W83895   4.708  15.186   3.823
22607W        W83896  19.174  22.662   4.266
22608W        W83897  11.241  44.340   2.709
22609W        W83898  42.786  20.123  13.797
22610W        W83899  26.129  42.478  14.281
22611W        W83900  15.620  37.912  11.428
22612W        W83901  12.796  37.369  13.849
22613W        W83902   0.470   6.421   3.189
22614W        W83903  24.715  10.800   0.444
22615W        W83904   0.255  34.032  10.980
22616W        W83905  25.203  41.974  13.381
22617W        W83906  24.534   9.235   2.722
22618W        W83907   6.314  40.508   2.253
22619W        W83908  38.967  21.659   9.479
22620W        W83909  38.391  32.406   1.695
22621W        W83910  26.059  43.374  14.775
22622W        W83911  11.173  43.998  12.841
22623W        W83912  20.165  34.444  11.907
22624W        W83913  40.461  20.529  11.977
22625W        W83914  18.264  26.958  12.882
22626W        W83915  23.044  18.623  14.342
22627W        W83916  27.084   3.215  12.464
22628W        W83917   6.377  25.489   3.852
22629W        W83918  14.335  34.498  14.830
22630W        W83919  33.392  21.160   5.176
22631W        W83920  23.517  14.736  10.611
22632W        W83921   9.759  31.482  12.536
22633W        W83922  12.221  38.986  11.856
22634W        W83923  21.195   8.739  11.458
22635W        W83924   3.923  19.643   1.402
22636W        W83925  26.116  32.933   4.299
22637W        W83926   2.440  10.652  14.483
22638W        W83927  11.853   2.741   3.153
22639W        W83928  13.155  37.913  11.433
22640W        W83929  15.238   4.285   4.263
22641W        W83930  34.542  39.874  13.879
22642W        W83931  29.003  33.433  13.879
22643W        W83932  25.698   9.659  10.015
22644W        W83933  42.312   2.293  13.029
22645W        W83934  43.404  13.276  14.920
22646W        W83935   9.795   1.851   0.911
22647W        W83936  22.531  32.412  14.452
22648W        W83937  11.807   3.422   4.761
22649W        W83938  22.734   2.439   1.874
22650W        W83939  21.223  15.640  11.083
22651W        W83940  14.234  22.055  12.837
22652W        W83941  26.476   4.444  10.561
22653W        W83942  13.645  33.101  12.029
22654W        W83943  23.578  31.966   0.442
22655W        W83944  10.158  28.578  10.489
22656W        W83945  33.034  18.108   0.889
22657W        W83946   0.324  40.921   1.820
22658W        W83947   4.854  27.639   0.792
22659W        W83948  40.372  24.709  12.897
22660W        W83949  32.565  28.667  12.028
22661W        W83950  23.032  18.786   4.307
22662W        W83951  18.187  11.624   4.146
22663W        W83952  42.411  32.923   2.183
22664W        W83953  19.616  32.909  11.388
22665W        W83954  11.818  10.847  14.451
22666W        W83955  32.965  21.081   1.247
22667W        W83956  43.976   7.401   3.367
22668W        W83957  42.775  16.261  14.786
22669W        W83958  32.534   3.907   5.617
22670W        W83959  28.968   4.731   3.839
22671W        W83960  41.448  26.567  10.957
22672W        W83961  20.751  21.172   4.317
22673W        W83962  21.547  20.734   3.191
22674W        W83963   4.718  11.339   4.304
22675W        W83964  29.580  27.010   3.682
22676W        W83965  23.711   0.778  11.423
22677W        W83966  21.534  12.711  11.021
22678W        W83967   5.770  14.731   4.730
22679W        W83968  34.962   3.286  14.341
22680W        W83969  12.168  36.379   3.782
22681W        W83970   0.442   3.761  14.361
22682W        W83971  20.179   9.780  11.877
22683W        W83972  33.044  36.073  11.072
22684W        W83973  21.105  36.851  12.934
22685W        W83974  36.520  23.092  10.491
22686W        W83975  36.538   2.237  11.963
22687W        W83976  26.199  36.936   2.232
22688W        W83977  29.634  15.172   0.437
22689W        W83978   9.718  28.629  11.904
22690W        W83979  30.148  15.107   2.731
22691W        W83980  10.211  38.884  11.005
22692W        W83981  44.419  38.563   4.694
22693W        W83982  17.293  12.307   4.710
22694W        W83983  35.532  32.970  10.590
22695W        W83984   4.837  28.612   4.183
22696W        W83985  10.212  26.159   0.409
22697W        W83986  32.919  26.513  13.861
22698W        W83987   3.794  10.305  11.097
22699W        W83988  13.294  18.722  14.794
22700W        W83989  24.974  16.804  14.372
22701W        W83990  31.023  18.743  14.296
22702W        W83991  19.266  19.678  13.050
22703W        W83992  20.245  25.150  10.554
22704W        W83993  43.488  33.084  11.613
22705W        W83994  19.684  28.543  10.578
22706W        W83995  20.177  13.804   4.150
22707W        W83996  29.003  42.786  12.894
22708W        W83997  22.575   8.222   3.268
22709W        W83998   2.282  37.925   2.708
22710W        W83999  42.485  25.549  10.610
22711W        W84000  13.820  34.561  12.828
22712W        W84001  12.264  37.967   2.412
22713W        W84002   4.231  24.607  11.057
22714W        W84003  16.148  22.571   0.351
22715W        W84004  10.805  36.085  11.581
22716W        W84005  16.130  17.691  14.388
22717W        W84006  33.450  15.769   2.390
22718W        W84007   6.795  27.165   0.264
22719W        W84008  15.822  24.057  10.911
22720W        W84009  23.549   9.846   1.214
22721W        W84010  18.146   5.290   1.428
22722W        W84011  24.227  15.159  13.532
22723W        W84012  33.084   5.246  10.027
22724W        W84013  33.950  17.766  11.124
22725W        W84014  42.893   2.912  11.069
22726W        W84015   4.235  29.158   3.311
22727W        W84016  33.431   4.234  12.513
22728W        W84017  14.226  10.836  11.576
22729W        W84018  33.531  43.879   0.271
22730W        W84019  24.179  28.170   0.469
22731W        W84020  34.545  19.282  14.427
22732W        W84021   8.183   3.311  13.796
22733W        W84022  20.243  22.660  14.276
22734W        W84023   6.331  32.131   4.829
22735W        W84024  16.115  16.214  13.311
22736W        W84025  31.013  28.045  14.898
22737W        W84026   5.802  33.060   2.781
22738W        W84027   9.265   5.392  12.882
22739W        W84028  27.643  36.067   0.302
22740W        W84029  37.419  32.539   1.440
22741W        W84030  37.071   9.647  11.423
22742W        W84031  29.023  30.466   3.170
22743W        W84032  29.578  14.303  11.014
22744W        W84033  33.621  37.934   3.780
22745W        W84034  42.021  41.405   2.418
22746W        W84035  19.129   9.702   2.288
22747W        W84036   3.903  18.197  14.875
22748W        W84037   7.398  16.217   3.205
22749W        W84038  40.432  36.494   4.241
22750W        W84039  27.483  38.431   0.883
22751W        W84040   5.280   2.467   2.725
22752W        W84041  11.826  42.340  12.413
22753W        W84042  30.039   0.377   3.870
22754W        W84043   5.919  41.364  14.427
22755W        W84044   4.864  31.974   5.292
22756W        W84045  23.620   8.696  13.886
22757W        W84046  12.307   8.396  11.940
22758W        W84047  20.247  13.811  13.444
22759W        W84048  33.501  38.418   3.275
22760W        W84049  37.546  36.081   0.845
22761W        W84050  29.014  35.050   0.964
22762W        W84051  38.550  19.565  12.071
22763W        W84052   7.846  10.322   3.768
22764W        W84053  13.817  39.430  12.472
22765W        W84054   2.329   7.181  13.501
22766W        W84055   7.382  18.628  14.028
22767W        W84056  34.517  17.067   0.354
22768W        W84057  41.025  37.049   4.670
22769W        W84058   5.808  21.520   1.708
22770W        W84059   2.804  28.141  10.983
22771W        W84060  11.315  20.208  13.854
22772W        W84061  30.985  35.074   0.862
22773W        W84062   1.304   0.303  14.010
22774W        W84063  19.566  16.212  13.433
22775W        W84064  21.682  23.104   0.869
22776W        W84065   3.233  12.696   0.343
22777W        W84066  12.120   0.861  12.060
22778W        W84067  21.616  14.649   4.236
22779W        W84068  24.995   4.364   0.730
22780W        W84069   7.260  32.120  14.302
22781W        W84070  27.138   0.941  10.932
22782W        W84071   2.321  42.526  14.357
22783W        W84072   7.791   8.689   0.844
22784W        W84073  33.602  25.065  11.465
22785W        W84074  19.220  26.682   2.894
22786W        W84075  29.525   8.226  11.938
22787W        W84076   7.247   7.411  11.957
22788W        W84077  15.121  40.353  14.977
22789W        W84078  10.807  43.793   2.701
22790W        W84079  20.526  23.662  11.551
22791W        W84080  15.239  44.335   3.810
22792W        W84081  40.413   6.260   4.800
22793W        W84082  35.462  15.819   5.256
22794W        W84083  36.925  35.999  14.808
22795W        W84084  30.908  33.971   0.441
22796W        W84085  19.641   8.844  10.903
22797W        W84086  36.432  15.723   2.313
22798W        W84087  29.642  41.518   0.757
22799W        W84088  10.845  24.127   4.317
22800W        W84089  28.053  22.032  12.007
22801W        W84090  11.342  10.868  11.402
22802W        W84091  27.550  31.524  11.960
22803W        W84092  16.746   2.364   0.419
22804W        W84093  12.711  28.166  14.392
22805W        W84094  33.605  13.221   0.797
22806W        W84095  44.293  11.295   4.292
22807W        W84096   7.377  23.734  11.931
22808W        W84097   6.758  12.851   4.736
22809W        W84098  25.615   2.424   2.895
22810W        W84099   8.219  37.456  11.040
22811W        W84100  18.286  35.495  13.871
22812W        W84101  10.724   4.820   0.468
22813W        W84102  14.645  11.677   4.345
22814W        W84103   0.315  34.952   2.817
22815W        W84104   7.188   0.260   2.801
22816W        W84105  41.518   5.229   3.793
22817W        W84106   2.269   5.817   3.688
22818W        W84107   3.729  27.650   0.839
22819W        W84108  27.019  43.461   2.399
22820W        W84109  12.831  19.090  14.892
22821W        W84110  40.821  29.944  14.280
22822W        W84111  44.762  23.509  13.910
22823W        W84112  32.538  10.649  12.357
22824W        W84113  11.642  18.128  14.912
22825W        W84114  12.637   8.310   1.743
22826W        W84115  34.488  25.167  10.955
22827W        W84116  28.067  22.193   4.624
22828W        W84117  21.220  25.978  11.521
22829W        W84118   9.302  22.550  12.933
22830W        W84119  42.292   6.894   2.291
22831W        W84120  10.317  15.743  10.633
22832W        W84121  29.088  16.598   4.803
22833W        W84122   0.251  38.020   4.315
22834W        W84123   3.338  20.180   0.953
22835W        W84124  31.977  15.190  12.972
22836W        W84125  15.656  36.948  13.980
22837W        W84126  17.164  14.213  14.394
22838W        W84127  27.445  35.487  11.863
22839W        W84128  26.153  13.705   0.908
22840W        W84129   4.760  31.418   3.632
22841W        W84130  23.189  32.048  13.013
22842W        W84131   7.782  23.621   1.804
22843W        W84132  28.177   0.969   4.265
22844W        W84133  28.122  40.520  11.867
22845W        W84134  18.676  39.823  10.479
22846W        W84135  23.520  37.572   0.360
22847W        W84136  21.252  15.284  14.433
22848W        W84137  16.233  36.986   3.219
22849W        W84138   8.871  11.858  14.483
22850W        W84139  29.502  16.147  11.562
22851W        W84140  35.402  44.457   2.181
22852W        W84141   0.271  33.552  13.806
22853W        W84142  36.963   3.215   0.781
22854W        W84143   5.224  27.132   2.892
22855W        W84144   6.721   2.803  14.842
22856W        W84145  44.794   7.269   1.919
22857W        W84146   8.885  30.533   9.672
22858W        W84147  26.491  11.131  13.477
22859W        W84148  27.051  24.681  13.849
22860W        W84149  40.540  41.356   4.166
22861W        W84150  12.693   0.367  13.922
22862W        W84151  26.097  24.187   4.278
22863W        W84152  11.778  43.995  11.570
22864W        W84153   3.368  33.588   5.229
22865W        W84154  33.625  16.166  12.438
22866W        W84155  44.814  16.270  13.524
22867W        W84156  40.378   5.787  13.379
22868W        W84157  13.224   4.924   4.263
22869W        W84158  21.153  10.697   4.793
22870W        W84159   8.199  41.937   4.650
22871W        W84160  29.023   2.808   0.472
22872W        W84161  12.121  14.274   4.143
22873W        W84162  23.103  42.020  11.990
22874W        W84163  34.600  33.446  10.995
22875W        W84164   9.373   5.902   3.785
22876W        W84165  35.875  15.123   2.785
22877W        W84166  12.140   1.822  11.025
22878W        W84167   2.303  21.255  13.806
22879W        W84168  39.037  11.149  13.533
22880W        W84169  40.430  37.550   5.181
22881W        W84170  30.034  30.574  10.979
22882W        W84171  23.664   7.404   4.784
22883W        W84172   0.898  12.699   3.181
22884W        W84173  42.445  42.881  14.302
22885W        W84174  10.729   6.357  12.009
22886W        W84175  17.148  42.393   0.250
22887W        W84176  41.841  16.127   2.294
22888W        W84177  41.890  25.684   2.312
22889W        W84178   6.904   5.427  10.487
22890W        W84179   0.339   8.783  12.854
22891W        W84180   8.202   4.229   4.752
22892W        W84181  18.223   3.386  12.966
22893W        W84182  27.148  26.532  10.427
22894W        W84183  40.335  14.172  11.472
22895W        W84184   1.294  37.931  14.817
22896W        W84185  31.958   0.305  13.492
22897W        W84186  40.841  12.648   4.744
22898W        W84187  19.774   4.324  11.538
22899W        W84188  15.688  14.773   3.261
22900W        W84189  10.852  21.523   1.835
22901W        W84190  25.110  12.289  13.886
22902W        W84191   8.316  28.624  14.964
22903W        W84192  14.681   1.816   5.287
22904W        W84193  11.741  23.720  13.994
22905W        W84194  25.212  40.876  10.532
22906W        W84195  40.395   8.818   3.351
22907W        W84196  38.973  18.654  10.031
22908W        W84197  21.195  25.988   3.713
22909W        W84198  42.816  26.094   4.725
22910W        W84199  44.898  22.022  11.913
22911W        W84200  29.117  26.540  12.994
22912W        W84201  42.456  22.583  13.798
22913W        W84202   7.858  27.481  14.388
22914W        W84203  11.191  20.710  11.482
22915W        W84204  14.658   8.731   5.240
22916W        W84205   6.796  33.513  13.334
22917W        W84206  24.073  28.448  14.334
22918W        W84207   4.265  17.670   1.270
22919W        W84208   4.367  34.397   0.274
22920W        W84209  32.990  22.085  11.404
22921W        W84210  33.038  44.971  13.964
22922W        W84211  18.708   5.721  11.960
22923W        W84212   4.745  26.956  14.859
22924W        W84213  41.857  32.136   4.673
22925W        W84214  34.976  30.423   4.133
22926W        W84215   3.892  12.798  10.407
22927W        W84216  30.917  36.948   1.256
22928W        W84217  33.094  42.365  12.938
22929W        W84218  34.101  43.893  12.413
22930W        W84219   4.871   8.656   3.649
22931W        W84220  18.079   6.233  12.082
22932W        W84221   9.728   8.701   3.867
22933W        W84222  31.439  35.882   1.358
22934W        W84223  35.424  40.802  12.364
22935W        W84224  30.935  17.677  10.451
22936W        W84225  35.007  22.515  14.938
22937W        W84226  33.079   2.394   3.849
22938W        W84227  10.335   1.735   3.831
22939W        W84228   4.725  13.237   2.297
22940W        W84229  10.746  34.953  12.094
22941W        W84230   4.347  31.912  10.045
22942W        W84231  22.741   3.442  14.761
22943W        W84232  23.676  36.995  13.547
22944W        W84233  41.310  24.708   0.798
22945W        W84234  43.376   5.742  11.078
22946W        W84235   6.749  21.625  11.915
22947W        W84236  16.096  32.932  13.847
22948W        W84237  10.145  16.661   4.633
22949W        W84238   0.476  13.187  12.927
22950W        W84239  30.654  31.543   4.731
22951W        W84240  10.186  21.669   1.789
22952W        W84241   5.786  34.909   4.709
22953W        W84242  28.658  20.586  10.640
22954W        W84243  23.590  15.680   0.933
22955W        W84244  10.279  29.092  12.879
22956W        W84245  42.012  17.740  11.607
22957W        W84246  40.440  16.600  10.588
22958W        W84247  15.231   1.376   3.629
22959W        W84248  22.015  21.590  13.429
22960W        W84249  30.937   3.362  12.423
22961W        W84250   1.906  18.676  12.436
22962W        W84251  39.048  44.783   0.876
22963W        W84252  39.374  13.120  11.970
22964W        W84253  35.106  19.701   2.732
22965W        W84254  44.782  27.480   2.187
22966W        W84255   5.410  41.009   3.642
22967W        W84256   3.259  14.306   4.330
22968W        W84257  43.859  29.535   4.817
22969W        W84258   9.378  36.080   4.316
22970W        W84259  29.606  12.661   1.744
22971W        W84260  40.003  10.265  13.368
22972W        W84261  15.222  26.658   0.426
22973W        W84262  17.775  34.446   4.194
22974W        W84263  37.370   7.889  12.981
22975W        W84264  29.042  27.522  14.885
22976W        W84265  26.094  43.959   1.763
22977W        W84266  43.381  18.581  13.406
22978W        W84267   0.274  29.601   2.786
22979W        W84268  43.789  31.128  10.527
22980W        W84269  39.063   6.400  14.304
22981W        W84270   8.235  21.171  12.567
22982W        W84271  35.941  42.406  13.967
22983W        W84272  15.631   4.388   1.433
22984W        W84273  14.784   9.865   0.729
22985W        W84274   5.727   1.749  11.951
22986W        W84275  34.962   5.289   5.164
22987W        W84276  28.475  18.626   2.872
22988W        W84277   2.374  35.870   1.819
22989W        W84278   8.302   7.730   3.675
22990W        W84279   1.866  34.453  11.523
22991W        W84280  25.525   2.382   1.727
22992W        W84281   3.726  21.587   3.721
22993W        W84282   1.300  14.254  10.586
22994W        W84283   6.679   4.236   3.670
22995W        W84284  24.704   0.423  14.864
22996W        W84285  19.771  13.729   1.914
22997W        W84286  43.842  10.344  13.307
22998W        W84287  35.996  32.911  11.412
22999W        W84288  37.343  17.751  13.436
23000W        W84289  18.283   8.667   3.264
23001W        W84290  14.635  19.541   3.148
23002W        W84291  29.527   2.315   2.315
23003W        W84292   5.800  26.165  14.308
23004W        W84293  22.584  24.489  10.971
23005W        W84294  41.354  35.590  12.993
23006W        W84295  41.036  31.507  10.508
23007W        W84296  39.950  23.490   2.405
23008W        W84297  18.063  20.523   2.782
23009W        W84298  37.555  27.455  11.057
23010W        W84299  30.141  41.508   4.252
23011W        W84300  35.994  21.601  12.538
23012W        W84301  15.732  34.437  11.965
23013W        W84302  30.079  16.288  12.929
23014W        W84303  30.451   4.761  14.323
23015W        W84304  23.107  14.158   1.339
23016W        W84305  22.212  33.531  11.921
23017W        W84306   5.406  37.833   3.666
23018W        W84307   1.779   6.804  11.034
23019W        W84308  35.596  30.446  12.383
23020W        W84309  29.561  28.084   1.294
23021W        W84310  17.153   8.361   1.896
23022W        W84311  10.772  27.562   0.246
23023W        W84312  22.740  19.772   0.797
23024W        W84313  33.874  36.894   1.934
23025W        W84314  27.141  39.045   0.374
23026W        W84315  13.756  40.054  12.001
23027W        W84316  39.428   4.221  14.326
23028W        W84317   9.315  17.593  13.978
23029W        W84318  31.153  40.992   1.877
23030W        W84319   8.329   5.826   4.123
23031W        W84320  40.453  37.894  14.828
23032W        W84321  30.938  14.115  12.861
23033W        W84322  21.207   4.748   2.674
23034W        W84323   3.946   4.204  11.523
23035W        W84324  12.300  13.334  13.963
23036W        W84325  21.595  21.642   3.741
23037W        W84326  17.608   3.802   0.928
23038W        W84327  38.875  28.090  11.119
23039W        W84328  33.105  31.434  12.982
23040W        W84329  44.947  14.677  10.492
23041W        W84330  28.465   3.305  13.902
23042W        W84331   8.684  19.774   2.333
23043W        W84332   9.223  34.995  11.865
23044W        W84333  23.493  21.177   0.405
23045W        W84334  21.058   9.858   4.317
23046W        W84335  27.944  42.514  11.508
23047W        W84336  30.132  41.790   4.241
23048W        W84337  16.097  32.514  11.959
23049W        W84338   4.763  13.684  13.976
23050W        W84339   3.297  31.005   2.786
23051W        W84340  24.029  14.224  11.056
23052W        W84341  18.680  25.062   2.901
23053W        W84342  30.066  43.325  10.617
23054W        W84343  25.042  42.876  13.837
23055W        W84344  30.494  27.534   3.726
23056W        W84345  33.462   9.760   2.319
23057W        W84346  27.163  25.590  13.324
23058W        W84347  15.821  18.086   4.703
23059W        W84348  13.298  26.685  10.537
23060W        W84349   2.306  14.596  12.469
23061W        W84350  31.050  33.039   0.769
23062W        W84351  22.540  41.968   0.749
23063W        W84352  31.550  14.170   2.773
23064W        W84353  24.637   8.401  12.905
23065W        W84354  16.150  28.117   1.770
23066W        W84355   6.226   7.721   4.316
23067W        W84356   9.849   2.922   4.597
23068W        W84357   7.744  28.030   2.746
23069W        W84358   1.977  15.130   3.193
23070W        W84359  36.480  29.577   3.192
23071W        W84360  10.832  41.315  13.387
23072W        W84361  30.446   3.914   3.180
23073W        W84362  13.764  39.826   2.761
23074W        W84363  22.665  39.421  13.872
23075W        W84364  36.552  32.030   9.962
23076W        W84365  21.515   9.653  14.984
23077W        W84366  13.706  42.816   1.754
23078W        W84367   1.884  33.021  12.056
23079W        W84368   3.860   3.923  13.841
23080W        W84369  42.396  28.049  12.871
23081W        W84370  12.832  41.538  11.374
23082W        W84371  10.809   6.726  12.996
23083W        W84372  37.838  13.763  12.437
23084W        W84373  37.003  22.160   3.160
23085W        W84374   4.880  22.188  14.961
23086W        W84375  31.622  35.477   0.304
23087W        W84376  14.179  40.384  13.051
23088W        W84377  17.120  14.625  13.824
23089W        W84378  44.366  10.641  14.845
23090W        W84379  31.981  29.643   0.780
23091W        W84380  44.393  35.425   1.234
23092W        W84381  23.660   2.461  11.033
23093W        W84382  30.638  12.281   0.958
23094W        W84383   9.660  27.949  11.930
23095W        W84384  21.564  14.805  10.544
23096W        W84385   6.900  35.088   4.819
23097W        W84386  36.427  22.072   1.796
23098W        W84387  43.375  18.736   4.216
23099W        W84388  33.903   3.954   3.324
23100W        W84389  14.242  21.538   1.347
23101W        W84390  36.401  18.734  12.876
23102W        W84391  38.455  23.634   2.843
23103W        W84392  33.490   9.305   0.757
23104W        W84393  20.258  26.997  13.428
23105W        W84394  19.626  20.683   0.779
23106W        W84395  15.279  36.089  13.791
23107W        W84396  38.497   2.753  11.517
23108W        W84397  38.076   0.454   1.931
23109W        W84398  33.618  18.788   4.627
23110W        W84399  14.120   8.370  13.922
23111W        W84400  23.118  40.505  12.981
23112W        W84401  37.830  44.436   4.151
23113W        W84402  41.968  30.977   4.191
23114W        W84403  44.837  35.499  13.998
23115W        W84404  42.955   6.780   3.159
23116W        W84405  31.110  42.985  11.914
23117W        W84406  12.807  14.312  12.448
23118W        W84407   8.836  12.250  14.324
23119W        W84408  11.331  31.611  12.037
23120W        W84409  28.503   0.340  12.020
23121W        W84410  26.177  42.006   1.241
23122W        W84411  24.047   4.261  11.583
23123W        W84412  15.082  13.602  12.066
23124W        W84413  28.947  33.551   4.277
23125W        W84414  12.175  43.876   1.343
23126W        W84415  42.025  21.731  11.996
23127W        W84416  13.721   0.322   1.851
23128W        W84417  38.870  40.808   1.725
23129W        W84418   0.837  40.417  13.984
23130W        W84419  13.320   0.473  14.481
23131W        W84420  19.059  38.008  12.476
23132W        W84421  39.932   9.232  14.480
23133W        W84422  28.645  23.195   5.094
23134W        W84423  22.614  31.068  10.903
23135W        W84424  42.799  26.016  12.936
23136W        W84425  12.847   7.253  12.993
23137W        W84426  17.114  30.508   1.852
23138W        W84427  42.399  28.931  14.769
23139W        W84428   6.277   7.320   4.136
23140W        W84429  31.454  20.273  12.559
23141W        W84430   8.267  34.058   0.899
23142W        W84431  44.771  36.437  13.365
23143W        W84432  23.661  41.326  14.409
23144W        W84433  17.744  36.985   3.256
23145W        W84434  35.040  35.441  12.925
23146W        W84435  31.951  29.066  14.412
23147W        W84436  17.687  16.630  14.917
23148W        W84437   2.931  21.216   0.807
23149W        W84438  23.121  38.880  13.843
23150W        W84439  35.394  19.631   2.795
23151W        W84440   0.976  40.530   0.458
23152W        W84441  40.812   4.321   2.372
23153W        W84442  13.104  25.032   2.239
23154W        W84443   7.285  11.825  13.957
23155W        W84444  41.501   5.237  13.349
23156W        W84445  15.821  27.024  14.319
23157W        W84446   1.943  35.023   4.288
23158W        W84447  26.951   4.788  13.322
23159W        W84448  23.046   5.884  11.585
23160W        W84449  10.729  24.611  11.893
23161W        W84450   6.186  10.374  13.850
23162W        W84451   9.182  12.773  13.860
23163W        W84452  44.314  24.109   1.808
23164W        W84453  42.797  15.110   2.834
23165W        W84454   8.776  31.028   1.829
23166W        W84455  26.676   5.370  13.381
23167W        W84456  30.010  17.615  13.974
23168W        W84457   1.919  11.321  13.055
23169W        W84458  22.741   1.858   1.852
23170W        W84459  41.871  13.776  14.384
23171W        W84460  12.777  23.033   1.273
23172W        W84461   3.439  25.605  13.314
23173W        W84462   5.305   5.320  13.806
23174W        W84463  12.819  27.625   4.176
23175W        W84464  23.646  16.235  10.464
23176W        W84465   4.205  32.504  10.918
23177W        W84466  12.852  36.459  14.021
23178W        W84467   1.909   5.796  12.078
23179W        W84468   6.392   3.755   3.676
23180W        W84469  28.085  26.020   3.869
23181W        W84470  20.612  19.640  11.085
23182W        W84471  20.553  44.374  14.368
23183W        W84472  31.471  11.721  11.910
23184W        W84473  30.545  11.855  14.395
23185W        W84474  34.381  30.636  12.422
23186W        W84475   7.809  30.927   3.335
23187W        W84476  33.444  44.780   2.349
23188W        W84477  36.375  32.134  12.563
23189W        W84478  32.953  34.523  11.973
23190W        W84479  27.049  42.789  12.096
23191W        W84480  23.119  23.568   0.462
23192W        W84481  27.948   7.834  10.112
23193W        W84482  27.140  41.326  14.786
23194W        W84483  27.447  39.398  10.446
23195W        W84484  36.095  25.094  10.956
23196W        W84485   7.842  20.687  14.789
23197W        W84486   3.933  11.827   1.900
23198W        W84487  37.837  37.080  10.917
23199W        W84488  44.923   4.314   3.697
23200W        W84489  14.106  21.711   2.851
23201W        W84490  44.274  33.111   2.279
23202W        W84491  24.058  18.705   0.405
23203W        W84492  38.023  22.620   1.725
23204W        W84493   5.229  18.629  12.342
23205W        W84494  17.226  12.686   2.676
23206W        W84495  15.215  10.634  13.887
23207W        W84496  34.584  26.471   0.878
23208W        W84497  19.187  41.434  11.082
23209W        W84498   8.358  38.515   0.908
23210W        W84499   5.798  31.926  13.333
23211W        W84500  12.780  44.284   3.154
23212W        W84501  33.382   0.955  14.760
23213W        W84502  30.012  29.425   4.247
23214W        W84503  35.551  44.855   4.828
23215W        W84504  38.503  19.199   4.777
23216W        W84505   2.866  42.945   4.117
23217W        W84506  16.692   9.356   2.747
23218W        W84507  44.798  15.760  14.809
23219W        W84508   1.435   5.323   0.898
23220W        W84509  35.520  19.569  12.528
23221W        W84510  17.653  25.138  14.814
23222W        W84511  35.892  16.213  10.537
23223W        W84512   3.255  26.114  11.948
23224W        W84513  20.664  24.065  13.443
23225W        W84514  19.648  41.003  11.539
23226W        W84515  25.542  22.555  10.466
23227W        W84516  11.322  37.871   3.710
23228W        W84517  11.361  16.318   4.792
23229W        W84518   4.299   5.886   1.829
23230W        W84519  39.933  33.074  12.465
23231W        W84520  19.260   1.845  11.035
23232W        W84521   2.470  30.480   0.786
23233W        W84522  44.335  38.901  12.090
23234W        W84523  35.455  15.301   2.376
23235W        W84524  29.530  31.463  14.335
23236W        W84525  10.648  15.598   2.380
23237W        W84526  36.875   2.283   0.377
23238W        W84527  16.226  41.431   2.790
23239W        W84528  10.812  14.679   1.797
23240W        W84529  17.665  26.637  11.448
23241W        W84530  37.008  24.126   4.681
23242W        W84531  32.549   1.959  14.891
23243W        W84532  37.532  16.657  12.377
23244W        W84533  33.986  20.235  11.872
23245W        W84534  15.156  36.389  12.931
23246W        W84535  15.730  34.533  10.067
23247W        W84536  43.010  37.944  11.386
23248W        W84537  14.178  14.299   4.178
23249W        W84538  42.797  37.848   1.346
23250W        W84539  20.059  25.572   0.800
23251W        W84540  17.211  26.529  13.892
23252W        W84541  30.612   3.879   3.808
23253W        W84542  32.905   5.695   4.664
23254W        W84543  16.244  25.663  13.031
23255W        W84544  16.286  38.949  13.910
23256W        W84545  17.568  28.511  13.369
23257W        W84546  22.546  28.149   5.214
23258W        W84547  23.212   5.801   0.251
23259W        W84548  17.062  41.913   3.292
23260W        W84549  16.716  32.404  12.455
23261W        W84550   8.689   8.823  13.409
23262W        W84551  12.820  38.526   3.163
23263W        W84552   3.324  30.417  10.126
23264W        W84553  39.441  35.010   2.826
23265W        W84554  43.283  10.221   3.807
23266W        W84555  29.169  13.189  10.942
23267W        W84556  44.961  32.497   0.777
23268W        W84557  19.195   5.810   0.866
23269W        W84558  40.490  26.046  10.543
23270W        W84559  27.568  32.523   4.202
23271W        W84560   1.816   0.873   1.924
23272W        W84561   2.893  27.987   3.231
23273W        W84562  17.649  20.250   4.696
23274W        W84563  12.345  20.194   1.368
23275W        W84564   3.288   4.886  12.870
23276W        W84565  10.648  43.453   1.878
23277W        W84566  18.715  17.650  10.581
23278W        W84567  22.511  43.775  11.380
23279W        W84568   8.782   2.948  10.551
23280W        W84569  12.767  12.821  13.427
23281W        W84570  30.994  30.540   5.276
23282W        W84571  34.099  21.245   4.829
23283W        W84572  17.306  11.765   5.228
23284W        W84573  42.484  22.054   0.431
23285W        W84574   8.304  27.668  12.043
23286W        W84575   4.296  34.610  13.040
23287W        W84576  18.109  26.665   3.809
23288W        W84577  35.469  15.627   4.754
23289W        W84578   5.755  38.873   1.260
23290W        W84579  38.982  27.106  10.509
23291W        W84580   3.879  25.155  13.023
23292W        W84581  20.524  22.626   4.623
23293W        W84582  16.644  28.167  13.041
23294W        W84583  12.773  37.925   2.350
23295W        W84584  19.651  27.623  12.407
23296W        W84585   6.411  13.663   3.312
23297W        W84586  16.641  16.569   4.285
23298W        W84587  13.185   0.292  11.540
23299W        W84588   1.876  32.933  11.423
23300W        W84589  37.410  25.687  10.640
23301W        W84590   6.312  38.961   1.701
23302W        W84591  30.082  11.776  12.356
23303W        W84592  24.112  25.474   1.813
23304W        W84593  38.392  14.237  12.837
23305W        W84594  22.589  43.385  14.333
23306W        W84595  24.013  16.290   3.689
23307W        W84596   4.256  33.950  12.575
23308W        W84597  44.291  39.848   0.278
23309W        W84598  21.702  31.096   0.819
23310W        W84599  22.550  19.780  13.966
23311W        W84600  28.595  38.935  12.998
23312W        W84601  14.695   0.810  14.324
23313W        W84602  44.266  21.590   0.808
23314W        W84603  38.443  17.104  13.487
23315W        W84604  29.433  26.074  10.611
23316W        W84605  29.066   6.264  14.946
23317W        W84606  20.160  31.902   4.339
23318W        W84607  21.740  24.574   3.853
23319W        W84608  16.156  21.227   3.291
23320W        W84609   6.346  30.939  11.901
23321W        W84610  24.567   8.320   2.869
23322W        W84611  16.107  18.677  14.385
23323W        W84612  16.783  21.746   2.268
23324W        W84613  39.917  33.383  10.550
23325W        W84614  20.674  33.390  13.408
23326W        W84615   7.295  24.011  11.928
23327W        W84616  12.792   9.165   4.634
23328W        W84617  35.856  21.076   0.348
23329W        W84618   2.454  28.447   0.338
23330W        W84619  39.465  14.822  10.893
23331W        W84620  26.703  30.133  11.102
23332W        W84621   5.224  41.524   1.707
23333W        W84622  22.705   2.369  13.456
23334W        W84623  44.424  38.538   1.401
23335W        W84624   8.805  24.530   3.694
23336W        W84625  24.129  37.383   2.717
23337W        W84626   9.395  19.588   0.822
23338W        W84627  38.385   3.919  10.896
23339W        W84628  27.084   9.321  12.828
23340W        W84629  40.348  15.766   3.272
23341W        W84630   1.951  35.393  12.887
23342W        W84631  22.635  20.226   1.789
23343W        W84632  21.736   3.299  11.999
23344W        W84633  17.567  23.682  14.030
23345W        W84634  31.083  36.875   2.803
23346W        W84635  22.049   1.396  11.110
23347W        W84636  15.111  14.262   3.660
23348W        W84637  34.612  14.729  13.855
23349W        W84638  32.095   9.366   4.351
23350W        W84639   2.464  12.233  14.350
23351W        W84640  25.975  26.188   4.343
23352W        W84641  42.308  11.366   2.748
23353W        W84642  15.302  11.257  10.958
23354W        W84643  24.074   0.345   2.217
23355W        W84644  22.028  31.974   1.262
23356W        W84645   0.348  36.487  13.336
23357W        W84646  31.968  19.767  14.318
23358W        W84647  13.745   2.306   4.694
23359W        W84648  24.582  25.197   4.177
23360W        W84649  24.631  19.126   4.772
23361W        W84650  22.700   3.906  11.986
23362W        W84651   0.447  31.050   3.645
23363W        W84652  20.687   3.259  13.391
23364W        W84653   6.339  36.507   0.337
23365W        W84654  37.910   8.677   5.138
23366W        W84655  17.713  30.021   4.277
23367W        W84656  30.928   6.873  12.034
23368W        W84657   4.403  26.684   2.189
23369W        W84658   6.265  43.334   1.379
23370W        W84659  25.208  34.982   4.685
23371W        W84660  39.847  18.782  13.356
23372W        W84661  29.080  26.169  13.453
23373W        W84662  41.363  29.505   0.255
23374W        W84663  27.646  17.583  10.918
23375W        W84664  32.105   6.714   5.174
23376W        W84665  32.029  44.812  14.459
23377W        W84666  39.984  13.760   2.711
23378W        W84667  43.411  21.116  10.429
23379W        W84668   3.251  23.708  12.046
23380W        W84669  10.732  12.284   3.289
23381W        W84670  21.207   9.190   3.268
23382W        W84671  39.331  23.571   5.277
23383W        W84672  40.054  38.846  11.573
23384W        W84673   8.822   7.372  13.548
23385W        W84674  29.647  18.749  12.874
23386W        W84675  36.095  27.471   3.281
23387W        W84676   7.731  14.147  10.560
23388W        W84677   0.460  34.391  11.578
23389W        W84678   2.942  28.648   3.232
23390W        W84679   0.268  32.407   3.302
23391W        W84680  37.014   9.307  14.434
23392W        W84681  10.721  18.258   2.303
23393W        W84682  24.672   5.386   2.772
23394W        W84683  31.966  41.029  10.600
23395W        W84684  17.556  12.118   3.344
23396W        W84685  30.557   1.841   3.731
23397W        W84686  32.089  35.885  12.963
23398W        W84687  42.875  35.852   1.229
23399W        W84688  19.131  37.395   0.856
23400W        W84689   0.426   8.866   3.854
23401W        W84690  36.537  20.137  10.593
23402W        W84691   8.297  36.547   0.430
23403W        W84692  11.246  28.616  13.862
23404W        W84693  24.562  43.862   1.835
23405W        W84694  21.564   2.731  14.947
23406W        W84695  39.041  24.226   0.429
23407W        W84696   4.354   0.371  12.949
23408W        W84697  37.388  42.439  10.458
23409W        W84698  38.904  39.830  14.792
23410W        W84699   1.824   7.735   2.815
23411W        W84700   8.890   5.365   0.859
23412W        W84701  34.589  12.737   0.284
23413W        W84702  21.679   8.807  14.319
23414W        W84703  36.068  19.630   9.972
23415W        W84704  18.085  26.520  12.883
23416W        W84705   5.843   0.930  13.413
23417W        W84706  16.086  23.712   1.932
23418W        W84707  35.511   5.848   3.165
23419W        W84708  13.351  23.156  13.950
23420W        W84709  42.332  20.234  11.386
23421W        W84710   9.739  40.967   2.408
23422W        W84711  14.724  13.229  12.342
23423W        W84712   2.797   8.758  11.501
23424W        W84713  19.601  39.025   3.230
23425W        W84714  20.527  20.747  11.914
23426W        W84715  36.381  11.647  14.997
23427W        W84716  24.141   6.338  10.485
23428W        W84717  27.144  10.640   1.731
23429W        W84718   5.904   9.710   1.357
23430W        W84719  18.093  24.180   1.359
23431W        W84720  16.567   6.393   3.234
23432W        W84721  16.181   1.915  11.498
23433W        W84722  13.242  38.949   0.421
23434W        W84723  31.619  41.984   1.694
23435W        W84724  18.106  24.101   2.890
23436W        W84725  19.653  24.541   1.750
23437W        W84726   0.940   8.810  10.447
23438W        W84727  21.650  24.618   3.188
23439W        W84728  33.128  32.529  10.921
23440W        W84729  10.185   3.335   1.901
23441W        W84730  19.240  27.666   1.252
23442W        W84731  10.641  41.043   4.751
23443W        W84732  17.774  24.554  11.862
23444W        W84733  37.989  36.521   1.754
23445W        W84734  13.642  12.649   1.343
23446W        W84735  10.239  42.365  12.086
23447W        W84736  39.472  31.056  11.913
23448W        W84737  21.234  26.101   3.179
23449W        W84738  44.358  37.378   1.709
23450W        W84739  35.908  38.984   0.244
23451W        W84740   1.826   3.314   1.806
23452W        W84741  36.535  31.562   4.328
23453W        W84742  10.291  31.509  12.875
23454W        W84743  25.547  18.713   1.745
23455W        W84744  22.575  28.965   1.770
23456W        W84745  31.096   1.937  11.047
23457W        W84746  20.104   7.833   2.218
23458W        W84747  43.484   6.816   2.869
23459W        W84748   4.835  35.967  13.913
23460W        W84749   3.332  31.514   2.309
23461W        W84750  21.608  14.168   2.254
23462W        W84751   7.889  19.217   2.761
23463W        W84752  21.155   0.270  13.488
23464W        W84753  35.444  21.665   0.779
23465W        W84754  20.619  21.134   3.721
23466W        W84755  21.699  32.416  13.038
23467W        W84756   2.443  24.509   1.705
23468W        W84757  14.306   4.789  11.115
23469W        W84758  17.071  30.515   2.764
23470W        W84759   0.478  41.031   0.747
23471W        W84760  30.998  13.350   0.924
23472W        W84761  26.056  16.219   1.265
23473W        W84762  22.066  26.470   4.134
23474W        W84763  38.037   3.756   0.401
23475W        W84764  44.312  12.233  10.567
23476W        W84765  14.717  13.602   0.411
23477W        W84766  23.525  28.455   4.328
23478W        W84767  17.128  20.704   0.266
23479W        W84768  24.570  39.859   2.333
23480W        W84769  15.755  22.597  12.531
23481W        W84770  12.269  24.490  12.574
23482W        W84771  12.699   5.872   4.192
23483W        W84772  26.139   4.300   3.826
23484W        W84773  24.520  41.378  11.599
23485W        W84774  41.008  41.921  14.009
23486W        W84775  16.728   5.701  10.420
23487W        W84776  21.099   7.283  10.562
23488W        W84777  32.942  24.479   3.313
23489W        W84778  36.552  43.765  14.420
23490W        W84779  35.091   0.820   3.868
23491W        W84780   8.657  22.088   4.275
23492W        W84781  34.481  29.161  13.311
23493W        W84782  16.760   2.948   0.483
23494W        W84783  40.440   0.374   1.224
23495W        W84784  25.499  14.768  10.995
23496W        W84785  26.080  10.248   5.258
23497W        W84786  34.539   9.648   2.790
23498W        W84787  17.280  32.935   1.289
23499W        W84788  31.539  26.006  11.473
23500W        W84789  21.137  33.928   1.350
23501W        W84790  16.718  38.922  11.896
23502W        W84791   5.320  42.330   0.782
23503W        W84792  35.573  35.570  14.384
23504W        W84793  13.320  20.590   0.852
23505W        W84794  14.107  24.159   4.191
23506W        W84795  44.949  27.073  13.493
23507W        W84796  42.527  40.996   3.171
23508W        W84797  12.710  39.816  12.384
23509W        W84798  16.638   7.293  13.386
23510W        W84799   8.877  13.182   0.792
23511W        W84800  39.914   0.330   0.364
23512W        W84801  16.132  26.979  10.408
23513W        W84802  44.322  24.596   1.912
23514W        W84803   2.297  13.251  14.938
23515W        W84804  13.781  23.550   4.330
23516W        W84805  40.538  34.985   4.146
23517W        W84806  10.823  39.841   2.713
23518W        W84807  20.210  35.403   4.255
23519W        W84808   0.405   0.843   2.378
23520W        W84809  37.908  14.110  13.049
23521W        W84810  42.422   0.258   4.269
23522W        W84811   6.364  23.674   4.159
23523W        W84812   7.260  36.892  10.963
23524W        W84813  33.610  15.747  12.382
23525W        W84814  15.191   6.884  13.936
23526W        W84815   2.272   0.327   0.916
23527W        W84816  33.106   2.959  13.818
23528W        W84817  23.139   2.766   1.745
23529W        W84818   1.354  28.615  14.446
23530W        W84819  36.566  36.017   4.253
23531W        W84820  42.320  23.204   3.245
23532W        W84821  35.404  21.188   3.340
23533W        W84822  27.067   0.828  10.046
23534W        W84823  28.542  12.772   3.159
23535W        W84824  32.066  34.910   4.301
23536W        W84825  37.551  16.601  13.392
23537W        W84826   9.865  12.676   1.344
23538W        W84827  43.461  43.461  10.566
23539W        W84828   1.910  32.528   4.800
23540W        W84829  36.484  30.536   4.286
23541W        W84830  38.454  37.830   4.162
23542W        W84831  24.047  19.169   3.155
23543W        W84832  33.000  44.495  12.033
23544W        W84833   2.231   5.214  11.540
23545W        W84834  33.092  22.081  11.060
23546W        W84835  34.592  40.874   2.812
23547W        W84836  43.352  34.431   1.286
23548W        W84837  42.949   6.245  12.831
23549W        W84838  28.998  24.688  10.463
23550W        W84839  17.794  32.897   1.827
23551W        W84840  42.459   8.298   2.242
23552W        W84841  31.016  29.540  10.932
23553W        W84842   2.427   0.771  13.403
23554W        W84843  20.109  18.242  10.917
23555W        W84844   4.361  32.575   2.252
23556W        W84845  38.360  12.721  14.313
23557W        W84846   6.358   1.394  14.455
23558W        W84847   1.324  40.534   3.182
23559W        W84848  15.325  37.891  14.949
23560W        W84849  44.433  17.076  12.385
23561W        W84850   3.714  38.367   0.332
23562W        W84851  20.718  13.658  13.804
23563W        W84852  12.181  25.098   1.820
23564W        W84853  22.107  25.560   0.343
23565W        W84854   6.737  10.228  12.870
23566W        W84855  31.574  32.133  12.993
23567W        W84856   1.348  17.216   4.640
23568W        W84857  38.570   2.388   1.258
23569W        W84858  33.594  37.386   3.229
23570W        W84859  29.443  16.168  10.924
23571W        W84860  23.677   9.789   2.258
23572W        W84861  35.556  43.434  10.551
23573W        W84862  12.164   3.257   4.647
23574W        W84863  18.761   9.153   2.885
23575W        W84864  33.525  14.635   0.767
23576W        W84865  20.179  16.798  11.889
23577W        W84866  20.740   2.376   1.768
23578W        W84867   4.230   6.791  11.509
23579W        W84868  33.506   3.389   3.717
23580W        W84869  42.997   9.850   1.708
23581W        W84870  19.624  28.050  10.921
23582W        W84871   0.908   4.447   3.798
23583W        W84872  32.574  12.640  14.492
23584W        W84873  29.510  15.137   2.788
23585W        W84874  18.274   7.289   2.802
23586W        W84875   1.467  33.413  12.491
23587W        W84876  31.541  20.271  10.611
23588W        W84877  34.864  16.646   1.889
23589W        W84878  38.354  14.596  10.478
23590W        W84879  32.538  42.924  11.949
23591W        W84880  32.004  15.745  14.795
23592W        W84881   8.731  21.532   4.687
23593W        W84882  27.954  24.066  14.896
23594W        W84883   0.819  36.493  12.417
23595W        W84884  21.570  22.242   4.832
23596W        W84885   3.281   3.883   4.337
23597W        W84886  44.392  12.781  10.626
23598W        W84887   4.882   1.953  13.984
23599W        W84888  35.966  16.650   1.838
23600W        W84889  18.173  11.711   3.386
23601W        W84890   3.810  13.695  13.485
23602W        W84891  37.342   4.241  11.926
23603W        W84892  20.216  13.254  12.971
23604W        W84893  13.615  10.179  12.038
23605W        W84894  20.661  33.081   2.802
23606W        W84895  32.892  26.115   2.780
23607W        W84896  19.550   1.768  12.868
23608W        W84897  40.872   9.394  13.533
23609W        W84898   0.909  28.639  11.006
23610W        W84899  12.183  25.170  13.822
23611W        W84900  41.008  20.067  10.578
23612W        W84901  41.481  29.113  14.797
23613W        W84902  10.210  33.395   5.117
23614W        W84903   8.237  38.956  10.927
23615W        W84904   4.748  38.835  10.573
23616W        W84905   4.805  19.673   4.315
23617W        W84906  22.108  27.648   3.639
23618W        W84907  39.992  39.337  14.956
23619W        W84908  25.531  40.444   0.379
23620W        W84909  20.216  12.185  13.839
23621W        W84910  21.717  32.120   3.674
23622W        W84911  44.845   0.479   4.337
23623W        W84912   0.810   6.757  12.067
23624W        W84913  44.407  35.034  12.038
23625W        W84914   1.475  13.818   0.378
23626W        W84915  16.251   8.775  11.589
23627W        W84916  22.500   7.733   2.668
23628W        W84917  37.842   6.271  10.555
23629W        W84918  25.187  20.052  13.499
23630W        W84919  44.821  42.437   2.275
23631W        W84920  27.961  28.973  14.319
23632W        W84921  29.506   3.722   3.714
23633W        W84922  37.534  15.691  11.877
23634W        W84923  21.617  33.550  13.928
23635W        W84924  35.078  33.059   2.695
23636W        W84925   3.814  33.105   0.968
23637W        W84926  12.291  32.059   2.874
23638W        W84927   6.921   3.869   4.669
23639W        W84928  16.638   9.180   0.358
23640W        W84929  12.830  15.731   0.382
23641W        W84930   0.983  10.375  10.572
23642W        W84931  12.676  31.460  11.006
23643W        W84932  38.513  42.960  14.955
23644W        W84933  28.489  44.833   1.265
23645W        W84934  10.655   1.797   5.249
23646W        W84935   9.834  40.511  13.509
23647W        W84936  40.835  37.387   2.389
23648W        W84937   2.756  35.578  12.884
23649W        W84938  36.075  27.453   4.327
23650W        W84939  12.282  38.943  13.546
23651W        W84940  44.859  36.965   3.232
23652W        W84941  11.289  43.995   5.200
23653W        W84942  42.871  22.593   0.260
23654W        W84943  40.387  40.340  14.495
23655W        W84944  11.369  33.601   0.470
23656W        W84945   2.952  22.699   4.162
23657W        W84946  30.579  44.767   4.703
23658W        W84947  42.798   5.204  12.000
23659W        W84948  32.951  40.010   1.392
23660W        W84949  32.483   1.880  10.049
23661W        W84950  14.237  43.772  14.789
23662W        W84951  38.448  38.061  10.482
23663W        W84952  24.705   0.775   4.698
23664W        W84953  21.679  32.977   3.268
23665W        W84954  24.975  37.506  11.611
23666W        W84955  19.244  19.053   3.792
23667W        W84956  28.520  11.138  14.316
23668W        W84957  14.235   8.379  12.430
23669W        W84958  19.235  23.088  10.893
23670W        W84959  13.344  41.814  13.361
23671W        W84960  40.877  16.621  13.940
23672W        W84961  43.005  17.607   2.779
23673W        W84962  14.261  32.132   3.801
23674W        W84963  31.443  22.632   2.776
23675W        W84964  23.204  12.667  14.452
23676W        W84965  15.632  13.599   2.782
23677W        W84966  41.924  33.049   3.801
23678W        W84967  44.006  30.488   0.455
23679W        W84968   8.371  33.023  11.902
23680W        W84969  12.199   7.250  12.409
23681W        W84970  13.158  34.974  10.961
23682W        W84971  35.106   5.734  12.899
23683W        W84972  22.597  20.685   9.953
23684W        W84973  30.487  32.540  11.021
23685W        W84974  30.480  28.558   3.748
23686W        W84975  34.521  21.546   4.761
23687W        W84976  17.209  38.404   4.736
23688W        W84977  28.119  18.551  13.347
23689W        W84978  17.213  10.345   0.416
23690W        W84979  28.975  15.680   0.268
23691W        W84980  16.756  36.370  14.374
23692W        W84981   9.728  23.495  12.941
23693W        W84982  17.705  19.076  13.834
23694W        W84983   7.368  21.600  12.573
23695W        W84984  32.608  33.028   3.288
23696W        W84985  28.562  36.411  11.604
23697W        W84986  16.259  29.470   0.798
23698W        W84987  38.973  27.553   4.140
23699W        W84988   3.310  44.406   0.325
23700W        W84989   5.401  20.565  12.574
23701W        W84990  34.477  25.488   1.218
23702W        W84991  28.655  24.541   1.419
23703W        W84992  28.474   3.360   4.610
23704W        W84993   0.361   3.774   0.329
23705W        W84994  23.641  21.584   3.663
23706W        W84995  34.951   5.712   5.212
23707W        W84996  25.549  19.198  12.566
23708W        W84997  29.006  11.292  12.458
23709W        W84998  14.337  29.166  13.985
23710W        W84999  25.674   6.331   5.103
23711W        W85000  20.178  39.375  13.467
23712W        W85001  17.763  30.572  10.449
23713W        W85002  18.598   1.962  10.929
23714W        W85003  40.052   8.261  14.013
23715W        W85004  34.569  32.408  12.047
23716W        W85005   3.950  35.947  14.778
23717W        W85006   6.783  28.940   4.256
23718W        W85007   2.966  39.454  14.776
23719W        W85008  10.812  36.479  14.824
23720W        W85009  21.141  22.196  12.366
23721W        W85010  17.748  39.515   2.748
23722W        W85011   9.325  38.355  13.886
23723W        W85012  35.362  31.580  11.450
23724W        W85013  21.116   5.767  13.361
23725W        W85014  44.369  21.520  13.349
23726W        W85015  32.049  30.910   1.398
23727W        W85016  11.211  22.228   2.711
23728W        W85017  12.692   6.302   2.674
23729W        W85018  17.661   7.781  12.899
23730W        W85019  33.082  28.502  13.040
23731W        W85020  10.684  40.938   2.329
23732W        W85021   7.227   1.833  13.806
23733W        W85022  22.516  34.934   2.708
23734W        W85023  40.955  12.744  14.463
23735W        W85024  16.253  10.360   1.705
23736W        W85025  13.696   7.775  12.890
23737W        W85026  41.978  12.643   4.745
23738W        W85027  19.279  21.103   2.324
23739W        W85028  43.004  39.539   2.403
23740W        W85029   7.380   2.382   2.237
23741W        W85030  25.066   1.304   1.257
23742W        W85031  41.887  33.557  10.031
23743W        W85032  34.042   7.292   1.359
23744W        W85033  14.814  29.465   0.378
23745W        W85034  34.050  37.937  14.513
23746W        W85035  31.468  22.615   0.330
23747W        W85036  26.075   9.675   1.255
23748W        W85037  25.575  12.627  10.089
23749W        W85038  14.703  29.978  11.878
23750W        W85039  38.547  37.080   1.854
23751W        W85040   7.252  10.647  10.629
23752W        W85041   7.225  12.728  12.359
23753W        W85042  24.499  40.340   2.396
23754W        W85043  22.697  44.275   4.803
23755W        W85044   2.287  15.700  11.443
23756W        W85045   2.353   2.328   1.269
23757W        W85046  26.080  35.388   0.274
23758W        W85047  19.577  24.033   1.450
23759W        W85048  38.961  33.526   3.160
23760W        W85049  40.841  17.275   1.363
23761W        W85050  12.759   5.366  13.397
23762W        W85051  24.539  18.777  13.529
23763W        W85052  10.783  40.531   1.372
23764W        W85053   5.808  26.550  12.960
23765W        W85054  37.959  15.245   5.600
23766W        W85055  18.773  22.089   1.320
23767W        W85056  18.292  24.997  11.387
23768W        W85057   5.346  35.897   2.864
23769W        W85058  27.170  17.718  12.462
23770W        W85059  17.161  11.274   3.694
23771W        W85060  30.601  33.004  10.557
23772W        W85061  11.165  29.572  14.358
23773W        W85062  11.635  24.039  13.978
23774W        W85063  10.290  36.363  12.053
23775W        W85064   3.952  21.017  10.136
23776W        W85065  10.784   9.795  11.425
23777W        W85066  12.213  24.595   3.684
23778W        W85067  20.128   6.691   0.793
23779W        W85068  28.486  13.157  12.477
23780W        W85069   4.274  23.065   1.902
23781W        W85070  41.941  23.510  13.454
23782W        W85071  35.957  31.443  11.565
23783W        W85072   5.347  22.673   0.918
23784W        W85073   4.264  34.046   1.258
23785W        W85074  38.886   8.865   4.704
23786W        W85075  27.972  39.009   2.405
23787W        W85076   9.856  12.144  12.557
23788W        W85077  33.053   7.409  14.350
23789W        W85078   6.236  32.573   1.874
23790W        W85079   2.332  28.014   1.899
23791W        W85080  42.480  21.636   0.357
23792W        W85081  43.869  42.918   4.834
23793W        W85082   4.449  32.947   0.920
23794W        W85083   7.723  10.290  14.452
23795W        W85084  36.572   5.362   1.266
23796W        W85085  39.368  17.582  12.460
23797W        W85086   7.665  33.949   1.780
23798W        W85087  16.673  36.966   2.282
23799W        W85088  44.950  26.970  14.989
23800W        W85089   3.216   9.151  10.993
23801W        W85090  10.342  25.155  11.004
23802W        W85091  33.981   0.980   0.923
23803W        W85092  36.858  12.819  10.438
23804W        W85093  34.016  18.224   3.649
23805W        W85094  26.632   8.403  11.902
23806W        W85095   2.858   7.877  12.437
23807W        W85096  12.755  31.525   3.635
23808W        W85097  22.129   8.849  10.998
23809W        W85098  17.751  22.009   3.670
23810W        W85099  39.022  31.139  14.309
23811W        W85100   2.397   8.888   3.819
23812W        W85101  11.810  13.295   3.740
23813W        W85102   7.699   3.287   0.443
23814W        W85103   1.883  21.548  13.480
23815W        W85104  22.508  38.820  11.085
23816W        W85105  33.114  30.149  13.467
23817W        W85106  17.092   8.713   1.848
23818W        W85107  39.833   2.296   1.291
23819W        W85108  14.781  27.468   4.353
23820W        W85109  13.604  18.544   3.201
23821W        W85110  36.080  10.841  12.410
23822W        W85111  22.626  15.640  14.306
23823W        W85112   0.980  16.309   1.746
23824W        W85113  26.083   0.436  10.926
23825W        W85114  28.555   5.857   0.786
23826W        W85115  38.477   7.892   1.712
23827W        W85116  39.354  38.460   3.696
23828W        W85117   7.875  19.223   1.814
23829W        W85118  15.723  24.694  13.451
23830W        W85119   5.885   6.215  11.450
23831W        W85120  27.197  40.463   3.298
23832W        W85121  40.941  32.902  11.961
23833W        W85122  26.533  12.247   1.903
23834W        W85123   6.320   4.332  10.967
23835W        W85124  33.961  30.642  13.545
23836W        W85125   2.826   5.858  12.469
23837W        W85126  26.578  27.122  12.546
23838W        W85127   4.745  28.126  13.818
23839W        W85128  20.105   3.720   0.854
23840W        W85129  17.224   2.777   3.319
23841W        W85130  37.880  36.469  11.598
23842W        W85131  11.643  36.087   4.225
23843W        W85132   0.426  20.118   3.189
23844W        W85133   5.800  11.796   4.791
23845W        W85134  38.889  32.941  12.423
23846W        W85135  14.774  16.650  11.600
23847W        W85136  32.093  31.484  10.539
23848W        W85137  28.654  14.250  11.455
23849W        W85138  38.337  43.001   2.327
23850W        W85139  42.976  25.691  11.939
23851W        W85140  19.062  37.008  11.407
23852W        W85141  20.231  28.589   2.844
23853W        W85142  42.526   5.870  12.365
23854W        W85143   0.405  28.942   4.115
23855W        W85144  12.124  31.927  10.900
23856W        W85145  40.313  24.133  12.987
23857W        W85146  40.844  29.446   4.834
23858W        W85147  23.007  35.518  13.868
23859W        W85148  30.580  31.972   3.630
23860W        W85149  29.480  32.020  14.436
23861W        W85150  17.758  19.269   0.476
23862W        W85151  22.092  22.604  12.495
23863W        W85152  18.554  20.095  12.539
23864W        W85153  20.041  27.563  13.326
23865W        W85154  40.505  27.497   0.384
23866W        W85155  16.644  31.073   3.673
23867W        W85156  35.440  16.689  13.423
23868W        W85157  14.094  22.007   2.295
23869W        W85158  13.645  27.469   4.287
23870W        W85159  24.084  16.751  12.570
23871W        W85160  24.546  25.499   2.317
23872W        W85161  43.860  24.682  13.381
23873W        W85162  37.961  12.238  11.541
23874W        W85163  16.610  18.673   0.861
23875W        W85164   8.218  24.092  12.397
23876W        W85165  26.654  36.004   0.344
23877W        W85166   9.198   7.356   1.720
23878W        W85167   8.746  40.814  14.392
23879W        W85168  39.403   6.285  13.950
23880W        W85169  25.059   3.738  11.991
23881W        W85170  10.821  31.142   2.180
23882W        W85171  40.942  15.704  11.486
23883W        W85172   6.761  14.678   4.334
23884W        W85173  17.176  19.281   3.685
23885W        W85174  10.314   7.858  14.360
23886W        W85175  27.656  42.946   0.459
23887W        W85176   8.337  33.937   1.762
23888W        W85177   0.786  30.453   2.801
23889W        W85178   0.833  23.688  10.418
23890W        W85179  40.463  22.167  13.443
23891W        W85180  14.712  22.578  12.046
23892W        W85181   7.827  12.796   3.265
23893W        W85182  20.239   1.947  11.374
23894W        W85183  19.750  34.533   0.885
23895W        W85184  20.042   5.414  14.419
23896W        W85185  15.312  28.634   0.731
23897W        W85186  29.070  38.988   1.812
23898W        W85187  25.540   3.763  12.959
23899W        W85188   4.726   4.744  14.986
23900W        W85189   8.392   4.272   0.270
23901W        W85190  26.960  39.820   2.220
23902W        W85191   1.881  19.207   0.359
23903W        W85192  34.454  18.295   1.258
23904W        W85193   2.875  14.295  11.509
23905W        W85194  18.571  20.225   1.866
23906W        W85195   1.310  30.450  11.467
23907W        W85196   5.757   9.875   0.462
23908W        W85197   6.417  36.853  13.324
23909W        W85198  40.362  22.509   3.724
23910W        W85199  38.374  11.132   2.243
23911W        W85200   9.653  40.520   0.341
23912W        W85201  10.161  42.021   4.289
23913W        W85202   6.751  30.555  11.436
23914W        W85203  35.959  11.775   4.344
23915W        W85204  32.490   8.327  11.555
23916W        W85205  26.618  37.380   1.894
23917W        W85206   7.381  28.489   3.312
23918W        W85207  13.827  10.279  12.513
23919W        W85208  23.033  34.508   3.632
23920W        W85209  29.616  44.319   1.245
23921W        W85210   8.657  11.210   1.832
23922W        W85211  22.513  44.795  11.072
23923W        W85212  19.209   4.864  11.922
23924W        W85213   0.965  12.181   2.353
23925W        W85214  13.619   8.866   1.736
23926W        W85215  17.754  38.362  14.363
23927W        W85216   9.849  15.738  12.527
23928W        W85217  24.079  12.712   0.457
23929W        W85218  21.671  24.168  11.056
23930W        W85219  25.584  24.098   1.266
23931W        W85220  12.275   4.929  10.488
23932W        W85221  42.829   7.396   4.613
23933W        W85222  39.063  24.046  11.415
23934W        W85223  14.331  21.052   1.874
23935W        W85224  31.079  39.939  10.523
23936W        W85225  10.262   6.376  12.073
23937W        W85226  23.552  15.713   3.196
23938W        W85227  24.163  16.774  12.002
23939W        W85228  15.755  24.137   1.771
23940W        W85229  15.204  36.098   5.759
23941W        W85230   6.909  24.983  12.366
23942W        W85231   3.767  14.706   2.664
23943W        W85232   5.917  38.473   0.406
23944W        W85233  17.705   8.345   3.783
23945W        W85234  21.638  12.751   3.718
23946W        W85235  10.200  43.394   0.388
23947W        W85236  36.937  34.614   4.272
23948W        W85237   6.333  39.059   0.858
23949W        W85238  24.637  39.985   3.666
23950W        W85239  21.260  16.576  13.873
23951W        W85240  40.030  24.979  12.963
23952W        W85241  18.186   4.428  11.030
23953W        W85242  39.016  34.452   2.901
23954W        W85243  17.790  35.086   1.344
23955W        W85244  21.106  28.498   4.807
23956W        W85245  20.572  40.340  11.021
23957W        W85246   5.917  28.526   1.324
23958W        W85247  15.805   2.891  10.563
23959W        W85248  43.772  33.464   3.800
23960W        W85249  30.935   7.701   0.329
23961W        W85250   2.309  13.343   5.157
23962W        W85251  22.233   1.782  10.494
23963W        W85252   2.427  33.504   2.844
23964W        W85253  21.535   5.687   1.246
23965W        W85254   1.910   6.231  12.543
23966W        W85255   8.282   9.310  14.282
23967W        W85256  16.654   0.821   1.925
23968W        W85257  17.254  29.930  12.485
23969W        W85258  34.028  18.187  12.480
23970W        W85259  23.149  24.065   1.433
23971W        W85260  14.595  41.447  14.817
23972W        W85261  43.012  29.994  11.570
23973W        W85262  33.461  31.572  13.445
23974W        W85263   8.797   9.831  13.468
23975W        W85264  35.376  30.065  12.066
23976W        W85265  10.267  17.285  14.286
23977W        W85266  25.565  11.129   3.643
23978W        W85267  35.927  33.537  13.033
23979W        W85268  22.509  26.561   4.624
23980W        W85269  22.031   6.320  14.304
23981W        W85270  13.607  24.169  13.375
23982W        W85271  38.424  11.197   4.816
23983W        W85272  13.734  21.117  13.525
23984W        W85273   2.836  43.303  11.598
23985W        W85274  22.660  25.132  10.123
23986W        W85275   9.643  33.622  12.490
23987W        W85276  27.540  10.248  10.934
23988W        W85277  38.876  42.884  13.871
23989W        W85278  34.071  16.579   0.444
23990W        W85279  43.286  16.294   0.478
23991W        W85280  30.492  21.247   3.865
23992W        W85281  19.120  25.586  14.503
23993W        W85282  19.069   1.759   0.771
23994W        W85283  44.495  19.098   4.663
23995W        W85284  17.560  37.026  11.474
23996W        W85285  40.435   9.174   3.847
23997W        W85286  43.445  30.628   1.362
23998W        W85287  40.925  38.899   4.273
23999W        W85288  21.645  13.118  10.090
24000W        W85289  30.994  35.063  13.385
24001W        W85290  39.958  15.243  10.977
24002W        W85291   6.183  18.548  12.052
24003W        W85292   6.378  44.381  13.975
24004W        W85293  44.361  42.808   0.288
24005W        W85294   7.728  22.029  12.407
24006W        W85295  22.560  38.926   3.315
24007W        W85296  21.607  41.481  10.422
24008W        W85297  11.752  27.546   2.798
24009W        W85298  12.718  30.589  14.854
24010W        W85299  33.386  20.663  14.408
24011W        W85300  30.477  31.997  11.938
24012W        W85301   7.710  42.841  12.944
24013W        W85302   7.904  36.439   0.393
24014W        W85303  25.653   8.333  14.340
24015W        W85304  25.046  13.606  12.992
24016W        W85305  31.075  31.128  14.359
24017W        W85306  42.796  34.954   2.753
24018W        W85307   8.176  23.718  12.390
24019W        W85308  28.621  22.129   0.777
24020W        W85309  31.613   6.872  12.983
24021W        W85310   0.253  11.158  13.497
24022W        W85311  34.927  14.658   2.862
24023W        W85312  19.268  12.802   3.321
24024W        W85313  26.608  31.953   3.344
24025W        W85314  24.132  19.715   2.183
24026W        W85315  38.533  19.663   1.415
24027W        W85316  16.104   7.335   1.448
24028W        W85317  32.397  13.640  10.908
24029W        W85318  17.258  39.408  14.771
24030W        W85319  17.176  32.478  11.600
24031W        W85320  13.271   2.461   2.268
24032W        W85321  35.082  33.520  14.954
24033W        W85322  27.613   2.908  14.421
24034W        W85323  25.158  19.553  11.996
24035W        W85324  24.145   8.766  11.958
24036W        W85325   7.349  12.327   0.851
24037W        W85326  14.663  28.998   1.737
24038W        W85327   0.423  28.626  14.872
24039W        W85328  26.502  44.504  10.518
24040W        W85329  19.541  11.851  13.947
24041W        W85330  18.119  25.682   0.891
24042W        W85331  13.604  44.844  13.047
24043W        W85332  15.660  28.578  13.050
24044W        W85333  14.122  41.396   4.820
24045W        W85334  30.146  35.445   1.866
24046W        W85335  41.308  28.536   3.753
24047W        W85336  40.884  41.316  13.347
24048W        W85337   2.940   0.888  10.564
24049W        W85338  10.760  28.649  14.949
24050W        W85339  38.992   7.764   0.354
24051W        W85340  15.624  28.174   1.925
24052W        W85341  17.693  13.824   2.673
24053W        W85342  44.465   3.294  14.324
24054W        W85343  35.508  40.996  10.514
24055W        W85344   7.830  25.504   1.720
24056W        W85345  43.858  37.456  10.045
24057W        W85346  13.257  26.957  12.904
24058W        W85347   4.252   1.787  10.633
24059W        W85348  24.705  14.259   2.178
24060W        W85349  30.421  44.505  13.854
24061W        W85350  39.823  21.718   3.781
24062W        W85351  35.859  27.091  13.489
24063W        W85352  41.793  35.435   4.351
24064W        W85353  31.086  37.384  12.442
24065W        W85354  20.606   8.288  12.883
24066W        W85355  37.523  25.071   9.991
24067W        W85356   7.715  18.744  14.381
24068W        W85357   1.797  38.885  13.409
24069W        W85358  22.175  12.711  10.906
24070W        W85359  34.436  13.768   0.887
24071W        W85360  43.509   2.458  11.102
24072W        W85361  31.132  26.554   0.809
24073W        W85362  16.605   8.665   4.622
24074W        W85363  44.292  37.928  13.831
24075W        W85364  15.804   7.884   2.338
24076W        W85365   1.956  19.725   1.801
24077W        W85366  37.930  20.563  14.417
24078W        W85367   7.901  15.314   3.230
24079W        W85368   4.309   7.189   4.298
24080W        W85369  21.065  12.145   3.223
24081W        W85370  22.144  40.922   2.803
24082W        W85371  44.270  42.494  11.454
24083W        W85372  12.358  39.344  11.391
24084W        W85373  16.134  10.235  14.433
24085W        W85374  35.010  33.980  13.316
24086W        W85375  31.149  37.037  14.865
24087W        W85376  21.724  40.038   2.754
24088W        W85377  44.375  33.955  12.092
24089W        W85378  15.322  32.482   1.262
24090W        W85379  10.848  41.902   1.322
24091W        W85380  30.542  24.714   1.784
24092W        W85381  21.170  24.018  11.612
24093W        W85382  14.253  43.395   1.930
24094W        W85383  30.425  36.942  13.932
24095W        W85384  16.228  11.348  11.432
24096W        W85385  44.964  38.913   3.211
24097W        W85386  38.956  37.446  13.349
24098W        W85387   5.881  36.068  12.872
24099W        W85388  42.031  12.702   1.918
24100W        W85389  13.768  32.096  10.075
24101W        W85390  28.050   5.427   0.249
24102W        W85391  33.898  25.115  14.290
24103W        W85392  24.630   8.192   0.467
24104W        W85393   6.871   6.736   3.313
24105W        W85394   3.754  14.226  13.987
24106W        W85395  14.820  26.556   2.849
24107W        W85396  15.175  42.823   0.244
24108W        W85397   3.805  21.642  11.963
24109W        W85398  34.374  24.645   1.747
24110W        W85399  22.199  34.583  11.976
24111W        W85400   1.315  26.125  10.492
24112W        W85401  30.554  24.226   2.779
24113W        W85402  24.629  27.997  10.888
24114W        W85403  36.904  31.024   1.754
24115W        W85404  41.891  21.211  13.884
24116W        W85405   6.373  42.997   2.896
24117W        W85406  26.669  27.078   3.744
24118W        W85407  21.106  11.256   3.701
24119W        W85408  19.634  38.424  12.084
24120W        W85409  39.371  18.230   1.300
24121W        W85410  35.489  35.940  14.879
24122W        W85411   4.305  38.343   1.249
24123W        W85412  15.805  36.960   0.389
24124W        W85413  18.183   5.694   1.781
24125W        W85414  17.768  37.457  11.856
24126W        W85415   7.753  42.871   0.796
24127W        W85416   8.791  28.116  14.860
24128W        W85417  15.796   2.777   1.900
24129W        W85418  12.685   6.197  14.514
24130W        W85419  20.694  14.152   0.815
24131W        W85420  11.744  26.994  14.801
24132W        W85421  42.288  21.683  13.888
24133W        W85422  21.210  20.269   4.631
24134W        W85423  37.986   9.378   1.212
24135W        W85424  33.415  12.135   4.819
24136W        W85425  25.550  37.988  10.549
24137W        W85426  17.769  14.263  12.930
24138W        W85427  10.348   9.718  11.417
24139W        W85428   1.350  29.039  12.980
24140W        W85429  18.157  23.115  10.892
24141W        W85430  20.080   1.892  14.447
24142W        W85431  18.278  22.087  14.885
24143W        W85432   9.662  36.580  13.441
24144W        W85433  10.732   7.374  11.382
24145W        W85434  12.210  35.975   0.875
24146W        W85435  14.692   0.884  12.948
24147W        W85436  15.174  17.242  12.864
24148W        W85437   3.804  31.905  13.048
24149W        W85438  39.450  32.943  10.621
24150W        W85439  23.641  30.460   1.359
24151W        W85440  27.139  36.026   1.813
24152W        W85441  23.056  17.642  11.443
24153W        W85442  17.263  33.985   4.815
24154W        W85443   8.343  33.968   3.792
24155W        W85444  12.811   0.859   3.204
24156W        W85445  24.644  39.497   4.280
24157W        W85446  39.036  38.415  11.057
24158W        W85447   8.723   1.752   5.127
24159W        W85448   1.373  20.241  13.441
24160W        W85449  35.965  24.513  14.768
24161W        W85450  17.306  12.826   1.756
24162W        W85451  18.126  37.912  13.020
24163W        W85452  17.218  26.679  10.566
24164W        W85453   0.961  14.646  14.446
24165W        W85454  40.914   7.709   1.394
24166W        W85455  32.124  10.670   3.384
24167W        W85456  30.138  23.590  11.566
24168W        W85457  21.734   1.816   3.683
24169W        W85458   6.753  26.546   2.733
24170W        W85459  39.047  16.592   4.710
24171W        W85460  33.525  35.049  11.611
24172W        W85461  21.621  10.817   1.247
24173W        W85462   6.693  18.243   4.759
24174W        W85463  24.587  11.252  11.982
24175W        W85464   2.830  26.992   3.633
24176W        W85465  19.224   1.358  14.935
24177W        W85466  36.484   1.285  11.100
24178W        W85467  20.768  33.885  13.381
24179W        W85468  32.885   4.918  11.511
24180W        W85469  41.456   8.330   4.614
24181W        W85470  11.818  31.134   0.387
24182W        W85471  20.196  44.441  11.121
24183W        W85472  35.487   0.888   2.850
24184W        W85473  13.245  30.919  11.479
24185W        W85474  34.103  31.408  10.951
24186W        W85475  34.865  14.280  14.434
24187W        W85476  17.665  27.620  12.563
24188W        W85477   9.869  28.171  14.952
24189W        W85478  25.187   7.351   3.674
24190W        W85479  21.205  23.619  10.603
24191W        W85480  24.509  41.456   1.403
24192W        W85481  30.636  13.325   0.477
24193W        W85482   0.890   3.336  13.464
24194W        W85483  23.517  12.721  13.330
24195W        W85484  17.206  28.119   1.822
24196W        W85485   2.320   5.349  13.836
24197W        W85486  44.504  33.059  13.449
24198W        W85487  43.300  32.578  11.428
24199W        W85488  16.130   2.417  14.861
24200W        W85489  23.031   4.360   1.318
24201W        W85490  10.320  33.889  10.499
24202W        W85491  13.665   1.317   1.428
24203W        W85492  16.288   5.849   3.845
24204W        W85493  33.536   4.417   1.243
24205W        W85494  26.134  36.084   2.348
24206W        W85495   9.230  43.324  14.479
24207W        W85496  27.638  42.904  12.958
24208W        W85497  32.501  15.663   3.799
24209W        W85498  18.676   7.409   1.732
24210W        W85499  27.618  25.681   1.256
24211W        W85500  37.551  29.925  13.862
24212W        W85501  40.517   9.796  14.496
24213W        W85502   6.700  23.625   1.833
24214W        W85503  16.772   4.299  13.903
24215W        W85504  36.015  18.681  14.302
24216W        W85505   4.870  15.155   4.166
24217W        W85506   2.955  40.355   0.735
24218W        W85507  30.527  15.733   0.322
24219W        W85508  26.170  17.656  10.624
24220W        W85509  30.448  32.995   0.436
24221W        W85510  17.273  13.600   0.468
24222W        W85511  25.181   4.764   5.205
24223W        W85512  22.243   2.248  12.025
24224W        W85513   0.823   8.277  11.921
24225W        W85514   1.758  31.149   2.294
24226W        W85515  39.950   4.919   2.387
24227W        W85516  26.996   9.874  10.075
24228W        W85517  28.141  24.481  13.432
24229W        W85518  38.400  36.369   3.165
24230W        W85519  22.561  39.979   2.861
24231W        W85520  36.457  18.561  12.034
24232W        W85521  15.687  35.852   9.950
24233W        W85522  29.952  12.312  13.919
24234W        W85523  28.992  37.950   3.145
24235W        W85524  31.546  34.514   0.316
24236W        W85525  34.574  20.203   1.817
24237W        W85526   8.360   3.879   3.265
24238W        W85527  28.989   0.269  13.406
24239W        W85528  26.676   2.744   0.768
24240W        W85529  20.533   6.852  13.487
24241W        W85530  43.352  19.072   1.329
24242W        W85531  25.480  18.278  10.141
24243W        W85532  34.065   9.667  10.486
24244W        W85533   0.455   8.717   2.287
24245W        W85534  16.170   5.702  13.536
24246W        W85535  13.609   8.223  10.553
24247W        W85536  33.132   0.885  13.416
24248W        W85537  25.510  28.024   2.817
24249W        W85538  28.073  40.038   3.672
24250W        W85539  38.368  15.313  13.809
24251W        W85540  14.106  41.451   3.366
24252W        W85541  44.863  28.547  11.887
24253W        W85542  21.223  34.457   1.435
24254W        W85543  35.016  12.232   1.255
24255W        W85544   2.744   8.357   1.348
24256W        W85545  33.927  32.001   3.255
24257W        W85546   1.339   5.847   3.195
24258W        W85547  26.507  43.348  11.111
24259W        W85548  27.532  39.349  14.942
24260W        W85549  35.988  18.709   0.432
24261W        W85550  36.426   8.788  12.875
24262W        W85551  14.328   8.890  10.581
24263W        W85552  33.952  29.522   4.664
24264W        W85553  29.918  16.604   0.820
24265W        W85554  20.608  33.431  10.543
24266W        W85555  25.099  22.745   3.743
24267W        W85556  36.402  10.728  13.927
24268W        W85557  42.324  19.724   4.136
24269W        W85558  30.462  13.845   1.420
24270W        W85559  30.513   5.832  10.632
24271W        W85560  39.856  40.372  12.922
24272W        W85561  20.584   2.299  12.049
24273W        W85562  13.809  42.942  12.075
24274W        W85563  25.704  26.980   4.828
24275W        W85564   6.268  19.665  13.839
24276W        W85565  14.807  10.330   0.843
24277W        W85566  41.426  18.257  14.810
24278W        W85567  36.570  24.005   0.313
24279W        W85568   0.783   1.871  11.395
24280W        W85569  18.675  12.654  13.321
24281W        W85570   2.415   4.824   4.607
24282W        W85571   0.902  27.997  13.370
24283W        W85572  33.522  28.100   1.844
24284W        W85573  41.504  37.396  13.510
24285W        W85574  22.143  23.688  12.885
24286W        W85575  34.472  16.129   3.827
24287W        W85576  43.398  39.468   0.276
24288W        W85577  43.478   3.230  10.430
24289W        W85578   5.849  30.161   4.711
24290W        W85579  32.026  44.790   0.762
24291W        W85580  14.214   3.302  14.483
24292W        W85581  11.309   0.985   2.212
24293W        W85582   3.762  13.762   0.798
24294W        W85583  30.135   0.407  11.973
24295W        W85584  44.501   7.325   2.837
24296W        W85585  39.898   3.282   4.813
24297W        W85586  29.479  15.614  10.915
24298W        W85587   2.967   5.905   2.737
24299W        W85588  44.458  38.904  13.968
24300W        W85589  35.915  40.474  12.972
24301W        W85590  30.506   1.903  11.999
24302W        W85591  13.788  19.212  14.341
24303W        W85592  22.198  38.359   2.793
24304W        W85593  35.089   7.723  12.549
24305W        W85594   9.652  29.078  14.014
24306W        W85595  42.502  18.622  14.350
24307W        W85596  23.494   1.248   3.689
24308W        W85597  36.949  17.199  13.957
24309W        W85598  24.484  40.488   1.292
24310W        W85599   4.743  21.649   1.749
24311W        W85600  10.678  18.270  14.299
24312W        W85601   1.859  40.452   0.859
24313W        W85602   5.250   2.724  10.413
24314W        W85603  21.600  17.194   3.224
24315W        W85604  32.406   4.746  12.489
24316W        W85605  35.391  12.832  11.869
24317W        W85606  42.352  20.583   0.922
24318W        W85607  16.248   0.901  10.443
24319W        W85608  25.167  15.594   3.737
24320W        W85609  32.006  14.255  14.374
24321W        W85610  29.543  19.067   3.302
24322W        W85611  40.037  11.334  13.848
24323W        W85612  16.160  11.779   4.750
24324W        W85613  44.879  11.770   2.850
24325W        W85614  12.349  10.805  11.922
24326W        W85615  37.442  18.689  11.117
24327W        W85616  26.162  41.869  14.782
24328W        W85617  35.997   2.429   3.752
24329W        W85618   6.298  40.889   1.758
24330W        W85619  30.542  35.940  14.427
24331W        W85620  42.987  27.587   3.247
24332W        W85621  26.200  22.526   2.806
24333W        W85622   2.472   8.761  14.802
24334W        W85623   3.282  36.031   1.711
24335W        W85624  33.510  29.609  13.034
24336W        W85625  30.004  43.009  12.544
24337W        W85626  29.961  13.280  10.567
24338W        W85627  32.966   0.474   2.829
24339W        W85628  27.049   9.850  14.858
24340W        W85629  27.177  15.726  11.580
24341W        W85630   5.209   8.692  11.573
24342W        W85631  29.930   5.836   4.116
24343W        W85632  21.665  12.707   2.260
24344W        W85633  43.471  34.608   2.736
24345W        W85634  42.777  43.419  11.019
24346W        W85635   2.361  33.430   4.761
24347W        W85636   9.243  24.997   3.201
24348W        W85637  21.709  31.963   0.820
24349W        W85638   4.771  29.055  12.409
24350W        W85639  44.451   9.325  14.799
24351W        W85640  16.666  15.810  12.352
24352W        W85641  42.808  14.288   1.695
24353W        W85642   0.876  16.179  14.966
24354W        W85643  15.167   9.249  12.565
24355W        W85644  17.626  33.434  13.036
24356W        W85645  20.558   9.274  13.384
24357W        W85646  39.333  41.850  11.449
24358W        W85647   4.316   7.271   4.729
24359W        W85648   7.841  44.774   0.388
24360W        W85649  32.514  24.666  12.033
24361W        W85650  19.587  44.293  14.962
24362W        W85651  36.901  25.984  11.912
24363W        W85652   7.789  35.455  14.346
24364W        W85653  20.698  31.081   3.253
24365W        W85654  18.181  11.635  11.380
24366W        W85655  43.284   1.247   0.354
24367W        W85656  44.308   6.892   2.367
24368W        W85657  29.441  37.054   3.369
24369W        W85658  38.901  34.062  14.849
24370W        W85659   3.898   9.698   2.372
24371W        W85660  39.929  10.772   4.736
24372W        W85661  34.077  34.399  12.979
24373W        W85662   8.256  26.620   1.441
24374W        W85663  29.922  27.017  10.936
24375W        W85664  27.622  24.550  14.830
24376W        W85665  37.497  29.005  12.483
24377W        W85666  29.936  19.625   3.269
24378W        W85667   0.892  30.592   3.200
24379W        W85668  10.832  34.406  12.509
24380W        W85669  38.899  14.595   3.350
24381W        W85670  44.805   6.767   2.869
24382W        W85671  27.130  23.729   0.804
24383W        W85672  36.970   1.803  13.506
24384W        W85673  17.120  24.561  13.043
24385W        W85674  14.824  37.860  13.383
24386W        W85675  38.465   0.861   2.399
24387W        W85676  34.615   5.231  12.354
24388W        W85677   8.354  43.332  10.915
24389W        W85678  13.106  10.662  13.891
24390W        W85679  26.047  16.077   4.259
24391W        W85680  16.739   6.214   0.253
24392W        W85681  32.903   4.810  12.959
24393W        W85682  33.903  40.509   2.205
24394W        W85683  26.574  43.893  10.549
24395W        W85684  27.586  39.812  12.933
24396W        W85685  20.109   6.769  11.965
24397W        W85686   4.745  24.031  14.279
24398W        W85687   9.393  17.261   0.306
24399W        W85688  21.662  23.533  10.502
24400W        W85689  29.472   6.697   2.785
24401W        W85690  28.680  29.579   2.418
24402W        W85691  21.195  13.775  12.558
24403W        W85692  36.428   0.798  11.983
24404W        W85693  29.041  38.835  10.454
24405W        W85694  33.597   0.840   4.661
24406W        W85695  33.516  21.732  11.568
24407W        W85696  41.320  35.553  14.991
24408W        W85697  39.394  31.935   3.309
24409W        W85698  17.787   5.911   4.288
24410W        W85699  40.412  20.099  13.014
24411W        W85700  20.054   9.270  14.325
24412W        W85701  20.251  29.938   0.794
24413W        W85702  37.035  36.081   0.285
24414W        W85703   1.441  16.082   4.601
24415W        W85704  26.500  37.498  13.984
24416W        W85705  15.165  21.600  14.278
24417W        W85706  15.147  24.623   0.414
24418W        W85707  12.758   0.417  12.451
24419W        W85708  23.047  40.940   2.862
24420W        W85709  22.170  29.101  11.910
24421W        W85710  29.100  22.040  10.460
24422W        W85711  29.075   4.941  12.892
24423W        W85712  40.423  10.148   3.631
24424W        W85713  15.107  16.616   1.342
24425W        W85714  43.911  32.008   1.921
24426W        W85715  42.407  39.450   4.715
24427W        W85716  41.523   6.820   4.334
24428W        W85717  28.629  33.545   2.857
24429W        W85718  28.170  36.458   1.215
24430W        W85719  44.841  22.675   0.904
24431W        W85720   4.867  38.341   1.223
24432W        W85721   1.819  37.468   1.748
24433W        W85722  18.142   8.826  13.954
24434W        W85723  35.440  40.511  10.962
24435W        W85724   6.849  32.968  12.458
24436W        W85725   8.202  22.214  12.033
24437W        W85726  42.999  38.459  13.872
24438W        W85727   5.698   8.718  13.501
24439W        W85728  32.516  30.503   4.121
24440W        W85729  27.077  44.776   1.253
24441W        W85730   8.829   0.812   1.437
24442W        W85731   4.833  31.460  10.917
24443W        W85732   7.772  35.962   2.185
24444W        W85733  10.146  40.396  13.945
24445W        W85734  19.224   7.866   0.347
24446W        W85735  34.463  39.014  13.507
24447W        W85736  11.227  30.539   1.838
24448W        W85737  34.046  12.630  13.344
24449W        W85738  26.677   7.175   5.690
24450W        W85739  18.262   2.360   2.675
24451W        W85740  11.841  40.854   1.833
24452W        W85741  28.017  23.115  11.432
24453W        W85742  27.617  37.050   1.448
24454W        W85743  19.670  38.839   0.365
24455W        W85744  20.700  41.889  11.579
24456W        W85745  22.548  25.650   2.757
24457W        W85746   9.817  39.915   1.918
24458W        W85747   5.238   9.858  12.069
24459W        W85748  18.256  17.725   1.863
24460W        W85749  41.505  21.551   4.342
24461W        W85750   4.747   5.230  14.782
24462W        W85751  11.344  30.108   1.896
24463W        W85752  31.642  12.737   4.179
24464W        W85753  17.160  30.997   2.902
24465W        W85754  34.943  17.125   1.800
24466W        W85755  19.617  42.929   3.756
24467W        W85756  10.740  34.458   5.802
24468W        W85757   8.261  31.969  14.411
24469W        W85758  20.263   6.784  11.373
24470W        W85759  15.690  35.591  10.893
24471W        W85760  13.349  30.647   1.905
24472W        W85761  21.660  37.036  11.496
24473W        W85762  41.519  33.041  12.073
24474W        W85763  18.128  41.881   2.250
24475W        W85764   4.902   0.492   3.293
24476W        W85765  31.461  44.907  12.068
24477W        W85766  16.087  41.437  13.884
24478W        W85767  30.938  13.718   3.158
24479W        W85768  11.763  20.673   2.266
24480W        W85769  36.546  19.198  12.541
24481W        W85770  27.546   0.910  13.418
24482W        W85771  11.772  36.996   3.237
24483W        W85772  22.241   5.369   0.337
24484W        W85773  19.545  10.679   0.891
24485W        W85774  15.752  22.024   1.711
24486W        W85775  29.983   7.700   2.382
24487W        W85776  43.358  12.332   1.239
24488W        W85777  11.862  27.578  11.969
24489W        W85778  25.613  16.590  12.348
24490W        W85779  30.535  11.236  14.846
24491W        W85780   6.684  21.073   1.899
24492W        W85781  24.639  15.745   4.323
24493W        W85782  17.134  32.003  10.589
24494W        W85783   9.703  43.973  13.986
24495W        W85784  40.026  15.703  12.092
24496W        W85785  25.214   0.747   3.727
24497W        W85786  29.041  24.215   1.811
24498W        W85787  39.449  14.625  13.343
24499W        W85788  17.085   5.232  10.441
24500W        W85789  19.096  40.800   3.277
24501W        W85790   0.904  35.579  10.964
24502W        W85791   4.393  36.493  10.578
24503W        W85792  19.072  34.473  11.974
24504W        W85793   9.721   2.464  11.921
24505W        W85794   4.770   3.261   3.364
24506W        W85795  41.872  18.121  12.515
24507W        W85796  26.161  12.313  14.965
24508W        W85797  44.302  30.075  11.498
24509W        W85798  25.034  43.331   3.164
24510W        W85799  39.542   4.760   0.327
24511W        W85800  24.577  23.556   2.326
24512W        W85801  31.438  10.334  11.447
24513W        W85802   1.900  26.147   3.754
24514W        W85803  24.601  35.578   1.272
24515W        W85804  35.855   3.450   1.320
24516W        W85805  23.503   0.845   0.330
24517W        W85806  11.701  37.427   4.697
24518W        W85807  14.624  29.492  12.486
24519W        W85808  19.551   3.342   2.408
24520W        W85809  12.298  41.313   1.431
24521W        W85810  32.034  38.998  10.455
24522W        W85811  28.571  12.623  11.464
24523W        W85812  21.720  22.101   0.883
24524W        W85813   0.290  40.048   2.182
24525W        W85814   3.427  42.427  11.474
24526W        W85815  26.672  24.626  13.016
24527W        W85816  19.767   4.941  13.055
24528W        W85817  23.614   2.896   3.266
24529W        W85818  20.713   0.282  11.415
24530W        W85819  35.389  15.244  12.482
24531W        W85820  15.709   9.362  12.514
24532W        W85821   7.262  11.214  11.017
24533W        W85822  14.784  23.580  13.332
24534W        W85823   8.734  43.979  10.904
24535W        W85824  39.889   6.718  10.441
24536W        W85825  32.547  44.436   3.713
24537W        W85826  21.137   2.411   1.386
24538W        W85827  42.853  41.386   1.233
24539W        W85828  29.946  34.440  14.452
24540W        W85829  20.546  10.249  12.002
24541W        W85830  21.217  12.777   4.721
24542W        W85831  44.931  18.547   1.848
24543W        W85832  44.311  33.105  10.993
24544W        W85833   3.776  33.456   4.148
24545W        W85834  31.088   8.326  14.296
24546W        W85835   0.911  44.383   4.634
24547W        W85836  17.306   6.816  13.051
24548W        W85837   2.338  41.992   1.446
24549W        W85838   7.714  28.105   9.948
24550W        W85839  24.119   6.337   4.783
24551W        W85840  24.204  28.148  10.978
24552W        W85841  11.348  14.248  14.969
24553W        W85842  14.335  35.592  10.539
24554W        W85843   1.331  32.547   0.267
24555W        W85844   0.419  22.138  12.456
24556W        W85845  35.490  37.449  10.598
24557W        W85846  19.251  19.162  12.364
24558W        W85847  17.063   9.751  14.898
24559W        W85848   2.745  42.379  14.499
24560W        W85849  42.866  27.991   3.385
24561W        W85850  26.625  40.352   2.746
24562W        W85851  19.071  23.042   0.383
24563W        W85852  42.493  20.619  11.965
24564W        W85853   4.779  37.338  14.443
24565W        W85854  27.998  37.913   2.406
24566W        W85855  39.829  38.515   1.399
24567W        W85856  15.202  30.922   2.324
24568W        W85857  20.545  15.105  11.877
24569W        W85858  10.851  38.868  11.098
24570W        W85859  21.582  43.378  14.489
24571W        W85860  30.077  28.112  14.923
24572W        W85861  31.450  14.789  14.957
24573W        W85862  25.575  39.832  13.942
24574W        W85863   5.744   0.265  10.643
24575W        W85864  22.519  42.009  13.867
24576W        W85865   2.265   7.787   2.823
24577W        W85866  38.417  15.813   1.243
24578W        W85867  18.068  15.629   4.245
24579W        W85868   8.190  32.981  14.298
24580W        W85869   4.913  10.182   3.158
24581W        W85870  27.134  36.061  12.032
24582W        W85871  23.113  21.731   9.497
24583W        W85872   3.458  31.018   0.328
24584W        W85873  37.961  36.466   2.252
24585W        W85874  10.210  30.933   2.256
24586W        W85875  20.130  11.645   4.624
24587W        W85876  22.103  20.756  14.781
24588W        W85877  17.800   4.251  14.009
24589W        W85878  16.205  26.984   3.222
24590W        W85879   9.336  22.576  10.411
24591W        W85880  20.534  33.505   3.363
24592W        W85881  44.941  38.349  10.905
24593W        W85882  30.477  37.960  13.915
24594W        W85883  21.611  19.631  14.828
24595W        W85884  19.042  37.855   4.166
24596W        W85885  36.848   1.790   2.828
24597W        W85886  12.345  34.016  12.386
24598W        W85887  42.897  18.284   1.797
24599W        W85888   4.374  31.070  14.018
24600W        W85889   8.829  28.145  11.495
24601W        W85890  19.764   2.959   4.703
24602W        W85891  35.369   3.232   2.183
24603W        W85892  33.882  42.488  14.979
24604W        W85893  24.091  25.691   3.322
24605W        W85894  35.880  37.943  13.981
24606W        W85895   3.788  12.661  10.922
24607W        W85896  12.775  11.323   0.360
24608W        W85897  29.962  36.402  14.839
24609W        W85898  32.961  16.770   2.309
24610W        W85899  26.126  30.058  11.072
24611W        W85900  41.963  40.303   1.320
24612W        W85901   6.401  31.117  12.570
24613W        W85902  25.963  34.434  10.907
24614W        W85903  41.484  21.704   3.175
24615W        W85904  31.555  15.175  10.424
24616W        W85905  13.346   1.906   2.845
24617W        W85906  43.423  36.576  12.949
24618W        W85907  29.511  42.412  11.399
24619W        W85908   4.299   9.167   3.777
24620W        W85909  17.794  39.854   9.546
24621W        W85910   5.422   7.845   1.933
24622W        W85911  21.079  40.393   2.407
24623W        W85912  16.635  17.172   3.318
24624W        W85913   4.743  21.042  14.379
24625W        W85914  34.509   4.777  14.893
24626W        W85915   3.302  14.754   2.670
24627W        W85916  39.994   7.759   1.773
24628W        W85917  24.125  21.651  14.341
24629W        W85918  27.971  11.253  13.999
24630W        W85919  17.616  14.602  11.977
24631W        W85920  16.578  35.602   0.377
24632W        W85921  44.913   9.719   1.832
24633W        W85922  40.015   4.278  10.896
24634W        W85923   6.335   4.912   2.736
24635W        W85924  22.193  31.541   4.122
24636W        W85925  43.878  34.547   0.821
24637W        W85926  18.583  24.169  14.491
24638W        W85927  11.865  23.058  11.116
24639W        W85928  40.892   8.364   2.670
24640W        W85929  41.787  38.368   3.369
24641W        W85930  37.916   1.887   1.852
24642W        W85931   5.900  22.672   1.241
24643W        W85932  26.701  15.649  13.379
24644W        W85933   6.414  38.357   0.922
24645W        W85934  18.176  27.121  13.906
24646W        W85935  10.701  26.956  10.519
24647W        W85936  42.300  25.670   2.187
24648W        W85937  20.200  33.937  11.538
24649W        W85938   9.789  33.400  11.980
24650W        W85939  25.524  25.125   1.352
24651W        W85940  20.169   9.253   3.188
24652W        W85941   8.225  19.250  13.806
24653W        W85942  35.422   2.381   3.191
24654W        W85943  23.573  17.074  11.376
24655W        W85944  27.526  31.606  10.630
24656W        W85945  31.143   2.472   3.784
24657W        W85946  16.623  33.079   2.707
24658W        W85947   3.891   8.179  11.439
24659W        W85948  27.987  20.109  14.005
24660W        W85949   5.286   0.452   0.730
24661W        W85950  24.201  12.724   3.289
24662W        W85951  34.382  20.720  14.362
24663W        W85952  44.337  36.481  11.947
24664W        W85953  27.146  38.536   3.257
24665W        W85954  19.058  19.533   1.389
24666W        W85955  22.161  34.526  11.082
24667W        W85956  22.511  36.954  10.143
24668W        W85957   5.383  24.562   0.871
24669W        W85958   7.742  18.750  12.382
24670W        W85959  42.998  13.300  11.122
24671W        W85960  25.139   3.809   1.764
24672W        W85961   5.205  42.428  12.989
24673W        W85962  32.610  28.161   4.796
24674W        W85963  13.309  35.018  10.593
24675W        W85964  14.111  36.885  11.534
24676W        W85965   0.289  22.534  13.498
24677W        W85966  11.235  20.152   3.192
24678W        W85967  41.810  23.709   0.469
24679W        W85968  26.536  38.998   1.851
24680W        W85969  27.083  43.422   3.800
24681W        W85970  40.801   2.755  13.541
24682W        W85971  33.531  12.731   1.302
24683W        W85972  23.178   9.328  14.308
24684W        W85973  44.862  16.739  12.945
24685W        W85974   7.212   7.327   4.119
24686W        W85975  26.535  42.994   1.376
24687W        W85976  20.201  18.557  13.806
24688W        W85977   2.444   3.460   2.893
24689W        W85978   4.316  44.882  12.425
24690W        W85979  29.585  32.495   0.893
24691W        W85980  40.904  44.449  12.542
24692W        W85981   7.229  27.943   1.431
24693W        W85982  35.046  16.198  12.078
24694W        W85983  29.629  32.517  14.901
24695W        W85984   7.395  36.899   4.796
24696W        W85985  19.540   9.730  10.003
24697W        W85986   9.834  18.545   4.659
24698W        W85987  12.233  30.583   3.205
24699W        W85988  19.082  21.721  11.397
24700W        W85989   9.159  34.548   1.417
24701W        W85990   1.414  39.845  12.847
24702W        W85991  16.811  43.872   2.704
24703W        W85992  16.697  40.911  13.040
24704W        W85993   9.380  40.421  13.329
24705W        W85994   7.798  23.592  10.090
24706W        W85995  43.460  34.426  11.597
24707W        W85996  20.562  18.653  14.489
24708W        W85997  17.669   2.470   4.642
24709W        W85998  43.894  42.349   2.703
24710W        W85999  14.754  25.210  14.331
24711W        W86000  29.603  20.120   4.646
24712W        W86001  10.752  33.962   1.256
24713W        W86002  14.629  15.769  10.117
24714W        W86003  37.864   2.320   1.436
24715W        W86004  34.080  17.066   0.895
24716W        W86005  31.979  30.571   2.217
24717W        W86006  28.571  28.627   0.282
24718W        W86007   6.304   6.329  13.892
24719W        W86008  19.238   9.168  11.552
24720W        W86009   7.750  28.952  10.579
24721W        W86010  20.138  16.755   3.797
24722W        W86011   3.291  27.501  14.329
24723W        W86012  28.679  27.185   2.221
24724W        W86013   5.904  36.998   4.617
24725W        W86014  36.930  32.932  10.978
24726W        W86015  10.165  34.940   2.893
24727W        W86016   8.396  21.074   1.448
24728W        W86017  37.041  12.802  13.540
24729W        W86018   5.699   0.468  13.448
24730W        W86019  42.867  16.159  14.436
24731W        W86020  11.159  21.105   2.836
24732W        W86021  18.664  32.525   1.797
24733W        W86022   0.857  37.836   4.291
24734W        W86023   2.298  12.135   1.726
24735W        W86024  10.737  23.156   1.319
24736W        W86025  14.272  39.835   0.271
24737W        W86026  38.942   5.891  10.938
24738W        W86027  23.527   3.881  14.931
24739W        W86028  40.314  18.581  13.830
24740W        W86029  40.815  33.917   3.835
24741W        W86030   1.412   6.230  14.479
24742W        W86031  18.109  33.434  11.413
24743W        W86032  39.490  40.805  12.880
24744W        W86033   5.747  20.263   0.359
24745W        W86034  16.795  44.356  11.026
24746W        W86035  19.153  43.461   4.126
24747W        W86036  35.993  10.381  14.431
24748W        W86037  21.055  42.434   4.618
24749W        W86038  14.788  41.940  11.372
24750W        W86039  28.083  33.607  12.952
24751W        W86040  19.053  33.609  14.438
24752W        W86041  34.958  43.280   1.787
24753W        W86042   3.361  24.640  14.438
24754W        W86043  43.006  40.997   3.634
24755W        W86044  12.796  33.490  13.960
24756W        W86045  37.496  40.815   2.809
24757W        W86046  28.983   5.318   2.697
24758W        W86047  42.777  44.963  11.428
24759W        W86048   3.244  18.576   2.835
24760W        W86049  22.738  10.796  12.353
24761W        W86050  40.459   0.847   0.872
24762W        W86051   8.666  32.400  11.994
24763W        W86052  42.379  14.183   3.156
24764W        W86053  39.935   2.966   3.788
24765W        W86054  33.089  24.577   1.395
24766W        W86055  14.667  28.082  13.312
24767W        W86056  43.885  14.634  14.347
24768W        W86057  35.490  20.051   4.169
24769W        W86058  23.687  14.757  14.387
24770W        W86059  24.053  10.738  13.458
24771W        W86060  16.180   1.468  14.979
24772W        W86061  37.026  26.092  13.046
24773W        W86062  25.621  19.244   1.863
24774W        W86063  26.598   1.261   2.292
24775W        W86064  38.333  16.762   9.553
24776W        W86065  19.241  11.330  11.412
24777W        W86066  20.135  11.647   3.208
24778W        W86067  19.663  15.306  12.501
24779W        W86068  42.991  30.539  11.011
24780W        W86069  14.672  24.178  12.462
24781W        W86070  24.002   2.431  13.824
24782W        W86071  19.061  29.504  12.552
24783W        W86072  31.592  14.222  12.013
24784W        W86073  36.361  17.181   9.534
24785W        W86074  33.515   2.286   2.690
24786W        W86075  18.075  24.212  12.841
24787W        W86076   2.855  29.598   2.263
24788W        W86077  24.674  21.516  11.449
24789W        W86078   4.271   1.346  12.881
24790W        W86079  26.477  20.127   2.792
24791W        W86080  11.819   2.936   1.839
24792W        W86081  29.057  44.328  12.551
24793W        W86082   2.759  21.526   2.809
24794W        W86083  36.443  17.633   1.304
24795W        W86084  43.851  38.056   4.115
24796W        W86085  22.582  44.480   0.389
24797W        W86086  34.457  27.544   2.299
24798W        W86087  30.513  12.294   2.327
24799W        W86088  25.635   0.305   0.276
24800W        W86089  38.350  19.763   4.121
24801W        W86090  42.022  30.135   3.688
24802W        W86091   1.392   9.798   2.326
24803W        W86092   8.258   5.326  14.305
24804W        W86093  24.539   4.278   0.809
24805W        W86094  27.595   3.833  13.990
24806W        W86095  24.221  13.112   0.819
24807W        W86096  26.648  30.601  10.915
24808W        W86097  17.702   1.406   0.863
24809W        W86098  29.480  18.291  12.096
24810W        W86099  23.232  30.495   2.730
24811W        W86100  19.600  23.680  10.557
24812W        W86101  23.201  20.050   9.494
24813W        W86102  23.593  38.826   0.957
24814W        W86103   3.881  25.639  10.911
24815W        W86104  28.518  40.978   3.237
24816W        W86105   8.276  15.153   2.798
24817W        W86106   3.264  21.023   3.870
24818W        W86107  15.823  25.548   2.703
24819W        W86108  11.710  32.991  14.371
24820W        W86109  44.498  21.206   1.763
24821W        W86110  22.192  20.242   0.852
24822W        W86111   0.483  28.175   3.340
24823W        W86112  22.220  40.498   0.798
24824W        W86113  14.190   3.418   5.174
24825W        W86114  24.505   1.440   4.144
24826W        W86115  33.068  33.020  14.409
24827W        W86116   0.771  22.605  13.846
24828W        W86117  20.164  20.672   2.728
24829W        W86118  14.213  17.794   3.797
24830W        W86119  36.904   1.931   4.219
24831W        W86120  12.821  30.054   3.366
24832W        W86121  23.714  12.842  14.966
24833W        W86122  35.010  40.360  11.597
24834W        W86123  37.035   5.836   1.864
24835W        W86124  22.170  27.677   1.440
24836W        W86125  42.524  36.451   3.362
24837W        W86126   5.804  16.085   2.716
24838W        W86127  32.504  39.506   4.609
24839W        W86128  35.905  21.630   3.772
24840W        W86129  36.069  10.310  10.967
24841W        W86130  43.273   8.304   2.200
24842W        W86131  12.355  31.059  10.483
24843W        W86132  32.079  16.272  14.414
24844W        W86133  25.635  38.911  14.331
24845W        W86134  25.496  13.134   1.870
24846W        W86135  36.067  17.093  11.921
24847W        W86136   1.927  20.077   2.661
24848W        W86137  21.592  21.044  11.076
24849W        W86138  11.240   3.867   4.189
24850W        W86139  29.594  29.518   4.240
24851W        W86140  41.488  18.233  11.912
24852W        W86141  27.126  33.945   1.765
24853W        W86142  32.069  41.962   3.644
24854W        W86143  37.856  36.086   1.902
24855W        W86144  28.950  13.608   3.359
24856W        W86145  40.054   1.259  14.913
24857W        W86146   3.764  33.030  12.393
24858W        W86147  44.756   0.742  13.455
24859W        W86148  20.715  36.843  14.351
24860W        W86149  33.382  41.931  10.907
24861W        W86150  10.840  44.263  12.017
24862W        W86151  40.939   4.740   3.728
24863W        W86152  15.258  20.093  14.972
24864W        W86153  31.493  19.070   4.309
24865W        W86154  18.564   5.237  10.599
24866W        W86155   0.821  18.636  12.891
24867W        W86156   1.327  28.118  14.454
24868W        W86157   3.449  15.157  10.989
24869W        W86158  12.216  18.252   2.821
24870W        W86159  28.951  27.135  10.609
24871W        W86160   6.365  27.459   0.769
24872W        W86161   2.287  31.037   4.228
24873W        W86162  38.934  39.510  10.605
24874W        W86163  33.437  21.732  14.974
24875W        W86164  12.788  14.663  11.417
24876W        W86165  11.310  37.377   4.835
24877W        W86166  31.020  26.533  10.572
24878W        W86167  12.794  34.091  14.032
24879W        W86168  11.139  30.518   5.260
24880W        W86169   1.769   2.356  10.928
24881W        W86170  17.727   6.878  12.929
24882W        W86171  11.766  37.029  11.372
24883W        W86172   3.406  35.374  13.970
24884W        W86173   4.926  34.509   4.738
24885W        W86174   3.814  13.822  14.862
24886W        W86175  18.789   2.297   3.326
24887W        W86176  23.706  34.543  11.872
24888W        W86177  29.635   3.738   3.167
24889W        W86178  23.100  13.347  14.377
24890W        W86179   7.734  36.543  12.345
24891W        W86180  33.625   9.369  11.577
24892W        W86181  33.127   9.762   1.872
24893W        W86182  41.527  18.680  12.505
24894W        W86183   0.912  38.048  14.515
24895W        W86184  38.859  42.981   1.734
24896W        W86185  12.271  33.019   0.861
24897W        W86186   7.801  33.466   4.180
24898W        W86187  28.154   0.863   1.755
24899W        W86188  37.036  27.519  13.991
24900W        W86189  26.646   3.302  12.874
24901W        W86190  27.053  41.910  12.527
24902W        W86191  44.915  22.016  13.444
24903W        W86192  16.677  36.449   5.232
24904W        W86193  32.964  17.163  11.968
24905W        W86194  29.447  42.856  12.519
24906W        W86195  24.633  39.886   4.631
24907W        W86196  20.607   9.779   1.236
24908W        W86197  39.533  25.171  11.870
24909W        W86198  10.787  38.982   3.216
24910W        W86199  38.890  39.870   3.168
24911W        W86200   2.844  14.591  11.921
24912W        W86201  21.089   3.792  13.903
24913W        W86202  24.141  44.288  13.500
24914W        W86203  43.368   0.273   1.725
24915W        W86204   7.842  13.830   0.257
24916W        W86205   5.923  18.611  11.889
24917W        W86206  16.236  28.067   0.885
24918W        W86207   7.340  36.904   4.243
24919W        W86208  22.206  43.929  13.333
24920W        W86209  34.538  28.582  13.844
24921W        W86210  24.103   9.170  14.298
24922W        W86211  43.867   0.986   3.209
24923W        W86212  35.531  20.727  14.505
24924W        W86213  23.535  30.614   3.184
24925W        W86214  38.346  20.765   5.610
24926W        W86215  32.391   7.788  11.611
24927W        W86216  21.241   4.798  12.078
24928W        W86217  33.943  11.807  13.019
24929W        W86218  42.944   1.895  13.401
24930W        W86219  36.503  21.223   9.935
24931W        W86220   5.268   5.791   1.338
24932W        W86221  38.543  29.443   1.879
24933W        W86222  31.102  33.615  11.391
24934W        W86223  12.749  13.828  12.939
24935W        W86224   5.730  20.701   2.901
24936W        W86225   3.792  12.205   1.365
24937W        W86226  41.905  14.331  11.535
24938W        W86227  11.141  35.600  10.976
24939W        W86228  24.706  37.411  14.780
24940W        W86229  31.449  13.615  12.435
24941W        W86230  24.174  33.493   5.252
24942W        W86231  21.618  18.713   1.426
24943W        W86232  31.933  11.686  14.811
24944W        W86233  20.196  13.162  12.578
24945W        W86234  26.090   5.370   4.204
24946W        W86235  38.395   7.268  12.466
24947W        W86236  28.997   6.677   3.805
24948W        W86237  26.526  16.652   5.123
24949W        W86238  32.538  22.119   3.774
24950W        W86239   3.853   2.372   2.890
24951W        W86240   9.247  39.020  13.942
24952W        W86241   4.931   7.888  11.070
24953W        W86242  33.981  20.718  14.499
24954W        W86243   8.245   8.896  14.025
24955W        W86244  29.515  19.177   2.339
24956W        W86245   9.746  21.118  13.909
24957W        W86246  34.059   3.318  13.037
24958W        W86247  12.292  38.532  11.128
24959W        W86248  12.677  37.524  10.531
24960W        W86249  29.621   4.227  13.411
24961W        W86250  40.853  29.454   0.879
24962W        W86251  40.966  11.285  13.827
24963W        W86252  39.846   9.740  13.468
24964W        W86253  34.991  20.702   1.261
24965W        W86254  19.552  28.111  14.998
24966W        W86255  24.979   5.264  10.443
24967W        W86256  15.089   3.877  14.960
24968W        W86257  10.266  39.511  10.949
24969W        W86258  31.999  32.920  12.571
24970W        W86259  41.445   0.821   0.346
24971W        W86260  42.434  33.993   4.206
24972W        W86261  38.362  20.765  10.997
24973W        W86262  43.862  41.870   4.601
24974W        W86263   3.906  30.018  14.369
24975W        W86264  25.506   6.809   1.400
24976W        W86265  28.930   7.395  10.404
24977W        W86266   1.359  32.113   2.842
24978W        W86267  16.099  26.483   3.337
24979W        W86268  34.973   0.402   1.237
24980W        W86269  12.273  26.654   0.888
24981W        W86270  44.374  41.347  12.983
24982W        W86271  22.741  10.778  11.404
24983W        W86272  17.098  15.260  13.979
24984W        W86273  20.544  11.771  13.998
24985W        W86274   9.773  10.703  13.396
24986W        W86275   5.429  14.298  14.801
24987W        W86276  11.841  15.229   0.280
24988W        W86277   3.871  27.042   4.783
24989W        W86278  25.085  38.913   4.726
24990W        W86279  36.397  27.026  13.962
24991W        W86280  38.891  24.640   0.861
24992W        W86281  42.832  39.388   4.245
24993W        W86282  22.185  14.683  11.976
24994W        W86283  11.211  29.464  13.502
24995W        W86284   9.833  35.035   3.865
24996W        W86285  41.008   0.289   2.215
24997W        W86286   2.382  41.020   2.681
24998W        W86287   8.320  40.399   0.782
24999W        W86288  21.088  19.077   0.413
25000W        W86289   2.757  12.717  12.095
25001W        W86290   7.909  23.046   0.357
25002W        W86291   7.808   6.377  10.482
25003W        W86292  39.900  21.639   2.257
25004W        W86293   1.409  23.079  10.446
25005W        W86294  23.089  31.924   0.747
25006W        W86295  23.732   8.311  10.070
25007W        W86296  44.501   6.764  14.022
25008W        W86297  25.969   8.856   0.727
25009W        W86298  16.179  24.521  11.465
25010W        W86299  25.696   7.734  11.387
25011W        W86300  20.217  19.691  12.450
25012W        W86301   0.757  29.664  11.026
25013W        W86302  27.448  30.997  12.050
25014W        W86303  17.259  17.141   4.238
25015W        W86304   1.286  10.776   1.918
25016W        W86305   5.727   3.372   5.111
25017W        W86306  31.055  12.356   4.126
25018W        W86307  41.857  12.357   4.798
25019W        W86308  24.045  28.175  14.307
25020W        W86309  17.243  20.618  13.932
25021W        W86310  22.691  23.135  10.589
25022W        W86311  43.379   4.262  13.431
25023W        W86312  30.525   6.282   0.337
25024W        W86313   1.390  14.209   4.288
25025W        W86314  35.440   4.928  11.115
25026W        W86315  32.980  33.018   0.266
25027W        W86316  23.170  16.705   4.819
25028W        W86317  22.504  32.029   2.310
25029W        W86318  30.115  11.352   2.414
25030W        W86319   5.202  28.163  14.502
25031W        W86320  42.445  17.203   1.741
25032W        W86321  42.504  39.039  13.514
25033W        W86322  14.252  23.000  11.021
25034W        W86323  15.114  21.151   2.738
25035W        W86324  19.535  31.639  14.873
25036W        W86325  33.059  44.005  12.456
25037W        W86326  31.994  20.260   4.214
25038W        W86327   1.835   8.844   2.201
25039W        W86328  21.581  36.542  12.079
25040W        W86329  11.644   4.705  11.862
25041W        W86330  14.696   9.217   0.787
25042W        W86331  36.390   2.914   1.762
25043W        W86332  26.529  20.062   1.819
25044W        W86333  31.053   7.411   1.213
25045W        W86334  38.437  24.060  12.483
25046W        W86335  37.403  29.478  13.412
25047W        W86336  30.644  17.296  12.451
25048W        W86337  34.423  28.115   4.122
25049W        W86338  22.548  18.051   4.665
25050W        W86339  32.063   4.755   0.817
25051W        W86340  16.234  44.832  11.573
25052W        W86341  30.914   8.233  13.017
25053W        W86342  13.346   9.762   3.297
25054W        W86343  15.241  40.454   5.142
25055W        W86344  19.064  21.588  14.818
25056W        W86345  41.994  22.222   4.161
25057W        W86346   0.386  24.985  13.932
25058W        W86347  41.422  44.813  14.022
25059W        W86348  13.125  36.034   1.859
25060W        W86349  27.134  33.609  13.342
25061W        W86350  21.186  20.581   0.270
25062W        W86351  13.604   8.332   0.939
25063W        W86352  19.576  23.609   1.271
25064W        W86353  23.555  43.887  11.054
25065W        W86354  13.635  31.486  10.624
25066W        W86355  30.625  41.014   4.659
25067W        W86356  35.448  32.402   4.219
25068W        W86357  27.524  27.605  11.862
25069W        W86358  41.425  24.230  11.024
25070W        W86359  30.605  20.155   4.797
25071W        W86360  41.509  17.238   3.157
25072W        W86361  20.063  27.469   1.887
25073W        W86362  26.145   4.328  11.904
25074W        W86363  22.150  41.478   1.740
25075W        W86364  18.104   6.854  13.333
25076W        W86365  11.265  13.756   1.705
25077W        W86366  11.241  23.143  12.417
25078W        W86367  12.686  24.612   1.335
25079W        W86368  35.978  34.416  11.541
25080W        W86369  11.689   3.394  12.858
25081W        W86370   4.326   2.449  10.520
25082W        W86371  20.598  20.055  14.845
25083W        W86372  44.981  34.016  14.922
25084W        W86373  35.035  11.635  12.072
25085W        W86374  33.470  21.135  10.070
25086W        W86375  39.523  30.553  11.509
25087W        W86376  43.832  40.391  14.512
25088W        W86377  29.659   7.707   0.260
25089W        W86378  34.587   9.718  10.432
25090W        W86379  20.245  17.693   1.909
25091W        W86380  21.556  12.652  11.509
25092W        W86381  13.779  41.005   4.258
25093W        W86382  26.638  25.204   4.615
25094W        W86383   4.922   5.733  10.918
25095W        W86384  30.927  24.601  11.388
25096W        W86385  14.145   0.447  10.489
25097W        W86386  36.551  22.244   2.808
25098W        W86387  39.338  37.534  11.506
25099W        W86388  13.747   9.688  13.887
25100W        W86389  36.431  36.404  13.836
25101W        W86390  18.675  16.276   1.270
25102W        W86391  11.749   3.256  14.973
25103W        W86392  20.150  29.077  13.351
25104W        W86393   6.755   3.399   2.379
25105W        W86394  13.805   2.314   2.759
25106W        W86395  10.230  31.415   0.860
25107W        W86396  34.536  22.014   0.917
25108W        W86397  16.259  37.391  11.548
25109W        W86398  12.778   6.843  13.967
25110W        W86399  40.480  36.001   4.637
25111W        W86400  29.499  35.980  10.930
25112W        W86401  19.702   9.276   4.115
25113W        W86402  11.244  16.243  13.318
25114W        W86403  32.619  37.998  13.950
25115W        W86404  40.339   8.229   2.726
25116W        W86405  18.576   8.346   1.407
25117W        W86406   6.259  43.466  11.102
25118W        W86407  17.303  39.830   2.257
25119W        W86408   5.225  31.944   2.832
25120W        W86409  17.263  20.724   4.696
25121W        W86410  36.361   1.305   0.788
25122W        W86411  34.601   2.390  13.041
25123W        W86412   4.878   3.458  14.941
25124W        W86413  19.168  10.241  12.441
25125W        W86414  10.743  34.480   4.265
25126W        W86415   8.172  23.186   4.654
25127W        W86416  36.078  31.470  10.945
25128W        W86417  20.040  10.221   1.754
25129W        W86418  38.010  29.999  11.923
25130W        W86419  35.859  32.008  12.340
25131W        W86420  22.546  38.046  12.443
25132W        W86421  21.519  34.942   0.326
25133W        W86422  17.782  33.538  14.275
25134W        W86423  35.491   2.878  11.571
25135W        W86424  44.391  19.635  14.032
25136W        W86425  25.070   2.740   4.607
25137W        W86426  16.277  27.071   1.698
25138W        W86427  37.370  21.192  13.852
25139W        W86428   2.317   7.776   2.204
25140W        W86429  29.011  41.791  12.869
25141W        W86430  10.675  18.211   3.693
25142W        W86431  28.183   6.741   3.848
25143W        W86432  30.645  31.570  11.422
25144W        W86433  17.210  37.342   1.776
25145W        W86434  31.458  30.944  14.964
25146W        W86435  22.676  11.263   0.892
25147W        W86436  19.711  40.393  13.471
25148W        W86437  38.337  15.642  14.794
25149W        W86438  23.104  39.420  12.447
25150W        W86439   7.214  37.051  13.937
25151W        W86440  44.309  17.623   4.354
25152W        W86441  10.356  22.563   2.770
25153W        W86442  20.661  41.351  12.989
25154W        W86443  35.359  13.292   2.847
25155W        W86444  40.903  42.840  11.058
25156W        W86445  15.788   2.246   1.420
25157W        W86446  34.881  39.320   2.347
25158W        W86447  12.649  28.994   0.464
25159W        W86448  44.871   6.301  13.526
25160W        W86449  32.115  27.596  10.557
25161W        W86450   6.332   7.411  12.840
25162W        W86451   3.219  21.208  12.855
25163W        W86452  38.396   3.329  12.356
25164W        W86453   8.229   4.392  14.983
25165W        W86454  36.961  14.703  11.917
25166W        W86455  22.658   2.827   0.316
25167W        W86456  23.662   2.272  12.859
25168W        W86457  12.663  14.664   4.289
25169W        W86458  24.158  16.111   3.344
25170W        W86459  25.986   6.782  13.324
25171W        W86460  30.542  15.622  12.072
25172W        W86461  20.729  44.972  13.460
25173W        W86462  24.982  39.543  11.567
25174W        W86463  44.365   5.707   4.304
25175W        W86464  13.719  40.897   3.726
25176W        W86465  36.468  34.966  10.466
25177W        W86466   9.800   3.933   0.937
25178W        W86467   4.815  38.539   3.829
25179W        W86468   6.218  42.300  10.150
25180W        W86469  30.161  44.884   2.287
25181W        W86470  19.598  39.338   4.737
25182W        W86471   5.421  40.522   3.160
25183W        W86472  43.807  12.649   2.329
25184W        W86473  11.718  17.252  14.882
25185W        W86474   0.426   2.364   2.830
25186W        W86475  15.137  38.383   2.864
25187W        W86476  13.642  25.072   0.824
25188W        W86477  24.198   1.247  14.996
25189W        W86478  14.328  43.971   3.743
25190W        W86479  32.117   8.363  12.087
25191W        W86480  24.696   7.298  14.885
25192W        W86481  13.172  13.246  14.435
25193W        W86482  40.514  24.082  10.105
25194W        W86483   5.912   3.250   4.115
25195W        W86484  19.252  17.562   0.469
25196W        W86485  18.238  15.236  11.100
25197W        W86486  35.936  10.870   1.701
25198W        W86487  36.922  36.853   4.177
25199W        W86488  41.500   7.775   2.292
25200W        W86489  26.573  17.744  12.859
25201W        W86490  29.590   8.290  13.521
25202W        W86491  31.631   8.164  10.431
25203W        W86492  41.817  22.506   0.800
25204W        W86493  20.694   0.956  11.060
25205W        W86494  14.826   0.413  12.873
25206W        W86495  18.139  31.049   4.636
25207W        W86496  37.068  16.195  14.366
25208W        W86497   7.748  18.247   1.748
25209W        W86498  37.410   8.871   1.323
25210W        W86499   6.849  26.165  12.922
25211W        W86500  19.587  28.965   3.702
25212W        W86501   1.323  24.703   3.373
25213W        W86502  20.268  28.113  10.512
25214W        W86503  11.783   3.848  10.965
25215W        W86504  44.815  25.543   1.340
25216W        W86505   6.724  20.740  13.825
25217W        W86506   7.878   8.189   1.386
25218W        W86507   4.402  35.427   0.799
25219W        W86508  25.517  27.454  10.501
25220W        W86509  44.463  17.792  11.089
25221W        W86510  21.132   1.884   3.681
25222W        W86511   4.317  26.624  13.856
25223W        W86512  28.069  22.725  13.509
25224W        W86513  37.405  17.747  12.445
25225W        W86514  34.597  44.943  13.957
25226W        W86515  24.975  31.443  13.446
25227W        W86516  10.867  17.622  13.064
25228W        W86517  35.958  22.546  10.566
25229W        W86518  31.574  32.592   0.260
25230W        W86519  38.410   8.358   2.875
25231W        W86520  31.046  40.358  10.903
25232W        W86521  34.003  40.420   0.967
25233W        W86522  31.451  19.041   2.795
25234W        W86523  32.626  26.514  11.074
25235W        W86524  40.050  11.622  13.836
25236W        W86525   4.269  16.753   0.295
25237W        W86526  26.983  23.178   1.280
25238W        W86527  41.505  14.776  11.923
25239W        W86528  23.528  25.017  10.501
25240W        W86529  12.728  18.258   0.270
25241W        W86530  40.508  20.615   1.227
25242W        W86531  40.882  13.350  12.404
25243W        W86532  27.494  25.218   3.154
25244W        W86533  37.837  36.076   1.269
25245W        W86534  44.260  40.504  10.998
25246W        W86535   4.758  41.320  14.884
25247W        W86536  37.043   1.842  10.427
25248W        W86537  22.598  43.990  13.947
25249W        W86538  16.286  11.719   0.452
25250W        W86539  36.002  16.137   3.200
25251W        W86540  28.939  18.241  10.937
25252W        W86541  44.286  20.655   1.396
25253W        W86542  15.623  22.671   0.298
25254W        W86543   4.808  20.244   3.851
25255W        W86544  44.357  17.629  13.535
25256W        W86545   5.365  16.661   1.220
25257W        W86546  10.798   6.217   2.396
25258W        W86547  34.611  11.299   4.834
25259W        W86548  31.041  29.659  13.471
25260W        W86549  14.232  17.064  14.299
25261W        W86550  21.113   4.841   4.156
25262W        W86551  33.552  30.466   4.833
25263W        W86552  34.571  15.762   1.254
25264W        W86553  31.629   3.263  14.967
25265W        W86554   1.346  31.442   2.693
25266W        W86555  28.608  26.564  10.633
25267W        W86556  40.846  13.792   1.764
25268W        W86557  14.336  43.917  12.045
25269W        W86558  36.013  13.224   0.430
25270W        W86559   6.884   0.878   1.751
25271W        W86560   4.419  10.163  10.921
25272W        W86561  40.033  26.199  12.942
25273W        W86562  34.452   4.308   1.808
25274W        W86563   6.372  15.120   4.628
25275W        W86564  24.055   6.718  14.303
25276W        W86565   7.745  22.626   2.250
25277W        W86566  20.692  30.910  12.003
25278W        W86567  16.638  44.914   0.391
25279W        W86568  42.827  26.655  14.879
25280W        W86569  11.728  13.247  12.991
25281W        W86570   1.450   3.777   3.338
25282W        W86571   9.320  26.597   0.790
25283W        W86572  24.214  14.817   0.370
25284W        W86573   6.195  21.615   2.297
25285W        W86574  16.769  10.301  10.157
25286W        W86575  30.560  31.489   2.337
25287W        W86576  32.032  42.499   4.174
25288W        W86577  27.140  21.751  12.847
25289W        W86578  10.641  24.044   4.683
25290W        W86579  27.458   6.199   1.735
25291W        W86580   4.301  12.728  14.416
25292W        W86581  13.322  39.015  11.918
25293W        W86582  35.911   5.786   3.174
25294W        W86583   2.349  12.117  11.873
25295W        W86584   0.417  10.779  11.925
25296W        W86585  44.862   6.676  14.292
25297W        W86586   0.892  36.856   4.299
25298W        W86587   5.920  15.725   0.436
25299W        W86588   2.255  26.696  13.802
25300W        W86589  24.064  39.974  11.527
25301W        W86590   6.859  23.102   2.251
25302W        W86591  23.589  26.162   2.791
25303W        W86592  36.090  17.298   1.212
25304W        W86593  29.514  28.070  13.440
25305W        W86594  40.303  36.399  11.088
25306W        W86595  43.321  36.841   4.284
25307W        W86596   4.831  17.212   5.165
25308W        W86597  34.420  39.517  13.016
25309W        W86598  12.848  36.586  14.374
25310W        W86599  26.043  27.691  13.353
25311W        W86600  14.614  38.377   1.262
25312W        W86601   0.862  18.200  10.511
25313W        W86602   7.193  25.040  13.360
25314W        W86603  22.714  44.271   1.835
25315W        W86604  18.238   9.839  12.380
25316W        W86605  26.540  33.078  13.984
25317W        W86606  28.939  35.359  11.526
25318W        W86607  35.379   4.783   3.357
25319W        W86608  33.081  39.318  11.961
25320W        W86609   9.852  13.811   4.230
25321W        W86610  22.097  24.985   3.784
25322W        W86611  40.447  32.971  11.409
25323W        W86612  24.699   3.358  13.936
25324W        W86613  25.962  10.341  12.852
25325W        W86614   9.297  44.885   2.761
25326W        W86615  11.680  44.290   9.502
25327W        W86616  39.991  35.989  13.863
25328W        W86617   3.429  26.169   5.205
25329W        W86618  42.460  11.671  13.919
25330W        W86619  16.681  26.632  12.425
25331W        W86620  19.250  11.729   4.213
25332W        W86621  39.948  25.638   3.719
25333W        W86622  26.554  36.565   0.308
25334W        W86623  36.882  40.410  10.622
25335W        W86624  19.212  24.042   0.784
25336W        W86625   4.437  38.556   3.631
25337W        W86626   0.313  26.121  10.457
25338W        W86627  12.235  14.797   1.852
25339W        W86628  14.603  12.361   1.911
25340W        W86629  11.192  20.615  13.043
25341W        W86630  14.770   6.259  13.934
25342W        W86631  27.510  39.896   0.752
25343W        W86632   0.778   2.433   4.639
25344W        W86633  22.658  38.565  12.926
25345W        W86634  12.228  14.652   3.374
25346W        W86635  30.513  32.554  14.476
25347W        W86636  24.704  30.557   3.641
25348W        W86637  23.229  41.013   3.649
25349W        W86638  43.332  44.295  11.080
25350W        W86639   6.288   5.710   4.630
25351W        W86640  33.937   4.331   1.779
25352W        W86641  29.131  40.921  14.446
25353W        W86642   8.392  42.497   1.415
25354W        W86643  31.556  16.085  12.834
25355W        W86644   8.844  28.474   0.276
25356W        W86645  32.120  43.767   2.354
25357W        W86646  42.864  29.962  13.327
25358W        W86647  10.872  16.746  11.387
25359W        W86648   5.304  41.924  14.458
25360W        W86649   2.729   4.901  13.825
25361W        W86650   0.256   2.741  10.553
25362W        W86651  25.106  40.376   4.681
25363W        W86652  37.938  39.960   0.956
25364W        W86653  17.779   0.974  13.892
25365W        W86654  28.110   2.893  10.967
25366W        W86655  12.202  25.678  11.014
25367W        W86656  13.277   8.287  13.535
25368W        W86657   0.977   2.751  11.958
25369W        W86658   9.664   6.859  14.514
25370W        W86659  11.772  30.048   4.141
25371W        W86660   4.930   7.840  12.935
25372W        W86661  41.494   4.335  11.096
25373W        W86662  16.742   8.760   0.363
25374W        W86663  26.960   0.340   0.410
25375W        W86664  34.544   9.239  10.643
25376W        W86665  16.687  33.471   2.731
25377W        W86666   9.172  23.200  14.326
25378W        W86667   9.173  25.163   1.734
25379W        W86668  27.489  23.726   3.167
25380W        W86669   6.382  29.647  10.989
25381W        W86670  29.112  21.653   1.858
25382W        W86671  39.913   4.726  11.909
25383W        W86672  32.553  26.980   4.740
25384W        W86673  38.990  19.686  14.873
25385W        W86674  12.359   0.836  11.012
25386W        W86675  31.009  34.491  11.444
25387W        W86676  22.535  11.703  12.830
25388W        W86677  12.624  19.198  10.627
25389W        W86678  34.529  24.168   2.243
25390W        W86679   2.868  41.862  13.892
25391W        W86680   8.337   2.465   4.281
25392W        W86681  11.834  17.141   0.789
25393W        W86682  27.509  11.797  11.910
25394W        W86683   5.412  29.101  10.415
25395W        W86684  13.719  10.694  10.440
25396W        W86685   9.806  20.079  11.597
25397W        W86686  30.975  22.676  13.459
25398W        W86687  22.567   9.328  13.501
25399W        W86688  36.561  43.765   4.227
25400W        W86689  10.289   7.205  12.343
25401W        W86690  26.507  39.812   0.397
25402W        W86691  44.343  35.402  12.854
25403W        W86692  17.748  29.093  10.604
25404W        W86693  17.648   9.253  10.643
25405W        W86694  24.012  32.462  12.064
25406W        W86695  22.728  41.471  11.442
25407W        W86696   7.891  41.923  11.529
25408W        W86697  19.081   8.311   2.244
25409W        W86698   3.424   7.898   3.799
25410W        W86699  20.042  34.493   3.783
25411W        W86700   5.903  16.213  11.870
25412W        W86701  39.047  35.876   0.378
25413W        W86702  36.431  23.006   2.267
25414W        W86703  10.345  20.181   2.718
25415W        W86704  17.199  41.333   4.609
25416W        W86705  17.184  31.615   0.792
25417W        W86706  19.685   1.736   0.332
25418W        W86707   5.435  19.223   2.336
25419W        W86708  29.446  15.238  10.913
25420W        W86709  12.240  31.144   4.197
25421W        W86710  10.145  32.529  14.949
25422W        W86711   0.371   4.315   2.681
25423W        W86712  11.234  12.218  14.464
25424W        W86713   0.877  30.505  12.848
25425W        W86714  24.696  19.665  14.908
25426W        W86715  13.649  42.351  12.878
25427W        W86716  44.898  41.796  10.913
25428W        W86717  18.789  21.135  11.882
25429W        W86718  24.523  20.213  11.555
25430W        W86719  43.771  35.857  11.895
25431W        W86720   0.434  27.048   3.821
25432W        W86721  18.131  20.147  14.358
25433W        W86722  39.033  33.874   1.714
25434W        W86723  30.453  30.528   3.246
25435W        W86724   0.817  11.661   5.172
25436W        W86725  29.458  10.310  12.081
25437W        W86726  10.768  17.780   4.605
25438W        W86727  21.736  40.904  13.483
25439W        W86728  35.424  31.905  13.879
25440W        W86729  34.465   6.849   4.278
25441W        W86730  27.036  18.613  13.934
25442W        W86731   4.331  21.584  14.964
25443W        W86732  20.259  17.229   2.210
25444W        W86733  33.569  22.740   1.391
25445W        W86734   1.258  25.215   4.780
25446W        W86735   5.921  21.018  10.601
25447W        W86736  11.350  32.395  13.534
25448W        W86737  35.072   5.330  11.467
25449W        W86738  41.369  33.891   1.365
25450W        W86739  18.067  10.311  14.505
25451W        W86740  25.664   6.829   2.719
25452W        W86741  19.050  41.892  12.898
25453W        W86742  17.200   4.390   2.180
25454W        W86743  44.351   7.239   0.419
25455W        W86744   0.840  10.696  11.108
25456W        W86745   7.196  37.483  12.919
25457W        W86746   0.477   4.918  12.079
25458W        W86747  34.587  32.568  11.599
25459W        W86748   6.864  27.563   1.697
25460W        W86749   7.796   5.772  12.831
25461W        W86750  23.212  41.519   4.762
25462W        W86751  27.181  27.146   3.647
25463W        W86752   4.437  43.795  13.398
25464W        W86753  19.162  37.445   3.296
25465W        W86754  33.384   9.364   1.755
25466W        W86755  32.999  34.104   3.377
25467W        W86756  18.713  30.505   0.379
25468W        W86757  37.963  33.059  14.022
25469W        W86758  43.918  36.355  10.491
25470W        W86759  39.889  32.129   2.405
25471W        W86760  11.827  38.904  12.360
25472W        W86761  27.099  23.491  14.883
25473W        W86762   4.753  32.595  12.093
25474W        W86763   2.894   2.944   1.380
25475W        W86764  29.026   2.378   1.885
25476W        W86765  15.218   2.324  11.493
25477W        W86766   8.815  11.137  13.808
25478W        W86767   6.397  27.176  13.932
25479W        W86768  21.176  38.876   4.197
25480W        W86769   1.865  39.014   0.456
25481W        W86770  10.257  11.822   3.819
25482W        W86771  12.699   4.403   5.592
25483W        W86772   6.321  17.297   0.903
25484W        W86773  15.150  35.365  13.998
25485W        W86774  12.233  12.188  13.994
25486W        W86775  22.098  43.935  11.924
25487W        W86776   7.830   3.291   2.890
25488W        W86777   2.893  31.481  11.479
25489W        W86778  40.813  23.186  13.346
25490W        W86779  11.846  42.996   5.315
25491W        W86780  28.179   7.407   4.267
25492W        W86781   2.323  29.472  11.051
25493W        W86782   6.403   0.827   0.783
25494W        W86783  24.139  11.865  10.448
25495W        W86784  24.620  11.726   1.397
25496W        W86785   9.175   8.366   3.253
25497W        W86786  44.983  30.434  11.960
25498W        W86787  11.803  40.363  10.537
25499W        W86788  17.720  17.769   3.782
25500W        W86789  15.668  38.539  11.926
25501W        W86790  25.177  11.751   1.348
25502W        W86791  27.533  34.866   1.270
25503W        W86792   0.251  16.582   2.197
25504W        W86793  25.058  28.564  11.075
25505W        W86794  26.959  23.080   4.228
25506W        W86795  33.381  30.051  10.109
25507W        W86796  33.586  21.043  11.119
25508W        W86797  28.069  24.578  11.556
25509W        W86798   8.305   5.789  10.588
25510W        W86799   3.438  22.531   1.363
25511W        W86800  15.760  43.353  14.958
25512W        W86801  12.663  33.875  12.449
25513W        W86802  14.256  28.174  14.911
25514W        W86803  15.737  19.747  10.049
25515W        W86804  30.041  19.273  11.375
25516W        W86805   3.225  22.718  14.378
25517W        W86806  30.552   6.701  12.879
25518W        W86807  26.022  10.869  12.418
25519W        W86808  28.058   2.385  11.475
25520W        W86809  42.280  10.227  14.959
25521W        W86810  28.498   1.278   2.308
25522W        W86811  21.223   6.424  14.016
25523W        W86812  21.572  23.518  14.311
25524W        W86813  41.804  42.003   3.373
25525W        W86814  34.080  32.616  10.441
25526W        W86815  16.163  12.719  11.379
25527W        W86816  40.933  19.096  12.341
25528W        W86817  33.513  18.739  10.014
25529W        W86818  23.520   2.792  14.371
25530W        W86819  32.933  39.517  14.823
25531W        W86820  18.774  38.881  11.949
25532W        W86821  25.704  11.290   2.333
25533W        W86822  13.674   8.659  11.595
25534W        W86823  27.196  37.831   2.663
25535W        W86824  14.223   8.303   2.385
25536W        W86825  23.127   0.856  12.042
25537W        W86826  16.084   5.406   0.368
25538W        W86827   8.390  26.462   2.670
25539W        W86828   6.910  22.621   3.768
25540W        W86829  41.910  25.568   3.743
25541W        W86830  37.872  17.617  12.447
25542W        W86831   3.921   3.917   0.752
25543W        W86832   3.421  40.430   0.483
25544W        W86833  40.438  35.573  11.008
25545W        W86834  36.364   7.322   0.794
25546W        W86835  23.680   0.906  13.002
25547W        W86836  39.421  14.265  14.458
25548W        W86837  28.518   3.375   0.731
25549W        W86838  17.628  14.185   2.733
25550W        W86839  23.585  31.598   4.712
25551W        W86840  38.513   3.264  13.384
25552W        W86841  32.983  28.963   2.752
25553W        W86842  14.822  44.767   3.738
25554W        W86843  19.243  15.639   3.697
25555W        W86844  16.301  34.516  12.054
25556W        W86845   6.775  36.055   1.893
25557W        W86846   4.840  41.351  13.835
25558W        W86847  40.387   8.172   4.149
25559W        W86848  30.074  28.174   3.319
25560W        W86849  40.826  17.235   0.740
25561W        W86850  13.615  23.207  11.093
25562W        W86851   3.939  16.194  11.028
25563W        W86852   4.922  33.536  14.923
25564W        W86853   0.268  13.335   0.417
25565W        W86854  42.490  36.572  14.356
25566W        W86855  12.646  19.617  10.534
25567W        W86856  26.558  38.982  13.474
25568W        W86857  32.930  12.271   2.744
25569W        W86858  29.974  22.124  10.503
25570W        W86859  33.480  30.538  11.502
25571W        W86860  41.917  44.268  14.282
25572W        W86861  31.431  12.845  14.292
25573W        W86862  21.603  39.045  13.483
25574W        W86863  31.427  44.989   4.338
25575W        W86864  24.565  22.241  14.833
25576W        W86865  37.956  17.701   0.856
25577W        W86866  24.646  25.712   3.761
25578W        W86867  28.625  43.334   4.130
25579W        W86868  36.924  21.541   0.863
25580W        W86869   8.655  41.508  13.900
25581W        W86870   5.929  21.160   2.795
25582W        W86871  27.499  37.019   3.256
25583W        W86872  21.679  17.091   1.831
25584W        W86873  32.520   1.978   9.642
25585W        W86874  21.148   1.326   0.411
25586W        W86875  16.647  38.044   3.710
25587W        W86876  41.298   2.230  10.982
25588W        W86877  32.626  12.320   1.780
25589W        W86878  13.248  26.476   2.879
25590W        W86879   1.765  11.638   3.748
25591W        W86880  41.429   8.252   1.919
25592W        W86881  25.569  42.363  11.958
25593W        W86882  31.919  39.476   3.150
25594W        W86883  21.578  36.905  12.441
25595W        W86884  15.757   0.425   1.843
25596W        W86885  42.957  12.218  11.474
25597W        W86886  30.099   8.779  12.087
25598W        W86887  36.902  22.541  14.866
25599W        W86888  37.978  24.636  13.060
25600W        W86889   0.828  24.604   4.814
25601W        W86890   6.795   9.828  12.405
25602W        W86891  42.873  40.903   0.281
25603W        W86892   0.970  15.803  12.426
25604W        W86893   3.353  27.042  14.884
25605W        W86894  10.826   0.796  14.281
25606W        W86895  26.012  37.007  11.049
25607W        W86896  20.734  39.453  14.833
25608W        W86897  24.976  35.406  12.420
25609W        W86898  29.618  19.716   4.772
25610W        W86899   6.803   2.894  11.961
25611W        W86900   4.403  28.047  13.478
25612W        W86901  27.043   9.643   2.393
25613W        W86902  33.600   8.215  12.467
25614W        W86903  41.005   3.461   4.265
25615W        W86904  32.098   6.786   9.983
25616W        W86905  12.619  20.684   1.849
25617W        W86906  30.030   6.843  14.436
25618W        W86907  25.157  10.844   2.727
25619W        W86908  37.972  10.676  12.058
25620W        W86909  18.282  13.350   1.821
25621W        W86910  43.380   3.396  14.025
25622W        W86911  15.659   3.327   4.186
25623W        W86912  38.463   0.328  11.089
25624W        W86913   7.408  31.569   3.336
25625W        W86914  40.017   5.691  13.859
25626W        W86915  19.638  17.643  14.960
25627W        W86916  10.648  24.103  11.977
25628W        W86917  15.796  16.697  12.539
25629W        W86918   3.264  19.221  12.859
25630W        W86919  19.666  29.127   4.232
25631W        W86920  21.656  23.543   3.862
25632W        W86921  30.152  15.089   4.313
25633W        W86922  30.995   5.387   0.942
25634W        W86923  19.647   6.398   1.813
25635W        W86924   0.336  11.271   2.679
25636W        W86925  35.940  24.992   2.764
25637W        W86926  41.864  32.428   0.912
25638W        W86927  28.136  25.701  12.558
25639W        W86928  13.171  13.351  13.483
25640W        W86929  36.930   5.301  13.971
25641W        W86930   3.868   2.269   3.674
25642W        W86931  25.613  34.537   2.836
25643W        W86932  21.167  14.710  11.867
25644W        W86933  36.491  13.293   1.363
25645W        W86934  41.397   9.366  11.541
25646W        W86935  36.941  34.469  12.980
25647W        W86936  31.075   0.872  14.015
25648W        W86937  36.958   6.804  12.069
25649W        W86938  42.335  40.488  10.575
25650W        W86939  13.740  44.471   2.320
25651W        W86940  16.633  43.464   1.932
25652W        W86941  39.960   1.279  14.331
25653W        W86942  37.371  19.596  14.482
25654W        W86943   2.353  40.352  14.936
25655W        W86944  24.006  12.123  13.004
25656W        W86945  37.839   5.713   0.813
25657W        W86946   0.446  43.482   3.675
25658W        W86947   8.882   1.964  11.393
25659W        W86948  18.271  19.247  13.935
25660W        W86949  30.455   2.262   2.764
25661W        W86950  42.503  21.691   2.410
25662W        W86951   7.910  37.927   4.702
25663W        W86952   7.743  17.095   3.687
25664W        W86953  10.829  17.708   2.775
25665W        W86954  18.141  17.183  11.933
25666W        W86955  44.433  19.201  10.004
25667W        W86956  12.117  19.182  14.917
25668W        W86957   0.303  34.614   2.305
25669W        W86958  23.613  21.654   4.619
25670W        W86959  20.121  41.460   0.453
25671W        W86960  31.038   5.861   2.850
25672W        W86961   5.260  17.743   2.398
25673W        W86962  23.040  33.913   3.216
25674W        W86963  25.501  25.132   4.351
25675W        W86964  33.046   0.890   0.309
25676W        W86965  27.679   8.316   0.335
25677W        W86966  41.521  18.245  13.343
25678W        W86967  31.098  15.602   5.186
25679W        W86968  21.617  40.492  12.021
25680W        W86969  33.443  29.046  11.515
25681W        W86970  34.927  22.589   2.368
25682W        W86971  17.110   9.785  11.926
25683W        W86972  38.440  37.058   2.282
25684W        W86973  16.177  13.188  12.005
25685W        W86974  14.633   4.309   2.363
25686W        W86975  15.628  17.167   2.242
25687W        W86976   0.865  25.608  10.902
25688W        W86977  16.579  10.208   4.709
25689W        W86978  20.224  11.771  13.416
25690W        W86979   6.326  28.065  11.884
25691W        W86980  43.774   9.235  12.867
25692W        W86981  24.492   1.901   0.340
25693W        W86982  40.503   5.219   1.418
25694W        W86983  16.723  25.692   0.311
25695W        W86984  41.439  18.261   1.783
25696W        W86985  26.668   0.865  10.571
25697W        W86986  14.138  23.536   3.351
25698W        W86987  26.572  42.014   4.638
25699W        W86988  15.299  35.911  14.394
25700W        W86989  26.104   1.864   1.714
25701W        W86990  41.511  31.632  14.276
25702W        W86991  21.209   6.344   0.405
25703W        W86992  17.194  12.637  10.535
25704W        W86993  33.438  12.204   2.253
25705W        W86994  43.012   5.276   1.921
25706W        W86995  43.856   6.812   5.767
25707W        W86996   6.355  42.305   0.813
25708W        W86997  35.991   1.447   3.744
25709W        W86998   4.828   5.435   4.771
25710W        W86999   7.326  18.746  12.897
25711W        W87000  16.242  29.059  13.004
25712W        W87001   1.439  20.092   1.769
25713W        W87002  15.732   0.342  10.969
25714W        W87003   2.803  23.520  11.885
25715W        W87004  41.409  40.422  14.463
25716W        W87005   3.283  25.574   0.402
25717W        W87006  22.093  25.145   1.725
25718W        W87007  32.614  27.093  14.995
25719W        W87008  16.567  17.640   2.293
25720W        W87009   2.396  10.834   4.661
25721W        W87010   5.237  29.159  14.297
25722W        W87011  29.046  21.563  11.053
25723W        W87012  35.982   2.860   4.205
25724W        W87013  16.671  35.923  13.936
25725W        W87014   4.807  15.265  13.792
25726W        W87015  30.616  21.715  10.981
25727W        W87016  21.051  44.401   0.776
25728W        W87017  12.643  28.521  11.488
25729W        W87018  25.075  38.843   0.457
25730W        W87019  25.478  21.081   3.693
25731W        W87020  38.924  27.156   1.850
25732W        W87021  26.100  27.505   1.300
25733W        W87022   2.302  37.563  12.861
25734W        W87023  26.157  30.467  14.412
25735W        W87024  40.005  28.588  10.932
25736W        W87025   7.324  39.047  14.801
25737W        W87026  27.660  32.502   4.834
25738W        W87027  22.573  39.051   0.436
25739W        W87028  16.304   9.678   2.877
25740W        W87029  43.994  22.161   2.241
25741W        W87030  24.687  27.184  12.932
25742W        W87031  21.242  33.115   3.675
25743W        W87032  39.061   4.299   2.243
25744W        W87033  15.258  20.667  13.420
25745W        W87034  41.475  19.265   3.777
25746W        W87035  23.636  39.028   1.702
25747W        W87036   4.712  22.079  12.872
25748W        W87037  29.535   2.764   5.274
25749W        W87038  26.062  12.257  12.025
25750W        W87039  26.104  40.459   2.713
25751W        W87040   8.259  18.713   2.747
25752W        W87041  17.121   1.945  14.921
25753W        W87042  30.568  37.359  14.932
25754W        W87043  17.265  20.700   1.412
25755W        W87044   3.913  22.151   2.374
25756W        W87045  11.797  12.131   4.816
25757W        W87046   7.385   5.736  12.898
25758W        W87047  27.027  26.183   3.309
25759W        W87048  31.632   5.197   1.779
25760W        W87049  32.611  23.114  14.819
25761W        W87050  40.976   9.675   1.359
25762W        W87051  18.729  14.805  10.894
25763W        W87052  40.039  13.779   3.721
25764W        W87053  37.864  35.534  10.495
25765W        W87054  21.737  44.288   2.875
25766W        W87055  35.377  38.407   2.345
25767W        W87056   6.883  18.192  12.370
25768W        W87057   9.846   6.739  11.080
25769W        W87058  11.684  10.823   0.461
25770W        W87059   5.779  20.182  13.006
25771W        W87060   6.222  38.948  10.557
25772W        W87061  42.816  30.925  11.036
25773W        W87062   7.273  34.577   1.405
25774W        W87063  17.258  44.463  10.600
25775W        W87064  27.462  20.563  10.528
25776W        W87065  30.648   3.759  11.395
25777W        W87066  20.736  11.174   1.851
25778W        W87067   7.325  36.080  14.410
25779W        W87068  14.121   2.740  12.494
25780W        W87069   0.807   2.811   3.314
25781W        W87070  16.810  11.850   0.275
25782W        W87071  16.294  16.778  12.391
25783W        W87072   8.264  32.099   5.267
25784W        W87073  12.189  11.653   0.742
25785W        W87074  43.804  14.609   0.728
25786W        W87075  17.783  43.479  10.972
25787W        W87076  42.783   0.307   4.350
25788W        W87077  23.124  39.047   2.781
25789W        W87078   0.435  33.016   2.868
25790W        W87079  21.581  43.909  12.862
25791W        W87080  43.270  18.132   1.300
25792W        W87081   5.424  17.215   4.620
25793W        W87082   1.798  30.021   3.723
25794W        W87083   4.851  26.033  11.108
25795W        W87084  40.438   6.334  13.947
25796W        W87085   4.421  20.555   1.264
25797W        W87086   7.245  35.528  10.567
25798W        W87087  34.444  27.488  12.006
25799W        W87088  16.156   1.797  13.369
25800W        W87089   7.807   3.280   4.231
25801W        W87090  35.362   5.389  12.429
25802W        W87091   9.314   8.899   4.274
25803W        W87092  21.139  32.928  10.974
25804W        W87093   5.228   6.233   4.310
25805W        W87094   1.948   8.377   0.860
25806W        W87095  40.380  26.557   4.115
25807W        W87096  29.139  39.935  13.506
25808W        W87097  38.036  24.708  11.993
25809W        W87098  14.300  20.574   2.864
25810W        W87099  26.192  41.834   3.207
25811W        W87100  24.636  43.840  12.874
25812W        W87101  14.606  28.994  11.000
25813W        W87102  33.887   6.350   3.843
25814W        W87103  24.229  13.251  12.028
25815W        W87104   1.266  29.608   4.670
25816W        W87105  37.463  34.424  10.539
25817W        W87106  16.198   5.782   0.925
25818W        W87107   5.933   4.890  10.584
25819W        W87108  10.651  39.939  13.342
25820W        W87109   8.396  31.626  10.933
25821W        W87110  33.088  24.628   1.862
25822W        W87111  43.354  33.530  12.998
25823W        W87112  19.671   3.400   4.344
25824W        W87113  32.939   2.439  13.367
25825W        W87114  42.510   1.857  11.450
25826W        W87115  26.694   5.220  11.078
25827W        W87116   8.780  24.546  11.951
25828W        W87117   1.936  30.492   4.716
25829W        W87118   6.894   8.308   0.745
25830W        W87119  19.667  26.026  14.507
25831W        W87120  34.892   7.844   4.746
25832W        W87121   0.782  28.047  11.411
25833W        W87122   8.706  19.217  12.027
25834W        W87123  16.190   2.914   3.234
25835W        W87124  23.612  44.779  11.412
25836W        W87125  41.376  22.181  12.825
25837W        W87126  11.260  18.252  11.893
25838W        W87127  18.642  25.469   2.256
25839W        W87128  20.255  17.277   4.135
25840W        W87129  34.924  34.967   3.716
25841W        W87130   2.832  36.407   4.735
25842W        W87131  25.137  30.078  14.307
25843W        W87132  44.308  39.012  11.438
25844W        W87133  36.002  43.936  12.520
25845W        W87134  35.958  43.305  11.977
25846W        W87135  41.874  18.080   3.201
25847W        W87136  13.238  26.638  13.818
25848W        W87137   9.223  21.146   0.344
25849W        W87138   4.305  17.763  14.341
25850W        W87139  13.184  14.653   4.746
25851W        W87140   1.300  42.335   1.811
25852W        W87141  32.017  35.901   3.864
25853W        W87142  39.352  28.585  10.532
25854W        W87143  10.254  25.683  11.125
25855W        W87144  35.104  23.077  12.976
25856W        W87145   0.401  39.316  10.513
25857W        W87146  37.963  42.474  13.886
25858W        W87147  17.131  26.954  13.064
25859W        W87148  16.204  17.783   2.901
25860W        W87149  28.477  36.516   1.737
25861W        W87150   5.270  17.308   3.242
25862W        W87151  24.055  26.959  12.095
25863W        W87152  20.641  27.567   4.647
25864W        W87153   0.813   9.652   1.405
25865W        W87154  35.983   8.330  13.922
25866W        W87155  28.958   4.266   4.645
25867W        W87156  10.650  26.538  12.979
25868W        W87157  34.427  25.094  11.856
25869W        W87158  44.004  32.409   3.288
25870W        W87159  40.802   5.320   1.768
25871W        W87160  13.168  24.037  11.105
25872W        W87161  41.305  36.354  11.001
25873W        W87162  43.819  26.008  13.912
25874W        W87163  17.768  32.957  14.817
25875W        W87164  40.852  36.056   1.694
25876W        W87165  23.548  33.602  13.926
25877W        W87166  36.392  42.396  13.412
25878W        W87167  18.675  12.176  12.500
25879W        W87168  25.087  21.227   5.131
25880W        W87169  21.675  39.374   1.857
25881W        W87170  32.967  20.160  12.572
25882W        W87171  35.914   5.784   4.296
25883W        W87172  42.836  27.003   3.312
25884W        W87173  19.122  41.875  14.837
25885W        W87174  30.560  37.950  12.350
25886W        W87175  13.766  11.192  14.841
25887W        W87176  38.428   4.944   4.731
25888W        W87177  44.938  15.803   0.296
25889W        W87178  38.042  23.591   1.258
25890W        W87179  39.947  18.091  10.590
25891W        W87180  44.914  26.471  14.944
25892W        W87181  34.548  37.911  14.477
25893W        W87182  43.891  39.971   3.372
25894W        W87183  41.341  37.580  14.347
25895W        W87184  13.321  22.109  11.490
25896W        W87185  22.069   2.965   4.306
25897W        W87186  13.639  16.609   0.810
25898W        W87187  12.236  44.374  12.445
25899W        W87188  31.553  35.040  12.517
25900W        W87189  37.073  18.289   1.738
25901W        W87190   7.909  42.007   3.225
25902W        W87191  12.620   8.823  13.987
25903W        W87192  39.515  16.634   1.214
25904W        W87193   6.708   0.883  11.870
25905W        W87194   9.201  27.455  11.118
25906W        W87195  43.845  43.325  11.078
25907W        W87196  41.838   4.835  11.989
25908W        W87197  17.182   0.422  13.348
25909W        W87198  26.003  27.691   2.712
25910W        W87199  42.360  10.694   0.306
25911W        W87200   2.732  12.806  14.420
25912W        W87201  41.400  30.497   2.291
25913W        W87202   6.368  31.598   3.301
25914W        W87203  32.519  22.008   2.328
25915W        W87204  16.783  25.540   4.700
25916W        W87205  26.477  44.289   0.453
25917W        W87206  35.474  13.798  14.872
25918W        W87207  10.796  20.725   4.654
25919W        W87208  39.512  21.218  10.979
25920W        W87209  12.683   3.929   3.636
25921W        W87210  38.952  40.042  13.023
25922W        W87211  14.271  27.104   2.269
25923W        W87212   2.860  19.151   4.228
25924W        W87213  37.885  23.119   3.838
25925W        W87214  35.549  16.295   0.319
25926W        W87215  28.079  29.095   1.283
25927W        W87216  25.486  24.003  11.116
25928W        W87217  26.131   8.666  13.917
25929W        W87218  41.328   9.847  14.004
25930W        W87219  28.517  31.114   2.878
25931W        W87220  32.492  16.662  10.552
25932W        W87221   5.826  33.479  10.610
25933W        W87222   4.429  38.539  10.585
25934W        W87223  36.843   9.760  10.538
25935W        W87224  31.446   5.909  12.906
25936W        W87225  38.486  42.985   4.805
25937W        W87226   5.433  20.543   3.162
25938W        W87227  28.087  12.266  11.905
25939W        W87228  10.851  41.506  13.940
25940W        W87229  40.945  18.602   5.298
25941W        W87230  43.378  38.059  10.560
25942W        W87231   4.414  38.852  11.398
25943W        W87232  39.446   3.373  10.968
25944W        W87233  22.192  38.908  14.856
25945W        W87234  34.992  27.658   1.918
25946W        W87235   4.280  16.676  14.786
25947W        W87236  16.159  35.561   3.787
25948W        W87237  12.738  15.751  11.449
25949W        W87238  18.651  17.671   3.717
25950W        W87239  10.260  11.295  12.341
25951W        W87240  44.495  17.713  12.389
25952W        W87241  36.899  40.504   4.247
25953W        W87242  17.741  24.668   0.816
25954W        W87243  33.096  31.956  10.421
25955W        W87244  23.204  26.567   3.763
25956W        W87245   3.769  44.004   4.207
25957W        W87246  35.076  13.253   0.814
25958W        W87247   8.240  36.045   0.442
25959W        W87248   2.899  29.108   4.746
25960W        W87249  32.403  11.136   4.702
25961W        W87250   3.410  44.967   3.640
25962W        W87251  39.558  22.650   2.816
25963W        W87252  29.503  15.790   3.724
25964W        W87253   2.389  23.101  12.845
25965W        W87254  23.043   4.409   3.176
25966W        W87255   5.254  12.780   0.735
25967W        W87256  35.496   1.303  11.937
25968W        W87257  28.606   5.777   2.177
25969W        W87258  41.963   2.943   0.855
25970W        W87259  29.505  25.967   3.356
25971W        W87260  12.190   7.808  14.914
25972W        W87261  36.898   5.418  12.060
25973W        W87262   2.329   2.471  11.992
25974W        W87263  18.256  29.475   1.284
25975W        W87264  40.979  21.032   4.656
25976W        W87265  23.063  44.265   3.250
25977W        W87266   5.852   1.836  14.437
25978W        W87267  16.176   2.427   3.867
25979W        W87268  18.293  13.603  12.914
25980W        W87269  15.268   2.293   0.963
25981W        W87270  33.044  28.008  12.016
25982W        W87271  26.953  20.145  10.123
25983W        W87272   1.376  14.141  12.091
25984W        W87273   2.338   6.801   3.675
25985W        W87274   7.282   4.318   2.234
25986W        W87275  44.998  20.111   0.797
25987W        W87276  36.454  12.623   2.400
25988W        W87277  44.851   9.822   9.665
25989W        W87278  24.593  33.928   2.394
25990W        W87279   7.877  23.550   3.745
25991W        W87280  27.489  29.490   3.307
25992W        W87281   3.250  24.649   4.614
25993W        W87282  20.724  29.478  11.587
25994W        W87283  21.121   6.882   3.737
25995W        W87284   6.394  26.149   2.807
25996W        W87285  35.894  21.136  11.868
25997W        W87286  35.564  15.202  14.828
25998W        W87287  38.041   9.197  12.977
25999W        W87288  37.461  39.044  12.356
26000W        W87289  36.976  17.612   9.548
26001W        W87290  13.105  13.608   2.831
26002W        W87291  36.508  13.772  12.483
26003W        W87292   4.399  10.764   0.349
26004W        W87293  34.456  33.409   3.796
26005W        W87294  34.480  18.227   4.755
26006W        W87295  29.660   1.749  13.391
26007W        W87296  14.134  17.114  14.822
26008W        W87297  24.211   6.284   1.806
26009W        W87298  17.206   3.742  14.443
26010W        W87299   7.788  26.644   1.931
26011W        W87300  19.623  22.014   0.300
26012W        W87301  26.189  23.999   1.347
26013W        W87302  29.006  18.751  12.887
26014W        W87303  37.954  20.056   3.769
26015W        W87304  26.965   8.817  11.104
26016W        W87305  24.115  36.470   3.293
26017W        W87306  10.319  16.163  10.628
26018W        W87307   2.352  11.338  13.479
26019W        W87308  25.634  43.416   0.893
26020W        W87309  36.904  33.988   2.256
26021W        W87310   8.763   6.204  14.501
26022W        W87311   4.310  41.915  14.399
26023W        W87312  38.444  22.245   1.920
26024W        W87313  14.122  22.613  11.069
26025W        W87314  23.578  31.909   4.744
26026W        W87315  13.308  12.737   9.957
26027W        W87316   5.352  12.324  13.064
26028W        W87317  21.564   1.418   0.940
26029W        W87318  11.787  32.997  13.982
26030W        W87319  24.202   6.418  11.082
26031W        W87320  35.029  44.939   2.233
26032W        W87321  29.631  38.900   4.314
26033W        W87322   5.809   6.851  12.963
26034W        W87323  25.165  40.548  14.930
26035W        W87324  17.607   5.844   0.263
26036W        W87325  10.293  28.959   2.306
26037W        W87326  17.577   9.292   0.360
26038W        W87327  28.635   4.889   1.437
26039W        W87328  19.098  40.332  13.962
26040W        W87329  39.538  15.753   1.331
26041W        W87330  21.204  32.438   1.763
26042W        W87331  18.135  17.782   2.780
26043W        W87332  15.686  17.759  12.828
26044W        W87333  39.366  21.086   3.265
26045W        W87334  40.398   3.297  10.547
26046W        W87335  22.668  22.503  12.444
26047W        W87336  40.954  34.040  12.976
26048W        W87337  33.440  16.108   4.698
26049W        W87338  28.050  40.845  12.088
26050W        W87339  15.654   6.825  11.040
26051W        W87340   6.832  40.366   2.770
26052W        W87341  40.458  31.646   4.296
26053W        W87342   8.215  10.353  10.556
26054W        W87343   8.789  19.583   3.168
26055W        W87344  34.573  34.870   1.764
26056W        W87345  24.702   3.892   4.678
26057W        W87346   4.301  12.213  11.985
26058W        W87347   0.977  40.880  14.276
26059W        W87348  42.835  12.292  10.429
26060W        W87349  32.053  17.738   4.700
26061W        W87350  16.772  29.609   2.856
26062W        W87351  17.218  36.463  11.897
26063W        W87352  20.164  40.798  14.927
26064W        W87353  42.319  22.023   3.730
26065W        W87354  36.425   0.890  14.862
26066W        W87355  12.176  11.155   2.187
26067W        W87356  28.541  24.123   4.761
26068W        W87357  43.985  18.615   1.883
26069W        W87358  18.257  35.571  14.929
26070W        W87359  18.690  21.628   3.671
26071W        W87360  43.895  11.793   5.106
26072W        W87361  34.575   0.445  11.566
26073W        W87362  23.691  10.779  11.090
26074W        W87363  37.844  27.661  12.888
26075W        W87364  21.087  34.481   0.319
26076W        W87365  31.008  31.976  13.458
26077W        W87366  21.202   2.251   1.744
26078W        W87367  43.504  39.963   4.681
26079W        W87368   6.773   5.719  11.876
26080W        W87369  15.612   2.299  14.295
26081W        W87370  19.054  39.981   2.409
26082W        W87371  10.841  40.406  11.038
26083W        W87372  25.485  39.865  14.428
26084W        W87373   8.725  34.381  11.942
26085W        W87374  40.836   1.273  13.388
26086W        W87375  32.426  10.837  13.816
26087W        W87376   1.382  36.023   0.431
26088W        W87377   1.733  40.454  11.427
26089W        W87378  38.057   0.943  10.153
26090W        W87379   8.719  11.298   3.156
26091W        W87380  44.773   7.842   0.841
26092W        W87381  33.048  37.009  14.922
26093W        W87382  26.065  26.202   1.766
26094W        W87383   3.951  36.051   3.296
26095W        W87384  18.194  37.065   5.227
26096W        W87385  17.139  25.469   1.782
26097W        W87386   3.453   9.201   4.154
26098W        W87387  23.575   4.883  11.520
26099W        W87388   0.374  22.168   3.633
26100W        W87389  13.156  37.913   5.634
26101W        W87390  34.589  14.176  12.843
26102W        W87391  29.950  24.620   4.603
26103W        W87392   1.977   6.273   4.665
26104W        W87393  23.104  38.977   4.204
26105W        W87394  33.107  13.129   1.901
26106W        W87395  44.942  15.657  13.421
26107W        W87396  23.225  27.946  14.951
26108W        W87397  42.443   2.313  14.026
26109W        W87398  41.937   2.881   3.838
26110W        W87399   6.201  43.338  12.067
26111W        W87400  33.463  39.810   2.300
26112W        W87401  30.969  13.275   2.405
26113W        W87402  16.317  18.682   1.270
26114W        W87403  43.275  38.522   0.741
26115W        W87404  38.528  31.445  12.378
26116W        W87405  36.491  35.858  14.766
26117W        W87406  44.313  36.350   9.993
26118W        W87407  42.949  18.617   5.237
26119W        W87408  33.497  36.591   0.303
26120W        W87409   6.284   6.414   0.278
26121W        W87410  15.136   7.853   3.291
26122W        W87411  30.096  28.051   4.764
26123W        W87412   2.792  18.567   1.902
26124W        W87413  21.623  14.716   3.748
26125W        W87414  17.218   1.882   0.270
26126W        W87415   5.909  42.888   2.398
26127W        W87416  23.097  32.012   0.261
26128W        W87417   8.723   0.289   5.175
26129W        W87418  22.150  37.406   3.863
26130W        W87419  17.097  42.928   3.723
26131W        W87420  27.467  31.445  13.448
26132W        W87421   2.867  24.023   3.726
26133W        W87422  37.852   4.933   1.341
26134W        W87423  34.078   8.385   1.380
26135W        W87424  15.781   8.238   1.705
26136W        W87425  11.254  31.524   0.457
26137W        W87426  17.074  37.464  13.307
26138W        W87427   0.308  20.617  14.795
26139W        W87428  20.058  25.643   4.225
26140W        W87429  33.535  30.980  12.503
26141W        W87430   7.853  28.479   2.719
26142W        W87431  32.464  27.961  14.850
26143W        W87432  34.102  15.761   4.184
26144W        W87433  28.003   8.741   3.360
26145W        W87434   1.842  33.598   1.735
26146W        W87435  14.238  29.454   4.298
26147W        W87436  18.120  37.866  10.924
26148W        W87437   2.368  35.603   4.162
26149W        W87438  12.154  21.172   3.635
26150W        W87439  39.428  11.772   3.239
26151W        W87440  36.044   6.275   4.788
26152W        W87441   8.318  16.612  11.980
26153W        W87442  18.113  43.917   4.633
26154W        W87443  39.866  43.020   4.615
26155W        W87444  38.887  43.802   1.306
26156W        W87445  40.940   7.384  11.435
26157W        W87446  44.262  39.873  14.986
26158W        W87447   8.370  19.040   1.393
26159W        W87448  33.958  12.850   2.871
26160W        W87449  38.980  41.297   3.352
26161W        W87450   3.273  42.364  10.962
26162W        W87451  16.209   7.296   4.245
26163W        W87452   9.323  24.598   2.758
26164W        W87453  34.604  30.974   1.307
26165W        W87454  41.524  18.575  11.377
26166W        W87455  27.490  34.108   2.775
26167W        W87456  15.667  42.012   2.890
26168W        W87457  12.634  38.828  14.435
26169W        W87458  41.899  36.957  14.279
26170W        W87459  31.957  35.396  12.410
26171W        W87460  11.207  27.135  13.538
26172W        W87461  22.057  43.908   1.274
26173W        W87462  17.111  11.335   0.291
26174W        W87463  33.467  24.484  12.453
26175W        W87464   9.744  30.930   0.415
26176W        W87465  36.485  33.019   1.809
26177W        W87466  12.174  23.012   3.263
26178W        W87467  43.388  37.389  13.394
26179W        W87468  17.231  20.531   2.233
26180W        W87469  39.420  16.693  11.596
26181W        W87470  16.298  18.549  13.479
26182W        W87471   6.683  14.774  12.477
26183W        W87472   1.319  10.788   4.242
26184W        W87473  18.222  21.518  12.994
26185W        W87474  31.996  19.557  12.357
26186W        W87475  34.070  39.346  14.860
26187W        W87476  36.458  23.182  13.851
26188W        W87477  19.249  36.531   2.367
26189W        W87478   9.860  34.379   3.796
26190W        W87479  33.518  27.959   2.378
26191W        W87480  12.843  19.553   5.189
26192W        W87481   0.812   1.856  12.048
26193W        W87482  19.751  28.007   1.742
26194W        W87483  19.724  25.589   3.866
26195W        W87484  34.998   6.195   4.700
26196W        W87485  25.995  24.663   0.459
26197W        W87486  21.032  44.407   5.287
26198W        W87487   8.694  20.523   3.837
26199W        W87488  43.783  23.092  11.539
26200W        W87489  39.417  44.900   3.171
26201W        W87490  40.918  17.723  13.418
26202W        W87491  19.165  20.726  11.541
26203W        W87492  10.770  21.173   5.081
26204W        W87493   2.409   0.914   4.668
26205W        W87494  17.271  15.599  14.846
26206W        W87495  37.346  23.061  10.906
26207W        W87496  33.946  29.066   4.808
26208W        W87497  39.003  23.023  13.980
26209W        W87498   6.724  29.004   3.838
26210W        W87499   8.671   8.295   0.929
26211W        W87500  10.267  36.976   9.621
26212W        W87501  36.399  35.571  13.385
26213W        W87502  34.577  37.849  14.818
26214W        W87503  10.153  42.429  13.321
26215W        W87504  39.048  25.484  14.306
26216W        W87505  12.785  39.880   0.796
26217W        W87506   2.830  40.004   1.391
26218W        W87507  36.887   4.816   2.697
26219W        W87508  36.455  14.318   3.381
26220W        W87509  25.677  22.509  11.572
26221W        W87510  16.316  34.594  12.973
26222W        W87511  31.510  29.960  13.033
26223W        W87512  31.070  29.033  14.474
26224W        W87513  39.353  44.785  11.909
26225W        W87514   8.668  18.120   1.793
26226W        W87515  27.949  26.068  14.359
26227W        W87516  16.232   8.186  10.889
26228W        W87517  11.185  37.854   1.786
26229W        W87518  24.117  15.183   3.728
26230W        W87519   1.382   1.754  12.905
26231W        W87520  36.463   1.743   4.816
26232W        W87521  38.850  10.722  13.881
26233W        W87522  43.852  42.342   4.133
26234W        W87523  14.727  17.714   3.349
26235W        W87524  21.115   7.678  13.405
26236W        W87525  16.279  15.799  12.043
26237W        W87526  30.044  11.851  10.539
26238W        W87527  13.802   9.350   2.305
26239W        W87528  23.041  11.209   2.201
26240W        W87529   8.715  31.441  12.004
26241W        W87530  24.008  20.524  11.428
26242W        W87531   4.850  44.822   2.871
26243W        W87532  20.040  36.513   2.234
26244W        W87533  18.116  23.637  11.904
26245W        W87534  37.557  10.358   3.374
26246W        W87535   4.732  37.901   3.700
26247W        W87536   2.802   5.716   4.341
26248W        W87537  30.949  25.542   3.639
26249W        W87538  21.233  31.913  11.564
26250W        W87539  28.957  17.275   0.350
26251W        W87540   7.863  38.041   4.162
26252W        W87541  24.225   2.945  12.371
26253W        W87542  31.419  21.752   3.857
26254W        W87543  27.105  39.324   0.808
26255W        W87544  28.569  23.692   2.341
26256W        W87545  25.569  11.641  12.030
26257W        W87546  19.681   7.739   4.836
26258W        W87547  44.471  11.300   2.786
26259W        W87548  13.287  41.483  14.813
26260W        W87549  25.014  15.288  13.896
26261W        W87550  23.062   2.848   2.190
26262W        W87551  30.647  24.066   1.934
26263W        W87552  40.834  23.179   4.164
26264W        W87553   7.391   3.359  11.938
26265W        W87554  37.396  24.496   0.776
26266W        W87555   0.361  16.800  12.369
26267W        W87556  29.992  24.612  14.955
26268W        W87557  32.592  19.124  13.949
26269W        W87558  16.242  12.323  12.461
26270W        W87559  43.274  40.509  12.482
26271W        W87560  40.342  26.590   1.800
26272W        W87561   5.396  31.600  14.951
26273W        W87562  30.139   9.378  10.061
26274W        W87563  16.133  37.842  12.090
26275W        W87564  41.499  21.107  13.466
26276W        W87565   8.229   5.394   0.469
26277W        W87566  38.845   8.742  13.802
26278W        W87567  39.529  12.341  13.365
26279W        W87568  38.908  36.960  14.414
26280W        W87569  37.495   7.345  13.041
26281W        W87570  31.479  19.663  13.804
26282W        W87571  38.504  11.690  13.371
26283W        W87572  10.139  32.609   2.865
26284W        W87573  15.711  21.701   1.370
26285W        W87574  30.133  33.952   4.303
26286W        W87575  10.193  31.022   3.184
26287W        W87576   9.395  11.863   1.861
26288W        W87577  12.296  25.049   4.816
26289W        W87578  16.629  23.562  12.833
26290W        W87579  27.660  40.311   2.316
26291W        W87580  42.827  32.983  12.481
26292W        W87581  34.981  20.532   1.745
26293W        W87582  18.238   4.408   2.340
26294W        W87583  10.177   0.811   0.865
26295W        W87584   6.272  41.352   3.671
26296W        W87585  10.744   7.874  11.019
26297W        W87586  44.496  20.645   3.648
26298W        W87587  35.474   1.940   9.550
26299W        W87588   8.883  37.919   5.224
26300W        W87589  13.296  42.825  12.003
26301W        W87590   9.294  14.132  14.778
26302W        W87591  15.139  12.772  12.015
26303W        W87592  10.252  13.664  12.503
26304W        W87593   5.305  34.561  10.958
26305W        W87594  35.375  19.208   4.352
26306W        W87595  38.011  30.457   0.473
26307W        W87596  29.951  34.374   2.774
26308W        W87597   3.721  21.667   0.482
26309W        W87598  23.021   5.364   1.397
26310W        W87599  28.958  17.616  12.565
26311W        W87600  16.272  35.525  12.343
26312W        W87601  14.706   7.781  10.543
26313W        W87602  44.262  41.043   2.743
26314W        W87603  39.456  27.575  14.863
26315W        W87604  15.594   6.423   1.754
26316W        W87605  35.599  37.988  12.359
26317W        W87606  20.651  31.428   3.211
26318W        W87607  31.145  39.981   3.766
26319W        W87608   0.299   5.239  14.413
26320W        W87609  43.020  10.216   0.960
26321W        W87610  14.166  44.389  11.497
26322W        W87611   9.791   9.661   0.261
26323W        W87612  31.418  26.604  14.474
26324W        W87613  25.606  30.064  13.411
26325W        W87614  37.488  29.541   4.632
26326W        W87615  13.112  27.646   3.337
26327W        W87616  30.957  41.887   1.779
26328W        W87617  38.455   9.341   3.166
26329W        W87618  23.123  12.356   4.711
26330W        W87619  18.296  38.058  11.973
26331W        W87620   5.315  41.517   4.218
26332W        W87621   6.226  21.202   4.233
26333W        W87622   4.912  20.587   5.252
26334W        W87623   5.886  32.412   3.154
26335W        W87624  43.272  23.096   2.804
26336W        W87625  27.180  31.004   1.730
26337W        W87626  28.486  22.031   2.691
26338W        W87627  16.668  25.977   2.672
26339W        W87628  18.209  16.109  14.995
26340W        W87629  43.922   8.705  13.421
26341W        W87630  10.857  31.997  10.956
26342W        W87631  33.915  27.954   0.329
26343W        W87632  11.642  16.195   1.255
26344W        W87633  35.459  38.877  11.867
26345W        W87634  36.875   3.365   3.380
26346W        W87635  33.958  15.637   3.862
26347W        W87636   2.882  16.072  12.371
26348W        W87637  31.117  23.587   2.860
26349W        W87638  44.398  30.154  14.943
26350W        W87639  21.756  41.348  11.504
26351W        W87640   1.935  43.884  14.907
26352W        W87641   1.263  32.408  12.001
26353W        W87642  31.438  12.273  13.337
26354W        W87643   0.906  13.734  11.436
26355W        W87644   9.681   3.803  10.913
26356W        W87645  38.900   6.825  12.075
26357W        W87646   9.152  39.927  10.501
26358W        W87647  29.560  22.526  11.105
26359W        W87648  14.680   9.249  11.868
26360W        W87649  37.485  20.156  11.485
26361W        W87650  32.419   1.939  11.979
26362W        W87651  39.045  17.185  11.885
26363W        W87652  43.493  37.399   2.313
26364W        W87653  35.514  23.079  10.547
26365W        W87654  10.674  18.763   2.867
26366W        W87655  29.018   5.380  13.055
26367W        W87656  41.833  17.785   2.809
26368W        W87657  29.154  15.102  14.993
26369W        W87658   0.412  30.514   1.859
26370W        W87659  18.702   2.424  13.433
26371W        W87660  43.279   7.824  13.928
26372W        W87661   9.238   4.790   2.411
26373W        W87662  10.800   8.326   2.342
26374W        W87663   6.772  11.356  14.966
26375W        W87664  38.565  16.082  13.929
26376W        W87665  32.518  33.554  10.032
26377W        W87666  14.148  29.940   3.701
26378W        W87667  12.766  19.561   4.768
26379W        W87668  38.989  42.419  14.336
26380W        W87669   2.323  38.992  12.485
26381W        W87670  24.022   4.699  11.480
26382W        W87671  17.278  20.030   1.815
26383W        W87672  20.604   8.293   3.164
26384W        W87673  25.141  21.146   3.679
26385W        W87674  29.995   8.741  13.475
26386W        W87675   5.921  13.801   0.896
26387W        W87676  42.799  11.698   0.428
26388W        W87677  22.019   1.742   2.674
26389W        W87678  38.932  14.198   3.801
26390W        W87679   9.686  42.930  13.874
26391W        W87680   5.279   4.815   9.957
26392W        W87681   3.304   2.408   5.116
26393W        W87682  13.661  18.148  13.360
26394W        W87683  25.099   8.863   2.895
26395W        W87684  22.056  26.082   4.268
26396W        W87685  21.653  11.155  14.368
26397W        W87686   6.199  28.575   2.179
26398W        W87687  20.566  26.102   1.763
26399W        W87688  14.265  13.259   3.160
26400W        W87689  12.128  20.734   0.416
26401W        W87690   7.294  12.328  11.412
26402W        W87691   6.426  24.181   2.880
26403W        W87692  14.812  19.115  12.542
26404W        W87693  22.178   9.320   4.267
26405W        W87694  37.420   7.831  12.400
26406W        W87695  15.612  28.002  11.030
26407W        W87696  20.145  44.949  12.975
26408W        W87697  22.063   6.256  12.057
26409W        W87698  23.512  14.718  11.983
26410W        W87699   7.273   0.923  12.878
26411W        W87700   7.869  42.817   2.758
26412W        W87701  43.350  25.529  10.586
26413W        W87702  44.964  39.941   0.812
26414W        W87703  43.000  37.533  14.376
26415W        W87704  13.789  20.170   4.135
26416W        W87705  42.340   6.282  12.088
26417W        W87706  41.391  20.621   4.339
26418W        W87707  30.636  16.168  12.965
26419W        W87708  18.722  32.079  11.036
26420W        W87709   7.792  42.890   1.252
26421W        W87710  39.942  20.706   5.780
26422W        W87711  33.065   9.806  14.300
26423W        W87712  43.942  34.916  14.772
26424W        W87713   7.413  19.226  12.498
26425W        W87714  34.559  21.250  12.093
26426W        W87715  18.555   7.301   1.398
26427W        W87716  28.147   6.361   4.816
26428W        W87717  30.046   9.271   3.869
26429W        W87718   3.404  37.888  12.528
26430W        W87719  21.711  38.057  13.446
26431W        W87720  26.968  32.085  14.460
26432W        W87721  19.242  23.068   1.747
26433W        W87722   4.432  21.588   4.292
26434W        W87723   6.855  11.809   4.222
26435W        W87724  21.115  42.979  13.950
26436W        W87725  19.646  18.162  13.343
26437W        W87726  29.154  36.908   2.735
26438W        W87727   7.359   0.322   2.255
26439W        W87728   4.918   7.263   0.478
26440W        W87729  43.396   9.694   3.283
26441W        W87730  24.107  33.932  11.069
26442W        W87731  15.131  32.908  12.093
26443W        W87732  13.158  42.496  13.521
26444W        W87733  34.612  10.800   1.800
26445W        W87734  41.364  16.275  12.997
26446W        W87735  10.241  12.161   1.737
26447W        W87736  35.408  43.970  11.390
26448W        W87737   5.743  21.583  13.412
26449W        W87738  14.220   9.392   1.908
26450W        W87739  40.428  10.690   2.379
26451W        W87740  27.570  36.035   4.137
26452W        W87741  36.474  33.038  12.096
26453W        W87742   1.246   3.371   1.843
26454W        W87743  35.075  25.579  13.017
26455W        W87744  19.167  26.691   1.716
26456W        W87745  42.500  26.175   0.243
26457W        W87746   4.396   3.863  14.370
26458W        W87747  29.478  16.132  14.867
26459W        W87748  38.828  23.238   3.760
26460W        W87749  16.599  29.450  14.494
26461W        W87750  22.659  16.804  11.904
26462W        W87751  10.265  40.919   1.402
26463W        W87752   1.945   6.786  14.319
26464W        W87753  37.363  26.041  14.486
26465W        W87754  31.585  27.450  12.891
26466W        W87755  29.959   9.231   1.737
26467W        W87756  32.435   8.166  10.465
26468W        W87757  37.959  26.067   1.398
26469W        W87758  25.619  39.858   3.832
26470W        W87759  12.851  34.460   4.769
26471W        W87760  33.462  35.527  12.925
26472W        W87761  40.401  39.977   0.288
26473W        W87762  31.527  17.631   0.939
26474W        W87763  17.173  17.227  13.002
26475W        W87764  22.548  34.972   3.644
26476W        W87765  37.933  25.015  13.966
26477W        W87766  28.984  29.440  14.470
26478W        W87767  36.909  19.694  12.095
26479W        W87768   7.331  18.097  10.905
26480W        W87769  18.668  39.384   2.681
26481W        W87770  25.211  30.941  13.512
26482W        W87771  38.988  27.477  11.022
26483W        W87772  28.440  44.389  12.988
26484W        W87773  35.578  37.992   0.909
26485W        W87774  22.528  31.100  13.800
26486W        W87775  12.252   6.348  14.857
26487W        W87776  13.166  28.490  14.471
26488W        W87777  41.941  35.602  10.467
26489W        W87778   9.751   4.367  11.040
26490W        W87779  19.104  18.636  11.996
26491W        W87780  36.068   8.707   3.234
26492W        W87781   2.833  36.419  14.467
26493W        W87782  22.131  23.008   4.149
26494W        W87783  41.502  17.578   4.352
26495W        W87784  41.880  10.326   3.260
26496W        W87785   5.878  31.027   3.279
26497W        W87786  44.433  23.624   1.321
26498W        W87787  30.919  30.923   4.216
26499W        W87788   0.857  21.044  12.084
26500W        W87789  33.554  38.540   0.410
26501W        W87790  12.660  36.876  10.556
26502W        W87791  17.691  11.219   3.715
26503W        W87792  12.617  27.009   4.283
26504W        W87793  26.978  10.686  12.940
26505W        W87794  34.555  36.020   1.867
26506W        W87795  12.627  42.356   2.666
26507W        W87796  15.095   7.264   3.667
26508W        W87797  25.094  19.588   9.949
26509W        W87798  17.242   5.696   3.715
26510W        W87799  36.043  15.219  12.878
26511W        W87800  29.010  22.525   4.604
26512W        W87801   2.266  32.468   0.819
26513W        W87802  39.003  37.058  14.975
26514W        W87803  37.535  26.564   0.775
26515W        W87804  43.346  33.128  13.049
26516W        W87805  23.240   4.363  14.869
26517W        W87806  31.539  28.480  10.471
26518W        W87807  11.782  27.944   3.646
26519W        W87808  39.990  36.949   4.759
26520W        W87809   4.886   9.733  14.024
26521W        W87810   0.811  35.924   1.276
26522W        W87811  32.557  30.929  14.297
26523W        W87812  34.542  24.079   4.285
26524W        W87813  18.167  38.362  10.030
26525W        W87814   1.767  13.196  14.876
26526W        W87815   3.722  30.528  14.001
26527W        W87816   1.825  43.420   4.650
26528W        W87817  30.910  40.033  13.939
26529W        W87818  40.995  40.926   0.873
26530W        W87819  36.077   9.765  14.281
26531W        W87820  12.128  10.367  13.463
26532W        W87821  38.956   8.328  13.826
26533W        W87822  43.432  29.112  10.442
26534W        W87823   1.244  27.157  14.368
26535W        W87824  10.797  26.013   0.961
26536W        W87825  10.813  26.151   4.780
26537W        W87826  25.591  41.436   4.812
26538W        W87827  23.241  16.285   2.208
26539W        W87828  31.971  43.400   0.259
26540W        W87829   1.480  15.233  11.385
26541W        W87830  35.531  26.603  12.355
26542W        W87831  40.050  11.839  13.327
26543W        W87832  21.229  44.391  13.390
26544W        W87833  27.624   0.414  13.010
26545W        W87834  33.992  10.297   1.836
26546W        W87835  24.116  20.573  11.935
26547W        W87836  27.660  42.958   2.746
26548W        W87837  21.717  21.523  12.888
26549W        W87838  34.458  41.340   2.338
26550W        W87839  42.282  25.692  13.042
26551W        W87840  37.337  25.691  13.379
26552W        W87841  17.228  24.080   0.354
26553W        W87842  43.311  21.593  13.823
26554W        W87843  15.089  30.623  12.403
26555W        W87844  21.024  13.721  11.610
26556W        W87845  19.726  37.516  11.947
26557W        W87846  40.906  11.814  14.287
26558W        W87847  42.981  25.048  14.018
26559W        W87848  41.367  39.528  12.465
26560W        W87849   5.285   3.811  14.433
26561W        W87850  11.631  10.766   0.911
26562W        W87851  16.209  27.598   2.253
26563W        W87852   3.809  19.699  10.618
26564W        W87853  12.331  24.487  11.508
26565W        W87854  30.096  15.738   1.918
26566W        W87855   1.895  37.539   4.252
26567W        W87856  35.905   7.365  12.901
26568W        W87857  12.288   8.725   2.806
26569W        W87858   4.448  33.066  14.322
26570W        W87859   3.415  34.062   0.441
26571W        W87860  21.682  17.591   0.834
26572W        W87861  12.616  21.561   0.762
26573W        W87862   5.228  36.012   1.864
26574W        W87863  24.676  13.252  12.435
26575W        W87864  44.822  24.520   4.776
26576W        W87865  19.559  22.082   2.327
26577W        W87866  32.009  31.577   0.869
26578W        W87867  13.685  33.420   0.304
26579W        W87868   3.387  17.799  11.015
26580W        W87869  15.747  13.736  10.578
26581W        W87870  12.119  35.392   0.393
26582W        W87871  39.437  36.396  14.418
26583W        W87872  38.532  26.623  12.382
26584W        W87873   0.463  35.358   3.750
26585W        W87874   0.374  13.255   3.312
26586W        W87875   5.753  34.381   3.862
26587W        W87876  21.673  35.956  13.791
26588W        W87877  11.212   4.754  11.412
26589W        W87878  36.894  26.542  14.312
26590W        W87879  18.162  20.594   1.332
26591W        W87880   4.428  28.140   1.214
26592W        W87881  25.007   2.431  11.446
26593W        W87882  43.809   1.467   3.662
26594W        W87883  26.688  37.354  11.419
26595W        W87884  36.898  35.427  12.888
26596W        W87885  44.902  31.421  13.427
26597W        W87886  20.570  16.686   2.665
26598W        W87887   6.228  21.518  12.028
26599W        W87888   2.771  26.130  13.856
26600W        W87889  27.163   7.759   5.626
26601W        W87890   6.764  10.723   1.810
26602W        W87891   3.883  42.416  11.007
26603W        W87892  16.180  13.115   3.364
26604W        W87893  37.830   2.781   2.688
26605W        W87894  31.463  44.906   1.766
26606W        W87895  16.170  29.581   3.740
26607W        W87896  29.448  31.046  12.579
26608W        W87897  16.196  32.065  14.031
26609W        W87898  25.174  37.841  14.990
26610W        W87899  11.198   8.209   3.260
26611W        W87900   7.177  10.149  12.351
26612W        W87901  16.178  23.537   5.668
26613W        W87902  10.362  12.803   3.307
26614W        W87903  40.492  44.827  14.869
26615W        W87904  19.729   4.219  12.926
26616W        W87905  36.398   7.822  14.807
26617W        W87906   0.965  31.084   1.418
26618W        W87907   4.923  17.176   0.282
26619W        W87908   9.270  25.589  10.541
26620W        W87909  29.646  25.700   2.874
26621W        W87910  26.616  14.220   1.771
26622W        W87911  20.070  33.415   4.215
26623W        W87912  23.733  27.449   0.741
26624W        W87913  31.145   4.325   9.949
26625W        W87914  30.480  41.834   1.748
26626W        W87915  28.469  42.953  14.347
26627W        W87916  38.335  30.546   0.937
26628W        W87917  35.029   7.272  10.127
26629W        W87918  33.624  13.316   2.680
26630W        W87919  37.582  31.974   5.119
26631W        W87920  27.088  37.431   0.339
26632W        W87921   9.335  20.664   0.452
26633W        W87922  11.319  23.642   4.332
26634W        W87923  10.664  35.514   3.805
26635W        W87924  18.582   6.422   0.821
26636W        W87925  10.239  42.527   0.350
26637W        W87926  20.760  10.642   0.926
26638W        W87927  23.022  24.160   0.761
26639W        W87928  28.973  32.101  11.047
26640W        W87929  41.454  19.099  12.022
26641W        W87930   9.657   8.830   4.196
26642W        W87931  33.980   4.313   1.256
26643W        W87932  37.487  39.036  11.055
26644W        W87933   1.266  20.636  11.125
26645W        W87934  33.510   7.764   4.812
26646W        W87935   4.883   3.833  14.392
26647W        W87936  35.995  42.836   3.318
26648W        W87937  10.272   0.251  11.120
26649W        W87938  10.770  29.549   1.304
26650W        W87939  29.098  18.577   2.685
26651W        W87940   9.175  37.527   4.684
26652W        W87941   7.334  30.655  14.495
26653W        W87942  14.143  14.797   0.854
26654W        W87943   8.397   8.384   3.282
26655W        W87944   2.450  43.888  13.366
26656W        W87945  18.282  37.504  13.398
26657W        W87946   5.241  23.612  12.345
26658W        W87947  28.143  24.011  13.947
26659W        W87948  31.471  40.932   0.269
26660W        W87949  34.509   1.302  14.842
26661W        W87950  36.478   8.767  14.987
26662W        W87951   5.205  17.561  14.322
26663W        W87952  39.029  25.582   0.942
26664W        W87953   5.385  14.126  14.393
26665W        W87954  39.886  18.206   0.420
26666W        W87955   1.363  34.581   1.394
26667W        W87956  44.879  42.802  13.539
26668W        W87957   2.727   6.728   2.317
26669W        W87958   2.357  44.846   0.333
26670W        W87959  26.566   4.777   1.919
26671W        W87960  21.633  16.739   2.758
26672W        W87961  23.533  27.683   2.739
26673W        W87962  18.090  16.108   0.728
26674W        W87963   7.330  39.969  12.942
26675W        W87964  33.557  24.155   0.851
26676W        W87965  21.211  28.667  12.069
26677W        W87966  44.323  19.221   3.294
26678W        W87967  35.103  33.386  13.038
26679W        W87968   4.801  16.712   2.339
26680W        W87969  34.448  34.990  14.438
26681W        W87970   3.284  28.486   4.654
26682W        W87971  33.516   4.809  10.530
26683W        W87972  32.014  36.370  10.442
26684W        W87973  11.681  28.041  14.312
26685W        W87974  22.707  18.609   4.266
26686W        W87975  36.046  30.496  14.856
26687W        W87976  16.230   7.293   3.677
26688W        W87977  38.370  36.421   2.861
26689W        W87978   4.247  25.987   2.188
26690W        W87979  31.593  25.518  13.974
26691W        W87980   4.940  19.775   0.449
26692W        W87981  33.054  41.513   3.743
26693W        W87982  27.585  23.633   3.673
26694W        W87983  33.104   3.340  12.555
26695W        W87984  19.245  40.441  12.491
26696W        W87985  44.818  37.877  12.452
26697W        W87986  15.684   7.297   1.743
26698W        W87987  42.482   6.319   1.366
26699W        W87988   4.842   3.732   0.319
26700W        W87989  18.213   1.472   0.396
26701W        W87990  35.982  21.679  13.902
26702W        W87991  32.936  41.299  13.886
26703W        W87992  14.699   3.817  11.607
26704W        W87993  38.072  40.870  11.020
26705W        W87994  38.059   7.689   3.713
26706W        W87995  16.199  24.059  13.838
26707W        W87996  25.503   6.271  10.611
26708W        W87997  15.593  37.543   0.421
26709W        W87998   6.338  18.750   2.779
26710W        W87999  28.011  14.665  13.806
26711W        W88000  32.118   0.898   1.732
26712W        W88001   5.778   6.391  12.927
26713W        W88002   9.175  34.924  11.400
26714W        W88003  35.103  44.337   2.867
26715W        W88004  19.614  30.123   3.743
26716W        W88005  31.451  38.404  13.905
26717W        W88006  41.004  30.014   4.663
26718W        W88007  37.037  18.723  14.971
26719W        W88008  34.080  44.355  14.981
26720W        W88009  32.983   6.324  12.066
26721W        W88010  33.064  18.546   4.820
26722W        W88011  28.138  23.147  11.112
26723W        W88012  23.108  29.148   4.600
26724W        W88013  17.606   8.883   0.379
26725W        W88014  35.070   9.211  13.490
26726W        W88015  14.330  31.936   0.247
26727W        W88016  21.042  41.828  14.866
26728W        W88017  42.021  35.940  13.368
26729W        W88018  41.988  31.142  11.863
26730W        W88019  27.515  11.659   1.360
26731W        W88020   1.362  35.918   0.777
26732W        W88021  20.095   6.265   2.318
26733W        W88022  44.298   7.723   4.664
26734W        W88023  30.961  22.048   3.367
26735W        W88024  36.397   5.834  11.974
26736W        W88025   6.295  40.375  11.876
26737W        W88026   1.271  35.873   2.878
26738W        W88027  17.744  33.912  13.054
26739W        W88028  24.644  25.069   2.671
26740W        W88029   8.363  37.037   2.794
26741W        W88030  26.571  29.623  11.486
26742W        W88031  30.554  25.670   3.718
26743W        W88032  10.273   5.842   2.203
26744W        W88033  28.468  43.419  12.387
26745W        W88034  43.456  32.498  14.490
26746W        W88035  27.051  37.889   3.361
26747W        W88036  11.647  31.506  11.030
26748W        W88037  22.190   3.334  11.027
26749W        W88038   2.871  37.561   0.823
26750W        W88039  32.986  29.567   1.338
26751W        W88040   3.905  13.106   0.362
26752W        W88041   8.797  42.832  10.507
26753W        W88042   6.777   1.866  12.533
26754W        W88043  41.344  13.639   0.468
26755W        W88044  35.388  32.895  12.915
26756W        W88045   7.384  28.044   0.763
26757W        W88046  17.663  34.504  12.461
26758W        W88047   5.752  13.199  13.925
26759W        W88048  27.959  37.436   4.690
26760W        W88049  23.694  40.837  11.044
26761W        W88050  30.013  27.104  12.945
26762W        W88051  12.325  24.020   2.843
26763W        W88052  42.780  14.175  11.564
26764W        W88053  34.979  25.657   0.341
26765W        W88054  16.775  22.553   1.276
26766W        W88055  29.483  24.197   2.813
26767W        W88056  27.454   8.189  12.573
26768W        W88057  12.719   2.852   2.190
26769W        W88058   4.235  25.053   4.770
26770W        W88059  39.851  33.122   2.300
26771W        W88060   5.761  40.523   1.926
26772W        W88061  34.500  34.928  13.814
26773W        W88062   4.913  34.015  10.929
26774W        W88063  16.804  11.847   4.729
26775W        W88064   7.900   2.468   2.861
26776W        W88065  43.477  28.978   4.693
26777W        W88066  10.253  28.467  11.607
26778W        W88067  16.254  35.873  13.997
26779W        W88068  42.965  11.675   3.345
26780W        W88069  17.705  16.193   4.320
26781W        W88070  26.486  43.961   3.631
26782W        W88071  39.915   2.882   2.265
26783W        W88072  11.127  32.986   0.954
26784W        W88073  37.929   5.865  11.896
26785W        W88074  42.862  32.015   1.825
26786W        W88075   3.269  42.883  13.946
26787W        W88076   6.778  34.597  14.327
26788W        W88077   7.315  30.047  13.449
26789W        W88078  12.825  35.984   1.911
26790W        W88079  22.241  37.505   2.391
26791W        W88080  12.622   2.961  11.458
26792W        W88081  18.206  24.724  11.958
26793W        W88082   7.348  32.480  14.374
26794W        W88083  31.487  26.458  12.994
26795W        W88084  20.177  21.162   4.616
26796W        W88085  35.374  39.398   4.207
26797W        W88086   7.335  40.426  11.551
26798W        W88087  43.841  43.294   3.357
26799W        W88088  20.530   5.913  14.767
26800W        W88089   6.786  15.633   3.746
26801W        W88090  17.694  37.868  14.022
26802W        W88091   6.856   3.292   5.176
26803W        W88092   8.229   8.901   0.396
26804W        W88093  35.413  23.601  11.516
26805W        W88094  25.994  33.512   1.424
26806W        W88095  18.227   0.492  14.947
26807W        W88096  14.616  21.743   3.841
26808W        W88097  28.630  41.494   3.267
26809W        W88098  28.142  24.142   1.440
26810W        W88099   3.305  39.473   1.796
26811W        W88100  29.999  29.564   2.204
26812W        W88101  16.657   1.967  11.888
26813W        W88102  33.891  19.056   4.795
26814W        W88103  17.566  13.618  12.953
26815W        W88104  16.648  11.296   2.763
26816W        W88105  27.445   1.274  11.077
26817W        W88106   4.914  26.457   2.202
26818W        W88107  26.199   4.324   1.443
26819W        W88108   9.777  17.608  10.972
26820W        W88109  32.980  39.890   2.197
26821W        W88110  30.496  29.130  12.563
26822W        W88111  37.988   3.228   0.864
26823W        W88112  35.364  28.035   2.790
26824W        W88113  15.277   5.689   1.226
26825W        W88114  28.064  33.495   0.457
26826W        W88115  39.837  22.506  10.574
26827W        W88116  30.645   2.721   1.248
26828W        W88117   8.712  15.251   3.671
26829W        W88118  39.338  18.276   0.828
26830W        W88119  11.190   2.902  14.899
26831W        W88120  39.534  22.048   0.823
26832W        W88121  43.328  24.196  10.416
26833W        W88122   0.767  40.468   3.851
26834W        W88123  14.306  18.773  11.499
26835W        W88124  43.470   4.339   1.838
26836W        W88125  41.390  11.724   1.258
26837W        W88126  15.604  36.479   5.270
26838W        W88127  19.044  23.576   4.275
26839W        W88128  12.820  10.722   3.727
26840W        W88129  18.240  29.128  11.891
26841W        W88130  39.424  20.602  11.603
26842W        W88131  21.183  40.517  10.466
26843W        W88132   4.206  37.871  12.061
26844W        W88133  14.680  43.325   4.139
26845W        W88134  43.351   9.170   2.804
26846W        W88135  15.697  11.741   0.902
26847W        W88136   7.369  25.076   3.787
26848W        W88137   9.786  34.585   0.445
26849W        W88138  14.668  26.614   3.855
26850W        W88139  25.565  26.684   3.857
26851W        W88140  34.510  40.862   3.729
26852W        W88141  16.705  33.453  12.848
26853W        W88142   0.788   9.683   3.221
26854W        W88143  30.100  35.880   2.199
26855W        W88144  15.723  43.300  11.453
26856W        W88145  16.291  40.533   1.317
26857W        W88146  20.248  22.615   3.729
26858W        W88147   3.948  22.565  11.088
26859W        W88148  14.134  23.683  14.909
26860W        W88149   4.366  18.726   1.265
26861W        W88150  11.259   7.684   4.654
26862W        W88151  22.065   5.274   0.870
26863W        W88152  35.512  43.774   1.269
26864W        W88153  26.494  22.085  12.501
26865W        W88154  27.512  42.501   1.842
26866W        W88155  10.238   1.952  14.413
26867W        W88156  14.299   0.417   1.825
26868W        W88157  38.391  31.600   4.655
26869W        W88158   7.275  15.142   4.750
26870W        W88159   9.211  12.257   3.194
26871W        W88160  41.892  40.992   3.159
26872W        W88161  37.003   9.198   2.830
26873W        W88162  34.008   6.206  12.838
26874W        W88163  17.142  42.351   3.734
26875W        W88164  20.633  41.958  10.545
26876W        W88165  32.950  28.466   3.279
26877W        W88166  11.327   3.738   3.147
26878W        W88167  35.525  31.965  12.869
26879W        W88168  19.125  18.656  11.037
26880W        W88169  38.011  13.681   4.154
26881W        W88170  41.993  18.583  12.558
26882W        W88171   5.198   2.226  12.915
26883W        W88172  40.954   5.880  11.397
26884W        W88173  44.307  24.004   3.250
26885W        W88174   4.799  13.212   3.147
26886W        W88175  17.095   9.198  12.001
26887W        W88176  17.615  19.224   3.166
26888W        W88177  33.928  41.792  14.856
26889W        W88178  27.955  20.648  14.376
26890W        W88179  32.065  16.578  13.396
26891W        W88180  11.851  19.079   2.679
26892W        W88181   3.824  34.076  13.937
26893W        W88182   2.871  28.168  12.865
26894W        W88183   6.389  24.650   2.821
26895W        W88184  26.039  23.712   4.209
26896W        W88185   3.217   9.662   1.926
26897W        W88186  25.688  39.896  13.528
26898W        W88187  35.099  40.461   0.790
26899W        W88188  38.432  42.525   2.661
26900W        W88189  29.162  42.420   3.809
26901W        W88190  42.449   6.692   0.331
26902W        W88191   9.880   8.880  13.917
26903W        W88192  33.064  15.326  10.993
26904W        W88193  41.473  36.977   0.788
26905W        W88194  13.611  44.973   2.331
26906W        W88195  32.094  21.081   2.900
26907W        W88196  36.418  24.532  11.913
26908W        W88197   5.733  43.492   2.397
26909W        W88198  27.643  19.281   0.877
26910W        W88199  15.101  22.074   1.860
26911W        W88200  16.080  27.191   4.800
26912W        W88201   8.169  33.075   3.774
26913W        W88202  28.036   5.297  12.038
26914W        W88203   5.332  38.380   2.901
26915W        W88204  25.153  27.477  11.982
26916W        W88205   8.304  29.166   0.418
26917W        W88206  30.969  22.538   4.777
26918W        W88207   9.688  23.203  12.905
26919W        W88208  40.883   9.674  10.945
26920W        W88209  35.521   2.317  13.346
26921W        W88210  34.927  41.444  13.464
26922W        W88211  41.831  14.759   1.771
26923W        W88212   6.243   2.444  13.042
26924W        W88213  29.154  35.978  10.893
26925W        W88214  38.029  10.295  14.483
26926W        W88215   0.269  17.267  12.573
26927W        W88216   1.413  39.061  12.047
26928W        W88217  14.606  27.527   2.704
26929W        W88218  43.362  35.993   2.294
26930W        W88219  39.339  18.791  13.505
26931W        W88220  44.821  34.507   4.623
26932W        W88221  41.406  30.973  11.886
26933W        W88222  37.972  21.520   3.725
26934W        W88223  35.567  23.639  12.929
26935W        W88224  28.962   9.760  10.624
26936W        W88225  25.049  10.320   0.771
26937W        W88226   6.183  18.168  13.028
26938W        W88227  43.811  17.242  10.947
26939W        W88228   9.811  15.748   3.385
26940W        W88229  13.340  28.596  10.961
26941W        W88230   6.398  16.767  14.009
26942W        W88231  28.653  10.716   3.714
26943W        W88232   4.286  34.567   1.770
26944W        W88233  43.942  24.009   1.227
26945W        W88234   3.292   7.359  10.641
26946W        W88235  25.481  20.547  10.618
26947W        W88236  37.936  23.192   0.928
26948W        W88237   7.907  40.051   0.305
26949W        W88238  27.681   6.340  10.493
26950W        W88239  12.654  34.461  14.280
26951W        W88240   7.789   4.748   1.235
26952W        W88241   0.449  43.969   4.730
26953W        W88242  22.598  13.140   0.859
26954W        W88243   2.839  20.063  12.959
26955W        W88244  35.420  22.576  10.608
26956W        W88245   2.353  28.087  12.909
26957W        W88246  25.076  31.522   3.768
26958W        W88247  13.747  12.357   2.691
26959W        W88248   3.253   8.221  11.396
26960W        W88249  40.538  10.739   3.775
26961W        W88250   0.340  25.032  12.504
26962W        W88251  28.448  44.005   3.715
26963W        W88252  38.527   8.230   1.258
26964W        W88253  39.366   2.956   3.653
26965W        W88254  10.177  33.045  14.918
26966W        W88255  44.278  41.529   4.269
26967W        W88256  24.529  30.484   0.480
26968W        W88257  21.248  15.195   4.730
26969W        W88258  21.108   3.917  14.955
26970W        W88259  41.317  40.312  12.579
26971W        W88260  16.788   0.305  13.457
26972W        W88261  18.248  38.346   2.402
26973W        W88262  38.411  32.556   3.709
26974W        W88263  16.167  20.754  14.810
26975W        W88264  13.173   2.438  14.315
26976W        W88265  35.458  24.020   1.251
26977W        W88266  13.818  44.421  12.931
26978W        W88267  21.253   8.785   2.344
26979W        W88268  18.055  19.218   2.336
26980W        W88269   4.741  42.356  10.543
26981W        W88270  44.342  28.664  14.403
26982W        W88271  37.460  44.825  11.877
26983W        W88272  44.373   0.269   4.725
26984W        W88273  23.524  37.344   4.269
26985W        W88274  24.072   8.328  11.865
26986W        W88275  23.657  27.474  11.517
26987W        W88276  24.041  19.195  10.617
26988W        W88277  24.606  30.624   3.179
26989W        W88278  24.192  21.158   0.813
26990W        W88279   0.853   3.713  12.035
26991W        W88280   7.675   5.879  13.934
26992W        W88281  30.960  36.937  11.873
26993W        W88282   4.722  21.057   0.921
26994W        W88283  32.522  12.149  12.889
26995W        W88284  13.349  35.899  11.985
26996W        W88285  24.723  28.520   1.313
26997W        W88286   4.333  34.394   2.234
26998W        W88287  39.834  39.908   1.884
26999W        W88288  44.775   9.253   2.222
27000W        W88289  34.590  14.272   4.656
27001W        W88290  40.918   8.398  13.898
27002W        W88291  11.760  11.822   1.378
27003W        W88292   0.953  35.092  12.874
27004W        W88293  11.761  29.497   1.342
27005W        W88294   7.336   7.709  13.037
27006W        W88295   0.399   2.332  13.822
27007W        W88296  25.105  40.396  11.409
27008W        W88297  27.981   0.348  14.817
27009W        W88298   6.836  25.214   4.706
27010W        W88299  20.260  18.170   1.436
27011W        W88300  11.648  27.553   4.735
27012W        W88301  42.914  31.427  12.038
27013W        W88302  26.551  43.822   4.664
27014W        W88303  26.100  15.584   2.808
27015W        W88304   2.285  34.473  14.435
27016W        W88305  37.903  25.134  12.018
27017W        W88306  23.509  14.311  11.404
27018W        W88307  40.813  38.861  11.400
27019W        W88308   7.771  43.931  11.612
27020W        W88309  30.492  36.563   4.296
27021W        W88310  35.874  43.950  12.872
27022W        W88311  20.597   9.768   0.924
27023W        W88312  37.383   9.742   1.804
27024W        W88313  43.507   4.243  14.972
27025W        W88314  12.311  44.996   1.432
27026W        W88315   9.773  37.897   4.755
27027W        W88316   4.365  40.442   2.308
27028W        W88317  29.100  19.051   2.718
27029W        W88318  20.228  18.753  12.960
27030W        W88319  35.422  39.528   3.314
27031W        W88320  28.072   3.233  12.031
27032W        W88321  18.598   4.313  11.505
27033W        W88322  15.819  16.774   0.312
27034W        W88323   6.370  29.063   4.219
27035W        W88324  19.666  31.127  11.970
27036W        W88325   2.287  27.969   3.837
27037W        W88326  13.611  38.564   0.445
27038W        W88327  40.336   6.725  14.513
27039W        W88328   0.367  32.085  11.856
27040W        W88329  42.351  44.830  13.446
27041W        W88330   5.282  10.300  10.593
27042W        W88331  33.501  15.241   4.778
27043W        W88332   6.825   0.401   4.634
27044W        W88333  36.475  12.654  13.535
27045W        W88334   5.781  22.011   3.848
27046W        W88335   1.879  22.707   4.226
27047W        W88336  24.512  36.925  14.435
27048W        W88337  30.646  34.975   4.752
27049W        W88338  30.592  12.218   4.670
27050W        W88339  39.917  40.425   4.205
27051W        W88340  11.161  15.579   4.317
27052W        W88341  29.085   8.256   3.711
27053W        W88342  41.393   0.314  10.451
27054W        W88343   1.409  36.006  11.900
27055W        W88344  39.063   6.725   0.408
27056W        W88345  42.928  10.341  11.051
27057W        W88346  32.046  10.292   5.300
27058W        W88347  35.896   7.721   4.175
27059W        W88348  33.112   1.468   4.735
27060W        W88349  32.922  22.684   2.343
27061W        W88350  13.757  32.571   3.383
27062W        W88351  10.230  24.578   3.641
27063W        W88352  27.621   4.798  12.072
27064W        W88353  43.801   2.840  13.521
27065W        W88354   0.953  19.638   5.253
27066W        W88355  31.092  38.960   3.381
27067W        W88356  34.947  22.608   2.790
27068W        W88357  31.405  30.479  14.436
27069W        W88358  33.993   0.907  11.392
27070W        W88359  28.151  10.697  11.580
27071W        W88360   6.375   1.242  12.389
27072W        W88361  21.631  18.564   4.806
27073W        W88362  26.042  22.072   1.256
27074W        W88363   6.794  42.802   4.708
27075W        W88364   9.331   9.278  12.484
27076W        W88365  24.183  44.343  11.988
27077W        W88366  43.307  22.082  13.026
27078W        W88367  15.274  32.422   3.236
27079W        W88368  34.538  32.433   3.670
27080W        W88369  14.316  28.473   3.788
27081W        W88370  35.384   4.802  11.470
27082W        W88371  24.227  34.552  12.828
27083W        W88372  36.043   1.845  12.530
27084W        W88373  24.977  41.872   4.313
27085W        W88374  10.276   5.731   1.218
27086W        W88375  44.828  38.337   3.362
27087W        W88376   4.250  19.178   0.861
27088W        W88377   9.181   0.384   2.683
27089W        W88378  21.620  44.833  13.009
27090W        W88379  32.889  33.082   2.783
27091W        W88380   8.258  32.033   2.805
27092W        W88381  35.087  29.460   3.709
27093W        W88382   7.688  10.847   1.747
27094W        W88383   8.404  12.683   3.226
27095W        W88384  38.064  23.500   4.746
27096W        W88385  43.422  35.393   4.314
27097W        W88386   5.850   2.813  10.899
27098W        W88387  40.549   6.287   0.940
27099W        W88388  35.902  28.492   4.293
27100W        W88389  41.843   0.486   9.939
27101W        W88390   6.298   7.341   3.176
27102W        W88391   7.208  27.533  10.412
27103W        W88392  15.314  40.886   4.228
27104W        W88393  12.709   5.269   4.273
27105W        W88394  37.460  24.593  14.023
27106W        W88395  26.192  39.450  10.441
27107W        W88396  27.005  18.223   0.942
27108W        W88397  20.077  27.995  11.050
27109W        W88398  35.604   6.210  13.981
27110W        W88399  23.095   6.760  11.926
27111W        W88400  13.320  24.987  14.498
27112W        W88401  28.467  32.589   3.847
27113W        W88402   5.414  42.931  13.841
27114W        W88403   4.426  29.072   3.646
27115W        W88404  19.071  30.528   4.660
27116W        W88405  21.534  26.986  12.448
27117W        W88406  41.786   6.230   0.916
27118W        W88407  10.332  16.226  13.462
27119W        W88408  42.901  30.605  14.997
27120W        W88409   8.712  10.196   3.264
27121W        W88410  35.476  26.641  10.954
27122W        W88411  18.094  42.940  12.388
27123W        W88412  29.988  38.415   2.401
27124W        W88413  34.474   2.795   0.287
27125W        W88414  40.457  14.120   0.420
27126W        W88415  43.923   6.366   4.226
27127W        W88416  25.708   2.926   1.247
27128W        W88417   3.257  41.942   3.362
27129W        W88418   8.269  28.010  14.444
27130W        W88419  34.980  34.520  13.908
27131W        W88420  18.067  20.041  12.927
27132W        W88421  42.352  38.840  12.418
27133W        W88422  12.720  28.522  11.856
27134W        W88423   4.221  13.202   2.200
27135W        W88424  12.799  28.625   4.135
27136W        W88425  35.050  25.495   2.850
27137W        W88426  29.668  17.676   1.211
27138W        W88427  31.912  30.992   2.229
27139W        W88428  39.950  37.367  11.990
27140W        W88429  37.955  12.789   3.286
27141W        W88430  43.864   1.846   0.880
27142W        W88431  17.762  43.463   4.771
27143W        W88432   2.233  23.171  11.438
27144W        W88433  29.472  12.670  11.569
27145W        W88434   8.265  27.488   2.234
27146W        W88435  40.803  34.053   0.787
27147W        W88436  36.400  42.283   1.404
27148W        W88437   8.807  40.861   4.295
27149W        W88438  43.408   7.289   3.667
27150W        W88439  15.224  32.066  14.885
27151W        W88440  41.918  26.701   4.704
27152W        W88441  37.430  32.541  10.435
27153W        W88442  13.686  28.577   2.253
27154W        W88443   0.441  30.055   0.741
27155W        W88444  15.769  31.123  12.370
27156W        W88445  41.013  12.347   4.646
27157W        W88446  41.520  26.953   1.822
27158W        W88447   3.866  14.162   4.699
27159W        W88448  12.129  32.558  11.404
27160W        W88449  34.377   7.692  12.580
27161W        W88450  37.502  29.943  13.501
27162W        W88451  38.989  38.567  13.476
27163W        W88452  29.088  34.955  13.014
27164W        W88453  31.605   9.161   0.457
27165W        W88454   9.854  14.774   1.933
27166W        W88455  30.102  40.305  12.569
27167W        W88456  28.037  36.536   2.664
27168W        W88457   5.323   1.814   4.257
27169W        W88458   7.253   4.224  10.990
27170W        W88459  26.492  26.491  14.966
27171W        W88460  32.482  33.551   2.711
27172W        W88461  11.853   8.367  12.462
27173W        W88462  42.451  34.528   3.829
27174W        W88463  39.817   8.767  11.931
27175W        W88464   0.840  36.852   0.726
27176W        W88465  35.876   8.244  10.987
27177W        W88466  29.660  23.683  12.025
27178W        W88467  39.975  23.674   1.443
27179W        W88468  42.917   8.687   2.694
27180W        W88469  39.025  38.031   0.925
27181W        W88470  19.268  26.117  10.962
27182W        W88471   7.846  30.008  14.874
27183W        W88472  25.479   3.271   4.703
27184W        W88473  32.584  13.675   3.155
27185W        W88474  19.197   6.831   3.207
27186W        W88475  37.871  16.309  10.462
27187W        W88476  24.191  35.872   2.224
27188W        W88477  18.193  21.556  11.012
27189W        W88478  40.991  42.427   1.904
27190W        W88479  28.604  21.581  12.033
27191W        W88480  17.242  25.617  12.500
27192W        W88481  29.027  30.954  12.393
27193W        W88482  17.159   5.925   4.681
27194W        W88483  35.501  10.789   2.339
27195W        W88484   9.876  37.902  14.366
27196W        W88485   1.241  15.727  13.050
27197W        W88486  26.479  10.729   1.223
27198W        W88487  17.649   9.756  10.507
27199W        W88488  39.445  12.660  13.004
27200W        W88489  39.524  27.160  13.543
27201W        W88490  16.138  18.678  14.802
27202W        W88491  35.437   0.407  13.913
27203W        W88492  30.656  37.340   1.261
27204W        W88493  27.122  29.063   3.681
27205W        W88494   5.910   9.304   2.856
27206W        W88495  22.533   4.732  12.404
27207W        W88496   3.730  40.530   1.321
27208W        W88497  34.470  40.054   4.698
27209W        W88498   7.853  42.491   1.218
27210W        W88499  17.763  21.025   1.809
27211W        W88500   7.365   7.254  11.411
27212W        W88501  25.702  29.606  12.058
27213W        W88502  18.766   5.764   1.274
27214W        W88503  15.682  30.163   4.610
27215W        W88504  31.147  11.695   2.267
27216W        W88505  13.788  17.071  11.590
27217W        W88506   0.772   9.270  10.617
27218W        W88507   4.807   1.806  14.319
27219W        W88508  10.647  39.536   4.663
27220W        W88509  30.007  30.443  14.366
27221W        W88510  36.394  43.455  13.382
27222W        W88511   4.840  11.867   4.628
27223W        W88512  36.060  38.379  12.033
27224W        W88513  26.527  29.088   1.299
27225W        W88514   7.835   1.851   3.682
27226W        W88515  24.093  23.512   4.217
27227W        W88516  16.631  21.085   1.400
27228W        W88517  42.976  28.579  10.617
27229W        W88518   3.904  18.117   2.369
27230W        W88519  33.904   5.874  13.867
27231W        W88520  17.178  19.085  14.429
27232W        W88521  24.120  42.452   4.691
27233W        W88522  39.808  22.634  13.062
27234W        W88523  17.788  24.588  10.604
27235W        W88524  15.824  24.484   4.698
27236W        W88525  16.717  15.685  11.861
27237W        W88526  41.000  28.148  12.960
27238W        W88527  36.855  19.231  11.896
27239W        W88528  36.863  35.926  11.858
27240W        W88529   0.473  14.301  14.850
27241W        W88530  18.716  11.746  11.406
27242W        W88531  40.484   8.214  12.074
27243W        W88532  29.933  26.480  10.522
27244W        W88533  11.668  22.624  13.938
27245W        W88534  23.720  25.060  11.527
27246W        W88535  15.164  16.203  14.792
27247W        W88536  42.786  20.101  11.022
27248W        W88537  14.819  33.039   4.351
27249W        W88538  21.169   2.468   3.241
27250W        W88539   7.324  24.611   1.786
27251W        W88540  30.416  24.122  11.555
27252W        W88541  35.392  32.590   3.774
27253W        W88542   1.850  18.176   3.646
27254W        W88543  20.531  28.067  13.843
27255W        W88544  36.430  17.206  13.045
27256W        W88545  17.679  43.479   0.809
27257W        W88546   7.180  34.453  12.978
27258W        W88547  18.140  17.761  11.045
27259W        W88548  41.332  23.198  13.414
27260W        W88549  12.619  36.049   2.730
27261W        W88550  17.791  38.532  12.488
27262W        W88551  16.086  34.526  14.424
27263W        W88552  37.042  24.089   2.685
27264W        W88553   8.818  13.705  12.341
27265W        W88554   9.762  28.170  13.824
27266W        W88555   8.881  31.415  10.458
27267W        W88556  31.433  24.052  14.370
27268W        W88557  30.072  34.964  12.905
27269W        W88558  33.968  22.505  14.333
27270W        W88559   0.289  23.617  11.064
27271W        W88560  37.853   1.910  13.423
27272W        W88561  21.248  44.349   0.249
27273W        W88562  15.169  25.032  10.944
27274W        W88563  39.318   2.724   4.267
27275W        W88564  30.073  39.884  13.790
27276W        W88565  24.523  27.968  12.979
27277W        W88566   1.294  43.813   4.748
27278W        W88567   7.886   0.404   1.222
27279W        W88568  25.161  32.624   2.751
27280W        W88569   3.252  14.273   3.375
27281W        W88570   3.245  25.705   1.416
27282W        W88571  42.935  42.441  13.345
27283W        W88572  28.538  37.442   0.940
27284W        W88573  35.592  35.976  11.044
27285W        W88574  34.400   5.323  12.977
27286W        W88575  13.604  13.711   4.620
27287W        W88576  26.146  28.663  14.356
27288W        W88577  12.811  17.736   0.914
27289W        W88578   2.921  39.513  12.093
27290W        W88579  25.169   7.253   1.373
27291W        W88580  28.157  26.169   2.243
27292W        W88581  13.155  23.556  10.591
27293W        W88582  27.097   7.385   1.870
27294W        W88583  10.853  19.135  14.419
27295W        W88584  38.944   2.230  13.986
27296W        W88585  28.983  43.292  13.525
27297W        W88586   0.823  17.249   4.789
27298W        W88587  40.449  38.886  10.067
27299W        W88588  25.006  10.719  13.458
27300W        W88589  33.898  36.581  14.892
27301W        W88590  34.028  19.666  10.930
27302W        W88591  42.369   1.748   0.256
27303W        W88592  39.411   3.271  10.560
27304W        W88593  11.746  34.403  12.036
27305W        W88594   3.347   3.902  12.510
27306W        W88595  14.671  24.214   4.684
27307W        W88596  39.867  23.059  14.813
27308W        W88597   1.428  33.485   0.266
27309W        W88598  21.100  32.428  13.837
27310W        W88599  26.144  18.183  11.431
27311W        W88600  10.274  40.840  13.028
27312W        W88601   4.272  10.321  11.583
27313W        W88602  40.832  12.831  13.436
27314W        W88603  12.672  38.529  12.097
27315W        W88604   7.817  24.641   0.792
27316W        W88605  39.345  21.052  10.617
27317W        W88606  15.807  10.207  10.489
27318W        W88607  18.697   1.303  12.345
27319W        W88608  39.513  21.137  13.319
27320W        W88609  25.470  14.168  10.440
27321W        W88610  21.689   7.266   4.758
27322W        W88611   0.443  38.454   1.287
27323W        W88612  22.703   4.907   1.839
27324W        W88613  17.128  25.079  12.953
27325W        W88614  41.513  31.628  12.551
27326W        W88615  10.346  39.444  11.972
27327W        W88616  10.188  37.538  14.824
27328W        W88617   4.317  35.601   2.893
27329W        W88618  25.981  24.486  11.863
27330W        W88619  24.158  15.259  10.953
27331W        W88620  23.588  21.659   5.630
27332W        W88621  20.064  12.627   2.316
27333W        W88622  12.620  11.693   1.439
27334W        W88623  22.600  32.889  12.068
27335W        W88624   3.940   8.830  11.608
27336W        W88625  16.805  23.231   0.782
27337W        W88626   8.198  27.559   3.670
27338W        W88627  34.937   2.951  13.539
27339W        W88628  42.933  21.251   5.129
27340W        W88629  13.212   7.806   1.413
27341W        W88630  21.125  20.568  10.640
27342W        W88631  43.793  11.756   1.442
27343W        W88632  16.117  42.456  11.603
27344W        W88633   6.731   5.300   1.856
27345W        W88634  43.406  44.368   2.902
27346W        W88635  10.301  20.175   2.410
27347W        W88636  44.955  25.201  14.509
27348W        W88637  28.019  43.766  14.405
27349W        W88638  19.152  29.986   2.304
27350W        W88639   9.384  27.187   0.882
27351W        W88640  42.805   8.725   2.369
27352W        W88641  14.763  13.819   4.796
27353W        W88642   7.224  30.516  11.421
27354W        W88643  30.544  41.899  11.101
27355W        W88644  30.439  42.815  13.363
27356W        W88645  10.297   8.814   0.346
27357W        W88646  17.775   4.338   3.690
27358W        W88647   8.871   9.189   2.666
27359W        W88648  28.937  33.381   0.420
27360W        W88649  24.223  19.125  12.991
27361W        W88650  21.172  30.991   4.762
27362W        W88651  37.070  30.926  12.050
27363W        W88652  44.794  31.084  14.827
27364W        W88653  14.754  36.972   0.901
27365W        W88654   2.774  24.678  10.466
27366W        W88655  30.990  43.865   2.338
27367W        W88656  27.591  23.612   2.789
27368W        W88657  12.845   3.834   4.800
27369W        W88658  30.142  12.137  12.574
27370W        W88659  38.332  38.356   0.962
27371W        W88660  17.560  14.651  11.610
27372W        W88661  23.022  42.425   1.737
27373W        W88662   4.414  42.292  13.472
27374W        W88663  15.650   4.368   3.795
27375W        W88664  23.115  40.526  12.398
27376W        W88665  14.592  40.008   0.759
27377W        W88666  29.072  43.809   0.944
27378W        W88667   4.285   8.678   2.885
27379W        W88668  11.856   6.337  13.895
27380W        W88669  10.779  41.417   2.193
27381W        W88670  41.036  21.184   3.639
27382W        W88671  25.511  41.845   2.253
27383W        W88672  10.775   4.842  10.415
27384W        W88673  12.283  39.831   4.123
27385W        W88674  30.940  43.942   3.663
27386W        W88675  32.942  28.452   2.283
27387W        W88676  39.410  25.054  10.543
27388W        W88677   1.457  43.338   2.294
27389W        W88678  12.684  21.725  11.128
27390W        W88679   3.342  24.654   9.940
27391W        W88680  19.619  37.348   3.300
27392W        W88681  41.988   4.880  13.364
27393W        W88682  31.530  26.515  11.002
27394W        W88683  26.962  23.133   4.685
27395W        W88684  17.790  25.512   3.855
27396W        W88685  14.192  33.481  14.940
27397W        W88686  18.770  27.060  10.442
27398W        W88687  10.298  26.473  10.541
27399W        W88688   9.719  10.349  11.524
27400W        W88689  39.052  29.928   4.836
27401W        W88690  13.167  18.077  12.941
27402W        W88691  16.598   9.349  11.037
27403W        W88692   1.245  13.744  12.918
27404W        W88693   7.404  29.632   1.799
27405W        W88694   4.350  33.468  10.529
27406W        W88695  26.508  16.154   4.242
27407W        W88696  33.045  11.143  13.349
27408W        W88697   2.297  16.744  14.844
27409W        W88698  32.547  44.366  14.366
27410W        W88699  34.478  12.295  14.293
27411W        W88700  28.498  10.297  14.030
27412W        W88701   1.920  35.454   3.385
27413W        W88702  33.380  29.033  11.063
27414W        W88703  32.433  35.489  14.878
27415W        W88704   6.378  39.509   0.407
27416W        W88705  29.946   9.873   0.436
27417W        W88706  24.085  24.985   5.197
27418W        W88707  23.089   5.702   3.705
27419W        W88708  41.963  40.384  12.999
27420W        W88709   9.268   6.351   3.327
27421W        W88710  36.893  27.168   0.796
27422W        W88711  29.166  18.284   2.827
27423W        W88712  10.677  10.722   4.235
27424W        W88713  24.164  25.043   2.815
27425W        W88714  44.958  32.513  14.355
27426W        W88715  35.974  21.646   1.283
27427W        W88716  13.316  16.155   0.352
27428W        W88717  24.067   6.350   3.787
27429W        W88718  33.103  23.506  14.824
27430W        W88719  12.211  20.049   2.364
27431W        W88720  33.049   8.184  11.387
27432W        W88721   3.280   8.879   5.255
27433W        W88722  14.146  12.151  13.977
27434W        W88723  20.555  17.229   2.180
27435W        W88724  34.883   5.799   4.684
27436W        W88725   1.757  14.166   0.872
27437W        W88726  43.349   2.849   1.253
27438W        W88727  40.530  13.831  10.429
27439W        W88728  39.507  15.646   0.847
27440W        W88729  36.042   9.846   0.901
27441W        W88730  28.466   0.968   4.838
27442W        W88731  38.568  18.613   0.828
27443W        W88732  21.251  27.687  11.068
27444W        W88733  13.706   1.928  14.970
27445W        W88734   0.796  26.090  10.621
27446W        W88735  43.904  41.020   4.734
27447W        W88736   6.281  44.003  11.057
27448W        W88737  26.208  27.541   0.443
27449W        W88738  37.356  27.560  14.341
27450W        W88739  10.807   4.365   4.830
27451W        W88740   4.255  36.577   0.803
27452W        W88741  11.190  26.116   0.848
27453W        W88742  11.219  29.529   3.753
27454W        W88743  33.976   2.465   0.775
27455W        W88744  44.953  33.066   0.297
27456W        W88745  44.870   2.831  13.045
27457W        W88746  18.238  43.452   2.798
27458W        W88747   8.798   7.353   4.288
27459W        W88748  12.805  37.428  11.020
27460W        W88749  34.034  44.946   3.293
27461W        W88750   1.415  36.902   0.807
27462W        W88751  44.797  37.042  14.974
27463W        W88752  43.904   8.702  14.403
27464W        W88753  11.161  32.476  14.003
27465W        W88754   3.441  34.093   4.341
27466W        W88755  33.957  32.067  11.080
27467W        W88756  33.412  32.101   3.384
27468W        W88757   8.773  29.523  12.830
27469W        W88758  33.878  23.111  10.535
27470W        W88759  18.789  28.084  14.377
27471W        W88760   3.766  30.090  12.889
27472W        W88761   4.840   4.907  14.497
27473W        W88762  13.816  31.622   1.273
27474W        W88763  23.099   2.953   0.908
27475W        W88764  37.520  15.283   2.684
27476W        W88765   7.702  19.705  14.357
27477W        W88766   0.953  44.924   4.188
27478W        W88767  34.413  36.362   1.441
27479W        W88768  31.899  20.559  10.465
27480W        W88769  44.340   9.863  12.928
27481W        W88770  21.640  27.167  11.388
27482W        W88771   0.958  24.603  13.943
27483W        W88772  15.592  11.811   5.318
27484W        W88773  43.949   8.895  11.464
27485W        W88774  16.809  20.732   2.674
27486W        W88775  31.517   6.908  10.983
27487W        W88776  14.104  27.011  14.501
27488W        W88777  30.533  16.607  14.998
27489W        W88778  22.622  12.255  11.884
27490W        W88779  19.686   4.879  13.400
27491W        W88780  13.145   7.242   2.896
27492W        W88781  42.860  39.883  14.959
27493W        W88782   3.713  43.394  14.017
27494W        W88783  36.082  14.290   4.683
27495W        W88784  29.033   3.291  12.444
27496W        W88785  30.634   2.899   0.352
27497W        W88786   0.382  14.798  10.559
27498W        W88787   8.889   6.368  11.868
27499W        W88788  17.649  21.638   9.489
27500W        W88789   9.832  16.619  12.383
27501W        W88790  17.167  39.514  13.391
27502W        W88791  12.137  40.461   0.475
27503W        W88792   0.838  27.046  13.835
27504W        W88793  19.075  33.970  14.011
27505W        W88794  27.618  36.455  14.897
27506W        W88795  30.946  35.538  10.528
27507W        W88796  31.600  35.972   3.640
27508W        W88797  27.099  30.006  11.064
27509W        W88798  35.857  43.491   4.693
27510W        W88799  32.939   8.898  13.956
27511W        W88800  44.394   7.770  14.363
27512W        W88801   2.352  22.691   9.925
27513W        W88802  44.983  21.750  13.002
27514W        W88803   1.842  26.544  10.547
27515W        W88804  29.647  33.600  10.629
27516W        W88805   5.775  38.450   2.294
27517W        W88806  39.887   7.232  11.994
27518W        W88807  31.068  31.116  10.641
27519W        W88808  41.349  16.713   3.834
27520W        W88809  35.599  15.123   1.758
27521W        W88810  37.470  36.077   3.282
27522W        W88811  34.102   8.230  11.382
27523W        W88812  39.556  23.072  14.931
27524W        W88813  30.034  15.145  13.026
27525W        W88814  25.099   6.406   3.242
27526W        W88815  35.993  41.020  14.371
27527W        W88816   5.268   7.292   2.825
27528W        W88817   1.292  12.695   2.370
27529W        W88818  11.769  38.435  10.983
27530W        W88819  23.094  38.513  10.598
27531W        W88820  38.874  38.361  13.880
27532W        W88821  10.194  15.282   4.160
27533W        W88822   6.242  19.717   2.268
27534W        W88823  28.046  15.760  10.427
27535W        W88824  20.047   1.347  10.907
27536W        W88825   7.238  44.930   0.345
27537W        W88826  27.557   2.387  14.368
27538W        W88827   5.295   4.366   1.744
27539W        W88828  26.125  31.515   2.415
27540W        W88829   5.731   4.921   3.358
27541W        W88830  12.741  35.935   0.380
27542W        W88831  11.661  32.447  12.000
27543W        W88832  37.077   5.697   3.814
27544W        W88833   1.799  16.708  14.416
27545W        W88834  44.285  22.605   4.835
27546W        W88835  11.752  24.696   0.273
27547W        W88836  22.526   7.738  14.387
27548W        W88837  16.103  23.072   2.697
27549W        W88838  39.984  31.447  10.942
27550W        W88839  15.658   8.838   0.793
27551W        W88840  10.316  42.987   4.254
27552W        W88841  41.524  30.511   1.727
27553W        W88842  40.519  11.777  13.836
27554W        W88843  16.318  41.979   0.357
27555W        W88844  34.498   6.195   2.665
27556W        W88845  17.295  39.003   4.143
27557W        W88846   5.195  27.619   2.190
27558W        W88847   5.849  30.016  14.807
27559W        W88848  23.505  11.350  12.421
27560W        W88849  34.370  23.720   4.838
27561W        W88850  11.171   9.705   0.335
27562W        W88851  43.003  27.072   0.413
27563W        W88852  30.911   6.841   3.691
27564W        W88853  38.483  38.378   4.698
27565W        W88854  44.433  32.506  14.317
27566W        W88855  19.707  16.583   4.795
27567W        W88856  13.734   9.365   2.792
27568W        W88857  22.133  30.139   0.843
27569W        W88858  14.667  32.547  12.003
27570W        W88859  33.105   7.369  12.399
27571W        W88860  19.230  22.509  10.499
27572W        W88861  37.527  33.416  10.407
27573W        W88862  25.043   8.260   1.778
27574W        W88863  35.417  17.214   5.198
27575W        W88864  24.724  21.526   2.763
27576W        W88865  32.592   6.302  10.952
27577W        W88866  19.225  14.261  14.308
27578W        W88867  30.928  15.629  11.459
27579W        W88868  25.994  38.339  11.021
27580W        W88869   1.368   1.275   4.762
27581W        W88870  12.302  32.919  11.411
27582W        W88871  26.115  34.942  11.404
27583W        W88872   8.802  36.580  14.324
27584W        W88873  30.476  23.224   3.846
27585W        W88874   4.811  31.057   1.281
27586W        W88875  36.353  35.005  14.370
27587W        W88876  27.091   7.849   1.825
27588W        W88877  26.582  16.253   0.785
27589W        W88878  35.856  41.360  13.334
27590W        W88879  44.300   0.965   4.618
27591W        W88880  38.895  10.680   0.778
27592W        W88881  35.599  33.094   2.303
27593W        W88882  27.681   4.396   3.257
27594W        W88883  30.443  35.588  14.828
27595W        W88884  26.123  43.941   1.300
27596W        W88885  38.025  28.483   4.207
27597W        W88886  38.463  33.613  13.312
27598W        W88887  35.418  32.535  13.059
27599W        W88888  35.450  11.248  11.028
27600W        W88889   2.766  24.569   4.823
27601W        W88890  34.387  13.735  13.330
27602W        W88891   1.252  11.144   0.380
27603W        W88892   6.922  26.958   0.754
27604W        W88893   4.911  10.213  11.380
27605W        W88894   0.283  39.813  14.422
27606W        W88895  11.225  21.163  12.925
27607W        W88896  38.884  23.561   3.703
27608W        W88897   3.413  30.494  10.556
27609W        W88898  33.120  42.367  10.992
27610W        W88899  16.635   6.694   0.301
27611W        W88900   4.817  13.827   3.315
27612W        W88901   3.299  26.125  13.542
27613W        W88902  31.402  42.007   2.734
27614W        W88903   7.305  11.170   1.795
27615W        W88904   0.761  30.101  11.542
27616W        W88905  33.890  32.947   1.768
27617W        W88906  17.244  15.234  14.447
27618W        W88907  10.325  24.182   0.757
27619W        W88908  15.314  12.265  12.371
27620W        W88909  18.685   5.385   2.770
27621W        W88910  24.087  36.468  10.914
27622W        W88911  25.598  21.080  14.776
27623W        W88912  17.681  44.480  11.549
27624W        W88913   5.295   0.255  14.964
27625W        W88914  13.164  19.548  11.997
27626W        W88915  21.108  40.006   2.228
27627W        W88916  26.171   9.647  12.047
27628W        W88917   3.282  24.110   2.280
27629W        W88918  33.082  15.808  10.553
27630W        W88919  29.497  43.474  13.488
27631W        W88920  38.882  42.851   4.795
27632W        W88921   1.294   3.247   1.351
27633W        W88922   1.947  25.036   2.316
27634W        W88923  39.044  13.808  14.369
27635W        W88924  38.371  37.879  11.593
27636W        W88925  24.553  44.424   3.223
27637W        W88926  12.321  30.972  11.952
27638W        W88927  29.510  30.643   0.930
27639W        W88928   6.318  33.433  10.927
27640W        W88929  35.897  26.671  11.479
27641W        W88930  28.554  19.102   2.812
27642W        W88931  31.517  33.507  10.999
27643W        W88932  33.115  21.147  10.931
27644W        W88933  32.477  43.972  11.995
27645W        W88934  10.259  32.450  13.038
27646W        W88935  27.532  10.752   9.557
27647W        W88936  13.600  17.270   1.769
27648W        W88937   4.767  40.334  14.483
27649W        W88938   5.708   6.730   2.264
27650W        W88939  27.047   8.198   4.597
27651W        W88940  10.788  31.533  11.101
27652W        W88941  25.996  16.732  11.414
27653W        W88942  43.414   1.400  11.118
27654W        W88943  17.284  19.676  14.763
27655W        W88944  18.586  18.163   3.751
27656W        W88945  36.971  24.996  13.009
27657W        W88946   6.919  44.398  11.000
27658W        W88947  32.072  34.019   4.808
27659W        W88948  40.320  21.159  10.475
27660W        W88949   5.698  44.397  12.488
27661W        W88950  25.125   5.218  11.584
27662W        W88951  28.055  25.170  14.909
27663W        W88952  19.682  37.365  14.359
27664W        W88953  35.389  25.111   2.770
27665W        W88954   9.804  26.112  11.510
27666W        W88955  25.597   0.853   4.203
27667W        W88956   7.308   5.216  12.989
27668W        W88957  35.892  36.036  12.387
27669W        W88958  26.637  26.988   0.441
27670W        W88959  36.503  25.650   3.363
27671W        W88960  16.124  42.370  14.280
27672W        W88961  23.659  13.230  13.917
27673W        W88962   1.951  18.208  13.994
27674W        W88963  38.065  35.939  12.525
27675W        W88964  17.202  17.777   0.455
27676W        W88965  39.926  43.308  11.048
27677W        W88966  42.419  27.579  10.423
27678W        W88967  40.460   4.858   0.276
27679W        W88968  43.970  13.702   3.385
27680W        W88969  10.700   9.172  13.526
27681W        W88970  28.454  33.472   3.869
27682W        W88971  19.608  10.257  13.484
27683W        W88972  28.935  23.602  13.827
27684W        W88973  17.072  29.965   2.239
27685W        W88974  29.504   7.817  10.611
27686W        W88975  21.111  33.995   4.174
27687W        W88976  27.584  21.142  13.376
27688W        W88977  37.864  32.398  14.339
27689W        W88978  12.671   1.441   3.254
27690W        W88979  42.426  19.545   4.836
27691W        W88980  10.176   0.282   0.310
27692W        W88981  30.629  44.366  10.046
27693W        W88982  40.041   8.333  14.781
27694W        W88983  16.247  14.712  11.491
27695W        W88984  24.974  12.684  10.919
27696W        W88985  20.195   1.337  13.333
27697W        W88986  24.596  25.013  12.909
27698W        W88987  15.327   2.731  13.816
27699W        W88988  25.094  14.148   0.961
27700W        W88989  21.589   3.878   1.895
27701W        W88990  13.618   8.898   2.413
27702W        W88991  24.674   7.205   1.401
27703W        W88992  30.932  34.530  14.789
27704W        W88993  13.735   1.395   3.706
27705W        W88994  13.736   9.201  11.916
27706W        W88995   6.369   5.262   0.294
27707W        W88996  32.953  32.052   5.162
27708W        W88997  12.130  27.477  13.796
27709W        W88998  41.410   1.357  10.577
27710W        W88999  24.723   4.909  10.470
27711W        W89000  13.255  19.551   0.320
27712W        W89001  31.899  40.398   3.694
27713W        W89002  34.000  13.684  14.015
27714W        W89003  14.811  16.250  12.920
27715W        W89004   6.363  32.040   4.268
27716W        W89005  39.468  10.315  13.469
27717W        W89006  39.842  17.604   2.718
27718W        W89007   2.349  43.833  13.805
27719W        W89008  13.736  20.250   0.746
27720W        W89009  38.430  34.921   4.703
27721W        W89010  37.900  13.322   0.367
27722W        W89011  14.265  32.418  11.564
27723W        W89012  28.123  29.519   2.378
27724W        W89013  40.416  14.621   2.374
27725W        W89014  30.011  33.131  10.963
27726W        W89015   6.343  38.344  13.920
27727W        W89016  30.962  38.373   1.771
27728W        W89017   1.436  17.257  11.886
27729W        W89018  32.957  20.272  12.987
27730W        W89019  37.879  29.083   1.871
27731W        W89020  37.573  37.855  12.003
27732W        W89021  40.491  14.223  13.940
27733W        W89022  13.746  25.217  11.566
27734W        W89023  34.015  28.028   2.255
27735W        W89024  37.858  20.029   3.224
27736W        W89025  37.060  12.361   2.681
27737W        W89026  31.440   7.255   4.656
27738W        W89027   7.260  32.963   1.426
27739W        W89028  13.266   0.981   2.842
27740W        W89029  18.118   8.860   3.851
27741W        W89030  28.180  40.548  13.977
27742W        W89031  43.287   6.813   3.271
27743W        W89032  15.242  23.707   9.454
27744W        W89033  18.626  29.054   2.315
27745W        W89034   3.901  28.636   4.663
27746W        W89035  28.118  35.094   4.609
27747W        W89036   9.751  29.927  10.158
27748W        W89037   4.733   9.734  13.001
27749W        W89038  22.235  23.147   0.803
27750W        W89039  21.071  32.470   2.345
27751W        W89040  37.067  18.666   0.888
27752W        W89041  10.843   3.816  13.530
27753W        W89042  36.483   6.336  12.519
27754W        W89043  20.570   3.720   1.264
27755W        W89044  34.541  19.041   3.634
27756W        W89045  44.862  36.004   5.209
27757W        W89046  20.265   9.724  12.449
27758W        W89047   6.389   2.300  14.435
27759W        W89048  34.953  29.583  11.451
27760W        W89049  30.427  25.157  13.508
27761W        W89050  12.234   1.358   3.349
27762W        W89051  20.179   0.982  10.494
27763W        W89052  19.613  40.037  11.398
27764W        W89053  27.165  23.493  11.393
27765W        W89054  40.017  31.015   3.316
27766W        W89055  28.146  28.185   5.099
27767W        W89056  20.251  32.082   5.306
27768W        W89057  39.047   8.670   2.326
27769W        W89058  29.577  31.646  13.887
27770W        W89059  39.504   4.384   3.752
27771W        W89060  29.071  28.676  12.948
27772W        W89061  41.930   1.316   1.242
27773W        W89062  27.178   4.433  11.890
27774W        W89063  35.903  10.691   0.402
27775W        W89064  14.290  36.494   0.907
27776W        W89065  34.104   2.394  12.533
27777W        W89066   1.403  38.486   4.243
27778W        W89067  44.998  44.977   1.379
27779W        W89068   5.857   3.310  11.008
27780W        W89069  14.300  36.390   4.729
27781W        W89070  16.643  24.678   3.363
27782W        W89071  20.107  11.783  14.299
27783W        W89072  21.526  42.925   2.721
27784W        W89073   7.380  34.042  11.390
27785W        W89074  14.671  30.952   0.835
27786W        W89075  38.013  29.498  12.883
27787W        W89076  34.994   8.381   2.292
27788W        W89077  10.139   7.688  12.392
27789W        W89078   8.351  41.799  14.025
27790W        W89079   4.925   4.254   4.200
27791W        W89080  34.382  41.313  14.504
27792W        W89081  33.590  32.441   3.687
27793W        W89082  13.299   4.908  14.759
27794W        W89083  41.483  21.134   0.398
27795W        W89084  36.408  12.308  11.543
27796W        W89085  19.603   8.325   2.313
27797W        W89086  13.643  24.055   0.796
27798W        W89087  34.577  38.372   3.839
27799W        W89088  17.200  19.284  10.616
27800W        W89089   8.199  31.112  10.561
27801W        W89090  44.454  12.155  11.454
27802W        W89091  23.556  31.406   0.865
27803W        W89092   6.413  11.829  13.995
27804W        W89093  31.099  23.018  14.356
27805W        W89094  30.498  40.338   1.766
27806W        W89095  36.876  21.669   2.724
27807W        W89096  21.701  18.787  11.893
27808W        W89097  30.519  21.221  12.441
27809W        W89098  27.942  25.184   1.757
27810W        W89099  40.346  39.022   4.236
27811W        W89100   1.907  31.566   3.694
27812W        W89101   1.297   2.317  14.780
27813W        W89102   7.727   9.207   2.353
27814W        W89103  20.091  35.973   1.787
27815W        W89104   0.835   5.252  12.509
27816W        W89105  44.441   6.806   2.666
27817W        W89106  21.572  16.637  13.455
27818W        W89107   4.862  24.221   5.728
27819W        W89108  33.555  12.266   0.255
27820W        W89109  42.022  29.625  14.412
27821W        W89110  39.557  44.947   4.228
27822W        W89111   9.681  39.823   2.780
27823W        W89112  39.852   5.723  10.495
27824W        W89113  20.580  27.543   0.911
27825W        W89114  12.630  16.713  14.383
27826W        W89115   5.766  19.116  11.857
27827W        W89116  25.051  28.008   0.755
27828W        W89117  25.638  11.788  12.358
27829W        W89118  26.192   2.383   4.286
27830W        W89119   9.686   9.664  12.435
27831W        W89120  11.858  24.075  11.117
27832W        W89121   6.775  43.947  12.830
27833W        W89122  44.425  28.462  12.927
27834W        W89123   9.648  37.437   3.241
27835W        W89124   7.252  22.251  12.842
27836W        W89125   5.786  23.565   1.211
27837W        W89126   5.310  18.613  13.791
27838W        W89127  27.672   5.256  13.421
27839W        W89128  30.515  37.083   1.774
27840W        W89129  14.704  32.624  12.516
27841W        W89130  39.917  18.644  11.938
27842W        W89131  34.972  27.535   2.883
27843W        W89132  32.462  39.819  14.353
27844W        W89133  29.169  32.010  13.443
27845W        W89134  20.676  28.934   0.938
27846W        W89135  40.418  21.194   1.363
27847W        W89136  34.073  14.621   2.686
27848W        W89137   5.378  32.413   1.813
27849W        W89138  13.191  42.342  14.032
27850W        W89139  28.010  39.344  10.504
27851W        W89140  35.588  41.295  13.010
27852W        W89141  26.031  15.110  11.507
27853W        W89142  42.322   7.412  14.853
27854W        W89143  25.660  27.969   4.226
27855W        W89144   0.338  24.124   3.281
27856W        W89145  13.234  11.792   5.204
27857W        W89146  11.150  22.578   0.776
27858W        W89147  37.495   8.670  12.406
27859W        W89148  34.481  39.921  13.341
27860W        W89149  21.215  12.355   4.777
27861W        W89150   3.794  23.094  12.431
27862W        W89151  13.702  36.951   1.809
27863W        W89152  24.626   4.790   1.430
27864W        W89153   2.844  20.701  10.637
27865W        W89154   6.280   4.446   2.365
27866W        W89155   6.916  32.525   1.831
27867W        W89156  19.199  37.450  10.611
27868W        W89157  10.247  38.823   2.802
27869W        W89158  33.482  44.262   1.230
27870W        W89159  22.213   6.782  14.829
27871W        W89160  27.102  42.896  10.001
27872W        W89161   6.744  25.473   3.781
27873W        W89162  42.317   5.697  12.975
27874W        W89163  14.589   8.393  12.544
27875W        W89164  21.114  14.618  13.001
27876W        W89165  24.517  26.480  10.622
27877W        W89166  10.297  12.183  12.858
27878W        W89167  16.257   6.269   3.241
27879W        W89168  33.899  33.928  11.518
27880W        W89169  31.921   9.675  12.562
27881W        W89170  44.778  13.116   2.787
27882W        W89171  43.788  25.593   1.929
27883W        W89172  41.507   9.853   0.326
27884W        W89173  16.315  26.182   0.770
27885W        W89174  28.580   9.669   2.287
27886W        W89175  41.991  22.564  12.522
27887W        W89176  33.904  10.307   1.319
27888W        W89177  28.984  25.140   1.437
27889W        W89178  30.954  17.273  12.357
27890W        W89179  24.135  22.601  12.907
27891W        W89180  37.464  17.133  14.830
27892W        W89181  38.364  29.083   0.436
27893W        W89182  21.024  13.607   3.239
27894W        W89183  36.911   1.737   2.388
27895W        W89184  18.214  41.857  10.444
27896W        W89185  28.649  36.509   2.345
27897W        W89186   1.350   1.974   2.311
27898W        W89187  23.049   9.165   4.184
27899W        W89188  21.262   0.918   4.828
27900W        W89189  39.419  21.117   4.796
27901W        W89190   0.381  37.080  11.971
27902W        W89191  22.237   8.734  11.599
27903W        W89192  26.575  31.571  14.322
27904W        W89193  13.803  26.981   1.225
27905W        W89194  25.657  42.802   3.675
27906W        W89195  32.438  38.010   1.817
27907W        W89196  39.446   7.911  13.444
27908W        W89197  37.880  42.780   3.705
27909W        W89198  17.670   0.401  10.551
27910W        W89199  43.489  13.150   3.201
27911W        W89200  27.682  33.994  12.376
27912W        W89201  23.513  26.628  11.094
27913W        W89202  16.271   9.873  10.531
27914W        W89203   7.777  25.113  13.537
27915W        W89204  44.781  25.184   2.883
27916W        W89205  28.999   5.213  14.809
27917W        W89206  41.851  15.722  10.586
27918W        W89207  16.174  19.078  10.902
27919W        W89208  29.471  35.971  12.379
27920W        W89209  41.314   0.463   4.327
27921W        W89210  43.384  22.597   3.365
27922W        W89211  33.507   7.252   1.328
27923W        W89212   5.350  20.171   4.784
27924W        W89213  44.376   2.324   3.633
27925W        W89214  13.676  31.592   1.765
27926W        W89215  39.971  23.175   3.205
27927W        W89216  22.060  31.560  11.993
27928W        W89217  18.574  24.543  13.370
27929W        W89218  20.124  17.555   3.853
27930W        W89219  37.025   9.197  13.324
27931W        W89220  43.908  15.684   3.773
27932W        W89221  10.696   5.758  10.477
27933W        W89222  37.883  35.916   2.830
27934W        W89223  44.505   0.481   4.322
27935W        W89224  12.318  26.500   5.193
27936W        W89225   7.725  14.658   4.785
27937W        W89226   4.392  30.073  14.333
27938W        W89227  36.081  21.692   1.916
27939W        W89228  23.168  36.585   4.317
27940W        W89229  13.634  30.621   1.256
27941W        W89230  27.688  22.673   2.403
27942W        W89231  33.945  23.608  12.846
27943W        W89232  20.146  22.096   0.387
27944W        W89233   1.741   1.754   1.432
27945W        W89234   8.698  24.984  14.008
27946W        W89235  39.419  25.126   5.092
27947W        W89236  20.125  41.493   4.645
27948W        W89237  17.783  42.469  10.562
27949W        W89238   9.736  16.087  13.884
27950W        W89239   1.755  24.577  14.796
27951W        W89240  20.054  14.209   1.389
27952W        W89241  14.733  29.059   4.732
27953W        W89242   7.172  38.508   0.957
27954W        W89243  13.259  21.147   5.299
27955W        W89244   1.246  42.482  12.999
27956W        W89245   1.326   3.919   0.812
27957W        W89246  25.697  37.367   4.722
27958W        W89247  44.464  39.039   5.226
27959W        W89248  12.768  12.130  12.933
27960W        W89249  41.935  17.252   1.844
27961W        W89250  22.542  35.916  14.872
27962W        W89251  17.148  27.477   4.183
27963W        W89252  29.546   9.340  11.388
27964W        W89253  12.242   9.172   3.729
27965W        W89254  31.898  18.602   3.729
27966W        W89255  16.758   6.246  12.361
27967W        W89256   6.746  10.234   4.113
27968W        W89257  16.178   9.262  13.845
27969W        W89258  12.246  28.162   1.754
27970W        W89259  20.568  30.536   1.353
27971W        W89260  25.066  23.110   9.964
27972W        W89261  22.235  43.494   1.220
27973W        W89262   5.435  17.578  10.446
27974W        W89263  32.047  29.495  11.458
27975W        W89264  37.574  31.977   0.331
27976W        W89265  33.939  20.660   0.250
27977W        W89266  10.145   5.421  11.594
27978W        W89267   7.837  29.546  12.897
27979W        W89268  38.950  42.785  10.604
27980W        W89269  42.880   8.323  12.416
27981W        W89270  40.018   4.753  13.438
27982W        W89271  30.590  41.416  10.894
27983W        W89272  18.161  10.879   3.296
27984W        W89273  22.172   4.886   3.635
27985W        W89274  12.630  11.349   4.700
27986W        W89275  15.309  17.707  12.506
27987W        W89276  13.825  32.055   4.194
27988W        W89277  13.804  43.776  11.487
27989W        W89278  27.651   3.431   3.207
27990W        W89279  32.894  42.838  14.396
27991W        W89280   3.461  20.086   2.388
27992W        W89281  23.071  13.202   4.671
27993W        W89282  11.765   1.752  10.455
27994W        W89283  25.533  23.195  13.424
27995W        W89284  19.681  27.459   1.333
27996W        W89285  25.027  16.285  11.574
27997W        W89286  35.909  23.561  11.124
27998W        W89287  13.349  34.486  12.069
27999W        W89288  34.069  42.430  12.857
28000W        W89289  28.476  15.246   3.194
28001W        W89290  33.475  36.358  12.911
28002W        W89291   3.854   0.432   3.197
28003W        W89292  17.693   9.320  12.067
28004W        W89293  15.634   0.322  14.899
28005W        W89294   8.861  43.297   3.270
28006W        W89295  33.532  38.000  13.435
28007W        W89296  13.290   5.846   0.450
28008W        W89297  13.714   9.809   3.155
28009W        W89298  38.012  29.575   2.755
28010W        W89299  38.385  29.079  11.876
28011W        W89300  29.970  41.979  14.347
28012W        W89301   7.284  26.476   0.949
28013W        W89302  25.127  41.834   2.768
28014W        W89303  10.763   7.284   0.387
28015W        W89304  18.760   0.390   2.271
28016W        W89305  35.596  18.661   0.380
28017W        W89306  25.559  41.788   3.163
28018W        W89307   3.365  24.674  11.398
28019W        W89308  21.242  28.934  13.969
28020W        W89309  20.729   9.664   3.859
28021W        W89310  21.212  31.918  11.882
28022W        W89311  39.495  31.122   2.377
28023W        W89312  27.631  36.533   2.408
28024W        W89313   9.176  22.124  13.863
28025W        W89314  12.258   2.332  13.442
28026W        W89315   7.220  41.485  11.514
28027W        W89316  18.563  38.477  10.555
28028W        W89317  11.361  17.238  12.004
28029W        W89318  41.824  19.679  10.502
28030W        W89319  26.629  15.717   3.166
28031W        W89320  43.822  14.669  13.393
28032W        W89321  22.055   4.746   1.230
28033W        W89322  42.915  18.182   1.340
28034W        W89323  24.580  21.526   3.164
28035W        W89324   7.229  18.250  10.412
28036W        W89325  28.651  23.182  12.926
28037W        W89326  26.595  41.465  14.431
28038W        W89327   3.386  28.554  12.994
28039W        W89328  22.546   0.443   3.736
28040W        W89329  33.092  25.683   3.666
28041W        W89330   4.911  31.496  10.157
28042W        W89331  22.177  39.963   4.614
28043W        W89332  33.522  44.317  10.551
28044W        W89333  33.537  41.987   3.211
28045W        W89334   0.930  34.887  12.546
28046W        W89335  19.534   1.815  12.481
28047W        W89336  27.035  10.830  10.609
28048W        W89337   7.677  17.771   3.782
28049W        W89338   9.382  24.621  12.022
28050W        W89339   0.419   5.241  11.863
28051W        W89340  44.297  21.020   3.784
28052W        W89341  35.976  12.263  14.931
28053W        W89342  43.290  14.103   3.150
28054W        W89343   3.244  38.025  14.373
28055W        W89344   5.767   4.305  12.959
28056W        W89345  39.500  26.016  12.531
28057W        W89346  23.516   3.405  13.377
28058W        W89347  36.053  24.227   3.260
28059W        W89348   9.688  21.165   0.357
28060W        W89349  20.192   1.353  12.075
28061W        W89350  40.018  40.956   4.124
28062W        W89351  19.670  40.453   3.309
28063W        W89352   9.714   3.715   5.167
28064W        W89353  14.196   0.988   5.618
28065W        W89354   6.777  33.908   4.327
28066W        W89355   3.858   4.916  10.483
28067W        W89356  40.425   6.406  12.372
28068W        W89357  29.956  37.580   0.727
28069W        W89358  26.031  31.622  14.490
28070W        W89359  15.626  17.154  10.942
28071W        W89360  44.435  34.405   4.314
28072W        W89361  36.397  30.953   4.351
28073W        W89362  25.573  41.467   4.192
28074W        W89363  18.663  41.375  14.027
28075W        W89364  35.518  32.017  13.538
28076W        W89365   0.469  19.277   0.382
28077W        W89366  18.602  29.533   1.296
28078W        W89367  15.754   3.743  10.933
28079W        W89368  23.733  10.214   0.417
28080W        W89369  41.316  19.593  10.408
28081W        W89370  15.158  28.583   4.144
28082W        W89371  18.748  35.557  13.383
28083W        W89372   8.854   1.345   3.175
28084W        W89373  20.196  34.448   0.801
28085W        W89374   2.293   6.682   0.379
28086W        W89375  26.166  14.822   4.310
28087W        W89376  28.102  40.507   4.807
28088W        W89377  44.464  22.539   3.246
28089W        W89378  42.295  13.713   2.402
28090W        W89379  16.780   9.333  10.482
28091W        W89380   4.702  25.066  11.943
28092W        W89381  40.879   3.395  11.595
28093W        W89382   6.736  10.662   4.677
28094W        W89383  33.473  37.861   1.298
28095W        W89384  22.209  25.598  13.000
28096W        W89385  22.242  42.440  14.857
28097W        W89386  17.759  42.795   1.229
28098W        W89387   2.799   8.694   1.337
28099W        W89388  42.401  26.990  12.433
28100W        W89389   9.789   7.867  14.330
28101W        W89390   9.711  13.693   0.250
28102W        W89391  29.165   5.819  14.373
28103W        W89392   5.700  17.788   4.340
28104W        W89393  14.702  36.568   5.697
28105W        W89394  41.341  12.843   4.817
28106W        W89395  28.004   5.905   1.339
28107W        W89396  16.284  38.340  11.961
28108W        W89397  42.327  28.595   0.799
28109W        W89398   8.758  15.185   1.338
28110W        W89399   0.290  44.795   1.271
28111W        W89400  30.062  30.964   1.712
28112W        W89401  34.434  20.547   2.869
28113W        W89402  40.396  23.092   2.718
28114W        W89403  26.474  35.064   0.840
28115W        W89404  17.600  16.306  14.959
28116W        W89405  34.405  43.410  10.919
28117W        W89406  43.275  40.910   0.355
28118W        W89407  13.769  32.100  11.527
28119W        W89408   8.229  14.620  11.423
28120W        W89409  13.233   2.402  13.397
28121W        W89410  31.633  13.223  13.892
28122W        W89411  30.041  42.336   3.334
28123W        W89412  38.847  27.448   1.447
28124W        W89413  42.389  33.586  13.851
28125W        W89414  36.073  39.865  14.852
28126W        W89415  37.427  26.199  13.381
28127W        W89416   7.847  30.074  10.643
28128W        W89417  43.274  44.010  11.402
28129W        W89418  15.196   2.860  11.968
28130W        W89419   4.332  19.630   0.890
28131W        W89420  15.658  35.597   3.848
28132W        W89421  24.009  14.255  11.496
28133W        W89422  14.206  19.682  13.344
28134W        W89423  39.409  27.579  13.332
28135W        W89424   4.255  41.830  11.027
28136W        W89425  33.068  17.276   4.156
28137W        W89426   5.883  34.897   3.247
28138W        W89427  24.687  23.642   3.645
28139W        W89428  39.021   5.796  12.477
28140W        W89429   2.898  23.635   2.673
28141W        W89430  25.140   3.873   0.243
28142W        W89431  24.102  19.196   4.227
28143W        W89432  33.920  35.999  14.390
28144W        W89433  22.610   8.707   0.437
28145W        W89434  24.993  10.283  12.839
28146W        W89435  42.891   1.834  13.824
28147W        W89436  34.565   6.691   2.829
28148W        W89437  31.407  10.704   2.245
28149W        W89438  38.855  37.455  10.160
28150W        W89439  29.172  34.985   2.314
28151W        W89440  16.660  22.553  14.807
28152W        W89441  34.087  14.117  14.945
28153W        W89442  13.253  12.767  13.791
28154W        W89443   5.864  19.601   1.699
28155W        W89444  17.257   5.336   3.633
28156W        W89445  27.457  25.170  10.898
28157W        W89446  30.050   6.871  11.590
28158W        W89447  22.067  29.553   4.249
28159W        W89448   9.354  36.956  11.497
28160W        W89449   8.190   6.384  13.416
28161W        W89450  29.519  27.193  12.465
28162W        W89451  34.423   2.242   0.796
28163W        W89452  19.629   0.882  10.584
28164W        W89453  21.140  16.666   2.273
28165W        W89454  34.480  37.375   2.903
28166W        W89455  32.517  20.174  13.529
28167W        W89456   4.384  23.224   2.744
28168W        W89457  34.579  13.126   0.868
28169W        W89458  36.516  34.997   1.254
28170W        W89459  22.704  40.889  12.377
28171W        W89460  43.362  36.044  12.415
28172W        W89461   2.941  31.070   4.797
28173W        W89462  24.012  35.969  13.316
28174W        W89463  39.350   9.674  11.972
28175W        W89464   0.467  27.608  12.946
28176W        W89465  35.445  19.186  12.849
28177W        W89466  25.190  39.858  14.502
28178W        W89467   4.307   7.368   0.380
28179W        W89468  37.421  24.205  14.000
28180W        W89469   9.239  20.160  14.404
28181W        W89470  34.589  14.692   4.785
28182W        W89471  37.430   7.328  13.401
28183W        W89472  10.791  19.541   4.690
28184W        W89473  11.639  15.653   5.294
28185W        W89474  44.978   5.818  10.407
28186W        W89475   9.374  35.088  13.518
28187W        W89476  33.890  27.135   3.319
28188W        W89477   1.468  39.009   0.430
28189W        W89478  25.649  40.824  13.842
28190W        W89479  36.038  20.627   1.787
28191W        W89480  17.609   0.788   4.135
28192W        W89481  41.472  16.234  14.441
28193W        W89482  39.317  40.357   4.353
28194W        W89483  23.042  44.308  12.480
28195W        W89484  32.637  34.558   0.779
28196W        W89485  41.042  42.424   1.402
28197W        W89486   1.768  16.246   1.830
28198W        W89487   3.930   5.850  12.078
28199W        W89488  12.302  22.165  11.972
28200W        W89489  44.002  44.269  12.994
28201W        W89490  37.404  36.010   1.393
28202W        W89491   5.322  28.998  12.395
28203W        W89492  34.613  24.624  14.441
28204W        W89493  44.910  40.446   3.755
28205W        W89494  15.690  42.458  10.461
28206W        W89495  35.871   0.309   0.434
28207W        W89496  23.688   0.262  13.385
28208W        W89497  22.126  26.992  14.021
28209W        W89498   8.664   2.369   4.305
28210W        W89499  13.198  40.975   0.432
28211W        W89500   8.166   3.223  13.480
28212W        W89501  31.067  10.826   3.803
28213W        W89502   1.969  25.551  12.405
28214W        W89503  22.142   3.780  13.389
28215W        W89504  36.040  24.023   4.635
28216W        W89505  36.465  18.050   1.233
28217W        W89506  28.943  25.652  10.891
28218W        W89507  13.692  37.041   4.736
28219W        W89508  42.860  22.117   1.848
28220W        W89509  40.524  33.890  14.382
28221W        W89510  13.104  11.790   3.733
28222W        W89511  26.534  41.888  12.864
28223W        W89512  28.021  22.520   1.341
28224W        W89513  29.984  39.358   4.201
28225W        W89514   7.745   7.721   4.804
28226W        W89515  24.023  13.298   0.404
28227W        W89516   0.398   9.786   0.305
28228W        W89517  42.374  26.564  13.407
28229W        W89518   5.767   8.831  11.997
28230W        W89519  25.177  29.964   3.197
28231W        W89520  22.676  38.824   1.925
28232W        W89521  14.112  22.657   0.732
28233W        W89522  24.981  38.566  14.922
28234W        W89523  44.808  38.823  14.872
28235W        W89524  35.094  11.797  14.299
28236W        W89525  22.047   3.450   2.378
28237W        W89526  10.282  10.211  13.848
28238W        W89527  39.350  42.459   1.906
28239W        W89528  38.864   1.238   1.836
28240W        W89529  38.000   6.763  12.866
28241W        W89530  23.626  28.494   2.731
28242W        W89531  33.119  34.108  14.988
28243W        W89532  11.706  34.955   3.334
28244W        W89533  13.704  25.609  13.387
28245W        W89534  29.638  39.989   2.776
28246W        W89535  31.605   7.267  10.452
28247W        W89536  43.897  27.549   4.681
28248W        W89537  28.013  17.255   3.333
28249W        W89538  27.940  40.917   3.838
28250W        W89539   8.743  34.955   2.206
28251W        W89540  43.509  44.402   9.980
28252W        W89541  20.671  36.991  11.993
28253W        W89542  30.921  14.237   9.948
28254W        W89543  43.769  34.023  11.441
28255W        W89544   0.348  37.928  13.925
28256W        W89545   6.401   5.253  13.459
28257W        W89546  22.010  37.009  13.026
28258W        W89547   7.249  41.400  13.347
28259W        W89548  21.035   1.260  10.945
28260W        W89549   1.753  17.666   2.363
28261W        W89550  15.154  36.014   0.888
28262W        W89551   8.250  12.774  14.342
28263W        W89552  13.797  16.311  12.539
28264W        W89553  43.943  11.220  14.414
28265W        W89554  37.453  23.679   2.345
28266W        W89555  13.846   2.470  13.858
28267W        W89556  33.504  31.599   3.188
28268W        W89557  12.696  42.858   1.779
28269W        W89558  28.647  12.284  14.298
28270W        W89559  44.424  17.185   0.938
28271W        W89560   6.221  43.454   0.844
28272W        W89561   4.292  24.635  13.471
28273W        W89562   5.373  18.189   1.755
28274W        W89563  26.155  25.625  12.390
28275W        W89564  43.347  35.029   1.881
28276W        W89565   4.746  16.782   4.190
28277W        W89566  26.117   2.782  12.363
28278W        W89567   1.472  20.570  12.862
28279W        W89568  10.329  30.927  14.480
28280W        W89569   6.281   5.439  13.897
28281W        W89570  19.210  36.425  13.451
28282W        W89571  28.504  38.031   2.786
28283W        W89572   3.943  34.907  14.987
28284W        W89573  14.119  39.531  14.001
28285W        W89574  36.030  44.920  13.514
28286W        W89575  19.744  43.930   2.841
28287W        W89576  19.611  32.886   2.780
28288W        W89577   3.715  19.203  11.883
28289W        W89578  43.362  38.965  12.541
28290W        W89579  37.367  30.646  10.917
28291W        W89580  35.536  43.792   2.324
28292W        W89581  27.130  23.651   1.367
28293W        W89582  34.564  23.684  13.885
28294W        W89583  11.188  14.769   0.751
28295W        W89584  40.481   7.209   4.292
28296W        W89585  27.608  28.144  12.440
28297W        W89586  15.590  25.157   3.697
28298W        W89587  33.512  10.721  12.092
28299W        W89588   5.748  21.229   1.761
28300W        W89589   9.690   8.221  11.558
28301W        W89590  42.792   4.866  11.494
28302W        W89591  36.038  17.254   9.594
28303W        W89592  35.007  31.152  13.027
28304W        W89593  38.440  22.537   0.914
28305W        W89594  29.129  18.593  14.025
28306W        W89595  44.763  24.492   0.921
28307W        W89596  44.962   7.191   4.229
28308W        W89597   6.414  17.143   1.746
28309W        W89598  28.643  21.566  11.075
28310W        W89599   2.828  13.175  12.015
28311W        W89600  22.233  40.405   0.255
28312W        W89601  20.225  31.634   0.300
28313W        W89602  34.004  30.554  12.413
28314W        W89603  21.070  36.901  14.975
28315W        W89604  15.240  43.293   4.765
28316W        W89605   5.412   9.164  13.483
28317W        W89606  44.778   0.343   2.260
28318W        W89607  26.579   0.452   1.370
28319W        W89608  42.803  24.017  13.467
28320W        W89609  32.993  40.897  11.521
28321W        W89610   3.910  35.047  12.034
28322W        W89611  16.299  33.097   4.693
28323W        W89612  39.353  14.612  14.450
28324W        W89613  42.961  40.404  11.599
28325W        W89614  43.345   7.209   0.424
28326W        W89615  44.277  13.229   3.261
28327W        W89616  25.989  23.735   2.228
28328W        W89617  22.131   0.903  12.050
28329W        W89618   5.918  21.665   2.741
28330W        W89619  41.026  19.213   4.740
28331W        W89620  42.350  10.821  13.808
28332W        W89621  21.525   7.710  11.943
28333W        W89622  14.824  39.560   5.171
28334W        W89623  31.447   1.842   5.223
28335W        W89624   2.398  20.615  13.968
28336W        W89625  33.900  22.621  14.972
28337W        W89626  10.790   4.837  13.540
28338W        W89627  11.137   7.346   4.796
28339W        W89628  15.664  31.646  14.498
28340W        W89629  18.249  37.529   1.728
28341W        W89630   2.413  25.112   4.215
28342W        W89631  37.036  34.939   4.322
28343W        W89632  14.824  44.333   0.951
28344W        W89633  19.651   5.385  11.044
28345W        W89634  11.157  14.299  13.322
28346W        W89635  34.969  18.624   2.203
28347W        W89636  36.075  42.446  14.940
28348W        W89637  38.481  41.424  13.934
28349W        W89638   0.974  29.958  14.781
28350W        W89639   9.844  16.618  14.337
28351W        W89640  15.746   7.670   2.731
28352W        W89641  23.065  21.089  10.149
28353W        W89642  31.100  22.182  12.520
28354W        W89643   2.848   1.856  11.432
28355W        W89644  41.999  41.436  11.093
28356W        W89645  43.316  25.076  12.967
28357W        W89646  36.579   9.167   1.857
28358W        W89647  41.810  19.075   0.419
28359W        W89648  19.773  25.656  12.025
28360W        W89649  33.459  16.197   0.337
28361W        W89650   1.831  35.463   1.779
28362W        W89651  44.767  18.218   0.843
28363W        W89652   5.209   2.911   2.189
28364W        W89653   9.157  18.119  14.861
28365W        W89654  25.555   3.413   3.282
28366W        W89655  37.570  18.685  14.963
28367W        W89656  19.185   9.365  12.916
28368W        W89657   2.897  38.867  14.826
28369W        W89658   3.243  22.249  11.888
28370W        W89659  10.708  43.296  11.039
28371W        W89660   2.231  28.443   2.391
28372W        W89661  12.800  23.687   4.137
28373W        W89662   4.293  33.507  12.505
28374W        W89663   7.885  31.146  14.865
28375W        W89664  38.429  14.753   1.409
28376W        W89665  33.580  27.174  14.813
28377W        W89666  29.640  39.821  10.982
28378W        W89667  39.824  40.992   0.786
28379W        W89668  36.950  22.083  11.908
28380W        W89669  21.668  37.377   4.813
28381W        W89670  15.663   4.886   4.306
28382W        W89671  13.301  35.968  12.827
28383W        W89672  29.610   5.226  14.984
28384W        W89673  33.059   4.905  10.431
28385W        W89674  41.320  39.827   1.361
28386W        W89675  44.004  11.815  14.398
28387W        W89676  42.029  41.789  12.927
28388W        W89677  19.042  23.607   0.861
28389W        W89678  38.428  14.119   2.241
28390W        W89679   0.882  17.742  14.347
28391W        W89680  24.053   7.871   2.684
28392W        W89681  15.163  40.855   0.903
28393W        W89682  38.382  10.677  14.932
28394W        W89683  26.071  40.401   3.729
28395W        W89684   8.321  31.976  10.027
28396W        W89685  25.022   1.378   4.822
28397W        W89686  35.493  38.559   3.654
28398W        W89687  17.656  34.429  12.042
28399W        W89688  41.454   1.356   3.825
28400W        W89689   9.360  26.519   1.865
28401W        W89690  36.576  11.799  10.122
28402W        W89691  31.014   3.286   0.320
28403W        W89692  40.024   6.273  14.355
28404W        W89693  40.862  14.725   0.458
28405W        W89694  27.560  26.621   5.188
28406W        W89695  18.544   4.206   3.176
28407W        W89696   7.246   5.818  11.857
28408W        W89697  16.100   1.253   2.666
28409W        W89698  28.102   0.343   4.251
28410W        W89699  35.417  36.352   3.707
28411W        W89700   3.892  33.480  11.943
28412W        W89701  38.550  17.592   1.850
28413W        W89702  31.435  16.615  12.903
28414W        W89703  40.895  22.682  14.362
28415W        W89704  23.629  32.987  13.914
28416W        W89705  36.070  15.317   1.306
28417W        W89706  42.968  10.685   2.251
28418W        W89707  39.344   8.311  13.337
28419W        W89708   8.848  24.663   0.283
28420W        W89709  36.348  11.297  12.975
28421W        W89710   8.821  13.236   0.365
28422W        W89711   3.765  40.955   3.344
28423W        W89712  21.153  18.130  14.972
28424W        W89713  43.490  35.026   2.329
28425W        W89714  12.283  27.077   1.447
28426W        W89715  13.110  43.902  11.074
28427W        W89716  39.045  27.029  14.872
28428W        W89717  15.608  24.118  10.070
28429W        W89718   0.840  43.298  10.912
28430W        W89719  29.163  13.619   3.835
28431W        W89720  44.888  16.103   1.834
28432W        W89721   4.381  17.596  11.085
28433W        W89722  20.687  38.392   3.177
28434W        W89723  12.270  36.483   3.171
28435W        W89724   4.942   1.762   4.771
28436W        W89725  42.032  33.918  10.519
28437W        W89726   6.707   4.847   2.822
28438W        W89727  17.719  13.163  14.461
28439W        W89728  10.842   3.275   1.284
28440W        W89729   8.262  25.696   3.774
28441W        W89730   5.797  26.987  12.998
28442W        W89731  20.632  18.555   0.845
28443W        W89732   0.778  28.020  10.103
28444W        W89733  10.707   2.952   0.288
28445W        W89734  33.467  43.511   1.359
28446W        W89735  41.326  44.759  12.401
28447W        W89736  23.075  28.474   0.799
28448W        W89737  30.604  35.562   4.274
28449W        W89738  41.879  23.075   1.353
28450W        W89739   2.397   6.231  10.011
28451W        W89740  11.723  27.587  10.469
28452W        W89741   3.338  27.677   4.134
28453W        W89742  22.517   2.406   0.839
28454W        W89743  39.473  25.137   0.297
28455W        W89744  36.891  39.445   1.390
28456W        W89745  20.535  40.806  13.952
28457W        W89746  11.237   9.719   3.761
28458W        W89747   7.884   2.432  14.020
28459W        W89748  38.984  23.135   0.953
28460W        W89749  29.655   9.184  13.336
28461W        W89750   1.963  17.249   4.133
28462W        W89751  27.025  38.423   0.287
28463W        W89752   6.281  26.568  10.427
28464W        W89753  17.638  20.546   2.845
28465W        W89754  19.598   3.871  14.836
28466W        W89755   4.743  26.962  11.096
28467W        W89756  21.703  23.523   2.220
28468W        W89757  33.963  41.988  11.467
28469W        W89758  15.285  29.614  14.346
28470W        W89759  29.639  17.092   2.344
28471W        W89760  26.019  12.761  13.855
28472W        W89761  13.631  32.889  14.463
28473W        W89762  38.561  11.308  13.060
28474W        W89763  38.365  31.018  12.540
28475W        W89764  35.567  40.411  13.369
28476W        W89765  17.760  41.462  10.603
28477W        W89766  32.553   6.818  14.386
28478W        W89767  43.900  26.561  14.987
28479W        W89768   9.792  35.414  14.014
28480W        W89769  38.075   1.840   0.250
28481W        W89770  28.046  30.525   5.090
28482W        W89771  28.108  25.493   4.681
28483W        W89772  32.080  42.457  12.824
28484W        W89773  40.024  21.590   4.226
28485W        W89774   2.467   3.221  10.625
28486W        W89775  32.014  14.727   5.163
28487W        W89776  15.711  36.476   3.759
28488W        W89777  32.976  42.349  12.569
28489W        W89778   1.756  40.334  11.957
28490W        W89779   1.850  33.491   5.193
28491W        W89780  38.341   8.858  13.482
28492W        W89781  44.934  30.162   2.192
28493W        W89782  41.974  28.587   3.715
28494W        W89783  19.084  38.355   1.758
28495W        W89784   8.300  12.847  13.327
28496W        W89785  41.420  19.704  12.578
28497W        W89786   3.802   5.197   4.323
28498W        W89787   3.394   0.832   4.166
28499W        W89788  13.636   1.773  11.908
28500W        W89789  30.623  13.279  11.043
28501W        W89790  25.119   3.432   3.829
28502W        W89791   1.902  19.637   3.707
28503W        W89792  22.668  12.732   1.878
28504W        W89793  42.958  14.742  11.920
28505W        W89794   7.853  14.831  14.408
28506W        W89795   0.910  32.020  13.972
28507W        W89796  43.450  34.021   2.180
28508W        W89797  26.533   6.862  11.959
28509W        W89798  44.875  31.983  13.999
28510W        W89799   8.676  10.773  10.954
28511W        W89800  11.305   6.351   0.734
28512W        W89801  38.911   2.321   0.403
28513W        W89802  10.226  34.895   1.909
28514W        W89803  28.459  20.706  11.909
28515W        W89804   7.333  33.953  11.114
28516W        W89805   7.363  27.126   2.377
28517W        W89806  26.078  32.565   0.934
28518W        W89807  24.637  14.763   1.776
28519W        W89808  22.555  12.638   2.824
28520W        W89809  31.067   9.662  12.059
28521W        W89810   3.365   0.469   2.272
28522W        W89811  32.501  26.660   0.479
28523W        W89812  28.180  21.532   9.549
28524W        W89813  28.140   2.783   2.768
28525W        W89814   6.202  20.629   4.206
28526W        W89815  14.629  36.985   3.652
28527W        W89816  33.424  42.469   4.823
28528W        W89817  20.124   7.732   0.327
28529W        W89818  25.701  44.459   1.305
28530W        W89819  32.923  38.495   2.790
28531W        W89820  30.655  36.536  12.563
28532W        W89821   6.390  16.198  14.512
28533W        W89822  21.096  44.820   4.832
28534W        W89823  22.034  25.614   4.626
28535W        W89824   0.925  17.215  12.886
28536W        W89825  22.654  19.157  14.424
28537W        W89826  42.032  42.848  14.380
28538W        W89827  28.930  21.536   2.198
28539W        W89828   9.153  15.280   1.907
28540W        W89829  21.229  24.058  14.775
28541W        W89830   6.818  37.005   4.824
28542W        W89831  40.887  37.485   2.755
28543W        W89832  37.880   8.250  11.537
28544W        W89833  39.539  41.972  12.040
28545W        W89834  39.485   1.317  10.954
28546W        W89835  22.107  43.467   3.221
28547W        W89836  20.055  41.024  10.471
28548W        W89837  15.193  41.328   3.818
28549W        W89838  30.461  42.366   2.827
28550W        W89839   6.711  30.075  14.764
28551W        W89840   6.398  38.055  10.583
28552W        W89841  25.696   9.174   0.801
28553W        W89842  17.240  19.594  11.937
28554W        W89843   2.848  34.450  10.920
28555W        W89844   6.921  30.553  11.041
28556W        W89845  35.551  12.640  11.105
28557W        W89846   9.208  35.064  10.588
28558W        W89847  12.264  38.496  13.308
28559W        W89848   4.346   8.396  13.952
28560W        W89849  19.699  23.139   2.250
28561W        W89850  16.175   1.413  14.298
28562W        W89851  36.094   4.334  10.405
28563W        W89852   8.184   4.913  11.392
28564W        W89853  22.607  37.833   0.769
28565W        W89854  41.521  20.207  13.850
28566W        W89855  44.352  13.691   2.785
28567W        W89856  21.076  39.987   0.379
28568W        W89857  34.905   9.755   4.198
28569W        W89858  12.758   8.817  14.968
28570W        W89859  17.282  38.407  12.032
28571W        W89860  19.042  29.055   3.244
28572W        W89861  28.013  31.001   9.924
28573W        W89862  22.241  38.569   4.716
28574W        W89863  12.791  10.656  14.837
28575W        W89864   6.249   4.714  10.437
28576W        W89865  29.612  34.985  13.990
28577W        W89866  43.780  10.852  12.391
28578W        W89867  10.224  40.991  11.564
28579W        W89868  43.970  31.936   1.310
28580W        W89869  27.609  12.179  11.424
28581W        W89870   0.256   7.735   4.686
28582W        W89871  44.385  41.348  11.114
28583W        W89872   9.860   9.874  11.034
28584W        W89873  26.112   4.903   2.836
28585W        W89874  37.356   6.419  14.972
28586W        W89875  25.098  33.050  14.861
28587W        W89876  37.996  37.450  12.084
28588W        W89877  14.303  23.147   4.640
28589W        W89878  44.457  41.303  12.063
28590W        W89879  16.647  44.997  13.310
28591W        W89880  14.211  42.796  13.435
28592W        W89881  10.809  12.133   4.125
28593W        W89882   2.247  26.031  14.494
28594W        W89883   9.741   0.313  12.353
28595W        W89884   4.402  12.702   2.352
28596W        W89885  37.544  35.106   4.345
28597W        W89886   4.428  42.859   1.868
28598W        W89887  40.971  41.793   0.465
28599W        W89888   8.180   7.216  13.063
28600W        W89889  28.953   3.445   1.730
28601W        W89890   1.783   7.906   0.769
28602W        W89891   7.848  30.557  12.488
28603W        W89892   6.802   7.902   3.792
28604W        W89893  40.914   2.751   1.389
28605W        W89894   3.418   4.279  11.052
28606W        W89895  21.026  14.744   3.383
28607W        W89896  13.747   0.951   2.882
28608W        W89897  18.108  27.675   3.731
28609W        W89898  11.650   9.224   4.662
28610W        W89899  29.540  34.466  14.775
28611W        W89900  15.296  37.384  13.060
28612W        W89901  24.025  12.631   9.968
28613W        W89902  11.293  30.985   2.846
28614W        W89903  20.109  21.626  11.040
28615W        W89904  29.468  44.821   1.835
28616W        W89905  28.113  25.023   3.170
28617W        W89906  18.100  38.935   4.268
28618W        W89907   8.341  13.721   3.753
28619W        W89908  31.086  37.438   3.847
28620W        W89909  20.526  18.719  14.798
28621W        W89910   9.760   5.236   4.648
28622W        W89911   9.644  38.324   4.231
28623W        W89912  21.125   7.724   2.327
28624W        W89913  14.248   7.343   2.286
28625W        W89914  22.628  22.053   9.589
28626W        W89915  32.467  15.216   2.782
28627W        W89916  30.637  13.784  14.419
28628W        W89917  33.905  30.629   2.689
28629W        W89918  28.005  23.590   0.731
28630W        W89919   7.319  21.127  11.013
28631W        W89920   5.306  44.318  10.497
28632W        W89921  23.036  32.924  10.603
28633W        W89922   0.398  19.650   0.826
28634W        W89923  40.511  17.298   1.900
28635W        W89924  39.995  30.150  11.548
28636W        W89925   1.406  13.653   2.312
28637W        W89926  44.488  14.829  14.016
28638W        W89927  22.218  21.169  13.541
28639W        W89928  44.418  32.929   1.279
28640W        W89929   7.279   7.325   1.731
28641W        W89930   2.389  39.809   3.746
28642W        W89931  25.202  28.622   2.683
28643W        W89932  15.664  27.459   2.784
28644W        W89933  44.804  20.639  10.910
28645W        W89934  10.637   9.649   0.813
28646W        W89935  37.083  30.615  14.330
28647W        W89936  20.584  31.070   0.929
28648W        W89937  14.834   6.345   2.305
28649W        W89938  32.438   3.813  10.594
28650W        W89939  30.518   3.878   4.288
28651W        W89940  18.219  32.107   1.832
28652W        W89941   6.692  23.223  11.065
28653W        W89942  43.296  22.089   4.237
28654W        W89943  16.571  32.024  14.024
28655W        W89944  22.038   4.929   2.712
28656W        W89945  40.379  12.246  13.450
28657W        W89946  23.536  42.918   1.417
28658W        W89947  14.683  24.042   2.227
28659W        W89948  28.952   3.808  14.893
28660W        W89949   9.836  17.610   2.708
28661W        W89950  12.747  43.916   3.265
28662W        W89951  38.901   0.299   4.716
28663W        W89952  13.115  11.777   2.205
28664W        W89953  34.562  37.927   3.382
28665W        W89954  41.533  37.369  10.435
28666W        W89955  18.060  23.198   2.849
28667W        W89956   2.358  34.969  10.106
28668W        W89957  19.097  11.254   4.343
28669W        W89958  13.777  14.109   3.146
28670W        W89959  23.046  26.606  13.324
28671W        W89960  42.977  32.992  14.800
28672W        W89961  23.996  23.109  11.981
28673W        W89962  30.031  18.632  12.355
28674W        W89963   6.915   1.874   3.649
28675W        W89964  37.838  41.924  12.528
28676W        W89965  10.170  39.524  12.361
28677W        W89966  16.277  16.592  11.522
28678W        W89967  31.524   8.283   4.260
28679W        W89968  14.162  31.991   0.848
28680W        W89969  37.428   1.919   2.413
28681W        W89970   2.916  32.064   2.358
28682W        W89971   1.781  27.136   0.815
28683W        W89972  26.666  37.995  12.516
28684W        W89973   9.672  24.152   0.364
28685W        W89974   1.800  11.672  11.582
28686W        W89975  17.133   7.318  12.953
28687W        W89976  17.589  36.414   2.373
28688W        W89977  23.073  29.031   2.849
28689W        W89978  18.201  35.036   4.269
28690W        W89979  26.661   8.213   3.357
28691W        W89980  27.110  13.745  12.949
28692W        W89981  13.837  32.095   0.379
28693W        W89982   9.840  21.066  12.001
28694W        W89983  15.252  36.517  10.977
28695W        W89984  28.060  43.462   1.760
28696W        W89985  34.567  22.743  14.510
28697W        W89986  30.999  36.926   0.919
28698W        W89987   4.780  27.975   1.813
28699W        W89988  11.761  18.183  12.410
28700W        W89989  26.983  32.987   4.677
28701W        W89990   0.332   6.242  11.397
28702W        W89991  36.591  18.174   4.251
28703W        W89992  29.635   7.273  10.964
28704W        W89993  10.866  13.231   0.329
28705W        W89994  35.900  44.276  13.840
28706W        W89995   6.843  24.490   1.338
28707W        W89996  20.141  23.028  14.451
28708W        W89997  18.771  38.940   3.280
28709W        W89998  20.555  29.169  14.862
28710W        W89999   5.323   1.256   4.223
28711W        W90000  14.674  32.504  14.929
28712W        W90001  15.208  22.626  13.987
28713W        W90002  29.584   4.450  14.770
28714W        W90003  19.268  32.489   4.822
28715W        W90004  14.337  35.036   5.291
28716W        W90005  40.381  36.974   0.456
28717W        W90006  19.551  29.076  13.336
28718W        W90007   4.873  33.578   4.312
28719W        W90008  28.039  37.987   1.275
28720W        W90009  34.373   4.302  12.863
28721W        W90010  29.963  22.162   1.714
28722W        W90011   5.211  23.163   2.364
28723W        W90012  32.570  37.973   4.120
28724W        W90013  25.651   6.729  10.539
28725W        W90014  24.573  21.623   3.731
28726W        W90015  17.639  40.482  14.931
28727W        W90016  27.596  24.992  14.463
28728W        W90017   7.867  12.219  12.080
28729W        W90018  21.565  13.645  12.516
28730W        W90019  19.773  17.683  11.880
28731W        W90020  36.926  10.313  10.987
28732W        W90021  44.330   6.283  12.397
28733W        W90022  24.024   2.232  12.443
28734W        W90023   6.299  39.370   0.888
28735W        W90024   8.679   3.405  14.442
28736W        W90025  12.358  30.638   3.842
28737W        W90026  10.691  13.824   1.705
28738W        W90027  12.277   5.335   4.802
28739W        W90028  36.509  23.238   1.926
28740W        W90029   9.672   3.893  11.581
28741W        W90030   0.945  44.269   2.668
28742W        W90031  23.499  33.110   1.246
28743W        W90032   1.370  17.071   3.733
28744W        W90033  11.272  34.905   2.180
28745W        W90034   2.804  28.074  14.343
28746W        W90035   7.846   0.311   2.823
28747W        W90036  19.759  40.373   2.252
28748W        W90037  13.690  10.746  12.381
28749W        W90038  38.534  12.310   0.947
28750W        W90039  33.547  39.881   1.440
28751W        W90040  11.836  38.400  14.972
28752W        W90041  21.742   5.716  11.526
28753W        W90042  32.536  29.018   9.980
28754W        W90043  27.007  35.948   4.292
28755W        W90044   4.281   5.803   4.641
28756W        W90045  20.622  37.464   4.266
28757W        W90046  28.548   4.774   4.764
28758W        W90047  44.359  24.021   1.341
28759W        W90048  20.050  37.975  13.485
28760W        W90049  41.336  15.589   4.602
28761W        W90050  29.587  34.072  13.877
28762W        W90051  31.496  34.066  12.833
28763W        W90052  28.032  39.951  13.468
28764W        W90053  16.120  22.695   0.840
28765W        W90054  28.148   6.753  10.965
28766W        W90055  23.181  37.955   4.769
28767W        W90056   5.919  28.138  13.455
28768W        W90057  31.641  41.416   0.871
28769W        W90058  34.471  24.615  14.910
28770W        W90059  42.985  10.255  14.987
28771W        W90060  28.086  27.133   2.418
28772W        W90061  28.013  14.282  10.035
28773W        W90062  25.145  11.867   1.807
28774W        W90063  18.749  38.558   0.416
28775W        W90064  29.607  39.919   1.774
28776W        W90065  13.725  17.744   3.335
28777W        W90066  33.606  14.118  12.835
28778W        W90067   9.264  20.127  12.420
28779W        W90068  17.754  17.252   4.174
28780W        W90069  43.803   8.219  11.920
28781W        W90070  37.927  32.605   4.816
28782W        W90071   2.836  41.365  14.888
28783W        W90072   5.751  35.492  11.990
28784W        W90073  27.164   9.644   5.177
28785W        W90074  35.048  11.139   4.322
28786W        W90075  10.850  35.094  14.492
28787W        W90076  32.438  41.314   0.356
28788W        W90077  30.962  16.621  14.343
28789W        W90078   6.918  28.131   4.178
28790W        W90079  23.654  28.099  14.865
28791W        W90080  31.012   1.897  12.978
28792W        W90081  35.042  30.096  14.846
28793W        W90082  25.138  38.991   0.790
28794W        W90083  34.377  30.087  11.043
28795W        W90084  26.606   4.922   0.444
28796W        W90085  17.753  21.522  14.442
28797W        W90086  43.428  30.518  13.999
28798W        W90087  25.066  20.171  14.778
28799W        W90088  27.565  14.786  11.566
28800W        W90089  28.163  39.810  13.998
28801W        W90090  28.480  21.694  13.059
28802W        W90091   8.853  35.019   3.269
28803W        W90092  28.024  12.831  10.098
28804W        W90093  41.926  38.439  14.454
28805W        W90094  20.524  38.824  11.394
28806W        W90095  39.038  38.827  13.309
28807W        W90096  14.279  42.374   2.232
28808W        W90097  43.894  23.133   4.147
28809W        W90098  43.840  13.723   3.662
28810W        W90099  34.924   6.887  12.926
28811W        W90100  31.029   5.915   1.214
28812W        W90101  36.523  13.313   4.240
28813W        W90102  17.195  28.008  14.485
28814W        W90103   0.265  22.101  12.067
28815W        W90104  30.441  34.370  14.442
28816W        W90105   4.756  31.962   3.218
28817W        W90106   4.327  24.139  13.350
28818W        W90107  16.719  17.294   2.230
28819W        W90108  16.268  14.592   4.320
28820W        W90109  12.694  38.563   0.313
28821W        W90110  26.669  21.714  11.118
28822W        W90111   0.928  44.967   1.271
28823W        W90112  41.410   5.300   0.812
28824W        W90113  43.975   3.457  10.459
28825W        W90114  43.889   7.185   1.431
28826W        W90115  27.056  16.730   3.282
28827W        W90116  16.225  12.355  14.843
28828W        W90117  43.897  38.570   0.749
28829W        W90118  27.680  34.977   2.299
28830W        W90119   5.850  13.773  13.836
28831W        W90120  36.937  11.174  11.496
28832W        W90121  19.158   7.826   2.704
28833W        W90122  24.604  21.651   2.377
28834W        W90123  33.981   8.240   2.243
28835W        W90124  33.014  29.100  11.123
28836W        W90125  38.449  43.827  13.949
28837W        W90126  36.968  36.503  14.013
28838W        W90127  43.776  27.998   3.739
28839W        W90128  27.643  16.151   3.387
28840W        W90129  38.919  11.689  13.919
28841W        W90130  12.120  25.570  13.324
28842W        W90131  27.009  37.019   3.794
28843W        W90132  26.034   3.773  12.072
28844W        W90133   8.308  19.121  12.982
28845W        W90134   8.349  40.522   4.278
28846W        W90135   2.800   8.757   4.224
28847W        W90136  25.180  39.020   4.283
28848W        W90137  39.465  20.269   0.360
28849W        W90138  16.569  30.955  13.435
28850W        W90139  30.015  15.265   3.364
28851W        W90140  25.131   5.323   1.343
28852W        W90141   5.330  30.157  11.520
28853W        W90142  40.978  36.095  13.808
28854W        W90143  31.064   4.894   3.150
28855W        W90144  37.854  41.832   0.810
28856W        W90145  20.705  35.598   1.753
28857W        W90146  40.478   7.748  12.875
28858W        W90147  30.544  14.631   3.832
28859W        W90148  41.960  15.735   0.783
28860W        W90149  28.033  39.983  12.018
28861W        W90150   4.401  27.021   3.218
28862W        W90151  38.897  20.715  13.834
28863W        W90152  41.302  33.093   1.378
28864W        W90153  20.713  22.091   4.131
28865W        W90154  36.435  23.646   1.699
28866W        W90155  15.277   6.905  13.340
28867W        W90156  33.443   0.789  10.457
28868W        W90157  13.145  23.183  11.917
28869W        W90158  39.525  20.046  13.872
28870W        W90159  33.533  17.629   0.864
28871W        W90160  41.416   2.440   0.302
28872W        W90161  19.627   4.213  13.416
28873W        W90162  26.073  41.967  11.078
28874W        W90163  30.153  39.831   3.289
28875W        W90164  22.127   0.846   3.730
28876W        W90165   6.677  39.317  11.453
28877W        W90166  35.987  39.480  14.376
28878W        W90167   2.891   9.291  14.800
28879W        W90168  13.129  42.400   0.397
28880W        W90169  42.513  35.062   3.250
28881W        W90170  15.799  11.192   1.763
28882W        W90171  20.765  25.992  11.576
28883W        W90172  37.437  21.536  12.898
28884W        W90173  19.731  42.803  14.482
28885W        W90174  30.023  44.924   3.176
28886W        W90175  11.687   8.339  10.518
28887W        W90176  12.635  33.110  12.080
28888W        W90177  44.393  15.787  12.927
28889W        W90178   2.325  44.934  11.595
28890W        W90179  29.662  23.139   0.757
28891W        W90180  35.393  38.558   0.472
28892W        W90181  28.934  20.615  12.361
28893W        W90182   0.454  42.904   0.749
28894W        W90183  16.280  12.717   1.895
28895W        W90184  29.624  19.566   1.712
28896W        W90185  18.134  30.621   0.863
28897W        W90186  31.427  30.512   4.684
28898W        W90187   9.657  38.032   0.465
28899W        W90188  11.262  35.049   1.415
28900W        W90189   2.736  24.522   1.266
28901W        W90190  11.656  11.316  12.951
28902W        W90191  14.234  35.548  14.488
28903W        W90192  32.424  24.123  11.485
28904W        W90193  35.435  30.551   0.319
28905W        W90194  32.102   8.378   3.641
28906W        W90195  22.622  23.035  13.410
28907W        W90196  20.754  24.159  14.769
28908W        W90197  40.467  25.696   2.825
28909W        W90198  34.045  15.108   4.117
28910W        W90199  21.667  44.300   3.263
28911W        W90200  21.518  25.693  11.094
28912W        W90201  43.783  29.048  12.042
28913W        W90202  19.045  40.491   3.709
28914W        W90203  20.031  14.722  10.931
28915W        W90204  27.649  27.630   1.418
28916W        W90205  24.228  40.332  14.303
28917W        W90206  24.665  41.402  13.955
28918W        W90207   2.248  36.903   0.833
28919W        W90208  19.079  28.521  12.529
28920W        W90209  22.077  33.401   2.284
28921W        W90210  22.063   1.405   0.854
28922W        W90211  37.500  10.678   4.776
28923W        W90212  11.737  16.119  14.832
28924W        W90213  30.440  14.154  12.880
28925W        W90214  25.146  36.377  11.391
28926W        W90215  28.468  29.468   0.289
28927W        W90216   2.390   6.884   4.239
28928W        W90217  43.858  39.457   3.838
28929W        W90218  24.491   6.768   0.445
28930W        W90219  34.909  38.440  10.496
28931W        W90220  14.262  36.517  11.974
28932W        W90221  40.954  41.412  12.833
28933W        W90222  24.698  43.912  12.060
28934W        W90223  22.153  16.287   4.628
28935W        W90224  12.169   4.885   9.948
28936W        W90225  21.753   9.386  12.929
28937W        W90226  18.773  14.140   3.844
28938W        W90227  32.464   5.295   4.293
28939W        W90228  24.031   7.266  11.873
28940W        W90229  42.300  28.519   2.735
28941W        W90230  26.675  14.827  11.527
28942W        W90231  17.801  40.440  12.054
28943W        W90232  28.178  36.089  10.115
28944W        W90233  37.964   7.399  11.393
28945W        W90234  37.534  19.285  10.513
28946W        W90235  24.547   5.909   3.709
28947W        W90236  25.982  44.395  10.948
28948W        W90237   5.315  40.039   0.967
28949W        W90238  15.213  11.295  10.614
28950W        W90239  41.018  27.123  11.474
28951W        W90240  32.919  43.939   3.782
28952W        W90241   9.173  13.648   2.301
28953W        W90242   6.907   0.811   0.331
28954W        W90243  21.756   2.871  12.096
28955W        W90244  19.239  44.782   3.719
28956W        W90245  20.560  25.163   3.829
28957W        W90246  16.222  39.871   1.743
28958W        W90247   1.458  24.610  14.484
28959W        W90248  15.116  24.686  10.600
28960W        W90249  20.153  23.593   2.877
28961W        W90250  11.639  38.954  11.065
28962W        W90251  36.505  10.200  12.379
28963W        W90252   2.382  11.630   0.934
28964W        W90253  34.091  25.104  11.877
28965W        W90254  28.637  42.362  11.594
28966W        W90255   9.846  17.242  11.070
28967W        W90256  25.187  37.559   3.275
28968W        W90257  11.739  20.098   1.245
28969W        W90258  23.040  36.412   0.386
28970W        W90259   8.868  41.419   3.219
28971W        W90260  13.725  42.848   3.313
28972W        W90261  29.617   8.849  12.519
28973W        W90262  21.017   0.318   2.208
28974W        W90263  21.235   6.873  12.439
28975W        W90264  41.933  41.529  13.400
28976W        W90265   7.667  32.888   0.927
28977W        W90266  20.080  35.550  12.062
28978W        W90267  20.063  36.090  12.460
28979W        W90268  34.108  37.082   4.159
28980W        W90269  44.399  30.110  12.909
28981W        W90270   0.428  11.754  13.547
28982W        W90271  23.176  36.996   0.917
28983W        W90272  35.991  20.761  14.329
28984W        W90273  22.523  37.067  11.402
28985W        W90274   2.399  14.706  11.518
28986W        W90275  28.648   6.686  10.521
28987W        W90276   3.290  21.217   4.724
28988W        W90277  34.096   7.894  12.458
28989W        W90278   9.786  22.580  13.507
28990W        W90279  44.295   3.833   3.829
28991W        W90280  40.833   9.346   9.528
28992W        W90281   6.809  24.153   1.769
28993W        W90282   2.794   9.384  12.946
28994W        W90283  16.289  18.766  10.540
28995W        W90284   9.718  40.864  14.027
28996W        W90285  41.320  43.395   1.344
28997W        W90286  12.834  42.324  10.908
28998W        W90287   4.924  19.257  14.758
28999W        W90288  41.981  34.871  13.952
29000W        W90289   5.832  42.811   4.812
29001W        W90290  24.564   7.319   1.830
29002W        W90291  11.299  41.948   1.260
29003W        W90292   2.850   8.821   2.418
29004W        W90293  21.515  12.713  14.802
29005W        W90294  24.148  32.053   4.830
29006W        W90295   3.724   1.309   4.125
29007W        W90296  36.941   6.222  14.857
29008W        W90297  16.764   2.816   3.631
29009W        W90298   8.791  23.139   2.292
29010W        W90299  32.489   6.353  11.975
29011W        W90300  44.760  21.162   4.637
29012W        W90301  32.535  35.086  13.946
29013W        W90302  33.388  42.428   2.738
29014W        W90303   0.977  15.712  11.426
29015W        W90304  17.149  26.624   1.367
29016W        W90305  44.836  17.787   3.836
29017W        W90306  33.897  14.298   3.291
29018W        W90307  13.109  35.033   0.291
29019W        W90308  38.064  33.517  12.932
29020W        W90309  24.110  35.524  12.386
29021W        W90310   7.907  24.055  13.505
29022W        W90311  41.400   4.827  12.885
29023W        W90312  11.233   8.872   3.259
29024W        W90313  13.663  30.534   4.340
29025W        W90314  37.572  28.441  10.490
29026W        W90315   2.731  36.361  12.031
29027W        W90316  40.927   7.324   2.704
29028W        W90317  22.200  33.964   4.821
29029W        W90318   0.491   5.308   2.237
29030W        W90319  42.864   3.831  12.428
29031W        W90320  10.711  20.269  10.568
29032W        W90321  18.730  37.833  13.339
29033W        W90322   9.280  25.469   3.303
29034W        W90323  25.481  19.200  11.923
29035W        W90324   3.798  24.061  12.064
29036W        W90325  41.327   2.910  14.826
29037W        W90326  38.329  43.979   4.645
29038W        W90327  30.038   3.218   2.306
29039W        W90328   5.868   7.335  14.892
29040W        W90329  32.112   7.238  12.923
29041W        W90330   8.242  22.738   0.923
29042W        W90331   7.200  44.988   4.742
29043W        W90332  44.883  36.503   1.822
29044W        W90333  42.513  14.152  11.973
29045W        W90334  10.235  15.124   3.686
29046W        W90335  19.535   5.267   4.794
29047W        W90336  40.877  37.885  12.066
29048W        W90337   4.821   8.683  11.560
29049W        W90338  33.485  21.690  13.413
29050W        W90339   1.868  36.856  10.948
29051W        W90340  34.935  34.483   1.356
29052W        W90341  13.782  22.199  13.332
29053W        W90342  20.161  14.782  11.957
29054W        W90343  36.962  38.505   4.686
29055W        W90344  34.091  22.224   4.317
29056W        W90345   4.221  42.427  14.810
29057W        W90346   2.409  41.346  10.605
29058W        W90347  31.949   5.433  11.584
29059W        W90348  24.481  21.026   4.653
29060W        W90349  30.046  20.147  14.786
29061W        W90350  33.584   0.827   0.397
29062W        W90351  13.194  24.044   2.387
29063W        W90352  11.679  34.929   1.407
29064W        W90353  32.127  13.310   2.302
29065W        W90354   6.372  42.007  14.987
29066W        W90355   3.339  29.930  14.484
29067W        W90356  36.920  15.239   3.224
29068W        W90357  22.229  16.103   4.128
29069W        W90358  38.975  44.809  10.082
29070W        W90359  27.021  25.161  11.870
29071W        W90360  17.656  31.934  12.401
29072W        W90361  30.966   7.284   4.623
29073W        W90362  11.330   4.858  12.007
29074W        W90363  36.383  10.719   0.296
29075W        W90364  41.436  18.758   5.143
29076W        W90365  43.459  17.203  12.532
29077W        W90366   5.924  25.523   1.743
29078W        W90367  27.192  22.150   1.415
29079W        W90368   4.754  35.927  11.917
29080W        W90369  36.957  32.600  11.557
29081W        W90370  24.518  36.009  10.903
29082W        W90371   6.709  15.119  12.847
29083W        W90372  14.233   8.357  14.793
29084W        W90373  20.137  36.570  10.889
29085W        W90374  18.698  20.134   0.727
29086W        W90375   8.661   9.293   0.884
29087W        W90376  16.197  12.664   0.774
29088W        W90377  38.371  42.489  13.484
29089W        W90378  10.647  27.000   0.831
29090W        W90379  36.452   3.902  10.444
29091W        W90380   1.843   2.365   3.664
29092W        W90381   5.282  28.035   0.377
29093W        W90382  23.659  15.643  11.980
29094W        W90383  37.893  42.903   0.897
29095W        W90384   5.435  19.665   2.696
29096W        W90385  30.514  34.413   4.344
29097W        W90386  12.668  44.417  14.890
29098W        W90387  32.519  32.886   1.714
29099W        W90388  44.805  38.971   0.740
29100W        W90389  17.296  28.142   0.472
29101W        W90390  21.717  42.840   3.379
29102W        W90391   3.251  15.667  10.451
29103W        W90392   4.299   3.866  10.631
29104W        W90393  31.403  38.525   0.831
29105W        W90394  24.093  25.583   2.826
29106W        W90395  13.641  40.865   3.289
29107W        W90396  12.719   8.677  12.444
29108W        W90397  19.710  18.078   3.283
29109W        W90398   9.334  29.128  11.048
29110W        W90399  29.160   7.715   0.849
29111W        W90400  38.562   8.339   4.807
29112W        W90401  13.637  11.694  10.941
29113W        W90402  24.715  33.128  12.494
29114W        W90403  29.001  21.141   3.295
29115W        W90404  25.999   0.946  12.910
29116W        W90405   8.271   6.829   3.257
29117W        W90406  32.935   4.299  12.848
29118W        W90407  13.841   9.273   0.829
29119W        W90408   9.712  25.701  11.444
29120W        W90409  32.427  22.172  12.069
29121W        W90410  16.306  24.643  14.328
29122W        W90411   1.917   5.345   3.340
29123W        W90412   3.796  29.549   3.208
29124W        W90413  44.438  10.191  12.515
29125W        W90414   8.801  33.553   0.838
29126W        W90415   7.690  35.046   0.413
29127W        W90416   5.891  12.203  10.419
29128W        W90417   1.975  17.565   3.202
29129W        W90418  34.972  18.051   0.333
29130W        W90419  41.929  26.108   1.231
29131W        W90420   4.823  34.452  11.518
29132W        W90421   3.215  10.770  13.021
29133W        W90422  15.320  17.742  12.958
29134W        W90423   8.385  33.878   4.737
29135W        W90424   0.977  20.748  10.895
29136W        W90425   9.763  34.073   1.747
29137W        W90426   4.726  25.688   3.770
29138W        W90427  32.433  40.373  12.034
29139W        W90428  40.009  38.903   4.674
29140W        W90429   7.672  28.106  13.986
29141W        W90430  35.381  30.545   4.631
29142W        W90431  15.581  15.814   5.320
29143W        W90432  13.218   8.731   3.654
29144W        W90433   0.288   4.842   0.319
29145W        W90434  17.793  27.051  12.046
29146W        W90435  31.566  23.062   4.672
29147W        W90436  24.023  23.554  11.946
29148W        W90437   5.863   1.412   0.482
29149W        W90438   0.423  42.913  12.368
29150W        W90439  20.044  40.508   0.434
29151W        W90440  38.018  39.449   4.705
29152W        W90441   2.456   7.889  11.579
29153W        W90442   6.798  26.518   0.851
29154W        W90443  25.690  24.079  10.038
29155W        W90444  16.747  32.124   0.294
29156W        W90445  37.996  33.477  11.006
29157W        W90446  15.169  39.918   1.731
29158W        W90447  33.616  25.613   4.823
29159W        W90448  27.546  40.886   1.233
29160W        W90449  32.609  24.097   3.763
29161W        W90450  32.139   9.232   0.378
29162W        W90451   8.193  33.430   3.685
29163W        W90452  16.589  25.548  10.936
29164W        W90453  29.638  43.972  11.088
29165W        W90454   2.379  30.506   4.280
29166W        W90455   3.851  13.662   4.707
29167W        W90456   5.746  25.155  14.424
29168W        W90457  18.777  43.782   1.780
29169W        W90458  29.511  26.517  12.971
29170W        W90459  34.072  31.417  11.464
29171W        W90460  26.102  23.181  11.405
29172W        W90461   6.769  39.324  12.413
29173W        W90462  27.681   3.950   4.756
29174W        W90463  33.496  39.548  12.892
29175W        W90464  40.448  22.145  14.771
29176W        W90465  43.477  31.052  13.492
29177W        W90466   8.750  21.225  10.434
29178W        W90467   6.243  27.164  12.943
29179W        W90468  33.928  12.152  14.835
29180W        W90469  40.464  44.944  13.943
29181W        W90470  30.097  28.498  12.495
29182W        W90471   5.308   1.744   3.651
29183W        W90472   0.960  34.023  12.027
29184W        W90473  17.667  44.302  10.906
29185W        W90474  12.848  21.064  11.125
29186W        W90475  32.512  35.059  10.618
29187W        W90476  34.966   5.215   0.804
29188W        W90477  25.479  10.216   2.785
29189W        W90478  21.070   0.408  14.395
29190W        W90479  22.209  44.358  13.924
29191W        W90480  26.467  36.488   3.848
29192W        W90481   0.339  35.541   0.734
29193W        W90482  18.284  14.156  12.029
29194W        W90483  41.322  33.488   4.126
29195W        W90484   2.314  24.500  12.908
29196W        W90485  40.425  18.556   1.904
29197W        W90486  32.112   5.728  12.032
29198W        W90487  38.499  35.545   3.166
29199W        W90488  29.146  37.358   5.098
29200W        W90489  38.819  42.881   2.738
29201W        W90490  31.635  33.121  10.467
29202W        W90491  22.072  21.611  12.528
29203W        W90492  28.608  24.142  14.453
29204W        W90493  21.547   6.375   3.307
29205W        W90494  43.279   4.374  11.596
29206W        W90495   2.336  30.591  14.378
29207W        W90496  13.268  29.088  10.473
29208W        W90497   6.781  28.575   4.133
29209W        W90498  19.061   6.272  13.040
29210W        W90499  36.970  16.110  12.983
29211W        W90500  20.647   1.893  13.023
29212W        W90501  30.069  12.621  13.366
29213W        W90502  19.731   1.413  12.011
29214W        W90503  34.073  11.134  10.563
29215W        W90504  35.455  37.878   0.249
29216W        W90505  11.649   6.340   1.797
29217W        W90506  15.668   1.879  14.385
29218W        W90507  19.720  37.888   3.175
29219W        W90508  29.166  29.518   4.790
29220W        W90509  26.954   8.256   3.780
29221W        W90510  30.453  35.905  13.990
29222W        W90511  38.044  24.594  12.389
29223W        W90512  16.164  20.049  13.335
29224W        W90513  25.184  31.078   2.232
29225W        W90514  40.510   1.381  11.534
29226W        W90515  23.517  36.987   0.961
29227W        W90516  36.064  22.704   4.778
29228W        W90517  23.698  11.148   1.898
29229W        W90518  14.631   3.220   5.097
29230W        W90519  18.164   9.786  13.431
29231W        W90520  42.389  14.799   0.742
29232W        W90521  39.902   9.185   5.673
29233W        W90522   9.225  29.447   1.371
29234W        W90523  15.239  17.088  13.423
29235W        W90524  31.003  16.088   0.359
29236W        W90525   4.917  32.977   1.345
29237W        W90526  44.763  25.117  10.561
29238W        W90527   6.423  18.630  13.975
29239W        W90528   2.770   0.448   1.923
29240W        W90529  30.106   1.827   0.323
29241W        W90530   7.188  39.939  11.016
29242W        W90531  25.544  31.134  11.896
29243W        W90532  10.715  24.134  12.447
29244W        W90533   3.787  29.131  13.007
29245W        W90534  26.527  28.986  13.869
29246W        W90535   7.685  30.532   4.202
29247W        W90536  43.386  20.689  10.417
29248W        W90537  10.145   9.194  13.403
29249W        W90538  37.427   1.734  11.547
29250W        W90539  13.193   7.807   0.443
29251W        W90540   8.373  37.576  10.446
29252W        W90541  41.506  33.006  13.312
29253W        W90542   1.795  44.882  12.511
29254W        W90543  23.734  44.386  13.357
29255W        W90544  22.007   5.432  10.447
29256W        W90545  10.648   6.766   0.359
29257W        W90546  28.155  39.348  13.457
29258W        W90547  34.565  30.074   1.430
29259W        W90548  30.600   9.188   3.152
29260W        W90549   0.417   6.803   3.151
29261W        W90550   8.177  22.692   3.375
29262W        W90551  33.396   0.344   2.323
29263W        W90552  17.659  41.979  12.836
29264W        W90553  44.450  16.778  12.881
29265W        W90554   0.865  14.197   5.084
29266W        W90555   0.925  22.741   1.843
29267W        W90556  32.626  14.241   1.748
29268W        W90557  21.114  15.253  13.825
29269W        W90558  22.218  28.591  11.086
29270W        W90559  23.048  43.912   1.729
29271W        W90560  13.198   3.256  11.398
29272W        W90561  13.305  41.020  11.877
29273W        W90562  21.260  11.704  10.411
29274W        W90563   7.289  20.573  13.454
29275W        W90564   3.325  25.628  12.426
29276W        W90565  14.109  37.892   2.321
29277W        W90566  19.707  38.564   3.306
29278W        W90567  43.848  11.243  11.559
29279W        W90568   2.826   9.229  11.110
29280W        W90569   7.744  23.128  10.900
29281W        W90570   3.326  32.462  12.966
29282W        W90571  11.323   9.209   4.698
29283W        W90572  28.112  36.905   3.765
29284W        W90573  11.792  44.265  12.514
29285W        W90574  24.592  33.128   1.375
29286W        W90575  31.567  11.705   2.900
29287W        W90576  13.263  38.560   3.751
29288W        W90577  43.769  27.513   3.698
29289W        W90578  40.020  34.959   4.782
29290W        W90579  41.292  11.802  12.353
29291W        W90580   4.257  25.113   0.889
29292W        W90581  24.681  15.810   4.726
29293W        W90582  17.143  14.646  11.399
29294W        W90583  44.500  30.468  13.524
29295W        W90584  19.554  22.687   0.761
29296W        W90585   2.954  35.859  11.396
29297W        W90586  16.235  21.144   1.733
29298W        W90587  33.988  29.629  13.413
29299W        W90588   0.804  27.598  13.979
29300W        W90589  32.634  30.451   1.740
29301W        W90590  22.687  13.227   0.287
29302W        W90591  17.246  36.505  14.343
29303W        W90592  26.044   0.757  11.928
29304W        W90593   1.826  19.675  12.504
29305W        W90594  37.894  13.811  14.823
29306W        W90595   0.812  29.477   1.776
29307W        W90596  39.871  43.941   0.776
29308W        W90597  29.654  10.797   0.336
29309W        W90598  29.544  25.120  14.027
29310W        W90599  19.177   1.789   1.863
29311W        W90600  40.016  30.529  14.415
29312W        W90601  21.704  19.678   1.786
29313W        W90602  16.193  38.456   5.772
29314W        W90603   4.754  35.933  13.530
29315W        W90604  42.417  35.030  12.027
29316W        W90605  33.385   8.699  11.443
29317W        W90606   8.832  18.705  14.487
29318W        W90607  43.868  37.076  14.805
29319W        W90608  22.725   8.855   1.225
29320W        W90609  18.580  31.996   2.301
29321W        W90610   0.306  40.802  12.426
29322W        W90611  41.007  31.446  12.552
29323W        W90612  27.587  14.777   3.635
29324W        W90613  26.067  10.804   4.180
29325W        W90614  38.037  19.752  12.374
29326W        W90615  21.724   0.393   3.816
29327W        W90616   2.754   8.383   1.914
29328W        W90617  15.723   9.693  14.833
29329W        W90618   7.737  22.500  12.040
29330W        W90619  44.883   9.786   2.277
29331W        W90620  30.505  32.435   2.822
29332W        W90621  19.652  19.215  12.970
29333W        W90622  27.539  10.869   4.187
29334W        W90623  39.813   3.777  13.336
29335W        W90624  12.268  15.797  10.118
29336W        W90625  12.694   5.844   1.750
29337W        W90626   9.747   4.854  12.473
29338W        W90627  20.038   1.291   3.303
29339W        W90628   2.404   8.738  11.379
29340W        W90629  42.446   8.406  13.951
29341W        W90630  37.409  30.511  11.545
29342W        W90631  14.776  32.593   3.219
29343W        W90632  15.163  35.916  14.867
29344W        W90633   1.928  18.180   3.225
29345W        W90634  40.894   4.788   1.731
29346W        W90635  38.872  12.318   2.241
29347W        W90636  21.694  43.995  10.450
29348W        W90637   9.655  43.997  14.303
29349W        W90638  29.121  34.440  14.920
29350W        W90639  26.619  28.443  13.916
29351W        W90640  41.802  13.202  13.332
29352W        W90641  44.959  34.935  14.779
29353W        W90642  29.036  38.477  12.093
29354W        W90643  17.648  23.715   4.710
29355W        W90644  34.440  13.183   4.657
29356W        W90645  44.904  42.984   4.807
29357W        W90646   5.929  30.137  13.908
29358W        W90647  17.175  29.053   1.214
29359W        W90648  16.766  38.073  12.011
29360W        W90649   6.285  26.569   3.301
29361W        W90650  27.613  34.433   3.193
29362W        W90651  33.400  20.566   2.675
29363W        W90652  17.688  15.635   1.391
29364W        W90653   1.340  35.438   3.637
29365W        W90654  42.522   2.241  12.387
29366W        W90655   4.254  15.725  14.767
29367W        W90656  19.226  32.975  14.760
29368W        W90657  14.155   7.718   1.354
29369W        W90658  33.036  23.590  11.464
29370W        W90659  40.314  17.746  11.510
29371W        W90660  44.783  28.944   4.185
29372W        W90661  34.525  34.438   3.764
29373W        W90662  23.498  26.027   2.323
29374W        W90663   5.396  43.009   2.857
29375W        W90664   5.886  22.637   3.747
29376W        W90665  25.652  33.469  12.823
29377W        W90666   8.807  24.115  13.509
29378W        W90667  41.013   6.347  11.456
29379W        W90668  38.445   5.926   3.196
29380W        W90669  44.460   6.700  11.586
29381W        W90670  36.877  28.171  14.360
29382W        W90671   5.237  34.956  14.494
29383W        W90672   7.393  30.571   4.293
29384W        W90673  43.509  21.616  14.837
29385W        W90674  15.145  14.264   2.713
29386W        W90675   1.328  35.433  11.418
29387W        W90676  38.365  23.713  13.432
29388W        W90677  32.401  33.879  13.445
29389W        W90678  33.907  26.472  12.881
29390W        W90679  26.646  39.922   1.451
29391W        W90680  42.874  33.962   0.363
29392W        W90681  34.590  35.866   2.795
29393W        W90682  44.871  35.861   3.666
29394W        W90683  27.499  36.955   3.640
29395W        W90684  27.108  44.876  12.039
29396W        W90685   1.347  37.561   1.875
29397W        W90686  31.572  33.411   3.866
29398W        W90687  42.987   8.886  13.034
29399W        W90688  37.925  38.461  12.454
29400W        W90689  19.198   1.340  11.399
29401W        W90690  43.464  26.632   2.790
29402W        W90691  33.105   8.329  12.039
29403W        W90692  43.432  11.278  12.444
29404W        W90693  12.276   8.833  14.779
29405W        W90694  23.660  44.999   0.747
29406W        W90695  19.195  25.609   2.835
29407W        W90696  29.473   3.431  11.029
29408W        W90697   3.405  16.726   0.961
29409W        W90698  22.719  16.106   2.226
29410W        W90699  39.047  44.876  12.990
29411W        W90700  37.552  26.951   1.444
29412W        W90701   3.955  27.624  12.554
29413W        W90702  44.794  16.713  13.333
29414W        W90703   8.226  28.647   0.464
29415W        W90704  15.238  33.593   1.445
29416W        W90705   2.300  36.984   3.794
29417W        W90706  24.530  34.988  11.929
29418W        W90707  21.512  15.648  12.383
29419W        W90708  12.336  25.048  14.972
29420W        W90709  29.092  19.711   2.734
29421W        W90710  26.093   5.355  13.418
29422W        W90711  44.452  34.000   2.799
29423W        W90712   1.803  42.519  11.556
29424W        W90713  17.143  28.504  11.097
29425W        W90714  29.988  33.126   0.945
29426W        W90715  10.324  37.884  12.463
29427W        W90716   4.388  20.218  11.965
29428W        W90717  28.465   5.416   4.158
29429W        W90718  19.236  27.066   3.787
29430W        W90719  29.995  11.279   1.298
29431W        W90720  41.353  37.533  11.973
29432W        W90721  39.932  28.510  12.559
29433W        W90722  26.208  26.607  12.975
29434W        W90723  27.967  18.693   1.386
29435W        W90724   5.252  12.174  11.042
29436W        W90725  17.670  16.124   1.388
29437W        W90726  26.509  33.607  14.463
29438W        W90727  13.635  11.743  12.959
29439W        W90728  13.320   7.340  13.803
29440W        W90729  24.001  25.216  11.580
29441W        W90730  30.490  43.514  14.930
29442W        W90731   4.781  20.148   3.209
29443W        W90732   0.805  43.439   3.235
29444W        W90733  10.239  28.091  14.798
29445W        W90734  26.681  36.964  13.001
29446W        W90735  28.027  37.020  10.551
29447W        W90736  12.629  19.085  13.352
29448W        W90737   3.756  20.613   3.282
29449W        W90738  38.077  36.536  14.331
29450W        W90739  23.718   2.435  10.412
29451W        W90740  20.037   8.782  13.052
29452W        W90741   5.260  32.458  13.516
29453W        W90742  40.807  35.440   1.891
29454W        W90743  22.721   6.888  12.562
29455W        W90744  37.353  40.307   4.320
29456W        W90745  25.579  14.619   4.266
29457W        W90746  37.903  32.976  11.598
29458W        W90747   6.196  22.639  11.508
29459W        W90748  32.538   9.247   1.220
29460W        W90749  15.589   6.873   2.263
29461W        W90750   3.935  32.962  13.023
29462W        W90751  31.908  36.039   1.875
29463W        W90752  24.615  10.212   0.347
29464W        W90753   9.741  31.414   4.697
29465W        W90754  25.033   0.968   2.806
29466W        W90755   8.337  30.073  12.363
29467W        W90756  35.087   6.235  10.975
29468W        W90757  34.531   5.212   3.830
29469W        W90758  26.487  13.177   0.311
29470W        W90759  24.582  36.546   4.251
29471W        W90760  14.204   5.888  10.631
29472W        W90761   4.943  34.934  12.867
29473W        W90762   3.419  19.747   4.215
29474W        W90763  23.733  43.946   4.203
29475W        W90764  34.514   5.433   4.148
29476W        W90765  11.789  24.124  10.085
29477W        W90766   5.216  24.695   1.823
29478W        W90767  43.383  11.775  10.924
29479W        W90768  29.131  39.032  10.901
29480W        W90769  36.372  35.551  13.833
29481W        W90770  27.018   9.337   3.238
29482W        W90771   5.323  34.456  13.385
29483W        W90772  24.144  17.631   0.357
29484W        W90773  27.126   7.753   0.934
29485W        W90774  27.968  29.592   1.249
29486W        W90775  41.895  41.965   5.209
29487W        W90776  24.619  11.319   2.330
29488W        W90777  28.044   1.799  13.405
29489W        W90778   1.958  28.589   0.887
29490W        W90779  15.725  40.376  12.845
29491W        W90780  20.084  30.529  13.423
29492W        W90781  25.521   6.795  13.820
29493W        W90782   9.725  19.084   2.283
29494W        W90783   0.268  20.553  11.889
29495W        W90784  17.111   3.799   3.649
29496W        W90785   3.441  23.619  13.321
29497W        W90786  26.152   9.237  13.865
29498W        W90787  41.314  37.854   0.437
29499W        W90788   0.446  24.039  11.962
29500W        W90789  39.038   3.436  12.425
29501W        W90790  14.297  24.559  13.512
29502W        W90791  15.279   0.954  13.802
29503W        W90792  22.732  34.405  11.414
29504W        W90793  17.211   2.754  14.003
29505W        W90794  38.063  40.419  11.025
29506W        W90795  36.065  13.141  12.351
29507W        W90796  38.491  35.011  13.851
29508W        W90797  23.524  33.601   0.307
29509W        W90798  13.619  30.096  11.588
29510W        W90799  42.022  12.207  13.930
29511W        W90800  29.979  18.130   4.258
29512W        W90801  16.740  21.061   1.768
29513W        W90802  22.692  25.599   3.367
29514W        W90803  14.620  31.000  11.106
29515W        W90804  13.322  23.120  12.942
29516W        W90805  22.217  16.623  13.511
29517W        W90806  40.347  36.886   2.794
29518W        W90807  30.133  12.832  11.004
29519W        W90808  10.856   4.247  14.326
29520W        W90809  25.080  17.563   2.187
29521W        W90810  33.927   5.265   2.192
29522W        W90811  14.334  22.514   4.341
29523W        W90812  41.538   5.386   1.794
29524W        W90813   8.843  24.723  14.912
29525W        W90814  33.041  23.668   4.828
29526W        W90815  15.179  18.549   2.723
29527W        W90816  35.088  40.048   4.267
29528W        W90817   1.923  37.420  13.482
29529W        W90818  16.121  13.812  13.404
29530W        W90819  16.264  12.305   2.799
29531W        W90820   4.828  12.610   4.700
29532W        W90821   7.276  35.927  13.977
29533W        W90822  11.161  22.662  10.421
29534W        W90823  41.473   4.376   1.828
29535W        W90824   9.189  17.157  12.859
29536W        W90825  19.051  43.823   2.788
29537W        W90826   6.207  43.003   0.893
29538W        W90827  42.484  22.138  12.942
29539W        W90828  18.658  24.638  14.436
29540W        W90829   9.355   6.196   2.414
29541W        W90830   8.773  43.003  10.106
29542W        W90831   9.730   9.371   4.839
29543W        W90832   4.763   2.943   3.739
29544W        W90833  42.404  34.949   1.911
29545W        W90834   3.434   3.829  13.824
29546W        W90835  30.649  43.359   1.387
29547W        W90836  15.720   5.905  12.968
29548W        W90837  17.233   5.200  10.989
29549W        W90838  37.554  32.113  11.114
29550W        W90839  43.507  16.219  11.945
29551W        W90840  39.342  25.574   1.290
29552W        W90841  33.615   3.894   0.911
29553W        W90842  18.594   0.266  14.002
29554W        W90843  20.683  26.063   2.812
29555W        W90844  14.196  11.140  10.949
29556W        W90845  41.023  17.751  12.376
29557W        W90846  13.288  10.160   3.748
29558W        W90847   8.215  13.186  12.541
29559W        W90848  33.405   1.291   2.260
29560W        W90849  30.565  20.724  13.384
29561W        W90850   9.885  25.165   3.309
29562W        W90851  18.256  12.754   2.310
29563W        W90852  25.617  15.810   1.302
29564W        W90853  37.000  37.514  12.494
29565W        W90854  18.103   8.823   1.921
29566W        W90855  33.380  16.178  14.909
29567W        W90856  33.984   2.297   5.293
29568W        W90857  27.966  19.720   0.754
29569W        W90858  43.007  22.633   3.711
29570W        W90859  33.082  41.484   2.669
29571W        W90860  22.225  27.142  13.369
29572W        W90861  26.122  29.664  14.356
29573W        W90862  42.377  17.297   0.437
29574W        W90863  18.620  20.118  13.828
29575W        W90864  19.772  36.083   2.289
29576W        W90865  44.805  26.199  11.506
29577W        W90866  40.350  38.345   1.934
29578W        W90867  35.019   9.825   2.830
29579W        W90868   2.296  43.789  12.408
29580W        W90869  31.441  10.829  11.899
29581W        W90870  33.947  34.032   3.766
29582W        W90871  38.844  31.489   3.146
29583W        W90872  31.063  18.712   1.400
29584W        W90873  33.456  36.537   2.224
29585W        W90874  13.707  36.971  10.045
29586W        W90875  18.233  35.490   1.866
29587W        W90876  15.269  41.489  11.436
29588W        W90877  40.876  42.308  11.986
29589W        W90878  41.513  12.712   0.938
29590W        W90879  19.097   1.383   2.681
29591W        W90880  14.654  17.614   1.229
29592W        W90881   6.854  12.620  14.919
29593W        W90882  26.051   4.339  14.378
29594W        W90883  24.538  23.075   0.940
29595W        W90884  10.187  27.144  14.763
29596W        W90885  36.871  16.577  10.124
29597W        W90886   5.353  15.298   0.781
29598W        W90887  32.601   5.732   2.765
29599W        W90888   0.762  40.880   0.789
29600W        W90889  23.489  40.339  11.603
29601W        W90890   2.441  13.186   1.267
29602W        W90891  14.137  39.988  11.406
29603W        W90892  27.675  40.929   3.182
29604W        W90893   0.930   5.289   0.322
29605W        W90894  35.358  35.424   0.340
29606W        W90895  39.017  31.992  12.958
29607W        W90896   6.713  21.054  11.467
29608W        W90897  11.755  43.370  12.027
29609W        W90898   6.195  12.819   2.832
29610W        W90899  13.200  33.536  13.028
29611W        W90900  12.623  21.533  10.477
29612W        W90901   3.400   4.205   4.804
29613W        W90902  37.391  13.606  13.997
29614W        W90903  33.035  38.552  11.904
29615W        W90904  35.036  11.850  12.471
29616W        W90905  24.691  14.258   4.773
29617W        W90906  14.674  15.620  14.911
29618W        W90907   2.927  43.499  13.533
29619W        W90908  22.211  31.088   4.807
29620W        W90909  31.055  35.570  14.989
29621W        W90910  29.005   7.695   3.187
29622W        W90911  27.027   7.253  14.278
29623W        W90912   0.318  43.808   1.783
29624W        W90913  34.543  14.150  13.880
29625W        W90914  13.678   2.248  14.760
29626W        W90915   1.311  26.575   4.833
29627W        W90916  23.718  17.163  12.371
29628W        W90917   8.236  26.585  11.949
29629W        W90918  34.545  27.449   3.324
29630W        W90919  19.707  23.639   3.161
29631W        W90920   0.886  36.842   3.340
29632W        W90921  19.755  36.356  14.364
29633W        W90922  19.240  14.685   0.872
29634W        W90923  15.803  22.155  11.609
29635W        W90924   9.367  41.870   3.347
29636W        W90925  44.483   9.855   1.792
29637W        W90926   3.938  22.100  13.316
29638W        W90927  37.881  42.331   4.668
29639W        W90928  16.800  32.393  12.075
29640W        W90929  42.401  42.888  12.382
29641W        W90930  12.717  30.655  13.533
29642W        W90931  18.244  34.095   0.912
29643W        W90932   8.194  30.443   5.315
29644W        W90933  19.255  41.996  11.477
29645W        W90934  22.031  15.638  13.022
29646W        W90935  25.119   4.408  12.893
29647W        W90936  11.700  44.832   2.788
29648W        W90937  22.195  26.530   2.302
29649W        W90938  23.727  13.691   2.355
29650W        W90939  30.562   2.469   4.309
29651W        W90940  24.514  37.357  14.459
29652W        W90941  10.304   8.262   3.252
29653W        W90942  33.067  13.259  11.443
29654W        W90943  33.574  31.523   0.332
29655W        W90944  34.016   6.910   3.385
29656W        W90945  35.397  16.667   9.488
29657W        W90946  33.601  36.421  11.536
29658W        W90947  24.576   1.334  11.427
29659W        W90948  20.124   1.952   2.815
29660W        W90949   1.265  35.976   3.718
29661W        W90950   1.864   8.395  12.436
29662W        W90951  15.732   6.194   0.285
29663W        W90952  28.650   3.274  11.540
29664W        W90953  26.513  32.443   3.774
29665W        W90954  19.607  24.707  14.405
29666W        W90955   3.266  31.569   3.720
29667W        W90956  31.572  23.093  13.888
29668W        W90957   5.816  30.413  12.967
29669W        W90958   0.862   9.337   5.187
29670W        W90959  19.202  31.007  12.969
29671W        W90960  31.480  34.890   1.415
29672W        W90961   8.865  27.122  14.332
29673W        W90962  30.500  42.030   2.750
29674W        W90963  34.006   8.334  10.413
29675W        W90964   4.355   9.220  11.462
29676W        W90965   0.448  33.923   4.144
29677W        W90966  14.746  16.622  10.472
29678W        W90967  24.047   4.821   4.353
29679W        W90968  10.800  42.384   0.942
29680W        W90969  27.118  17.800   2.253
29681W        W90970   7.861   4.727  13.890
29682W        W90971  16.583  44.505   2.718
29683W        W90972  22.169  23.023  10.527
29684W        W90973  12.344  20.052  11.015
29685W        W90974   3.716  37.447  14.453
29686W        W90975  25.585  27.121   0.279
29687W        W90976  44.865  19.226  12.400
29688W        W90977  17.157  27.026   0.428
29689W        W90978  15.092   8.388   4.621
29690W        W90979  15.819  12.624   1.236
29691W        W90980  13.217  34.906   3.366
29692W        W90981  22.623   0.260  12.079
29693W        W90982   0.337  41.510  13.893
29694W        W90983  22.236  14.267  14.906
29695W        W90984  35.956  14.238  11.487
29696W        W90985  41.430  38.469  11.391
29697W        W90986  35.476  17.181   2.408
29698W        W90987  34.605  25.531  13.542
29699W        W90988  36.861   7.306  12.000
29700W        W90989  11.320  17.062   3.792
29701W        W90990  11.842  31.446  13.491
29702W        W90991  12.691  23.987  13.930
29703W        W90992  24.684  21.706   0.866
29704W        W90993  29.081  22.026  13.853
29705W        W90994   7.337  37.440   4.789
29706W        W90995  12.634  26.131  11.118
29707W        W90996  26.554  36.928  11.524
29708W        W90997   3.226  18.724   5.179
29709W        W90998  31.453  26.691   2.695
29710W        W90999   9.653  12.179  14.494
29711W        W91000  15.106  30.496   2.180
29712W        W91001  36.581  18.590   3.230
29713W        W91002   3.829  18.066  10.534
29714W        W91003  14.245  36.844   1.384
29715W        W91004  23.606   6.847   4.154
29716W        W91005  35.887   0.960  12.357
29717W        W91006  29.923  34.605  11.106
29718W        W91007  10.639   1.455  13.987
29719W        W91008  24.166  27.149  12.433
29720W        W91009  30.146  12.257  11.043
29721W        W91010  34.954  44.775   1.289
29722W        W91011  40.377  37.378   4.680
29723W        W91012   0.830  21.099   2.188
29724W        W91013  24.216  28.038  14.824
29725W        W91014  23.564   7.211   0.869
29726W        W91015  24.606  44.323   9.922
29727W        W91016  22.065  33.507   3.173
29728W        W91017  19.183  38.016   3.679
29729W        W91018   1.822   0.749  13.889
29730W        W91019  20.037  17.171  14.318
29731W        W91020  16.144  19.095   3.864
29732W        W91021  26.587  26.988  14.382
29733W        W91022   0.306  36.375   0.397
29734W        W91023  41.518  42.516  13.033
29735W        W91024  41.043  35.051  12.852
29736W        W91025  37.845  23.549  11.943
29737W        W91026  31.456  42.439   3.754
29738W        W91027  18.658  11.248   2.800
29739W        W91028  15.307  22.124   3.234
29740W        W91029  21.148  39.951   1.314
29741W        W91030  15.326   9.770   2.197
29742W        W91031  13.845  12.221  13.950
29743W        W91032  39.383  36.384   0.894
29744W        W91033  13.163  36.424  10.039
29745W        W91034  23.116  18.171  12.398
29746W        W91035  40.407  12.165  11.591
29747W        W91036  32.428   3.787   2.395
29748W        W91037  44.385  33.118  14.888
29749W        W91038  31.553  40.485  13.927
29750W        W91039  37.933  16.627   2.882
29751W        W91040   4.718   4.368  10.444
29752W        W91041  17.578  24.579   1.449
29753W        W91042  25.649  36.075  10.094
29754W        W91043  29.508  22.105   4.751
29755W        W91044   1.928   6.774  13.548
29756W        W91045  26.010  10.354  11.544
29757W        W91046  23.540  35.901  12.416
29758W        W91047  22.555  20.746   1.764
29759W        W91048  42.988  28.932   4.242
29760W        W91049  40.538  33.431   0.269
29761W        W91050  39.977   9.708  11.597
29762W        W91051  24.095  34.583   3.361
29763W        W91052  17.620  33.118  12.024
29764W        W91053  44.452  29.041  13.508
29765W        W91054  25.212  23.995   4.621
29766W        W91055  20.209  13.842  12.443
29767W        W91056   3.422  16.175   2.293
29768W        W91057   5.848  26.621   2.768
29769W        W91058  28.949  32.633  10.441
29770W        W91059  16.092  35.959  11.004
29771W        W91060  18.714   8.841   5.213
29772W        W91061  22.192  31.905  10.999
29773W        W91062   1.269   2.765   3.840
29774W        W91063   3.377  15.778  10.064
29775W        W91064  29.434  36.884   4.315
29776W        W91065   8.674  39.810  13.930
29777W        W91066   8.374  39.849  13.924
29778W        W91067  33.580  38.332  12.062
29779W        W91068  29.090  38.568   2.842
29780W        W91069  27.109  43.418   3.317
29781W        W91070  44.917   8.849   9.606
29782W        W91071  12.806  30.584  11.875
29783W        W91072  41.420  24.083   0.317
29784W        W91073  26.676  24.505   1.922
29785W        W91074  38.533  28.437   0.811
29786W        W91075  23.068   8.807   4.212
29787W        W91076  11.725  39.880   4.662
29788W        W91077  18.243  35.885   0.263
29789W        W91078  42.510  30.930  13.488
29790W        W91079   8.360  27.552  14.510
29791W        W91080  42.496  13.769   3.637
29792W        W91081  29.094  14.630  10.492
29793W        W91082   0.854   7.310   2.362
29794W        W91083  21.578  37.571   0.333
29795W        W91084  26.472  28.629  13.511
29796W        W91085  38.366   7.801  10.955
29797W        W91086  11.825  27.194  14.465
29798W        W91087   6.398  32.542  13.487
29799W        W91088   5.735  23.225   0.325
29800W        W91089  30.090  41.463  14.918
29801W        W91090   4.223   0.980   1.364
29802W        W91091  22.740  37.974  12.010
29803W        W91092  14.121  19.637   2.213
29804W        W91093  29.561   7.910   4.727
29805W        W91094  34.429  26.202   4.666
29806W        W91095  24.140  11.292   1.804
29807W        W91096  36.570  41.855  10.944
29808W        W91097   0.809  19.099  12.411
29809W        W91098  12.773  22.061  12.968
29810W        W91099  43.439  31.499   2.686
29811W        W91100  30.601   0.745   3.260
29812W        W91101  41.481  30.439   4.726
29813W        W91102   0.297   3.412  12.370
29814W        W91103  24.516  38.340  11.961
29815W        W91104  41.831  45.000   3.335
29816W        W91105  41.472   4.410   2.398
29817W        W91106  13.649  24.571  11.607
29818W        W91107  16.810  30.982   4.698
29819W        W91108  41.428   5.257   0.338
29820W        W91109   5.330  35.048   1.210
29821W        W91110  21.077  11.858  14.432
29822W        W91111   1.314  21.593   3.639
29823W        W91112  28.973  17.567   2.380
29824W        W91113  35.010  39.897   1.798
29825W        W91114  16.607  35.985  12.474
29826W        W91115  32.493  43.488   3.669
29827W        W91116  27.990  28.444  14.313
29828W        W91117  34.471  24.497  13.372
29829W        W91118   9.876  13.129  12.833
29830W        W91119  29.006  11.350  14.792
29831W        W91120   3.810  12.248  14.457
29832W        W91121  34.919  15.578   0.915
29833W        W91122   2.239  32.111   4.179
29834W        W91123   6.202  32.013  10.998
29835W        W91124  44.978  32.631  13.511
29836W        W91125   1.460  42.374  13.982
29837W        W91126  32.441   6.714   1.825
29838W        W91127   2.956  17.748   0.955
29839W        W91128  36.019  10.210  13.880
29840W        W91129  23.616  20.087  14.879
29841W        W91130   8.250  37.412   3.202
29842W        W91131   0.870  24.509  11.862
29843W        W91132   8.179  37.043   1.884
29844W        W91133   1.906  29.021   1.715
29845W        W91134  29.108   8.674  12.999
29846W        W91135  24.208  33.458   4.661
29847W        W91136  20.760  28.106  10.981
29848W        W91137  12.348  40.324  13.013
29849W        W91138  26.159  21.080  11.123
29850W        W91139  20.712  44.419   3.773
29851W        W91140  23.561  21.062   1.450
29852W        W91141  37.855  23.711  11.110
29853W        W91142  37.030  28.523   4.236
29854W        W91143  33.505  30.555  10.979
29855W        W91144   1.377  40.914  10.625
29856W        W91145  36.905  21.028   2.848
29857W        W91146  28.666   6.718   3.859
29858W        W91147   0.406  38.961   3.849
29859W        W91148  32.891   9.281   1.309
29860W        W91149  32.459   5.390   0.916
29861W        W91150  15.820   9.247  11.038
29862W        W91151   8.375   3.740   0.412
29863W        W91152  23.665  24.640  12.869
29864W        W91153  36.935  34.917   1.879
29865W        W91154  31.404  14.251  11.093
29866W        W91155   2.447  43.864  10.920
29867W        W91156   9.368  35.014   4.806
29868W        W91157  34.477   0.931  10.458
29869W        W91158   5.854  12.358   2.873
29870W        W91159  12.214  11.175   0.815
29871W        W91160  40.333  17.712  14.422
29872W        W91161  22.118  32.107   0.899
29873W        W91162  11.132   6.896  12.504
29874W        W91163  39.849  34.919  12.995
29875W        W91164  39.885  40.854  13.879
29876W        W91165  43.303  41.953   2.753
29877W        W91166  32.989   6.334  10.919
29878W        W91167   2.743   9.371   4.682
29879W        W91168   2.828  23.237   3.847
29880W        W91169   1.480   3.298  12.522
29881W        W91170  12.362  28.502  11.486
29882W        W91171  25.583   6.883  13.492
29883W        W91172  15.744  25.215  11.017
29884W        W91173  44.001   6.698   1.701
29885W        W91174  34.887  11.145   2.860
29886W        W91175   7.801  32.511   2.192
29887W        W91176  33.445  11.849   2.881
29888W        W91177   4.321  21.736  10.526
29889W        W91178  31.520  12.612   2.782
29890W        W91179   1.275  32.963   4.640
29891W        W91180  31.430   5.302   3.151
29892W        W91181  41.487   9.324   0.399
29893W        W91182  22.191   1.372  10.520
29894W        W91183  33.088  19.129  14.885
29895W        W91184  15.592  22.541   1.351
29896W        W91185  16.293  37.976   0.351
29897W        W91186  27.582   7.178  13.821
29898W        W91187  37.539  13.345  14.366
29899W        W91188  29.007   3.860   4.823
29900W        W91189   5.738  11.668   1.415
29901W        W91190  39.408  44.476  11.036
29902W        W91191   6.230   6.300   3.168
29903W        W91192  10.792  41.965  13.816
29904W        W91193  30.632  44.945   3.368
29905W        W91194   7.742   7.296  13.908
29906W        W91195   8.176  40.342   4.669
29907W        W91196  27.628  11.197  10.083
29908W        W91197  15.285  43.496   0.849
29909W        W91198  19.760  27.956  13.023
29910W        W91199  23.704  12.221  14.817
29911W        W91200  15.191  14.108  12.904
29912W        W91201  18.742  20.125   4.165
29913W        W91202  15.219   2.932   0.457
29914W        W91203  22.201  19.043  12.445
29915W        W91204  42.937  17.718  12.435
29916W        W91205  10.739  16.139  12.039
29917W        W91206   0.486  41.369   2.343
29918W        W91207  18.224  20.562   1.813
29919W        W91208  23.629   2.465   2.364
29920W        W91209  24.664   3.891  13.543
29921W        W91210  35.514  42.296  13.798
29922W        W91211  13.660  20.077   2.727
29923W        W91212  39.058   1.757  10.451
29924W        W91213  14.726   4.262  12.403
29925W        W91214   4.416  37.540  11.424
29926W        W91215  15.325  13.156   0.784
29927W        W91216  36.561  22.092   1.362
29928W        W91217  16.287  44.466  10.490
29929W        W91218  13.676  11.766  13.961
29930W        W91219  35.882  20.573   4.758
29931W        W91220   7.321  22.081   4.326
29932W        W91221   2.435  29.667  11.589
29933W        W91222  16.626  31.030   3.368
29934W        W91223  42.421   0.388   2.894
29935W        W91224  22.217  16.109  13.508
29936W        W91225  28.008  21.655  13.907
29937W        W91226  11.735   7.912  11.010
29938W        W91227   5.722  36.074   0.268
29939W        W91228  24.518  37.380  12.553
29940W        W91229  29.600  15.094  13.956
29941W        W91230  24.679  24.522   0.458
29942W        W91231  39.906  27.618   3.684
29943W        W91232  36.008  28.606  14.440
29944W        W91233  35.071   4.379   2.695
29945W        W91234  33.529  22.744  12.041
29946W        W91235  17.579  31.125   2.286
29947W        W91236  39.012  38.559   9.951
29948W        W91237  27.617  22.561  13.938
29949W        W91238  25.136   2.467   3.787
29950W        W91239   7.772  40.874  12.955
29951W        W91240  38.479  16.629  13.812
29952W        W91241   7.707  36.927   4.118
29953W        W91242   7.190   0.458  11.938
29954W        W91243  32.568  22.167   1.383
29955W        W91244  20.077  19.148  10.613
29956W        W91245  13.331  28.593   4.218
29957W        W91246  19.171  42.432  12.853
29958W        W91247  27.001  26.503   2.736
29959W        W91248  32.892  21.161  13.338
29960W        W91249  40.042  32.614   0.940
29961W        W91250  15.198  22.652  10.889
29962W        W91251  16.223   3.453  11.911
29963W        W91252   9.874  23.146  14.934
29964W        W91253  19.768   8.323   2.677
29965W        W91254  27.197  24.546  14.819
29966W        W91255   1.770  38.414  10.950
29967W        W91256   2.345  33.547   3.844
29968W        W91257  31.546  15.791  10.517
29969W        W91258  38.409  12.706   2.239
29970W        W91259  20.202  11.241   1.351
29971W        W91260  42.464  28.937   3.360
29972W        W91261   8.320  19.199   4.680
29973W        W91262   1.815  21.091  13.527
29974W        W91263  24.041   8.375   2.243
29975W        W91264  23.555  33.891   3.715
29976W        W91265  18.665  16.199  12.047
29977W        W91266  27.146  39.981   1.337
29978W        W91267  28.613  30.583  13.874
29979W        W91268  24.172  36.918  12.575
29980W        W91269  19.647  38.991  12.413
29981W        W91270   7.684   2.840  13.019
29982W        W91271  18.618   5.310   3.723
29983W        W91272  19.222  11.153  12.960
29984W        W91273  39.377  16.175  13.819
29985W        W91274  22.660   9.199  14.808
29986W        W91275  40.343  38.027   2.334
29987W        W91276  17.619   8.687  11.476
29988W        W91277   8.690  17.731  11.947
29989W        W91278  32.602  21.038  12.855
29990W        W91279   5.862  13.196   2.892
29991W        W91280  16.209  43.417  14.406
29992W        W91281  38.951  42.316  13.397
29993W        W91282   5.742   4.413  14.905
29994W        W91283  23.115  23.124   3.384
29995W        W91284  36.862  17.300   5.609
29996W        W91285  20.739  43.362   3.811
29997W        W91286  26.616  44.351   5.235
29998W        W91287  12.757  25.632   4.807
29999W        W91288   5.756   1.277  10.562
30000W        W91289  10.290   2.852  14.841
30001W        W91290  33.511  13.278   1.729
30002W        W91291  38.980  12.306  12.434
30003W        W91292  33.076  16.772   2.813
30004W        W91293  15.265  36.469   9.582
30005W        W91294   8.670  42.338   1.306
30006W        W91295  40.495  41.845  13.324
30007W        W91296  21.054  26.058  12.033
30008W        W91297   5.913  29.167  12.539
30009W        W91298   9.364  17.626  12.407
30010W        W91299  24.624  24.034   2.226
30011W        W91300  28.155  29.057  14.772
30012W        W91301  28.602  33.474  11.984
30013W        W91302  30.088  38.821   4.270
30014W        W91303  36.094  38.449  13.816
30015W        W91304   7.324  17.096  12.388
30016W        W91305  23.115  28.435   4.347
30017W        W91306  27.527  39.429   3.312
30018W        W91307  38.048  35.033   1.711
30019W        W91308  20.258   2.348   2.700
30020W        W91309  37.073   6.402   2.805
30021W        W91310   6.288  33.497  11.917
30022W        W91311  41.394   5.341  14.026
30023W        W91312  23.991  44.804  13.858
30024W        W91313  13.686   8.216  14.345
30025W        W91314  15.283  24.716  11.570
30026W        W91315  17.187   8.661  13.806
30027W        W91316  23.235  36.553  10.511
30028W        W91317  42.878  21.736  10.599
30029W        W91318   5.362  33.090   3.238
30030W        W91319  20.221  41.031   1.437
30031W        W91320   7.843  33.613  10.431
30032W        W91321   4.850  28.155  13.446
30033W        W91322  38.968  26.015  13.441
30034W        W91323   7.831  31.998   0.763
30035W        W91324  34.935  21.225  13.844
30036W        W91325  15.228  24.697  14.291
30037W        W91326   5.856  29.486   2.339
30038W        W91327   1.358  41.789  13.918
30039W        W91328  40.826  25.183   0.379
30040W        W91329  18.050   0.473   1.357
30041W        W91330  12.838  26.608   5.321
30042W        W91331  26.544  41.520   1.759
30043W        W91332  22.613  42.881   4.241
30044W        W91333  37.549   2.402   0.889
30045W        W91334   9.352  38.988   1.357
30046W        W91335  39.392  29.052   2.341
30047W        W91336   8.674   3.927  14.957
30048W        W91337  11.153  37.952  11.978
30049W        W91338  32.401   8.817   5.159
30050W        W91339  13.828   6.369   1.710
30051W        W91340   9.785  33.012   2.710
30052W        W91341  19.093  36.940   3.693
30053W        W91342  20.136   4.347   3.657
30054W        W91343  27.139  16.234  10.533
30055W        W91344   5.296   2.318  11.588
30056W        W91345  26.592  26.670  11.455
30057W        W91346  31.544  14.686   3.251
30058W        W91347  13.688  13.729   1.312
30059W        W91348  33.995  43.790  14.030
30060W        W91349  10.750  39.048   3.830
30061W        W91350  28.027  13.136   3.255
30062W        W91351  24.988  26.965  14.917
30063W        W91352  17.134  11.132  14.281
30064W        W91353  23.491   4.726   1.696
30065W        W91354   7.327  25.122   2.727
30066W        W91355  38.453  13.234   0.263
30067W        W91356  40.394  30.653   1.416
30068W        W91357  20.649  23.733   1.929
30069W        W91358  35.504  11.832  14.944
30070W        W91359   4.275  21.161   0.858
30071W        W91360  23.180  30.444   4.825
30072W        W91361   2.815   7.852   0.917
30073W        W91362  37.384  31.631   1.872
30074W        W91363   2.398   5.357   2.359
30075W        W91364  23.672  43.022   0.810
30076W        W91365  18.673  39.325   2.302
30077W        W91366  19.232  26.096  12.922
30078W        W91367  15.288   5.746  11.995
30079W        W91368  40.803  36.864  14.793
30080W        W91369  13.174   8.352  13.052
30081W        W91370  42.311  25.979  13.898
30082W        W91371  39.494  43.506   2.320
30083W        W91372   6.854  28.954   1.364
30084W        W91373  11.774  41.843  14.821
30085W        W91374  34.917  37.964  10.426
30086W        W91375  28.962  10.796  11.405
30087W        W91376  31.535  20.737   2.813
30088W        W91377   6.396  38.537  11.378
30089W        W91378  31.975  41.881   5.182
30090W        W91379   8.697  35.364  13.945
30091W        W91380  35.450   9.228  14.913
30092W        W91381  14.671  32.609  11.472
30093W        W91382   4.412  41.332   0.310
30094W        W91383  40.497  43.444  11.113
30095W        W91384  11.713  44.316   4.195
30096W        W91385  32.517  31.913   4.354
30097W        W91386  16.266  18.184  14.302
30098W        W91387  21.129   6.368   2.781
30099W        W91388  32.107  38.419   1.713
30100W        W91389  30.595   3.915  12.547
30101W        W91390  11.833  20.157   1.900
30102W        W91391  21.158   6.368   3.184
30103W        W91392  26.594  23.227   1.281
30104W        W91393  18.571  27.471  13.848
30105W        W91394   2.252   5.891   1.344
30106W        W91395   3.724  22.238   3.295
30107W        W91396   3.326   8.255   1.434
30108W        W91397   4.330  27.032  10.546
30109W        W91398  29.999   2.318   1.738
30110W        W91399  15.316  43.961   1.858
30111W        W91400  42.470  44.374  10.490
30112W        W91401  13.808   4.704   4.200
30113W        W91402  25.089  35.471  13.877
30114W        W91403  15.146   1.871   2.723
30115W        W91404   3.314   4.845  13.991
30116W        W91405  26.178  19.099  13.482
30117W        W91406  28.680  41.857  13.972
30118W        W91407  38.061   9.863   4.787
30119W        W91408  25.486  40.894   1.920
30120W        W91409  31.578   9.189   4.617
30121W        W91410  10.262  44.366  10.614
30122W        W91411  33.973  25.136  10.998
30123W        W91412   6.387  24.489   2.399
30124W        W91413  33.016  18.600  11.042
30125W        W91414  11.325  33.540  11.894
30126W        W91415   2.367  38.533  12.442
30127W        W91416  16.196   4.731  11.455
30128W        W91417  29.976  37.511  13.818
30129W        W91418   9.815  38.938  14.291
30130W        W91419  36.935  31.084   2.801
30131W        W91420   8.772  38.859   3.346
30132W        W91421  19.124   7.302  14.833
30133W        W91422  14.657  39.328  11.592
30134W        W91423   2.770  36.925   3.839
30135W        W91424  26.471  38.891  10.571
30136W        W91425   9.372  11.787   1.243
30137W        W91426  32.017  44.763   4.353
30138W        W91427  40.998  11.707   5.262
30139W        W91428  21.745   3.855  14.972
30140W        W91429   1.896  33.495  10.585
30141W        W91430  28.972  35.358   1.904
30142W        W91431  18.267  22.711   5.118
30143W        W91432  10.307   0.757   3.807
30144W        W91433  20.627  32.518   3.783
30145W        W91434  38.903  31.499   1.889
30146W        W91435  39.334  16.264   4.166
30147W        W91436  10.186  31.589   1.433
30148W        W91437  22.702  35.855  13.497
30149W        W91438  11.367  31.532   4.259
30150W        W91439  35.868   0.908   0.311
30151W        W91440   0.967  38.414   4.143
30152W        W91441  24.177  38.036  10.937
30153W        W91442  19.227  29.576  13.517
30154W        W91443  43.003  14.220  13.339
30155W        W91444  38.024  16.090  11.406
30156W        W91445  22.152  28.028   1.384
30157W        W91446  23.996  11.824  10.892
30158W        W91447  36.576  12.823  13.006
30159W        W91448   6.283  20.726  11.490
30160W        W91449   1.777   6.724   3.796
30161W        W91450  28.048  33.074   4.197
30162W        W91451   6.271  30.486  14.763
30163W        W91452  27.160  33.471  11.433
30164W        W91453  28.104  35.921   3.180
30165W        W91454   7.796  13.621   0.822
30166W        W91455  44.856  25.209   0.899
30167W        W91456  28.057  31.455   0.376
30168W        W91457  38.891  39.904  12.034
30169W        W91458  20.605   7.176  13.823
30170W        W91459  42.988  42.788   3.816
30171W        W91460  21.593  10.243  11.057
30172W        W91461   3.798  14.253   5.270
30173W        W91462  37.546  43.397   1.367
30174W        W91463  13.237  13.730  11.390
30175W        W91464   1.320   7.792  12.514
30176W        W91465  29.462  16.718   1.916
30177W        W91466   4.759  22.006  11.896
30178W        W91467  18.587  33.940  10.575
30179W        W91468  35.553  37.411   4.739
30180W        W91469  37.937   3.359   5.239
30181W        W91470  30.584  12.260  12.559
30182W        W91471  13.131  40.317   3.156
30183W        W91472  23.065  43.836  14.426
30184W        W91473  25.175  22.663   1.426
30185W        W91474  32.628  41.017  14.414
30186W        W91475  32.038   1.318   1.786
30187W        W91476  21.632  24.177  10.133
30188W        W91477  34.029   9.310  14.444
30189W        W91478   3.835  13.839   1.392
30190W        W91479   1.834   1.746   2.830
30191W        W91480  31.537   5.322  13.835
30192W        W91481  10.777  22.663   1.750
30193W        W91482   0.391  11.168   4.349
30194W        W91483  39.337  34.388   3.850
30195W        W91484   7.330  21.738  14.467
30196W        W91485   9.176  13.788   0.742
30197W        W91486  43.809  32.479   1.404
30198W        W91487  36.885  36.448  12.403
30199W        W91488  25.053  32.525  13.374
30200W        W91489  24.578  24.562  12.937
30201W        W91490  25.521  23.038  13.893
30202W        W91491  16.649  10.316  12.958
30203W        W91492  26.114  23.634   0.907
30204W        W91493  34.423  40.378  12.865
30205W        W91494  21.600  43.480   4.688
30206W        W91495  25.137  20.057   1.361
30207W        W91496  38.565   8.223  13.357
30208W        W91497  11.186  13.725   3.259
30209W        W91498   8.879  27.636   2.310
30210W        W91499   1.242   8.769  14.989
30211W        W91500  44.834  29.091  13.833
30212W        W91501  21.129  20.264   2.699
30213W        W91502  32.412  21.232  10.644
30214W        W91503  29.569  13.112   0.746
30215W        W91504  10.853   0.971   2.866
30216W        W91505  29.518  21.710   4.746
30217W        W91506   1.878  22.528  11.407
30218W        W91507   7.671  33.581  11.524
30219W        W91508   5.850  35.103   2.392
30220W        W91509  15.719  38.042  13.052
30221W        W91510  13.758  43.338   2.367
30222W        W91511  25.478  15.750   1.892
30223W        W91512  30.945  10.804  13.917
30224W        W91513  27.148   7.725   9.528
30225W        W91514   7.813  13.256  13.043
30226W        W91515  10.353  18.673   2.738
30227W        W91516  13.743  15.701  10.574
30228W        W91517  41.871  18.656   4.294
30229W        W91518  37.083  27.577  13.337
30230W        W91519  25.566  11.303   1.341
30231W        W91520  19.758  40.909   4.683
30232W        W91521  23.656  35.883  11.377
30233W        W91522  23.239   1.892  14.022
30234W        W91523  31.598  36.030  13.007
30235W        W91524  17.701   9.660   4.634
30236W        W91525  13.192  44.999   5.608
30237W        W91526  23.077  30.086  10.431
30238W        W91527  25.034  39.390  12.881
30239W        W91528  10.699  38.524   4.680
30240W        W91529  35.914  24.998  13.934
30241W        W91530  18.229  24.979  13.513
30242W        W91531  17.692  31.095   3.722
30243W        W91532  41.978  16.777   3.268
30244W        W91533  42.450  31.416  13.419
30245W        W91534  16.645  17.655   3.175
30246W        W91535  30.996  26.557  11.075
30247W        W91536   5.217  19.065   0.741
30248W        W91537  26.088  11.820  12.429
30249W        W91538  16.670  14.632   3.641
30250W        W91539   2.295  44.413   4.837
30251W        W91540  28.589  29.131  13.841
30252W        W91541  20.195  26.171  11.049
30253W        W91542   5.858  20.137   1.861
30254W        W91543  44.334  30.145   2.310
30255W        W91544  31.553   0.942   4.149
30256W        W91545   0.892  35.891  13.038
30257W        W91546  35.426  15.789   3.195
30258W        W91547  26.974   9.251  14.809
30259W        W91548  31.941  30.928  13.436
30260W        W91549  17.665  42.351   4.810
30261W        W91550   9.670  14.280  14.412
30262W        W91551  14.590  41.875   4.692
30263W        W91552  32.442  35.467   2.852
30264W        W91553  42.809   7.735   1.893
30265W        W91554  21.576  18.702  14.392
30266W        W91555  34.983  22.631  13.022
30267W        W91556  26.120  22.139  14.816
30268W        W91557  21.067  39.429  12.414
30269W        W91558  44.887   8.249  10.893
30270W        W91559  16.568  42.296  12.927
30271W        W91560   1.289  22.709   4.703
30272W        W91561  15.101  13.622   0.810
30273W        W91562  24.016  41.457   1.451
30274W        W91563  44.942  28.560  13.836
30275W        W91564  12.177   2.252   4.636
30276W        W91565  21.534   6.868  11.558
30277W        W91566  11.175  30.020  13.478
30278W        W91567  40.361  10.660   0.751
30279W        W91568   1.896  37.453  14.954
30280W        W91569  33.967  15.316   0.728
30281W        W91570   3.320  30.503  11.488
30282W        W91571  40.823  14.315  13.897
30283W        W91572  29.606  22.196   3.810
30284W        W91573  16.723  12.776  10.944
30285W        W91574  19.062  28.187  13.989
30286W        W91575  42.937  29.083  11.976
30287W        W91576  35.451  24.164  14.487
30288W        W91577  22.612  24.012   0.370
30289W        W91578  39.824  28.552   3.153
30290W        W91579  12.703  42.015   2.746
30291W        W91580  21.579  23.578  12.923
30292W        W91581  36.939  31.052  11.029
30293W        W91582  12.611  39.983  13.799
30294W        W91583   7.320  13.730  14.314
30295W        W91584   3.435  38.379  14.809
30296W        W91585  22.731  12.133   4.190
30297W        W91586  37.884  19.152   2.351
30298W        W91587   9.333  24.120   5.276
30299W        W91588  17.118  21.730  14.991
30300W        W91589  10.816  10.203  10.949
30301W        W91590  17.742  32.931  13.454
30302W        W91591  20.053  28.934   0.480
30303W        W91592  41.986   2.436   3.270
30304W        W91593  16.112  18.092   0.329
30305W        W91594  20.741  16.633  12.045
30306W        W91595  22.054  19.710  14.866
30307W        W91596  10.752  32.560   1.775
30308W        W91597  12.841  39.866   3.773
30309W        W91598  19.056  13.250  12.862
30310W        W91599  19.163  31.024  13.936
30311W        W91600  23.671  10.674  13.522
30312W        W91601  37.567  35.950  12.092
30313W        W91602   5.398  37.402  12.026
30314W        W91603  33.563  36.062   9.963
30315W        W91604  43.947   3.827   0.426
30316W        W91605  23.168  34.960  14.323
30317W        W91606  14.302   7.283   2.665
30318W        W91607  15.185  44.314  11.576
30319W        W91608  23.199   6.363   1.912
30320W        W91609  30.941  11.239   4.831
30321W        W91610  26.694  38.824   0.457
30322W        W91611  24.710  42.471  11.533
30323W        W91612  40.404  40.869   2.688
30324W        W91613  12.212   9.362  14.457
30325W        W91614  34.417   3.886  13.890
30326W        W91615  44.984   4.286  13.038
30327W        W91616  40.947  24.119   0.923
30328W        W91617   3.429  24.088   1.270
30329W        W91618   6.380  10.768  11.581
30330W        W91619  20.167  26.019   2.228
30331W        W91620  14.136   6.274   3.765
30332W        W91621  17.746  15.246  10.491
30333W        W91622  26.017  26.484  14.984
30334W        W91623  38.850  16.655   1.893
30335W        W91624  41.449  21.689   0.746
30336W        W91625  17.755  19.681  14.325
30337W        W91626  36.956  32.407  12.884
30338W        W91627  15.122  38.004   4.792
30339W        W91628   3.772  16.158   0.461
30340W        W91629  22.193  38.955  14.277
30341W        W91630   8.732  43.878   0.935
30342W        W91631  36.381  42.791   5.321
30343W        W91632  20.089   0.300   0.858
30344W        W91633  33.936  29.976  11.462
30345W        W91634  28.547  34.869   0.417
30346W        W91635  40.441  20.657  13.979
30347W        W91636  11.796  30.564  13.500
30348W        W91637   5.917   1.890   3.681
30349W        W91638  14.225  22.558   3.796
30350W        W91639  42.787  12.733  12.887
30351W        W91640  26.495  14.274  10.521
30352W        W91641  33.919  40.948   3.168
30353W        W91642  31.587  36.968  10.532
30354W        W91643  38.563   0.356  13.808
30355W        W91644  39.490   2.950  12.875
30356W        W91645  18.270  36.370   3.844
30357W        W91646  34.598  22.201   1.328
30358W        W91647  16.249  39.338   4.276
30359W        W91648  36.066  21.726  14.296
30360W        W91649  40.836  13.829   4.700
30361W        W91650   4.868  30.644   1.401
30362W        W91651  30.592  37.938   3.197
30363W        W91652  22.670  17.752   3.360
30364W        W91653  24.075  24.086   4.809
30365W        W91654  16.572  27.538  12.543
30366W        W91655  34.005  27.640  11.977
30367W        W91656   5.785  42.283  13.897
30368W        W91657   5.438  14.229   3.661
30369W        W91658  16.677  30.921  10.553
30370W        W91659  30.065   6.782  10.494
30371W        W91660   7.860   7.236   5.188
30372W        W91661  23.622  35.939  10.600
30373W        W91662  36.855   2.391  12.859
30374W        W91663  30.466  23.673  13.991
30375W        W91664  20.739  31.126  14.946
30376W        W91665  11.276   7.737  11.442
30377W        W91666  36.415  24.595   4.635
30378W        W91667  29.443  32.987   0.950
30379W        W91668   7.195  43.449  11.533
30380W        W91669  28.618  18.571   1.743
30381W        W91670  29.433  38.536  12.015
30382W        W91671   7.299   5.301   1.771
30383W        W91672   9.644  28.174  11.609
30384W        W91673  37.834  29.473  11.112
30385W        W91674   4.850  17.640   4.750
30386W        W91675  34.094  25.102  12.828
30387W        W91676  17.093  23.673   1.326
30388W        W91677  16.082  41.020  10.617
30389W        W91678  14.242  20.245   3.663
30390W        W91679  20.142  39.884  12.948
30391W        W91680  13.292  21.091   5.591
30392W        W91681  20.630  29.154  14.405
30393W        W91682   5.282  15.257  12.367
30394W        W91683  12.722   5.873   4.733
30395W        W91684  28.455  39.065   1.339
30396W        W91685   5.204  44.386  14.451
30397W        W91686  39.904  21.186  14.325
30398W        W91687   8.660  26.665   4.792
30399W        W91688   4.901  19.776  12.092
30400W        W91689  32.119  24.160   4.808
30401W        W91690  14.335  26.558  12.842
30402W        W91691  30.478   3.454   2.757
30403W        W91692  41.969  32.886  11.890
30404W        W91693  14.271  33.987   2.709
30405W        W91694  21.223  24.024   3.704
30406W        W91695  31.024  28.158  13.403
30407W        W91696   9.723  36.874   5.652
30408W        W91697  39.967   8.868   3.836
30409W        W91698  26.464  16.083  13.522
30410W        W91699  36.560   0.761  10.933
30411W        W91700  39.512  40.371  14.995
30412W        W91701   1.277   1.921  10.441
30413W        W91702  35.568  44.474  11.413
30414W        W91703  28.001  29.466   4.240
30415W        W91704  30.982  44.502   1.300
30416W        W91705  17.564  28.987   4.233
30417W        W91706   2.756   9.303   2.354
30418W        W91707  38.390  43.896   1.782
30419W        W91708   8.760  26.168  12.420
30420W        W91709  34.526  40.511   4.630
30421W        W91710  26.681   3.338  14.359
30422W        W91711  16.656  27.952   1.697
30423W        W91712  38.410  26.104  12.360
30424W        W91713  31.429   4.864   3.745
30425W        W91714  11.736  34.513   3.665
30426W        W91715  23.560  40.320  12.542
30427W        W91716   0.911  43.372  11.595
30428W        W91717  27.682  18.200   2.831
30429W        W91718  32.036   2.878   0.310
30430W        W91719  42.297   7.306   1.311
30431W        W91720   8.311  10.648  12.398
30432W        W91721  14.219   8.844   0.757
30433W        W91722  22.567  17.701   3.718
30434W        W91723  12.837   1.759  11.923
30435W        W91724   3.413  16.600   4.832
30436W        W91725  17.735  10.264  13.017
30437W        W91726  10.668  32.637   0.383
30438W        W91727  41.369  22.996   1.258
30439W        W91728  33.063  41.940   1.924
30440W        W91729  40.500  36.464   3.647
30441W        W91730  16.219  20.209   2.821
30442W        W91731  35.868  42.409  11.446
30443W        W91732  36.924  42.301   2.807
30444W        W91733  18.730  34.985   3.329
30445W        W91734   9.285  18.735   4.661
30446W        W91735  16.631  15.681  10.116
30447W        W91736  15.260  24.047   1.247
30448W        W91737  21.660  40.810   0.452
30449W        W91738  18.729  19.176  12.859
30450W        W91739  29.618  18.237  13.346
30451W        W91740   8.357  39.811  13.020
30452W        W91741  27.619  10.241  14.875
30453W        W91742  37.560  42.929   0.278
30454W        W91743  34.061  30.516   0.746
30455W        W91744  29.551  23.159   1.809
30456W        W91745  41.501  14.261   3.649
30457W        W91746  35.099  20.763  10.940
30458W        W91747  15.104   0.476   2.901
30459W        W91748  12.823  23.693   4.838
30460W        W91749  30.605  20.079  14.391
30461W        W91750   7.207   2.759  14.888
30462W        W91751  10.211  30.088  10.053
30463W        W91752   2.828  13.325  10.901
30464W        W91753  30.913  37.912  12.058
30465W        W91754  18.191  32.937  10.918
30466W        W91755   1.459  36.910  13.345
30467W        W91756   9.258  16.231  11.432
30468W        W91757  36.473  14.257   1.371
30469W        W91758  43.766  29.532   3.237
30470W        W91759  29.064  13.303  11.601
30471W        W91760   3.275   5.858  10.944
30472W        W91761  26.990  35.945  10.988
30473W        W91762  33.478   5.891   4.225
30474W        W91763  43.375   2.273  12.547
30475W        W91764  24.678  32.939  14.349
30476W        W91765  19.632  44.987  13.548
30477W        W91766  11.700  13.737   4.633
30478W        W91767  40.410  26.663   5.236
30479W        W91768  20.739  11.705   3.232
30480W        W91769  26.207  10.264   1.253
30481W        W91770  22.082   6.248   4.702
30482W        W91771  24.531  38.001   0.767
30483W        W91772  28.080  25.064  14.326
30484W        W91773  14.311  13.273  12.539
30485W        W91774  22.216   3.901   4.669
30486W        W91775  13.720  21.116   2.180
30487W        W91776  35.529  33.493   4.748
30488W        W91777   0.896  13.148  12.392
30489W        W91778  21.707  26.187   3.371
30490W        W91779  44.837  42.363   0.889
30491W        W91780  31.017  20.555  11.518
30492W        W91781  28.126  44.777   0.926
30493W        W91782  40.496  26.486  12.499
30494W        W91783  28.071   5.294   4.262
30495W        W91784  42.472  17.152  11.504
30496W        W91785  15.817  16.158  13.378
30497W        W91786  14.590  11.367  12.356
30498W        W91787  16.682  11.140   2.354
30499W        W91788  19.147  12.782   1.781
30500W        W91789  26.493  41.341  11.949
30501W        W91790  38.893  30.090   2.872
30502W        W91791   0.476  18.731  13.488
30503W        W91792  16.099  17.559   0.388
30504W        W91793  25.204   0.294   0.319
30505W        W91794  41.396  36.396  14.834
30506W        W91795  20.571  20.047   0.805
30507W        W91796   5.214  38.500   3.865
30508W        W91797  22.668  35.938  10.928
30509W        W91798  38.415   8.859  10.521
30510W        W91799  17.788  15.626  13.483
30511W        W91800  26.692   4.437  11.041
30512W        W91801  44.951  22.044  14.372
30513W        W91802  20.176  36.414  14.347
30514W        W91803   3.373   5.424   3.798
30515W        W91804  26.641  34.061  13.354
30516W        W91805   8.852  23.196   0.869
30517W        W91806  18.619  13.647   0.244
30518W        W91807  34.930  34.915  12.887
30519W        W91808  31.533  21.726  10.925
30520W        W91809   9.870  15.083  13.338
30521W        W91810  44.368  12.154   1.417
30522W        W91811  18.196   3.831  12.408
30523W        W91812  41.884  32.518   4.192
30524W        W91813  23.080   8.797  13.926
30525W        W91814  38.918   7.872  10.545
30526W        W91815  38.990  27.159  14.027
30527W        W91816  27.479  37.944   3.268
30528W        W91817   3.876   5.407   3.168
30529W        W91818  23.689   9.740   0.815
30530W        W91819  15.734  15.623   3.224
30531W        W91820  25.607  13.348   2.255
30532W        W91821  14.303  31.571  13.499
30533W        W91822  24.098  44.473  12.570
30534W        W91823  29.137  43.822   2.302
30535W        W91824  35.955  11.302  12.089
30536W        W91825  18.124   9.755  12.010
30537W        W91826   7.711  44.953  13.419
30538W        W91827   4.304  37.885  11.532
30539W        W91828  24.487  22.089   2.212
30540W        W91829  12.828  42.335  12.428
30541W        W91830   1.452  16.580   3.770
30542W        W91831  25.157  27.141   4.339
30543W        W91832  29.104  21.684  11.500
30544W        W91833   2.375   6.237  11.855
30545W        W91834   6.396   5.210   3.214
30546W        W91835  24.018  14.206  12.445
30547W        W91836   3.419   8.307   3.247
30548W        W91837   9.804  21.569  13.013
30549W        W91838  12.155   2.936  12.060
30550W        W91839   9.224  24.009  12.969
30551W        W91840  28.645   7.242   4.695
30552W        W91841  35.510   4.437  12.073
30553W        W91842  20.762  35.905  11.578
30554W        W91843  24.631  16.301  11.513
30555W        W91844  30.589  16.770   2.889
30556W        W91845   9.710  22.564  14.292
30557W        W91846   7.677  14.650  14.882
30558W        W91847  25.000  37.434  10.944
30559W        W91848  31.473  31.984   4.127
30560W        W91849  29.021  34.531   1.273
30561W        W91850  20.608  21.214  13.531
30562W        W91851  38.833   9.247   5.247
30563W        W91852  41.003   2.783  11.561
30564W        W91853   2.855   6.687  14.394
30565W        W91854  43.861  25.147   2.386
30566W        W91855  15.281  20.156  14.301
30567W        W91856  21.090  40.444   0.428
30568W        W91857  16.747  11.144   3.826
30569W        W91858   0.954  34.403   3.699
30570W        W91859  24.720   3.956   2.823
30571W        W91860   1.397  35.876  11.396
30572W        W91861  41.966  29.531   1.367
30573W        W91862   3.889  40.315  14.764
30574W        W91863   9.294  26.480  12.562
30575W        W91864  40.391  10.720  13.511
30576W        W91865   7.179  18.633  14.324
30577W        W91866  39.489  27.574  12.421
30578W        W91867  21.536  33.533  12.386
30579W        W91868  38.362  35.974  10.556
30580W        W91869   3.243  42.325   2.838
30581W        W91870  38.883   6.245  14.907
30582W        W91871  21.578  28.056  10.589
30583W        W91872  43.997  16.289  12.396
30584W        W91873  10.235  10.294  12.931
30585W        W91874  41.896   9.301   1.407
30586W        W91875   9.263  28.135   4.820
30587W        W91876  30.483   9.794  12.555
30588W        W91877  35.949   3.284  10.465
30589W        W91878  23.164   2.941  13.058
30590W        W91879   3.382  38.869   0.814
30591W        W91880  22.111  38.487   2.259
30592W        W91881  43.000   4.770   4.796
30593W        W91882  18.757  38.461  12.391
30594W        W91883   6.228  27.183   3.731
30595W        W91884  44.953   5.915  13.351
30596W        W91885  22.072  19.044  13.449
30597W        W91886  28.020  28.158   4.629
30598W        W91887  24.212  18.675   0.939
30599W        W91888  36.542   4.855  12.975
30600W        W91889   6.897  29.458   0.255
30601W        W91890  36.450  44.386   4.621
30602W        W91891  37.486  33.621   1.431
30603W        W91892  20.224   4.323   3.189
30604W        W91893  23.650  41.801  14.821
30605W        W91894  40.483  28.934   2.248
30606W        W91895  35.018  43.386   3.367
30607W        W91896  24.077   4.789   4.721
30608W        W91897  40.459  38.050   0.877
30609W        W91898  32.593   3.874  11.576
30610W        W91899  21.020   5.306   2.902
30611W        W91900  37.481  30.952  14.777
30612W        W91901  11.802   6.397   4.286
30613W        W91902  19.678  19.603  14.872
30614W        W91903   5.356  25.563  10.481
30615W        W91904  44.426  30.585  10.429
30616W        W91905   2.891  34.893  12.835
30617W        W91906  13.178   5.921  10.970
30618W        W91907   7.797  27.593   2.254
30619W        W91908  17.736  29.987  13.052
30620W        W91909  14.648  29.470  12.991
30621W        W91910  43.789  15.801   0.916
30622W        W91911  14.114  40.534   4.599
30623W        W91912   4.772  13.310  11.944
30624W        W91913   8.172  22.592   3.830
30625W        W91914   1.283  17.217  10.446
30626W        W91915  41.439  37.476   1.857
30627W        W91916   3.425  32.532  13.324
30628W        W91917  15.249  18.126   0.423
30629W        W91918   7.779  37.521  14.994
30630W        W91919  33.058  28.489   1.432
30631W        W91920  44.891  23.512  11.528
30632W        W91921  40.853  22.219   2.717
30633W        W91922  32.931  37.016  11.019
30634W        W91923  17.629  20.060  10.633
30635W        W91924  13.725  10.820   3.739
30636W        W91925  33.555   2.238   0.244
30637W        W91926  43.381  32.516   2.667
30638W        W91927  19.119  11.154   1.373
30639W        W91928  16.185  25.203   4.271
30640W        W91929  34.445   3.412   3.771
30641W        W91930  33.385  19.625  11.594
30642W        W91931   9.188  30.961   9.944
30643W        W91932  31.922  27.157  11.112
30644W        W91933  31.482   1.743   5.600
30645W        W91934  32.558  42.444  12.939
30646W        W91935  31.602  17.702   2.210
30647W        W91936  21.200   2.368   3.673
30648W        W91937  31.563  17.662   1.361
30649W        W91938  39.860  41.527   1.758
30650W        W91939   4.887  10.356  10.154
30651W        W91940   7.192   7.274  10.642
30652W        W91941  33.517  34.463  14.830
30653W        W91942  40.540  16.758   3.159
30654W        W91943  14.212  33.614   3.838
30655W        W91944  35.597   0.765  11.092
30656W        W91945  27.080  30.616  14.277
30657W        W91946   4.244  22.070   3.215
30658W        W91947   8.728  43.287   3.824
30659W        W91948  29.590  17.073   5.291
30660W        W91949  28.011  23.687  11.886
30661W        W91950   3.745   2.877   2.727
30662W        W91951  19.648  28.950   0.249
30663W        W91952  29.538  32.398  14.399
30664W        W91953  43.816  39.434   3.179
30665W        W91954  27.945   4.307   0.876
30666W        W91955   4.734  44.754  11.893
30667W        W91956  37.837  15.765  13.312
30668W        W91957  30.032  16.159  14.379
30669W        W91958   1.735  44.809   4.206
30670W        W91959  29.973  20.549   4.290
30671W        W91960  26.086  23.696  14.961
30672W        W91961  34.095   2.821  13.815
30673W        W91962  39.474  10.273  12.483
30674W        W91963  23.122  34.535  13.994
30675W        W91964  20.604   7.887  14.430
30676W        W91965  16.253  43.948  12.018
30677W        W91966  25.964  39.863  11.421
30678W        W91967  13.110  12.330  11.111
30679W        W91968  19.168   0.770  11.078
30680W        W91969  41.433  40.024   3.814
30681W        W91970  29.171  35.413  13.945
30682W        W91971  38.555   8.797   0.942
30683W        W91972  18.187  37.045   2.394
30684W        W91973  26.476  18.686  13.889
30685W        W91974  11.635  29.469   2.852
30686W        W91975  17.766  22.570   0.308
30687W        W91976   7.889  30.944   4.345
30688W        W91977  21.660  11.857  10.601
30689W        W91978  24.151  14.110  14.426
30690W        W91979  36.047  19.769   2.784
30691W        W91980  10.176  37.968   2.389
30692W        W91981  22.745  24.525   2.723
30693W        W91982  10.802   9.181   3.851
30694W        W91983  42.000   9.159   2.183
30695W        W91984  36.910  13.716   3.314
30696W        W91985  31.947   6.857   3.250
30697W        W91986  39.943  16.105   4.748
30698W        W91987  35.405   3.220  11.074
30699W        W91988  22.229  19.555   2.674
30700W        W91989  34.112  11.201  12.417
30701W        W91990   1.246  36.588  14.305
30702W        W91991  35.868  28.592  14.762
30703W        W91992  12.211  33.028   2.900
30704W        W91993   8.861  44.432  13.333
30705W        W91994  32.558   9.171   4.348
30706W        W91995  30.431   5.220   0.924
30707W        W91996  12.668  36.512  10.999
30708W        W91997  24.624   3.244   4.789
30709W        W91998  30.442  34.105  13.409
30710W        W91999   0.884  22.519   2.791
30711W        W92000   3.875  12.641   1.695
30712W        W92001   6.269  23.190   1.823
30713W        W92002  25.496  34.911  14.282
30714W        W92003   1.960  16.219   2.242
30715W        W92004  15.311  26.077   4.288
30716W        W92005  35.020   6.276   3.336
30717W        W92006  31.420  16.702   3.249
30718W        W92007  15.694  12.327   2.329
30719W        W92008  18.066  19.186   1.921
30720W        W92009  18.185  39.499   3.824
30721W        W92010  12.849  42.962  11.085
30722W        W92011   7.396  26.504  13.431
30723W        W92012   5.859  15.707  13.968
30724W        W92013  21.631  37.448  13.370
30725W        W92014  39.530  36.389  13.412
30726W        W92015  44.482  24.146   4.220
30727W        W92016  13.601  34.401   3.843
30728W        W92017  42.882  35.995  12.550
30729W        W92018  36.371  42.483  12.491
30730W        W92019  23.524  34.469  13.892
30731W        W92020  34.507   8.888   4.811
30732W        W92021  40.851   2.346   4.299
30733W        W92022  16.614  42.888  10.526
30734W        W92023  39.371  31.604   3.210
30735W        W92024  37.495   2.760  14.497
30736W        W92025   8.774  26.952  13.043
30737W        W92026  12.760  36.554   4.186
30738W        W92027  39.864  44.782   4.698
30739W        W92028  22.536  17.712  12.494
30740W        W92029   6.355  34.876   3.718
30741W        W92030   3.402  27.990  12.476
30742W        W92031   0.891  39.444   2.387
30743W        W92032  41.811  33.948  14.396
30744W        W92033  38.974  18.094  10.522
30745W        W92034  41.365  38.397   0.302
30746W        W92035  22.112  31.963  14.818
30747W        W92036  13.316  33.567  14.891
30748W        W92037  27.966  18.056   3.734
30749W        W92038  31.947  16.642  14.458
30750W        W92039  18.760   7.365  10.075
30751W        W92040   3.893  42.900   2.203
30752W        W92041  15.114  41.361   4.304
30753W        W92042   0.448  39.004  12.532
30754W        W92043  11.185  24.481  14.825
30755W        W92044  34.436  20.084   0.259
30756W        W92045  17.288   7.377   3.255
30757W        W92046  12.213  30.475   0.340
30758W        W92047  16.679   3.353  10.958
30759W        W92048  41.818  10.268   3.726
30760W        W92049  27.510  34.869  11.523
30761W        W92050  36.371  27.136   2.249
30762W        W92051  20.251  41.821   4.248
30763W        W92052   8.781  33.554   1.751
30764W        W92053  26.607  30.038  10.556
30765W        W92054  18.698   7.795  12.510
30766W        W92055   0.357  43.309  12.011
30767W        W92056  17.710  29.603   3.304
30768W        W92057  12.293  13.612   1.717
30769W        W92058  13.106  34.993   4.327
30770W        W92059  41.308  12.221   5.147
30771W        W92060   2.399  32.141   2.262
30772W        W92061  11.805   0.413  10.482
30773W        W92062  32.606  21.127   3.765
30774W        W92063  17.139  28.500  10.503
30775W        W92064  41.007  23.555  11.905
30776W        W92065  37.052   9.167  11.599
30777W        W92066   7.241  33.451   4.217
30778W        W92067  13.272  19.132   2.723
30779W        W92068   3.451   2.778  14.957
30780W        W92069   3.874  16.722   2.791
30781W        W92070  36.405   3.388  14.988
30782W        W92071   6.232   0.294  12.385
30783W        W92072  21.130  23.648  10.013
30784W        W92073  37.864  39.020  12.363
30785W        W92074  11.807  18.056  11.604
30786W        W92075  42.358  19.669  14.773
30787W        W92076  40.039  35.998   0.967
30788W        W92077   8.878  11.266  11.403
30789W        W92078   5.255  19.598   4.298
30790W        W92079  36.853  11.830  13.808
30791W        W92080  25.071  13.180  13.052
30792W        W92081  35.890   8.723  14.969
30793W        W92082  14.746  43.911  10.534
30794W        W92083  35.511  15.806  10.927
30795W        W92084  15.817   3.385  13.531
30796W        W92085  25.490  24.142   4.827
30797W        W92086  27.163  10.826  14.513
30798W        W92087   0.478  43.488   0.270
30799W        W92088  20.137   5.248   1.420
30800W        W92089  43.006  20.085  11.587
30801W        W92090   6.309  16.093   2.841
30802W        W92091  20.195  16.689  11.558
30803W        W92092   8.176   0.309  11.439
30804W        W92093   2.898  44.400   1.698
30805W        W92094  19.545   7.901  12.915
30806W        W92095   0.464  21.056  10.455
30807W        W92096   3.453   7.401   4.735
30808W        W92097  22.238  11.174   1.792
30809W        W92098  14.136  31.026   2.750
30810W        W92099  36.003   4.268  13.330
30811W        W92100  10.289  39.918  13.394
30812W        W92101  27.618  39.941  11.469
30813W        W92102   2.249   8.293  14.348
30814W        W92103  29.960  19.553   4.214
30815W        W92104  25.203  11.261  14.399
30816W        W92105   3.898  21.525  12.862
30817W        W92106  22.612  29.934   0.413
30818W        W92107  31.907  32.012   3.664
30819W        W92108  22.627  30.592   0.350
30820W        W92109  44.496   7.686   1.286
30821W        W92110   2.285  39.848   1.296
30822W        W92111  10.745  14.133  13.308
30823W        W92112   2.752  32.107   0.846
30824W        W92113  17.802  37.955  11.868
30825W        W92114  42.796  35.570   2.379
30826W        W92115   8.863  26.191  10.500
30827W        W92116  21.088  34.998  13.012
30828W        W92117  34.952  43.855   4.838
30829W        W92118  27.130  20.577  14.476
30830W        W92119   1.404   8.267  12.912
30831W        W92120  28.992  25.138   3.145
30832W        W92121  14.177  15.235   0.745
30833W        W92122  33.536  10.290  10.429
30834W        W92123  34.411  10.231  14.299
30835W        W92124  22.603  39.560  11.005
30836W        W92125  29.435   0.409   0.883
30837W        W92126  26.022  32.520  13.408
30838W        W92127  42.520  34.461   1.412
30839W        W92128  43.888  18.607   2.744
30840W        W92129  30.440  20.104  11.873
30841W        W92130  15.760   2.314   4.791
30842W        W92131  38.846   4.873  13.313
30843W        W92132  11.232  37.509   1.314
30844W        W92133   5.706   3.793  12.932
30845W        W92134   3.898  14.301   0.340
30846W        W92135  20.726   7.386   1.895
30847W        W92136   0.947  20.630   3.645
30848W        W92137  23.648  43.882  10.415
30849W        W92138  17.703  18.669  12.401
30850W        W92139  16.224  32.583   4.279
30851W        W92140  39.528  10.675   1.916
30852W        W92141  27.674   7.280   2.351
30853W        W92142  15.221  24.039  11.019
30854W        W92143  30.978  14.160  14.806
30855W        W92144  43.503  32.596  14.772
30856W        W92145  43.003  40.868  11.580
30857W        W92146  13.151  39.951   1.752
30858W        W92147  34.582   2.860  13.854
30859W        W92148   5.763  18.146   3.206
30860W        W92149  17.136   2.966  10.444
30861W        W92150  18.150  43.875   2.318
30862W        W92151  11.866   0.911  14.355
30863W        W92152  13.197  16.181   3.800
30864W        W92153  24.973  33.536   0.743
30865W        W92154  12.758  40.368  13.352
30866W        W92155  39.016  20.049  10.103
30867W        W92156  16.788  24.200   1.293
30868W        W92157  13.351   2.798  14.299
30869W        W92158  26.997  15.086  13.797
30870W        W92159  12.316   4.240  10.525
30871W        W92160  13.134  41.982  14.959
30872W        W92161   6.279  32.556  12.076
30873W        W92162  10.748  18.627  10.624
30874W        W92163   5.717  26.559  11.945
30875W        W92164  26.166  41.433  14.977
30876W        W92165   6.837  42.356  12.901
30877W        W92166  43.450  33.544  13.415
30878W        W92167  18.223  16.109  11.472
30879W        W92168  18.686  15.265   0.376
30880W        W92169   8.857  44.873  10.594
30881W        W92170  41.855  39.847   1.770
30882W        W92171  27.940   1.800   1.919
30883W        W92172  35.374   2.266  12.073
30884W        W92173  39.325  27.187  14.491
30885W        W92174  11.699  21.181  14.861
30886W        W92175  18.648  38.360   4.215
30887W        W92176   9.297  29.129  13.055
30888W        W92177   6.738  11.841   2.293
30889W        W92178  14.294  18.263  10.094
30890W        W92179  25.021  39.044  10.479
30891W        W92180  37.022  44.385   3.759
30892W        W92181  20.249  16.072  11.554
30893W        W92182  42.841  41.446   3.725
30894W        W92183  13.779  28.020   0.458
30895W        W92184  29.469  18.200   2.765
30896W        W92185  24.189  42.815   3.360
30897W        W92186  35.980  10.666   1.448
30898W        W92187  41.521  25.187   1.908
30899W        W92188  40.003   4.931  11.532
30900W        W92189  41.484  34.932  13.431
30901W        W92190   4.698   0.360   1.858
30902W        W92191  14.775  17.269  10.128
30903W        W92192  11.159  36.993  12.979
30904W        W92193  39.859  34.102   0.337
30905W        W92194  20.163  39.041  12.505
30906W        W92195  20.640  18.129   2.792
30907W        W92196  42.796  14.727   3.236
30908W        W92197  20.587   5.201  13.928
30909W        W92198   8.761   9.158  12.857
30910W        W92199  17.159   0.785  10.901
30911W        W92200   7.269   9.251  14.871
30912W        W92201  27.193  24.645   2.242
30913W        W92202  30.550  41.925   3.724
30914W        W92203  39.333  35.907   2.343
30915W        W92204  34.601   5.867  10.451
30916W        W92205  39.350  37.386  10.501
30917W        W92206  16.297  30.503  13.387
30918W        W92207  16.221  31.999   0.755
30919W        W92208  36.354  17.703  13.343
30920W        W92209  16.582  21.227  14.419
30921W        W92210   2.833  41.467   4.330
30922W        W92211  44.262  33.619  10.497
30923W        W92212  25.524  39.962  10.048
30924W        W92213  25.014   8.242  13.925
30925W        W92214   2.374  29.479   2.277
30926W        W92215  34.524   0.940  10.137
30927W        W92216  17.744   5.706  13.965
30928W        W92217  12.756  22.730   9.451
30929W        W92218  10.313  10.194   5.139
30930W        W92219  42.993  34.437  11.906
30931W        W92220  37.398  11.190  12.942
30932W        W92221  40.930   7.206  14.484
30933W        W92222   1.297  32.511   4.673
30934W        W92223  44.914   4.831  14.947
30935W        W92224  35.495  20.577  14.901
30936W        W92225  21.252  35.015   4.637
30937W        W92226  33.517  36.462   4.816
30938W        W92227  37.069  44.460  12.959
30939W        W92228   8.224  11.286   1.768
30940W        W92229  21.754  16.102   3.708
30941W        W92230  40.819  30.417   2.341
30942W        W92231  23.645  23.563  13.799
30943W        W92232   3.826  12.824   1.313
30944W        W92233   3.292  30.469   0.903
30945W        W92234  16.637  38.977   3.806
30946W        W92235  13.301  15.795  14.811
30947W        W92236  41.836  32.086  11.004
30948W        W92237  19.115  39.501  13.909
30949W        W92238  30.000  43.438   1.908
30950W        W92239  24.205  29.655   2.797
30951W        W92240  23.581  27.162   4.117
30952W        W92241   2.839   1.330   3.221
30953W        W92242  13.667  38.955   2.243
30954W        W92243   5.382  22.043  14.375
30955W        W92244   5.832  29.073  13.380
30956W        W92245  30.572  40.511  13.030
30957W        W92246   4.913   2.927   9.935
30958W        W92247  38.843  26.027   1.801
30959W        W92248   0.266  19.213   4.325
30960W        W92249  41.928  18.223  12.066
30961W        W92250  29.616   1.806   2.397
30962W        W92251  19.710  42.933   2.244
30963W        W92252  12.610   4.445   4.773
30964W        W92253  21.648  29.941  12.920
30965W        W92254  25.040   6.718   3.245
30966W        W92255  39.820  33.000   2.672
30967W        W92256   6.380  38.903   2.397
30968W        W92257  11.326   2.319   2.232
30969W        W92258  37.515  17.661   2.228
30970W        W92259  22.228  31.431   1.420
30971W        W92260  19.131  22.056  12.342
30972W        W92261  10.339  34.062  14.450
30973W        W92262  26.206   5.867   0.332
30974W        W92263  16.232   6.326   4.338
30975W        W92264  43.022   9.832  12.987
30976W        W92265  39.041   3.373  14.939
30977W        W92266  19.183  16.585  10.890
30978W        W92267  43.989   4.841   1.895
30979W        W92268  39.988  22.636  11.065
30980W        W92269   6.406  37.866   3.808
30981W        W92270  18.597  37.486   1.247
30982W        W92271  14.321  20.630  14.341
30983W        W92272  11.178  11.675  13.347
30984W        W92273  15.258   3.810   2.838
30985W        W92274  44.813  37.995   0.337
30986W        W92275  10.758  12.260   3.864
30987W        W92276  34.484  19.135   1.742
30988W        W92277   4.355   8.176   4.730
30989W        W92278  22.713  12.128  14.952
30990W        W92279  30.164  24.053   3.244
30991W        W92280  44.269  11.711  14.883
30992W        W92281  26.070  24.569   2.229
30993W        W92282   2.927  31.557  13.350
30994W        W92283   9.666  25.033  13.943
30995W        W92284  24.195  11.292  13.894
30996W        W92285  20.752  20.609  10.637
30997W        W92286  39.477  30.960  12.998
30998W        W92287  28.480  37.936  13.323
30999W        W92288  32.998  25.979   3.363
31000W        W92289  22.122  44.830  13.539
31001W        W92290  12.297  18.566  12.040
31002W        W92291  14.284  40.917   1.740
31003W        W92292  41.502  41.423   1.380
31004W        W92293  30.513  14.178   2.293
31005W        W92294  35.104  23.040   3.177
31006W        W92295   5.823   9.821  12.382
31007W        W92296   0.779  28.012  11.923
31008W        W92297  20.223  29.503  12.929
31009W        W92298  28.524  36.032  10.914
31010W        W92299   1.939   3.731   2.824
31011W        W92300   9.289  36.427  14.005
31012W        W92301   6.266  16.741  11.483
31013W        W92302   8.190  42.943  11.067
31014W        W92303  18.231  28.621   0.364
31015W        W92304  10.770  39.830  14.842
31016W        W92305  33.385  35.424  12.464
31017W        W92306  38.405   3.415  13.805
31018W        W92307  27.186  41.889  10.517
31019W        W92308  26.563  40.962  12.972
31020W        W92309   0.883   5.247  10.485
31021W        W92310   9.761   2.748  13.920
31022W        W92311  37.914  26.459  12.956
31023W        W92312   8.891   9.261  14.385
31024W        W92313  23.732  14.803  14.965
31025W        W92314   3.737  11.169   0.365
31026W        W92315  43.381  43.388   3.653
31027W        W92316  25.162  17.252   0.904
31028W        W92317   1.779  16.200  12.010
31029W        W92318  12.818  25.638  10.429
31030W        W92319  11.659  14.817   2.417
31031W        W92320   4.790  41.895  10.554
31032W        W92321  43.303  11.247   2.836
31033W        W92322  44.464  31.483   1.902
31034W        W92323  42.973  39.468   4.673
31035W        W92324  38.476  32.469   0.275
31036W        W92325  18.559  31.585   0.761
31037W        W92326  42.489   8.677   2.761
31038W        W92327  37.512  41.507   2.377
31039W        W92328   2.456  26.171  11.922
31040W        W92329   1.930  26.148  11.121
31041W        W92330  16.603  29.023  13.931
31042W        W92331   5.198   7.811  12.563
31043W        W92332  24.083  42.425   1.299
31044W        W92333  11.158  26.577  14.843
31045W        W92334  40.026   1.969  12.357
31046W        W92335   7.776  32.496  12.386
31047W        W92336   2.841  32.025   3.675
31048W        W92337   8.845   3.222   1.327
31049W        W92338   4.232  15.117   3.696
31050W        W92339  19.673   2.786   2.341
31051W        W92340  36.931  13.234   4.661
31052W        W92341  32.894  11.147  12.442
31053W        W92342  19.186  24.174   2.197
31054W        W92343   3.843  40.408  12.071
31055W        W92344   8.184  19.538   0.350
31056W        W92345  12.717  43.971  13.046
31057W        W92346  39.904  40.928  13.446
31058W        W92347  12.660  15.248   1.701
31059W        W92348  23.498  22.047   0.305
31060W        W92349  30.025  12.343   0.308
31061W        W92350  28.039  21.596   4.202
31062W        W92351  35.033  20.628   0.934
31063W        W92352  43.386  38.563  12.541
31064W        W92353   8.255  33.026  13.808
31065W        W92354  40.821  28.132  13.469
31066W        W92355  34.553  37.483   0.919
31067W        W92356  15.762  25.214   0.772
31068W        W92357  18.125  31.554  13.922
31069W        W92358  27.147  13.151  14.999
31070W        W92359  42.971  13.800   0.846
31071W        W92360   2.830  42.923  14.974
31072W        W92361  22.019  42.378   1.763
31073W        W92362  39.392   6.413   4.146
31074W        W92363  11.746   4.866  10.087
31075W        W92364   2.277  30.622  13.944
31076W        W92365  19.652  33.592  11.425
31077W        W92366   3.326  26.983   4.768
31078W        W92367  38.420  10.217   1.720
31079W        W92368  28.596  24.199   3.385
31080W        W92369   9.668  20.189  11.990
31081W        W92370  27.107  16.114   4.171
31082W        W92371  10.194  19.057   0.801
31083W        W92372   5.280  42.782  13.493
31084W        W92373  44.962  17.210   1.900
31085W        W92374  14.261  14.196   1.789
31086W        W92375  13.204  34.060  12.025
31087W        W92376   8.885  30.922   2.361
31088W        W92377   5.851  35.457  14.965
31089W        W92378   6.206  30.917   0.770
31090W        W92379  32.440   5.756   3.767
31091W        W92380  42.381  34.951  14.894
31092W        W92381   1.974  13.605  14.341
31093W        W92382   8.253  24.479  12.497
31094W        W92383   2.392  43.795  11.403
31095W        W92384  22.147  14.179   1.826
31096W        W92385   6.907  19.060   4.833
31097W        W92386  44.853  16.316  14.461
31098W        W92387   6.829   8.705   3.168
31099W        W92388   5.711  35.439   0.905
31100W        W92389  30.990   0.858   3.286
31101W        W92390  10.171   2.724  14.428
31102W        W92391  27.576  15.758  11.382
31103W        W92392  38.343   9.728  11.522
31104W        W92393  14.136  35.573   2.419
31105W        W92394  11.716   6.420  12.917
31106W        W92395  14.775  44.789   2.687
31107W        W92396   4.301  38.543  12.511
31108W        W92397  36.357  15.581   4.145
31109W        W92398  35.105  32.071   9.929
31110W        W92399  39.394   1.317   1.894
31111W        W92400  19.219  35.972   4.344
31112W        W92401  38.478  15.578   9.936
31113W        W92402  34.950  39.327   4.224
31114W        W92403   2.420  41.508   2.902
31115W        W92404   1.965  17.209  10.905
31116W        W92405  33.477  20.031   2.714
31117W        W92406  26.018   3.742  12.512
31118W        W92407  41.525  43.290  14.470
31119W        W92408  17.602  39.020   4.189
31120W        W92409  37.036  23.017   1.382
31121W        W92410  34.444  33.416  12.930
31122W        W92411  41.997   5.403   0.371
31123W        W92412  22.082  41.911  13.885
31124W        W92413  15.709  29.523  13.881
31125W        W92414  17.232  36.428   3.320
31126W        W92415  11.816  41.971   3.685
31127W        W92416  21.668  37.385  14.968
31128W        W92417  38.886  16.577   9.538
31129W        W92418   9.182  39.325  12.430
31130W        W92419  28.184  19.732  12.430
31131W        W92420  22.086  27.556  11.909
31132W        W92421  20.661   9.736   4.217
31133W        W92422  35.495  34.494   3.849
31134W        W92423  23.195  18.663  12.012
31135W        W92424  20.694  33.036  14.419
31136W        W92425  33.513  44.445   2.782
31137W        W92426   5.708  44.483  13.484
31138W        W92427  12.720  38.024   9.540
31139W        W92428  42.307  19.608  12.913
31140W        W92429   6.690   3.847   0.277
31141W        W92430   8.706   1.444   4.620
31142W        W92431   1.443  28.619   1.820
31143W        W92432  10.279  27.591  13.517
31144W        W92433  24.209  31.097   4.161
31145W        W92434   6.793  12.783   4.257
31146W        W92435  22.563  14.734   9.999
31147W        W92436   2.265  19.040  10.584
31148W        W92437  43.389   7.908   3.864
31149W        W92438  35.969  13.791  10.937
31150W        W92439   5.927  23.538  12.921
31151W        W92440  27.646  16.178  13.814
31152W        W92441  42.435  40.997   4.171
31153W        W92442  38.478   6.702  12.564
31154W        W92443  23.574  15.741   2.355
31155W        W92444   9.218  17.586  11.592
31156W        W92445  32.068   8.798   2.240
31157W        W92446  37.437  12.293   1.235
31158W        W92447  29.470  15.653  12.423
31159W        W92448  41.366  42.816  13.538
31160W        W92449  24.717  42.369   0.878
31161W        W92450  31.557  38.411  12.416
31162W        W92451   9.275   6.328  14.830
31163W        W92452  26.001  32.022   2.903
31164W        W92453  33.074  15.233  13.006
31165W        W92454  22.566  41.809   3.358
31166W        W92455  21.058  19.557   0.958
31167W        W92456  17.626   0.432  13.546
31168W        W92457   1.338  41.409  10.929
31169W        W92458   9.286  19.537   0.371
31170W        W92459  33.089  32.571   4.627
31171W        W92460   3.714  43.485   2.833
31172W        W92461  33.946   6.345   0.888
31173W        W92462   3.739  14.679  14.924
31174W        W92463  18.162  14.159  11.544
31175W        W92464  40.974  32.887  13.408
31176W        W92465  38.823  16.244   3.368
31177W        W92466  25.056  18.227  13.858
31178W        W92467  43.512   2.430  11.524
31179W        W92468  40.546  38.889  14.015
31180W        W92469  19.277  17.163  12.474
31181W        W92470  36.364  34.548   4.308
31182W        W92471  40.853  20.756   2.401
31183W        W92472  42.786  34.585   2.211
31184W        W92473  21.199  13.785  13.490
31185W        W92474  42.482  27.508   2.363
31186W        W92475  21.106  36.383  11.897
31187W        W92476  18.664  16.737  10.567
31188W        W92477  42.988  22.680  12.473
31189W        W92478  11.283  30.433   0.920
31190W        W92479  38.005  31.007   3.672
31191W        W92480  10.856  40.465  13.995
31192W        W92481  33.017  27.648   0.779
31193W        W92482  32.611  31.492  10.560
31194W        W92483  42.954  43.318   0.423
31195W        W92484   3.404   8.245   3.652
31196W        W92485  36.096  16.603   5.242
31197W        W92486  28.488   6.901   2.735
31198W        W92487  35.019  41.968  13.531
31199W        W92488  35.902  22.679   0.851
31200W        W92489  34.565  34.547   3.220
31201W        W92490  33.972  28.651   3.250
31202W        W92491  33.515  14.110  10.953
31203W        W92492  18.655  20.195   3.338
31204W        W92493  43.454  43.365  12.415
31205W        W92494  44.488  29.059   4.713
31206W        W92495  25.499   0.832  11.451
31207W        W92496  14.241   5.884   0.823
31208W        W92497  36.497  22.610   4.125
31209W        W92498  21.075  12.234  12.467
31210W        W92499  18.183  20.102  10.005
31211W        W92500  39.368  30.554  10.909
31212W        W92501  32.435  28.038  13.509
31213W        W92502  12.273  20.088  13.898
31214W        W92503  27.961  43.368   0.405
31215W        W92504   6.920   6.681  14.849
31216W        W92505  23.697  13.141  11.399
31217W        W92506  19.705  19.121   3.304
31218W        W92507  12.689  18.620  13.814
31219W        W92508  22.663  36.011  11.443
31220W        W92509  25.585  29.102  14.302
31221W        W92510  20.606   7.300   3.640
31222W        W92511  10.741  16.777   3.643
31223W        W92512  36.526   1.278  12.407
31224W        W92513  39.036   7.390  11.871
31225W        W92514  22.211  20.076   2.400
31226W        W92515  25.473  10.170  12.853
31227W        W92516  42.381  22.605   3.670
31228W        W92517  34.955  26.015  13.821
31229W        W92518  32.066  28.611   0.337
31230W        W92519  27.946  16.618   3.699
31231W        W92520  36.394  44.006  13.398
31232W        W92521  29.649   3.289   3.285
31233W        W92522  40.037   8.302  10.136
31234W        W92523  19.262  36.576  12.828
31235W        W92524  24.076  40.961   3.223
31236W        W92525  12.262  12.179   4.283
31237W        W92526  20.130   2.811   2.407
31238W        W92527  31.047  24.131   4.745
31239W        W92528  33.881  19.544   1.418
31240W        W92529   5.321  16.734  11.023
31241W        W92530   4.250  25.968  14.865
31242W        W92531  14.194  28.597  12.846
31243W        W92532  28.573  31.932  14.457
31244W        W92533  42.335   8.345  10.144
31245W        W92534  22.574  13.719  11.514
31246W        W92535  36.511  26.611  14.443
31247W        W92536  17.203   4.877  11.047
31248W        W92537  25.479  27.632  14.362
31249W        W92538  33.461  19.649   1.304
31250W        W92539  28.442   4.325   3.225
31251W        W92540   2.264  10.862  11.092
31252W        W92541  23.115   9.780  12.002
31253W        W92542  36.562  20.252  11.923
31254W        W92543  20.593  30.062   3.762
31255W        W92544  44.470   7.800   3.195
31256W        W92545   4.869  33.961   4.833
31257W        W92546   1.858  38.845   1.718
31258W        W92547  41.958   6.355   3.286
31259W        W92548  33.009  43.274   1.418
31260W        W92549  44.341  14.696  14.514
31261W        W92550  39.377   9.886  12.434
31262W        W92551  31.564   5.715  10.533
31263W        W92552  29.501  28.616  13.958
31264W        W92553  24.198  32.010   3.782
31265W        W92554  30.413  24.635  10.437
31266W        W92555  28.123  43.779   2.293
31267W        W92556  20.549  11.236   2.816
31268W        W92557  33.511  23.527   2.755
31269W        W92558  14.276  32.442   0.367
31270W        W92559   1.311  31.142   4.311
31271W        W92560  43.416   4.765  14.807
31272W        W92561  14.130  20.061   2.789
31273W        W92562  23.084  37.871   1.331
31274W        W92563  27.065  38.952  11.916
31275W        W92564  30.434  14.696   1.822
31276W        W92565   2.345  20.191  12.067
31277W        W92566   3.910  13.767   0.350
31278W        W92567  20.092   7.343  14.863
31279W        W92568  18.702  41.406  13.327
31280W        W92569  36.459  44.461  11.078
31281W        W92570  30.986  12.776  13.879
31282W        W92571  40.951  39.940   1.348
31283W        W92572  43.814  31.514  11.557
31284W        W92573  32.089  12.737  13.512
31285W        W92574   5.348  21.213   1.286
31286W        W92575  17.648  20.548   4.802
31287W        W92576  31.533  38.379   2.902
31288W        W92577  27.047  19.041   0.778
31289W        W92578   7.299   8.275   2.360
31290W        W92579  41.805  24.998  13.950
31291W        W92580  34.875  17.657   2.311
31292W        W92581  36.912  44.399  10.986
31293W        W92582  15.620  41.904  12.092
31294W        W92583  39.474  21.650  13.873
31295W        W92584  35.041  44.426  14.353
31296W        W92585   4.774  12.189  11.032
31297W        W92586   1.892   2.849  13.323
31298W        W92587   7.336   4.778  11.458
31299W        W92588  34.871   0.399   0.249
31300W        W92589  30.049  32.486  14.952
31301W        W92590  30.439  33.057   4.200
31302W        W92591  33.437  13.840   4.144
31303W        W92592   0.805   0.777  12.398
31304W        W92593  23.531   3.795  11.580
31305W        W92594  43.866   7.875   2.239
31306W        W92595   8.352  32.630   5.755
31307W        W92596   6.799  21.736  10.954
31308W        W92597  14.706  28.139   1.760
31309W        W92598  41.927   5.368  12.840
31310W        W92599  20.184  10.373   1.275
31311W        W92600  41.026  31.961  14.020
31312W        W92601  27.107  17.141  10.893
31313W        W92602  36.883  28.551  11.923
31314W        W92603  29.637  18.624   2.717
31315W        W92604  36.404  40.492  11.576
31316W        W92605  19.196  44.351  14.434
31317W        W92606  24.009  40.390   3.762
31318W        W92607  22.008  35.565   3.778
31319W        W92608   2.862  37.539   0.429
31320W        W92609  16.255  42.015   2.833
31321W        W92610   1.894   2.402   0.762
31322W        W92611  23.667  15.725  11.374
31323W        W92612  34.914  12.239   4.146
31324W        W92613  28.934  31.447  11.427
31325W        W92614  33.884   4.285   0.841
31326W        W92615  25.533  27.187  12.462
31327W        W92616  35.889   6.893   4.621
31328W        W92617  40.402  39.480   2.291
31329W        W92618   2.253  23.543   3.647
31330W        W92619  28.542   9.768   0.312
31331W        W92620   5.235  37.897  11.511
31332W        W92621  24.128  18.708  12.385
31333W        W92622  34.050  37.890   0.902
31334W        W92623  37.488   3.928  13.340
31335W        W92624  25.108  38.886  11.415
31336W        W92625  37.456   4.314   4.721
31337W        W92626   1.948  42.492  12.001
31338W        W92627   3.409  29.642  11.096
31339W        W92628  25.667  24.691  14.810
31340W        W92629  36.441  28.940  11.931
31341W        W92630  12.654  25.076  11.882
31342W        W92631  14.611  43.907   1.812
31343W        W92632  32.893  27.559  12.073
31344W        W92633  19.583  19.260  11.397
31345W        W92634  26.989  13.781  13.427
31346W        W92635  36.417  15.602   1.713
31347W        W92636   5.212   0.748   0.832
31348W        W92637  12.359  30.914   1.408
31349W        W92638  32.620  44.436  10.464
31350W        W92639  31.457  21.672   1.291
31351W        W92640  31.937  17.615   0.765
31352W        W92641  16.624   7.224   2.379
31353W        W92642   9.818  10.176   0.275
31354W        W92643  29.078   4.815  12.543
31355W        W92644   8.841   2.394   1.764
31356W        W92645  44.978  10.799   1.788
31357W        W92646  16.230  10.653   2.179
31358W        W92647  43.305  26.512   1.930
31359W        W92648  17.568  39.853   4.171
31360W        W92649   7.217  14.180   1.329
31361W        W92650  31.011  38.986   3.709
31362W        W92651  40.529  41.883  10.558
31363W        W92652   6.837  14.129   3.182
31364W        W92653   9.789  28.935   0.463
31365W        W92654   7.303   6.218   3.309
31366W        W92655  19.594   3.328   3.302
31367W        W92656  35.365  23.187  13.315
31368W        W92657  22.606   6.203  12.978
31369W        W92658   3.853   4.753   0.468
31370W        W92659  30.058  42.311  12.499
31371W        W92660  11.850  38.819   5.119
31372W        W92661  23.552  43.803   0.288
31373W        W92662  16.121  36.058   1.243
31374W        W92663   9.344  13.658   1.776
31375W        W92664  16.727  27.483   4.753
31376W        W92665  39.491  15.184   5.726
31377W        W92666  15.329  19.191   0.853
31378W        W92667  14.299  14.638   5.196
31379W        W92668  38.443  26.703   2.845
31380W        W92669   1.838  15.717  10.610
31381W        W92670  38.883  10.835   0.271
31382W        W92671  43.964  38.400  10.407
31383W        W92672  13.748   3.871  10.557
31384W        W92673  13.722  18.631  12.517
31385W        W92674  35.976   2.385  14.983
31386W        W92675   4.214  21.673   2.293
31387W        W92676  23.194   1.738  11.408
31388W        W92677  32.450  28.143  11.387
31389W        W92678   5.893  14.110  12.013
31390W        W92679  27.496   4.737   2.731
31391W        W92680  41.820  35.530  11.041
31392W        W92681  39.052  13.641  13.365
31393W        W92682  12.158   6.854  10.407
31394W        W92683  10.780  35.915   0.331
31395W        W92684  44.276  16.629  14.895
31396W        W92685  34.992  35.532  14.020
31397W        W92686  41.903  31.473   4.612
31398W        W92687  39.468  38.841   4.638
31399W        W92688  37.429   7.394  14.509
31400W        W92689  17.210   7.726   3.231
31401W        W92690  18.721  34.432   0.748
31402W        W92691   7.732  25.151   0.294
31403W        W92692  33.064  15.126   4.224
31404W        W92693  22.675   5.885   4.655
31405W        W92694   9.313  28.676  12.993
31406W        W92695  38.413  15.581  14.005
31407W        W92696  39.976  42.937  14.777
31408W        W92697  30.160  30.088  10.474
31409W        W92698  16.236  28.474   4.328
31410W        W92699   0.344  30.956  10.487
31411W        W92700  25.028  21.148   4.762
31412W        W92701  35.109  22.195  13.350
31413W        W92702  31.593  27.948   0.397
31414W        W92703  19.727  36.382  11.599
31415W        W92704  28.556   7.248   0.367
31416W        W92705  32.090  42.829   1.428
31417W        W92706  39.848  12.688  10.579
31418W        W92707   0.926   9.243   5.619
31419W        W92708  10.635  37.006   1.243
31420W        W92709  30.492  36.854  12.874
31421W        W92710  30.558  42.336  12.960
31422W        W92711   1.953  10.143  14.921
31423W        W92712  19.156  24.110  11.008
31424W        W92713  33.527  18.096   2.901
31425W        W92714   6.317  17.205  13.976
31426W        W92715  38.921  40.505  14.797
31427W        W92716  40.821  35.554   0.957
31428W        W92717   8.660  23.197   4.829
31429W        W92718  31.146  25.132  10.072
31430W        W92719   7.791  24.225   2.297
31431W        W92720   0.289  19.631  11.998
31432W        W92721  43.005  17.114  10.591
31433W        W92722  44.497  21.218  11.046
31434W        W92723  28.051   8.691   3.736
31435W        W92724  40.508  33.515  11.926
31436W        W92725  18.155  10.286  12.007
31437W        W92726  28.041  28.178  11.550
31438W        W92727  27.095   5.696   4.287
31439W        W92728   4.820  29.534  10.418
31440W        W92729  37.559   9.163  10.576
31441W        W92730  15.756  40.411  14.437
31442W        W92731  41.862  30.437   4.755
31443W        W92732   0.424  44.768  11.385
31444W        W92733   0.784  10.318  14.899
31445W        W92734  25.547  10.195   1.374
31446W        W92735  42.402   3.402  11.128
31447W        W92736  11.261  39.355   4.597
31448W        W92737  41.888  12.239   1.390
31449W        W92738  27.485  24.493   0.731
31450W        W92739   0.274   6.296   4.815
31451W        W92740  37.060  13.701   3.705
31452W        W92741  42.324  34.387  12.948
31453W        W92742  40.391  15.264  13.481
31454W        W92743  37.959  38.999  11.399
31455W        W92744  38.365  12.628   1.427
31456W        W92745  30.526  11.301  10.637
31457W        W92746   3.900  18.243   4.679
31458W        W92747  31.464  32.484   3.801
31459W        W92748  30.428  37.968   1.397
31460W        W92749  30.983  27.605  11.028
31461W        W92750   1.447  10.197   4.177
31462W        W92751  41.793  23.101   0.394
31463W        W92752  26.030  29.663  12.526
31464W        W92753  18.163  17.119  14.782
31465W        W92754  39.052  28.017  12.487
31466W        W92755  40.909   0.745   4.614
31467W        W92756  15.325   7.763  12.059
31468W        W92757  19.674  38.460   2.829
31469W        W92758  44.348   9.674  11.887
31470W        W92759   9.259  41.806  11.501
31471W        W92760  38.938  35.402   0.828
31472W        W92761  21.555  38.930  12.063
31473W        W92762  42.820  18.768   1.322
31474W        W92763  22.060   9.767   4.834
31475W        W92764  31.447   0.433   2.677
31476W        W92765  27.194  27.137   0.938
31477W        W92766   7.815  39.823  10.454
31478W        W92767  31.101   4.732   2.814
31479W        W92768  11.260   6.186  11.092
31480W        W92769  26.984  28.062   3.692
31481W        W92770  39.430  20.056   1.334
31482W        W92771  24.014  41.799  13.856
31483W        W92772  41.512   1.403  11.606
31484W        W92773   5.322   3.817   2.404
31485W        W92774  13.819   4.711  13.319
31486W        W92775  36.008  23.137   2.247
31487W        W92776  17.293  31.985  13.482
31488W        W92777  21.682  42.927  14.986
31489W        W92778  35.413  43.308   0.408
31490W        W92779  15.756  26.077   1.913
31491W        W92780  30.960  20.179  10.418
31492W        W92781  36.054  17.714  12.346
31493W        W92782  22.724  27.477   4.252
31494W        W92783  37.946  36.922   1.336
31495W        W92784  39.910  38.868   3.231
31496W        W92785  32.958  18.167  11.448
31497W        W92786  19.729   0.973   3.644
31498W        W92787   4.709   7.372  10.889
31499W        W92788  12.627   7.273   0.858
31500W        W92789  17.165   8.354  11.569
31501W        W92790  18.207  19.653   1.440
31502W        W92791  28.441  23.085  10.141
31503W        W92792  15.659  24.024  13.377
31504W        W92793   5.329  36.569  12.044
31505W        W92794  15.745   5.229  11.900
31506W        W92795  31.107   2.279  11.510
31507W        W92796  40.379   6.801  11.864
31508W        W92797  14.829  20.065   2.382
31509W        W92798  37.978   7.370   3.712
31510W        W92799  15.651  34.518  12.842
31511W        W92800  15.314  28.036   2.808
31512W        W92801  41.316  27.599  14.822
31513W        W92802  16.757  37.904   1.405
31514W        W92803  24.495  24.052   4.813
31515W        W92804  29.659  43.765   3.712
31516W        W92805  40.874  18.717   1.413
31517W        W92806   7.217  44.471  13.476
31518W        W92807   4.788   4.446  11.450
31519W        W92808   0.819  28.610   2.830
31520W        W92809   4.427   4.222  10.644
31521W        W92810  27.490  40.482   4.217
31522W        W92811   7.288  14.264  14.385
31523W        W92812  15.321  20.038   0.352
31524W        W92813  22.170  24.651   0.754
31525W        W92814   3.388   8.819   3.761
31526W        W92815  20.696  31.448   4.170
31527W        W92816  21.514  36.880  10.980
31528W        W92817  42.876  32.426   3.358
31529W        W92818  38.455  31.937   5.319
31530W        W92819  23.161   7.721  13.474
31531W        W92820   4.838  44.396  11.390
31532W        W92821  24.212   4.370   0.287
31533W        W92822   4.867   0.846  14.769
31534W        W92823  14.311  21.204  13.950
31535W        W92824  20.715  16.255  11.998
31536W        W92825  23.138  44.794   4.816
31537W        W92826  34.089  30.954  14.413
31538W        W92827  10.663   6.183   3.866
31539W        W92828  34.437   8.404  10.473
31540W        W92829  42.470  17.281  14.999
31541W        W92830  13.791  11.177   2.205
31542W        W92831  35.359  14.231   0.795
31543W        W92832   0.418  29.495   0.865
31544W        W92833  15.579   3.362  11.885
31545W        W92834  34.548  18.753   1.389
31546W        W92835  42.997  19.669  14.356
31547W        W92836   0.815  10.659  13.524
31548W        W92837  25.526  31.619  12.850
31549W        W92838  12.154  19.047   0.360
31550W        W92839  10.848  21.161  12.073
31551W        W92840  37.060  26.968  11.540
31552W        W92841   9.778  29.990  14.407
31553W        W92842   8.864   4.448  14.478
31554W        W92843   5.437   8.306  12.537
31555W        W92844  22.629  38.426  12.487
31556W        W92845  28.662  20.173  13.374
31557W        W92846  25.100  25.148  12.516
31558W        W92847  23.159   4.808   4.728
31559W        W92848  17.091  21.247   1.713
31560W        W92849   1.262  29.055   0.870
31561W        W92850   0.824  30.552  12.468
31562W        W92851  41.362  44.363  14.338
31563W        W92852  37.854  19.088  13.963
31564W        W92853  36.005   1.870  12.832
31565W        W92854  33.600  42.857   2.252
31566W        W92855  39.403  15.201   4.331
31567W        W92856  11.713  32.568  14.988
31568W        W92857  23.671   1.815  11.400
31569W        W92858  37.347  19.730  14.008
31570W        W92859  12.811  31.643  14.994
31571W        W92860  30.148   8.191  14.356
31572W        W92861  21.248   9.370   2.262
31573W        W92862  10.840  25.518  12.917
31574W        W92863  13.245  35.578  12.372
31575W        W92864  16.655  21.080  13.796
31576W        W92865  34.378  18.073   4.114
31577W        W92866   0.480  31.898  12.942
31578W        W92867  41.364  40.030   2.824
31579W        W92868  15.271  34.514   4.239
31580W        W92869  24.066  41.029   3.693
31581W        W92870  33.420  37.971  12.918
31582W        W92871  37.408  33.394  13.322
31583W        W92872   0.252  21.132  13.500
31584W        W92873  39.320   8.389   2.827
31585W        W92874  16.090  30.931  13.415
31586W        W92875  24.140   5.354  10.574
31587W        W92876  25.653  22.030  13.356
31588W        W92877  34.877  18.194   4.209
31589W        W92878  23.536  12.716  10.507
31590W        W92879  28.641   9.341   2.696
31591W        W92880  26.603  33.089   2.366
31592W        W92881  11.835  19.263  12.935
31593W        W92882  23.524   1.281  11.959
31594W        W92883   7.845   0.422  12.351
31595W        W92884  28.508   8.394   2.273
31596W        W92885  19.771  18.112   1.306
31597W        W92886  30.447  35.470  12.949
31598W        W92887   3.247  39.491  12.426
31599W        W92888  40.828   5.313  13.858
31600W        W92889  22.090   1.314   1.415
31601W        W92890  14.109  31.474  11.869
31602W        W92891   0.881  43.314   4.792
31603W        W92892  37.537  30.020   3.665
31604W        W92893  29.015  21.588  12.542
31605W        W92894  31.457   6.240   2.349
31606W        W92895  21.572   8.309  13.806
31607W        W92896  24.978  25.964  10.581
31608W        W92897  43.415  20.236  12.354
31609W        W92898  34.049  13.817   0.850
31610W        W92899  28.460  41.490   1.399
31611W        W92900  28.993  27.670   0.299
31612W        W92901  18.146  44.431   1.808
31613W        W92902  33.573  25.680  10.996
31614W        W92903  13.821  19.242  12.024
31615W        W92904  34.554  12.314  10.574
31616W        W92905  32.078  16.288  11.424
31617W        W92906   5.301  14.296   4.707
31618W        W92907  23.060  39.951   2.710
31619W        W92908  27.627  25.985   3.234
31620W        W92909  29.531  10.825   1.419
31621W        W92910   8.791  38.541   3.846
31622W        W92911  20.587  12.158  12.542
31623W        W92912  21.133  19.131  14.483
31624W        W92913  11.143  24.500   1.416
31625W        W92914   7.205  14.697  11.885
31626W        W92915  29.075  36.557  13.882
31627W        W92916  31.495   4.383   1.893
31628W        W92917  44.371  15.245   4.792
31629W        W92918  21.164  23.052   4.320
31630W        W92919  14.788  23.669  12.533
31631W        W92920  44.481  18.191   2.803
31632W        W92921  40.896  17.067  11.493
31633W        W92922  38.965  34.441  13.490
31634W        W92923   2.806  11.301   3.829
31635W        W92924  40.798   7.237   4.343
31636W        W92925  21.684   4.320   0.318
31637W        W92926  28.487  31.477  12.051
31638W        W92927  12.781  36.392   2.384
31639W        W92928  17.707  25.641  11.890
31640W        W92929  11.224  18.124  13.355
31641W        W92930   2.412  35.039   0.415
31642W        W92931  12.844  23.236   1.734
31643W        W92932  43.909  44.861  11.463
31644W        W92933  33.031  27.613  12.508
31645W        W92934   0.267  12.140  10.634
31646W        W92935  25.530  19.597  13.365
31647W        W92936  21.527  16.630  14.416
31648W        W92937   6.346  41.808   2.418
31649W        W92938   0.783  20.072   3.336
31650W        W92939  41.346  12.795  14.315
31651W        W92940   6.713  38.514   1.375
31652W        W92941  24.163  42.475  11.971
31653W        W92942  44.317   2.247  12.977
31654W        W92943  39.936  40.347   1.226
31655W        W92944   0.269   4.251  14.032
31656W        W92945  12.177  44.970  11.108
31657W        W92946  29.120   3.230  11.935
31658W        W92947  40.381   8.226   4.622
31659W        W92948   7.208  22.097  14.454
31660W        W92949  38.829  36.085   3.870
31661W        W92950  37.873  30.552  13.865
31662W        W92951   5.421  31.018  12.051
31663W        W92952  23.025  34.006  11.563
31664W        W92953  39.445  22.086   1.907
31665W        W92954  36.426   1.288  13.840
31666W        W92955   0.380  15.765   0.455
31667W        W92956  18.271   2.295  11.026
31668W        W92957  12.322  29.050   0.474
31669W        W92958  14.688  20.056   5.105
31670W        W92959  23.734  31.051   0.243
31671W        W92960   7.183   5.889   0.431
31672W        W92961  19.213   7.747  11.091
31673W        W92962  36.096   2.425  10.902
31674W        W92963  32.137  44.267  11.880
31675W        W92964  22.733   5.801  14.429
31676W        W92965   7.186  16.697   0.350
31677W        W92966  30.040  24.049   4.123
31678W        W92967  28.009   6.777   1.392
31679W        W92968  11.726  44.983  14.917
31680W        W92969  12.612  12.121   4.280
31681W        W92970  13.844  33.011   0.739
31682W        W92971   4.342  20.618   0.291
31683W        W92972  23.502  31.028   1.350
31684W        W92973   2.742  15.748   3.350
31685W        W92974  39.053  36.073  13.341
31686W        W92975  25.052   9.763  11.105
31687W        W92976  39.461  24.205  10.592
31688W        W92977  23.181  32.557   3.241
31689W        W92978  41.329  40.396  14.886
31690W        W92979  24.094   0.975  12.386
31691W        W92980  36.892  43.369   1.916
31692W        W92981   5.199  30.574  11.874
31693W        W92982  21.198  23.030   3.693
31694W        W92983  22.056  15.198  14.764
31695W        W92984   4.208  20.150   1.247
31696W        W92985  18.183  21.708   0.389
31697W        W92986  25.566  41.939  11.546
31698W        W92987  19.057  14.726  11.377
31699W        W92988  31.098  21.206   4.598
31700W        W92989   5.437  19.101  14.786
31701W        W92990  22.073  33.111  14.984
31702W        W92991   9.171  19.097   0.414
31703W        W92992  16.225  27.152   2.808
31704W        W92993  35.956  42.377  13.379
31705W        W92994   2.887  14.632   3.850
31706W        W92995  17.183  28.544   1.723
31707W        W92996  31.426  24.102  11.915
31708W        W92997  15.216  35.526  11.399
31709W        W92998  33.418  39.005   5.232
31710W        W92999  43.911   7.307  14.771
31711W        W93000  30.571  13.166  12.461
31712W        W93001  41.389  20.555  14.992
31713W        W93002  35.449  14.284   1.862
31714W        W93003  40.421  19.535  13.831
31715W        W93004  23.638  11.364  14.284
31716W        W93005  34.032  40.900  12.064
31717W        W93006  43.987  22.683   1.781
31718W        W93007  16.781  37.949  13.807
31719W        W93008  39.472  10.254  12.887
31720W        W93009   5.218   1.254   4.605
31721W        W93010  35.006  36.353  11.530
31722W        W93011  22.669   8.731   0.766
31723W        W93012  33.596  29.093  10.500
31724W        W93013  41.901  26.680  11.080
31725W        W93014  43.883  23.051   4.813
31726W        W93015  37.412  44.857   1.710
31727W        W93016  26.068   9.850   0.925
31728W        W93017  35.986  31.119   4.122
31729W        W93018  27.664  23.134  10.465
31730W        W93019  39.342  32.478   1.365
31731W        W93020  17.556  25.175  11.444
31732W        W93021  12.157  38.338   1.897
31733W        W93022  38.415  21.203  11.015
31734W        W93023   0.934  14.240   3.801
31735W        W93024  35.952  27.526   0.288
31736W        W93025  31.009  13.724  11.055
31737W        W93026  27.484  26.962   1.713
31738W        W93027  34.060   7.212   2.295
31739W        W93028  29.938  41.507   2.762
31740W        W93029  21.569  40.503  13.876
31741W        W93030   4.802  26.628  12.456
31742W        W93031   5.349  20.138   3.256
31743W        W93032  17.640  38.401  11.916
31744W        W93033  22.607  30.498   4.834
31745W        W93034  14.833   0.795  13.907
31746W        W93035  11.253  16.624  13.366
31747W        W93036   1.822  10.773  11.930
31748W        W93037  12.770  36.569  14.921
31749W        W93038   0.293  32.410   2.713
31750W        W93039  14.166  30.465  11.990
31751W        W93040  41.842   3.936  10.580
31752W        W93041  27.028  10.352  13.950
31753W        W93042  42.446  37.439   2.335
31754W        W93043  43.917  22.713  12.066
31755W        W93044  29.601  10.860   2.900
31756W        W93045  33.029  30.131   2.338
31757W        W93046  27.971   3.353   1.812
31758W        W93047  38.993  25.967   4.300
31759W        W93048  28.513  21.053  13.385
31760W        W93049   5.278  36.360  10.539
31761W        W93050  36.051  24.198   0.861
31762W        W93051  42.849   7.354  10.591
31763W        W93052  21.528  16.637  10.952
31764W        W93053  10.326   7.818  11.608
31765W        W93054   7.842  42.420   2.382
31766W        W93055  24.229  21.658   1.350
31767W        W93056  44.378  41.834   1.335
31768W        W93057  41.415  12.743  14.879
31769W        W93058   8.867  42.301   3.204
31770W        W93059  14.607  32.913  12.831
31771W        W93060  24.636  18.102   2.306
31772W        W93061  40.370  30.970   0.286
31773W        W93062  11.821  30.035   1.332
31774W        W93063  32.539   2.385   1.927
31775W        W93064  26.590  18.562   0.264
31776W        W93065   7.694  39.314  14.823
31777W        W93066  27.539   9.159  14.924
31778W        W93067  11.676  28.489   2.276
31779W        W93068   7.416   9.230   2.290
31780W        W93069   2.885   7.859   1.299
31781W        W93070  24.999  33.538   4.701
31782W        W93071  39.395   7.284  12.398
31783W        W93072  39.370  33.451   0.277
31784W        W93073  10.216  12.230   0.739
31785W        W93074   7.288   3.890   3.668
31786W        W93075   4.208  27.170  13.863
31787W        W93076  28.618  15.118  14.910
31788W        W93077  44.841  19.262  13.546
31789W        W93078   1.851  24.653   1.285
31790W        W93079  13.143  16.764  11.969
31791W        W93080  37.982  13.213   3.235
31792W        W93081  30.618  14.180   0.425
31793W        W93082  30.509   7.378   0.764
31794W        W93083  23.156  11.676  11.100
31795W        W93084  32.138  19.067   0.728
31796W        W93085  19.063  15.170  10.955
31797W        W93086   0.795  31.582   4.121
31798W        W93087   8.662  25.111  11.920
31799W        W93088  10.285  19.284   1.914
31800W        W93089   3.924  29.599  12.447
31801W        W93090   9.281  36.360   1.737
31802W        W93091  16.693   5.353  11.031
31803W        W93092  30.993   7.695   3.699
31804W        W93093   7.898  13.803  10.422
31805W        W93094  34.868  18.645   3.655
31806W        W93095  22.644  10.684   2.761
31807W        W93096  13.713  16.081  12.024
31808W        W93097  25.107   8.728   4.133
31809W        W93098  22.208  24.654  12.013
31810W        W93099  39.477  40.443   4.827
31811W        W93100   8.222  18.169   1.384
31812W        W93101  41.508  18.260   5.111
31813W        W93102  40.799  27.084  14.799
31814W        W93103  40.973   1.343  12.960
31815W        W93104   3.424  22.652  10.553
31816W        W93105  12.341  35.966   0.444
31817W        W93106  35.058  21.169   1.414
31818W        W93107  34.608  17.090  11.453
31819W        W93108   4.261  34.598   3.253
31820W        W93109  25.621  43.908  11.923
31821W        W93110   8.829  20.031   4.329
31822W        W93111  37.381  28.171   1.335
31823W        W93112  17.629  38.505  14.800
31824W        W93113  44.872  35.487   2.834
31825W        W93114  23.700  36.348  11.121
31826W        W93115  38.427  24.504  11.456
31827W        W93116   4.937  22.515  13.446
31828W        W93117  13.643  32.040   2.356
31829W        W93118  43.350  12.350   0.385
31830W        W93119  12.772  24.696   0.358
31831W        W93120  32.034  37.900   1.934
31832W        W93121  29.491   2.233  10.502
31833W        W93122  28.563   2.242   4.628
31834W        W93123  38.996  22.008   9.952
31835W        W93124  33.472  12.116  12.050
31836W        W93125  42.310   0.284   3.317
31837W        W93126  26.005  19.241  11.073
31838W        W93127   6.898  37.996  12.458
31839W        W93128  26.660  17.656  11.564
31840W        W93129  36.875  29.996   2.178
31841W        W93130  20.609  33.038  11.049
31842W        W93131  11.721   1.860  12.430
31843W        W93132   0.334  33.478   1.754
31844W        W93133  14.754  30.543   0.365
31845W        W93134   2.928   5.813   0.321
31846W        W93135   8.315   8.835  13.399
31847W        W93136  17.790  39.544  14.317
31848W        W93137  29.642   0.372  14.026
31849W        W93138  13.345  18.592   3.738
31850W        W93139  10.778  13.750  12.895
31851W        W93140  18.604  25.975   0.450
31852W        W93141  25.653  32.498   1.428
31853W        W93142  23.540  42.444   0.307
31854W        W93143  19.072   4.349  11.527
31855W        W93144  40.028  28.573  14.968
31856W        W93145  37.899  14.805   4.303
31857W        W93146   8.865  41.969  13.990
31858W        W93147  13.250  29.048  14.495
31859W        W93148  42.385  26.636   4.158
31860W        W93149  26.101  32.920  13.820
31861W        W93150  24.501   6.375   2.264
31862W        W93151  23.128  13.672  12.445
31863W        W93152  41.962  38.062   3.837
31864W        W93153  34.941  28.145  10.038
31865W        W93154  22.039   3.821  14.925
31866W        W93155  30.076   3.895   2.279
31867W        W93156   8.360   1.280   1.315
31868W        W93157   9.186   4.285  13.879
31869W        W93158   2.907  12.622   1.275
31870W        W93159  44.957  32.563  14.972
31871W        W93160  43.865  14.239   2.417
31872W        W93161  21.156  29.564  13.019
31873W        W93162  18.694   5.716  10.411
31874W        W93163  11.334  42.422  13.001
31875W        W93164  24.582  26.107   0.281
31876W        W93165  16.093  21.035  11.932
31877W        W93166  39.522  15.610  11.525
31878W        W93167   7.238  33.016   5.212
31879W        W93168   8.171  12.152  10.485
31880W        W93169  44.263  14.771   1.800
31881W        W93170  17.064  15.587   3.306
31882W        W93171  37.543   3.234  12.381
31883W        W93172   8.847  41.892  12.468
31884W        W93173  24.049   8.820  12.909
31885W        W93174  31.917  40.369  12.461
31886W        W93175  10.285   3.899  14.775
31887W        W93176  37.452  15.677  13.348
31888W        W93177  17.717   2.864  11.093
31889W        W93178   3.837  39.058   3.170
31890W        W93179   8.278  35.511   2.764
31891W        W93180   0.851  22.250   3.301
31892W        W93181   9.705  40.901  10.989
31893W        W93182  30.510  42.821   3.735
31894W        W93183  16.645  16.241  11.594
31895W        W93184  17.755   6.681  14.820
31896W        W93185   8.384  42.464   4.623
31897W        W93186  15.186  32.126  10.579
31898W        W93187  35.473  30.605  12.987
31899W        W93188   8.701  10.635  13.839
31900W        W93189  21.254   6.208  11.450
31901W        W93190  37.447  27.687   0.442
31902W        W93191   1.920  37.439   3.730
31903W        W93192   9.666  25.493   2.868
31904W        W93193   7.673  22.590  13.909
31905W        W93194  27.190  26.197  11.944
31906W        W93195   9.199  36.452  13.385
31907W        W93196  26.104  27.166   2.279
31908W        W93197  18.256  27.654   0.862
31909W        W93198  38.071  14.102   5.239
31910W        W93199  19.736  29.133  14.449
31911W        W93200  30.076  10.272   4.798
31912W        W93201  43.510   1.414   3.308
31913W        W93202   2.754  15.683   2.707
31914W        W93203  22.217   3.386   1.763
31915W        W93204   2.335  36.015   9.964
31916W        W93205  12.244  19.158  11.114
31917W        W93206  21.571  33.569  12.852
31918W        W93207  24.178  19.267   3.697
31919W        W93208  22.101  33.535   2.878
31920W        W93209  25.032  13.835  14.836
31921W        W93210  34.055  23.233   1.437
31922W        W93211  42.380  17.201   2.415
31923W        W93212   5.798  44.844   3.365
31924W        W93213   7.212  14.201   2.248
31925W        W93214  33.025  43.496   1.869
31926W        W93215  17.789  20.668   1.711
31927W        W93216  30.919  33.494   5.174
31928W        W93217  12.839  27.482  13.472
31929W        W93218  34.016  19.737   0.294
31930W        W93219  15.183  26.477   4.651
31931W        W93220  43.770  20.253  10.433
31932W        W93221   1.876  15.246  14.856
31933W        W93222  15.597  19.083   4.816
31934W        W93223   3.408   6.300  13.355
31935W        W93224  34.464  42.986   4.625
31936W        W93225  23.518   6.314  12.352
31937W        W93226  21.260  19.561  14.463
31938W        W93227  35.907  21.025   5.315
31939W        W93228  25.515  21.669   3.817
31940W        W93229  25.562   7.870   3.683
31941W        W93230   2.773   9.735   1.747
31942W        W93231  29.657  19.743  11.057
31943W        W93232  13.196  11.263   4.253
31944W        W93233  29.957  22.639  12.869
31945W        W93234  33.003  31.561   1.765
31946W        W93235  25.639  20.760  10.096
31947W        W93236  38.920   2.870  14.900
31948W        W93237  41.951  32.097  10.448
31949W        W93238   7.383   6.376  14.914
31950W        W93239  25.494  23.647  11.896
31951W        W93240  32.128  28.152   2.746
31952W        W93241  30.556   8.319   5.258
31953W        W93242  12.275  31.424   2.872
31954W        W93243  38.557  43.497  12.563
31955W        W93244   5.200  16.255   2.862
31956W        W93245   8.771  41.015  11.930
31957W        W93246   7.899   2.843   0.322
31958W        W93247  16.631  17.200  12.361
31959W        W93248  22.547   6.389   4.727
31960W        W93249  11.711   4.399   4.155
31961W        W93250   7.233  16.598  14.773
31962W        W93251   8.342  35.013  14.989
31963W        W93252  20.614   0.804   2.418
31964W        W93253   6.302  16.148  12.864
31965W        W93254  27.503  31.153  14.300
31966W        W93255  16.315  27.590   3.248
31967W        W93256   4.865  14.205   2.230
31968W        W93257  10.339  39.507   2.256
31969W        W93258  41.876  21.548   4.757
31970W        W93259  19.673  13.618   0.781
31971W        W93260   5.227  10.873  11.068
31972W        W93261   0.838   6.233   2.191
31973W        W93262   8.684   7.786   0.440
31974W        W93263  11.168   5.388   2.885
31975W        W93264  36.935   3.219  11.456
31976W        W93265  23.723   8.803  11.892
31977W        W93266  15.223  20.569  11.945
31978W        W93267  27.092  30.651   4.621
31979W        W93268  24.201  31.636  10.534
31980W        W93269  16.140  40.979  13.866
31981W        W93270  29.519  26.690   2.800
31982W        W93271  34.501  25.632  14.817
31983W        W93272  42.826  33.900   2.331
31984W        W93273  11.715  23.620   3.774
31985W        W93274  44.442  42.986  12.511
31986W        W93275   1.244  21.061   0.913
31987W        W93276  43.497  28.675   1.223
31988W        W93277   6.898  12.138   2.271
31989W        W93278   3.415  36.036  12.085
31990W        W93279  24.534  25.595  14.407
31991W        W93280  25.064   8.810  11.114
31992W        W93281  42.982  15.714  14.402
31993W        W93282  33.560  25.995  12.497
31994W        W93283  36.870   5.294  10.514
31995W        W93284  18.651  34.509   1.327
31996W        W93285  27.497  14.145  11.093
31997W        W93286  29.049   6.227  14.404
31998W        W93287  37.418  40.811  13.810
31999W        W93288  18.594  12.133  13.456
32000W        W93289   9.887  25.190  13.400
32001W        W93290  21.609  37.414   1.706
32002W        W93291  16.251  24.090  11.992
32003W        W93292  34.468  43.914   0.806
32004W        W93293   1.334  28.157  12.960
32005W        W93294  27.112  19.173   3.744
32006W        W93295  13.601  19.599   1.737
32007W        W93296  11.361  28.004   1.416
32008W        W93297  38.931  16.075  10.938
32009W        W93298  38.551  37.408  11.409
32010W        W93299  23.636  11.798  10.938
32011W        W93300  11.228  20.744   4.660
32012W        W93301  27.012  20.241  13.544
32013W        W93302   0.961  35.377  10.430
32014W        W93303  36.869   3.773  14.490
32015W        W93304  10.802  24.686   4.354
32016W        W93305   4.435  14.117  11.579
32017W        W93306  22.112  43.804  14.905
32018W        W93307  26.006  43.793  11.482
32019W        W93308  25.594  30.002   2.808
32020W        W93309   2.404  14.757  10.542
32021W        W93310   4.339  32.463  10.576
32022W        W93311  22.224  36.573   0.380
32023W        W93312  27.028   3.314   3.282
32024W        W93313  10.222  33.533   1.790
32025W        W93314   4.943  18.075   1.778
32026W        W93315  20.719  24.620   3.736
32027W        W93316  39.371  16.620  13.327
32028W        W93317  44.835  23.538   3.212
32029W        W93318   4.240  25.160   2.293
32030W        W93319  19.153  18.615   1.706
32031W        W93320  34.554  19.053   3.163
32032W        W93321  13.105  30.124  10.890
32033W        W93322   7.190  27.679   3.796
32034W        W93323  36.414  43.815  14.899
32035W        W93324  34.391  25.010  10.530
32036W        W93325  16.299   8.810   2.682
32037W        W93326  23.509  27.596   4.618
32038W        W93327  26.465   2.856  13.436
32039W        W93328   7.692  33.965   0.872
32040W        W93329  38.071  38.513   3.349
32041W        W93330   0.468  40.399   4.219
32042W        W93331  37.405  22.105  12.526
32043W        W93332   1.894   2.799   3.784
32044W        W93333  31.902  34.047   4.231
32045W        W93334  23.732  23.625   0.822
32046W        W93335   0.970  12.762   0.363
32047W        W93336  35.887  43.380  14.438
32048W        W93337  39.827  15.776   1.367
32049W        W93338  40.964   6.919  13.938
32050W        W93339  41.814  39.409   0.730
32051W        W93340  19.104  42.364  14.406
32052W        W93341  27.658  25.992   1.923
32053W        W93342  15.187   1.879   3.196
32054W        W93343   1.892  13.611  11.443
32055W        W93344  27.068   4.715  10.112
32056W        W93345   2.387  20.687   0.305
32057W        W93346  13.311   3.729  14.971
32058W        W93347  23.191  31.081   2.410
32059W        W93348   9.299  21.023   0.905
32060W        W93349   1.462  33.049  10.454
32061W        W93350  25.597  26.014  10.586
32062W        W93351   4.823  26.476  14.366
32063W        W93352  10.810  15.126   0.356
32064W        W93353   8.817   6.748   4.829
32065W        W93354   3.806   6.254  13.864
32066W        W93355  43.271   7.321  14.437
32067W        W93356  11.681  43.285   3.869
32068W        W93357  21.555   8.698  11.544
32069W        W93358  41.997   1.866  12.832
32070W        W93359  35.554  41.908   2.769
32071W        W93360  15.663  30.428  12.966
32072W        W93361  29.528  18.151  14.018
32073W        W93362   5.216  26.514   3.273
32074W        W93363  35.560  30.535   2.366
32075W        W93364  13.209  33.536   3.298
32076W        W93365  35.382  28.990   0.405
32077W        W93366  24.166  26.006  11.980
32078W        W93367  19.650  10.376   3.692
32079W        W93368  41.891  10.160  13.808
32080W        W93369   5.692  32.410   3.737
32081W        W93370  25.117  11.808   4.282
32082W        W93371   5.831  10.208  14.780
32083W        W93372  14.332  18.183  14.806
32084W        W93373  32.889   7.817   2.792
32085W        W93374  23.157  37.545  14.406
32086W        W93375  34.104  39.944  11.450
32087W        W93376  21.128  44.377  12.559
32088W        W93377  10.296  43.002  12.946
32089W        W93378  14.306  43.514   4.808
32090W        W93379  32.521  28.583  10.411
32091W        W93380  42.304  40.507   2.711
32092W        W93381  13.170  30.935   0.737
32093W        W93382  32.942   2.814   3.819
32094W        W93383  37.503  39.894  14.494
32095W        W93384  39.485   0.270  14.977
32096W        W93385   1.377  19.192  11.078
32097W        W93386   0.808   5.708   2.683
32098W        W93387  11.684  31.940   2.402
32099W        W93388  30.925  41.518  10.983
32100W        W93389  20.766  41.382   4.287
32101W        W93390   0.859  23.531  12.458
32102W        W93391   9.649  23.625   1.826
32103W        W93392   4.324  32.084   0.432
32104W        W93393   5.859   6.367  11.046
32105W        W93394  10.296  35.568  11.026
32106W        W93395   4.225  21.223   3.361
32107W        W93396   2.391  27.154  11.429
32108W        W93397  18.747   7.801  10.606
32109W        W93398  32.405  23.654   2.238
32110W        W93399  13.688  32.478   5.152
32111W        W93400  39.421   4.897  13.871
32112W        W93401  12.826  32.614   9.939
32113W        W93402  31.002   8.723   2.358
32114W        W93403  26.519  38.460   2.309
32115W        W93404  20.752  16.793  13.404
32116W        W93405  13.296  31.575  12.913
32117W        W93406  14.209  22.193  11.885
32118W        W93407   0.857  13.723   3.344
32119W        W93408  39.424  25.099  14.005
32120W        W93409  32.981  17.788   0.801
32121W        W93410  39.453  15.211   2.872
32122W        W93411  17.143  37.960   3.267
32123W        W93412   1.368   1.890   1.868
32124W        W93413   3.225  38.067   1.347
32125W        W93414  14.259   2.262  14.998
32126W        W93415  13.757   5.882  11.529
32127W        W93416  24.111  23.131   2.186
32128W        W93417   3.306  43.408  13.455
32129W        W93418   2.276  39.383  12.013
32130W        W93419  24.664   2.240   3.675
32131W        W93420   4.295  31.619   3.188
32132W        W93421  37.975  25.123   5.182
32133W        W93422   6.363  38.439  10.434
32134W        W93423  41.955  37.984   4.748
32135W        W93424  29.659  14.181   4.140
32136W        W93425  38.865   1.433  13.347
32137W        W93426  23.509  17.068   2.291
32138W        W93427  38.384  26.596   0.467
32139W        W93428  27.541  25.154   1.716
32140W        W93429  15.640  44.821   0.950
32141W        W93430  21.519  44.416  12.436
32142W        W93431   2.800  11.811  14.419
32143W        W93432  19.140  25.008   0.835
32144W        W93433   7.881  44.971  11.875
32145W        W93434   4.935  10.281   2.325
32146W        W93435   3.444  24.688   5.176
32147W        W93436  36.410  34.079  14.825
32148W        W93437  13.618  33.095  11.479
32149W        W93438  14.765  31.026   4.337
32150W        W93439   3.716  33.412  14.029
32151W        W93440  31.126  15.299   1.811
32152W        W93441  25.475  26.195   4.661
32153W        W93442  15.094   2.954  10.501
32154W        W93443  26.596  30.922  10.473
32155W        W93444   8.347  36.359   4.236
32156W        W93445  35.861  27.637  10.421
32157W        W93446   9.176   8.803  12.367
32158W        W93447  19.182   2.315  12.008
32159W        W93448  27.149  14.297  12.375
32160W        W93449  32.468  19.163  13.063
32161W        W93450   9.646  36.556   9.990
32162W        W93451   1.937   0.878   3.834
32163W        W93452  23.987  24.578  14.861
32164W        W93453   0.802   8.843   3.820
32165W        W93454  28.028   3.794  13.858
32166W        W93455  39.899  37.485  14.026
32167W        W93456  36.534   9.799  10.525
32168W        W93457   0.434   3.733   2.223
32169W        W93458   5.297  10.219   3.762
32170W        W93459  22.115  27.181  12.049
32171W        W93460  26.595   3.290   2.310
32172W        W93461  18.125  21.050  10.024
32173W        W93462  18.732   1.804  14.786
32174W        W93463  19.213  13.665   3.858
32175W        W93464  22.230  12.641  11.378
32176W        W93465   5.225  44.452   1.819
32177W        W93466  42.919   5.242   2.817
32178W        W93467  19.698  37.962  14.380
32179W        W93468  35.948  37.518   4.599
32180W        W93469  35.559   0.283   0.829
32181W        W93470   9.674  32.901   1.797
32182W        W93471  40.433  14.274   3.300
32183W        W93472  26.631  16.670   2.372
32184W        W93473  38.014  16.114  11.066
32185W        W93474  23.715  33.910  13.023
32186W        W93475   9.352  17.628  14.322
32187W        W93476  31.014   5.835  10.471
32188W        W93477  15.240  25.026   3.758
32189W        W93478  29.613  32.935   2.870
32190W        W93479   2.745  30.659   1.376
32191W        W93480  31.587  32.046   2.275
32192W        W93481  43.350  14.808   3.801
32193W        W93482  36.517   4.312   0.961
32194W        W93483  18.601   7.671  14.370
32195W        W93484  22.053  20.701   2.309
32196W        W93485  38.073  11.279   1.270
32197W        W93486   6.693  44.454  14.761
32198W        W93487  11.673   5.772   0.462
32199W        W93488  16.165  40.435   0.243
32200W        W93489  18.220  21.754  10.418
32201W        W93490  39.995  25.195  12.481
32202W        W93491  29.630  17.640  12.360
32203W        W93492  17.701  13.644  11.498
32204W        W93493  28.052   6.266   9.955
32205W        W93494  18.085  17.721   0.414
32206W        W93495  17.195   8.275  13.400
32207W        W93496   3.795  26.201  12.358
32208W        W93497   5.823  18.278  11.902
32209W        W93498  33.387   9.738  12.373
32210W        W93499  36.380  22.009   3.352
32211W        W93500  23.688   6.865   0.470
32212W        W93501  35.546  33.947   2.316
32213W        W93502  40.401  41.013   4.833
32214W        W93503   7.203   4.828   2.195
32215W        W93504  18.640  10.169   0.403
32216W        W93505  43.891  43.282   0.359
32217W        W93506  43.887  20.650  12.381
32218W        W93507  15.317  26.571  12.449
32219W        W93508  40.961  13.722   2.856
32220W        W93509   7.178   2.906  10.526
32221W        W93510  19.692  10.222  13.034
32222W        W93511  27.643  40.339  12.523
32223W        W93512  25.650  25.164  10.035
32224W        W93513  23.541  24.636   1.775
32225W        W93514  35.573  35.594   3.325
32226W        W93515  36.444  24.698   1.341
32227W        W93516  33.029   7.247   4.699
32228W        W93517  25.500  11.338   4.294
32229W        W93518  21.539  34.989  13.874
32230W        W93519   6.241  23.211   0.399
32231W        W93520  28.988  31.089   4.292
32232W        W93521  20.124  37.047   0.897
32233W        W93522  17.676  15.799  11.056
32234W        W93523  34.872  35.984  13.899
32235W        W93524   1.465  17.239  12.909
32236W        W93525  28.638  36.907   2.869
32237W        W93526  31.542  27.531  13.365
32238W        W93527   7.883  37.462  14.013
32239W        W93528  24.202  27.091   0.943
32240W        W93529  13.137  16.602  12.937
32241W        W93530  26.955  14.607  14.004
32242W        W93531  13.805   3.252   0.265
32243W        W93532   1.903  42.315   3.258
32244W        W93533  12.628   4.876  12.461
32245W        W93534  11.853  29.028   0.928
32246W        W93535   7.313  35.497  13.835
32247W        W93536   9.761  39.497   1.739
32248W        W93537  28.676  22.174  13.537
32249W        W93538  27.075  15.656   4.833
32250W        W93539  29.114  28.064  10.478
32251W        W93540  31.121  17.776   3.859
32252W        W93541   8.799  12.336   1.407
32253W        W93542   1.780   4.842   3.261
32254W        W93543  43.490  27.472   2.230
32255W        W93544   0.412  15.780   2.282
32256W        W93545  35.962  17.685   4.272
32257W        W93546  28.630  27.140  13.443
32258W        W93547  42.438   0.279   4.658
32259W        W93548  13.317  32.507   0.914
32260W        W93549   7.283  43.344  11.094
32261W        W93550  38.830  32.428  10.896
32262W        W93551  30.510   6.303   0.843
32263W        W93552  17.617  23.076   1.353
32264W        W93553   0.426  11.844   2.300
32265W        W93554  39.938  40.850   0.408
32266W        W93555   6.245  16.245  11.394
32267W        W93556  34.386   1.356   4.762
32268W        W93557   5.811  12.207   3.859
32269W        W93558   5.430   3.811  11.867
32270W        W93559  43.485  11.298  11.911
32271W        W93560  15.161  31.632  10.550
32272W        W93561  40.524  19.618   1.899
32273W        W93562  42.420  19.126   2.684
32274W        W93563  44.788  33.554   4.598
32275W        W93564  25.711  33.104  12.966
32276W        W93565  11.317  43.882   0.798
32277W        W93566  20.591  11.334   3.711
32278W        W93567  24.205  24.585  11.534
32279W        W93568  40.462   8.854  13.830
32280W        W93569  34.484  41.414   2.864
32281W        W93570  11.718  27.942  13.876
32282W        W93571   8.248   9.269  11.076
32283W        W93572  21.622  31.618   1.897
32284W        W93573  23.530  27.604   3.324
32285W        W93574  27.137  13.146  13.449
32286W        W93575  31.972  29.478   0.406
32287W        W93576   7.381   1.376  11.012
32288W        W93577  34.924  36.585  10.896
32289W        W93578  38.055  24.649   0.470
32290W        W93579  28.626  18.670   4.219
32291W        W93580  10.810   3.367  10.966
32292W        W93581  19.190  44.285   0.458
32293W        W93582  16.776  13.265   1.808
32294W        W93583  20.660   0.798  14.335
32295W        W93584  31.055  32.445   2.784
32296W        W93585  25.675  10.713  10.517
32297W        W93586  34.978  40.410   5.241
32298W        W93587   5.722   0.959  11.490
32299W        W93588  22.574  23.662   3.278
32300W        W93589  34.875  23.099  13.323
32301W        W93590  32.991  32.461  13.861
32302W        W93591  11.290  19.081   2.823
32303W        W93592  25.483  35.541  14.444
32304W        W93593  41.341  16.151   2.768
32305W        W93594   4.232  11.131   4.732
32306W        W93595   9.745   0.352   5.200
32307W        W93596   3.274  20.628  12.480
32308W        W93597  18.750  18.274   0.285
32309W        W93598  41.351  13.750  11.465
32310W        W93599  44.890  17.775  11.566
32311W        W93600  10.702  11.271  11.585
32312W        W93601   0.765   6.371   1.775
32313W        W93602  32.021  41.389  10.519
32314W        W93603  19.619   7.200   1.789
32315W        W93604  12.847   3.732  10.573
32316W        W93605  29.520  11.815  11.117
32317W        W93606  11.143   9.886   3.178
32318W        W93607  37.569  34.948   3.721
32319W        W93608   8.686  14.711  14.004
32320W        W93609  43.297  27.627  11.027
32321W        W93610  38.482  16.192   0.300
32322W        W93611   5.871  33.904  12.070
32323W        W93612  34.612  16.073  13.334
32324W        W93613  30.551  37.935  13.054
32325W        W93614   4.256  20.193  11.060
32326W        W93615  26.488  15.585  12.976
32327W        W93616  30.471  31.622  14.362
32328W        W93617  22.717  21.596  11.431
32329W        W93618  22.227  44.293   4.116
32330W        W93619  31.606  30.547  10.602
32331W        W93620   9.857  28.962  10.569
32332W        W93621  35.439  34.444   2.281
32333W        W93622   2.415  41.435  14.503
32334W        W93623   6.799   4.761  11.389
32335W        W93624  20.656  15.138  14.820
32336W        W93625  31.910  19.773  10.558
32337W        W93626   1.444  20.670   0.419
32338W        W93627  15.742   4.846  13.050
32339W        W93628  35.054  30.008   0.456
32340W        W93629  16.673  14.225   3.379
32341W        W93630   8.691  25.992  11.904
32342W        W93631  24.015  31.107  11.486
32343W        W93632  28.146  26.048  13.895
32344W        W93633  18.686  15.272  14.909
32345W        W93634  31.113  40.927  13.374
32346W        W93635   9.284  24.162  14.511
32347W        W93636  27.571   5.834   1.301
32348W        W93637  26.582  23.040   4.647
32349W        W93638  41.966   3.928  11.555
32350W        W93639  32.968  29.116  12.981
32351W        W93640  11.259  16.114  12.840
32352W        W93641  31.406  15.205   3.219
32353W        W93642   3.762  15.771   4.329
32354W        W93643  35.593  37.996   3.387
32355W        W93644  41.479  31.067   2.183
32356W        W93645   1.320   9.261   0.962
32357W        W93646  38.560  10.306  10.926
32358W        W93647  30.487  15.644  13.407
32359W        W93648  32.520  21.752   3.728
32360W        W93649  27.574   5.753   3.649
32361W        W93650  28.150  31.419  10.440
32362W        W93651   7.763  25.572  11.567
32363W        W93652  10.149  31.095  14.780
32364W        W93653  35.574  38.571  14.479
32365W        W93654  15.320   0.445   3.781
32366W        W93655  42.900  35.383  10.596
32367W        W93656  18.545   4.701  12.383
32368W        W93657  26.983  35.946  12.519
32369W        W93658  27.019   2.886  14.907
32370W        W93659  35.103  10.686  11.488
32371W        W93660  39.558  43.967  13.510
32372W        W93661  17.064  28.124   4.293
32373W        W93662  36.936  33.523   0.793
32374W        W93663  24.508  22.007   0.438
32375W        W93664  30.494  24.661   3.275
32376W        W93665   1.735  13.137  12.494
32377W        W93666  16.694  18.761   4.252
32378W        W93667   9.762  26.614  12.082
32379W        W93668  15.327   0.247  14.451
32380W        W93669  26.544  17.722  14.277
32381W        W93670  27.456  34.867   1.865
32382W        W93671  24.561  27.950  10.631
32383W        W93672   8.370  34.476  13.920
32384W        W93673  18.170  31.452  10.538
32385W        W93674  21.530  31.956   5.209
32386W        W93675   7.207  27.517   5.082
32387W        W93676  25.684  17.172   4.334
32388W        W93677  15.782  41.485  14.773
32389W        W93678  13.204  21.713  12.076
32390W        W93679   5.823  26.990  12.544
32391W        W93680  36.562  22.047   4.668
32392W        W93681  29.654  27.641   3.665
32393W        W93682  24.688  28.110  12.371
32394W        W93683  12.741  40.361   1.913
32395W        W93684  30.654  43.490   4.677
32396W        W93685  15.711  27.649   4.120
32397W        W93686  38.409  39.441  13.060
32398W        W93687   0.970  27.451   0.396
32399W        W93688   3.715  18.623  12.565
32400W        W93689  11.771  42.859   3.325
32401W        W93690  26.997  33.977   2.207
32402W        W93691  16.310  12.766  13.809
32403W        W93692   3.326  21.629   3.840
32404W        W93693  22.097  27.989  11.977
32405W        W93694  30.986   1.399  13.465
32406W        W93695   5.379   3.228   1.822
32407W        W93696  10.728   3.831   9.654
32408W        W93697  41.523  24.223   1.234
32409W        W93698   8.892  37.398  11.008
32410W        W93699  43.818   1.401  11.447
32411W        W93700  25.182   8.281   2.777
32412W        W93701   0.324  24.129   0.867
32413W        W93702  28.510  26.031  12.015
32414W        W93703  13.318  30.937   3.158
32415W        W93704  36.844  28.022   4.219
32416W        W93705  15.589  17.591  14.901
32417W        W93706  14.323   0.857   5.156
32418W        W93707  30.967   1.783  14.819
32419W        W93708   1.377  12.681  11.959
32420W        W93709  37.014   0.444  14.465
32421W        W93710  32.504  16.589  11.527
32422W        W93711   3.722  33.512  10.916
32423W        W93712  33.409  10.663   3.175
32424W        W93713  21.655  23.992  13.429
32425W        W93714  35.080   7.860  12.004
32426W        W93715  42.426  37.988  14.327
32427W        W93716   8.893   2.231  12.380
32428W        W93717  22.613  33.480   1.917
32429W        W93718  35.053  26.637  13.336
32430W        W93719  30.587  38.528  13.913
32431W        W93720  27.663  12.349  12.431
32432W        W93721  35.002  29.473   3.290
32433W        W93722   1.784  24.506   1.794
32434W        W93723  33.551  39.988  14.025
32435W        W93724  20.081   7.674   3.660
32436W        W93725   7.906  44.007  10.907
32437W        W93726  27.990  13.692  12.553
32438W        W93727  30.456  24.033   1.305
32439W        W93728  34.988  39.059  10.622
32440W        W93729  22.186  30.598  13.310
32441W        W93730  18.729   8.390   0.484
32442W        W93731   3.313  29.454  14.948
32443W        W93732  26.613  35.384  10.502
32444W        W93733  36.588  16.189   0.314
32445W        W93734   5.236  42.481  13.796
32446W        W93735   6.253  14.591   1.877
32447W        W93736   1.933   8.274   2.879
32448W        W93737  16.082   1.341  12.418
32449W        W93738  16.793  28.068  10.996
32450W        W93739  37.552  27.995   0.312
32451W        W93740   1.408  33.390  12.982
32452W        W93741  30.530  39.500  12.980
32453W        W93742  12.715   3.355   4.218
32454W        W93743   0.986  34.466   3.202
32455W        W93744  44.768  23.059  14.844
32456W        W93745  36.592  39.430  10.462
32457W        W93746   7.905  29.530   3.794
32458W        W93747   7.267  28.932   4.787
32459W        W93748  19.597  20.139   3.813
32460W        W93749  38.547  17.766   1.353
32461W        W93750   2.874  38.533   2.889
32462W        W93751   6.227  22.624   0.401
32463W        W93752   2.732  35.426   4.155
32464W        W93753   2.834  24.630   2.817
32465W        W93754  40.347  38.504   3.276
32466W        W93755  42.386   9.383  12.860
32467W        W93756  35.372  13.841   3.369
32468W        W93757   8.333  17.124  14.453
32469W        W93758  11.779  23.600   1.293
32470W        W93759  29.635  28.165   0.299
32471W        W93760  14.668  44.494   1.305
32472W        W93761  17.646   5.746  11.980
32473W        W93762  27.002  10.162   1.781
32474W        W93763  20.230   4.822  12.570
32475W        W93764  11.800   7.685  14.934
32476W        W93765  40.498  28.677   4.178
32477W        W93766  40.045  42.280   2.857
32478W        W93767  25.482  32.937   3.230
32479W        W93768  14.800  25.157   4.821
32480W        W93769  30.022  27.483  12.417
32481W        W93770   6.218  37.950   2.856
32482W        W93771  41.998  18.726   5.207
32483W        W93772  34.916  20.663  14.796
32484W        W93773   3.829  14.095  14.934
32485W        W93774  33.960  10.364  12.545
32486W        W93775  13.125  18.255   3.261
32487W        W93776   9.837  20.138   1.277
32488W        W93777  22.046  34.014  11.891
32489W        W93778  16.778  21.575   4.155
32490W        W93779   5.789   1.854  12.856
32491W        W93780   5.849  41.509   3.224
32492W        W93781  13.734  32.076  10.606
32493W        W93782  34.497   3.894   4.600
32494W        W93783  15.198  33.950  14.500
32495W        W93784  14.265   9.837   4.684
32496W        W93785  21.226  40.958  10.911
32497W        W93786   4.244  43.842   0.268
32498W        W93787  38.551  18.549   1.430
32499W        W93788  26.187  10.865   1.822
32500W        W93789  20.656   4.719   2.863
32501W        W93790   7.293  41.469   1.756
32502W        W93791   8.873   4.877  10.447
32503W        W93792  14.288  21.070   2.302
32504W        W93793   6.729  21.085   0.868
32505W        W93794  16.183  19.593  11.017
32506W        W93795  32.046  29.522  14.461
32507W        W93796  10.738  21.667   0.250
32508W        W93797   3.944   9.884   3.250
32509W        W93798  20.053  11.348  11.389
32510W        W93799  19.578  36.576  13.464
32511W        W93800   3.367  21.680   4.784
32512W        W93801  13.191  27.552   1.244
32513W        W93802  23.053   5.419  12.386
32514W        W93803   1.481  40.456  11.073
32515W        W93804  24.561  24.608   2.835
32516W        W93805   9.275  10.140   2.413
32517W        W93806  12.358  40.421  11.867
32518W        W93807  23.538  42.848  14.481
32519W        W93808  44.986   0.917   1.390
32520W        W93809   0.826   0.756   1.874
32521W        W93810  15.735  37.347   0.765
32522W        W93811  15.127  13.817  14.284
32523W        W93812  38.566  26.686   4.204
32524W        W93813  39.410  33.962  10.916
32525W        W93814  17.739  30.995   2.826
32526W        W93815  15.670  16.781   2.257
32527W        W93816  25.673  42.911  14.817
32528W        W93817  31.511   0.916   5.655
32529W        W93818  11.691  37.411  14.831
32530W        W93819   7.829  39.905   3.826
32531W        W93820  20.063   9.657   1.854
32532W        W93821  16.130   0.358   2.673
32533W        W93822   1.263   6.713  12.485
32534W        W93823  20.675  22.150   2.376
32535W        W93824  35.953  30.079  14.883
32536W        W93825  34.503  11.133   0.407
32537W        W93826  41.514  34.536  12.880
32538W        W93827   2.441  18.155   0.380
32539W        W93828  43.374   8.799  14.942
32540W        W93829   9.212  41.818  10.421
32541W        W93830  12.307  43.449  14.396
32542W        W93831  44.805  38.367  13.429
32543W        W93832  18.216   1.293   0.888
32544W        W93833   7.289  15.737  11.521
32545W        W93834  35.064  24.717  11.540
32546W        W93835  36.983  34.607   0.321
32547W        W93836  28.104  29.105   3.165
32548W        W93837   3.368  29.564  11.540
32549W        W93838  39.957  17.695   0.730
32550W        W93839   3.261  39.879  12.030
32551W        W93840  38.024  24.577  11.504
32552W        W93841  35.510   9.723   0.272
32553W        W93842  30.461  30.954   2.224
32554W        W93843   3.835  23.531  10.634
32555W        W93844  35.553  36.018   0.289
32556W        W93845  18.235   0.432   2.722
32557W        W93846   4.338   0.872  12.423
32558W        W93847  13.733  40.923  10.980
32559W        W93848  41.351  31.999  12.916
32560W        W93849   6.769   8.368  12.395
32561W        W93850  11.709  14.227  10.143
32562W        W93851  42.007  37.048  14.998
32563W        W93852   2.389  13.339   0.798
32564W        W93853  44.915  24.050   0.883
32565W        W93854  38.013  39.021  10.572
32566W        W93855   9.155  34.006   0.875
32567W        W93856  39.346  19.274   2.294
32568W        W93857  42.816  32.563   5.182
32569W        W93858  16.179   9.277  14.453
32570W        W93859  10.232  27.665  13.040
32571W        W93860   2.332  34.084  13.840
32572W        W93861  36.038  40.930  11.957
32573W        W93862   4.418  37.555   1.410
32574W        W93863  40.934  24.635  11.924
32575W        W93864   4.945  36.913  12.853
32576W        W93865  24.216  42.972   9.980
32577W        W93866   4.942  40.407   3.372
32578W        W93867   0.743  35.105   4.701
32579W        W93868  24.660  40.890   4.676
32580W        W93869  43.830  40.035   1.427
32581W        W93870  43.404  32.102   1.780
32582W        W93871   6.704  32.592   3.151
32583W        W93872  17.794  44.424  14.326
32584W        W93873  24.000  36.979  14.442
32585W        W93874   9.309   8.367  14.504
32586W        W93875  26.471  11.363   1.853
32587W        W93876  31.479  38.361   1.756
32588W        W93877  19.176   9.782  13.484
32589W        W93878  14.705  11.728   5.272
32590W        W93879  34.583  15.194   2.265
32591W        W93880   9.869  32.533  13.853
32592W        W93881  16.642  11.840  10.537
32593W        W93882  41.983  22.504  13.471
32594W        W93883  35.049   0.882  10.605
32595W        W93884  40.037  11.228   4.181
32596W        W93885  14.658  43.293  10.460
32597W        W93886  21.199  38.484   3.296
32598W        W93887  31.023  21.578   4.767
32599W        W93888   2.810  24.524  12.377
32600W        W93889  19.188  40.309  12.050
32601W        W93890  20.042  36.936   3.227
32602W        W93891  34.047  31.955   2.328
32603W        W93892   6.804  44.898   0.264
32604W        W93893  31.611   2.750   1.240
32605W        W93894  33.970  25.020   0.355
32606W        W93895  15.300  39.856  10.046
32607W        W93896  16.306   6.884  10.445
32608W        W93897  13.283  11.665  11.083
32609W        W93898  25.513   7.181  12.546
32610W        W93899  12.159   9.242   4.805
32611W        W93900  34.005  10.365  11.889
32612W        W93901  11.282  26.486  12.950
32613W        W93902  30.039   3.867   4.314
32614W        W93903  16.192   9.713  14.865
32615W        W93904   6.801  42.872   1.887
32616W        W93905  12.173  24.527  13.873
32617W        W93906   2.901  37.918  14.786
32618W        W93907   5.887  24.516   0.379
32619W        W93908  31.120  28.458  11.446
32620W        W93909  23.702   1.382  10.544
32621W        W93910  35.002  33.020   1.278
32622W        W93911  43.421   0.787   4.197
32623W        W93912  10.290   0.920  14.860
32624W        W93913  30.092  42.363   0.304
32625W        W93914   3.349  22.069   3.806
32626W        W93915  16.718  10.781   0.830
32627W        W93916  22.703  31.615   1.785
32628W        W93917  41.880  20.270   9.962
32629W        W93918  35.440  16.300  12.900
32630W        W93919  12.667   3.888   3.310
32631W        W93920  35.376  26.647  11.486
32632W        W93921  25.521  14.833   0.801
32633W        W93922  29.998  38.820  11.532
32634W        W93923  33.967   0.954   4.255
32635W        W93924  12.172  14.789   0.294
32636W        W93925  20.146  13.267  13.811
32637W        W93926  32.538  13.315   1.808
32638W        W93927  13.105  34.978   2.330
32639W        W93928  36.507  33.410  13.957
32640W        W93929  10.332  18.573   0.923
32641W        W93930  42.936  36.934  12.418
32642W        W93931  37.424  43.829   3.162
32643W        W93932  29.039  22.627  12.045
32644W        W93933  36.956   0.756  11.474
32645W        W93934  17.793  41.918  14.338
32646W        W93935  11.758  27.579   1.343
32647W        W93936  24.591   4.381  10.486
32648W        W93937  20.538  11.805  12.365
32649W        W93938  24.500   0.868   1.814
32650W        W93939  27.532  27.592  10.978
32651W        W93940  37.862  13.168  13.012
32652W        W93941  33.523  32.118   0.815
32653W        W93942  31.013  34.556   4.670
32654W        W93943  39.502  35.878   1.779
32655W        W93944  42.366  34.574   2.376
32656W        W93945   7.834   0.988  13.821
32657W        W93946  25.527  31.407   1.741
32658W        W93947  32.483  41.981  10.491
32659W        W93948  40.952   9.361   5.654
32660W        W93949  19.108   5.377  11.904
32661W        W93950  15.087  19.229   4.708
32662W        W93951   6.192  36.097  12.983
32663W        W93952  29.174  26.099  11.490
32664W        W93953  25.993  29.136  12.060
32665W        W93954  18.586  42.953  11.056
32666W        W93955  15.148  26.978  10.998
32667W        W93956   1.833  44.865   4.668
32668W        W93957  18.720  40.544  10.590
32669W        W93958  31.514  38.339   3.148
32670W        W93959   0.850  38.431  13.399
32671W        W93960  18.052  35.530  12.343
32672W        W93961  18.761  23.575  12.999
32673W        W93962  11.370  25.039  14.958
32674W        W93963  16.265  37.481  12.051
32675W        W93964  35.905  23.105   3.379
32676W        W93965  15.151  31.137   3.157
32677W        W93966  13.786   2.322   2.291
32678W        W93967  22.242  34.086   0.776
32679W        W93968  20.705   0.918   0.398
32680W        W93969   7.884  36.984  11.056
32681W        W93970  36.404   5.913  10.627
32682W        W93971  11.804   1.970   0.371
32683W        W93972  23.559  39.886  11.944
32684W        W93973  41.010  29.994   1.696
32685W        W93974  28.039  38.403  10.525
32686W        W93975  29.166  39.892   0.940
32687W        W93976  18.652   8.283  12.869
32688W        W93977  10.722   2.799  14.407
32689W        W93978  18.622  31.610   4.184
32690W        W93979  41.923  42.919   0.362
32691W        W93980  30.571  41.894  11.578
32692W        W93981  41.352   7.414   2.827
32693W        W93982   8.894  20.626  12.927
32694W        W93983  28.078  23.028   4.617
32695W        W93984   7.764  17.587  11.860
32696W        W93985   8.778   0.882   5.233
32697W        W93986   8.266  44.458  11.993
32698W        W93987  22.715   6.713  14.863
32699W        W93988  34.393   5.721  14.502
32700W        W93989  33.034  26.539   0.791
32701W        W93990  26.036  40.987  13.046
32702W        W93991  44.407  10.803   5.253
32703W        W93992  32.604  20.583  11.882
32704W        W93993  18.660  16.193  12.885
32705W        W93994  25.532   3.776  12.418
32706W        W93995   5.690  36.012  10.627
32707W        W93996  19.083  11.302  13.824
32708W        W93997   0.379  33.980  13.993
32709W        W93998  16.717   8.783  12.912
32710W        W93999  21.673  13.279  12.461
32711W        W94000  44.897  26.557  10.998
32712W        W94001  14.766  16.079   0.944
32713W        W94002   0.461   8.258   4.293
32714W        W94003   1.963  34.881   1.801
32715W        W94004  23.669  24.121   2.268
32716W        W94005  25.614  30.581  12.408
32717W        W94006  17.555  28.605   3.377
32718W        W94007  28.991  14.147  12.831
32719W        W94008  40.009  19.702   2.852
32720W        W94009  10.165  24.214   4.331
32721W        W94010  14.800   3.275  14.330
32722W        W94011  37.940   7.302   1.805
32723W        W94012  43.868  35.854  12.955
32724W        W94013  38.929   4.361  13.479
32725W        W94014  37.879  34.514   4.280
32726W        W94015  44.494  27.582   4.149
32727W        W94016   6.841  12.265  13.979
32728W        W94017   1.796  20.580  14.852
32729W        W94018  13.770  16.273  13.893
32730W        W94019  19.534  19.552   4.608
32731W        W94020  14.282   5.734   2.217
32732W        W94021  29.128  28.513   2.888
32733W        W94022  23.539  18.182   3.353
32734W        W94023  13.624  15.668   2.777
32735W        W94024   9.276   7.681   2.786
32736W        W94025   6.702  34.958  12.550
32737W        W94026   3.234  34.484   2.789
32738W        W94027   1.969  27.122  11.433
32739W        W94028  12.321  13.683   0.847
32740W        W94029   3.918  27.634  12.053
32741W        W94030  33.069  18.678   2.391
32742W        W94031  22.996   0.489   0.301
32743W        W94032  33.403  33.922  10.439
32744W        W94033  34.536  22.081  12.363
32745W        W94034  11.254  44.917   2.245
32746W        W94035  37.837  27.618  10.632
32747W        W94036   8.304  32.067  10.956
32748W        W94037   6.679   8.378   1.259
32749W        W94038   4.251   4.325   1.722
32750W        W94039  11.166   4.831  10.942
32751W        W94040  33.443  16.629  13.464
32752W        W94041  28.010   3.759  13.316
32753W        W94042  20.603  12.220   0.848
32754W        W94043   8.891  13.655   2.843
32755W        W94044  33.577  38.869   3.684
32756W        W94045  23.174  15.651   4.793
32757W        W94046  11.370  20.125  14.347
32758W        W94047  42.883  26.146   0.768
32759W        W94048  40.451  33.978   2.355
32760W        W94049  31.105  15.742   3.162
32761W        W94050  12.238  16.761  12.979
32762W        W94051  43.765  37.025   2.738
32763W        W94052  10.844  14.205   1.247
32764W        W94053  19.182   5.724  10.558
32765W        W94054  38.030   1.373   4.317
32766W        W94055   7.807   0.394  11.511
32767W        W94056   7.730  40.959   3.284
32768W        W94057   6.375  43.864   2.809
32769W        W94058  43.414  36.015   3.729
32770W        W94059  31.503   4.781   4.603
32771W        W94060   9.359  26.693   1.423
32772W        W94061  10.745  11.373  12.855
32773W        W94062  34.885  39.907   9.990
32774W        W94063  36.885  41.452  13.924
32775W        W94064  35.532  13.185  12.910
32776W        W94065  17.144  34.391  10.600
32777W        W94066   1.942  28.092  13.834
32778W        W94067   8.788   5.849   3.711
32779W        W94068   3.426   5.906   0.806
32780W        W94069   6.905   7.818   3.261
32781W        W94070  20.202  17.637  11.411
32782W        W94071  38.966  36.003  12.354
32783W        W94072   5.279   0.770   1.806
32784W        W94073  19.082   9.331   1.242
32785W        W94074  22.554  43.298  13.982
32786W        W94075  33.124  28.484  10.478
32787W        W94076  11.807  18.608   0.795
32788W        W94077  11.224  12.216   0.754
32789W        W94078   7.330  44.268   3.273
32790W        W94079  41.858  19.056  14.487
32791W        W94080  21.712  13.802   3.749
32792W        W94081  32.486  13.744   2.837
32793W        W94082  36.886  43.945  10.643
32794W        W94083   1.862  32.001   3.695
32795W        W94084  33.947  16.168  11.015
32796W        W94085  43.768  33.937   4.640
32797W        W94086   8.663  18.077  11.017
32798W        W94087   8.776  18.626  13.918
32799W        W94088  28.468  38.879   2.402
32800W        W94089  19.697  44.430   4.279
32801W        W94090  12.123  27.040   4.703
32802W        W94091  26.685  26.116  11.609
32803W        W94092  24.147   2.809  14.305
32804W        W94093  36.991  24.681   2.370
32805W        W94094   3.878  44.958   4.322
32806W        W94095   3.457  30.992   3.263
32807W        W94096  13.127   5.205  12.887
32808W        W94097   2.879  30.567   0.749
32809W        W94098  16.596   7.355  13.038
32810W        W94099  27.999  12.266   5.247
32811W        W94100  31.597   1.378   0.447
32812W        W94101  36.991  35.991   1.860
32813W        W94102  17.303  29.485  11.092
32814W        W94103  29.525  21.627   3.724
32815W        W94104  17.764  42.890   4.610
32816W        W94105  21.136  37.350   1.915
32817W        W94106   9.862   0.275   3.372
32818W        W94107  23.167  14.325   0.771
32819W        W94108   3.856  13.755   1.773
32820W        W94109  30.433  39.330   2.398
32821W        W94110  19.760   6.804  12.960
32822W        W94111  11.673  14.199  11.881
32823W        W94112   4.449  26.548  14.322
32824W        W94113  14.611  20.051   0.333
32825W        W94114  35.947   2.264  11.891
32826W        W94115   4.714  35.562   0.880
32827W        W94116  28.017  13.122  11.513
32828W        W94117  22.507   4.383  12.934
32829W        W94118  40.348   7.861  10.426
32830W        W94119   0.954  42.918   4.794
32831W        W94120  10.323  34.577   2.394
32832W        W94121  35.573  24.123   4.349
32833W        W94122   7.189  26.067  14.997
32834W        W94123  41.310   1.842   4.608
32835W        W94124  35.103  31.405   2.721
32836W        W94125  20.628  17.657  13.377
32837W        W94126   4.354  14.660   4.632
32838W        W94127  36.057  41.396   2.903
32839W        W94128  22.529  23.998  14.337
32840W        W94129  13.662   6.267   3.671
32841W        W94130   0.353  14.209  13.050
32842W        W94131  40.330  29.618  14.436
32843W        W94132  10.310  34.101  12.907
32844W        W94133  25.198  26.534   2.324
32845W        W94134  13.349  25.478   0.958
32846W        W94135   8.736  33.110  14.888
32847W        W94136   9.252   3.454   0.326
32848W        W94137  42.406  42.015   3.748
32849W        W94138  41.300  34.422  12.399
32850W        W94139  20.220   8.171  10.552
32851W        W94140   3.280   2.387   4.780
32852W        W94141   0.802  30.101   2.188
32853W        W94142  11.276  21.174  12.556
32854W        W94143  19.228  36.578  10.911
32855W        W94144  16.168  39.983  11.554
32856W        W94145   3.295  38.504  11.556
32857W        W94146  21.192  23.039  10.904
32858W        W94147  13.128   6.745   1.751
32859W        W94148  20.545  20.532  10.934
32860W        W94149  30.953  27.196   0.298
32861W        W94150  19.665   2.288  13.934
32862W        W94151  32.987  33.410  12.356
32863W        W94152  22.198  13.757  11.598
32864W        W94153  19.547  23.700  13.362
32865W        W94154  13.105   1.926  13.537
32866W        W94155  22.561  41.960  11.077
32867W        W94156  36.399  18.144  14.842
32868W        W94157   1.791  13.266  11.580
32869W        W94158  27.963  21.187  12.946
32870W        W94159  39.415  11.350  12.922
32871W        W94160  36.043  34.002  13.439
32872W        W94161  42.441  11.791   0.387
32873W        W94162  33.421  37.948   4.720
32874W        W94163  42.922   8.329  10.081
32875W        W94164  26.102   4.768  14.319
32876W        W94165  40.818  16.184   3.375
32877W        W94166  36.020  30.121   2.253
32878W        W94167  43.459  10.219   0.959
32879W        W94168  19.646  31.083   2.859
32880W        W94169  22.667  19.167   4.721
32881W        W94170   7.243  23.018  10.584
32882W        W94171  19.620  11.323   2.220
32883W        W94172  21.587  44.489   0.350
32884W        W94173  33.071  23.498  10.591
32885W        W94174  12.278  30.980   9.940
32886W        W94175  32.393  15.300   3.337
32887W        W94176  19.564  26.502  14.405
32888W        W94177  33.570   4.238   0.854
32889W        W94178  36.868  43.443  14.492
32890W        W94179  42.879  27.580  14.817
32891W        W94180   9.683  40.452   3.293
32892W        W94181  35.016  39.929   2.717
32893W        W94182  41.317  34.025   3.326
32894W        W94183  34.505  38.515  12.831
32895W        W94184  18.761  23.221  10.605
32896W        W94185   0.886  24.217  12.545
32897W        W94186  21.038   6.274   3.659
32898W        W94187   5.836  38.406   4.777
32899W        W94188  25.964  44.903   1.716
32900W        W94189  23.011  39.485  11.100
32901W        W94190  20.593  12.165  11.603
32902W        W94191  25.496   7.296  12.838
32903W        W94192  13.620  14.093   0.470
32904W        W94193  27.170   5.271   3.853
32905W        W94194   2.888   0.782  13.385
32906W        W94195  22.741  12.679   3.663
32907W        W94196  11.129   6.406   3.635
32908W        W94197  35.514  28.960   0.809
32909W        W94198  26.002   0.305  13.988
32910W        W94199  37.897   6.903   4.219
32911W        W94200  30.518  25.477  11.485
32912W        W94201  32.897  38.059   4.278
32913W        W94202  11.747   3.767  10.570
32914W        W94203   0.922   2.458  10.556
32915W        W94204  19.142  34.940  14.983
32916W        W94205  34.597  30.657   3.306
32917W        W94206   6.292  31.465   4.681
32918W        W94207   4.334   7.366   1.368
32919W        W94208   6.183  36.928  10.633
32920W        W94209  24.592  40.915  11.074
32921W        W94210  37.999  12.785  12.932
32922W        W94211  15.712   5.241  11.562
32923W        W94212  22.714   4.221  11.963
32924W        W94213  40.351  43.373  11.857
32925W        W94214  19.546  23.704  10.936
32926W        W94215  37.845   4.204  11.016
32927W        W94216  38.950  33.620  10.456
32928W        W94217  25.034  36.911  10.619
32929W        W94218   7.888  37.876  10.595
32930W        W94219  25.694  32.001   0.745
32931W        W94220  36.588  33.589   4.174
32932W        W94221  42.960  36.929   0.888
32933W        W94222  15.652   7.675  12.483
32934W        W94223  12.224   4.897   5.203
32935W        W94224  24.082   3.410  14.409
32936W        W94225   7.368  24.620  11.932
32937W        W94226  27.634  29.616  13.519
32938W        W94227  37.871  26.514  12.505
32939W        W94228  14.269  39.924   0.822
32940W        W94229   1.437  25.119   1.829
32941W        W94230  35.563  21.739  14.867
32942W        W94231  25.962  22.720  14.809
32943W        W94232  11.658  24.145  12.877
32944W        W94233  23.242  12.223  11.033
32945W        W94234  11.703  26.465  14.298
32946W        W94235   7.885  19.743  12.407
32947W        W94236   8.769   4.289   4.219
32948W        W94237  40.901  19.776  14.801
32949W        W94238  16.781   5.827   1.422
32950W        W94239   5.334   5.295   4.254
32951W        W94240   0.394  28.469  11.402
32952W        W94241  22.019  28.556  11.460
32953W        W94242   8.695   5.878   3.146
32954W        W94243   0.960  10.326   3.731
32955W        W94244  15.192  10.749   1.366
32956W        W94245  37.036  41.326   1.737
32957W        W94246  14.166  28.157   0.867
32958W        W94247   0.751  36.531   2.319
32959W        W94248  22.504   3.269  12.076
32960W        W94249  13.619  17.721  13.392
32961W        W94250  29.447  17.694  11.568
32962W        W94251  36.357  38.892  14.914
32963W        W94252  24.117  43.486  12.341
32964W        W94253  17.567  14.776   2.787
32965W        W94254  39.529  28.669  11.054
32966W        W94255  40.802  24.129   4.263
32967W        W94256   3.454  36.019  14.948
32968W        W94257  21.753   5.403  13.351
32969W        W94258  25.568  41.919  13.964
32970W        W94259  23.058  21.252   4.609
32971W        W94260  24.222   5.229  14.411
32972W        W94261  33.412   7.722   0.308
32973W        W94262  10.715  15.227   0.752
32974W        W94263   9.795  12.630  12.511
32975W        W94264  44.487  39.930  11.997
32976W        W94265  41.515  20.647  14.009
32977W        W94266  20.058  42.847  14.282
32978W        W94267  41.796  20.683  10.635
32979W        W94268  28.040  41.976   4.312
32980W        W94269  33.623  21.111  12.837
32981W        W94270   2.820   2.849   3.261
32982W        W94271  42.971  24.201  13.844
32983W        W94272  31.150  25.714  11.047
32984W        W94273   9.242   1.459  13.455
32985W        W94274  28.999  10.832   3.768
32986W        W94275  17.741  19.191  13.422
32987W        W94276  26.169  42.291   0.456
32988W        W94277  37.003  19.617  10.460
32989W        W94278  23.683  23.523  12.062
32990W        W94279  13.790   6.281  13.855
32991W        W94280  34.016  25.576   1.432
32992W        W94281   3.289  18.247   4.298
32993W        W94282   2.813  25.661  12.053
32994W        W94283  12.191  43.769   2.791
32995W        W94284  16.673  40.528   0.805
32996W        W94285  23.176   2.746   0.333
32997W        W94286   7.244  35.999   1.761
32998W        W94287  17.681  14.833  14.880
32999W        W94288   4.879  13.732   5.111
33000W        W94289  44.415  40.362  13.892
33001W        W94290   1.870  37.885  13.795
33002W        W94291   8.312   4.836  10.903
33003W        W94292   6.186  23.704   2.888
33004W        W94293  28.642  16.570  12.936
33005W        W94294  11.146   0.296   1.225
33006W        W94295  36.879   9.304  12.058
33007W        W94296   5.881  31.106   2.275
33008W        W94297  24.646  29.660  12.877
33009W        W94298  17.598  40.034  14.958
33010W        W94299  22.604  25.485  12.900
33011W        W94300   1.822  12.199  12.889
33012W        W94301   6.288  35.484  12.504
33013W        W94302   7.668  39.442  14.322
33014W        W94303  36.401  18.072  13.510
33015W        W94304  17.690  34.985  11.125
33016W        W94305  31.906  15.143  13.876
33017W        W94306   7.677  11.234  10.926
33018W        W94307  18.174   9.221  10.988
33019W        W94308  12.783  15.168  14.278
33020W        W94309  24.105  26.503  10.048
33021W        W94310  31.058  19.623  10.967
33022W        W94311  35.920  44.789   2.884
33023W        W94312  15.308  38.424   3.166
33024W        W94313  40.353  34.004  14.026
33025W        W94314  31.575  40.977   0.734
33026W        W94315  14.202  24.100  14.861
33027W        W94316  44.440   8.897   1.854
33028W        W94317   3.330   2.816   2.215
33029W        W94318  37.908  29.107   2.413
33030W        W94319  20.256  36.502  13.406
33031W        W94320   5.232   7.682  11.397
33032W        W94321  19.219  34.461  13.975
33033W        W94322  17.594  35.423   4.621
33034W        W94323  20.633  41.486   1.743
33035W        W94324  16.607  14.317  11.469
33036W        W94325   9.225  37.044  10.574
33037W        W94326  19.105  31.515  14.386
33038W        W94327   2.948  44.426  11.969
33039W        W94328  19.779  35.074   0.948
33040W        W94329  34.469   0.765  14.380
33041W        W94330  19.561  29.961  11.024
33042W        W94331   4.922   5.866  11.970
33043W        W94332   9.381   2.735   4.677
33044W        W94333   7.810  40.954  11.544
33045W        W94334  43.856   9.318  11.950
33046W        W94335  28.120   3.418  10.454
33047W        W94336  15.811  42.413   2.179
33048W        W94337  30.612  37.424   3.689
33049W        W94338  15.127  41.318  14.925
33050W        W94339  29.970  21.242  13.488
33051W        W94340  26.597  32.939  11.583
33052W        W94341  31.990   4.205   4.816
33053W        W94342   8.328  34.952   3.266
33054W        W94343   8.801  44.266  14.910
33055W        W94344  26.588   7.253  14.839
33056W        W94345  32.133  32.590  10.485
33057W        W94346  31.972   6.416   5.262
33058W        W94347  13.184  12.143   1.706
33059W        W94348  43.390  31.947   3.682
33060W        W94349  39.544  44.853   2.263
33061W        W94350  10.354  14.807  12.073
33062W        W94351  40.333  30.516   0.870
33063W        W94352  34.556  40.886  13.925
33064W        W94353  29.032  36.474  12.450
33065W        W94354  31.978   9.816  13.823
33066W        W94355  41.852   4.811  10.625
33067W        W94356  20.040  32.544   2.359
33068W        W94357   1.401   7.769   2.846
33069W        W94358  24.679   7.342  13.995
33070W        W94359   8.247  30.461  14.501
33071W        W94360   7.838  38.339   0.248
33072W        W94361   9.706   4.334  13.475
33073W        W94362  17.286  36.004   1.798
33074W        W94363   4.830  29.611   0.272
33075W        W94364  20.191   5.757  12.033
33076W        W94365  20.545  16.212  10.991
33077W        W94366  33.450   2.353  12.976
33078W        W94367  41.977  19.262  13.064
33079W        W94368  23.029  23.680   3.767
33080W        W94369  11.782  42.424   0.272
33081W        W94370  30.647  38.904  12.569
33082W        W94371  27.192   4.438   1.259
33083W        W94372  24.098  23.542   3.175
33084W        W94373   1.913  33.985   3.230
33085W        W94374  32.088  10.752   1.449
33086W        W94375  27.457  23.557   2.246
33087W        W94376  12.145  32.905  12.049
33088W        W94377  15.177  39.328  12.430
33089W        W94378   8.748   7.297  11.095
33090W        W94379   6.268  32.982   1.275
33091W        W94380   8.206   9.190   2.407
33092W        W94381   9.325  12.705  14.362
33093W        W94382  11.640   4.438   3.213
33094W        W94383  17.706  24.005  10.956
33095W        W94384   5.726  39.333   1.388
33096W        W94385  25.473  15.729   3.811
33097W        W94386  41.958  22.245   3.743
33098W        W94387  36.885  24.212   0.298
33099W        W94388  12.731  32.496   0.907
33100W        W94389  12.797  32.910   1.308
33101W        W94390  32.438  24.115  11.002
33102W        W94391  26.083  30.423  14.762
33103W        W94392  35.465   4.767  10.567
33104W        W94393  17.627  41.959  14.846
33105W        W94394   0.383  31.404  14.454
33106W        W94395  29.447  30.965   3.652
33107W        W94396  21.733  11.687   1.905
33108W        W94397  39.422   4.237   2.768
33109W        W94398  40.526  27.087  13.849
33110W        W94399  16.220  32.135  10.085
33111W        W94400  31.624   4.380  12.862
33112W        W94401  24.659  23.181  13.959
33113W        W94402  15.320  19.732   4.717
33114W        W94403  23.723  12.157   3.343
33115W        W94404  28.597  44.837  10.959
33116W        W94405  12.611  17.195  14.360
33117W        W94406  32.490  35.062  12.479
33118W        W94407   9.794  31.911   5.669
33119W        W94408  40.843  26.608   1.237
33120W        W94409  12.132  25.978   3.369
33121W        W94410   1.440  21.105  13.892
33122W        W94411  34.932  38.567   2.800
33123W        W94412   7.281  43.908   4.134
33124W        W94413  39.357   4.293   0.438
33125W        W94414   3.302  34.874  10.959
33126W        W94415   1.249  36.056  13.365
33127W        W94416   0.925  21.569   2.299
33128W        W94417   7.192  40.884  11.917
33129W        W94418  26.616  37.538  14.867
33130W        W94419  43.844  33.115   2.840
33131W        W94420  13.295   7.801   1.879
33132W        W94421  32.476  15.822   3.242
33133W        W94422   7.237  43.932  10.503
33134W        W94423  24.996  22.705  14.475
33135W        W94424   8.175  23.605  11.893
33136W        W94425  36.085  41.527  12.475
33137W        W94426   7.691  21.716   2.746
33138W        W94427  35.950  44.905  12.420
33139W        W94428   5.905  35.008   0.779
33140W        W94429  10.745   3.882   5.191
33141W        W94430  20.569   0.456   0.862
33142W        W94431  34.984  15.681  13.867
33143W        W94432  41.404  28.186   4.121
33144W        W94433  31.566  29.100  12.957
33145W        W94434  37.962   4.425  12.353
33146W        W94435  13.278   8.349   0.960
33147W        W94436  25.975  19.738  13.446
33148W        W94437  42.817  14.120   4.691
33149W        W94438  27.060  43.318  10.968
33150W        W94439  20.090  16.147  13.970
33151W        W94440  34.020  39.407   4.703
33152W        W94441   5.916   3.288  12.440
33153W        W94442  40.509  33.611  12.465
33154W        W94443  44.918   7.823   4.124
33155W        W94444  24.651  16.152   2.245
33156W        W94445  30.096  39.923   0.907
33157W        W94446  17.576  38.364   3.864
33158W        W94447  12.816  14.781  10.423
33159W        W94448  37.352  30.642   2.844
33160W        W94449  19.559  37.872   1.263
33161W        W94450   1.395  18.132   3.760
33162W        W94451  43.473  42.951   4.786
33163W        W94452  12.717  26.535   2.808
33164W        W94453  23.007  19.640   3.236
33165W        W94454  29.087  22.547  13.339
33166W        W94455  28.572   5.232   4.629
33167W        W94456  17.797  12.787  13.316
33168W        W94457  26.964   9.303  13.843
33169W        W94458  14.307  24.101  11.997
33170W        W94459  20.095  18.544  10.607
33171W        W94460  44.912  31.075  13.487
33172W        W94461   5.796  28.056   3.292
33173W        W94462  40.357  11.831  13.042
33174W        W94463   4.754   4.935   1.367
33175W        W94464  29.945   1.251  13.498
33176W        W94465  26.150  42.384   3.710
33177W        W94466  35.494  13.650  12.004
33178W        W94467  42.467  36.375   4.148
33179W        W94468   9.157  28.621  14.944
33180W        W94469  33.619  29.588   3.731
33181W        W94470  29.037  30.547   2.831
33182W        W94471  15.696  10.346  13.537
33183W        W94472  13.711   4.294   1.324
33184W        W94473  35.934  14.674   0.879
33185W        W94474  27.683  21.583   0.898
33186W        W94475  13.268  23.683  14.924
33187W        W94476  22.063  16.777   3.263
33188W        W94477  12.360  24.534   3.226
33189W        W94478   4.766  30.446  10.922
33190W        W94479  22.709   4.428  14.764
33191W        W94480   7.247  21.626  13.394
33192W        W94481  43.836  35.956  10.425
33193W        W94482  22.025  30.591  13.032
33194W        W94483  17.686  25.689  13.319
33195W        W94484  35.548  30.569  10.454
33196W        W94485  22.527   8.379  13.342
33197W        W94486  27.120   6.718  13.496
33198W        W94487  22.249   6.402  13.953
33199W        W94488  31.432  21.583   4.800
33200W        W94489  29.940  32.469   1.415
33201W        W94490   4.866  15.723   5.313
33202W        W94491  12.258  16.179   0.882
33203W        W94492   0.355   9.832  14.465
33204W        W94493   5.262   3.893   3.752
33205W        W94494  40.389   8.862  10.539
33206W        W94495  24.020  10.871   3.265
33207W        W94496   6.826  39.446   4.754
33208W        W94497   0.928  20.273  11.510
33209W        W94498  16.131  34.939  13.882
33210W        W94499   2.470  34.536   4.156
33211W        W94500  34.603  21.262  14.903
33212W        W94501  40.983  13.599  12.486
33213W        W94502  41.886  21.203   3.739
33214W        W94503  13.319  21.163  10.120
33215W        W94504   3.761  38.566  10.431
33216W        W94505  37.493  16.723  11.606
33217W        W94506  28.475  35.376   4.310
33218W        W94507  30.443  31.150   1.695
33219W        W94508  25.079  40.349   0.351
33220W        W94509   6.258  40.307   0.449
33221W        W94510  40.491  39.435  11.097
33222W        W94511  34.474  29.469   0.917
33223W        W94512  28.470   5.728   4.801
33224W        W94513  29.941  30.571  10.576
33225W        W94514  42.421   8.378   0.893
33226W        W94515  22.743  25.964  11.862
33227W        W94516  40.306  23.615  10.625
33228W        W94517  28.172   0.908  14.998
33229W        W94518  26.014  24.482  14.437
33230W        W94519  12.183  17.610  11.544
33231W        W94520  12.768  38.935   1.226
33232W        W94521  42.520  44.983  13.806
33233W        W94522   6.746  19.705  13.896
33234W        W94523  22.618  41.010  13.935
33235W        W94524  18.055   2.379   2.315
33236W        W94525   1.308   1.257   3.766
33237W        W94526  15.811  18.606  10.126
33238W        W94527  24.572   8.791   2.740
33239W        W94528  29.490  36.884   4.633
33240W        W94529  34.540  17.557  13.535
33241W        W94530  10.810  11.714  10.608
33242W        W94531  23.060  36.083   0.928
33243W        W94532  38.436  13.267  11.483
33244W        W94533  16.684  34.105   3.727
33245W        W94534  13.714   1.859   2.231
33246W        W94535   2.720  22.606   0.302
33247W        W94536  13.836  34.993   0.908
33248W        W94537  17.116  30.539   3.755
33249W        W94538  37.016  42.891  12.491
33250W        W94539  16.147  41.035   3.860
33251W        W94540  11.257  23.632   1.424
33252W        W94541  39.493  16.715   0.891
33253W        W94542  20.709  17.716   2.753
33254W        W94543  24.089  39.484   1.359
33255W        W94544  35.936  43.022  11.891
33256W        W94545   4.755   4.269   9.996
33257W        W94546  42.929  22.593   3.241
33258W        W94547  18.178  41.431  11.531
33259W        W94548  20.653  40.370   4.834
33260W        W94549  27.565  11.358  12.421
33261W        W94550  23.673  19.660  11.121
33262W        W94551  33.519   3.442  13.460
33263W        W94552  15.222  28.034  12.950
33264W        W94553  39.492  30.008  13.361
33265W        W94554  10.243  32.056   0.356
33266W        W94555   1.955  18.230  12.010
33267W        W94556  17.280  44.889  12.877
33268W        W94557  41.821  39.550   2.207
33269W        W94558  41.351  27.616   0.360
33270W        W94559  13.139  35.943   4.651
33271W        W94560  34.961   0.386   3.152
33272W        W94561  44.937  44.952  13.014
33273W        W94562  26.062  18.735  11.019
33274W        W94563   4.289  29.067   4.797
33275W        W94564   2.390  37.897  12.827
33276W        W94565  27.955  10.276   3.717
33277W        W94566  30.076  31.058   0.961
33278W        W94567  20.171  18.107   2.340
33279W        W94568  40.802  38.525   3.755
33280W        W94569  26.480  31.087   3.766
33281W        W94570  40.045   6.189  11.578
33282W        W94571  39.960  35.458  11.029
33283W        W94572  32.435  35.918   2.197
33284W        W94573  10.220  18.739   2.408
33285W        W94574  39.985  38.959   3.843
33286W        W94575  37.469   1.415   0.456
33287W        W94576  10.784  14.199   0.872
33288W        W94577  36.451   3.379  12.384
33289W        W94578   0.283  35.556   4.144
33290W        W94579   3.949   5.244  11.414
33291W        W94580  18.660  10.364   3.243
33292W        W94581  23.029  31.091  14.416
33293W        W94582  23.211  27.193   3.827
33294W        W94583  43.923   4.760  11.870
33295W        W94584  34.374  30.076  12.872
33296W        W94585  30.627  11.320   3.373
33297W        W94586  43.958  16.706   0.844
33298W        W94587  26.480  42.005   1.863
33299W        W94588   5.780  18.609  12.403
33300W        W94589  11.760  20.559  10.637
33301W        W94590  41.951  14.192   1.328
33302W        W94591  22.226  31.621  11.568
33303W        W94592   5.364  15.802  14.389
33304W        W94593  39.483  40.462   3.369
33305W        W94594  24.167  42.888  14.763
33306W        W94595  33.500  11.135  14.811
33307W        W94596  16.593  31.533   4.797
33308W        W94597   3.944  32.622   0.409
33309W        W94598   5.397  22.209   0.947
33310W        W94599  37.020   5.433  13.527
33311W        W94600  33.913  15.227   1.753
33312W        W94601  36.471  19.103   1.330
33313W        W94602  42.950  21.596  14.395
33314W        W94603  32.559  19.236   0.280
33315W        W94604  24.977  18.671   4.799
33316W        W94605  39.420   6.355   2.664
33317W        W94606  19.220  35.964  14.299
33318W        W94607  18.081  16.641   0.942
33319W        W94608  24.186   5.703   3.216
33320W        W94609  33.911  30.143  13.971
33321W        W94610   7.252  26.117   3.308
33322W        W94611  22.513  34.416  10.002
33323W        W94612  32.522  24.118   4.261
33324W        W94613  21.078  34.098  14.478
33325W        W94614   6.247   0.332  12.036
33326W        W94615  37.394  36.052  11.040
33327W        W94616  14.334   0.439   0.937
33328W        W94617  24.142  26.503   1.795
33329W        W94618  21.719  25.515   2.191
33330W        W94619  38.505  15.682   3.859
33331W        W94620   7.865  29.164  11.477
33332W        W94621  27.995  37.990  13.930
33333W        W94622  26.000  36.469  14.418
33334W        W94623  24.601  43.936  14.504
33335W        W94624   3.761  17.772  11.905
33336W        W94625   8.745  13.807   4.130
33337W        W94626  40.994  43.976   3.704
33338W        W94627  42.851  38.565   9.987
33339W        W94628  40.483   0.745  12.953
33340W        W94629   2.357  27.489   2.403
33341W        W94630  43.424  19.736  14.766
33342W        W94631  27.073  28.109  14.299
33343W        W94632  38.820  12.237   4.350
33344W        W94633  32.923  40.888   2.821
33345W        W94634  23.186   7.806  13.011
33346W        W94635   6.398  24.595  12.025
33347W        W94636  43.937   5.860   2.831
33348W        W94637  34.993  16.590   1.437
33349W        W94638  39.992  25.503  11.888
33350W        W94639  32.429  38.937  12.826
33351W        W94640  42.878  26.546   5.285
33352W        W94641  41.342  12.192  11.978
33353W        W94642  15.127  37.851   0.346
33354W        W94643  40.888   8.719   5.283
33355W        W94644   9.154  19.697   9.992
33356W        W94645  37.965   2.760   4.621
33357W        W94646  19.224  32.134  10.591
33358W        W94647   1.837  44.913   0.369
33359W        W94648  24.118  23.110   2.688
33360W        W94649  17.698  31.036  11.561
33361W        W94650  22.216  29.060   2.404
33362W        W94651   5.286  41.010  10.986
33363W        W94652   9.310  27.128   3.318
33364W        W94653  29.004   0.279  14.907
33365W        W94654  37.420   7.360  11.530
33366W        W94655   1.467  27.605   3.241
33367W        W94656  44.785  34.100   0.811
33368W        W94657   6.320  35.377  13.035
33369W        W94658  36.944  17.216  14.949
33370W        W94659  43.469  42.977  14.028
33371W        W94660  17.564  33.117  10.534
33372W        W94661   6.742  30.432  11.938
33373W        W94662  31.952  31.462  14.927
33374W        W94663  18.260  13.192  14.947
33375W        W94664  41.502  40.828  13.885
33376W        W94665   1.816   4.398   3.177
33377W        W94666  24.094  31.614  11.529
33378W        W94667  34.478  34.044   2.796
33379W        W94668  20.713  31.076  11.445
33380W        W94669  42.843  27.651   1.758
33381W        W94670  11.152  25.012   1.748
33382W        W94671  32.550  35.897  13.813
33383W        W94672   8.844   1.440  14.906
33384W        W94673   9.742  41.900   3.859
33385W        W94674   6.718  41.348   2.739
33386W        W94675  21.125  27.508  14.015
33387W        W94676   2.798  38.827   2.333
33388W        W94677  12.237  31.574   3.295
33389W        W94678  44.910  13.804   0.292
33390W        W94679  29.607  28.637   1.419
33391W        W94680  20.173  10.296  14.016
33392W        W94681   4.385  10.340  13.535
33393W        W94682  24.650  35.425  13.381
33394W        W94683  18.723  18.094  12.945
33395W        W94684  30.528  28.656   1.775
33396W        W94685  30.160  31.414  12.063
33397W        W94686  24.564  34.994   1.928
33398W        W94687  25.020  25.203   4.230
33399W        W94688  31.469  13.210   3.202
33400W        W94689   8.824   3.735  12.508
33401W        W94690  12.121   1.784   2.711
33402W        W94691   5.347   6.369  10.551
33403W        W94692  37.351  14.648  14.968
33404W        W94693  25.218  32.954   0.752
33405W        W94694  18.253  14.136  12.994
33406W        W94695  11.761  43.470   3.180
33407W        W94696  29.504  25.487  14.316
33408W        W94697  30.926   6.728   4.647
33409W        W94698  12.798  35.544  11.430
33410W        W94699  24.016   2.828   3.841
33411W        W94700  21.544   3.413  14.012
33412W        W94701  42.477   2.258   1.216
33413W        W94702   6.680  24.132   3.198
33414W        W94703  11.314  39.428  10.969
33415W        W94704  43.990  33.472   2.177
33416W        W94705  12.809  36.934   2.772
33417W        W94706  30.601   4.429  13.541
33418W        W94707  35.109  31.638  14.952
33419W        W94708  34.611  33.049  11.053
33420W        W94709  36.967  36.848  14.505
33421W        W94710  21.661  11.316  14.970
33422W        W94711  40.942  25.037   2.858
33423W        W94712  13.699  25.067   3.773
33424W        W94713  28.156  41.358  13.407
33425W        W94714   8.402  28.656  10.611
33426W        W94715  22.107  14.126   4.688
33427W        W94716  27.028   2.775   3.693
33428W        W94717   0.454  40.843  12.968
33429W        W94718  26.693  34.411  11.881
33430W        W94719  37.548  17.307   1.339
33431W        W94720  33.017   1.291  11.527
33432W        W94721  24.670  11.762   9.947
33433W        W94722  28.542  11.361  13.058
33434W        W94723   0.877  44.270  13.480
33435W        W94724  39.403  21.605  12.854
33436W        W94725  17.769  13.707   4.246
33437W        W94726   6.773  36.892   4.286
33438W        W94727  32.450  24.595  12.542
33439W        W94728  32.021  14.591  14.767
33440W        W94729  16.756  35.405  11.440
33441W        W94730  40.485  13.243   4.221
33442W        W94731  42.928  40.868  11.935
33443W        W94732  44.399   0.939  14.333
33444W        W94733  11.696  35.937   4.797
33445W        W94734   1.961  20.587  12.882
33446W        W94735  41.405   7.186  11.543
33447W        W94736  22.139  30.983   3.701
33448W        W94737  12.710   3.810  13.888
33449W        W94738  18.166  36.448  10.070
33450W        W94739   8.242  26.560  14.773
33451W        W94740  43.981   1.250  12.533
33452W        W94741  21.111  33.456  13.876
33453W        W94742   1.971   5.421  14.468
33454W        W94743  11.867  30.439   0.288
33455W        W94744  44.819   1.336   2.413
33456W        W94745  37.890  12.792   0.761
33457W        W94746  16.283  10.296   1.296
33458W        W94747   7.411  39.461  13.531
33459W        W94748  40.431  26.636  13.973
33460W        W94749  15.294  13.817   2.321
33461W        W94750   6.410  22.610  11.104
33462W        W94751  44.902  28.114   4.251
33463W        W94752   4.449  26.961  14.830
33464W        W94753  38.507  10.768   3.817
33465W        W94754  21.710   9.381   1.789
33466W        W94755  43.925  26.701  11.894
33467W        W94756   2.308  18.770   3.702
33468W        W94757  40.312  37.844  11.034
33469W        W94758  36.928  14.750   4.689
33470W        W94759   4.833  39.405   4.608
33471W        W94760  29.654  20.055   0.349
33472W        W94761  18.138  41.486   3.340
33473W        W94762  25.645  41.491   1.287
33474W        W94763   2.770  39.403  13.875
33475W        W94764  33.006  24.677  10.581
33476W        W94765  18.241  21.635  13.930
33477W        W94766  27.950  38.025  10.991
33478W        W94767   5.751  41.526  12.911
33479W        W94768  44.994  14.231   3.702
33480W        W94769  37.367  27.177   0.892
33481W        W94770  23.210  17.182  13.319
33482W        W94771   3.215  26.611   1.719
33483W        W94772  17.165  19.136  11.048
33484W        W94773  28.547  26.646   1.736
33485W        W94774  18.053   2.830   4.712
33486W        W94775  39.501  37.073   0.827
33487W        W94776  37.022  43.815   4.198
33488W        W94777  32.500  38.374  14.490
33489W        W94778  12.214  12.740   2.251
33490W        W94779  14.202  24.032   4.804
33491W        W94780  44.761  40.308   0.762
33492W        W94781  31.640   5.215  11.505
33493W        W94782  19.700  19.535  11.951
33494W        W94783   3.413  11.709  11.396
33495W        W94784   0.349   1.846   3.209
33496W        W94785   9.361  32.902   0.377
33497W        W94786  37.485   7.747  11.945
33498W        W94787  11.149  37.980  12.913
33499W        W94788   4.403  39.395   1.391
33500W        W94789  18.074  16.588  11.108
33501W        W94790  38.945  25.151   3.855
33502W        W94791  10.292  24.571   0.417
33503W        W94792  28.967  19.264  12.939
33504W        W94793  26.188   7.894  10.423
33505W        W94794  11.697  24.520  11.870
33506W        W94795  12.214   1.812   3.860
33507W        W94796  17.066   7.769   2.847
33508W        W94797  41.388  26.515   4.806
33509W        W94798  19.768   0.271  12.023
33510W        W94799  43.422  32.987  11.069
33511W        W94800  24.189  24.512   1.292
33512W        W94801  44.772  38.388   3.679
33513W        W94802  20.559  38.851   2.820
33514W        W94803  17.772  28.142   2.708
33515W        W94804   2.921  22.243   1.340
33516W        W94805   5.692  42.899   2.730
33517W        W94806   4.293  21.164  11.969
33518W        W94807   9.166  14.641  14.496
33519W        W94808  25.155  15.585  10.543
33520W        W94809  39.410  40.011   0.864
33521W        W94810  39.351  14.159   0.932
33522W        W94811  33.925   0.346  10.619
33523W        W94812  24.596  23.024   0.347
33524W        W94813  42.515  19.541   3.371
33525W        W94814   6.864   2.921   1.370
33526W        W94815  35.596  24.565   2.202
33527W        W94816  18.786  35.871   4.160
33528W        W94817  16.697  44.424   1.809
33529W        W94818   8.697  16.813  10.961
33530W        W94819   2.361   0.463   0.273
33531W        W94820  37.915  43.496   2.867
33532W        W94821   3.249   0.314   1.751
33533W        W94822   2.799   5.688   3.307
33534W        W94823  19.254  14.251   0.351
33535W        W94824  15.244  31.927  12.576
33536W        W94825  22.719  11.840   0.415
33537W        W94826   0.933   8.268   4.654
33538W        W94827  23.630  20.719   4.295
33539W        W94828  18.579  33.540   2.391
33540W        W94829  32.516  37.035  13.504
33541W        W94830  39.334  23.015  14.348
33542W        W94831  38.375  32.585  14.345
33543W        W94832   4.380  23.100  11.553
33544W        W94833  19.680  15.596  13.013
33545W        W94834  25.023  34.429  14.469
33546W        W94835   1.778  13.743   3.685
33547W        W94836  27.537  31.102   1.416
33548W        W94837  32.423  44.486   4.196
33549W        W94838  13.744  39.055  11.034
33550W        W94839  13.290  33.000   0.317
33551W        W94840  33.609  36.421  11.895
33552W        W94841  41.804  29.522   0.923
33553W        W94842   8.375  39.000   0.845
33554W        W94843   0.764   9.661   9.948
33555W        W94844  12.777  41.911   3.192
33556W        W94845  43.499  39.063   0.440
33557W        W94846  16.586   5.310   1.310
33558W        W94847  43.429  38.962  11.559
33559W        W94848  10.635  32.450  12.076
33560W        W94849  39.004  33.041   2.899
33561W        W94850  33.549  12.214   0.963
33562W        W94851  25.513   8.268  14.981
33563W        W94852  26.134  33.960   0.729
33564W        W94853  13.197  14.786   2.679
33565W        W94854  23.172   3.450  12.574
33566W        W94855  33.938   7.890   0.822
33567W        W94856   6.393  13.154  14.016
33568W        W94857   1.798  36.036   2.847
33569W        W94858   5.271   1.944  11.478
33570W        W94859  41.845  28.951  10.432
33571W        W94860  21.539  28.513  14.977
33572W        W94861  39.040  20.184  11.859
33573W        W94862  30.473  25.113   0.317
33574W        W94863  26.059  33.410  14.917
33575W        W94864  13.763   7.681  11.444
33576W        W94865  34.399  39.333   3.309
33577W        W94866   2.399  29.075   3.835
33578W        W94867  37.000   6.858  13.531
33579W        W94868  40.899   9.214   1.858
33580W        W94869   8.183  11.776  10.920
33581W        W94870  10.655  36.045   3.800
33582W        W94871  41.381  29.574  14.513
33583W        W94872   4.390  10.214   2.404
33584W        W94873   9.720   2.878  12.951
33585W        W94874  32.908  25.031   1.320
33586W        W94875  18.726  38.941   1.365
33587W        W94876   9.827  17.756   1.728
33588W        W94877   5.206  33.003   3.863
33589W        W94878  41.312   2.314   1.921
33590W        W94879   6.900  25.030   4.210
33591W        W94880  25.714   2.465   0.823
33592W        W94881   3.738  31.643  14.820
33593W        W94882   5.436  33.467   4.803
33594W        W94883  15.197  16.737  14.288
33595W        W94884  24.719  31.445   4.184
33596W        W94885  42.329  43.434   4.339
33597W        W94886  42.817  17.732  10.622
33598W        W94887  36.916   1.246   3.858
33599W        W94888  21.679  27.154  14.800
33600W        W94889  40.481  33.506  11.115
33601W        W94890  24.166  28.105  10.540
33602W        W94891  39.370  18.567  12.541
33603W        W94892  11.668  28.980  10.560
33604W        W94893  14.138  40.526   3.766
33605W        W94894   5.224  27.987  12.925
33606W        W94895  18.751  10.772  13.378
33607W        W94896   1.808   5.434   2.363
33608W        W94897  20.055  19.039   3.748
33609W        W94898  19.698  12.811   4.323
33610W        W94899  31.579   1.861  13.028
33611W        W94900  39.007  23.165   1.402
33612W        W94901   9.732  37.008   9.972
33613W        W94902  24.640  26.522   0.309
33614W        W94903  28.053  19.179  11.972
33615W        W94904   2.249  10.649   0.829
33616W        W94905  22.695  41.490   1.804
33617W        W94906  17.600  20.153  14.315
33618W        W94907  44.467  43.409   4.741
33619W        W94908  11.696  19.625   4.773
33620W        W94909  14.303   2.876   0.758
33621W        W94910  29.140   4.224  14.788
33622W        W94911  26.060  40.348  10.461
33623W        W94912   3.762  44.426   1.385
33624W        W94913  36.457  34.468  10.907
33625W        W94914  43.416  33.528  14.425
33626W        W94915  33.915  24.498  14.804
33627W        W94916   8.849  15.283  13.377
33628W        W94917  39.318  10.804   2.875
33629W        W94918  30.977  39.965   0.737
33630W        W94919  14.277  22.224   5.300
33631W        W94920  44.359   4.884   5.102
33632W        W94921   7.190  27.120   5.191
33633W        W94922   2.249   9.362  13.061
33634W        W94923  10.319   3.321   1.250
33635W        W94924   4.234  22.027   2.710
33636W        W94925   4.254   5.241  10.576
33637W        W94926  11.677  41.841  11.871
33638W        W94927  16.588   8.317   3.766
33639W        W94928   3.291  35.088  11.595
33640W        W94929  44.952  18.642   4.816
33641W        W94930  26.989  12.650  10.614
33642W        W94931   7.847  41.318   0.339
33643W        W94932  15.709  32.628   1.360
33644W        W94933  11.750  28.673  13.464
33645W        W94934  17.799  41.506   4.285
33646W        W94935  15.119   0.275   1.919
33647W        W94936  21.109  37.954  10.901
33648W        W94937  38.897  42.023   0.906
33649W        W94938  28.559   6.796   3.239
33650W        W94939  28.184  35.539   3.665
33651W        W94940  30.593   5.749   1.769
33652W        W94941  25.176  38.955   2.394
33653W        W94942  11.244  30.508  14.433
33654W        W94943  28.608  22.140   0.279
33655W        W94944   6.820  19.733  10.434
33656W        W94945  19.687   5.325   0.891
33657W        W94946  11.275  22.063  11.388
33658W        W94947  17.300  24.647   0.741
33659W        W94948  34.486   7.171  11.422
33660W        W94949  41.018   6.771   2.694
33661W        W94950  19.637   4.291   2.721
33662W        W94951  15.676  20.118   1.264
33663W        W94952   7.904  39.885   3.209
33664W        W94953  26.645  18.157  11.956
33665W        W94954  11.265  12.318  13.000
33666W        W94955  22.568  14.669   2.773
33667W        W94956  34.435  44.341  11.958
33668W        W94957   2.728  12.180  10.494
33669W        W94958  39.535  10.696  11.590
33670W        W94959   0.888  41.040   3.658
33671W        W94960  44.866  17.673   0.838
33672W        W94961   0.934  37.955  11.929
33673W        W94962  20.542  21.124   1.839
33674W        W94963  10.224  12.813  11.554
33675W        W94964  14.231  26.168   0.839
33676W        W94965   2.846  21.736  10.604
33677W        W94966  28.995  40.820  13.042
33678W        W94967  18.594  23.664  11.879
33679W        W94968   2.859  16.081  11.048
33680W        W94969  37.853  23.194  13.014
33681W        W94970  25.469  11.722   3.655
33682W        W94971  28.576  27.480   3.359
33683W        W94972  33.398   9.153  13.336
33684W        W94973  17.171  25.586   0.330
33685W        W94974  33.004  18.260   0.409
33686W        W94975  36.359  29.485   1.421
33687W        W94976  20.145  44.008   2.686
33688W        W94977  34.055  13.735  12.412
33689W        W94978  19.196  42.957   4.313
33690W        W94979  23.073  29.641  14.966
33691W        W94980  31.469  30.112  11.440
33692W        W94981   2.927   7.209   1.848
33693W        W94982  29.053   8.280  13.454
33694W        W94983  33.986   1.927  10.020
33695W        W94984  11.257  20.149  13.056
33696W        W94985  42.989   4.744  10.530
33697W        W94986  18.708  44.472   2.412
33698W        W94987  41.419  13.765  12.057
33699W        W94988  36.021  39.901   0.925
33700W        W94989   5.807  18.552   2.663
33701W        W94990   4.700   9.204  11.419
33702W        W94991  15.783  31.956   3.859
33703W        W94992  37.053  20.763   2.238
33704W        W94993  29.471  35.548  14.331
33705W        W94994  25.467  16.807  14.998
33706W        W94995  39.347  39.045  14.389
33707W        W94996  19.610  42.310  12.853
33708W        W94997   5.800  32.916  13.334
33709W        W94998  36.997  13.234  10.440
33710W        W94999   4.895  16.588  12.559
33711W        W95000  25.138   0.843  13.428
33712W        W95001   1.828  30.448   4.311
33713W        W95002  40.452   5.366  10.611
33714W        W95003  20.634  39.390   3.287
33715W        W95004  36.854  26.550  13.977
33716W        W95005  43.012  36.097  14.816
33717W        W95006  33.534  19.191  12.538
33718W        W95007   0.766  23.555  13.856
33719W        W95008   4.239  29.499  11.036
33720W        W95009  13.147  19.562  11.500
33721W        W95010   9.345  16.751   0.331
33722W        W95011   5.216  38.461  12.061
33723W        W95012   4.410  33.986  13.812
33724W        W95013  26.082  14.338   3.219
33725W        W95014  15.091   0.344   3.314
33726W        W95015  19.199   3.432   4.213
33727W        W95016  37.898   4.221   4.633
33728W        W95017  43.281  14.631  10.948
33729W        W95018   2.775  16.185  13.361
33730W        W95019  11.747  44.300   2.844
33731W        W95020  11.162  15.656   3.650
33732W        W95021   6.731  25.995   1.270
33733W        W95022   7.221  28.497  11.927
33734W        W95023  36.543  25.989  12.958
33735W        W95024   4.790  17.257  12.351
33736W        W95025  15.646  31.610   2.770
33737W        W95026   4.229   6.305  13.003
33738W        W95027  40.530  33.875  13.444
33739W        W95028  27.144   8.728   2.215
33740W        W95029  23.005  23.045   1.847
33741W        W95030  20.611  18.765   3.334
33742W        W95031  11.719  11.219  14.819
33743W        W95032  27.953   4.746  11.496
33744W        W95033   0.387  22.515   0.291
33745W        W95034  29.996   8.183   2.710
33746W        W95035   7.780   7.845   4.254
33747W        W95036   2.231  23.035   3.717
33748W        W95037  27.535  28.669   3.867
33749W        W95038  31.896  29.013  10.575
33750W        W95039   5.817  38.399   1.235
33751W        W95040  33.907  27.452   1.753
33752W        W95041  43.350  28.623  12.370
33753W        W95042  32.898  40.363  10.602
33754W        W95043  32.421  39.038  14.947
33755W        W95044  13.219  21.542   9.548
33756W        W95045  24.208   4.363  14.483
33757W        W95046  24.117  44.753  12.961
33758W        W95047   7.305  42.332   1.290
33759W        W95048  31.075  34.612  11.914
33760W        W95049  22.164  44.969  12.048
33761W        W95050  31.626   5.395  13.520
33762W        W95051  27.098  23.542   4.726
33763W        W95052  15.767  28.454  13.525
33764W        W95053  25.494  12.765  12.833
33765W        W95054  35.957  20.702  13.017
33766W        W95055  20.633  31.977  13.544
33767W        W95056  15.713  37.403  12.946
33768W        W95057   5.859  22.149   4.651
33769W        W95058   5.870   0.797   1.337
33770W        W95059  34.029  43.947  12.022
33771W        W95060  15.326  23.543   1.710
33772W        W95061  32.398  28.046  12.397
33773W        W95062   5.261  22.057  14.763
33774W        W95063  38.542   8.201  10.907
33775W        W95064  34.399  19.623  13.396
33776W        W95065  21.095  18.720  13.053
33777W        W95066  40.540  33.063   0.751
33778W        W95067  39.060  30.458  12.520
33779W        W95068   3.753  35.880  10.526
33780W        W95069  32.567  14.282   5.219
33781W        W95070  43.419  22.584  11.888
33782W        W95071   6.901  25.676  13.900
33783W        W95072  19.068  21.159   5.291
33784W        W95073  42.341  32.493  10.494
33785W        W95074  18.062  26.141  12.418
33786W        W95075  22.020  20.033  14.803
33787W        W95076  39.934  38.955  14.482
33788W        W95077  32.021  17.768  11.404
33789W        W95078  35.394  40.812  14.912
33790W        W95079  18.626  21.602  14.002
33791W        W95080  29.946  17.108   4.262
33792W        W95081  22.738  41.358   4.350
33793W        W95082  30.058  27.031   1.434
33794W        W95083  34.547  24.528   1.293
33795W        W95084   9.810   1.840  11.608
33796W        W95085  12.236  27.195   2.271
33797W        W95086  33.913  15.794   4.766
33798W        W95087  34.089  41.342   4.652
33799W        W95088   3.741  39.381   2.287
33800W        W95089  28.111  39.024   2.692
33801W        W95090  19.636  21.214  12.850
33802W        W95091  37.022  25.685  14.880
33803W        W95092  29.616  10.794  14.462
33804W        W95093  13.330  36.932   0.895
33805W        W95094   7.877   8.218  12.469
33806W        W95095  33.102  40.470  13.357
33807W        W95096  18.087   5.758  12.382
33808W        W95097  43.781  36.004  11.104
33809W        W95098  19.644   4.249  12.450
33810W        W95099  41.435  41.524   3.849
33811W        W95100   5.843  24.113   2.329
33812W        W95101  27.455  27.578   2.806
33813W        W95102   7.322  42.313   2.761
33814W        W95103  10.280  32.980  12.365
33815W        W95104  24.175   0.946   3.363
33816W        W95105  24.506  31.058  10.514
33817W        W95106  12.825   4.439  14.960
33818W        W95107  23.611  35.070  11.551
33819W        W95108   9.851   8.270  11.954
33820W        W95109  26.066  37.927   2.858
33821W        W95110   4.932   4.911   1.893
33822W        W95111  14.754  38.915   4.145
33823W        W95112   0.784  10.808  11.864
33824W        W95113  44.006  22.194   4.239
33825W        W95114   9.313  12.207   4.244
33826W        W95115   0.852  17.111   0.748
33827W        W95116  10.329  37.854   4.795
33828W        W95117  29.115   7.380   2.190
33829W        W95118  17.585  30.967  10.598
33830W        W95119  24.601  42.498  14.868
33831W        W95120   9.694   2.821   0.407
33832W        W95121  23.179  41.854   2.758
33833W        W95122  22.603   0.868   4.776
33834W        W95123  21.707  38.452  12.350
33835W        W95124  11.165  37.077  12.350
33836W        W95125  17.617  15.755  11.405
33837W        W95126  12.723   4.846  14.797
33838W        W95127  21.521   5.286  11.453
33839W        W95128  20.081  37.430  12.936
33840W        W95129  44.811  37.490  11.907
33841W        W95130  29.462  36.862   0.805
33842W        W95131  43.455   3.354   4.615
33843W        W95132   9.721  24.569  11.437
33844W        W95133  10.317   9.238   4.836
33845W        W95134  14.206  28.610  12.057
33846W        W95135   3.363  23.595   1.857
33847W        W95136   7.294   7.222  13.459
33848W        W95137  11.648  37.571   3.661
33849W        W95138  36.540  28.953   2.754
33850W        W95139   6.286  37.842  11.949
33851W        W95140   3.348  23.638   3.662
33852W        W95141  26.103   1.899  12.578
33853W        W95142   2.240  12.624  10.095
33854W        W95143  17.648   0.332  12.966
33855W        W95144  19.268  31.643  12.408
33856W        W95145  16.754  14.189  13.936
33857W        W95146   5.406  41.868   2.355
33858W        W95147  18.247  11.652   0.934
33859W        W95148  29.961  35.390  14.851
33860W        W95149  29.541   9.181   3.255
33861W        W95150  23.102  16.307   1.368
33862W        W95151  21.235   6.230  11.029
33863W        W95152  23.670  24.539   0.479
33864W        W95153  19.210  13.207  10.514
33865W        W95154  26.113  31.137   3.729
33866W        W95155  38.949  30.078   2.358
33867W        W95156  31.503  39.901   1.814
33868W        W95157  22.563  43.894  13.036
33869W        W95158   0.829  35.003   1.867
33870W        W95159  19.073  40.878  14.402
33871W        W95160  38.556  14.099  10.582
33872W        W95161  18.565  35.071   4.129
33873W        W95162  39.969  38.870   0.473
33874W        W95163   7.292  22.225  10.929
33875W        W95164  22.029  28.164  10.567
33876W        W95165   1.294  22.028  12.444
33877W        W95166  43.321  31.505   0.388
33878W        W95167  19.177  36.979   1.363
33879W        W95168  38.510   7.307  14.352
33880W        W95169  27.606  26.130   4.161
33881W        W95170  11.760  12.229  13.793
33882W        W95171  43.016  43.887  12.064
33883W        W95172  26.997  30.138  14.850
33884W        W95173  44.307   2.271  10.429
33885W        W95174  15.587  19.539  13.951
33886W        W95175  22.087  18.687   2.369
33887W        W95176  26.604  31.020  11.382
33888W        W95177  12.776  33.599   1.803
33889W        W95178  32.979  16.590   1.257
33890W        W95179  35.025  36.524   0.915
33891W        W95180  17.787  34.522  11.385
33892W        W95181  16.573  26.572   4.181
33893W        W95182  38.491   4.844   3.193
33894W        W95183  19.652  34.440   4.647
33895W        W95184  42.394  29.574   0.930
33896W        W95185  33.080   3.300   3.866
33897W        W95186  28.597   0.780   2.794
33898W        W95187  16.605  40.807  12.453
33899W        W95188  19.074  26.622  14.437
33900W        W95189  24.533  29.477  12.498
33901W        W95190  24.138  30.098  10.925
33902W        W95191  38.993  27.986   4.265
33903W        W95192   9.293  15.784  14.931
33904W        W95193   5.801  28.976   1.413
33905W        W95194   5.304   5.410   0.314
33906W        W95195  21.685   2.925   1.398
33907W        W95196  17.268  13.261   1.220
33908W        W95197  42.433  18.601   5.279
33909W        W95198  18.235   4.822  14.019
33910W        W95199  34.114   9.650  14.496
33911W        W95200  42.300  38.478  11.428
33912W        W95201  27.666  36.062   1.356
33913W        W95202   6.679  44.431   3.207
33914W        W95203  25.163  19.198  11.937
33915W        W95204  31.539  37.839  13.050
33916W        W95205  23.175   3.834  12.929
33917W        W95206  29.570   8.362  12.983
33918W        W95207  15.757  15.768   0.860
33919W        W95208  36.448   4.799  14.906
33920W        W95209  29.515  22.121  13.424
33921W        W95210  13.180  18.152  11.027
33922W        W95211  35.521  23.033  12.047
33923W        W95212  41.983  11.805  12.571
33924W        W95213  10.220   3.752  14.385
33925W        W95214  38.996  33.115  14.925
33926W        W95215  42.435   9.828  13.344
33927W        W95216  15.615   9.242   3.320
33928W        W95217  36.518  42.394   0.378
33929W        W95218  40.877   6.723   1.888
33930W        W95219  43.895  38.352   3.283
33931W        W95220  32.986   3.710   2.889
33932W        W95221  19.749  24.210   5.244
33933W        W95222  24.203  30.619   5.159
33934W        W95223  32.521  26.999  14.010
33935W        W95224   6.332  38.360  12.377
33936W        W95225  41.895  20.753   2.758
33937W        W95226  42.846  27.176   4.658
33938W        W95227   9.758  12.151  14.000
33939W        W95228  15.723  43.002  12.062
33940W        W95229  30.440  29.529   4.736
33941W        W95230  26.625  21.106   1.279
33942W        W95231  22.074  29.046  14.958
33943W        W95232   6.350  25.569   2.791
33944W        W95233   0.381  30.964   0.832
33945W        W95234  34.494  18.558   4.748
33946W        W95235  11.629  44.755  12.004
33947W        W95236  16.311  29.143   3.798
33948W        W95237   9.169   5.847   3.170
33949W        W95238  36.562  18.260  13.815
33950W        W95239   9.687   7.355  10.454
33951W        W95240  39.377   1.286  11.536
33952W        W95241  14.329  17.297  13.972
33953W        W95242  13.107   3.742   4.336
33954W        W95243   5.898   3.347   0.868
33955W        W95244   2.286  32.012  13.418
33956W        W95245  34.384  12.771   4.221
33957W        W95246   6.760  25.033   0.914
33958W        W95247  25.615  28.469   3.867
33959W        W95248  11.738   7.338   2.229
33960W        W95249  25.667  34.523  12.018
33961W        W95250   6.727  12.838   1.789
33962W        W95251  32.952  39.897   4.767
33963W        W95252  17.098  25.560   4.787
33964W        W95253   3.764   9.359  11.938
33965W        W95254  35.567  40.317  12.843
33966W        W95255  29.526  39.391  10.945
33967W        W95256  22.554   3.336   2.196
33968W        W95257  25.479   4.721  11.422
33969W        W95258  16.141  18.744  12.979
33970W        W95259  30.464  42.327  13.935
33971W        W95260  16.313  28.125  12.339
33972W        W95261  27.993   2.895   1.794
33973W        W95262  22.691  15.765   2.326
33974W        W95263  25.552  23.603   0.882
33975W        W95264   9.883  19.250   1.399
33976W        W95265   9.372  18.102   2.784
33977W        W95266  38.956  40.887  10.898
33978W        W95267  42.428  38.976   0.478
33979W        W95268  11.734   0.437  13.418
33980W        W95269   1.458  21.074   3.704
33981W        W95270  35.046  33.886  10.547
33982W        W95271   4.839  44.272  11.080
33983W        W95272  31.965   7.239   0.286
33984W        W95273  23.011  38.908   1.773
33985W        W95274   6.215   9.879  10.924
33986W        W95275   7.775  38.387  14.465
33987W        W95276  16.105  24.661   1.878
33988W        W95277   4.732  24.074  10.984
33989W        W95278  10.633   3.407  14.991
33990W        W95279  21.109  19.126  12.096
33991W        W95280  17.760  40.878  10.539
33992W        W95281  17.570  16.682   4.762
33993W        W95282   4.449  23.138  13.825
33994W        W95283  28.651   9.252  13.446
33995W        W95284   5.928  27.040   4.684
33996W        W95285   0.403  23.046  10.493
33997W        W95286  14.326  31.427   0.951
33998W        W95287  25.541  37.984  11.986
33999W        W95288   7.303  20.110  13.337
34000W        W95289  38.431   2.345  10.525
34001W        W95290  27.032  29.519  14.278
34002W        W95291  37.871  44.984   1.733
34003W        W95292  26.602  15.255  10.489
34004W        W95293  43.509  18.207   2.690
34005W        W95294  30.998  32.021  12.466
34006W        W95295  35.984  21.219   0.966
34007W        W95296  22.139  36.350  12.035
34008W        W95297   2.884   5.851  13.548
34009W        W95298  20.615  41.317   2.812
34010W        W95299  17.589  41.514   1.919
34011W        W95300   3.738  39.035   1.238
34012W        W95301  21.714  21.569   0.903
34013W        W95302  21.069   9.650   1.854
34014W        W95303  40.951  13.607  13.793
34015W        W95304  38.052  17.119  12.942
34016W        W95305  10.346  36.402   1.271
34017W        W95306  39.323  14.636   5.131
34018W        W95307  33.114   9.674  11.871
34019W        W95308  12.673  20.048   0.850
34020W        W95309  24.499  40.342  12.915
34021W        W95310  27.180  16.613  13.926
34022W        W95311  31.579  43.787   1.432
34023W        W95312  30.639   7.280  10.977
34024W        W95313  27.074   5.899   5.233
34025W        W95314  15.731  42.417   0.940
34026W        W95315   7.872  33.097   3.242
34027W        W95316  43.774  18.228  12.964
34028W        W95317  18.604  30.993  14.930
34029W        W95318  20.271  37.032  11.471
34030W        W95319   4.317  40.400  14.925
34031W        W95320  33.063   0.813  12.980
34032W        W95321  24.645  14.719  10.620
34033W        W95322  12.734  34.424  10.441
34034W        W95323  30.160  32.539   3.153
34035W        W95324  16.642  36.389   1.772
34036W        W95325   2.919  22.206   2.218
34037W        W95326  30.059   6.831  12.930
34038W        W95327  34.450  25.206  11.530
34039W        W95328  36.417   4.427  14.380
34040W        W95329  38.437  26.142   2.249
34041W        W95330  36.841  32.083  13.490
34042W        W95331  37.855  31.031   3.299
34043W        W95332  38.548  44.489   2.269
34044W        W95333  10.325   2.398   2.777
34045W        W95334  23.528  41.895  11.516
34046W        W95335  15.171  43.880   1.291
34047W        W95336  33.428  42.878  14.790
34048W        W95337  38.046  24.669  14.358
34049W        W95338  30.533  25.210   2.874
34050W        W95339  42.002  21.537  14.018
34051W        W95340   5.806  22.217   3.229
34052W        W95341  41.965  23.145  13.797
34053W        W95342   0.808  13.625   1.301
34054W        W95343  23.657  30.979   4.120
34055W        W95344   4.769  32.056  12.851
34056W        W95345  34.577  32.593  12.999
34057W        W95346  25.204  16.094   2.306
34058W        W95347  11.780  34.537  12.444
34059W        W95348  30.563  42.373   1.262
34060W        W95349   0.487  36.001  13.941
34061W        W95350  27.477  43.479   2.371
34062W        W95351  27.536   6.419   3.338
34063W        W95352  34.564  15.806   2.785
34064W        W95353  44.279  21.022   5.108
34065W        W95354  36.874  22.168   0.282
34066W        W95355  29.665  28.985  14.912
34067W        W95356   1.312  37.953  13.948
34068W        W95357  13.633   8.713   4.130
34069W        W95358  43.308  38.425  13.435
34070W        W95359   2.341  21.058   1.418
34071W        W95360   2.820  35.983   2.314
34072W        W95361   5.345  24.156   2.892
34073W        W95362   0.383  32.005   2.262
34074W        W95363  16.709  33.466  14.009
34075W        W95364   0.342  36.529   0.751
34076W        W95365  31.496   8.356  12.466
34077W        W95366   6.324  23.534   4.690
34078W        W95367  22.692   5.772   0.769
34079W        W95368  36.555  26.509  13.035
34080W        W95369   0.784   4.915   0.891
34081W        W95370  36.514  33.521  10.022
34082W        W95371  11.741  21.055   1.699
34083W        W95372  38.397  29.463   0.251
34084W        W95373   1.326  35.855  12.509
34085W        W95374  19.108  24.575  11.126
34086W        W95375  38.968  13.178   3.747
34087W        W95376   8.252  42.487   3.167
34088W        W95377  28.511  17.217  13.507
34089W        W95378  11.705   5.321   3.782
34090W        W95379  34.588  26.098  11.900
34091W        W95380  25.205   2.375  13.964
34092W        W95381  30.957  29.926  10.593
34093W        W95382  25.040  40.891   0.449
34094W        W95383  32.585   3.946   3.235
34095W        W95384  31.602  18.172   4.190
34096W        W95385  33.926  22.244   0.889
34097W        W95386  41.829   4.328   3.704
34098W        W95387  11.141   6.386  13.444
34099W        W95388   2.722  27.453  12.061
34100W        W95389  28.149  43.972  12.339
34101W        W95390  21.160  42.813  13.339
34102W        W95391  33.424   3.302   1.912
34103W        W95392  11.133  27.584   0.281
34104W        W95393   8.831  40.483   3.241
34105W        W95394  22.194  10.691  12.531
34106W        W95395   3.431  44.876  12.422
34107W        W95396   2.249  11.679  13.386
34108W        W95397  41.951  23.712  12.483
34109W        W95398  31.073   7.269   4.190
34110W        W95399   9.739  34.083   0.817
34111W        W95400  32.005  26.209   0.431
34112W        W95401   2.948   8.674   3.860
34113W        W95402  14.117  27.048   2.664
34114W        W95403  36.470  36.951  13.426
34115W        W95404  41.943  28.001   2.235
34116W        W95405  20.204  36.992  14.449
34117W        W95406  44.453  25.556   0.461
34118W        W95407   1.362  22.099   3.826
34119W        W95408  28.533  40.799   3.694
34120W        W95409   0.316   7.210  10.034
34121W        W95410  13.754  13.818   3.725
34122W        W95411  44.997  13.743  13.311
34123W        W95412  32.563  35.100  11.878
34124W        W95413  15.809  40.511   3.663
34125W        W95414   5.269   8.837   0.892
34126W        W95415   2.351   9.194  10.492
34127W        W95416  19.749  23.516   1.892
34128W        W95417  14.688   5.314  14.338
34129W        W95418   6.213  32.550   2.223
34130W        W95419   1.459  14.688   0.404
34131W        W95420  28.595   6.695  11.863
34132W        W95421  20.261   0.775  10.988
34133W        W95422  18.741  21.656  14.961
34134W        W95423  22.167  34.552  14.478
34135W        W95424  40.529  39.376   3.698
34136W        W95425  36.980  12.244  11.960
34137W        W95426  38.369   4.241  11.501
34138W        W95427  17.062  13.640  13.931
34139W        W95428  39.031  15.602   1.929
34140W        W95429  43.964  10.166  14.342
34141W        W95430  35.428   4.761  14.406
34142W        W95431   9.829  37.560   0.416
34143W        W95432  13.792  33.492   2.838
34144W        W95433  32.399  16.202  13.842
34145W        W95434   0.422  28.056   0.910
34146W        W95435  18.060   6.262   4.312
34147W        W95436  28.471  41.385  14.476
34148W        W95437  44.286  29.054   4.327
34149W        W95438   4.402  13.732  10.890
34150W        W95439  25.611  39.847  11.980
34151W        W95440  34.955  39.910  14.302
34152W        W95441   1.755  41.533  10.640
34153W        W95442   2.265  14.744   4.255
34154W        W95443  38.017  13.845  12.831
34155W        W95444  34.949   7.255   1.702
34156W        W95445  12.201  12.321  10.972
34157W        W95446  18.733  33.955   1.902
34158W        W95447   6.782  11.638  11.046
34159W        W95448  26.640  10.371   0.343
34160W        W95449  44.826   8.197   0.912
34161W        W95450  13.800   1.369   2.822
34162W        W95451  23.652  13.619  11.974
34163W        W95452  41.867  44.335   4.327
34164W        W95453  36.417   3.335   4.603
34165W        W95454  11.223  16.317   4.218
34166W        W95455  14.743  37.377  13.472
34167W        W95456  34.887   8.159  11.898
34168W        W95457  44.367  13.306  13.856
34169W        W95458  35.550  31.932   0.386
34170W        W95459  24.518  15.733   3.304
34171W        W95460  27.056   4.844   3.308
34172W        W95461  37.508   8.812   0.473
34173W        W95462  25.467  34.945   4.786
34174W        W95463  32.451  40.461  12.546
34175W        W95464   5.200  32.075  13.343
34176W        W95465  31.151  24.193  12.832
34177W        W95466  10.800  24.503   1.755
34178W        W95467  21.226   0.776  13.036
34179W        W95468  38.899   0.262  12.072
34180W        W95469   3.388  14.694  14.466
34181W        W95470  28.608  40.807  13.382
34182W        W95471  38.961  39.036   0.801
34183W        W95472  33.979  13.786   2.903
34184W        W95473  32.081  39.334  12.420
34185W        W95474  43.934  33.494  10.969
34186W        W95475  35.911  16.715   4.732
34187W        W95476  36.070  22.126   4.611
34188W        W95477  41.998  42.450  12.976
34189W        W95478  17.136  26.015   0.764
34190W        W95479  24.689  44.865  13.308
34191W        W95480   8.364  17.615   3.280
34192W        W95481  27.060  21.725  13.791
34193W        W95482  41.790   4.274  13.503
34194W        W95483   3.922   5.742  13.822
34195W        W95484   4.211  42.810  11.997
34196W        W95485  25.562  26.607   4.706
34197W        W95486  10.728  15.110  11.046
34198W        W95487  31.991  34.033  11.372
34199W        W95488  26.197  13.145   2.758
34200W        W95489   7.722  12.320   0.288
34201W        W95490  27.657  21.213   1.258
34202W        W95491  40.470  26.018   1.396
34203W        W95492   5.350  17.623   2.856
34204W        W95493   2.254  28.505  13.952
34205W        W95494  30.136  43.479  14.516
34206W        W95495  35.588   5.310  13.952
34207W        W95496   8.350  42.347  13.534
34208W        W95497  18.196  29.111   3.860
34209W        W95498  42.932  39.484  10.463
34210W        W95499  29.517   0.433   1.389
34211W        W95500   4.711  38.982  13.058
34212W        W95501  41.915  43.401   1.247
34213W        W95502   0.444  16.287   1.840
34214W        W95503  28.626   5.745  13.918
34215W        W95504  28.623  11.863   3.643
34216W        W95505  33.538  34.923   4.730
34217W        W95506   7.697  13.316  12.474
34218W        W95507  40.319  37.475   2.341
34219W        W95508  34.020  40.803   2.769
34220W        W95509  25.209  12.626  13.002
34221W        W95510   2.879  12.621  12.465
34222W        W95511  15.204   7.407   3.301
34223W        W95512  24.517  26.061  14.444
34224W        W95513   4.370   9.768  12.929
34225W        W95514  12.839  27.163  11.885
34226W        W95515  10.210   0.770   1.873
34227W        W95516  30.030  12.690  11.986
34228W        W95517  16.794  21.727  13.036
34229W        W95518  17.704  43.316  13.409
34230W        W95519  31.423  41.325   1.707
34231W        W95520  28.043  33.595  14.297
34232W        W95521  18.131  33.441   4.817
34233W        W95522   0.914  39.995   5.124
34234W        W95523  31.073  15.602  13.450
34235W        W95524   9.873  40.459   2.774
34236W        W95525  37.072  11.252  11.910
34237W        W95526  24.199  19.266   1.907
34238W        W95527  35.482  35.576   3.672
34239W        W95528  28.035  25.219   2.285
34240W        W95529  10.229   0.340  13.324
34241W        W95530  24.642  19.110  10.475
34242W        W95531   3.866  37.908   2.748
34243W        W95532  13.641   5.334  11.101
34244W        W95533  25.130  44.961  11.499
34245W        W95534  21.558  21.591   2.689
34246W        W95535  11.827  40.034  12.845
34247W        W95536   4.762   1.450  14.994
34248W        W95537  42.337  38.932   0.775
34249W        W95538  42.435  15.672   0.479
34250W        W95539  38.075   7.277  11.879
34251W        W95540   1.277  30.129   0.789
34252W        W95541  30.908   1.945  11.592
34253W        W95542  26.122  25.580  11.054
34254W        W95543   5.722  35.947   2.366
34255W        W95544   2.908  44.783  12.455
34256W        W95545  26.097   5.411  14.006
34257W        W95546  19.188  27.625   4.202
34258W        W95547   1.853  23.129  14.300
34259W        W95548  41.299  42.317  14.298
34260W        W95549  16.669   5.439   3.721
34261W        W95550  33.052  40.433   0.344
34262W        W95551  14.281  27.070  11.059
34263W        W95552  16.210   8.310   3.777
34264W        W95553  37.962   8.888   0.298
34265W        W95554  33.452  21.143   0.762
34266W        W95555  44.420  33.083  12.536
34267W        W95556  38.401   4.811   3.815
34268W        W95557   6.908   0.882   3.244
34269W        W95558   5.411  40.445  10.642
34270W        W95559  42.484  34.492  10.895
34271W        W95560  43.901  16.598   3.359
34272W        W95561  14.824   7.890   2.798
34273W        W95562  18.639  14.794  13.325
34274W        W95563  11.686  19.244  11.551
34275W        W95564  11.799  26.192   0.275
34276W        W95565  35.898  31.569   0.478
34277W        W95566  35.585  10.321  11.582
34278W        W95567   2.284  30.438  12.960
34279W        W95568   2.943  19.722   3.646
34280W        W95569   4.777  23.062   2.382
34281W        W95570  40.008   2.260  12.031
34282W        W95571  13.836  27.127  14.460
34283W        W95572   6.334   5.758   2.736
34284W        W95573  38.570   3.738   4.241
34285W        W95574  30.962  10.226   4.660
34286W        W95575  30.431  30.930  14.296
34287W        W95576  41.983  13.214  10.582
34288W        W95577  33.089  28.115  11.036
34289W        W95578  38.000  29.554  11.565
34290W        W95579  11.722  10.195  14.438
34291W        W95580  20.225  31.929   3.743
34292W        W95581  40.446  26.560  13.396
34293W        W95582  18.662  36.857  10.525
34294W        W95583  14.259  38.512   1.719
34295W        W95584   9.184  17.576  13.525
34296W        W95585  24.152  10.139   1.211
34297W        W95586  35.945   8.711  10.933
34298W        W95587  33.547  38.862   2.817
34299W        W95588  33.122  37.018  14.333
34300W        W95589  39.874  42.944  11.511
34301W        W95590   6.768  14.228   3.869
34302W        W95591  30.606  37.895  12.021
34303W        W95592  16.094  16.123   3.738
34304W        W95593  11.669  13.269  10.574
34305W        W95594  43.897  18.104  10.601
34306W        W95595  12.152  23.729   4.157
34307W        W95596   2.889  40.815  14.015
34308W        W95597  16.266   5.323   1.773
34309W        W95598  10.161  21.756  13.548
34310W        W95599  10.321   8.332   2.729
34311W        W95600  37.338  21.690   2.285
34312W        W95601   5.313  35.872  12.529
34313W        W95602  39.334   8.362  14.786
34314W        W95603   9.268  19.167   2.900
34315W        W95604  23.535   6.243  10.561
34316W        W95605  34.094  17.639   3.850
34317W        W95606  42.891  18.147  11.582
34318W        W95607  16.765   1.792   3.237
34319W        W95608  26.076  11.681  14.962
34320W        W95609  10.338  43.935  11.608
34321W        W95610  35.379  12.722  10.571
34322W        W95611  21.533  29.469   0.871
34323W        W95612  14.244   2.836   2.666
34324W        W95613   3.886  41.968  11.090
34325W        W95614  37.870   9.890  13.866
34326W        W95615  27.992  14.658   0.359
34327W        W95616  44.415  43.394  13.812
34328W        W95617  14.140  10.306   4.139
34329W        W95618  38.864  12.800   0.459
34330W        W95619  39.879  15.748  14.773
34331W        W95620   8.759  22.998   3.261
34332W        W95621   4.791  43.920   1.866
34333W        W95622  37.977  40.822  11.931
34334W        W95623  42.008  34.595   0.854
34335W        W95624  12.856  27.475   4.616
34336W        W95625  16.276  30.050   1.308
34337W        W95626  25.474  44.417   2.341
34338W        W95627  43.349  36.970  12.868
34339W        W95628  30.560  27.600   3.291
34340W        W95629   8.179  29.119   3.834
34341W        W95630  20.738  37.336  14.029
34342W        W95631  11.319  37.510  11.887
34343W        W95632  26.052  21.636  14.948
34344W        W95633  35.497   7.697   3.851
34345W        W95634  17.750  31.514  14.346
34346W        W95635  41.825  18.054   0.333
34347W        W95636  12.669  14.229  11.942
34348W        W95637  32.472  37.981  14.983
34349W        W95638  26.693  13.742   4.704
34350W        W95639  38.462  20.628   1.215
34351W        W95640  25.136  16.117  12.580
34352W        W95641  14.127  30.525  12.578
34353W        W95642  27.960  11.299   2.733
34354W        W95643  42.831   5.785   3.272
34355W        W95644  16.667  18.186   1.333
34356W        W95645  18.588  35.874  11.570
34357W        W95646  43.765  38.906   0.893
34358W        W95647  28.151  33.517   3.805
34359W        W95648  31.997  28.559   3.274
34360W        W95649  29.627  16.165   2.313
34361W        W95650  37.981   5.291   1.840
34362W        W95651  42.789   8.719  14.991
34363W        W95652  35.038  17.072   3.331
34364W        W95653   7.312  36.587  14.307
34365W        W95654  18.592  34.931   4.816
34366W        W95655  17.579  17.606  12.482
34367W        W95656   7.179  24.089   2.704
34368W        W95657  35.878  41.476   1.905
34369W        W95658  42.342  18.220  10.128
34370W        W95659   1.358  17.170  13.869
34371W        W95660  34.058  21.140  12.356
34372W        W95661  26.196   5.755   2.841
34373W        W95662  41.522  43.300  13.467
34374W        W95663   7.856  18.739  11.077
34375W        W95664  31.120  17.631  13.445
34376W        W95665  12.715  27.635  14.446
34377W        W95666  24.523  39.522  12.466
34378W        W95667  28.072  11.825  11.415
34379W        W95668  11.816  27.129   2.704
34380W        W95669   0.374  24.598  14.383
34381W        W95670   0.833   5.261   4.725
34382W        W95671  13.152  37.886   0.888
34383W        W95672   2.371  17.764   1.694
34384W        W95673  17.073  38.392   1.410
34385W        W95674  27.628  16.665   1.927
34386W        W95675  14.809  10.146  13.842
34387W        W95676  11.755  28.616   3.776
34388W        W95677  16.718  16.255   1.239
34389W        W95678  17.672  13.841   1.218
34390W        W95679  37.470  30.434   4.336
34391W        W95680  43.794  26.574   2.419
34392W        W95681  20.170  13.338  14.811
34393W        W95682  33.057  34.451  13.970
34394W        W95683  27.188  41.986  14.377
34395W        W95684  24.018   2.736   0.851
34396W        W95685  25.079  40.386   4.210
34397W        W95686  44.364   5.920  11.537
34398W        W95687   0.818  14.692   2.796
34399W        W95688   0.922  36.980  13.807
34400W        W95689  41.864  43.422  12.351
34401W        W95690  23.235  30.464   2.236
34402W        W95691  13.157  40.837  13.961
34403W        W95692  19.578  41.872   0.402
34404W        W95693  29.456   2.358  12.360
34405W        W95694   1.788   4.365   3.696
34406W        W95695  34.023  13.237  13.368
34407W        W95696  26.619   8.714   2.855
34408W        W95697  19.224   9.736  14.345
34409W        W95698  30.541  19.575   1.428
34410W        W95699  37.499  17.285   2.829
34411W        W95700  42.385  33.053   3.149
34412W        W95701  10.738  44.939  13.031
34413W        W95702  11.687  32.041   4.148
34414W        W95703  28.004  38.397   0.347
34415W        W95704  43.009  20.272  11.899
34416W        W95705  32.083   9.658  11.416
34417W        W95706   3.891  10.758   0.896
34418W        W95707  19.177  40.929  11.922
34419W        W95708  26.163   5.250   0.441
34420W        W95709  19.655  10.813   3.831
34421W        W95710  11.654  41.466  11.450
34422W        W95711   4.442  32.495  14.476
34423W        W95712  20.041  10.289  11.491
34424W        W95713  22.156  18.787  14.452
34425W        W95714  34.031  26.142  13.329
34426W        W95715   0.915  35.429  14.489
34427W        W95716  29.655  29.450  12.578
34428W        W95717  29.968   0.752  13.501
34429W        W95718  24.572  14.317  11.938
34430W        W95719   6.295   3.290   2.232
34431W        W95720   6.869  10.227   3.735
34432W        W95721  22.564  11.707   5.193
34433W        W95722  44.479  36.489   4.649
34434W        W95723  37.510   2.954   1.285
34435W        W95724  44.286  36.870   4.796
34436W        W95725  37.966   2.802  10.951
34437W        W95726   7.296  25.555   2.880
34438W        W95727   2.746  41.435  12.446
34439W        W95728   0.334  11.226  11.026
34440W        W95729  10.333  16.802  13.396
34441W        W95730   0.388  32.568  13.894
34442W        W95731   2.348   2.815  11.408
34443W        W95732   3.239  40.500  12.849
34444W        W95733  24.567  19.204   3.782
34445W        W95734   5.360   3.240   2.246
34446W        W95735  12.719  33.527   1.225
34447W        W95736  27.498  13.108   4.604
34448W        W95737   1.354  18.642  14.843
34449W        W95738  33.928  27.094  10.539
34450W        W95739  40.372   0.308  13.963
34451W        W95740  40.880  20.648   4.293
34452W        W95741  40.399  19.656   0.909
34453W        W95742  17.081   2.340  13.004
34454W        W95743  32.461  30.143  13.331
34455W        W95744  27.660  31.936  12.986
34456W        W95745  22.647  15.664  13.365
34457W        W95746  37.882  21.034   1.250
34458W        W95747  38.331  39.353  12.094
34459W        W95748  44.431  22.043   2.888
34460W        W95749  11.744  14.763  14.967
34461W        W95750  24.223  41.318   9.940
34462W        W95751   2.239  34.950   4.164
34463W        W95752   1.755  35.592   4.146
34464W        W95753  40.945  17.293  12.076
34465W        W95754  24.589  38.351  13.027
34466W        W95755  20.663  39.841  11.892
34467W        W95756  41.043  10.841  13.346
34468W        W95757  26.163  36.538   2.789
34469W        W95758  29.148  30.569  13.469
34470W        W95759   2.909  19.697  11.586
34471W        W95760  33.006  23.539  12.429
34472W        W95761   8.812   2.396  11.080
34473W        W95762  39.323   9.198  12.919
34474W        W95763  25.513  27.533  11.611
34475W        W95764  38.969   8.357   0.749
34476W        W95765  35.016  37.573   3.172
34477W        W95766  31.618  25.210  11.977
34478W        W95767  33.623  26.489   0.361
34479W        W95768  17.094  23.532  13.004
34480W        W95769  21.729  27.463  14.451
34481W        W95770  22.055  13.804  10.930
34482W        W95771  11.689  22.038   4.143
34483W        W95772  14.159  19.688   0.837
34484W        W95773  18.209  18.213   2.745
34485W        W95774  22.575  17.788   4.620
34486W        W95775  30.415  23.225   0.448
34487W        W95776  17.564  39.852  12.343
34488W        W95777  34.013  38.919   2.677
34489W        W95778  34.971  43.514   2.808
34490W        W95779   7.194  33.899   1.911
34491W        W95780  38.836  22.539  11.047
34492W        W95781  24.207  24.595   4.345
34493W        W95782  18.180  15.155   0.319
34494W        W95783   7.328   7.780  10.498
34495W        W95784   8.218  34.870   4.270
34496W        W95785  19.144  16.741  11.919
34497W        W95786  17.686  35.068   2.301
34498W        W95787  32.585   7.356   4.147
34499W        W95788   4.284  13.744   4.829
34500W        W95789   6.189   4.703   3.157
34501W        W95790  31.460  29.994  14.025
34502W        W95791  23.180  22.729   0.373
34503W        W95792  34.421  29.066  14.364
34504W        W95793  44.349   1.976  14.807
34505W        W95794  29.494  31.609  10.927
34506W        W95795  37.910   7.349  12.491
34507W        W95796  35.002   7.826   2.853
34508W        W95797  21.187  36.533  14.388
34509W        W95798  42.917  25.568   1.257
34510W        W95799  32.065  12.284  11.467
34511W        W95800  14.701  18.161   4.331
34512W        W95801  30.090  20.739  14.977
34513W        W95802   8.869  32.501  14.403
34514W        W95803  42.402  35.533   3.836
34515W        W95804  36.489  21.065   1.365
34516W        W95805  44.933  12.620   1.323
34517W        W95806  34.426  29.552   3.637
34518W        W95807  35.433  25.690   0.848
34519W        W95808  44.389   4.732   4.785
34520W        W95809  11.841  24.070   1.234
34521W        W95810  31.140  42.961   1.350
34522W        W95811   0.416  22.021   1.816
34523W        W95812  31.970  42.780   2.833
34524W        W95813  13.631   5.217  14.766
34525W        W95814  42.905   8.809  13.974
34526W        W95815  42.956  20.062   0.470
34527W        W95816  10.833  36.510   3.655
34528W        W95817  20.762  16.577  13.889
34529W        W95818  21.639  22.088  14.279
34530W        W95819   7.300  12.837   2.213
34531W        W95820  39.035  37.874  14.877
34532W        W95821  18.641   3.346   3.662
34533W        W95822  15.277  37.020  11.072
34534W        W95823   1.931  44.275  11.540
34535W        W95824  21.642  12.719   4.138
34536W        W95825   8.826  19.769   4.264
34537W        W95826  41.352  15.209   0.289
34538W        W95827  29.124  20.087   1.379
34539W        W95828   6.777  21.550   1.825
34540W        W95829  40.319  33.054   3.795
34541W        W95830  41.041  32.999  14.920
34542W        W95831  19.699  12.763   4.632
34543W        W95832   2.402  38.477  10.899
34544W        W95833  30.064   9.747  11.587
34545W        W95834  19.543  15.214   2.885
34546W        W95835  30.972  30.932   2.715
34547W        W95836  20.242   8.320  13.044
34548W        W95837  25.693   6.269   3.788
34549W        W95838  44.445  23.655   4.642
34550W        W95839  39.957  28.070  12.399
34551W        W95840  38.364  20.246  12.036
34552W        W95841  36.490   1.453  12.928
34553W        W95842   7.393  27.085   4.758
34554W        W95843  18.781  21.519   1.341
34555W        W95844  37.558  33.009   1.918
34556W        W95845  14.283  24.106   2.745
34557W        W95846  16.192  12.779  12.942
34558W        W95847  39.426  20.768   4.347
34559W        W95848  24.489   4.858  13.421
34560W        W95849   7.766  31.526   3.699
34561W        W95850  40.433   9.294  12.378
34562W        W95851  31.019  44.260   9.962
34563W        W95852  18.622  23.660   5.131
34564W        W95853  14.679  36.471  14.352
34565W        W95854  26.064  21.617  12.947
34566W        W95855  28.679   2.314   2.707
34567W        W95856  24.567  11.205   2.897
34568W        W95857  18.155  27.083   2.342
34569W        W95858  11.136  19.765   4.656
34570W        W95859  30.434  33.568   2.388
34571W        W95860  12.179  32.482  13.328
34572W        W95861   7.171  29.026   3.297
34573W        W95862  21.699   4.791   0.434
34574W        W95863   3.226  11.352   0.938
34575W        W95864  21.204   8.313  13.522
34576W        W95865  13.111  35.064   9.528
34577W        W95866   9.659  22.231   0.856
34578W        W95867  11.171   1.826  12.551
34579W        W95868  23.724  21.562  13.049
34580W        W95869   2.231   5.275   3.765
34581W        W95870   2.963  25.156  12.563
34582W        W95871   8.831   4.737   5.092
34583W        W95872   5.215   0.887   4.605
34584W        W95873  35.033  43.942   1.757
34585W        W95874   0.313  42.873   3.153
34586W        W95875  39.469  14.746  13.962
34587W        W95876  21.747   7.173   0.814
34588W        W95877  28.546  22.130  10.455
34589W        W95878   2.780  26.003  14.901
34590W        W95879  43.436  37.453  11.081
34591W        W95880   0.820  38.526   1.805
34592W        W95881  39.424  43.354  14.009
34593W        W95882  16.264  30.138   2.673
34594W        W95883   3.229  28.932  13.462
34595W        W95884  14.152  17.173   3.645
34596W        W95885  35.947   9.222   4.286
34597W        W95886  20.575  14.264   2.181
34598W        W95887  26.096   0.287  14.791
34599W        W95888   5.708  22.501  12.354
34600W        W95889  43.940  23.202   3.199
34601W        W95890   3.378  10.207   3.209
34602W        W95891  19.644  34.469   1.810
34603W        W95892  43.864  40.314  11.481
34604W        W95893   1.382  16.082   0.442
34605W        W95894  29.526  33.981   1.442
34606W        W95895  14.096  44.440  14.900
34607W        W95896   0.342   1.479  11.509
34608W        W95897  28.069  25.668   2.367
34609W        W95898  43.398  31.050   2.223
34610W        W95899  39.940  22.067   3.689
34611W        W95900  10.382  31.418  10.902
34612W        W95901  24.184  16.130  10.466
34613W        W95902   3.749   6.279  12.545
34614W        W95903   0.388  41.936   0.820
34615W        W95904  11.641  24.534  10.497
34616W        W95905   5.767  35.878   0.779
34617W        W95906   0.463  18.050   3.347
34618W        W95907  34.514  42.508  12.375
34619W        W95908  26.989  39.521   2.311
34620W        W95909  35.590  37.528  12.015
34621W        W95910  29.056  10.749   1.908
34622W        W95911  39.895  15.222   3.328
34623W        W95912  32.120  41.376  13.883
34624W        W95913   8.875  38.028   2.202
34625W        W95914   6.808  18.073   2.344
34626W        W95915   3.313  37.857   0.743
34627W        W95916  38.531   8.699   3.384
34628W        W95917  22.573  41.903   2.827
34629W        W95918   8.279   5.773  12.013
34630W        W95919  21.633  16.117  11.119
34631W        W95920  29.145  15.634   3.179
34632W        W95921  33.611  30.516   3.211
34633W        W95922  18.615  15.703   1.933
34634W        W95923  42.380  18.275   5.109
34635W        W95924   6.241  13.734   3.737
34636W        W95925  19.588  13.824  14.351
34637W        W95926   2.800  39.957  13.969
34638W        W95927  44.974  44.298  10.419
34639W        W95928   0.954  33.049  13.350
34640W        W95929  18.087  43.320   2.192
34641W        W95930  13.290  23.616   3.304
34642W        W95931  24.693  39.860   1.447
34643W        W95932   5.892   4.813  14.763
34644W        W95933  15.658  44.419   2.889
34645W        W95934  37.087  18.205  13.463
34646W        W95935  33.069  18.714  14.376
34647W        W95936  35.494   1.312  10.152
34648W        W95937   5.238  22.995   3.840
34649W        W95938  40.441   0.267  12.931
34650W        W95939  30.420  32.538  13.449
34651W        W95940  19.740  29.570   4.346
34652W        W95941  42.338  31.500   0.273
34653W        W95942  39.461  33.022  14.010
34654W        W95943  34.108  44.292   1.305
34655W        W95944  37.051  42.320   3.808
34656W        W95945  27.536  30.956  10.403
34657W        W95946  44.838  36.928   3.743
34658W        W95947  33.440  38.032   0.395
34659W        W95948  20.650  29.580   4.203
34660W        W95949  31.405  16.697   4.676
34661W        W95950  13.830  17.683  13.866
34662W        W95951  40.529  14.830   2.863
34663W        W95952  37.484  18.596   9.958
34664W        W95953  23.533   1.448  13.480
34665W        W95954  44.847  44.793   2.723
34666W        W95955  27.168  33.523   0.377
34667W        W95956  18.129   1.815  13.536
34668W        W95957   2.362  20.037  14.292
34669W        W95958  19.226   5.323  10.491
34670W        W95959  32.915  28.629  13.376
34671W        W95960   4.821  29.076  10.936
34672W        W95961   1.466  41.408   2.810
34673W        W95962   2.320  19.589  11.480
34674W        W95963  43.980  25.134   3.863
34675W        W95964   3.824  18.622   1.261
34676W        W95965   4.938  11.831   4.114
34677W        W95966  10.279  11.292  10.059
34678W        W95967  10.157  42.855  11.452
34679W        W95968  12.280  19.664   1.354
34680W        W95969  42.345  16.685   2.341
34681W        W95970   0.788  40.317  11.040
34682W        W95971  24.001  10.810   1.788
34683W        W95972   5.827   2.259   2.339
34684W        W95973  21.075  34.533   4.700
34685W        W95974   6.298   8.738  10.403
34686W        W95975  31.140  24.616  12.549
34687W        W95976   5.742  14.179   4.138
34688W        W95977  44.486   8.166  14.289
34689W        W95978  41.812  15.174  10.434
34690W        W95979  27.147  10.251  13.510
34691W        W95980  16.151   0.253  14.783
34692W        W95981  41.827  21.134   1.765
34693W        W95982  22.588   8.659   3.719
34694W        W95983  39.433  44.970  10.943
34695W        W95984  36.532  39.007  11.378
34696W        W95985   8.182   2.793   0.266
34697W        W95986  32.986  41.962   4.244
34698W        W95987  27.643  43.815  13.905
34699W        W95988  30.520   2.260  13.816
34700W        W95989   0.442   5.256  11.597
34701W        W95990  35.991  37.398  11.051
34702W        W95991   1.925  37.429  11.970
34703W        W95992  11.197  17.635   0.335
34704W        W95993  38.441  26.518  14.506
34705W        W95994  41.328  20.259   3.689
34706W        W95995  20.148   4.411  11.900
34707W        W95996  18.281  23.065   1.821
34708W        W95997  15.247  40.426   1.752
34709W        W95998   9.241   4.789  13.980
34710W        W95999  26.073  40.840  12.545
34711W        W96000   1.317  38.033   0.829
34712W        W96001  30.591  42.500  14.397
34713W        W96002  43.434   0.780   2.411
34714W        W96003  40.409  34.106   1.930
34715W        W96004   0.936  36.040  13.543
34716W        W96005  27.972  13.630  13.491
34717W        W96006  40.347   5.323  13.546
34718W        W96007  17.659  13.199   0.245
34719W        W96008  39.430  13.128  10.984
34720W        W96009  39.322  37.506   0.352
34721W        W96010  13.729   9.235   1.698
34722W        W96011  21.664  41.481  12.905
34723W        W96012  18.065  18.182   3.658
34724W        W96013  25.520  38.864   0.283
34725W        W96014  31.013  38.563   4.677
34726W        W96015   5.257  32.066   0.764
34727W        W96016  19.188  38.365   3.669
34728W        W96017  42.340  41.843  12.942
34729W        W96018   1.277   6.186   2.824
34730W        W96019  38.923  21.119  13.355
34731W        W96020  11.346  33.419   2.833
34732W        W96021  18.068  11.254  14.850
34733W        W96022   4.260   3.710   0.868
34734W        W96023  19.125   6.298   4.258
34735W        W96024  32.564   2.228   2.901
34736W        W96025  26.646  17.619   1.416
34737W        W96026  24.521   6.832   1.426
34738W        W96027   5.366  27.578  13.842
34739W        W96028  20.083  39.969   4.735
34740W        W96029   5.381  22.702  12.341
34741W        W96030  21.544   8.871   2.663
34742W        W96031   2.800  13.180   4.209
34743W        W96032   6.380  22.200  13.963
34744W        W96033   0.749  15.197  13.307
34745W        W96034  22.136  11.712  10.642
34746W        W96035   4.350  40.316  11.921
34747W        W96036   6.705   8.783  11.438
34748W        W96037   3.419   3.259   2.806
34749W        W96038  43.836  42.005   2.383
34750W        W96039  42.352  28.498   3.150
34751W        W96040  34.086  29.609   3.161
34752W        W96041  10.873  38.937   4.255
34753W        W96042   5.280  41.406  14.308
34754W        W96043  26.492   7.771   0.760
34755W        W96044  30.919  36.846  13.470
34756W        W96045  34.489  21.544   2.240
34757W        W96046  18.691  31.446  10.417
34758W        W96047  16.588  18.693  14.834
34759W        W96048  23.527   9.842  14.912
34760W        W96049  14.802   2.326   3.241
34761W        W96050  28.050  10.822   9.976
34762W        W96051   7.821   4.294  12.414
34763W        W96052  41.492  44.313   3.842
34764W        W96053   1.928  44.945   1.702
34765W        W96054   7.713   1.345  14.826
34766W        W96055   4.388  22.584   5.802
34767W        W96056  31.977   6.289   4.789
34768W        W96057   7.737  33.908   2.211
34769W        W96058   0.368  30.540  14.344
34770W        W96059   1.840   5.787   1.844
34771W        W96060  21.113   2.788  12.435
34772W        W96061   2.744  34.015   0.899
34773W        W96062  18.550  28.114  12.500
34774W        W96063  41.341  25.047   3.273
34775W        W96064  34.532  10.245  13.048
34776W        W96065  33.384   7.892  11.564
34777W        W96066  42.440  27.643   2.784
34778W        W96067   8.842  15.243   0.896
34779W        W96068  35.029  21.206   0.955
34780W        W96069  44.959  29.654  14.455
34781W        W96070  30.141  44.912   1.214
34782W        W96071  28.171  26.466  13.805
34783W        W96072   2.404  25.180  14.810
34784W        W96073  20.259  21.511   0.911
34785W        W96074  42.341   0.863  13.429
34786W        W96075  22.722  37.017   3.332
34787W        W96076  28.163  11.768  10.055
34788W        W96077   6.328  42.852   4.779
34789W        W96078  28.102   6.213   1.699
34790W        W96079  21.162  36.902  10.515
34791W        W96080  43.483  24.229   1.778
34792W        W96081  17.076  20.145   1.281
34793W        W96082  41.470  22.573   1.338
34794W        W96083  30.027  10.203   3.304
34795W        W96084   3.951   1.781  13.378
34796W        W96085  11.856  16.696  14.940
34797W        W96086  30.154   0.260   1.707
34798W        W96087  18.724  35.910  11.055
34799W        W96088  25.138  30.466  12.840
34800W        W96089  22.035  14.230  10.899
34801W        W96090  28.151   4.736   0.930
34802W        W96091  36.459  17.571   2.791
34803W        W96092  21.119  15.666   2.674
34804W        W96093  33.386  43.875  13.062
34805W        W96094  30.610  44.458   0.435
34806W        W96095  30.632  20.170   0.858
34807W        W96096  36.552  16.154   4.341
34808W        W96097  37.010  22.564   4.723
34809W        W96098  17.641   3.896   1.346
34810W        W96099  39.034  23.007   2.715
34811W        W96100  33.054  15.729   4.673
34812W        W96101  10.302  29.031  13.538
34813W        W96102  27.629  36.407   2.733
34814W        W96103  25.987  14.757   2.848
34815W        W96104   3.734  11.128   1.860
34816W        W96105  42.401  29.114   1.417
34817W        W96106  38.505  26.615  14.967
34818W        W96107  19.174  34.081   2.828
34819W        W96108  28.958  14.318  14.774
34820W        W96109  27.454   5.254   3.648
34821W        W96110   2.727  24.069  11.942
34822W        W96111   8.185  21.562  13.939
34823W        W96112  22.203   7.299   0.865
34824W        W96113   5.314  12.735  11.562
34825W        W96114  27.461  13.108   2.742
34826W        W96115  39.387   6.729  10.984
34827W        W96116  13.821  42.470   0.967
34828W        W96117  23.057  13.189   4.161
34829W        W96118  39.895  29.496   0.868
34830W        W96119  13.635   9.720  11.606
34831W        W96120  26.098  22.574   1.405
34832W        W96121   7.333  32.525   2.712
34833W        W96122  34.928  18.591  11.063
34834W        W96123  25.167   7.332  14.999
34835W        W96124   7.698  11.239  11.421
34836W        W96125  39.986  13.203  14.874
34837W        W96126   0.432  18.575  13.032
34838W        W96127  44.803  35.472  10.967
34839W        W96128  16.721  35.869  14.459
34840W        W96129  38.036   6.334  14.414
34841W        W96130  35.450  34.476  11.543
34842W        W96131  24.073  14.163  10.027
34843W        W96132   1.384  25.507  10.440
34844W        W96133   6.760   4.231  11.577
34845W        W96134  15.816   6.819   0.405
34846W        W96135  11.865  27.596   2.183
34847W        W96136  29.935   0.299  13.036
34848W        W96137  28.529  20.107  11.540
34849W        W96138   9.714   8.830   4.707
34850W        W96139  20.717   8.892   1.923
34851W        W96140  19.559  12.141   0.368
34852W        W96141  41.894  20.740   0.901
34853W        W96142   7.693  16.778  13.946
34854W        W96143  32.120  17.188  12.341
34855W        W96144   6.341  36.447   1.776
34856W        W96145  37.858  33.964   1.275
34857W        W96146  30.525  41.995   0.822
34858W        W96147   6.848   7.225   2.288
34859W        W96148   8.772  41.898   5.148
34860W        W96149  32.006  16.152  13.006
34861W        W96150  27.134  15.237   2.789
34862W        W96151   1.333  34.403  11.864
34863W        W96152  33.926  35.587  12.875
34864W        W96153  12.158   9.830  14.907
34865W        W96154  29.049  25.204   0.888
34866W        W96155  29.928  15.111   2.339
34867W        W96156  44.373  31.114   0.942
34868W        W96157  11.324   3.323  14.400
34869W        W96158  41.447  31.602  13.386
34870W        W96159   3.860   6.720   3.256
34871W        W96160  32.065   0.871  14.875
34872W        W96161  40.880  11.150   3.385
34873W        W96162   6.909  31.555   9.629
34874W        W96163  35.996  25.009   4.193
34875W        W96164  26.508  40.875  11.545
34876W        W96165  25.708  32.535   0.744
34877W        W96166  28.033   1.312   4.262
34878W        W96167   9.159   3.807  11.430
34879W        W96168  16.682  24.141  11.091
34880W        W96169  20.540  24.504   0.254
34881W        W96170  27.496  22.519   0.450
34882W        W96171  20.132  10.712  13.836
34883W        W96172  40.410  23.612  14.381
34884W        W96173  26.634  11.842   2.360
34885W        W96174  34.927  40.027   0.780
34886W        W96175  28.156  28.445   0.401
34887W        W96176  44.837  40.931  14.470
34888W        W96177  44.439   7.325   1.280
34889W        W96178  40.373   7.326   0.449
34890W        W96179  33.120  37.971   0.268
34891W        W96180  39.471   6.376  10.425
34892W        W96181  44.819  43.948  12.348
34893W        W96182  26.066  39.966  13.313
34894W        W96183   3.383  30.552  13.410
34895W        W96184  19.189  33.981  11.989
34896W        W96185  43.303  34.003   1.282
34897W        W96186   0.899  21.089  13.538
34898W        W96187   8.379  29.141   4.601
34899W        W96188   8.174  11.833   3.727
34900W        W96189  14.195  13.690  12.422
34901W        W96190  37.980  37.487   1.744
34902W        W96191  43.306  27.942  11.941
34903W        W96192   2.458  19.233   3.256
34904W        W96193   1.822  39.065   1.259
34905W        W96194  44.310  42.780  12.839
34906W        W96195  31.552  44.309   1.839
34907W        W96196  18.572  26.999  10.965
34908W        W96197  44.924  11.311  12.062
34909W        W96198  30.419   8.868  11.589
34910W        W96199  11.137  33.616   2.364
34911W        W96200  17.184  11.650  13.798
34912W        W96201  43.344  16.300   3.216
34913W        W96202  15.256  17.211  14.832
34914W        W96203  10.195  31.127  11.103
34915W        W96204   0.908   6.779   2.356
34916W        W96205  36.582   6.218   0.901
34917W        W96206  35.979  43.816  11.473
34918W        W96207  30.934   9.886  13.816
34919W        W96208  11.144  13.775   0.948
34920W        W96209  10.656  31.594  14.976
34921W        W96210  17.635  44.892  11.054
34922W        W96211  23.715   6.186   1.753
34923W        W96212  32.497   8.247  12.538
34924W        W96213  27.523  41.839   0.850
34925W        W96214   3.938  19.177  11.540
34926W        W96215  44.824  41.480   3.841
34927W        W96216   3.409   3.361   0.478
34928W        W96217  26.072  26.115   2.363
34929W        W96218  36.843  25.552  10.612
34930W        W96219   6.775   1.834   3.206
34931W        W96220   7.828  37.980  14.475
34932W        W96221  29.047  24.623  11.121
34933W        W96222  34.447   4.257  11.119
34934W        W96223   8.820  14.274   1.858
34935W        W96224  44.390  31.929   0.856
34936W        W96225   6.755  22.588  10.138
34937W        W96226  33.529  31.589   1.792
34938W        W96227  38.951  19.151   5.141
34939W        W96228  12.195   4.921  11.398
34940W        W96229  19.189  19.173  13.955
34941W        W96230  23.725   2.308   1.291
34942W        W96231  35.888  42.299   2.265
34943W        W96232  20.098  28.590  10.472
34944W        W96233  19.604   5.906   1.843
34945W        W96234  16.226  26.957   0.369
34946W        W96235   9.328  35.448   2.851
34947W        W96236  29.980  28.555   4.271
34948W        W96237  37.984   6.394  13.955
34949W        W96238  27.106  36.892  13.797
34950W        W96239   5.691  39.427   3.809
34951W        W96240  36.554  39.440   3.286
34952W        W96241  34.512   8.257  12.414
34953W        W96242  12.187  34.923  13.990
34954W        W96243   7.414  19.112   1.280
34955W        W96244  35.971  30.051   0.858
34956W        W96245   8.163   2.824  11.043
34957W        W96246  16.665  10.684   1.798
34958W        W96247  30.961  43.332   4.716
34959W        W96248  10.268  24.015  10.593
34960W        W96249  23.672   8.169   5.135
34961W        W96250  25.059   8.228   1.306
34962W        W96251  15.679  41.524   1.379
34963W        W96252   2.317  42.293   3.156
34964W        W96253  14.218   0.928   0.306
34965W        W96254  35.564  35.911   3.281
34966W        W96255  33.899  31.572  13.320
34967W        W96256  35.452  44.982  12.558
34968W        W96257  21.031  14.107  13.849
34969W        W96258  25.174  14.197  13.876
34970W        W96259   1.363   0.918  12.408
34971W        W96260  39.337  24.096  14.987
34972W        W96261  32.435  14.625   2.318
34973W        W96262  11.727   1.780   3.187
34974W        W96263  22.551  28.580   1.822
34975W        W96264   8.197  10.369  13.361
34976W        W96265  11.237  38.987  11.476
34977W        W96266  43.822  26.158   4.274
34978W        W96267   1.753   5.378   3.780
34979W        W96268  43.316  26.032   0.772
34980W        W96269  25.983  33.539   3.272
34981W        W96270  26.155  33.024  13.032
34982W        W96271  30.060  41.946  10.489
34983W        W96272  10.165  14.796  10.585
34984W        W96273  13.191  44.940   9.978
34985W        W96274  32.401   4.896   1.935
34986W        W96275   6.799  11.645   1.427
34987W        W96276  11.861  19.692   2.315
34988W        W96277   2.470  32.049  10.644
34989W        W96278  34.060  31.456   1.835
34990W        W96279  40.504  39.843  13.860
34991W        W96280  13.160  28.088  11.855
34992W        W96281  42.787  37.057   3.748
34993W        W96282  11.224  37.907   1.240
34994W        W96283  20.540  17.235  10.493
34995W        W96284  37.985  20.061   2.379
34996W        W96285  28.439   3.752   4.264
34997W        W96286  28.095  11.276  14.789
34998W        W96287   5.399  25.141   1.845
34999W        W96288  33.947   9.789   1.930
35000W        W96289   2.724  37.566   1.776
35001W        W96290  31.090  18.781  12.364
35002W        W96291  43.844  40.380   1.277
35003W        W96292  14.166  25.074  13.418
35004W        W96293   3.413  18.655  13.458
35005W        W96294   7.332   5.692  13.803
35006W        W96295  20.598   0.294   3.679
35007W        W96296  43.950  22.542   1.351
35008W        W96297  41.335  12.737   2.877
35009W        W96298  28.116  24.708   4.182
35010W        W96299  44.002  29.078   0.847
35011W        W96300  16.310  31.533   4.126
35012W        W96301  38.055  15.818   5.083
35013W        W96302  20.050  23.117   2.417
35014W        W96303  32.550  20.199   3.785
35015W        W96304   6.237  43.393   2.260
35016W        W96305  36.380  32.015  11.867
35017W        W96306  25.164  32.565   3.306
35018W        W96307  20.234   3.304   1.800
35019W        W96308  16.750  32.124   3.662
35020W        W96309   2.788  28.027  13.791
35021W        W96310  30.981   2.388  14.871
35022W        W96311  43.799  26.117  14.801
35023W        W96312  27.998  43.767   1.706
35024W        W96313   2.910  21.521  13.539
35025W        W96314   7.329  39.935   3.633
35026W        W96315   8.658   2.347  13.435
35027W        W96316   7.324  36.362  10.982
35028W        W96317  14.102  10.686   1.875
35029W        W96318  29.619   6.260  10.141
35030W        W96319   7.797  43.339   0.403
35031W        W96320  33.624   3.730  12.546
35032W        W96321  30.635  11.743   0.801
35033W        W96322  41.514  44.775  13.017
35034W        W96323  39.434  35.007  14.997
35035W        W96324  41.359  42.520   1.743
35036W        W96325  37.428   1.789  14.496
35037W        W96326  24.543  16.170  10.896
35038W        W96327  35.396  10.714   1.765
35039W        W96328  11.767  34.067   0.729
35040W        W96329  43.948  35.436   2.295
35041W        W96330  20.529  14.274   0.464
35042W        W96331  13.827   3.215  11.414
35043W        W96332  32.585  21.690   4.702
35044W        W96333  36.535   4.414   0.301
35045W        W96334  12.216  18.786   4.341
35046W        W96335  25.967   6.742   1.727
35047W        W96336  23.549   1.423  13.826
35048W        W96337   4.332  30.429  11.508
35049W        W96338  34.898   3.788  13.400
35050W        W96339   4.416   4.363   2.824
35051W        W96340  17.187   0.958  13.449
35052W        W96341  31.004  27.036   1.395
35053W        W96342  27.185  20.539  10.480
35054W        W96343  35.854  23.990  13.333
35055W        W96344  27.138  19.115  11.990
35056W        W96345   3.256  35.070   2.762
35057W        W96346  44.792   6.344   4.781
35058W        W96347   9.359  32.401  12.837
35059W        W96348   3.921  14.308   3.747
35060W        W96349   9.649  39.354   0.263
35061W        W96350  41.401  30.438  12.419
35062W        W96351  33.046  29.569  10.403
35063W        W96352  32.995  28.441  12.434
35064W        W96353   1.872  30.158  12.909
35065W        W96354  31.595   7.231  13.992
35066W        W96355  41.843   6.317  13.013
35067W        W96356  39.906  10.745   0.303
35068W        W96357  22.225   7.330   3.244
35069W        W96358  31.936  42.971   4.812
35070W        W96359   2.732  38.337  14.915
35071W        W96360   6.922   1.432  11.387
35072W        W96361  10.672  13.807  14.998
35073W        W96362  28.441   4.212   2.850
35074W        W96363  10.322   5.392  13.546
35075W        W96364  24.648  16.291  10.489
35076W        W96365  21.567  35.439   1.716
35077W        W96366  32.948  20.150  10.891
35078W        W96367  13.733  37.405  13.813
35079W        W96368  26.014  11.742  10.076
35080W        W96369  42.839  42.291  10.484
35081W        W96370  20.048  44.285   4.172
35082W        W96371  25.515  26.487  13.961
35083W        W96372  29.472  37.482  12.528
35084W        W96373  19.202  22.249  13.966
35085W        W96374   4.252  23.232   4.672
35086W        W96375  19.701  12.653  14.286
35087W        W96376  43.789   3.336   2.672
35088W        W96377  38.855  16.155   2.346
35089W        W96378  15.287  25.062   0.447
35090W        W96379  37.492  44.268  14.977
35091W        W96380  39.499  29.517   2.720
35092W        W96381   4.858  42.775  14.029
35093W        W96382  24.115   4.906  12.480
35094W        W96383   6.379  14.165   2.360
35095W        W96384  28.943   8.357   1.352
35096W        W96385  12.652  37.853   4.133
35097W        W96386  14.225  32.542  14.286
35098W        W96387  40.385  30.655  11.382
35099W        W96388  38.886  33.955  11.990
35100W        W96389  41.922  42.949  11.940
35101W        W96390  20.719  31.604  14.977
35102W        W96391  37.989   7.750  11.975
35103W        W96392  14.787  32.505   1.780
35104W        W96393  36.989  35.520   2.798
35105W        W96394   7.680  17.255   0.330
35106W        W96395  11.757   5.878   1.904
35107W        W96396  32.459  40.016   0.442
35108W        W96397  14.721  39.813   3.764
35109W        W96398  36.883  11.789  11.576
35110W        W96399  25.626   0.284   4.341
35111W        W96400  36.944  19.574  10.995
35112W        W96401   2.415  29.468   3.325
35113W        W96402   5.891   3.909  12.500
35114W        W96403  14.589  36.546   2.180
35115W        W96404  25.541  23.493   2.758
35116W        W96405  13.630  12.788  11.588
35117W        W96406  36.037  21.538  13.512
35118W        W96407  28.059  28.031   1.887
35119W        W96408  16.592  23.129  12.451
35120W        W96409  26.640  35.497  10.989
35121W        W96410  16.281  34.417   1.411
35122W        W96411  10.788  38.981  13.464
35123W        W96412  32.101  19.741   1.403
35124W        W96413  33.059  25.586   0.447
35125W        W96414  31.013  41.836  10.560
35126W        W96415  37.379  20.233   2.408
35127W        W96416  18.789  40.036   4.134
35128W        W96417  13.191  20.685   3.340
35129W        W96418  40.527  44.900   4.687
35130W        W96419  17.293  33.965  13.373
35131W        W96420  28.521  39.346   3.357
35132W        W96421  40.965   7.851   0.839
35133W        W96422  14.102  10.261   1.446
35134W        W96423   1.934   9.690   1.403
35135W        W96424   5.890  14.815   2.257
35136W        W96425  39.357  37.554  14.492
35137W        W96426   9.291  11.746  10.572
35138W        W96427   2.331  37.008   1.287
35139W        W96428  35.385   6.305   0.339
35140W        W96429  44.445   8.404  12.829
35141W        W96430  36.906  13.798   2.301
35142W        W96431  40.839  20.659   1.421
35143W        W96432   7.837  41.519   1.319
35144W        W96433  43.792  36.482  14.887
35145W        W96434  15.264   6.894  14.393
35146W        W96435  36.450  21.723  14.808
35147W        W96436  38.031  38.075  12.547
35148W        W96437  10.705  38.018  12.437
35149W        W96438  14.675  25.150   2.315
35150W        W96439   3.908  42.501  14.986
35151W        W96440  22.648  24.096  10.906
35152W        W96441  40.957  23.642   1.745
35153W        W96442  30.604   4.839   0.305
35154W        W96443  39.811  25.217   4.647
35155W        W96444   5.800  27.462   4.626
35156W        W96445  37.425  32.052  10.584
35157W        W96446  38.396  20.163  13.035
35158W        W96447  33.926   9.183  10.522
35159W        W96448   6.755  28.948   1.865
35160W        W96449  30.572   1.934  14.880
35161W        W96450   7.712   1.776  10.555
35162W        W96451  14.822   6.212  13.470
35163W        W96452   3.434  39.023  10.967
35164W        W96453  10.167  25.704   2.875
35165W        W96454  27.556  21.243   2.890
35166W        W96455  26.611  38.039  14.025
35167W        W96456  18.771  18.135   0.749
35168W        W96457  23.709  42.511   2.754
35169W        W96458   2.903  33.399   2.832
35170W        W96459  40.974  11.830   1.764
35171W        W96460  22.119   8.772  11.862
35172W        W96461  24.085  38.915   2.669
35173W        W96462  29.543  14.306  12.381
35174W        W96463  39.514  19.164  14.901
35175W        W96464   5.702  23.191  11.983
35176W        W96465   0.421  41.315  14.293
35177W        W96466   0.491  12.353   0.761
35178W        W96467  29.455  21.145  12.407
35179W        W96468   0.867  19.650  14.934
35180W        W96469  18.159   1.267   3.305
35181W        W96470  12.180   5.366   2.302
35182W        W96471  41.387  26.195  12.096
35183W        W96472   7.785   5.196   0.749
35184W        W96473  15.324  42.008  11.058
35185W        W96474  25.585  36.497  13.015
35186W        W96475  21.125  33.443  10.899
35187W        W96476  18.231   5.873   0.884
35188W        W96477   4.208  12.237  11.571
35189W        W96478  17.569   8.323   4.669
35190W        W96479  39.537  36.085  13.062
35191W        W96480  24.178   5.728  13.904
35192W        W96481  16.137   4.212  12.446
35193W        W96482  14.130  36.465   3.739
35194W        W96483  13.235  33.029   0.779
35195W        W96484  34.436   7.258  10.956
35196W        W96485  27.653   9.181   1.714
35197W        W96486  40.918   6.759   4.613
35198W        W96487  21.750  29.016  12.368
35199W        W96488  32.395  11.306   1.913
35200W        W96489  28.527   7.756  11.394
35201W        W96490  21.041  10.246  13.377
35202W        W96491  18.669  43.504  14.916
35203W        W96492  20.174  15.174   2.836
35204W        W96493  35.075  38.024   2.349
35205W        W96494  34.093  41.525   0.335
35206W        W96495   2.373  34.442  13.920
35207W        W96496  32.530  11.239   0.447
35208W        W96497  24.709   9.149   3.823
35209W        W96498  28.558   0.381  11.006
35210W        W96499  44.823  39.469   2.727
35211W        W96500  15.328  27.498  14.327
35212W        W96501  32.538   5.801  13.865
35213W        W96502   3.292  26.599   4.643
35214W        W96503  15.313  16.257  13.403
35215W        W96504  44.263  16.198  12.517
35216W        W96505  13.712  17.156  12.423
35217W        W96506  11.271   2.265   3.636
35218W        W96507  23.161  13.640  12.954
35219W        W96508  29.556  13.321  12.391
35220W        W96509  21.203  38.333   3.635
35221W        W96510  10.324   9.299   3.735
35222W        W96511  27.615  32.018  10.538
35223W        W96512   2.742  10.255  13.404
35224W        W96513   3.926  23.021   1.383
35225W        W96514  32.109  18.756  13.407
35226W        W96515   0.463  34.435   3.744
35227W        W96516  30.122   1.918   4.242
35228W        W96517  28.028  21.121   1.239
35229W        W96518   6.835  35.895   4.647
35230W        W96519  33.420   2.235  14.423
35231W        W96520  35.492  38.062   4.637
35232W        W96521  33.960  26.106   4.659
35233W        W96522   9.876  39.888  12.026
35234W        W96523  42.359   7.289  11.936
35235W        W96524  23.164  12.206  14.470
35236W        W96525  33.886  44.495   1.785
35237W        W96526  27.548  20.097  11.472
35238W        W96527  16.163  40.308   9.482
35239W        W96528   7.785   4.894   0.295
35240W        W96529  24.011  33.874   3.732
35241W        W96530  38.326  42.804  13.531
35242W        W96531  32.962   8.715  14.969
35243W        W96532  34.562  35.570   1.808
35244W        W96533  27.048   5.822  13.816
35245W        W96534  38.491  36.044   0.934
35246W        W96535   8.240  30.623  11.520
35247W        W96536  29.598  18.252   2.392
35248W        W96537  40.827  11.705   4.136
35249W        W96538  33.956  36.869   3.719
35250W        W96539   8.336  26.153   3.231
35251W        W96540  10.277  10.876   3.870
35252W        W96541   9.390  28.489   4.758
35253W        W96542   3.331  32.039   2.205
35254W        W96543  27.467  37.523   4.166
35255W        W96544  21.587   6.396  13.476
35256W        W96545  16.200  25.095  10.080
35257W        W96546  16.663  27.176   3.710
35258W        W96547  14.289  15.810  11.030
35259W        W96548  28.538  30.499  12.063
35260W        W96549  10.723  29.586   0.879
35261W        W96550  29.923  32.985   0.433
35262W        W96551  30.952  41.981   3.333
35263W        W96552  36.033  25.164  14.394
35264W        W96553  36.466   6.364  14.491
35265W        W96554  23.224  20.239   4.193
35266W        W96555  22.534  40.516  11.098
35267W        W96556  42.308   3.838  14.025
35268W        W96557   7.208  10.167   3.363
35269W        W96558  40.951  21.054   0.762
35270W        W96559  10.292  15.191  12.940
35271W        W96560  12.150  22.618   4.274
35272W        W96561  10.721  41.892   4.257
35273W        W96562  27.037  12.802   3.830
35274W        W96563  16.583   4.752   2.770
35275W        W96564  30.601   8.831   4.797
35276W        W96565  39.499  24.077   3.806
35277W        W96566   7.837   6.751  12.561
35278W        W96567  12.756  43.292  12.084
35279W        W96568  44.804  25.030  11.452
35280W        W96569  30.654  36.896   3.164
35281W        W96570  20.667  27.187  12.482
35282W        W96571  39.528  38.854   2.373
35283W        W96572  11.327  12.807  14.411
35284W        W96573  24.576   7.692  10.508
35285W        W96574  15.265  36.424   0.469
35286W        W96575  42.913  37.849   0.473
35287W        W96576  17.084  36.981  13.002
35288W        W96577  25.112  34.944  12.374
35289W        W96578   8.870  38.484  13.813
35290W        W96579  27.663  18.742  10.532
35291W        W96580  26.196  36.069   0.863
35292W        W96581  44.908   4.866  11.904
35293W        W96582  12.844   4.439   1.763
35294W        W96583  13.667  42.839   4.258
35295W        W96584  22.078  32.070  12.391
35296W        W96585  11.631  29.951   4.725
35297W        W96586  20.564   5.316  14.864
35298W        W96587  43.982  40.305  12.020
35299W        W96588  15.265  44.350   3.237
35300W        W96589  31.587  15.760   2.291
35301W        W96590  15.657  27.087   5.108
35302W        W96591   2.909   7.376   1.290
35303W        W96592  17.144  17.116   1.270
35304W        W96593  17.791  24.039  10.070
35305W        W96594  19.149   4.761   4.256
35306W        W96595   6.738   7.903  10.498
35307W        W96596   5.814  32.998   2.189
35308W        W96597  35.564  15.190  14.497
35309W        W96598  39.337  28.954  11.876
35310W        W96599  14.814  30.420  10.133
35311W        W96600   4.274  16.607  12.947
35312W        W96601   2.234  15.617  13.048
35313W        W96602  22.630  14.250   3.644
35314W        W96603   4.408  13.204   4.284
35315W        W96604  10.141  32.894   1.857
35316W        W96605  41.513  17.132  10.965
35317W        W96606  25.646  42.972  11.526
35318W        W96607  26.010  34.865   1.865
35319W        W96608  24.693   5.887   2.225
35320W        W96609   5.744  12.361   0.765
35321W        W96610  22.597  20.118  14.849
35322W        W96611  29.953  18.055  10.906
35323W        W96612  25.034  24.625   3.288
35324W        W96613   1.957  29.550   3.863
35325W        W96614  22.713  12.123  11.581
35326W        W96615  18.244  34.933   1.264
35327W        W96616  13.800  10.816  11.389
35328W        W96617  35.930   2.910   2.691
35329W        W96618  39.411   4.712   1.230
35330W        W96619  44.976  31.045  11.374
35331W        W96620  40.970  43.844   0.835
35332W        W96621  15.727  36.376  11.026
35333W        W96622   0.829  16.127   4.698
35334W        W96623  15.808   2.922  14.394
35335W        W96624  41.911  24.006  13.866
35336W        W96625  18.216   7.886   4.743
35337W        W96626  10.371  42.405   2.827
35338W        W96627  13.159  12.238   4.663
35339W        W96628   5.875  30.438   3.657
35340W        W96629  25.531  26.973   1.412
35341W        W96630  36.862  20.735   5.166
35342W        W96631  28.478  19.082   4.268
35343W        W96632  32.540   9.257   0.288
35344W        W96633  11.767  30.155  12.942
35345W        W96634  20.191  40.374   2.783
35346W        W96635  41.902  26.557   0.743
35347W        W96636   1.787  22.092   2.687
35348W        W96637   2.847  15.820  14.925
35349W        W96638   6.921  21.609   3.231
35350W        W96639  24.068   5.702  11.042
35351W        W96640  29.588   5.353  12.970
35352W        W96641  35.103  20.761   2.746
35353W        W96642  37.469  39.350  13.903
35354W        W96643   2.875   6.239  12.063
35355W        W96644  17.797   4.290  10.986
35356W        W96645  35.010  42.916  10.570
35357W        W96646  16.189  17.079  11.500
35358W        W96647  15.725  35.933   1.830
35359W        W96648  27.656  18.714   0.470
35360W        W96649   3.340  34.467  10.591
35361W        W96650  14.826  28.600  11.880
35362W        W96651  44.344  13.170  12.432
35363W        W96652  20.238  15.759   4.204
35364W        W96653   0.325   4.783   1.925
35365W        W96654  39.036  17.700   1.350
35366W        W96655  30.545  21.045   2.245
35367W        W96656  16.286   8.322   4.150
35368W        W96657  30.635  21.076  13.451
35369W        W96658  27.947  42.890   3.359
35370W        W96659  44.419  26.463   0.730
35371W        W96660  24.974  16.104  11.885
35372W        W96661   8.739  42.426  14.334
35373W        W96662  37.353   3.404  11.120
35374W        W96663  31.976  44.905  13.007
35375W        W96664  38.495  16.698   1.340
35376W        W96665  17.286  11.283   2.897
35377W        W96666  18.606  24.982   2.418
35378W        W96667  37.457  37.904   0.945
35379W        W96668  20.717   4.711  14.955
35380W        W96669  27.176  36.350   0.387
35381W        W96670   5.730  37.578  10.161
35382W        W96671  27.473  22.643  14.456
35383W        W96672   1.880  41.466   4.677
35384W        W96673  14.780   7.290   5.213
35385W        W96674  15.738   5.265   2.857
35386W        W96675   2.776  37.008  14.822
35387W        W96676  36.014  22.622  12.962
35388W        W96677  28.572  36.018  12.908
35389W        W96678  11.166  26.198   1.378
35390W        W96679  24.007  39.811   4.708
35391W        W96680   1.401  21.756  13.828
35392W        W96681  10.828  24.189   3.243
35393W        W96682  43.992  41.389   2.669
35394W        W96683  26.098  13.794   2.845
35395W        W96684  16.293  16.805  10.434
35396W        W96685  28.488  22.241  12.384
35397W        W96686  43.936  28.019  12.440
35398W        W96687  13.308  44.971  10.518
35399W        W96688  32.461   8.703   1.366
35400W        W96689  23.223  42.407   3.290
35401W        W96690  22.221  28.065  12.409
35402W        W96691  13.602  24.211   2.877
35403W        W96692  18.285  20.615  10.966
35404W        W96693  29.626  34.933   0.477
35405W        W96694  39.974  21.748  12.915
35406W        W96695  43.910  31.978  14.844
35407W        W96696  21.712  24.674  12.443
35408W        W96697  15.123  21.743  11.982
35409W        W96698  17.066  15.223   2.826
35410W        W96699   1.839  21.680  14.780
35411W        W96700  18.231  24.102   0.844
35412W        W96701  41.499  36.384   5.247
35413W        W96702  34.873  38.557  13.524
35414W        W96703  35.863  35.433  12.504
35415W        W96704  35.914  29.094   4.347
35416W        W96705  24.694  41.008   0.742
35417W        W96706  23.514  18.078  14.317
35418W        W96707  21.677  11.330   0.887
35419W        W96708  31.432   0.271  13.918
35420W        W96709  42.506   6.867   3.263
35421W        W96710  23.609  28.970  14.846
35422W        W96711  34.597  27.105   3.360
35423W        W96712  42.884  36.881   1.805
35424W        W96713   7.828  26.145   1.240
35425W        W96714  29.064  32.479   3.733
35426W        W96715  22.128  39.053   2.886
35427W        W96716  28.070   0.353  13.402
35428W        W96717  22.693  31.629  13.871
35429W        W96718  39.405  43.280   1.378
35430W        W96719   3.729  18.674  13.414
35431W        W96720   5.700  43.416   4.678
35432W        W96721   6.772  43.772  12.041
35433W        W96722  19.731  38.886   3.812
35434W        W96723   0.970   5.737  10.129
35435W        W96724  36.960  23.144  13.972
35436W        W96725  28.948  30.047  10.415
35437W        W96726  37.380  40.913  14.435
35438W        W96727  10.778  42.376   4.660
35439W        W96728   9.738  22.602  12.353
35440W        W96729  11.291   8.803   1.856
35441W        W96730  35.913  17.187   3.263
35442W        W96731  39.527  23.505  11.878
35443W        W96732  42.990  19.281   4.342
35444W        W96733   1.421  42.796  11.595
35445W        W96734  14.118  24.489   3.274
35446W        W96735  13.837   9.218   4.601
35447W        W96736   5.724  40.934   4.652
35448W        W96737   6.338   4.425  11.884
35449W        W96738  12.252   9.773   0.256
35450W        W96739  39.937  34.613  13.428
35451W        W96740  33.581  31.995  11.424
35452W        W96741  41.996  16.254   5.266
35453W        W96742  31.598   7.696   0.809
35454W        W96743   4.940  40.800   1.356
35455W        W96744  40.807  32.531  12.079
35456W        W96745  29.004  13.776  10.407
35457W        W96746  36.420  21.171  12.444
35458W        W96747   4.760  15.811   3.312
35459W        W96748  25.181  41.493  10.422
35460W        W96749  15.229  18.580  12.036
35461W        W96750  15.611  22.730   3.703
35462W        W96751  15.583  25.039  13.972
35463W        W96752   0.796  35.543   3.235
35464W        W96753  31.515  15.628  12.013
35465W        W96754  34.945  12.277  10.428
35466W        W96755  31.032  23.067   2.869
35467W        W96756   8.188  19.160   0.801
35468W        W96757  25.008  15.662  14.342
35469W        W96758  36.877  12.238   0.882
35470W        W96759   1.823  11.161  10.565
35471W        W96760   4.878  14.287  13.526
35472W        W96761  40.040  43.876   0.258
35473W        W96762  29.061  41.956  10.578
35474W        W96763  30.946  19.263   4.730
35475W        W96764  12.177   3.807  13.882
35476W        W96765  28.517  37.546   5.238
35477W        W96766   5.929  32.492   0.806
35478W        W96767   0.339  19.645  12.572
35479W        W96768   4.256  30.108   1.743
35480W        W96769   6.892  13.603   3.794
35481W        W96770  40.846   3.851  11.545
35482W        W96771  23.492  42.027  10.623
35483W        W96772  40.927  30.035  13.920
35484W        W96773  30.037  13.666   1.416
35485W        W96774  28.624   4.284  14.393
35486W        W96775   4.790  18.165   4.708
35487W        W96776  41.438  11.681   3.840
35488W        W96777   0.394  28.491   0.816
35489W        W96778  40.844  18.175  11.482
35490W        W96779  15.220  13.827  13.021
35491W        W96780  43.423   4.728   0.784
35492W        W96781  39.328  20.623   5.159
35493W        W96782  24.660   1.733   3.163
35494W        W96783  28.986  16.767   1.870
35495W        W96784  39.425   7.838  14.416
35496W        W96785  44.000   9.822  14.850
35497W        W96786  20.561   9.218   3.631
35498W        W96787  11.821  35.420   3.187
35499W        W96788   0.484   6.399   1.699
35500W        W96789  34.612  44.953  14.970
35501W        W96790   1.915  14.283   1.343
35502W        W96791  40.998  23.507   2.691
35503W        W96792  20.622   0.405  10.624
35504W        W96793  18.249   3.349  10.993
35505W        W96794  33.459  28.038   2.803
35506W        W96795  18.689  38.920   2.715
35507W        W96796  27.578  43.893  10.625
35508W        W96797  23.691  23.682   1.229
35509W        W96798  21.661   8.872  13.060
35510W        W96799   2.435   4.414   2.757
35511W        W96800  27.657   7.733   2.344
35512W        W96801  19.702   8.188   1.935
35513W        W96802  39.546  21.227   1.403
35514W        W96803  30.988  33.123  11.042
35515W        W96804  16.280  19.241  12.965
35516W        W96805   1.962  33.407   0.422
35517W        W96806   5.354   2.882   4.233
35518W        W96807  40.838  24.536   1.785
35519W        W96808  24.652  41.043  12.001
35520W        W96809   5.819   8.792   2.319
35521W        W96810  12.294  18.621  14.330
35522W        W96811   2.417  23.501   4.164
35523W        W96812  38.935   8.656   1.243
35524W        W96813   4.779  20.190  13.422
35525W        W96814   1.300   8.178  12.515
35526W        W96815  34.583  30.561   0.414
35527W        W96816  42.892   5.825   9.967
35528W        W96817  29.492  11.298   4.113
35529W        W96818  29.932  26.962   0.295
35530W        W96819  22.654  32.065  14.793
35531W        W96820  23.201  35.092  10.526
35532W        W96821  23.617  35.920   0.381
35533W        W96822  18.228  33.381  12.471
35534W        W96823  25.625  35.603   2.257
35535W        W96824   9.197  24.721  10.445
35536W        W96825  43.438  42.861   3.183
35537W        W96826  41.483  28.084  12.966
35538W        W96827  19.244  12.170   4.259
35539W        W96828  12.128  39.508  12.960
35540W        W96829  41.463  18.280   5.572
35541W        W96830   7.686  34.416   0.932
35542W        W96831   5.861  30.451   3.309
35543W        W96832  16.121  21.658  11.532
35544W        W96833   6.321  16.207   0.382
35545W        W96834  18.247   8.762   2.774
35546W        W96835   9.677  13.182   2.893
35547W        W96836  18.705  38.365  10.922
35548W        W96837  39.064  19.157   2.769
35549W        W96838  39.928   7.687  14.338
35550W        W96839  15.768  14.113  13.443
35551W        W96840   6.866  10.664   0.305
35552W        W96841   1.772  12.616   2.329
35553W        W96842   8.719  11.681  14.761
35554W        W96843  26.049  25.634   2.317
35555W        W96844  25.551   6.873   0.932
35556W        W96845   9.220  42.925  12.458
35557W        W96846   6.840  35.434  13.047
35558W        W96847  29.931  34.974  13.968
35559W        W96848  36.848  43.785   1.407
35560W        W96849  18.050  35.375  14.357
35561W        W96850  44.440  19.104  10.471
35562W        W96851  32.509  36.872   2.811
35563W        W96852  14.711   2.850   3.789
35564W        W96853  17.674  23.032   0.301
35565W        W96854  38.986  23.578   0.317
35566W        W96855  18.774  28.491   0.836
35567W        W96856  40.321  25.149   0.847
35568W        W96857  12.301   4.754   1.861
35569W        W96858  28.488  16.228   2.706
35570W        W96859  14.171  30.974   4.807
35571W        W96860   4.263  24.606   1.298
35572W        W96861  18.569  23.213  13.443
35573W        W96862  17.152  39.413   4.659
35574W        W96863   9.806  42.008   0.454
35575W        W96864  25.620  12.784   0.961
35576W        W96865  44.505  41.959  12.929
35577W        W96866  20.153  17.710  12.965
35578W        W96867   0.755  41.350   3.794
35579W        W96868  15.266  16.661  13.827
35580W        W96869  28.595  30.536  14.404
35581W        W96870   7.781  10.744  11.530
35582W        W96871  42.007  15.198   3.755
35583W        W96872  28.561  10.774  10.634
35584W        W96873   4.244   0.430  13.484
35585W        W96874  31.511  13.180   3.867
35586W        W96875   5.885  26.169  12.354
35587W        W96876  10.332  31.425   3.340
35588W        W96877  35.569   8.689  14.473
35589W        W96878  30.496   4.777   1.885
35590W        W96879  29.597  23.523  14.363
35591W        W96880  32.437   6.352  10.501
35592W        W96881  17.273  41.497   2.831
35593W        W96882  14.767  38.017   4.299
35594W        W96883  37.006  38.875   1.404
35595W        W96884  34.948  27.500   0.917
35596W        W96885   7.723   7.895   2.747
35597W        W96886   8.847  10.784   0.304
35598W        W96887  30.919   6.419   4.289
35599W        W96888  10.290  25.649   4.702
35600W        W96889  28.536  15.789   1.815
35601W        W96890   3.775  44.953   3.294
35602W        W96891  14.175  14.773   2.215
35603W        W96892  32.437  25.580   3.195
35604W        W96893  25.002  25.515   3.301
35605W        W96894  31.603  43.354   1.274
35606W        W96895  21.028  33.589   0.772
35607W        W96896  29.161  25.211   4.192
35608W        W96897  34.021  41.949   3.325
35609W        W96898  16.619  11.771  14.513
35610W        W96899  13.190  29.033  13.481
35611W        W96900   8.792   0.794  14.909
35612W        W96901  36.075   0.259  11.562
35613W        W96902  20.138  24.043  11.473
35614W        W96903  31.129  19.055  11.590
35615W        W96904  14.769  25.577  13.444
35616W        W96905   0.382  26.589  13.879
35617W        W96906  44.991  10.159   1.737
35618W        W96907  11.745   5.859   2.741
35619W        W96908  28.500  16.233  10.626
35620W        W96909   6.889   1.424  10.984
35621W        W96910  36.923   2.785  10.957
35622W        W96911  17.655   6.843   2.195
35623W        W96912   1.352  26.669  14.879
35624W        W96913  40.306  17.215   4.125
35625W        W96914  39.883   5.265  10.902
35626W        W96915  38.919  19.696  10.048
35627W        W96916  12.802  40.413  14.365
35628W        W96917   4.712  39.911  10.122
35629W        W96918  32.622  28.518  11.038
35630W        W96919   4.701   4.887   5.305
35631W        W96920   8.816  41.023  13.398
35632W        W96921  17.611   0.276   2.668
35633W        W96922  11.164  16.639   1.274
35634W        W96923  23.554  17.603  14.354
35635W        W96924   3.744  35.106   2.710
35636W        W96925  28.094   4.220  13.830
35637W        W96926  25.132  28.062   2.886
35638W        W96927  15.679  42.020   4.194
35639W        W96928  18.681  16.088  14.944
35640W        W96929   1.947   3.374  13.548
35641W        W96930  41.827  42.342  12.516
35642W        W96931  37.551  33.883  11.442
35643W        W96932  20.180   0.368   2.826
35644W        W96933   4.270  28.010   0.844
35645W        W96934  17.665  25.987   0.320
35646W        W96935  14.288   0.758   2.216
35647W        W96936  16.099  22.736   2.310
35648W        W96937   8.200  32.506   2.783
35649W        W96938  35.055  11.225   4.800
35650W        W96939  24.570  37.854  11.432
35651W        W96940  31.981  31.415   1.294
35652W        W96941  44.919  27.539   4.693
35653W        W96942  33.581   9.777   1.365
35654W        W96943   3.333  39.504   0.840
35655W        W96944  27.996   4.223  12.866
35656W        W96945  26.645   7.173   1.871
35657W        W96946  13.827  16.300   2.417
35658W        W96947   5.261   3.733  12.494
35659W        W96948  17.597  20.545   3.246
35660W        W96949   4.911  26.613   1.331
35661W        W96950  29.077  33.615  13.536
35662W        W96951   9.802   2.325  12.457
35663W        W96952  12.126  25.642   2.713
35664W        W96953  43.356  29.920   1.917
35665W        W96954  25.193  24.689   3.726
35666W        W96955  42.487  12.851  11.114
35667W        W96956   3.251  37.830  13.948
35668W        W96957  15.223   8.381   2.853
35669W        W96958   6.747  44.396   2.693
35670W        W96959  34.497  44.321   1.271
35671W        W96960  40.815   4.305  14.910
35672W        W96961  16.672  35.854   0.949
35673W        W96962  27.119   5.902  13.006
35674W        W96963  40.869  37.060   0.776
35675W        W96964  35.860  23.145   2.717
35676W        W96965  23.677  44.261   4.810
35677W        W96966  42.862   1.870   1.287
35678W        W96967   9.799  20.557  13.014
35679W        W96968   8.675  35.397  11.526
35680W        W96969  44.331   3.722  10.906
35681W        W96970  15.645  36.534   0.374
35682W        W96971  30.442  34.960   5.268
35683W        W96972  21.753  30.620   2.770
35684W        W96973  38.526   7.810   3.265
35685W        W96974  18.181  15.229   2.413
35686W        W96975   4.313   8.274   2.400
35687W        W96976  25.014  32.525  11.399
35688W        W96977  35.392   9.659  14.321
35689W        W96978  25.667  10.771  11.589
35690W        W96979   3.834  30.137   3.768
35691W        W96980   7.860   6.298   1.854
35692W        W96981  36.078   3.441  12.927
35693W        W96982   4.722  43.980  11.087
35694W        W96983  44.896   4.376   2.345
35695W        W96984  15.618  29.607   0.923
35696W        W96985  10.690  17.791  11.027
35697W        W96986  32.481   5.436   4.787
35698W        W96987  23.735  35.506   4.267
35699W        W96988  34.530  36.558  10.490
35700W        W96989  28.600   4.911   3.322
35701W        W96990  15.751   6.282   2.798
35702W        W96991  25.570  15.170   1.700
35703W        W96992   4.306  31.993  14.312
35704W        W96993   3.410  26.466  11.491
35705W        W96994  21.529  44.450  10.953
35706W        W96995  15.578  17.703   9.959
35707W        W96996  18.590  26.690   1.842
35708W        W96997   5.284   1.877   3.332
35709W        W96998   9.743  40.990   1.321
35710W        W96999  17.566  15.668  12.989
35711W        W97000   8.775   7.767   4.614
35712W        W97001  15.199  40.525   9.947
35713W        W97002  36.583  27.127   1.701
35714W        W97003  20.210  23.516   2.349
35715W        W97004  19.169  36.888   3.237
35716W        W97005  37.477  11.155   3.182
35717W        W97006  29.434  33.897   3.202
35718W        W97007  15.196  31.629   3.191
35719W        W97008  33.616  30.008   0.416
35720W        W97009  14.709  36.943   1.921
35721W        W97010  15.147  27.011   2.807
35722W        W97011  15.125   1.481  12.914
35723W        W97012  18.585   4.422  13.939
35724W        W97013  44.988  30.583   4.122
35725W        W97014   9.195  39.356  14.011
35726W        W97015  19.089  38.002  12.823
35727W        W97016  33.119  44.485  11.421
35728W        W97017  20.643   6.228  10.455
35729W        W97018  38.416  11.285  14.890
35730W        W97019   4.217  15.128   3.267
35731W        W97020  15.784  17.237   2.813
35732W        W97021  17.602  40.469   0.829
35733W        W97022  22.026  31.010  10.592
35734W        W97023  16.227  18.125   9.920
35735W        W97024  33.025  42.845  11.487
35736W        W97025  28.110  30.068  14.837
35737W        W97026   8.881  30.500  14.471
35738W        W97027  21.543  11.287  10.602
35739W        W97028  18.579  11.647   2.769
35740W        W97029   6.847  29.613   2.722
35741W        W97030   0.787   1.972  13.892
35742W        W97031   0.970  10.877   1.777
35743W        W97032   4.904  10.865   4.187
35744W        W97033   6.287  36.506  14.006
35745W        W97034  10.798  17.117   4.176
35746W        W97035   7.912  16.201  13.031
35747W        W97036  28.978  29.558   0.887
35748W        W97037  10.204  23.154  13.901
35749W        W97038   4.274  26.567   1.737
35750W        W97039  44.875  16.302   3.286
35751W        W97040  32.952  41.461   1.434
35752W        W97041  28.938   5.707  10.613
35753W        W97042  15.726  34.050   4.649
35754W        W97043  19.683  14.333  11.435
35755W        W97044  22.670  28.933  12.497
35756W        W97045  35.500  20.762  11.026
35757W        W97046  33.567   0.373   2.806
35758W        W97047  23.602  24.040  14.958
35759W        W97048   3.842  10.209   1.372
35760W        W97049  42.823  24.040   2.733
35761W        W97050  17.244  42.311  11.457
35762W        W97051  18.157  35.362  13.008
35763W        W97052   0.280  41.801  14.944
35764W        W97053  42.014  31.512  11.575
35765W        W97054  18.613  22.185   2.694
35766W        W97055  21.564  14.332  12.918
35767W        W97056  37.567  16.177  10.460
35768W        W97057  42.840   7.354   4.157
35769W        W97058  12.201  12.721   4.620
35770W        W97059  40.837  27.500  13.544
35771W        W97060  28.929  28.624  14.956
35772W        W97061  34.039  26.161   3.282
35773W        W97062  29.069  18.637  10.639
35774W        W97063  21.068  29.557   4.123
35775W        W97064  39.450   8.340   3.185
35776W        W97065   0.477  31.543  12.425
35777W        W97066  23.022  12.719   0.818
35778W        W97067  40.483   5.739   1.297
35779W        W97068  44.284  25.564   1.308
35780W        W97069  18.710   4.869   2.661
35781W        W97070  10.703  36.446  10.463
35782W        W97071  27.574  38.481   2.693
35783W        W97072   2.928  39.029   4.326
35784W        W97073  34.945  33.428   0.475
35785W        W97074  30.074  10.338  12.553
35786W        W97075  40.961  34.505   4.219
35787W        W97076  27.551  34.986  13.348
35788W        W97077  34.008  19.242  10.471
35789W        W97078  12.758  29.474   3.270
35790W        W97079  42.815   0.267  11.089
35791W        W97080   6.772  44.817   3.339
35792W        W97081  44.492  16.286   2.705
35793W        W97082  43.304  27.682  11.971
35794W        W97083  22.126  24.685  12.850
35795W        W97084  37.954  41.895   4.154
35796W        W97085  39.410  33.572   1.908
35797W        W97086  32.014  29.642   4.340
35798W        W97087  18.178  34.053   1.392
35799W        W97088  28.654  19.273  13.538
35800W        W97089  37.413  32.978   0.898
35801W        W97090  27.684  13.706  10.964
35802W        W97091  40.443  23.644  12.939
35803W        W97092   9.200  26.012  11.523
35804W        W97093  13.736  42.491   3.682
35805W        W97094  32.016  13.196  12.483
35806W        W97095  38.829  12.171  11.373
35807W        W97096  40.012  44.349  11.901
35808W        W97097  22.650  35.051   1.411
35809W        W97098  28.989  33.027   1.830
35810W        W97099  15.693   1.383   5.187
35811W        W97100  14.140  31.022   2.246
35812W        W97101   3.314   0.973   4.660
35813W        W97102   2.359  40.508  10.901
35814W        W97103  15.683  12.350  11.557
35815W        W97104  15.671   4.703   3.779
35816W        W97105  13.136   8.887  13.312
35817W        W97106  27.450   0.745   2.351
35818W        W97107   0.443  36.533  12.886
35819W        W97108  16.299   5.248   3.382
35820W        W97109  39.399  12.757  12.523
35821W        W97110  39.328   0.300   2.239
35822W        W97111  33.535  36.363   9.962
35823W        W97112  19.042  43.451   1.726
35824W        W97113  27.965   3.809   4.711
35825W        W97114   5.406  38.522  10.557
35826W        W97115  31.514  29.973  13.402
35827W        W97116  35.963  39.465  12.835
35828W        W97117  24.070   1.404  12.343
35829W        W97118   9.362  27.556  14.884
35830W        W97119   1.759  39.423   0.884
35831W        W97120  41.528   8.175  10.915
35832W        W97121  32.964   5.297   0.386
35833W        W97122  33.602  24.695   4.273
35834W        W97123   7.872   4.284  11.577
35835W        W97124   9.838  23.144  10.417
35836W        W97125  35.033  44.874   3.221
35837W        W97126  11.636   7.705  11.596
35838W        W97127  24.580  40.039   3.311
35839W        W97128  17.082   4.209  13.398
35840W        W97129  27.585  25.648  14.395
35841W        W97130   7.173  17.683   2.703
35842W        W97131  35.087  31.142   2.389
35843W        W97132  22.060  21.614  14.510
35844W        W97133   7.398  22.086   3.272
35845W        W97134  38.076  29.657  13.376
35846W        W97135  43.793  42.830  12.344
35847W        W97136  33.116  23.542  11.931
35848W        W97137  22.663  17.162  13.993
35849W        W97138  27.069  10.372   4.237
35850W        W97139  33.497  24.034  13.030
35851W        W97140  15.254   6.897   4.799
35852W        W97141  41.875  15.204   0.408
35853W        W97142  42.410   4.270   4.278
35854W        W97143  11.858  23.989   4.122
35855W        W97144   2.239  27.684  13.036
35856W        W97145  36.088  15.586  10.935
35857W        W97146  23.091  22.052  12.543
35858W        W97147  40.893  35.060   0.784
35859W        W97148  16.682  10.207   1.371
35860W        W97149  41.856  12.738  14.374
35861W        W97150  20.718  23.529  14.815
35862W        W97151   0.259  33.453  14.311
35863W        W97152  27.592  17.236  12.939
35864W        W97153  34.598   5.396   2.835
35865W        W97154  23.202  28.631  12.963
35866W        W97155  25.140   4.801   0.955
35867W        W97156   8.842  14.308  11.038
35868W        W97157  29.924  11.657  14.342
35869W        W97158  42.509   6.714  11.028
35870W        W97159  44.784  44.382  11.001
35871W        W97160  21.525   0.430   2.353
35872W        W97161  39.894  20.198  11.569
35873W        W97162  16.667  38.439   1.429
35874W        W97163  32.579  26.159   2.306
35875W        W97164  12.224   5.833   4.698
35876W        W97165  19.761  30.413   4.612
35877W        W97166  24.127  31.957  10.925
35878W        W97167   3.890  23.678  10.908
35879W        W97168   1.935  22.143   4.248
35880W        W97169  20.710  23.167   0.803
35881W        W97170  23.647   1.479  11.432
35882W        W97171  21.235   7.290   1.391
35883W        W97172  40.963  14.664   3.149
35884W        W97173  10.331  13.616  14.992
35885W        W97174  23.711  34.559   3.644
35886W        W97175   1.307  12.662   4.222
35887W        W97176  21.545   7.801   3.189
35888W        W97177  44.310  30.634   1.224
35889W        W97178  15.102  42.916  13.324
35890W        W97179   7.899  36.978  14.489
35891W        W97180   4.790  17.770  11.463
35892W        W97181   9.708  15.107   4.194
35893W        W97182  11.250   6.249   4.698
35894W        W97183  37.961  43.273   1.396
35895W        W97184  34.594  37.044   4.314
35896W        W97185  37.050  30.602  12.859
35897W        W97186  21.538  37.033   1.738
35898W        W97187   9.664  12.617   2.395
35899W        W97188  25.548  36.029   5.154
35900W        W97189  20.031  36.025   3.386
35901W        W97190  19.219  43.793  11.111
35902W        W97191  14.647   2.834  13.977
35903W        W97192  17.135  16.649   0.898
35904W        W97193  19.175  18.061  10.939
35905W        W97194  44.316  16.269  12.938
35906W        W97195   8.777  35.452   2.882
35907W        W97196  24.997  30.932  14.860
35908W        W97197  12.794  35.012  12.019
35909W        W97198  23.714  17.274   0.763
35910W        W97199  18.088   9.215   3.790
35911W        W97200   0.907   7.415  14.780
35912W        W97201  11.642  32.959   3.148
35913W        W97202  24.573  42.851   2.216
35914W        W97203   6.884  34.072  12.024
35915W        W97204  36.871  44.269  10.536
35916W        W97205  13.725  37.349  14.327
35917W        W97206   9.300  17.270   2.888
35918W        W97207  33.913  20.231   1.846
35919W        W97208  13.804   1.398  11.923
35920W        W97209  44.333  22.578   2.794
35921W        W97210  17.598  35.945   2.364
35922W        W97211   2.362   7.241   2.222
35923W        W97212  27.973   5.840   0.781
35924W        W97213  15.173   2.900  10.999
35925W        W97214  19.219  23.542   0.329
35926W        W97215  41.021  10.179   1.354
35927W        W97216   1.947   8.885  11.904
35928W        W97217  22.047  29.647   2.378
35929W        W97218  32.617   1.847  13.048
35930W        W97219  32.576  11.149  11.471
35931W        W97220  10.832   2.957  13.440
35932W        W97221  11.373   9.174  12.044
35933W        W97222  34.398  17.101  14.301
35934W        W97223  39.409   0.751  10.984
35935W        W97224  22.568   8.306   0.369
35936W        W97225  16.309   4.771  10.622
35937W        W97226   4.431  12.745  13.854
35938W        W97227  44.501  30.973  13.421
35939W        W97228  44.785  32.574  13.013
35940W        W97229  18.148  36.935   1.865
35941W        W97230  11.697  22.162   1.702
35942W        W97231   8.386  34.419  13.344
35943W        W97232  17.788  44.872   3.272
35944W        W97233   7.220  20.179   2.712
35945W        W97234  12.164  27.083  13.834
35946W        W97235   3.298  25.655   3.379
35947W        W97236   2.373  33.502  11.427
35948W        W97237  43.927  12.162   2.760
35949W        W97238  21.615  16.156  14.876
35950W        W97239  40.332   2.448   2.221
35951W        W97240  21.719  14.095   1.927
35952W        W97241  36.032   7.201   0.272
35953W        W97242  13.762  11.729  13.471
35954W        W97243   9.153   0.905  14.958
35955W        W97244  34.046  20.230   1.374
35956W        W97245   9.357  25.475   1.444
35957W        W97246  10.279  42.313  13.048
35958W        W97247  37.022  31.914  10.979
35959W        W97248  36.589  14.312  14.924
35960W        W97249  23.179  39.335  14.827
35961W        W97250  37.042   0.420  14.865
35962W        W97251  35.085   8.242  14.810
35963W        W97252  23.074  21.250  11.459
35964W        W97253  19.121  43.950  13.848
35965W        W97254  39.541  26.966   3.820
35966W        W97255  38.944  44.362   3.242
35967W        W97256  35.887  39.424   0.258
35968W        W97257   9.758   9.852   1.308
35969W        W97258  11.851  23.553   4.114
35970W        W97259  21.050  17.279   0.820
35971W        W97260  33.494  42.808  12.824
35972W        W97261   7.406  13.286   1.932
35973W        W97262  28.974  31.647   1.410
35974W        W97263  37.936  15.679   1.413
35975W        W97264  23.600  19.622   3.690
35976W        W97265   3.894  22.710  14.776
35977W        W97266  30.481  44.485  11.444
35978W        W97267  32.098  38.906  14.787
35979W        W97268   2.444  11.727   1.913
35980W        W97269  36.050  27.453  12.449
35981W        W97270  37.016  16.691   0.272
35982W        W97271  44.262  27.956  12.495
35983W        W97272  34.919   3.453  12.357
35984W        W97273  26.626  26.672  13.925
35985W        W97274  27.547   4.206   2.240
35986W        W97275  27.077   0.982   1.705
35987W        W97276  36.097   7.780   5.159
35988W        W97277   3.443  29.512   0.421
35989W        W97278  35.515  29.425  13.923
35990W        W97279  35.874   1.879   4.265
35991W        W97280  19.598  44.001   0.422
35992W        W97281  39.429  21.710  11.489
35993W        W97282   6.922  40.466   1.215
35994W        W97283  33.976  13.160  11.038
35995W        W97284  19.171  41.471  13.930
35996W        W97285   5.875  25.490   3.260
35997W        W97286  22.516   0.744   2.415
35998W        W97287  16.731  17.566   0.785
35999W        W97288  43.779  33.471   0.454
36000W        W97289  17.067  33.974  11.403
36001W        W97290  19.561   5.282  14.297
36002W        W97291   1.828  27.126   4.672
36003W        W97292  29.028  36.425  13.312
36004W        W97293  34.497   5.433  11.964
36005W        W97294  13.701  19.701  14.469
36006W        W97295  31.626   2.330  14.369
36007W        W97296  37.361  40.310   5.113
36008W        W97297  22.555   6.311   1.413
36009W        W97298   3.927  10.775   4.710
36010W        W97299   6.374  23.606   9.986
36011W        W97300  10.844  28.509   0.256
36012W        W97301  44.985  33.577   1.358
36013W        W97302  34.119  21.141   0.879
36014W        W97303  28.508  42.851   1.292
36015W        W97304  38.979   8.757   4.310
36016W        W97305  20.205  25.632  14.898
36017W        W97306  42.489   9.343  12.447
36018W        W97307  32.016  25.498   0.456
36019W        W97308  25.200  18.240   3.374
36020W        W97309  12.800  39.551  14.953
36021W        W97310  31.527  44.962  10.457
36022W        W97311   3.867  22.699   1.363
36023W        W97312   6.820  40.823   1.724
36024W        W97313  30.024  11.814   2.779
36025W        W97314  10.366   5.786  10.553
36026W        W97315   8.751   5.813   1.373
36027W        W97316  16.280  39.533   2.300
36028W        W97317  22.601  11.708  11.601
36029W        W97318  19.612  31.566  13.332
36030W        W97319  32.066  13.117  10.414
36031W        W97320  38.852   0.836  13.976
36032W        W97321  20.641  42.510   4.230
36033W        W97322   8.697  20.238  13.017
36034W        W97323  24.127  43.989   3.322
36035W        W97324  15.248  33.616  11.420
36036W        W97325  17.172  18.247  11.099
36037W        W97326  30.158  38.045   3.826
36038W        W97327  20.145  26.087  11.410
36039W        W97328  33.477   6.775  12.357
36040W        W97329  11.306  14.783   2.299
36041W        W97330  30.593   4.241   0.482
36042W        W97331  14.247  16.150  10.889
36043W        W97332   9.821  20.146   0.345
36044W        W97333  11.794  24.207   0.430
36045W        W97334   1.780  22.022  10.519
36046W        W97335  15.299  41.365   4.709
36047W        W97336   4.702  16.718   0.366
36048W        W97337  38.001  16.791  11.863
36049W        W97338   5.704  42.383  13.031
36050W        W97339  42.489  12.138  12.841
36051W        W97340   6.899  44.835  11.567
36052W        W97341  15.824  40.343  14.948
36053W        W97342  34.109  15.256   2.232
36054W        W97343  42.776  27.032  12.041
36055W        W97344  30.483  40.307   4.237
36056W        W97345  15.297  26.075   3.677
36057W        W97346   5.260  41.396   0.848
36058W        W97347  26.508  24.079  11.961
36059W        W97348  33.960  40.426   4.255
36060W        W97349  12.277  27.624  12.550
36061W        W97350   5.362   2.280  11.016
36062W        W97351  12.265  34.573  13.025
36063W        W97352  30.924  10.292  13.463
36064W        W97353  31.615  35.365  11.395
36065W        W97354  18.622  30.428  11.021
36066W        W97355  33.543  35.602   0.951
36067W        W97356  34.394  42.465  14.297
36068W        W97357  31.053  26.519   0.418
36069W        W97358   2.317  16.170  12.071
36070W        W97359   6.407   3.800   0.477
36071W        W97360  22.532  30.623   3.677
36072W        W97361  37.490   0.301   3.817
36073W        W97362  18.235  26.967  10.425
36074W        W97363  16.801  34.411  13.917
36075W        W97364  20.156  19.703   4.352
36076W        W97365   4.892  21.031  12.441
36077W        W97366  22.118  39.345  12.513
36078W        W97367  23.032   7.238  12.070
36079W        W97368  28.462  25.505   4.267
36080W        W97369  40.962  20.638  11.994
36081W        W97370  39.840  31.564  12.921
36082W        W97371  22.625   7.873  13.515
36083W        W97372  23.631  11.361  14.835
36084W        W97373   6.339  34.968   4.275
36085W        W97374  13.202  19.083   0.470
36086W        W97375   3.289   1.337  12.987
36087W        W97376  23.223   7.174   4.318
36088W        W97377  41.327  24.170  10.442
36089W        W97378  42.489   8.351  11.011
36090W        W97379  18.064   1.826   4.600
36091W        W97380  23.681  31.913   1.407
36092W        W97381  30.132  14.651  12.408
36093W        W97382   5.363  38.073   3.378
36094W        W97383  35.391  11.656  10.626
36095W        W97384   8.395   6.392  12.367
36096W        W97385  34.997   6.196   2.299
36097W        W97386  34.407  42.525   2.341
36098W        W97387  33.039  39.404   1.290
36099W        W97388  40.003  36.572  14.789
36100W        W97389  28.632  40.400   1.272
36101W        W97390  22.097   5.243   2.379
36102W        W97391  41.018  14.653   4.170
36103W        W97392  26.608   5.696   3.853
36104W        W97393  42.364  42.303  13.925
36105W        W97394  34.407   8.723   4.157
36106W        W97395  22.720   6.332  10.518
36107W        W97396  33.902   2.458  10.429
36108W        W97397   2.353  30.967  14.448
36109W        W97398  33.976  39.809  12.566
36110W        W97399   6.232   5.436  11.856
36111W        W97400  11.351  30.101   4.244
36112W        W97401  34.902  33.010   3.176
36113W        W97402  18.090  10.148   4.114
36114W        W97403  18.638   1.743  14.001
36115W        W97404  39.895  14.713  14.833
36116W        W97405  38.953  20.060   0.449
36117W        W97406  26.988   8.387  12.518
36118W        W97407  22.708  28.122   1.228
36119W        W97408  42.417  14.253  10.489
36120W        W97409  27.657  39.400  12.973
36121W        W97410   7.215  27.125  11.403
36122W        W97411  19.733   7.353  11.099
36123W        W97412  44.497   6.382   0.408
36124W        W97413   1.310  35.389   4.316
36125W        W97414   6.356  27.971  12.861
36126W        W97415  16.738  33.577   2.223
36127W        W97416  44.853  28.498   2.786
36128W        W97417   1.364  14.105  11.066
36129W        W97418   7.214  34.016  13.896
36130W        W97419  38.456  18.664  12.370
36131W        W97420   6.836   5.425  11.869
36132W        W97421  36.055  33.108  11.040
36133W        W97422  15.249  26.952   4.664
36134W        W97423  33.908  34.992   3.190
36135W        W97424  15.791  43.406   2.793
36136W        W97425  44.419  11.656  11.033
36137W        W97426   4.931  29.171  14.780
36138W        W97427  10.258  35.879  11.111
36139W        W97428  10.283  22.064  10.994
36140W        W97429  15.127  41.886   4.296
36141W        W97430   9.723   9.201  12.371
36142W        W97431  18.178  23.724   4.832
36143W        W97432  23.661  16.247   3.365
36144W        W97433  35.003  17.571  14.829
36145W        W97434  33.474  31.629   2.248
36146W        W97435  15.128  19.741  12.446
36147W        W97436   3.743  19.712  12.924
36148W        W97437   8.874  18.182  12.047
36149W        W97438  13.339   6.295  12.558
36150W        W97439   5.323  44.813   3.356
36151W        W97440   1.307  22.692  13.543
36152W        W97441  15.238   0.288  13.500
36153W        W97442  30.992  26.459   2.663
36154W        W97443  22.549   0.830   2.728
36155W        W97444   7.900  38.978   0.887
36156W        W97445  19.682  28.946  10.556
36157W        W97446  36.845  42.820  10.460
36158W        W97447  35.600   6.860  10.907
36159W        W97448  28.472   9.318  14.981
36160W        W97449   9.159   7.279   1.372
36161W        W97450  25.491  16.175  13.425
36162W        W97451  41.835  43.409  11.026
36163W        W97452  41.811  16.182   4.218
36164W        W97453  23.185  42.017   2.365
36165W        W97454  37.049  21.672  12.997
36166W        W97455  26.517  19.725  11.405
36167W        W97456  40.872  37.525   0.376
36168W        W97457  36.050  12.234  10.546
36169W        W97458  14.333  10.834  12.927
36170W        W97459   4.265  24.614  13.001
36171W        W97460  28.040  43.436  10.155
36172W        W97461  31.569  15.151  14.312
36173W        W97462  10.667  34.891  12.354
36174W        W97463  12.813  11.790  11.448
36175W        W97464   3.827  20.541  11.596
36176W        W97465  42.328  42.909  10.629
36177W        W97466  13.267   5.855   4.709
36178W        W97467   5.709  13.183   1.804
36179W        W97468  18.105  17.156  13.450
36180W        W97469  38.556  43.790   3.845
36181W        W97470  21.086  27.447   4.279
36182W        W97471  40.906  24.077   1.864
36183W        W97472  33.949   8.393  10.989
36184W        W97473   1.474   2.928  13.881
36185W        W97474  37.372  42.920   4.648
36186W        W97475  17.278  41.335   9.941
36187W        W97476  23.228  28.120  10.514
36188W        W97477  35.028   6.721  10.595
36189W        W97478  40.544  20.076  14.967
36190W        W97479  19.049   6.769   0.771
36191W        W97480  41.456   3.239   3.850
36192W        W97481  26.103   6.894   2.869
36193W        W97482   1.376  17.716  11.562
36194W        W97483  37.948  40.353   2.698
36195W        W97484  24.583  43.783  10.624
36196W        W97485  40.476  30.995  14.923
36197W        W97486  17.247  42.334   1.436
36198W        W97487  25.603  34.886   1.382
36199W        W97488   6.236  21.173  13.936
36200W        W97489   0.902  15.621   2.389
36201W        W97490  28.025  40.004  11.526
36202W        W97491  30.514   6.393  13.850
36203W        W97492  34.516  16.210   3.151
36204W        W97493  16.296  16.176   1.787
36205W        W97494  25.126  43.291  12.057
36206W        W97495  14.244   2.768   4.294
36207W        W97496  19.605  26.162  13.020
36208W        W97497  32.077  17.280   3.193
36209W        W97498  27.661  19.635  10.902
36210W        W97499  19.177  20.719  13.378
36211W        W97500  10.169  36.877  13.002
36212W        W97501  20.121  19.207  14.476
36213W        W97502  33.049   5.329  12.349
36214W        W97503  16.080   3.945  11.474
36215W        W97504  16.600  25.091   3.270
36216W        W97505   6.246  39.865   4.253
36217W        W97506   0.297  42.989   2.381
36218W        W97507  16.307   6.280  12.914
36219W        W97508   7.670  35.388  12.435
36220W        W97509  25.605  36.526   4.827
36221W        W97510  11.731  38.963  14.795
36222W        W97511  38.026  15.776   3.162
36223W        W97512  23.591  39.952   0.911
36224W        W97513  27.597   1.738  11.920
36225W        W97514  21.101  29.051   2.207
36226W        W97515  20.724  18.744   2.746
36227W        W97516  41.808   4.733  11.539
36228W        W97517  31.901  10.831  12.476
36229W        W97518   5.713  15.309   2.196
36230W        W97519  10.170  16.737   1.417
36231W        W97520   7.857   0.939   3.368
36232W        W97521  27.622   8.744  14.467
36233W        W97522  29.444  36.366  12.917
36234W        W97523   4.414  32.534   3.256
36235W        W97524  17.295  10.851  13.380
36236W        W97525  43.867   6.186   1.804
36237W        W97526  42.520  28.638   4.710
36238W        W97527  16.800  32.623  10.930
36239W        W97528  35.487   1.830   4.156
36240W        W97529  22.551  44.937  13.310
36241W        W97530   6.683  40.419   3.736
36242W        W97531   3.722  24.502  11.504
36243W        W97532  10.861  39.482   2.373
36244W        W97533   5.924  11.132  12.074
36245W        W97534  23.119  22.519  14.007
36246W        W97535   2.862  25.601  13.505
36247W        W97536  16.170   3.894   4.697
36248W        W97537  10.728  43.858  13.316
36249W        W97538   5.917   7.383  14.335
36250W        W97539  37.510  35.093   2.774
36251W        W97540  32.931  40.882   4.820
36252W        W97541  29.604  29.656  14.980
36253W        W97542  22.513  19.543  11.549
36254W        W97543  34.956  29.649  13.002
36255W        W97544   7.391  27.530   2.411
36256W        W97545  19.704  28.160   3.232
36257W        W97546  38.991  10.178   1.876
36258W        W97547  34.403   8.766  11.032
36259W        W97548  20.527  16.572  11.598
36260W        W97549  15.323  32.977   2.784
36261W        W97550  40.045  26.112  14.907
36262W        W97551  18.159  35.076  10.973
36263W        W97552  14.593   7.680   1.335
36264W        W97553  33.020  44.854   0.346
36265W        W97554   5.883  31.087   4.792
36266W        W97555  15.318  26.677   2.824
36267W        W97556  18.179  42.824   2.683
36268W        W97557  20.144  44.953  13.911
36269W        W97558  39.545   1.935   2.743
36270W        W97559  18.274  36.851  11.587
36271W        W97560  15.723   4.423   2.218
36272W        W97561  14.825  26.020  11.604
36273W        W97562  18.659  21.539  14.491
36274W        W97563  21.578   7.370   4.229
36275W        W97564  37.921   2.285   0.751
36276W        W97565  37.038  24.982   0.733
36277W        W97566  34.484   9.208   2.370
36278W        W97567  35.478   6.800  10.406
36279W        W97568  20.247   5.923   1.423
36280W        W97569  24.014  27.685   2.845
36281W        W97570  11.163  44.843   1.431
36282W        W97571  32.610  42.418  13.929
36283W        W97572   3.848  19.766  12.341
36284W        W97573  24.157  34.495  10.589
36285W        W97574   8.714  27.955  10.974
36286W        W97575  33.590   0.403   0.875
36287W        W97576  11.856  18.756  14.955
36288W        W97577  42.365  19.180  14.299
36289W        W97578   1.838  16.248   3.380
36290W        W97579  42.012  29.652   3.726
36291W        W97580   5.416   0.438  12.568
36292W        W97581  43.415  10.670   1.420
36293W        W97582  20.633  29.517  11.032
36294W        W97583  36.899  34.584  13.931
36295W        W97584  10.298  32.087  13.865
36296W        W97585   6.828  40.908  11.993
36297W        W97586  25.687  43.484  12.517
36298W        W97587  29.594  24.720   1.399
36299W        W97588  41.363  22.228  11.573
36300W        W97589  15.234  26.073  14.845
36301W        W97590  30.654  21.240  11.986
36302W        W97591  42.931   9.659   0.875
36303W        W97592  12.348  37.504   4.813
36304W        W97593  33.030  21.061  14.339
36305W        W97594   1.746   4.838  13.914
36306W        W97595  42.896  24.598  10.946
36307W        W97596  35.873   7.765   4.751
36308W        W97597  29.621  21.050   3.209
36309W        W97598  25.648  28.471  12.444
36310W        W97599  25.658   0.357  10.584
36311W        W97600   6.903  12.187   4.344
36312W        W97601  35.508  42.844  12.947
36313W        W97602  29.159  21.239  11.098
36314W        W97603   6.706  26.604  14.449
36315W        W97604   9.834  37.401  14.480
36316W        W97605  36.878  30.447  14.879
36317W        W97606  41.846  36.405   2.379
36318W        W97607  42.833  36.502  12.543
36319W        W97608  42.883   5.383  11.471
36320W        W97609  33.481  25.181   2.212
36321W        W97610  36.952  26.027   0.738
36322W        W97611   4.912   4.699  12.355
36323W        W97612  37.910  42.872  14.456
36324W        W97613  20.207   3.339   0.325
36325W        W97614   9.362  34.437   2.403
36326W        W97615  26.504  31.005   5.292
36327W        W97616  23.215  17.158  14.391
36328W        W97617  41.025  24.532  10.954
36329W        W97618   2.407   9.153  11.590
36330W        W97619  23.991  41.793   0.245
36331W        W97620  43.765  22.135  12.921
36332W        W97621  26.061  43.366  13.416
36333W        W97622  41.302  44.830   4.775
36334W        W97623  15.099  37.505   4.831
36335W        W97624  38.833  33.980   0.828
36336W        W97625  12.768  28.496  13.794
36337W        W97626  30.445   7.796  14.496
36338W        W97627   6.302  35.893   0.297
36339W        W97628   7.735  25.196   2.724
36340W        W97629   7.291  32.890  10.410
36341W        W97630  40.963  23.051   1.891
36342W        W97631  34.597   0.467   4.808
36343W        W97632   6.249  39.515  12.370
36344W        W97633   5.323   2.849  14.423
36345W        W97634  25.598  20.713   0.453
36346W        W97635  22.101  32.418   1.349
36347W        W97636  18.193  37.421  12.396
36348W        W97637  16.756  20.565   1.248
36349W        W97638  44.897  28.661  11.581
36350W        W97639  27.484   7.776   9.469
36351W        W97640  12.729   5.369   0.747
36352W        W97641  17.789  27.099  13.934
36353W        W97642   0.944  26.675  12.034
36354W        W97643   5.360   2.331   3.747
36355W        W97644  30.103   2.848   0.958
36356W        W97645  23.571  18.618  12.566
36357W        W97646  26.592   7.403   3.183
36358W        W97647  19.554  21.635   2.387
36359W        W97648  33.071  11.176   1.885
36360W        W97649  29.922  35.091   0.938
36361W        W97650   3.890  44.423  10.553
36362W        W97651   3.428  18.108  13.494
36363W        W97652   0.929  22.708  11.047
36364W        W97653  40.491  14.691   3.696
36365W        W97654  19.678   7.682   0.294
36366W        W97655  36.994  32.955   4.338
36367W        W97656  36.451  17.663  14.853
36368W        W97657   4.262  39.505  13.437
36369W        W97658  27.072  22.175   1.843
36370W        W97659   4.315  25.629  11.585
36371W        W97660  41.836  34.977   0.837
36372W        W97661  21.593  32.548  13.453
36373W        W97662  16.161   8.365  11.593
36374W        W97663  33.509  10.166   2.679
36375W        W97664  23.583  43.495   0.866
36376W        W97665  28.187  14.705   5.247
36377W        W97666  39.971  20.260  10.084
36378W        W97667   1.735  10.818  11.015
36379W        W97668  42.894  12.362   0.379
36380W        W97669   1.428  42.000   2.719
36381W        W97670   9.810   8.682  13.421
36382W        W97671  33.032  25.560  13.959
36383W        W97672   6.334  29.943   0.859
36384W        W97673   2.352  16.698  10.440
36385W        W97674  31.977   5.864  12.351
36386W        W97675  18.698  37.406  13.490
36387W        W97676   6.307  24.492   4.259
36388W        W97677  39.918  11.830   4.246
36389W        W97678  43.905  17.197  13.954
36390W        W97679  10.878  38.049  14.319
36391W        W97680  15.665  22.720   1.706
36392W        W97681   9.356   7.884   4.682
36393W        W97682  23.605  32.635  12.409
36394W        W97683  20.154  29.590  13.862
36395W        W97684  14.172   7.714   3.240
36396W        W97685  40.968  10.863   3.368
36397W        W97686  26.039  37.366  13.971
36398W        W97687   5.910  34.424  14.834
36399W        W97688  22.665  36.574  10.502
36400W        W97689  40.928  39.010  13.825
36401W        W97690   9.733  23.659   3.154
36402W        W97691   0.396  24.536   3.195
36403W        W97692  22.152  31.421  10.440
36404W        W97693   3.319  19.162   3.284
36405W        W97694  40.313  43.349  13.986
36406W        W97695  39.864  44.799   1.836
36407W        W97696  12.749  20.584  12.424
36408W        W97697  23.681  17.686   1.254
36409W        W97698  43.964  32.391  12.369
36410W        W97699  11.669  15.310   4.655
36411W        W97700   8.355  39.484  11.563
36412W        W97701  41.488   4.867  10.601
36413W        W97702   5.430  42.845  12.039
36414W        W97703  16.250  15.266   3.699
36415W        W97704  22.680  10.335  13.369
36416W        W97705   4.838  18.113  11.023
36417W        W97706  16.266  19.073   3.223
36418W        W97707  34.424  40.461  11.043
36419W        W97708  28.671  32.529  13.992
36420W        W97709   7.304   9.764   2.294
36421W        W97710  30.535   8.874  12.088
36422W        W97711   8.350  26.663   0.848
36423W        W97712  23.512  34.519  14.330
36424W        W97713   4.306  41.803   4.173
36425W        W97714  24.092  31.098   1.328
36426W        W97715  28.552  12.663   3.797
36427W        W97716  35.857  12.731   3.630
36428W        W97717  15.168  36.521  14.494
36429W        W97718  26.009  11.212   3.216
36430W        W97719  41.431   9.278   2.282
36431W        W97720  17.693  39.401   4.202
36432W        W97721   6.701  44.008  11.577
36433W        W97722   9.849  17.638  10.426
36434W        W97723  43.852  37.939  13.023
36435W        W97724  15.613  31.933  10.445
36436W        W97725  15.602   0.280   2.768
36437W        W97726  39.831   0.925   1.713
36438W        W97727  23.235  41.405  10.451
36439W        W97728   4.214  41.471   3.802
36440W        W97729   9.153  29.004   4.818
36441W        W97730   2.267  12.668  13.919
36442W        W97731   9.715  37.958   1.719
36443W        W97732  36.525  24.054   1.716
36444W        W97733  13.336   0.914  14.467
36445W        W97734   5.723  39.883  12.577
36446W        W97735   6.366   8.695   0.399
36447W        W97736  13.726  18.686   2.850
36448W        W97737   4.710  26.188   3.197
36449W        W97738  19.231   2.943  11.092
36450W        W97739  42.824  44.372   4.286
36451W        W97740   3.846  41.853  11.984
36452W        W97741   8.757  13.699   4.674
36453W        W97742   6.700  14.209   2.189
36454W        W97743  21.601   8.865  11.953
36455W        W97744  15.132  11.228  13.975
36456W        W97745  38.030  39.540   2.708
36457W        W97746  16.784   4.280  11.021
36458W        W97747   8.664  41.950   4.765
36459W        W97748  38.363  14.144   1.796
36460W        W97749  43.956  30.446   4.599
36461W        W97750  13.696  13.828  12.569
36462W        W97751  32.535  29.041   2.314
36463W        W97752  39.877   8.248   2.784
36464W        W97753  32.590  31.505  11.102
36465W        W97754  23.180  19.775   1.921
36466W        W97755  34.110  10.849   4.818
36467W        W97756   8.391  10.861  13.892
36468W        W97757   7.862  43.281   2.787
36469W        W97758  32.140  20.737   0.788
36470W        W97759  18.591  29.504  14.007
36471W        W97760   7.899  41.537   2.814
36472W        W97761  42.424  12.745   4.812
36473W        W97762  23.663   0.823   3.713
36474W        W97763   1.744  27.568  12.480
36475W        W97764  19.048  32.460  14.456
36476W        W97765  19.240   4.374   0.834
36477W        W97766  40.825  21.548  13.931
36478W        W97767   7.726  16.585  11.527
36479W        W97768  43.312  27.044   0.868
36480W        W97769   0.962  38.994   5.110
36481W        W97770  19.605  40.419  11.043
36482W        W97771   2.438   1.828   4.341
36483W        W97772  18.703  27.514   4.830
36484W        W97773  19.733   3.912  13.441
36485W        W97774   3.262  18.564  14.764
36486W        W97775  18.760  36.082   2.900
36487W        W97776  42.310  33.910  11.004
36488W        W97777  10.215  10.197   2.784
36489W        W97778  22.613   1.907  11.469
36490W        W97779  26.513  28.578   4.222
36491W        W97780  35.853  21.598  11.521
36492W        W97781  35.422  10.704   4.315
36493W        W97782  29.627  20.193   2.673
36494W        W97783  32.968  27.131  13.356
36495W        W97784  16.779  39.474   1.858
36496W        W97785   4.332  36.008   2.674
36497W        W97786  42.449  19.154  10.545
36498W        W97787  25.619   7.189   4.680
36499W        W97788  36.945  35.901   3.249
36500W        W97789  34.963  27.174  14.902
36501W        W97790  35.868  10.855  14.854
36502W        W97791  44.336  17.645   2.192
36503W        W97792  31.613  27.004   2.383
36504W        W97793  37.536  24.129   2.214
36505W        W97794  14.126  31.591  11.037
36506W        W97795  26.135  23.678   2.666
36507W        W97796  44.929  29.620  13.912
36508W        W97797  14.821  34.498   9.965
36509W        W97798   3.896  18.756   1.932
36510W        W97799  15.805   4.249  14.490
36511W        W97800   2.346   2.814  11.026
36512W        W97801  42.796  14.799   4.679
36513W        W97802  14.633  41.430  13.963
36514W        W97803  40.037  21.704   3.149
36515W        W97804   2.826  40.874   1.356
36516W        W97805   6.414  16.303  13.482
36517W        W97806  17.225  34.904   0.952
36518W        W97807   8.282  26.629  12.962
36519W        W97808  27.118  43.485  13.046
36520W        W97809  22.206  29.550  11.079
36521W        W97810  12.341   9.696  12.883
36522W        W97811  37.942  33.572  13.512
36523W        W97812  12.718  13.295   2.272
36524W        W97813  12.756  24.025   0.404
36525W        W97814   0.862  34.458   1.838
36526W        W97815  28.659  34.000   0.316
36527W        W97816  37.074  21.695  12.093
36528W        W97817   6.266  13.346   4.718
36529W        W97818  23.216   6.763   4.639
36530W        W97819  43.012   5.200   0.305
36531W        W97820   5.703   8.817  11.392
36532W        W97821  32.517  16.300   4.701
36533W        W97822   9.826  20.651   3.176
36534W        W97823  27.672  13.111   0.391
36535W        W97824  31.897  20.206   2.701
36536W        W97825  44.881  33.085  11.979
36537W        W97826   4.386  33.586   1.309
36538W        W97827   7.843  43.955  13.433
36539W        W97828  27.195  35.392  12.015
36540W        W97829  10.658  25.515  10.963
36541W        W97830  40.307  36.920  12.907
36542W        W97831  26.616   0.885   1.722
36543W        W97832  18.211  38.352   0.757
36544W        W97833  33.935  20.607  13.435
36545W        W97834  27.556  10.200   3.632
36546W        W97835  15.676  37.985  12.511
36547W        W97836  30.989  11.780   3.708
36548W        W97837  18.746  27.075  11.926
36549W        W97838  11.718  28.992  11.418
36550W        W97839  21.146  17.654   3.349
36551W        W97840  18.100  13.108  10.413
36552W        W97841  17.269  33.381   4.159
36553W        W97842  32.076  42.917  10.522
36554W        W97843  39.955   1.376   2.296
36555W        W97844   6.366  33.381   4.143
36556W        W97845  10.675  12.285   2.196
36557W        W97846  41.912  34.446  14.882
36558W        W97847  24.616   7.869   0.897
36559W        W97848  12.287   7.321   4.348
36560W        W97849  23.650   7.812  11.034
36561W        W97850  25.478   8.351  10.607
36562W        W97851  33.069  38.500   3.820
36563W        W97852  41.809  31.515   2.793
36564W        W97853   9.322  29.426  10.507
36565W        W97854  29.029  33.574   2.234
36566W        W97855  23.528  34.913   1.243
36567W        W97856  32.462  35.927   4.660
36568W        W97857  32.937  42.484  13.975
36569W        W97858  17.655   0.862  14.408
36570W        W97859  29.155  37.983  14.487
36571W        W97860  10.787   6.319  12.407
36572W        W97861  37.041  20.203   2.775
36573W        W97862  24.012   2.442  14.952
36574W        W97863  20.570  44.969   3.326
36575W        W97864  33.604  41.468  13.845
36576W        W97865   5.437   5.753   0.351
36577W        W97866  26.142  22.729  10.061
36578W        W97867  27.192  24.082   4.681
36579W        W97868  29.492   0.961  13.310
36580W        W97869  19.063  16.770  14.286
36581W        W97870  40.414  19.206  11.473
36582W        W97871   2.403  18.666   2.227
36583W        W97872  26.976  12.212  11.497
36584W        W97873  40.455  28.621  10.643
36585W        W97874  25.043  11.188  10.476
36586W        W97875  11.640   4.774  10.911
36587W        W97876  19.587  14.667  14.788
36588W        W97877  25.968  20.705  11.023
36589W        W97878  39.346  13.826   1.782
36590W        W97879  14.246  28.008  11.965
36591W        W97880  12.269  23.679  12.971
36592W        W97881  39.825  17.122  12.923
36593W        W97882  22.238  36.571   4.670
36594W        W97883   7.774  27.544   2.782
36595W        W97884  21.744   1.420   2.355
36596W        W97885   0.766   9.793   5.224
36597W        W97886  43.285  33.609  11.541
36598W        W97887  42.996  31.115  13.942
36599W        W97888  17.202  43.892  10.561
36600W        W97889  44.469   0.305   2.794
36601W        W97890  38.924  17.787  12.938
36602W        W97891  35.447  12.844  14.989
36603W        W97892  12.619  33.898   0.414
36604W        W97893  20.623  14.171   5.309
36605W        W97894   8.199  39.460   4.270
36606W        W97895  32.637  15.635  11.969
36607W        W97896  36.473  27.521  14.032
36608W        W97897  37.051  25.090  11.567
36609W        W97898  16.107  30.916   0.830
36610W        W97899   0.901   2.244  10.940
36611W        W97900  19.566   4.387  10.934
36612W        W97901   4.358  33.932   3.747
36613W        W97902   5.834  41.379   2.362
36614W        W97903  23.643  39.548  13.828
36615W        W97904  21.224   9.183  11.860
36616W        W97905  13.158   1.412   2.332
36617W        W97906  17.160  15.154   0.851
36618W        W97907  39.328  44.996  11.556
36619W        W97908  32.088  30.986  12.344
36620W        W97909   8.329  37.418   3.676
36621W        W97910   4.413   8.217   2.840
36622W        W97911  27.633   8.380  14.802
36623W        W97912  44.398   8.169  11.922
36624W        W97913  33.477  10.651   4.144
36625W        W97914   1.450  26.505   2.871
36626W        W97915  21.211  39.316   3.239
36627W        W97916  12.350   6.321  12.949
36628W        W97917  31.583  30.151  10.896
36629W        W97918   3.377  42.879  14.322
36630W        W97919  16.285  11.146  13.332
36631W        W97920  18.259  19.198  10.541
36632W        W97921  28.521  16.629  11.449
36633W        W97922  10.200  31.087   9.547
36634W        W97923  36.591  17.718  11.456
36635W        W97924  33.461   4.378   2.710
36636W        W97925   2.273   8.692   4.345
36637W        W97926  28.521  36.094   1.221
36638W        W97927  22.246   9.745   1.818
36639W        W97928  20.641   7.665  12.070
36640W        W97929  21.562  37.553   2.313
36641W        W97930  18.214  15.814  13.884
36642W        W97931  21.141  32.432  11.496
36643W        W97932  35.021  42.836   1.347
36644W        W97933  39.315   5.752   3.710
36645W        W97934  44.964  18.575   1.447
36646W        W97935   0.445  33.012  14.358
36647W        W97936   3.267   6.400   1.345
36648W        W97937  17.159  26.109   2.368
36649W        W97938  18.121  25.679  11.421
36650W        W97939   5.252  36.414   3.662
36651W        W97940   2.465  41.981   4.303
36652W        W97941   4.240  38.409   4.636
36653W        W97942  37.420  24.209   1.338
36654W        W97943  41.828  39.006   2.784
36655W        W97944  17.709  34.582   1.361
36656W        W97945  44.818  28.442  12.471
36657W        W97946   0.956  32.105   1.367
36658W        W97947   9.339  43.900  12.361
36659W        W97948  22.184  32.015   3.853
36660W        W97949  21.711  15.177   2.407
36661W        W97950  10.285  43.783   0.473
36662W        W97951  34.976  12.670   4.283
36663W        W97952  36.529  29.573  11.495
36664W        W97953  27.117  38.484   2.827
36665W        W97954  11.343  30.054  14.483
36666W        W97955  44.503  30.598   4.336
36667W        W97956  25.167  27.061   3.149
36668W        W97957   2.336  15.284  13.451
36669W        W97958   7.793  41.300  10.567
36670W        W97959  19.044   4.822   1.735
36671W        W97960   6.351  22.118   2.710
36672W        W97961  29.587  33.476  11.029
36673W        W97962  16.142  28.592   3.655
36674W        W97963  23.191  34.085   2.305
36675W        W97964   7.401  37.942  14.006
36676W        W97965  25.148  25.622   1.283
36677W        W97966  23.550  35.979  13.532
36678W        W97967  10.334  23.528   3.344
36679W        W97968  27.668  16.663   2.355
36680W        W97969   4.258  13.201  10.508
36681W        W97970  29.967  37.926   0.934
36682W        W97971  31.570  18.682   2.405
36683W        W97972  40.032   4.327  13.516
36684W        W97973  25.096  11.635   2.713
36685W        W97974  28.097   4.882   3.809
36686W        W97975  32.598  31.946   4.805
36687W        W97976  15.142   8.692   2.745
36688W        W97977  34.036  42.836   2.276
36689W        W97978   0.331  41.460   1.327
36690W        W97979   1.457  28.596   2.237
36691W        W97980  33.553  12.242   1.425
36692W        W97981  13.764  16.096  14.403
36693W        W97982  22.234  25.632  12.490
36694W        W97983  28.519  16.570  14.459
36695W        W97984   7.337  40.384  10.467
36696W        W97985  37.052  28.958  11.110
36697W        W97986  12.162  29.107  13.850
36698W        W97987   4.402  35.437  12.363
36699W        W97988   7.176  43.813  11.021
36700W        W97989   5.419  34.400   2.227
36701W        W97990  15.731  20.203   0.286
36702W        W97991  30.054  17.767   1.805
36703W        W97992   6.376  14.798  11.470
36704W        W97993  43.449   6.278   9.956
36705W        W97994   0.854  38.071  13.878
36706W        W97995  25.146  39.831  13.836
36707W        W97996  38.959  23.555  14.494
36708W        W97997   9.226  25.684  13.442
36709W        W97998  35.912  38.025   4.771
36710W        W97999  22.218  24.184  13.948
36711W        W98000  24.670  38.922  11.115
36712W        W98001  34.581  37.367  11.005
36713W        W98002  10.200   9.284   3.343
36714W        W98003  22.078  19.040   0.892
36715W        W98004  36.980  42.025   1.299
36716W        W98005  18.225   4.921  10.603
36717W        W98006  32.053  28.070  12.041
36718W        W98007  29.565  32.435   3.692
36719W        W98008  11.780  17.161   2.202
36720W        W98009  24.052  36.528   2.313
36721W        W98010  21.623  23.063   4.785
36722W        W98011  31.596  10.165   2.686
36723W        W98012  19.668  42.496  11.887
36724W        W98013  24.008  10.179  13.364
36725W        W98014  38.445  29.962   0.838
36726W        W98015  12.163  12.725  12.893
36727W        W98016   1.387  25.051  12.004
36728W        W98017  25.653  14.632   1.237
36729W        W98018  21.568  35.401  11.003
36730W        W98019  19.758  38.363   1.759
36731W        W98020  37.851   2.303  13.980
36732W        W98021  31.923  11.737   1.773
36733W        W98022   2.460  41.429  10.970
36734W        W98023  16.146  42.432   4.220
36735W        W98024  21.694  13.760   4.690
36736W        W98025  28.528  16.726   3.273
36737W        W98026  10.251   0.275  11.868
36738W        W98027  29.553   1.405   3.696
36739W        W98028  10.331  18.296   1.365
36740W        W98029  38.566  40.412  11.443
36741W        W98030  13.663  20.667   3.744
36742W        W98031   1.754   7.893  13.990
36743W        W98032  31.608   7.830  13.499
36744W        W98033  42.777  40.934  11.007
36745W        W98034  37.394  41.426   1.698
36746W        W98035  31.438  30.577   2.846
36747W        W98036  17.177  32.950  14.758
36748W        W98037  21.622   9.163   1.324
36749W        W98038  30.605  16.672   1.697
36750W        W98039   8.733  34.111   0.787
36751W        W98040  40.039  16.217   3.847
36752W        W98041   7.296   6.868   2.234
36753W        W98042  39.990  16.791  14.510
36754W        W98043  32.068  42.804  10.034
36755W        W98044  36.585  41.447   5.296
36756W        W98045   1.840  36.991   1.694
36757W        W98046  19.621   6.877  10.425
36758W        W98047  27.456  26.026  13.489
36759W        W98048   6.853  16.125  13.899
36760W        W98049   7.894  14.781  13.873
36761W        W98050   3.403  10.708  11.101
36762W        W98051  11.344  21.631   4.240
36763W        W98052  31.918  12.727   4.760
36764W        W98053  39.364   3.454   0.341
36765W        W98054  10.820  35.382  12.389
36766W        W98055  34.879   2.780  11.115
36767W        W98056  14.187  12.833  11.961
36768W        W98057   2.760   6.304   2.848
36769W        W98058  10.838  43.385  10.622
36770W        W98059   7.772  19.134   0.404
36771W        W98060  20.257   0.862   0.337
36772W        W98061  33.476  42.018  14.515
36773W        W98062  12.673  39.058   0.301
36774W        W98063  34.567  44.864   2.362
36775W        W98064  13.694  41.793   0.427
36776W        W98065  37.007  42.383  12.453
36777W        W98066  10.146  32.942   2.701
36778W        W98067  28.659  10.771   3.277
36779W        W98068  42.438  20.708   1.842
36780W        W98069   5.334   0.942   0.364
36781W        W98070   2.450  15.605  14.809
36782W        W98071  27.188  17.211   4.721
36783W        W98072  22.038   2.368  12.939
36784W        W98073  41.927  39.064  11.997
36785W        W98074  24.518  37.052   3.809
36786W        W98075   5.305   8.678   3.373
36787W        W98076  30.466  27.464  11.857
36788W        W98077  32.113  10.836   0.371
36789W        W98078  38.965  35.080  11.878
36790W        W98079   0.803  40.883  10.598
36791W        W98080  25.491  12.268   4.635
36792W        W98081  18.137  37.424   3.218
36793W        W98082  41.471   4.423  13.322
36794W        W98083  23.596  19.684   0.792
36795W        W98084   9.783  18.561  14.439
36796W        W98085  31.993  11.251  14.467
36797W        W98086   7.204  25.199  10.442
36798W        W98087   8.828  42.928  11.963
36799W        W98088  28.014  30.494   9.935
36800W        W98089  18.274  14.829  12.470
36801W        W98090  36.891  24.543   3.700
36802W        W98091  10.290  42.799   0.436
36803W        W98092  12.615   1.452  12.355
36804W        W98093   7.905  37.533  11.123
36805W        W98094  38.847  37.867  12.455
36806W        W98095  37.442  16.156  14.510
36807W        W98096  38.847   6.291   1.364
36808W        W98097   5.362  28.956  11.436
36809W        W98098  19.552   8.363   1.330
36810W        W98099  27.031  25.637  13.015
36811W        W98100  19.254  40.439   1.817
36812W        W98101   4.307  34.996   4.697
36813W        W98102  38.951  30.145   0.848
36814W        W98103  31.026  15.578  12.533
36815W        W98104  35.587  25.080   4.700
36816W        W98105  34.084   2.910  12.533
36817W        W98106  39.345  34.393  10.596
36818W        W98107  16.687  36.498  12.095
36819W        W98108   4.249   6.773   4.633
36820W        W98109  11.194  10.787  12.439
36821W        W98110  18.582   1.785  12.937
36822W        W98111   9.715  34.522   1.877
36823W        W98112  26.023  13.187   0.462
36824W        W98113   8.275  40.990  14.959
36825W        W98114  43.942  31.121  14.786
36826W        W98115  44.767   8.189  13.490
36827W        W98116  11.320  15.264  13.478
36828W        W98117  10.242  36.482  14.403
36829W        W98118   9.261  11.777  11.932
36830W        W98119  28.551  13.748   1.717
36831W        W98120  18.675   3.848   0.272
36832W        W98121  36.467  27.665  14.284
36833W        W98122  29.518  23.030  12.957
36834W        W98123  39.817   8.332  12.467
36835W        W98124   2.936  33.039  11.611
36836W        W98125  11.650   7.343   1.345
36837W        W98126  18.154  21.230  14.318
36838W        W98127  37.521  31.637  12.049
36839W        W98128   3.434   7.771   0.914
36840W        W98129  20.270  11.266   4.223
36841W        W98130   8.886   2.777  13.388
36842W        W98131   4.254  40.502  13.319
36843W        W98132  30.496  32.090  10.466
36844W        W98133  36.451  31.952  11.425
36845W        W98134   4.399  35.555  14.452
36846W        W98135   9.857  29.557   4.680
36847W        W98136  28.122  24.193  12.969
36848W        W98137   3.911  12.632   2.388
36849W        W98138  10.175   9.169   1.337
36850W        W98139  12.831  25.173  13.872
36851W        W98140  36.011  40.434   3.191
36852W        W98141   6.297   7.350   4.692
36853W        W98142   2.291  11.741  11.452
36854W        W98143  30.419  23.164  11.602
36855W        W98144  42.394   2.405  12.041
36856W        W98145  29.620   3.941   2.230
36857W        W98146   1.732   9.725  13.382
36858W        W98147  12.238  44.355  14.785
36859W        W98148  32.598  38.478  13.486
36860W        W98149  30.525  14.737  10.457
36861W        W98150  19.578  37.055   1.833
36862W        W98151  26.516  34.097   3.703
36863W        W98152  11.189   2.842   3.350
36864W        W98153  13.298  10.787   4.818
36865W        W98154  18.295  23.547   1.305
36866W        W98155  39.407   8.892   1.398
36867W        W98156   2.319  34.403   4.722
36868W        W98157  18.204  19.159  12.971
36869W        W98158  34.876  28.518   1.887
36870W        W98159  41.948  34.067  13.319
36871W        W98160  36.479  31.139   3.197
36872W        W98161  19.757  19.141  13.406
36873W        W98162  28.548  10.752  11.004
36874W        W98163  18.262   5.356  12.469
36875W        W98164  17.118  10.667   1.233
36876W        W98165  20.768  38.981  11.936
36877W        W98166  40.483  24.487   3.828
36878W        W98167  21.637   1.912  12.529
36879W        W98168  20.032  33.131   2.886
36880W        W98169  16.271  14.127  11.989
36881W        W98170  35.470  22.106   4.296
36882W        W98171   6.917  21.224  13.930
36883W        W98172  38.001  27.658   4.741
36884W        W98173  41.940  14.112   2.787
36885W        W98174  42.020  19.048  13.846
36886W        W98175  40.330  39.897  14.833
36887W        W98176   2.899  20.048   2.665
36888W        W98177  44.328  19.643   9.985
36889W        W98178   3.754  16.225  14.444
36890W        W98179  15.809  11.155  10.957
36891W        W98180  14.253  23.604  10.888
36892W        W98181  39.361  26.153   2.858
36893W        W98182  22.035   3.839   0.825
36894W        W98183  31.501  40.973  11.507
36895W        W98184  22.023   8.752   4.239
36896W        W98185  24.586  19.662   0.265
36897W        W98186   0.317  38.056   0.337
36898W        W98187  36.880   8.174  11.412
36899W        W98188  40.899  12.172  12.552
36900W        W98189  12.198   0.250  13.918
36901W        W98190  23.563   9.802  13.057
36902W        W98191   0.821   6.278   2.777
36903W        W98192  12.250  20.153   0.768
36904W        W98193  31.456  18.184  11.091
36905W        W98194  44.981  36.934  10.912
36906W        W98195  33.908   7.194  10.924
36907W        W98196   3.352  20.033  13.470
36908W        W98197  29.007  40.018  14.925
36909W        W98198  26.651   0.336  11.561
36910W        W98199  41.913  17.642  14.917
36911W        W98200   8.749  15.820   4.152
36912W        W98201   5.701  23.220  10.091
36913W        W98202  15.235  30.064  10.551
36914W        W98203  37.457  43.457   3.213
36915W        W98204  40.869  21.613   1.874
36916W        W98205  43.794  33.559   0.927
36917W        W98206  19.718  25.089   3.158
36918W        W98207  26.966  27.492   1.375
36919W        W98208  41.817  22.727   0.336
36920W        W98209   4.390   7.227  13.420
36921W        W98210  42.392  23.629  13.468
36922W        W98211  41.832  30.032  13.326
36923W        W98212  23.707  28.668  14.845
36924W        W98213  36.360  21.693  11.565
36925W        W98214  29.586  39.041   2.733
36926W        W98215   4.794   9.391   3.759
36927W        W98216  40.514  23.507   4.669
36928W        W98217  28.497  19.773   2.197
36929W        W98218  43.338  36.368  10.520
36930W        W98219   3.223  40.958   2.876
36931W        W98220  38.841  17.075   2.285
36932W        W98221  16.766  25.063  12.825
36933W        W98222  28.649  12.784  12.040
36934W        W98223  12.720  34.066  13.519
36935W        W98224   0.846   2.888  14.018
36936W        W98225  30.538  18.763   2.280
36937W        W98226  23.630  20.549  14.331
36938W        W98227   0.773   6.705  11.081
36939W        W98228  42.503  12.744   1.891
36940W        W98229  40.999   6.427  13.014
36941W        W98230  23.626  34.089  12.024
36942W        W98231  19.760   1.301   3.740
36943W        W98232  14.105   2.274   1.878
36944W        W98233  26.042  43.900  12.537
36945W        W98234  22.638   0.332   4.743
36946W        W98235  21.640  21.737   5.228
36947W        W98236  29.555  14.834  12.451
36948W        W98237  38.484   6.834  13.822
36949W        W98238  28.146  26.560   2.413
36950W        W98239  10.809  42.334   1.248
36951W        W98240  41.952  26.068   3.343
36952W        W98241  22.017  32.081  13.868
36953W        W98242  17.591  33.936   3.362
36954W        W98243  22.545  41.917   1.278
36955W        W98244  18.069  40.539   3.256
36956W        W98245   0.311  17.074  13.335
36957W        W98246  24.012  10.659   2.849
36958W        W98247  12.234  42.827   3.816
36959W        W98248  30.100   4.344   1.306
36960W        W98249  28.079  16.202  14.308
36961W        W98250  11.216  43.363   1.788
36962W        W98251   4.832  22.533  14.439
36963W        W98252  35.483  29.134   2.827
36964W        W98253  12.219  38.025   5.305
36965W        W98254   5.314  33.986   0.913
36966W        W98255  13.701  17.756   3.732
36967W        W98256  28.177  33.980  12.460
36968W        W98257   7.880  11.260  14.393
36969W        W98258  22.717   7.257  10.119
36970W        W98259  40.903  27.048   3.772
36971W        W98260   0.297  43.930  14.924
36972W        W98261  32.573  14.108  12.978
36973W        W98262  36.443  42.452  13.883
36974W        W98263  23.136  17.599  12.415
36975W        W98264  32.429   1.935   1.234
36976W        W98265  41.895  20.565   1.450
36977W        W98266  32.395  42.526  14.847
36978W        W98267  39.994   7.753  13.318
36979W        W98268  17.697  22.631   0.821
36980W        W98269  40.010   9.701  14.867
36981W        W98270  11.329  20.103  14.811
36982W        W98271  11.667  31.120  11.061
36983W        W98272   3.433  18.627   3.330
36984W        W98273  12.781  35.502   3.773
36985W        W98274  34.556   4.370  12.382
36986W        W98275  10.225  14.815   4.770
36987W        W98276  43.286  38.387   3.200
36988W        W98277  32.484   2.229   4.777
36989W        W98278  13.732  20.583  13.473
36990W        W98279  26.587  23.239   1.806
36991W        W98280   9.249  41.508  13.399
36992W        W98281  44.408  44.393  13.502
36993W        W98282   6.388  30.482  12.563
36994W        W98283  41.458  23.144   3.717
36995W        W98284  15.120  27.183   0.744
36996W        W98285  23.034   2.810  14.913
36997W        W98286  24.042  23.662   1.798
36998W        W98287  12.730  38.530  14.497
36999W        W98288  21.111  38.403  13.414
37000W        W98289   2.817  36.995  12.475
37001W        W98290  15.181  24.539   3.829
37002W        W98291  19.746  30.159  14.884
37003W        W98292  37.399  30.428   1.249
37004W        W98293  38.916  24.001   4.240
37005W        W98294  42.512  43.989   1.906
37006W        W98295  41.914  40.905  12.540
37007W        W98296  44.428  11.658  11.418
37008W        W98297  19.632   9.180  13.540
37009W        W98298  20.761   1.318  11.459
37010W        W98299   8.806   6.371  10.415
37011W        W98300  43.457   3.271   3.313
37012W        W98301  18.788  19.242  10.643
37013W        W98302  12.785  13.109   1.782
37014W        W98303  12.180  22.124  14.319
37015W        W98304  37.493  39.507   3.183
37016W        W98305  29.449  12.312  14.305
37017W        W98306  22.178  33.518  14.429
37018W        W98307  38.389  15.233   2.221
37019W        W98308  13.675  32.100  13.048
37020W        W98309  26.172  26.526   0.484
37021W        W98310  35.854  36.409  11.594
37022W        W98311   7.749  27.599  10.522
37023W        W98312  17.645  39.949   5.217
37024W        W98313  11.229  43.293   4.129
37025W        W98314  28.079  20.136  10.086
37026W        W98315  42.513   7.754   0.362
37027W        W98316  27.576  32.590   2.265
37028W        W98317  30.630  26.685  11.514
37029W        W98318  40.916   8.724  13.958
37030W        W98319  42.379  12.753   2.668
37031W        W98320  15.647  12.669  10.102
37032W        W98321  43.434   8.883  14.491
37033W        W98322  39.948   5.888  13.396
37034W        W98323  32.104  21.046  13.950
37035W        W98324  28.962   5.416   0.778
37036W        W98325  17.152  20.059  13.837
37037W        W98326  28.157   2.245  14.854
37038W        W98327  34.048  22.145  14.799
37039W        W98328  44.399  29.490  11.581
37040W        W98329  37.031   7.857   2.397
37041W        W98330  27.157  44.488   0.371
37042W        W98331  17.595  44.299   3.187
37043W        W98332  22.061   8.703   4.606
37044W        W98333  41.946  14.290  10.087
37045W        W98334  18.555  14.258   2.302
37046W        W98335   0.466  26.028  11.409
37047W        W98336  14.592   8.860  11.416
37048W        W98337  32.107   8.217   0.737
37049W        W98338  19.693  30.502   0.941
37050W        W98339  33.944   1.393   0.428
37051W        W98340  28.057  20.072  12.019
37052W        W98341  43.329  23.517   2.682
37053W        W98342  13.728  18.735   3.670
37054W        W98343  29.174  13.710   0.243
37055W        W98344  43.403  31.937  12.902
37056W        W98345  40.907   0.491   4.334
37057W        W98346   6.338  11.212  14.851
37058W        W98347  19.176  26.969  10.446
37059W        W98348  34.045  40.422  14.490
37060W        W98349   1.398  25.052  14.433
37061W        W98350   3.370  13.678  12.026
37062W        W98351   1.478  44.954   2.365
37063W        W98352   5.317   0.751   2.679
37064W        W98353  25.997  44.496   0.836
37065W        W98354  33.047  24.565  11.898
37066W        W98355  14.136  16.175   1.716
37067W        W98356  39.054  22.681   1.303
37068W        W98357  13.244   7.829  13.317
37069W        W98358  24.229  29.019   0.334
37070W        W98359  26.502   7.193  13.370
37071W        W98360  23.632   3.337   0.780
37072W        W98361  25.709  24.490   1.886
37073W        W98362  24.180  33.085  11.918
37074W        W98363  17.169   6.889  10.425
37075W        W98364  38.459   8.690   4.297
37076W        W98365  13.669  33.893   1.313
37077W        W98366  30.486  34.422   0.949
37078W        W98367  18.687  41.908   0.840
37079W        W98368  20.704   2.345   3.653
37080W        W98369  36.083   9.773  11.539
37081W        W98370  32.620  35.375   3.639
37082W        W98371  44.925  43.515  14.951
37083W        W98372   1.844  28.000   5.228
37084W        W98373  33.533  13.309   3.169
37085W        W98374  12.663  39.351  13.397
37086W        W98375  13.729  21.661   1.295
37087W        W98376  32.506   1.786  13.945
37088W        W98377   6.284  38.372   1.898
37089W        W98378  23.621   8.785   5.199
37090W        W98379  38.998  22.641   3.253
37091W        W98380   6.295   5.904   3.361
37092W        W98381  15.733   8.860  11.955
37093W        W98382  30.500  33.004   1.831
37094W        W98383  12.336   0.312   4.235
37095W        W98384   9.205  39.477   4.180
37096W        W98385  23.688  40.336   1.352
37097W        W98386  24.207   4.882  14.012
37098W        W98387  33.081  41.890   0.267
37099W        W98388  29.116  41.496  10.927
37100W        W98389  30.471   7.865   0.807
37101W        W98390  19.627  13.770   0.462
37102W        W98391  39.950  10.162   0.467
37103W        W98392  32.504  12.697  12.342
37104W        W98393  30.593  26.639   4.212
37105W        W98394  32.492  13.738   0.754
37106W        W98395  28.534  28.547  11.472
37107W        W98396  16.612  19.715  12.910
37108W        W98397   1.466  42.819   4.603
37109W        W98398   2.264  41.999  13.044
37110W        W98399  42.005  13.142  12.039
37111W        W98400  30.149  38.073  11.097
37112W        W98401  39.450  11.683   4.205
37113W        W98402  36.089  42.822  14.021
37114W        W98403  23.643  25.701   1.423
37115W        W98404  11.658  16.630  10.951
37116W        W98405   4.788  17.799   2.797
37117W        W98406  40.420  22.561   2.810
37118W        W98407  11.811  34.569   1.269
37119W        W98408  24.610  30.982  11.005
37120W        W98409  11.172  16.630  14.768
37121W        W98410  12.213  34.538  12.047
37122W        W98411  32.068   4.384  14.514
37123W        W98412  37.496  28.440  11.112
37124W        W98413  20.707  38.962   4.687
37125W        W98414  16.265  14.139   4.353
37126W        W98415  24.189  24.005   2.710
37127W        W98416   2.388  23.538  14.015
37128W        W98417  26.111  18.643  12.031
37129W        W98418  41.871  32.900  13.339
37130W        W98419  26.589  15.308  13.506
37131W        W98420  24.625  14.262   0.253
37132W        W98421  24.590  14.627  10.940
37133W        W98422  22.125   7.329   2.791
37134W        W98423  27.942  13.329   1.773
37135W        W98424   7.240  44.869  11.089
37136W        W98425  22.605  22.624  11.909
37137W        W98426  41.509  10.854   3.860
37138W        W98427   7.244  17.291  14.304
37139W        W98428  29.519  42.381   4.260
37140W        W98429  15.098  19.149   3.154
37141W        W98430  40.457  36.567  13.846
37142W        W98431   4.315   0.316  11.452
37143W        W98432   7.217  21.171   0.454
37144W        W98433  31.082  21.593  11.408
37145W        W98434   8.719  32.582  12.470
37146W        W98435  41.900  36.463   0.732
37147W        W98436  36.938  19.720   0.248
37148W        W98437  30.952  25.680   1.820
37149W        W98438   8.748  28.602  12.458
37150W        W98439  33.105  30.607   3.816
37151W        W98440  15.731  31.961  11.043
37152W        W98441   7.329  33.509  11.378
37153W        W98442  14.240  39.976  12.966
37154W        W98443  33.530  29.539   9.990
37155W        W98444  18.719   7.715   3.706
37156W        W98445  16.791  27.025  13.340
37157W        W98446  39.850  38.528   2.773
37158W        W98447  14.695  20.524  14.359
37159W        W98448   8.668   6.899   1.400
37160W        W98449  43.318  20.618   1.839
37161W        W98450   5.246   1.880  13.312
37162W        W98451  19.089  22.144  13.445
37163W        W98452  40.909  43.009  12.423
37164W        W98453  23.566   4.828  14.000
37165W        W98454  28.958  15.286  14.338
37166W        W98455  26.008   9.661   3.285
37167W        W98456   7.175   2.287   0.267
37168W        W98457  35.376   7.280   3.687
37169W        W98458  24.673  41.461   0.457
37170W        W98459  24.578   9.364   9.559
37171W        W98460   0.756  43.933   2.258
37172W        W98461  29.038  40.450  13.912
37173W        W98462   1.768  29.495   2.723
37174W        W98463  37.939  35.884  14.304
37175W        W98464   3.354  28.082  13.866
37176W        W98465  39.977  23.542  11.077
37177W        W98466   0.805  22.693   2.396
37178W        W98467   8.683  23.603   2.851
37179W        W98468  21.237  11.328  10.108
37180W        W98469  33.900   3.726  13.028
37181W        W98470   3.439  23.228  10.924
37182W        W98471  15.714  17.284  13.809
37183W        W98472  24.977  10.140   2.715
37184W        W98473  33.082  31.910   2.223
37185W        W98474  10.673  21.230   4.116
37186W        W98475  25.564  39.395   2.764
37187W        W98476  23.988  44.887  13.531
37188W        W98477  16.229  40.327  13.027
37189W        W98478  30.426  17.074   3.339
37190W        W98479  27.600  36.569  12.577
37191W        W98480  37.928  15.748   1.901
37192W        W98481  22.025  18.760  12.927
37193W        W98482  18.791  23.170   9.962
37194W        W98483  37.085   7.216  12.547
37195W        W98484  11.766  39.428  11.093
37196W        W98485  41.843  36.035   2.368
37197W        W98486  14.677  39.344  10.631
37198W        W98487  27.149  32.983   3.216
37199W        W98488  13.301  33.084  12.891
37200W        W98489   5.799  31.029  10.453
37201W        W98490   5.832   7.670  11.593
37202W        W98491   4.738   4.333  11.019
37203W        W98492  38.862   4.210   3.160
37204W        W98493   7.700  12.738   4.731
37205W        W98494  15.601  30.061   1.221
37206W        W98495  39.858  40.516   3.851
37207W        W98496   7.289   0.941   2.206
37208W        W98497   4.376  41.379  14.307
37209W        W98498  10.716  38.997  11.926
37210W        W98499   3.790  42.381  11.870
37211W        W98500  18.249  26.487  13.791
37212W        W98501  42.449  39.365   3.371
37213W        W98502  21.552  40.401   0.251
37214W        W98503  17.795  34.495   0.267
37215W        W98504   1.287  39.428   0.794
37216W        W98505   1.781   6.875  11.448
37217W        W98506  39.501  37.486   1.428
37218W        W98507   0.916  28.548   1.403
37219W        W98508  15.712  42.388  14.001
37220W        W98509   3.345  34.436  10.890
37221W        W98510  39.903  24.490  11.935
37222W        W98511  25.207  18.138  13.448
37223W        W98512   6.806  26.175  11.613
37224W        W98513  10.250  25.219   1.854
37225W        W98514   6.802   1.290  13.008
37226W        W98515   5.379   5.828   3.297
37227W        W98516  13.310  37.470   3.376
37228W        W98517  22.057  32.095  10.453
37229W        W98518   4.936  30.629   5.094
37230W        W98519   1.459  19.141  12.559
37231W        W98520  26.526  36.463   3.312
37232W        W98521   4.811   9.646  11.486
37233W        W98522  36.048  41.971   1.369
37234W        W98523  31.456   4.825   1.840
37235W        W98524   4.865  36.485  11.095
37236W        W98525  23.202   6.736   3.190
37237W        W98526  19.220  33.474  11.997
37238W        W98527  42.288  38.533   4.818
37239W        W98528  44.494  44.794   1.346
37240W        W98529  25.167  35.019   3.335
37241W        W98530  40.391   7.850  11.437
37242W        W98531  10.360  15.674   5.279
37243W        W98532  31.100  39.390  14.475
37244W        W98533   2.884  11.184   0.409
37245W        W98534   4.911   7.696  13.931
37246W        W98535  13.189  25.083  10.581
37247W        W98536  31.415  33.401  12.958
37248W        W98537  25.563  34.014  11.042
37249W        W98538   8.668   4.844  11.971
37250W        W98539  28.026  29.990   1.897
37251W        W98540  24.676  12.278  12.571
37252W        W98541  26.003   1.265  12.010
37253W        W98542   5.380  36.892  12.990
37254W        W98543  18.132  22.078  12.425
37255W        W98544   9.182  40.859  12.897
37256W        W98545  32.066   6.381   4.345
37257W        W98546   4.705  33.562   1.274
37258W        W98547  12.245   6.861   2.667
37259W        W98548  13.741  42.347   0.480
37260W        W98549  12.814   7.368   4.317
37261W        W98550  32.617  22.159  12.948
37262W        W98551  21.025  10.761   1.216
37263W        W98552   1.838  21.659  11.461
37264W        W98553  40.546  37.413   3.637
37265W        W98554  10.713  21.725  12.032
37266W        W98555  17.297  35.562   0.410
37267W        W98556  27.667  30.454   0.920
37268W        W98557  42.878   1.892   4.244
37269W        W98558  15.153  42.011  12.340
37270W        W98559  12.165  31.636   0.323
37271W        W98560   3.277  25.016  12.856
37272W        W98561  38.439  27.137  12.399
37273W        W98562  27.450  35.006  10.891
37274W        W98563  13.148  33.479   2.251
37275W        W98564  20.553  25.021   0.360
37276W        W98565  37.554  41.479   2.841
37277W        W98566  30.626  26.546   1.866
37278W        W98567  32.446  28.134  13.063
37279W        W98568   5.780  32.492  13.022
37280W        W98569   1.243  12.348   0.455
37281W        W98570  28.551  34.615   1.859
37282W        W98571  18.226  34.393  14.790
37283W        W98572   3.390   3.280  13.355
37284W        W98573  14.118   2.441   2.209
37285W        W98574  39.886  29.992   1.837
37286W        W98575  40.961  32.123   3.157
37287W        W98576  17.619  37.534  10.084
37288W        W98577   1.349  13.255   0.914
37289W        W98578  38.407  26.477  10.888
37290W        W98579  19.176  41.302   1.723
37291W        W98580  41.997   4.706  11.082
37292W        W98581  39.947   4.320  10.590
37293W        W98582   1.471   5.404  10.892
37294W        W98583   8.231   0.785   4.694
37295W        W98584  23.497  41.927  14.431
37296W        W98585  10.271   0.488  11.395
37297W        W98586  13.791  32.612  14.290
37298W        W98587   9.858   0.406  14.882
37299W        W98588  28.043  12.728  12.852
37300W        W98589   5.434  43.840  14.950
37301W        W98590  27.046  36.583   3.325
37302W        W98591  44.270  42.992   4.640
37303W        W98592  19.638  39.826   1.269
37304W        W98593  29.082  23.117   2.689
37305W        W98594  12.360  10.874   4.224
37306W        W98595  22.190  18.200   4.813
37307W        W98596   2.386  29.035  10.140
37308W        W98597  10.382  34.104   4.130
37309W        W98598  30.031  21.683   4.126
37310W        W98599  25.517  13.783   3.231
37311W        W98600  42.502  23.168  13.316
37312W        W98601   2.240  42.862   3.729
37313W        W98602  10.718  21.742  13.525
37314W        W98603   2.911  42.916   2.673
37315W        W98604  26.049   8.196  14.373
37316W        W98605  36.870  36.885   0.887
37317W        W98606  37.532   0.420  14.490
37318W        W98607  18.752  35.069   2.346
37319W        W98608  32.468  25.981  10.507
37320W        W98609   1.788   3.893   0.856
37321W        W98610  19.692  16.134  14.008
37322W        W98611  30.656  44.819  14.289
37323W        W98612  11.626  20.715   3.741
37324W        W98613  38.999  20.197   3.703
37325W        W98614  14.755   6.267  12.418
37326W        W98615  37.564  19.550  11.602
37327W        W98616  18.058   3.244  10.462
37328W        W98617   7.666  27.131  14.403
37329W        W98618  39.816  44.853  12.886
37330W        W98619  15.259   7.819   1.890
37331W        W98620  38.416  24.982  14.790
37332W        W98621  30.055  37.559   3.220
37333W        W98622  34.514   1.268  14.514
37334W        W98623   9.699  23.043   3.764
37335W        W98624  22.008  36.593   3.809
37336W        W98625  21.601  41.982   3.348
37337W        W98626  35.499  40.009   2.666
37338W        W98627  29.120   3.388   0.421
37339W        W98628  24.006   7.688  10.481
37340W        W98629  19.541  40.986  10.613
37341W        W98630  41.908  24.577  14.275
37342W        W98631   1.933  19.136   4.823
37343W        W98632  33.988  19.211   2.340
37344W        W98633  24.719  14.718   3.261
37345W        W98634  28.993  13.632  12.475
37346W        W98635  10.746  16.716   2.290
37347W        W98636  39.868  37.955   0.968
37348W        W98637  24.033  18.143   2.834
37349W        W98638  31.016  25.011   3.653
37350W        W98639  13.831  37.865   2.749
37351W        W98640  35.392  44.306   4.735
37352W        W98641  21.513  21.530  11.068
37353W        W98642   3.749   7.703  11.372
37354W        W98643   5.749   0.436   4.252
37355W        W98644  38.455  44.777   0.348
37356W        W98645  43.985   0.863   2.396
37357W        W98646  43.821   3.414  14.006
37358W        W98647  27.083  35.917   1.379
37359W        W98648   0.490  12.204  11.474
37360W        W98649  28.610  41.801   0.811
37361W        W98650  13.188   0.918  11.958
37362W        W98651  12.708   4.218   2.356
37363W        W98652   4.427  19.271   1.423
37364W        W98653  31.428  11.664  10.993
37365W        W98654   3.757  35.994   0.262
37366W        W98655  36.046  40.430  14.301
37367W        W98656  43.828  28.496   3.158
37368W        W98657  30.963   5.838   4.674
37369W        W98658   2.937  15.634  13.485
37370W        W98659  16.141  11.241  12.923
37371W        W98660   3.864  40.032   0.453
37372W        W98661  16.284  17.302   4.323
37373W        W98662   9.815  16.250   0.387
37374W        W98663   8.363  15.811   1.872
37375W        W98664   6.717  43.313   2.215
37376W        W98665  25.704  13.191   1.364
37377W        W98666  22.702  38.343  14.950
37378W        W98667   7.334   3.292  14.831
37379W        W98668  31.438  41.808   4.216
37380W        W98669  14.710  33.113  10.947
37381W        W98670  23.161  12.343  12.500
37382W        W98671  30.421  10.381  14.399
37383W        W98672   0.467  13.180  10.916
37384W        W98673  44.947  35.530   2.323
37385W        W98674  21.165  26.167  12.457
37386W        W98675   7.803  22.621   0.407
37387W        W98676   3.724   8.329  12.963
37388W        W98677  36.998  19.538   1.852
37389W        W98678   1.357   6.263  11.456
37390W        W98679  30.044  44.334   2.348
37391W        W98680  19.046  33.023   0.443
37392W        W98681  39.466   7.304   4.639
37393W        W98682  13.182  20.041  11.071
37394W        W98683  29.609  12.255  12.864
37395W        W98684  31.118  42.853  11.049
37396W        W98685   4.944  22.120   0.874
37397W        W98686  38.534  43.868  12.373
37398W        W98687   6.241   3.870  12.371
37399W        W98688  29.508  29.995  13.518
37400W        W98689  29.550   9.787  12.545
37401W        W98690   7.681   2.736  14.294
37402W        W98691  22.160  11.633   2.401
37403W        W98692  35.411  11.794  13.008
37404W        W98693   7.806   0.339   1.838
37405W        W98694  28.097  43.964  10.920
37406W        W98695   3.817  18.676  10.598
37407W        W98696  14.723  21.261  13.807
37408W        W98697  16.302  20.097  14.975
37409W        W98698  34.019   1.336  11.461
37410W        W98699  41.461   7.844   0.417
37411W        W98700  44.950  16.224   4.689
37412W        W98701  23.033  35.479  11.460
37413W        W98702  17.755  27.555   3.658
37414W        W98703  31.402   3.732   2.236
37415W        W98704   8.246  33.489  13.504
37416W        W98705   5.395  30.129  10.920
37417W        W98706  21.149  19.115   2.261
37418W        W98707  28.123  11.201   3.370
37419W        W98708   2.883  28.455   4.759
37420W        W98709   9.762   3.246  10.026
37421W        W98710  15.767  38.490   3.365
37422W        W98711  15.706   0.469   3.694
37423W        W98712  26.040   0.480  13.323
37424W        W98713  35.969  13.107   1.291
37425W        W98714  18.101  12.193  11.026
37426W        W98715  36.396  23.731  14.977
37427W        W98716  27.951   8.346   0.466
37428W        W98717  21.729  37.366  12.928
37429W        W98718   4.840  18.164   1.444
37430W        W98719  44.499   3.366   3.163
37431W        W98720  42.947  35.582   4.735
37432W        W98721   7.205  13.731  12.081
37433W        W98722   2.775  43.407   4.136
37434W        W98723  44.759  38.063  12.004
37435W        W98724  36.074  25.598   4.180
37436W        W98725  43.791  17.666   4.297
37437W        W98726   2.788  27.610   1.866
37438W        W98727  16.248  28.176  14.799
37439W        W98728  31.024  15.270   3.233
37440W        W98729  13.763  35.493  13.952
37441W        W98730  36.948  35.020  11.945
37442W        W98731  31.459  31.455  13.533
37443W        W98732  41.325  19.642   4.660
37444W        W98733  11.135   2.298   4.702
37445W        W98734  20.692  36.014   3.678
37446W        W98735   6.800  18.242  11.412
37447W        W98736  30.100  36.884  11.520
37448W        W98737   5.296  30.990   4.694
37449W        W98738   5.890  38.401  10.984
37450W        W98739  33.934  15.118  13.942
37451W        W98740  17.790  43.806   3.836
37452W        W98741  39.832  37.869  11.033
37453W        W98742   7.844  20.706  10.614
37454W        W98743  23.098  36.463   3.797
37455W        W98744  29.592   7.318   1.362
37456W        W98745  42.296  14.769  13.955
37457W        W98746  20.716  43.844  11.463
37458W        W98747  37.030  35.527   3.705
37459W        W98748   2.318  33.998   2.375
37460W        W98749  30.538  39.836  10.522
37461W        W98750  26.500  24.195   0.466
37462W        W98751  19.629  29.002  13.984
37463W        W98752  31.626  14.707   1.374
37464W        W98753   0.356  14.301   3.833
37465W        W98754   6.360   0.951  12.869
37466W        W98755  35.566  42.293  10.517
37467W        W98756  33.530  16.721  12.543
37468W        W98757  39.979   9.702  12.563
37469W        W98758   3.268  13.139   0.758
37470W        W98759  32.940  11.787   1.921
37471W        W98760  26.128   0.275   3.845
37472W        W98761   2.749  17.649   0.314
37473W        W98762  15.296   0.422  10.624
37474W        W98763  35.398  44.966  14.804
37475W        W98764  38.937  32.468   1.902
37476W        W98765   9.223  15.812   4.640
37477W        W98766  29.035  44.968   1.924
37478W        W98767  38.406  13.701   0.850
37479W        W98768  42.928  33.435   1.760
37480W        W98769  38.064  12.187   2.673
37481W        W98770  16.619  30.515   4.603
37482W        W98771  13.633  34.467  12.551
37483W        W98772  18.175  43.346  11.990
37484W        W98773  42.798  13.324  14.828
37485W        W98774  23.576   2.853  11.506
37486W        W98775   9.875  32.921  14.024
37487W        W98776  13.728  26.470  13.868
37488W        W98777  25.979  24.124  10.612
37489W        W98778  34.546  14.142  13.351
37490W        W98779  39.321  41.844   1.723
37491W        W98780  23.603  22.243  14.018
37492W        W98781   0.958  27.467  12.340
37493W        W98782  29.943  26.571  12.878
37494W        W98783   3.871   3.837  14.996
37495W        W98784  12.215  42.462   1.211
37496W        W98785  24.579   6.220  11.995
37497W        W98786  34.530  28.636   0.955
37498W        W98787   3.435  38.903  12.849
37499W        W98788   7.343  28.018  11.404
37500W        W98789   6.698  39.854  11.075
37501W        W98790  22.695  16.680  10.970
37502W        W98791  14.152  37.441  12.058
37503W        W98792  29.105   3.251  13.028
37504W        W98793  41.329  38.489   3.837
37505W        W98794  22.049  26.477   1.236
37506W        W98795  13.225   2.337  13.817
37507W        W98796  44.944  19.606   1.380
37508W        W98797   3.951   0.475   4.153
37509W        W98798  36.359  36.909  11.060
37510W        W98799  41.999  29.584  12.478
37511W        W98800  11.293  12.806   4.637
37512W        W98801  31.498  40.926   4.274
37513W        W98802  42.813  26.589   3.839
37514W        W98803   8.670  22.592   5.140
37515W        W98804  42.948   7.338  11.881
37516W        W98805  16.611   0.844  13.812
37517W        W98806  17.167  22.513   4.260
37518W        W98807   0.746  43.409   1.320
37519W        W98808   1.307  10.188  13.392
37520W        W98809   2.913  27.058   2.747
37521W        W98810   3.950   5.830  12.944
37522W        W98811   8.189   8.817  11.042
37523W        W98812  33.030  22.713  10.623
37524W        W98813  14.171  30.413   1.916
37525W        W98814  39.319  28.508   1.426
37526W        W98815  13.747   4.441  11.611
37527W        W98816  35.382  23.184   2.787
37528W        W98817  21.121  28.650  12.840
37529W        W98818  33.613  23.221   3.641
37530W        W98819  44.465  16.293  11.866
37531W        W98820  43.307   0.315  10.414
37532W        W98821  24.702  22.225   1.276
37533W        W98822  14.310  15.671  10.448
37534W        W98823  22.159  30.161   4.328
37535W        W98824  43.841  33.990   3.706
37536W        W98825  21.571  10.371  13.841
37537W        W98826   1.347  10.725   5.740
37538W        W98827   4.887  26.013  14.876
37539W        W98828   4.382  25.163  11.049
37540W        W98829   1.849   6.264   0.449
37541W        W98830  19.107  25.478  12.409
37542W        W98831  11.317  40.859  12.007
37543W        W98832  41.992   8.206   1.373
37544W        W98833  41.791  34.971   0.462
37545W        W98834  27.606  28.573  10.892
37546W        W98835   8.339  17.125  10.946
37547W        W98836  29.045  10.317   1.220
37548W        W98837  42.310  37.579  12.528
37549W        W98838  36.363  38.489  14.324
37550W        W98839  25.971  21.235  10.589
37551W        W98840  14.670  12.269  14.447
37552W        W98841  16.750   5.719  14.031
37553W        W98842  27.489  34.037   3.770
37554W        W98843  39.512  34.589  14.766
37555W        W98844  42.429  27.197  11.094
37556W        W98845  31.985  29.026  10.914
37557W        W98846  44.441  40.531   4.616
37558W        W98847   5.864  42.828   4.139
37559W        W98848  20.642  13.113  12.090
37560W        W98849  13.298   6.881  10.459
37561W        W98850  14.637  34.024   4.825
37562W        W98851   4.727   4.929   2.815
37563W        W98852   1.381  39.025   1.395
37564W        W98853   0.407   7.287  12.932
37565W        W98854  23.111  39.820  12.842
37566W        W98855   5.866  27.606   2.202
37567W        W98856  10.151  16.587   4.155
37568W        W98857   6.405  38.521   2.838
37569W        W98858  44.443  38.521   2.249
37570W        W98859   2.436   1.744  13.361
37571W        W98860  15.307  30.443   3.216
37572W        W98861  17.717   8.797   2.876
37573W        W98862   3.902   7.398   1.424
37574W        W98863   8.875  20.202   3.732
37575W        W98864  40.826  18.060   1.898
37576W        W98865  16.217  28.462   0.307
37577W        W98866  10.342   9.290   0.296
37578W        W98867  22.209   1.471  12.942
37579W        W98868  15.761  11.768   4.223
37580W        W98869  12.748  33.380  10.415
37581W        W98870  30.985  11.155   2.417
37582W        W98871  40.816  35.577   4.243
37583W        W98872  20.605   4.786   4.745
37584W        W98873  38.513   7.843  12.960
37585W        W98874  13.780   5.415   1.907
37586W        W98875  20.089   3.882  11.949
37587W        W98876  35.974  26.197   0.767
37588W        W98877  15.248  44.835   2.800
37589W        W98878  15.131  42.852  12.479
37590W        W98879   5.720  43.321   4.175
37591W        W98880  38.511   5.260   1.827
37592W        W98881   2.872  39.050   4.727
37593W        W98882   8.837  39.059   0.336
37594W        W98883  21.171  17.669  10.542
37595W        W98884  19.188   5.220  14.298
37596W        W98885  25.606  13.713  13.955
37597W        W98886  43.995  24.547  13.022
37598W        W98887  31.034   2.323  13.946
37599W        W98888  18.678   0.949  11.911
37600W        W98889  38.950  20.634   4.219
37601W        W98890  12.634   5.843  11.461
37602W        W98891   4.376  35.007  12.996
37603W        W98892  30.984  12.763  13.399
37604W        W98893  35.958  43.854  14.359
37605W        W98894  10.290  13.182   1.719
37606W        W98895  44.995  25.498  13.392
37607W        W98896  40.025   4.846  12.537
37608W        W98897   2.804  24.035   0.937
37609W        W98898  12.280  32.405  14.427
37610W        W98899  19.651  41.912   0.819
37611W        W98900  33.981  12.855  10.497
37612W        W98901  26.606  28.582  11.029
37613W        W98902   1.908  19.569  13.397
37614W        W98903  38.013   4.702  13.979
37615W        W98904   6.408  21.250  11.990
37616W        W98905   1.956  43.498   1.913
37617W        W98906  10.347  26.066   4.128
37618W        W98907  40.951  25.138  10.915
37619W        W98908  35.470  22.152  13.023
37620W        W98909  13.250  32.911  10.919
37621W        W98910  26.177   6.682  10.576
37622W        W98911   8.269  28.524   0.925
37623W        W98912  39.851   0.894   2.773
37624W        W98913  43.845  24.217   3.788
37625W        W98914   2.790  41.980  13.409
37626W        W98915   0.787  34.938   2.884
37627W        W98916  34.912  36.376  14.452
37628W        W98917  32.901   3.744   3.309
37629W        W98918  32.060  37.010   4.316
37630W        W98919  31.497  10.806  14.761
37631W        W98920  35.447  16.281   0.962
37632W        W98921  35.980  23.529  14.487
37633W        W98922  20.210   3.892   2.751
37634W        W98923  30.564  36.914  12.552
37635W        W98924   1.459  29.953   3.222
37636W        W98925   2.862   4.723   1.307
37637W        W98926  43.314  21.520  12.528
37638W        W98927   6.193   3.228   9.991
37639W        W98928  28.944  34.414   3.244
37640W        W98929  38.396  22.584  10.933
37641W        W98930  17.630  21.252   4.758
37642W        W98931   8.334  40.464  11.917
37643W        W98932  37.969  35.972  12.056
37644W        W98933   7.316   8.835  11.027
37645W        W98934  44.339  21.651   3.339
37646W        W98935  31.978  28.059   2.371
37647W        W98936   6.312  25.580   4.618
37648W        W98937  20.735  37.048  12.463
37649W        W98938   3.247   2.312  13.483
37650W        W98939   5.851  36.354   0.251
37651W        W98940  19.109  23.002  14.435
37652W        W98941  24.115  34.480   4.233
37653W        W98942  13.211   8.175   4.271
37654W        W98943   8.247  19.560   1.397
37655W        W98944  24.175  16.785  13.030
37656W        W98945  20.200  10.726  12.094
37657W        W98946  14.691  10.675   3.733
37658W        W98947   5.217  11.719   2.353
37659W        W98948  35.959  14.759   0.314
37660W        W98949  39.499  21.141  14.915
37661W        W98950  15.292  10.199   0.384
37662W        W98951   7.360  31.925   0.740
37663W        W98952  37.032  19.228   3.867
37664W        W98953  17.631  23.734   3.347
37665W        W98954  41.822  23.563  11.887
37666W        W98955  41.970  31.491   0.839
37667W        W98956   6.807   5.820  12.564
37668W        W98957  43.980  14.327  13.868
37669W        W98958  41.030  22.654   0.879
37670W        W98959  43.951  31.575  14.030
37671W        W98960  10.161  34.964   9.973
37672W        W98961   9.239  35.896  13.975
37673W        W98962  19.092   9.776   1.839
37674W        W98963  32.890  14.323   1.299
37675W        W98964  29.593   1.274  12.516
37676W        W98965  19.626  38.477  13.488
37677W        W98966  40.391  32.134   0.919
37678W        W98967  21.640  25.975   0.367
37679W        W98968   5.384  39.337   2.323
37680W        W98969   4.319  40.964  10.503
37681W        W98970   7.771  43.910   4.649
37682W        W98971  35.584  38.360   3.277
37683W        W98972  31.150  36.589  10.598
37684W        W98973  35.533  23.616  14.459
37685W        W98974   4.216  39.428  13.829
37686W        W98975  12.125  33.622   2.714
37687W        W98976   2.455  25.484   4.159
37688W        W98977  41.891  43.008   1.259
37689W        W98978  10.815  24.496  12.553
37690W        W98979  31.097  38.553   1.353
37691W        W98980  16.714  26.531  14.499
37692W        W98981  15.586  20.221  13.345
37693W        W98982  37.537  22.727   3.865
37694W        W98983  27.577  29.981   4.353
37695W        W98984  44.347   7.774   4.201
37696W        W98985   6.805  24.147   0.261
37697W        W98986   8.877  41.909   0.902
37698W        W98987  11.844  34.990   3.661
37699W        W98988   5.380   7.220  14.992
37700W        W98989  24.493   1.269  12.430
37701W        W98990  24.153   7.823   2.232
37702W        W98991  12.852  14.199   4.260
37703W        W98992  44.874  23.676   4.277
37704W        W98993  23.629  27.468  12.842
37705W        W98994  11.132  25.150   2.802
37706W        W98995  34.096   1.852  14.482
37707W        W98996   3.460  23.538   5.303
37708W        W98997  44.448  27.963  14.857
37709W        W98998  24.213   3.402  10.143
37710W        W98999  41.918  44.974   0.481
37711W        W99000   6.731  25.600  11.943
37712W        W99001  36.932  35.575   3.332
37713W        W99002   6.686  38.527   3.804
37714W        W99003  29.590  39.839   4.156
37715W        W99004  20.176  22.585  14.852
37716W        W99005  23.134   9.886   4.699
37717W        W99006   7.295  18.615   1.328
37718W        W99007   7.361   8.748   0.395
37719W        W99008  25.526  18.275  12.528
37720W        W99009  18.665  17.594  12.904
37721W        W99010  35.081   8.230   0.265
37722W        W99011  38.906  35.078   0.479
37723W        W99012  32.548  13.197  10.994
37724W        W99013  15.263   2.312   5.303
37725W        W99014  28.620  14.152  13.355
37726W        W99015  10.849  27.110   3.841
37727W        W99016   8.313  36.049  11.984
37728W        W99017  34.000  11.173   4.693
37729W        W99018  15.695  11.785  13.857
37730W        W99019   1.403  35.530   2.328
37731W        W99020   0.864   9.785   4.270
37732W        W99021  13.775   4.408  10.413
37733W        W99022  16.712   9.696  12.514
37734W        W99023   7.276  23.614  12.552
37735W        W99024   4.842  19.246   4.684
37736W        W99025   7.359  14.280  13.414
37737W        W99026   0.870  18.172   3.268
37738W        W99027  32.923   6.337  10.621
37739W        W99028   0.329  13.615  11.910
37740W        W99029   0.981   6.298  14.996
37741W        W99030  25.042  15.582   2.829
37742W        W99031  10.196  34.963   4.707
37743W        W99032  41.451  22.623  12.884
37744W        W99033  44.287  35.482  11.529
37745W        W99034  36.569   1.779  13.316
37746W        W99035  39.918  20.097  14.433
37747W        W99036  21.033   5.790  14.316
37748W        W99037  19.229   0.257  12.924
37749W        W99038   6.920  21.261  12.374
37750W        W99039  25.549  35.061  13.493
37751W        W99040  19.538  42.818  13.936
37752W        W99041  42.786  26.978   2.799
37753W        W99042  15.805  20.532   2.352
37754W        W99043  20.045  13.644  13.908
37755W        W99044  21.584   1.384  14.500
37756W        W99045   1.837   2.744  11.502
37757W        W99046  10.145  11.685  14.430
37758W        W99047  35.090  35.060  14.290
37759W        W99048   6.239  41.519  13.482
37760W        W99049  17.298  33.004   3.306
37761W        W99050  22.743  32.097  12.479
37762W        W99051  35.878  40.867  13.879
37763W        W99052  17.762  36.025  14.367
37764W        W99053   9.372  14.296   2.239
37765W        W99054  39.412   8.795  14.778
37766W        W99055  43.304  17.619  13.374
37767W        W99056  37.969  24.557   0.873
37768W        W99057  37.522  26.465  14.483
37769W        W99058  40.354  39.924  12.056
37770W        W99059   6.327  37.909   1.694
37771W        W99060  44.971  13.807  14.996
37772W        W99061  39.986   3.870   2.893
37773W        W99062  33.054  20.543   2.344
37774W        W99063  34.036  28.635   0.771
37775W        W99064  14.643   4.810  10.950
37776W        W99065  43.489  38.996  14.515
37777W        W99066  20.124  44.851   2.815
37778W        W99067   9.697  34.902  10.102
37779W        W99068  31.592   2.940   1.756
37780W        W99069   1.329  44.275   0.965
37781W        W99070   2.403  27.619  14.355
37782W        W99071  29.035  18.641   0.439
37783W        W99072  19.608  36.403   0.811
37784W        W99073  37.873  37.063  11.409
37785W        W99074   4.819  10.859   0.282
37786W        W99075   1.482  24.008  11.596
37787W        W99076  37.062  12.333   4.790
37788W        W99077  32.074   4.802  14.333
37789W        W99078  31.580  19.632   3.657
37790W        W99079   2.914   1.758  13.915
37791W        W99080   3.461   2.844  14.478
37792W        W99081  35.935  16.813   4.159
37793W        W99082   9.869  41.441   1.866
37794W        W99083  33.451   2.921  12.908
37795W        W99084  34.429   3.804  10.025
37796W        W99085  30.992  19.230  10.492
37797W        W99086  41.315  17.714  10.991
37798W        W99087  44.503  31.538   3.215
37799W        W99088  29.612  31.629   0.937
37800W        W99089  20.692  44.450   3.242
37801W        W99090   4.790  28.030   3.257
37802W        W99091   3.735   7.872  11.966
37803W        W99092  11.696  15.609   1.360
37804W        W99093  37.930  43.946  12.369
37805W        W99094  14.250   9.244  13.913
37806W        W99095  36.005  39.899   0.470
37807W        W99096   2.244  32.568   2.737
37808W        W99097   6.287  37.384  14.340
37809W        W99098  37.841  36.572  14.842
37810W        W99099  37.575  12.620  14.505
37811W        W99100  21.019  14.708   4.206
37812W        W99101  29.972   3.291  11.590
37813W        W99102   8.690   6.782   1.722
37814W        W99103  42.501  27.030  10.530
37815W        W99104  22.605   9.850   2.900
37816W        W99105  12.162  35.574   1.889
37817W        W99106  27.552  15.765  13.048
37818W        W99107   6.890  30.967   3.272
37819W        W99108  26.470  33.041  12.903
37820W        W99109  38.847  37.907   1.382
37821W        W99110  38.479  10.345   0.446
37822W        W99111  14.248  11.238  14.412
37823W        W99112   1.463  10.634  10.571
37824W        W99113   4.720  18.703   2.180
37825W        W99114  43.879  44.906   0.815
37826W        W99115  40.871   9.735  11.530
37827W        W99116  43.459  31.505  14.928
37828W        W99117  22.098  39.854   4.213
37829W        W99118  31.920  17.764  13.029
37830W        W99119  34.372  21.747   1.388
37831W        W99120  34.987   1.739   4.810
37832W        W99121  41.516  26.039  10.543
37833W        W99122   9.391  29.134  12.579
37834W        W99123  15.787  20.638   0.959
37835W        W99124  30.501  16.684   4.259
37836W        W99125  39.487  23.001  12.037
37837W        W99126  21.527   9.381  12.068
37838W        W99127  33.430  25.190   4.735
37839W        W99128  31.035  44.391  13.544
37840W        W99129  24.513   5.318  12.070
37841W        W99130  39.502  23.541   1.246
37842W        W99131  15.703   3.936   4.321
37843W        W99132  20.123  20.625  13.512
37844W        W99133  27.671  34.926   0.796
37845W        W99134  29.002  40.496  11.901
37846W        W99135  36.541  19.716  13.485
37847W        W99136  34.550   8.756  14.769
37848W        W99137  18.137  33.498   2.784
37849W        W99138  13.772  42.349  10.594
37850W        W99139   9.648   9.395   2.671
37851W        W99140  21.715  28.068   2.691
37852W        W99141  43.954  16.798   0.344
37853W        W99142  35.093  41.523   4.736
37854W        W99143   4.337  37.970   1.927
37855W        W99144  29.117  36.850   3.156
37856W        W99145  24.044  21.041   0.471
37857W        W99146  44.428  28.066  14.316
37858W        W99147  21.624  44.289  14.495
37859W        W99148  12.737   1.975   5.277
37860W        W99149  13.307   9.697   3.834
37861W        W99150   0.958   7.298  12.475
37862W        W99151  28.677   4.940   4.268
37863W        W99152  26.647  40.931  13.955
37864W        W99153  41.365   1.335  11.056
37865W        W99154  15.769   6.340   4.650
37866W        W99155  42.910  24.706  14.455
37867W        W99156  14.789  38.396  11.518
37868W        W99157  28.665  28.051  11.081
37869W        W99158  23.201  27.507   2.413
37870W        W99159  13.678  15.726   0.813
37871W        W99160  41.405  18.128   4.790
37872W        W99161   5.406  19.657  12.013
37873W        W99162  10.638  28.140  13.443
37874W        W99163  38.525  22.130  11.933
37875W        W99164  37.430  26.545   4.192
37876W        W99165  25.601   1.790   1.210
37877W        W99166  35.073  36.505  13.435
37878W        W99167   1.401   1.923  12.024
37879W        W99168  10.337  18.292   4.689
37880W        W99169   4.428  42.904  14.021
37881W        W99170  28.143  23.586  14.309
37882W        W99171  35.533  18.709   1.307
37883W        W99172  39.454  32.933  13.330
37884W        W99173   3.758  21.198   4.636
37885W        W99174  34.580  11.224   2.738
37886W        W99175  21.054  40.797  13.930
37887W        W99176  15.146   0.314  12.949
37888W        W99177  44.929   3.385   1.819
37889W        W99178   8.303  17.133  14.901
37890W        W99179   7.839  40.872  14.009
37891W        W99180  31.406  10.337   4.747
37892W        W99181  31.483  17.760  10.975
37893W        W99182  15.676  41.387  11.983
37894W        W99183   9.850  34.416  12.468
37895W        W99184   0.290  34.428  13.444
37896W        W99185  19.777  19.583  10.609
37897W        W99186   2.770  40.385   2.663
37898W        W99187  34.109   4.766   4.156
37899W        W99188  33.103  37.413  13.507
37900W        W99189  42.902   9.856  11.975
37901W        W99190  40.874  41.956  11.436
37902W        W99191  14.220  34.433  12.376
37903W        W99192  30.916  10.227   1.743
37904W        W99193  27.686  32.049   1.407
37905W        W99194   5.382   8.210  13.346
37906W        W99195   1.825  23.667  14.958
37907W        W99196  15.657  23.499   0.243
37908W        W99197   9.157   4.750  12.485
37909W        W99198   2.899  17.162  13.522
37910W        W99199  37.975  36.094  13.384
37911W        W99200  32.425  25.126   4.784
37912W        W99201   7.810  44.819  12.522
37913W        W99202  41.475  22.634   0.956
37914W        W99203  38.507   9.314  13.341
37915W        W99204   6.233  33.542   4.770
37916W        W99205  36.490  12.216  12.398
37917W        W99206   5.198  35.530  10.921
37918W        W99207   6.736  20.706  13.424
37919W        W99208   8.689   6.411  12.369
37920W        W99209  33.438  10.314   4.708
37921W        W99210  28.681   7.218   2.334
37922W        W99211  10.142   7.670   1.785
37923W        W99212  11.815  15.222  14.799
37924W        W99213  32.508   7.712  12.868
37925W        W99214  42.434  29.943   0.967
37926W        W99215  17.260   8.250  10.896
37927W        W99216  39.836  42.953   0.961
37928W        W99217  13.649   8.256  11.522
37929W        W99218  39.927  36.375   4.230
37930W        W99219  19.154   7.272  12.835
37931W        W99220  11.253  19.191   4.800
37932W        W99221   8.261  43.392  10.453
37933W        W99222   9.251  34.877   4.242
37934W        W99223  14.614   4.340   3.378
37935W        W99224  14.694   2.948   0.425
37936W        W99225  21.610  31.552   4.309
37937W        W99226   9.213   5.303  14.507
37938W        W99227   3.862  10.337  11.480
37939W        W99228  31.468  42.334  12.877
37940W        W99229  34.004   3.228  13.881
37941W        W99230  21.071  30.056  14.828
37942W        W99231  15.147   8.774  13.041
37943W        W99232  10.851  38.014   0.450
37944W        W99233  31.092  16.192   3.285
37945W        W99234   5.756  26.153  11.858
37946W        W99235   9.770  39.873  14.899
37947W        W99236  21.526  27.089  10.998
37948W        W99237  25.071  24.701  10.022
37949W        W99238  13.217  35.072  10.073
37950W        W99239  44.491  12.253   4.195
37951W        W99240  33.945  41.003  12.400
37952W        W99241  13.253  17.138   0.311
37953W        W99242   0.407  19.540  10.985
37954W        W99243  36.070   8.862   2.377
37955W        W99244  36.010   2.945  12.905
37956W        W99245  15.284  22.580   5.140
37957W        W99246  27.190  25.066  14.368
37958W        W99247  41.041   3.318  11.884
37959W        W99248   3.452  38.890  14.464
37960W        W99249  26.046  28.037   1.341
37961W        W99250   7.207  44.446   4.141
37962W        W99251  18.559   0.460   0.926
37963W        W99252  11.372   2.768   1.870
37964W        W99253  13.792  36.384   2.889
37965W        W99254  42.892  43.902  10.639
37966W        W99255  10.304  13.351  11.972
37967W        W99256   9.720   9.788   4.808
37968W        W99257  28.558  41.997   3.680
37969W        W99258  27.020  33.386   2.800
37970W        W99259  12.265  38.016  10.507
37971W        W99260  34.029  15.584   0.455
37972W        W99261  32.084  20.060  13.401
37973W        W99262   0.926  32.407   4.325
37974W        W99263   4.926  34.896  11.076
37975W        W99264  11.328  43.898   5.633
37976W        W99265  28.186  21.595   3.361
37977W        W99266  37.447  24.563   2.899
37978W        W99267  14.114   1.962  11.909
37979W        W99268  19.764  20.170  13.793
37980W        W99269  36.547  41.876   3.155
37981W        W99270  34.471   9.828  11.977
37982W        W99271  38.363   3.452  10.454
37983W        W99272  29.590  32.489   4.310
37984W        W99273  28.608   8.363  13.943
37985W        W99274  31.974   1.371   2.850
37986W        W99275   7.176  18.706   0.909
37987W        W99276  16.636  34.947   4.276
37988W        W99277  10.635  42.456  14.389
37989W        W99278  28.060  12.647   1.221
37990W        W99279  34.931  15.163  12.910
37991W        W99280  16.688   1.741   2.803
37992W        W99281  20.125  39.368   3.306
37993W        W99282  37.393  10.638   4.140
37994W        W99283  28.011  23.626  14.013
37995W        W99284  36.087  28.661  12.829
37996W        W99285   8.838  24.977  11.031
37997W        W99286  34.582  39.353  14.492
37998W        W99287   3.901   9.291   3.229
37999W        W99288  43.370  30.453   3.152
38000W        W99289  44.465   2.267  11.995
38001W        W99290  13.681  10.684   2.356
38002W        W99291   4.854  18.170   3.157
38003W        W99292  18.700  11.770  14.860
38004W        W99293  21.621  37.338   2.817
38005W        W99294   2.881   6.399   4.266
38006W        W99295  17.207  36.941  14.443
38007W        W99296   7.898  35.490  13.498
38008W        W99297  20.152  41.371  12.559
38009W        W99298  35.984  40.535  13.346
38010W        W99299   5.305  29.556  14.292
38011W        W99300  37.944  44.320   2.747
38012W        W99301  28.004  42.830   3.808
38013W        W99302  41.809  28.114   2.740
38014W        W99303  37.455  24.487   1.905
38015W        W99304   5.885  29.463  11.510
38016W        W99305  18.608   8.799  12.926
38017W        W99306  43.509  23.519   4.283
38018W        W99307  38.422   6.884   4.117
38019W        W99308   2.442  14.251   2.392
38020W        W99309   5.728   6.248  12.496
38021W        W99310   3.385  10.188  10.500
38022W        W99311  17.653  35.897   1.282
38023W        W99312  14.699  23.534   9.444
38024W        W99313   5.411  33.073  14.355
38025W        W99314  27.559  36.530  13.430
38026W        W99315  25.495   8.360  12.342
38027W        W99316   7.878  15.684   0.887
38028W        W99317  29.607  39.907  11.993
38029W        W99318  28.122  43.474  14.773
38030W        W99319  22.559  31.112  14.382
38031W        W99320  26.497  42.337   2.226
38032W        W99321   9.723  18.559  11.883
38033W        W99322  33.041  25.182  13.042
38034W        W99323  12.217  22.062  12.937
38035W        W99324  30.546  17.065   2.262
38036W        W99325  33.122  28.442   0.263
38037W        W99326  27.573  36.991  11.378
38038W        W99327  21.028  11.249   1.435
38039W        W99328  27.495  13.733   3.319
38040W        W99329  22.585  16.210  14.365
38041W        W99330  18.084  23.028  13.471
38042W        W99331  17.606  12.196   0.871
38043W        W99332  28.177   5.699   1.842
38044W        W99333   0.836   4.395  12.891
38045W        W99334  19.738  10.833  12.540
38046W        W99335  21.019  42.870   2.800
38047W        W99336   0.985  36.426  11.081
38048W        W99337  34.962  42.298  13.991
38049W        W99338  15.243  19.677  10.588
38050W        W99339  39.361  13.175   2.670
38051W        W99340  14.191  22.081   2.717
38052W        W99341  30.080  31.045   4.665
38053W        W99342  41.375  12.169  10.600
38054W        W99343  36.002   2.389   0.341
38055W        W99344  38.416   0.370   1.889
38056W        W99345  35.957  44.803   3.238
38057W        W99346  34.051  31.583  14.299
38058W        W99347   1.331  37.934  12.541
38059W        W99348   3.223  28.096   2.693
38060W        W99349  41.427  30.113  11.086
38061W        W99350  43.015   5.757  12.464
38062W        W99351  33.059  30.136  13.947
38063W        W99352  33.521  10.683  10.498
38064W        W99353  14.218  31.454   1.741
38065W        W99354  23.703   0.440  14.453
38066W        W99355  18.255   6.220   1.810
38067W        W99356  39.958  18.776   5.086
38068W        W99357  36.012  37.852   2.344
38069W        W99358  26.956  11.799   0.261
38070W        W99359  31.133   4.446   4.750
38071W        W99360   9.298  34.436  13.026
38072W        W99361  13.312  24.140   4.181
38073W        W99362  29.011  12.641  14.942
38074W        W99363  14.765  37.856   0.745
38075W        W99364  11.147  35.554  12.987
38076W        W99365  35.056  13.306   3.297
38077W        W99366  21.667  29.160   1.269
38078W        W99367  15.283   8.201   0.477
38079W        W99368  38.839  26.128   0.243
38080W        W99369   7.273  42.295  12.348
38081W        W99370  24.152  26.100   0.895
38082W        W99371   0.822  15.641  14.368
38083W        W99372   8.821   4.320  12.016
38084W        W99373  29.976  20.218  10.970
38085W        W99374  17.624  43.973  14.014
38086W        W99375  29.925  38.853   0.931
38087W        W99376   6.858  41.016   1.279
38088W        W99377  13.839  18.291   2.276
38089W        W99378  15.603  39.351  14.879
38090W        W99379   6.418  12.695   3.811
38091W        W99380  41.812   6.417  14.837
38092W        W99381  36.908  26.156  10.924
38093W        W99382  14.283  34.431   1.228
38094W        W99383   6.681   4.934   3.646
38095W        W99384  26.500  23.645   1.745
38096W        W99385  21.124  33.536   2.308
38097W        W99386  27.481  12.338  11.072
38098W        W99387  22.041  16.120   1.243
38099W        W99388   5.378   0.399   4.307
38100W        W99389  22.052  39.997   2.731
38101W        W99390  33.914  34.973  13.461
38102W        W99391  20.567   9.179  12.358
38103W        W99392   3.455  15.721  11.002
38104W        W99393  41.491   7.353  11.959
38105W        W99394  35.973  27.459  13.883
38106W        W99395   5.790  16.579   3.776
38107W        W99396  32.115  13.156   3.366
38108W        W99397  15.823  27.561  13.315
38109W        W99398  33.492  12.209   3.154
38110W        W99399  29.935  27.560   3.320
38111W        W99400  41.511  44.373  13.921
38112W        W99401  19.279  39.981  10.967
38113W        W99402   3.274  25.678   2.697
38114W        W99403  14.727  30.953   1.230
38115W        W99404  34.375  16.116   4.231
38116W        W99405  35.881  14.613  13.927
38117W        W99406  12.787   5.692  13.968
38118W        W99407  38.435  41.360   4.322
38119W        W99408  13.721  22.118  11.524
38120W        W99409  16.645   8.678  11.456
38121W        W99410  21.531  22.020   2.790
38122W        W99411  44.440   7.856  12.033
38123W        W99412  37.471  30.024   3.151
38124W        W99413  29.960  25.047   0.392
38125W        W99414  44.290  32.948   3.356
38126W        W99415  26.970  25.146   3.661
38127W        W99416  38.886  17.751   0.397
38128W        W99417  25.593  34.043   2.233
38129W        W99418   3.293  22.114   0.850
38130W        W99419  34.502  44.489  13.401
38131W        W99420  43.944  32.143  12.467
38132W        W99421  32.954   9.261   2.865
38133W        W99422  18.112   7.735  14.501
38134W        W99423  21.738  12.739  10.498
38135W        W99424  27.177  18.189  12.393
38136W        W99425  16.095  39.023   4.802
38137W        W99426  10.800  33.562   3.689
38138W        W99427  14.687  28.483   3.333
38139W        W99428  40.886  35.979   1.438
38140W        W99429  18.600  42.355   2.229
38141W        W99430  11.854   5.363   2.344
38142W        W99431   6.894  16.197   1.752
38143W        W99432  19.556  41.928   2.217
38144W        W99433  25.075  31.059   2.681
38145W        W99434  29.996  39.830  10.629
38146W        W99435   3.816  26.516  12.983
38147W        W99436  29.156  30.909   1.760
38148W        W99437   8.764  31.465  10.913
38149W        W99438  24.646   9.791  10.096
38150W        W99439   9.216  36.507   3.319
38151W        W99440  24.084  27.488   4.313
38152W        W99441   9.167   3.354   1.262
38153W        W99442   1.456  31.635  11.419
38154W        W99443  33.539   9.285  11.985
38155W        W99444  10.218  15.600  10.932
38156W        W99445  32.398  38.932   2.686
38157W        W99446  42.378  37.422   0.339
38158W        W99447   3.931  19.771   4.300
38159W        W99448  36.443  13.833  13.324
38160W        W99449   6.739  20.235  12.918
38161W        W99450  16.760  41.503  11.542
38162W        W99451  43.333  22.504  13.545
38163W        W99452   3.820  13.183  14.760
38164W        W99453  26.195  42.031   3.775
38165W        W99454  41.484  16.774  11.970
38166W        W99455  16.614  38.379   0.847
38167W        W99456  42.425  41.448   1.743
38168W        W99457  41.428   7.411  14.880
38169W        W99458  38.407   5.256  14.927
38170W        W99459  12.354   2.420  12.854
38171W        W99460  39.554  31.997   3.713
38172W        W99461  30.626  16.754   3.167
38173W        W99462  44.965   8.249  10.587
38174W        W99463  15.754  38.465  14.861
38175W        W99464  30.163   6.701   1.219
38176W        W99465   9.224  23.673  13.433
38177W        W99466  15.740  21.156   2.808
38178W        W99467  23.518  21.616  12.491
38179W        W99468   6.867   3.374  11.980
38180W        W99469   7.410   8.751   3.180
38181W        W99470   6.380  34.096   0.299
38182W        W99471  33.017   6.881   1.854
38183W        W99472  21.575  28.057  11.544
38184W        W99473  41.520  39.058   1.859
38185W        W99474  17.266  40.368   0.763
38186W        W99475  39.960  26.617   3.347
38187W        W99476  22.089  12.850  10.643
38188W        W99477   5.353  18.100   4.160
38189W        W99478  38.944  37.457   3.833
38190W        W99479   4.233  22.575  12.382
38191W        W99480  18.718   7.872   0.288
38192W        W99481  13.818  37.526   2.360
38193W        W99482  18.725  42.008   0.374
38194W        W99483  22.154   1.747   1.748
38195W        W99484  23.546  33.492   1.343
38196W        W99485  32.510  37.361   0.324
38197W        W99486  42.300  37.413  12.993
38198W        W99487  38.048  35.541   1.435
38199W        W99488   3.729  12.134  12.957
38200W        W99489  12.610  36.960   0.328
38201W        W99490  38.040  44.890  10.445
38202W        W99491  21.233  34.562  14.394
38203W        W99492   2.771  21.665   3.236
38204W        W99493   5.438  29.592   3.254
38205W        W99494  38.876  19.649  13.934
38206W        W99495  12.346  26.689  12.854
38207W        W99496  26.964  26.679  13.374
38208W        W99497   5.305   6.918  11.881
38209W        W99498   4.928   7.667   1.269
38210W        W99499  40.809   4.301  12.375
38211W        W99500  18.251  21.111   0.327
38212W        W99501  20.143  21.050   5.081
38213W        W99502   8.693  20.221   0.813
38214W        W99503   0.770   4.436   1.750
38215W        W99504  34.401  36.485  13.030
38216W        W99505  37.496  32.549   3.304
38217W        W99506  18.112  23.106   1.317
38218W        W99507   9.261  12.227   3.840
38219W        W99508   2.310  24.699  11.070
38220W        W99509  23.500   5.270   3.858
38221W        W99510  13.690  20.147   5.227
38222W        W99511  13.717  19.225   3.804
38223W        W99512  11.317  36.065   0.335
38224W        W99513   5.687  37.335  14.801
38225W        W99514  19.090  44.785  12.908
38226W        W99515  26.999  29.918  10.486
38227W        W99516  42.864  41.306  13.396
38228W        W99517   3.371  31.627  14.324
38229W        W99518  35.951   5.215  11.036
38230W        W99519  20.675   5.773  14.367
38231W        W99520  41.421  15.653  11.039
38232W        W99521   1.875  25.141   4.815
38233W        W99522  43.982  31.439   0.739
38234W        W99523  15.594  14.755   2.820
38235W        W99524   2.434  30.122  14.774
38236W        W99525  26.954   4.729   0.833
38237W        W99526   6.747   3.450  14.800
38238W        W99527  12.284  21.579  10.896
38239W        W99528  29.028  20.677  13.362
38240W        W99529  33.454  32.510  10.117
38241W        W99530   9.670  36.553   3.783
38242W        W99531  44.493  43.811   0.245
38243W        W99532  33.004  21.525   2.673
38244W        W99533  44.968  32.466   1.727
38245W        W99534  17.130  22.513  14.288
38246W        W99535   1.851  37.849  11.443
38247W        W99536  16.598   5.314   2.243
38248W        W99537   2.463  34.370   0.904
38249W        W99538  16.118  18.663  11.032
38250W        W99539   4.269  42.287  12.486
38251W        W99540  26.021  44.810   2.716
38252W        W99541  36.387  30.440  13.794
38253W        W99542   6.277   0.910  11.875
38254W        W99543  36.066   3.711   2.712
38255W        W99544  33.599  20.759   4.736
38256W        W99545   1.316   5.729   0.785
38257W        W99546   9.184   4.850   2.705
38258W        W99547  37.336  15.123  10.566
38259W        W99548  12.142   2.855  14.955
38260W        W99549   2.432  35.385  12.446
38261W        W99550  12.271   3.383  12.418
38262W        W99551  39.518  15.665  10.645
38263W        W99552   2.942  41.339  12.087
38264W        W99553  34.531  17.664   3.783
38265W        W99554   2.240  26.054   0.366
38266W        W99555   5.276  11.174   1.389
38267W        W99556  41.481  39.334  14.835
38268W        W99557  22.720   6.894  13.319
38269W        W99558  18.701   8.300  12.351
38270W        W99559   8.893  38.984  14.952
38271W        W99560  16.572  35.992   0.443
38272W        W99561  23.173   4.787   0.740
38273W        W99562  23.616  30.572  11.996
38274W        W99563  43.493  40.902  13.333
38275W        W99564  42.317  19.098   1.748
38276W        W99565  37.513  26.677  13.354
38277W        W99566  14.802  16.132  14.442
38278W        W99567  18.207  44.802   1.342
38279W        W99568  23.712   6.906   3.793
38280W        W99569   7.242  17.304   4.199
38281W        W99570   0.260  15.651  12.013
38282W        W99571  27.037  44.291   3.273
38283W        W99572  19.133  19.239  14.942
38284W        W99573   7.189  31.946  10.130
38285W        W99574  36.884   7.176   3.660
38286W        W99575  38.007  35.045  13.815
38287W        W99576  11.307  32.402   3.833
38288W        W99577  41.303   3.789   0.872
38289W        W99578   4.366  25.039   3.722
38290W        W99579   3.373  13.672  12.874
38291W        W99580  32.524  25.542  13.490
38292W        W99581  24.679  39.388  12.986
38293W        W99582  27.990   7.751   2.358
38294W        W99583  39.822  37.874  13.895
38295W        W99584  13.756   4.404   2.260
38296W        W99585  17.181  20.675  10.042
38297W        W99586  15.112  39.058  14.499
38298W        W99587  42.987  44.310   0.343
38299W        W99588  37.448  15.132   9.494
38300W        W99589  28.996   8.661  13.524
38301W        W99590  41.444  40.434  13.010
38302W        W99591  39.869   4.909   2.887
38303W        W99592  16.264   6.818  11.895
38304W        W99593   2.392  33.131  10.642
38305W        W99594  36.375   7.667   3.657
38306W        W99595  14.730  18.717  11.118
38307W        W99596   1.478  12.231   2.854
38308W        W99597   6.883  27.453   2.833
38309W        W99598   1.978  13.691  13.945
38310W        W99599   7.764  20.742   1.375
38311W        W99600  20.109  35.544   3.182
38312W        W99601  25.479  22.088   1.397
38313W        W99602  11.162  33.071  13.979
38314W        W99603  44.979  27.469  13.840
38315W        W99604  25.109  16.575   4.208
38316W        W99605  17.610  13.826  14.981
38317W        W99606  41.375  42.508   1.374
38318W        W99607  20.624   8.725   0.245
38319W        W99608  16.072  39.357  13.438
38320W        W99609  39.883  33.585   4.283
38321W        W99610  16.698   1.810   0.967
38322W        W99611  41.411  19.596   1.354
38323W        W99612  44.262   5.328   3.795
38324W        W99613  15.088  35.935  13.058
38325W        W99614  35.109  38.426  14.924
38326W        W99615   0.860  30.419  14.846
38327W        W99616  28.105   1.917  10.516
38328W        W99617  16.631  17.754   1.297
38329W        W99618  28.073  29.148   4.140
38330W        W99619  17.127  23.547   3.642
38331W        W99620  39.391  23.638  14.944
38332W        W99621  10.669  11.818   0.799
38333W        W99622   2.278  13.225   4.815
38334W        W99623   9.184  23.010   1.236
38335W        W99624   8.835  19.708   1.834
38336W        W99625  21.046   5.887   0.247
38337W        W99626  34.575  41.453  13.329
38338W        W99627  29.613  18.753  12.040
38339W        W99628   1.283   8.239  13.425
38340W        W99629   7.238   3.771  12.904
38341W        W99630  28.067  14.251  11.607
38342W        W99631   3.844  33.584  10.642
38343W        W99632  10.712  38.566  12.580
38344W        W99633   4.764  27.183   1.737
38345W        W99634  41.791   5.734  10.613
38346W        W99635  16.175   6.341  10.516
38347W        W99636   9.210  36.944   4.208
38348W        W99637  40.308  19.746   2.409
38349W        W99638  43.835  18.081  12.377
38350W        W99639  20.168  17.259   0.254
38351W        W99640  38.992  20.549   1.733
38352W        W99641  17.594   9.163  14.975
38353W        W99642   0.979  26.204  14.766
38354W        W99643  27.073  34.105  13.514
38355W        W99644  43.771  29.475   4.166
38356W        W99645  39.059  29.109  14.983
38357W        W99646  31.613  20.592  12.532
38358W        W99647   9.774   9.211  10.485
38359W        W99648   7.870  24.650  12.571
38360W        W99649  21.513  15.779  13.804
38361W        W99650   5.791  38.539   1.885
38362W        W99651   0.786  39.059   2.333
38363W        W99652   2.271  16.787   1.880
38364W        W99653  15.706  15.696   2.187
38365W        W99654  40.516   7.816   2.696
38366W        W99655   6.861  38.992  11.589
38367W        W99656  20.060  13.118  10.491
38368W        W99657  28.523  39.358  14.429
38369W        W99658  41.854  20.583  14.461
38370W        W99659  43.837  16.700   1.437
38371W        W99660  22.236  13.174  12.009
38372W        W99661   1.943  25.154   4.277
38373W        W99662   5.288  32.485   0.876
38374W        W99663  29.098  25.962   4.279
38375W        W99664  10.805  35.854   0.939
38376W        W99665   6.717   2.267   0.254
38377W        W99666  24.197  38.067   2.711
38378W        W99667  40.797  33.074   1.259
38379W        W99668  18.146  27.997  12.401
38380W        W99669  26.030  38.529   2.694
38381W        W99670  14.648  16.635   0.927
38382W        W99671  44.267  24.701  10.121
38383W        W99672  32.056  44.470   2.389
38384W        W99673  24.703  22.578   0.432
38385W        W99674  36.402   4.921   0.458
38386W        W99675  13.180   9.254   0.930
38387W        W99676  37.925  21.737  10.910
38388W        W99677  11.262  40.898  13.407
38389W        W99678  10.197  15.790   1.870
38390W        W99679   7.311  29.075  14.331
38391W        W99680   5.816   2.398   3.261
38392W        W99681  29.497  38.421   4.724
38393W        W99682  40.355  13.788  13.983
38394W        W99683  17.669   8.859  11.878
38395W        W99684  29.964  16.275  12.478
38396W        W99685  14.162   5.414  11.949
38397W        W99686  17.750  29.092  10.976
38398W        W99687  33.464  37.958  14.504
38399W        W99688  37.830  13.277   4.636
38400W        W99689   1.332  37.570  12.051
38401W        W99690  22.626   5.261   1.814
38402W        W99691  28.937  31.518  12.455
38403W        W99692  24.987  36.501   4.691
38404W        W99693  12.671  10.831   1.449
38405W        W99694  19.582  24.506   4.793
38406W        W99695  44.284  27.992  13.890
38407W        W99696  16.166  15.236  11.583
38408W        W99697  38.502  25.623   2.209
38409W        W99698  33.930   3.832  13.503
38410W        W99699  38.345  11.659   2.681
38411W        W99700  37.540  15.168  11.468
38412W        W99701  23.040  33.586  12.072
38413W        W99702  28.985  13.632   0.757
38414W        W99703  35.974  24.219   3.667
38415W        W99704  29.531  11.645  14.445
38416W        W99705   2.818  29.473  11.025
38417W        W99706   8.680  31.460   2.361
38418W        W99707   5.904  19.097  12.878
38419W        W99708  14.614  26.149  10.898
38420W        W99709   1.247  23.077   4.244
38421W        W99710  11.711  38.501   1.237
38422W        W99711  36.559  39.038   2.182
38423W        W99712   3.744  35.996   4.144
38424W        W99713  30.108  36.898  14.937
38425W        W99714   6.190  39.315   2.697
38426W        W99715  18.648  43.270   3.736
38427W        W99716   9.197  33.496  14.792
38428W        W99717  14.328  41.441  10.040
38429W        W99718   5.353  21.238   2.341
38430W        W99719  11.758  43.781   2.817
38431W        W99720  26.575  40.985  14.339
38432W        W99721  28.088  35.893   5.082
38433W        W99722  38.904  42.391  14.907
38434W        W99723  24.652  33.559  10.408
38435W        W99724  17.644  28.654  10.528
38436W        W99725  17.652   6.384   0.886
38437W        W99726  33.497  17.731  10.144
38438W        W99727  17.587  38.524   1.859
38439W        W99728  26.966   4.419  12.526
38440W        W99729   0.874   2.856  14.494
38441W        W99730   5.303  16.156  12.016
38442W        W99731   7.280  21.657   4.747
38443W        W99732  22.192   9.273  13.518
38444W        W99733  37.520  21.680   3.254
38445W        W99734  19.213  35.407  13.323
38446W        W99735  25.104  17.232   1.916
38447W        W99736   7.801   1.962  11.489
38448W        W99737  25.522  35.382   1.333
38449W        W99738  36.029   0.457   1.282
38450W        W99739  25.008   3.288   1.446
38451W        W99740   1.933  24.502  11.883
38452W        W99741  18.270   0.469  11.860
38453W        W99742  37.914  17.215   1.932
38454W        W99743   9.257  28.497   0.878
38455W        W99744  41.862  13.742   2.802
38456W        W99745   4.250  10.803   0.887
38457W        W99746  12.803  41.510  14.472
38458W        W99747  37.496  13.691  12.539
38459W        W99748  40.813   1.948   3.821
38460W        W99749  18.721  42.509  11.106
38461W        W99750  28.640  32.996   2.829
38462W        W99751  32.943  31.459  13.367
38463W        W99752   8.350  21.753  12.974
38464W        W99753  12.131   7.264   3.333
38465W        W99754  13.120  41.469   2.267
38466W        W99755   0.790  17.075   2.809
38467W        W99756  32.578  16.081   2.341
38468W        W99757  18.605  28.516  12.479
38469W        W99758  23.717   7.774   2.731
38470W        W99759  27.611  41.017   4.712
38471W        W99760  35.899  34.448   1.772
38472W        W99761   9.806   6.283  11.566
38473W        W99762   1.951  15.617  13.818
38474W        W99763  25.027  39.035   1.796
38475W        W99764  26.088  38.025  14.469
38476W        W99765  13.141   8.183   1.889
38477W        W99766  11.770   9.786  10.890
38478W        W99767  31.426  29.041   1.791
38479W        W99768  40.332  41.002  10.468
38480W        W99769  27.102   8.655  11.437
38481W        W99770  11.232  41.376  12.341
38482W        W99771  27.013   1.881   3.812
38483W        W99772   8.766  27.152  13.970
38484W        W99773  21.694  37.454   3.724
38485W        W99774   4.377  34.506   3.672
38486W        W99775  30.108  33.518   0.903
38487W        W99776  40.951  12.175   1.377
38488W        W99777  28.003  23.212  10.543
38489W        W99778  31.498  43.307   3.318
38490W        W99779  44.907  38.552  14.774
38491W        W99780  35.885  36.071  11.892
38492W        W99781  28.585  14.155   2.676
38493W        W99782  22.708  38.863  14.394
38494W        W99783  17.773   1.452   4.332
38495W        W99784  14.175   6.234   3.337
38496W        W99785   0.383  29.541   3.313
38497W        W99786  13.236  36.962  11.048
38498W        W99787  28.494  13.241  14.991
38499W        W99788  33.585  41.399  11.411
38500W        W99789  10.644  23.206  13.943
38501W        W99790  16.627  18.676   0.404
38502W        W99791  40.474   5.380  11.979
38503W        W99792  28.656  19.625   3.757
38504W        W99793  20.646  14.672  13.013
38505W        W99794  13.341  39.989  13.532
38506W        W99795  11.678  43.357   2.371
38507W        W99796  37.925  20.526   3.826
38508W        W99797  17.267   0.841  11.874
38509W        W99798  40.998   4.236   4.302
38510W        W99799  16.682  26.122   3.284
38511W        W99800  20.566  39.514   2.335
38512W        W99801  35.411   1.385   0.794
38513W        W99802  41.469   1.390   1.287
38514W        W99803  13.743  13.221  11.899
38515W        W99804   4.888  38.522  12.082
38516W        W99805  32.075  10.345  12.448
38517W        W99806  16.702  42.308  14.948
38518W        W99807  31.606   4.876   1.406
38519W        W99808  21.141  44.851   4.351
38520W        W99809  28.593   4.330   0.361
38521W        W99810  17.732  26.657  11.856
38522W        W99811  17.158   7.903  12.373
38523W        W99812  36.388  17.077  12.450
38524W        W99813   0.353  11.343   4.833
38525W        W99814  16.093   0.890   2.885
38526W        W99815  17.159  29.485   2.815
38527W        W99816  40.937  43.963  10.916
38528W        W99817   9.319  14.301   1.879
38529W        W99818  19.656   9.722   2.246
38530W        W99819  26.591  12.837  11.064
38531W        W99820  21.529  36.481  10.955
38532W        W99821  36.858   4.289   0.405
38533W        W99822   7.282  40.364  12.054
38534W        W99823   8.265   2.314   2.339
38535W        W99824   5.245  26.606  12.945
38536W        W99825  39.832  11.344  12.002
38537W        W99826  17.080  40.945  14.299
38538W        W99827  30.576  35.883  11.107
38539W        W99828  35.472   3.313  14.989
38540W        W99829   2.918  31.646   1.264
38541W        W99830  38.843  29.128   3.827
38542W        W99831  16.123   8.183  11.961
38543W        W99832   6.251  14.325   4.743
38544W        W99833   3.732  14.182   1.359
38545W        W99834  13.625  27.117  10.970
38546W        W99835  14.601   5.233   4.317
38547W        W99836  40.409  28.046   1.841
38548W        W99837   5.201   7.705   4.703
38549W        W99838  41.484  22.195   0.271
38550W        W99839   2.935  42.928   5.280
38551W        W99840  43.359   9.644   4.280
38552W        W99841  21.613  13.231  14.961
38553W        W99842  33.941   6.777  11.925
38554W        W99843  31.578   6.852   3.359
38555W        W99844  26.156  16.631   0.828
38556W        W99845   8.265  27.148  13.511
38557W        W99846   2.795  22.141  14.504
38558W        W99847  11.232  35.465   2.323
38559W        W99848  34.049  14.797   3.382
38560W        W99849  31.996  22.632  13.516
38561W        W99850  10.353  10.654   1.435
38562W        W99851   0.972  32.477   1.904
38563W        W99852   0.928  17.736  12.540
38564W        W99853  19.740   4.880  11.890
38565W        W99854   2.920  13.654   3.857
38566W        W99855  25.640  41.320   9.929
38567W        W99856   4.844  15.265   4.627
38568W        W99857   7.383  22.516  13.881
38569W        W99858   7.744  36.501   4.162
38570W        W99859  38.034   1.737   0.874
38571W        W99860   6.209   1.445  13.058
38572W        W99861   1.361   7.829  10.091
38573W        W99862  31.525  30.479   3.702
38574W        W99863   3.352  24.582   4.277
38575W        W99864  15.213  42.397  13.371
38576W        W99865  28.011  14.818   2.784
38577W        W99866  28.563   6.220  10.920
38578W        W99867   9.810  26.156  11.879
38579W        W99868  27.491   0.804  13.838
38580W        W99869  22.081  37.483  14.965
38581W        W99870  23.708  20.578   3.819
38582W        W99871  43.841  22.203   3.822
38583W        W99872  19.758  21.065   1.271
38584W        W99873   3.750  32.907  13.489
38585W        W99874  20.241   6.257  12.386
38586W        W99875  22.007  30.035   3.331
38587W        W99876   0.450  28.554  13.430
38588W        W99877  44.777  20.121  10.533
38589W        W99878  33.093   4.379   2.724
38590W        W99879  20.604  11.348  12.947
38591W        W99880  35.476  23.699   3.359
38592W        W99881  21.689  16.661   4.611
38593W        W99882  17.124  15.781   1.736
38594W        W99883  41.371  10.364   3.788
38595W        W99884   7.178  27.944  13.982
38596W        W99885  21.607  10.711   0.264
38597W        W99886  36.879  14.117   3.353
38598W        W99887  26.067  37.524  11.438
38599W        W99888   0.476   5.784  14.938
38600W        W99889   7.896  28.498  11.915
38601W        W99890  24.109   1.900  11.523
38602W        W99891  39.053  44.891  14.282
38603W        W99892  42.949  21.591   4.178
38604W        W99893   3.954  43.337   4.136
38605W        W99894  25.532  35.567   4.675
38606W        W99895  44.008  21.123   2.851
38607W        W99896  33.597  30.952   1.399
38608W        W99897  26.476  16.725   2.735
38609W        W99898  19.208   8.275   1.215
38610W        W99899  25.009  29.429   3.370
38611W        W99900  19.189  41.382  12.574
38612W        W99901  33.926  19.056   4.291
38613W        W99902  39.435  14.640  14.922
38614W        W99903  36.843   7.224  11.568
38615W        W99904  12.199  23.221   1.340
38616W        W99905   7.392  26.456   1.857
38617W        W99906   6.813   4.722   0.916
38618W        W99907   8.704  27.493   3.834
38619W        W99908  11.138  14.636  10.440
38620W        W99909  20.132  38.853   1.833
38621W        W99910  29.024  32.496   0.325
38622W        W99911  34.120  10.147  14.954
38623W        W99912   7.231  32.538  14.014
38624W        W99913  43.272  40.987   2.247
38625W        W99914   5.312  20.736  14.378
38626W        W99915   4.327  16.679  12.011
38627W        W99916  13.219  43.478  12.399
38628W        W99917  22.199  13.329  14.795
38629W        W99918  13.771   6.840  14.984
38630W        W99919   9.261   4.276   1.312
38631W        W99920   7.415  15.171   3.809
38632W        W99921  35.430  34.873   4.321
38633W        W99922   8.701   2.388  14.415
38634W        W99923  21.200  36.895  10.006
38635W        W99924  10.765  18.276   1.257
38636W        W99925  13.675  18.145  14.481
38637W        W99926  33.449  34.373  11.004
38638W        W99927  28.154  34.944  13.848
38639W        W99928   5.903  43.880  11.474
38640W        W99929   5.425   6.323  12.906
38641W        W99930  28.475  35.923   2.417
38642W        W99931  43.886  12.217   3.731
38643W        W99932  30.500  38.383  11.017
38644W        W99933   8.262   2.302   3.703
38645W        W99934  25.207  40.852  12.516
38646W        W99935  23.548  16.623   4.685
38647W        W99936  18.251  34.603   2.777
38648W        W99937   1.956  43.305  13.838
38649W        W99938  43.000  16.614   3.719
38650W        W99939  35.049  36.060  11.907
38651W        W99940  31.948  31.605  12.562
38652W        W99941   7.702  40.450   0.272
38653W        W99942   3.444  25.188   3.763
38654W        W99943   4.267   2.942  14.421
38655W        W99944  34.479  14.137  14.971
38656W        W99945  17.095  24.529  13.379
38657W        W99946  24.191  37.931   4.719
38658W        W99947   3.869  30.588  11.481
38659W        W99948  43.881  16.270  10.482
38660W        W99949  44.922  42.914  10.409
38661W        W99950  33.926  14.130  10.645
38662W        W99951  40.452  28.647   1.356
38663W        W99952  20.102   0.949   4.289
38664W        W99953  22.517  18.277  10.069
38665W        W99954  26.953  38.947  13.042
38666W        W99955  29.078   1.432  14.782
38667W        W99956  44.791   3.234   3.797
38668W        W99957  13.113  37.408  13.817
38669W        W99958  37.458  13.694  10.426
38670W        W99959  15.299  39.061   5.216
38671W        W99960  15.580  19.662   1.427
38672W        W99961   2.418  13.610  10.487
38673W        W99962  36.489   0.303  14.880
38674W        W99963  36.469   3.247  11.871
38675W        W99964  20.128  43.782  12.043
38676W        W99965  18.783  43.915   0.372
38677W        W99966  30.048   7.199   2.300
38678W        W99967   8.696  23.542   1.318
38679W        W99968   3.287  38.374   4.328
38680W        W99969  40.485  43.450   1.863
38681W        W99970  27.105   5.705  10.456
38682W        W99971   0.857  22.040   4.333
38683W        W99972   0.806  16.207   0.884
38684W        W99973  23.117   2.281   3.208
38685W        W99974  14.787  25.535  12.961
38686W        W99975  27.164  16.300  13.910
38687W        W99976  36.413  23.105  10.961
38688W        W99977   7.866  16.093  11.870
38689W        W99978  21.667   6.719   3.681
38690W        W99979  30.996  37.910  14.320
38691W        W99980  42.013  43.818   2.823
38692W        W99981  39.493  44.314   1.829
38693W        W99982  32.927  43.420  14.406
38694W        W99983   7.817   3.255   4.650
38695W        W99984  36.019  24.205  12.451
38696W        W99985  12.294   3.840  14.396
38697W        W99986  15.638  27.075   0.307
38698W        W99987  35.949  19.759   9.462
38699W        W99988   8.666  44.328   2.386
38700W        W99989  33.554  15.732   4.776
38701W        W99990   9.293   6.791   3.823
38702W        W99991   1.375  13.116   1.852
38703W        W99992  21.120  18.705  13.365
38704W        W99993  16.717  17.198  11.028
38705W        W99994  32.531  43.506  14.511
38706W        W99995  28.050  29.035   0.378
38707W        W99996   9.786   1.749   4.228
38708W        W99997  42.457  40.809  10.592
38709W        W99998  22.627  32.955   0.788
38710W        W99999   3.260  23.555  14.507
38711W        W    0  19.669   1.938   4.693
38712W        W    1  29.039  17.137   3.652
38713W        W    2  23.019  11.857   4.830
38714W        W    3  17.307  38.925   3.271
38715W        W    4  25.198   0.398   2.789
38716W        W    5  22.728  44.353   3.738
38717W        W    6  10.209   1.310   1.888
38718W        W    7  23.513  11.271   1.301
38719W        W    8  26.472  34.502  13.912
38720W        W    9  44.313  33.008  14.479
38721W        W   10  35.947   0.855   4.760
38722W        W   11   5.824  30.617  10.507
38723W        W   12  17.160  43.792   4.197
38724W        W   13  31.575  21.659   0.906
38725W        W   14  30.589  28.052  12.069
38726W        W   15  25.169  42.292  14.493
38727W        W   16  41.896   9.791  13.058
38728W        W   17  43.845   5.825  14.316
38729W        W   18  23.643   9.279  12.519
38730W        W   19  18.599   7.394  10.988
38731W        W   20  13.653   4.417   1.892
38732W        W   21   7.391   7.720   4.829
38733W        W   22  36.982  31.518   3.369
38734W        W   23  41.431  21.158  14.940
38735W        W   24  14.305  31.614  12.866
38736W        W   25  42.339  41.293  12.008
38737W        W   26  37.966   1.242   3.769
38738W        W   27  39.542  34.972   2.332
38739W        W   28  31.137  12.830  10.099
38740W        W   29  28.491  12.161   0.811
38741W        W   30  18.545  20.579  14.998
38742W        W   31   2.867  23.596   3.670
38743W        W   32  32.400  16.786   3.802
38744W        W   33  10.722   6.223   1.437
38745W        W   34  16.601  42.922  12.381
38746W        W   35  35.068  38.007  10.903
38747W        W   36  18.272   2.902  12.868
38748W        W   37   6.894  20.049  10.584
38749W        W   38   7.756   5.381   0.432
38750W        W   39  44.495  40.850   4.762
38751W        W   40  34.888  14.327   2.725
38752W        W   41  42.921   8.174   2.758
38753W        W   42  39.816   5.706   3.211
38754W        W   43  30.564  44.323   3.740
38755W        W   44   6.302  34.518  13.868
38756W        W   45  30.498  35.955  14.791
38757W        W   46   4.760  20.041  13.025
38758W        W   47  19.179   2.322   3.788
38759W        W   48  29.062   3.897   0.378
38760W        W   49  17.280  40.364  14.863
38761W        W   50  44.841  27.112   3.709
38762W        W   51   9.797   7.872  13.795
38763W        W   52  37.885   7.777   1.782
38764W        W   53   0.458   1.754  11.940
38765W        W   54  14.833   7.369   2.208
38766W        W   55   6.242   9.254  14.468
38767W        W   56   4.314  24.083   0.794
38768W        W   57  28.674  23.239   5.722
38769W        W   58  23.544  42.898   1.760
38770W        W   59  41.786  23.604   0.822
38771W        W   60   2.925  29.428  11.450
38772W        W   61  13.351   8.854   2.767
38773W        W   62  13.702  23.550  11.097
38774W        W   63  12.291  28.575  14.922
38775W        W   64  12.311  23.060  11.447
38776W        W   65  11.839   5.745  14.430
38777W        W   66  17.772  17.613  12.966
38778W        W   67  43.843   6.742  14.477
38779W        W   68  29.522  38.363  11.051
38780W        W   69   0.838   8.224   3.272
38781W        W   70  39.843  33.879   4.281
38782W        W   71  23.153  34.531  11.463
38783W        W   72  40.847  30.633  10.593
38784W        W   73  11.804  43.866  10.944
38785W        W   74  19.168  32.541  13.412
38786W        W   75  20.649   2.386  14.917
38787W        W   76  27.670   9.159  13.323
38788W        W   77   0.278  20.072  11.968
38789W        W   78  44.900   2.301  11.889
38790W        W   79  17.647  11.681  13.803
38791W        W   80   1.296  36.394  10.532
38792W        W   81  31.597  30.574   1.749
38793W        W   82  42.944  16.601   2.348
38794W        W   83  36.891  19.705  11.378
38795W        W   84   3.914  32.494  12.496
38796W        W   85   3.407   0.283  11.439
38797W        W   86   8.279   5.239  13.792
38798W        W   87  15.113  38.055   3.780
38799W        W   88  19.177  23.008   2.895
38800W        W   89  20.628  28.041   3.155
38801W        W   90  14.248  44.271  13.850
38802W        W   91  35.440  23.050  12.496
38803W        W   92  39.841  26.992   1.897
38804W        W   93  25.554   5.433   3.739
38805W        W   94  41.305   5.382  11.903
38806W        W   95  21.135  27.530   0.868
38807W        W   96  31.927  28.049  14.898
38808W        W   97  40.459   8.769  14.935
38809W        W   98   2.902  44.756   0.788
38810W        W   99  37.449  29.176  11.598
38811W        W  100  28.969  37.502   1.836
38812W        W  101  44.848   8.291   0.301
38813W        W  102  43.496   5.849   3.689
38814W        W  103  17.589   7.842  13.359
38815W        W  104   0.811  24.186   1.886
38816W        W  105  36.507   7.315   3.252
38817W        W  106  28.021  28.623   0.962
38818W        W  107  29.482  13.606   0.737
38819W        W  108   9.219  36.473  10.458
38820W        W  109  39.862  30.154  13.449
38821W        W  110  27.004  23.547   3.340
38822W        W  111  23.161  19.686  11.377
38823W        W  112  22.525   6.723   0.729
38824W        W  113  21.083   6.248   1.280
38825W        W  114  33.915  38.033  10.583
38826W        W  115   7.413  44.300   0.911
38827W        W  116  37.891   8.239  14.917
38828W        W  117  38.557   5.238   1.265
38829W        W  118  43.943  25.998  13.412
38830W        W  119  34.885  27.119  11.518
38831W        W  120   3.714   1.939   1.784
38832W        W  121   1.325  31.074   3.778
38833W        W  122  10.302  13.341  11.609
38834W        W  123  27.173   3.384  12.841
38835W        W  124  22.054  21.715   0.782
38836W        W  125   4.307  33.082  12.371
38837W        W  126  14.301   6.913   4.664
38838W        W  127  19.260  39.023   1.449
38839W        W  128  42.509   6.918  13.908
38840W        W  129   3.730   3.419   0.411
38841W        W  130  42.432  32.991  10.986
38842W        W  131   8.216   9.860  10.462
38843W        W  132  43.801  41.819   3.257
38844W        W  133   8.281  18.565  12.910
38845W        W  134  14.234   9.806  12.473
38846W        W  135   7.681  19.276  11.927
38847W        W  136  33.493  39.904   4.826
38848W        W  137  15.209  32.059  11.860
38849W        W  138  12.128  43.900   9.616
38850W        W  139  41.492  42.987  14.916
38851W        W  140  28.959   2.771  13.964
38852W        W  141   8.252  34.058  12.914
38853W        W  142  41.839  23.032   0.729
38854W        W  143   7.257   9.392   3.171
38855W        W  144  10.325  41.869   1.840
38856W        W  145  11.655  44.420  13.542
38857W        W  146  36.007  44.892   0.808
38858W        W  147  36.081  24.182  14.774
38859W        W  148  31.055  26.487  14.795
38860W        W  149  40.028  42.431  11.034
38861W        W  150  33.507  34.100  14.458
38862W        W  151   2.908   8.746   0.742
38863W        W  152  41.893   0.835  12.539
38864W        W  153  38.548  26.686  12.931
38865W        W  154  40.846  37.854  13.317
38866W        W  155  32.560  11.682   1.788
38867W        W  156  36.566   9.819   0.303
38868W        W  157  25.608  23.018  14.886
38869W        W  158  39.042   2.799   3.308
38870W        W  159   7.694  15.158   0.893
38871W        W  160   5.346   5.825  10.486
38872W        W  161  25.133   6.794  10.091
38873W        W  162  22.112  15.223  13.546
38874W        W  163  36.361  23.592   2.320
38875W        W  164   3.346   1.307   3.304
38876W        W  165  38.488   2.290   0.454
38877W        W  166   5.271  15.756   1.366
38878W        W  167  44.399  43.913  13.023
38879W        W  168  42.351  24.510   2.715
38880W        W  169  42.781  34.017   1.819
38881W        W  170  36.094  20.150   2.349
38882W        W  171  42.868  25.528  13.004
38883W        W  172   2.882  32.436   2.818
38884W        W  173  30.483  12.282   2.798
38885W        W  174  19.648  26.515   4.743
38886W        W  175   7.396  12.308  13.519
38887W        W  176  27.192  26.159  14.833
38888W        W  177  40.921   7.755   2.327
38889W        W  178   6.400  39.980   2.867
38890W        W  179  11.833  13.661   3.813
38891W        W  180   0.320  44.351  11.867
38892W        W  181  37.441  32.938  11.991
38893W        W  182  13.318  19.074  10.927
38894W        W  183  14.733  36.864   3.358
38895W        W  184  20.728  33.553   0.927
38896W        W  185   6.891  35.508   0.368
38897W        W  186   6.680   5.821   0.349
38898W        W  187  15.607  21.599   3.776
38899W        W  188  33.461   5.415   0.434
38900W        W  189  17.250   1.371   2.799
38901W        W  190  30.521   6.888  11.402
38902W        W  191  23.137  38.551  11.950
38903W        W  192  40.531  14.234   2.748
38904W        W  193   4.390  21.228  12.845
38905W        W  194  36.430  40.006   4.784
38906W        W  195  25.124  20.269   5.259
38907W        W  196  27.183  34.508  14.977
38908W        W  197  25.023  44.778   2.763
38909W        W  198   4.218   6.346   0.959
38910W        W  199  33.444  37.994  11.399
38911W        W  200  16.210  28.464  11.010
38912W        W  201  16.663  44.865  13.062
38913W        W  202   1.327  35.479   1.450
38914W        W  203  15.130   8.305   4.185
38915W        W  204  21.646  34.476   1.305
38916W        W  205  44.763  20.185   3.196
38917W        W  206  24.710  35.003  12.478
38918W        W  207  21.719  43.000   4.606
38919W        W  208  41.342  40.864   1.389
38920W        W  209  29.078  16.681  13.931
38921W        W  210   9.754  43.500   2.262
38922W        W  211  10.725   8.697  14.409
38923W        W  212   7.735   1.936   2.823
38924W        W  213  14.804  21.564   0.389
38925W        W  214  28.596  31.459   4.115
38926W        W  215  17.296  13.159   2.798
38927W        W  216  36.073  11.752   2.877
38928W        W  217  27.562  39.425   1.757
38929W        W  218  25.136  21.672   1.400
38930W        W  219  38.381  12.359   1.349
38931W        W  220  15.596  44.350   4.789
38932W        W  221  30.595  26.190  14.778
38933W        W  222  31.483  25.986   2.817
38934W        W  223   7.831  33.581  14.440
38935W        W  224   1.810  40.479   0.389
38936W        W  225   0.866   0.935  14.448
38937W        W  226   7.692  42.839  11.968
38938W        W  227  13.824  12.248  10.421
38939W        W  228  39.333   0.347  11.495
38940W        W  229  36.543  44.422  12.907
38941W        W  230  27.577   1.884  14.796
38942W        W  231  35.963  13.234  13.368
38943W        W  232  38.466  24.033  13.832
38944W        W  233  17.765   5.401   3.247
38945W        W  234  27.039  10.702   1.347
38946W        W  235  43.818  14.190   0.827
38947W        W  236   3.337  41.369  13.973
38948W        W  237  18.268  32.109   1.232
38949W        W  238   0.791  26.068   1.869
38950W        W  239  14.171   6.917   0.954
38951W        W  240  27.069  21.607  11.864
38952W        W  241  30.115  38.909   3.732
38953W        W  242  13.133  29.921   4.610
38954W        W  243  24.721  29.103  13.991
38955W        W  244  36.047  31.983  13.973
38956W        W  245  25.611  39.972  14.894
38957W        W  246  26.034   2.422   0.732
38958W        W  247  20.750  28.040   2.881
38959W        W  248   0.404  33.087   3.321
38960W        W  249  32.101   0.298  14.385
38961W        W  250  13.315   0.292   1.722
38962W        W  251  34.450  12.120  11.514
38963W        W  252  38.004  39.060  13.846
38964W        W  253  27.993  24.001   3.806
38965W        W  254  25.046  39.414   2.882
38966W        W  255  28.666  38.866   0.910
38967W        W  256  18.186  15.237   0.727
38968W        W  257  44.472  25.064   0.355
38969W        W  258  13.200  12.813   4.678
38970W        W  259   9.757  12.756  10.636
38971W        W  260  37.437  38.433   4.239
38972W        W  261  11.361   1.761   2.735
38973W        W  262  16.614  31.942  12.891
38974W        W  263  15.185  10.751  10.921
38975W        W  264   0.406  44.000   1.303
38976W        W  265  20.670   3.371   3.696
38977W        W  266   5.382  30.555   1.807
38978W        W  267  27.615  14.254   0.951
38979W        W  268  22.234  13.105   1.901
38980W        W  269  43.296   0.883  10.520
38981W        W  270  13.334  11.162   0.395
38982W        W  271  19.679   1.320  11.380
38983W        W  272  42.455   6.261   4.733
38984W        W  273  18.642  25.609  11.525
38985W        W  274  20.076   7.203  12.419
38986W        W  275   2.406   9.298  12.049
38987W        W  276   7.692   4.303  14.883
38988W        W  277  37.512  15.816  11.522
38989W        W  278  30.657  32.490  10.610
38990W        W  279  44.985  20.259   4.242
38991W        W  280  34.920  29.435  13.317
38992W        W  281  29.580  21.045   0.268
38993W        W  282  38.346  11.246   4.168
38994W        W  283   7.688  18.643   3.809
38995W        W  284  21.044  25.067   2.844
38996W        W  285  31.455  43.497  10.491
38997W        W  286   3.926  37.563   4.345
38998W        W  287  23.552  18.769   0.776
38999W        W  288  15.098   4.805   0.788
39000W        W  289  22.556   0.265   3.269
39001W        W  290  10.678  13.682   2.670
39002W        W  291  24.042  44.311  10.932
39003W        W  292   7.834  30.638  14.374
39004W        W  293  18.169   6.734   0.323
39005W        W  294  38.393   7.807   2.778
39006W        W  295   1.956  18.202   4.237
39007W        W  296  15.323  40.918  12.915
39008W        W  297  41.822   0.468   3.636
39009W        W  298  32.081  29.961  10.959
39010W        W  299   9.644  33.095  12.974
39011W        W  300  15.744  32.999  10.605
39012W        W  301   7.404   1.891   1.281
39013W        W  302  21.621  31.545  11.057
39014W        W  303  16.225   2.365   0.431
39015W        W  304  14.168  37.492   0.472
39016W        W  305  11.166  41.396   3.261
39017W        W  306  40.394   3.240  12.422
39018W        W  307  42.341  11.638  10.488
39019W        W  308  36.958  16.658   3.779
39020W        W  309  15.737  30.145  10.455
39021W        W  310  21.743  11.363   1.882
39022W        W  311  27.617  42.434   2.202
39023W        W  312  44.926  20.238  14.347
39024W        W  313  13.797   7.667  12.387
39025W        W  314  24.564   9.297  13.871
39026W        W  315  32.028  38.847   0.419
39027W        W  316  40.992   3.443   0.292
39028W        W  317  44.406  30.102   3.708
39029W        W  318  43.394  36.579  14.995
39030W        W  319  17.696  28.545   1.857
39031W        W  320  38.515  18.248   2.725
39032W        W  321  18.611  17.706   0.770
39033W        W  322  32.967  41.996   3.183
39034W        W  323  43.956   0.746   1.300
39035W        W  324   8.706   0.924  12.867
39036W        W  325  43.465  17.180  12.992
39037W        W  326  41.902  24.669  14.997
39038W        W  327   2.311  35.591  10.525
39039W        W  328  13.669   4.444   0.424
39040W        W  329  32.611  25.129   1.335
39041W        W  330  37.410  12.633   3.178
39042W        W  331  19.535  37.463   1.335
39043W        W  332  20.675   1.739  10.944
39044W        W  333  21.187  35.002   1.754
39045W        W  334   2.907  34.538   1.698
39046W        W  335  11.850  39.356  14.372
39047W        W  336  35.385  35.424   0.848
39048W        W  337  36.943  39.974  12.059
39049W        W  338  19.558   3.398  12.369
39050W        W  339  24.222  41.914   4.188
39051W        W  340  12.817  10.712   0.807
39052W        W  341  32.983   9.212   2.374
39053W        W  342  22.062  13.720  12.882
39054W        W  343  13.620  37.394   3.147
39055W        W  344  12.339  42.345  11.445
39056W        W  345  15.101  41.935   0.821
39057W        W  346   5.786  40.385  14.483
39058W        W  347   9.322  24.121  13.426
39059W        W  348   5.881  22.519  10.090
39060W        W  349  36.068  42.871  11.534
39061W        W  350  36.958  39.966   1.882
39062W        W  351  33.016  38.527   3.152
39063W        W  352  28.930  20.723   0.243
39064W        W  353  15.320  36.980   0.260
39065W        W  354  29.554   5.696   3.325
39066W        W  355   2.806  28.179   0.807
39067W        W  356  23.597  13.163  12.432
39068W        W  357  32.022  24.694   1.743
39069W        W  358  35.498  19.584   3.651
39070W        W  359  34.523  42.015   4.127
39071W        W  360  10.632   0.248   0.753
39072W        W  361  12.330  12.259  14.337
39073W        W  362  10.375  18.050  13.881
39074W        W  363  36.977   1.428   3.178
39075W        W  364  19.738   5.417   1.232
39076W        W  365   5.753  12.279   4.124
39077W        W  366  22.189   4.712  14.508
39078W        W  367  20.201  27.631  12.056
39079W        W  368  43.324  43.944  11.098
39080W        W  369  28.152  21.113  11.577
39081W        W  370  17.610  21.096  10.944
39082W        W  371   7.232   8.368   1.333
39083W        W  372  19.171  22.160  11.101
39084W        W  373  23.062   1.904   3.157
39085W        W  374  35.082  22.715  13.368
39086W        W  375  12.129  23.603   4.640
39087W        W  376  16.207  23.993   4.211
39088W        W  377   8.772  22.690  10.448
39089W        W  378  35.472   6.827   3.675
39090W        W  379  30.162  27.580   1.914
39091W        W  380  33.096  20.582   1.827
39092W        W  381  10.163   6.713   3.342
39093W        W  382  44.812  14.610   3.753
39094W        W  383  40.014  19.258   2.319
39095W        W  384  26.525  38.480   3.235
39096W        W  385  13.189  37.491  12.082
39097W        W  386   6.768  38.952   2.408
39098W        W  387  16.306  42.824  12.837
39099W        W  388  44.363  25.105  13.494
39100W        W  389  14.715  32.941   2.256
39101W        W  390  25.532  32.488   0.355
39102W        W  391  38.485  17.627   0.288
39103W        W  392  15.691  13.808  14.372
39104W        W  393  15.708  37.429   2.723
39105W        W  394  43.406  44.266  12.484
39106W        W  395  44.428  42.849   1.248
39107W        W  396  14.804  12.239   3.260
39108W        W  397   0.422   3.810   0.747
39109W        W  398  32.554  21.195   0.390
39110W        W  399  39.427  21.203  12.404
39111W        W  400  40.510  34.922  14.897
39112W        W  401  25.549  40.498  14.338
39113W        W  402  43.468  19.070  11.884
39114W        W  403  33.095  26.477  12.848
39115W        W  404  23.618  44.352   0.342
39116W        W  405  20.201   3.381  14.478
39117W        W  406  39.462  25.592  12.920
39118W        W  407   1.892  31.544  11.591
39119W        W  408  26.136  27.618  14.341
39120W        W  409  15.325  43.953   2.810
39121W        W  410  25.210   3.237   4.290
39122W        W  411  40.433  24.180  10.570
39123W        W  412  25.134   8.727   1.710
39124W        W  413  39.031   9.227  13.380
39125W        W  414  33.105  37.995   3.744
39126W        W  415  35.601  29.133   1.753
39127W        W  416  39.834  39.016  12.008
39128W        W  417  39.448   2.345   4.320
39129W        W  418  34.460  37.480  12.546
39130W        W  419  17.167  10.790   4.166
39131W        W  420  12.694  26.200  13.434
39132W        W  421  15.809   0.344   4.712
39133W        W  422  18.729  43.318  13.399
39134W        W  423  15.157  14.302  14.483
39135W        W  424  26.631   7.283  10.018
39136W        W  425  25.699  19.180   4.143
39137W        W  426  17.603  10.300  13.899
39138W        W  427   7.805   4.214  10.955
39139W        W  428  12.144  33.063  14.914
39140W        W  429  33.553  22.582   4.638
39141W        W  430  40.944  14.279   2.692
39142W        W  431  25.138   3.398  14.899
39143W        W  432  31.941   8.778   0.783
39144W        W  433  37.997  24.565   2.316
39145W        W  434  31.448  31.543   3.310
39146W        W  435   4.878  40.007   0.277
39147W        W  436   9.356  11.198  12.413
39148W        W  437  42.367  35.476   2.685
39149W        W  438   5.933  13.127   0.939
39150W        W  439  16.643   7.829   1.826
39151W        W  440  18.095   7.739   0.748
39152W        W  441  25.563  18.641   4.233
39153W        W  442   6.747  23.687   1.320
39154W        W  443  17.774   5.301   4.661
39155W        W  444  35.908  11.313  13.502
39156W        W  445  28.493  44.434  11.954
39157W        W  446  19.222  20.735  12.065
39158W        W  447   3.300  35.552   4.337
39159W        W  448  14.246  27.070  13.480
39160W        W  449  16.272  19.751  13.918
39161W        W  450   2.467  15.629  10.603
39162W        W  451  30.952  30.049  11.069
39163W        W  452  22.118  38.881  10.932
39164W        W  453  30.047  10.737  13.374
39165W        W  454  17.748  11.809   2.274
39166W        W  455  31.124  20.191  14.870
39167W        W  456  14.654  29.435   3.211
39168W        W  457  25.040   2.374  12.346
39169W        W  458   9.651  41.930   1.380
39170W        W  459  42.331  30.007  11.865
39171W        W  460   2.786   2.325   0.734
39172W        W  461  23.560  12.250  10.461
39173W        W  462  41.018  42.464  14.947
39174W        W  463  35.504  27.128   1.910
39175W        W  464  35.866  17.077   4.713
39176W        W  465  41.874  33.397   3.328
39177W        W  466  28.010  21.195   2.682
39178W        W  467  12.822  10.254  10.608
39179W        W  468  31.468  15.260   3.802
39180W        W  469  14.319  39.383  14.458
39181W        W  470  16.190  40.415  14.408
39182W        W  471   3.433  20.142   3.862
39183W        W  472  34.605  14.205   0.744
39184W        W  473   8.873  37.503   4.193
39185W        W  474   2.890   0.752   2.813
39186W        W  475  33.958  24.658   3.264
39187W        W  476  27.504  30.603  12.946
39188W        W  477  31.079  31.617  12.069
39189W        W  478  38.871  35.104  11.065
39190W        W  479  40.992  23.036   4.724
39191W        W  480  26.199  35.053   3.843
39192W        W  481  31.143   6.838  10.630
39193W        W  482  34.421   7.398  13.307
39194W        W  483  38.331  35.065   1.730
39195W        W  484  30.949  12.223   1.775
39196W        W  485  17.638  30.106  14.905
39197W        W  486  15.805  35.403  10.465
39198W        W  487  39.809  14.745  12.995
39199W        W  488  23.158  40.809  14.896
39200W        W  489  28.956  29.657   3.195
39201W        W  490  17.245  43.887  13.416
39202W        W  491   5.354  42.971   0.287
39203W        W  492  12.289  13.139  14.481
39204W        W  493  30.005  44.292   2.877
39205W        W  494  19.709  36.082  14.495
39206W        W  495  42.404  23.724   0.269
39207W        W  496  32.540  22.212  14.407
39208W        W  497   9.384   8.278   2.362
39209W        W  498   2.726  32.110  14.372
39210W        W  499  10.780  29.947  13.927
39211W        W  500   8.381  30.138  11.480
39212W        W  501  33.018  36.549  14.864
39213W        W  502   6.769  16.093   2.690
39214W        W  503  16.770  39.383   4.627
39215W        W  504  22.562  42.305   4.711
39216W        W  505  11.686   3.250   2.306
39217W        W  506  28.434  37.052   4.833
39218W        W  507  42.294  33.624   1.723
39219W        W  508  17.101  16.649   4.608
39220W        W  509  26.044  10.682   3.354
39221W        W  510  38.415   1.249  14.965
39222W        W  511  29.449  38.351   3.189
39223W        W  512   0.828   9.262  12.450
39224W        W  513  25.646   8.163  13.931
39225W        W  514  41.822  15.163  12.871
39226W        W  515  14.338  11.635  14.433
39227W        W  516  14.739  12.656   9.992
39228W        W  517  26.578   2.761   3.228
39229W        W  518  17.156  13.843  13.491
39230W        W  519  27.661  29.006   4.766
39231W        W  520  41.886   8.729  12.922
39232W        W  521  30.086  24.526   2.359
39233W        W  522  19.625  38.521  14.868
39234W        W  523   7.297   0.434  13.903
39235W        W  524   3.855  32.904  14.308
39236W        W  525  15.109  21.103  13.427
39237W        W  526  42.288  44.906  10.569
39238W        W  527  24.209  26.197   3.810
39239W        W  528  39.549  41.848   4.605
39240W        W  529  36.391   6.846  13.051
39241W        W  530  16.646  41.438  14.905
39242W        W  531   6.879  37.859   1.230
39243W        W  532   0.823   9.265   4.668
39244W        W  533   0.982  30.418  11.982
39245W        W  534  32.586  42.970   1.243
39246W        W  535  26.014   9.340   0.892
39247W        W  536  38.002   8.729  10.452
39248W        W  537  30.941   1.829  11.915
39249W        W  538   8.681  15.147   2.669
39250W        W  539  14.327  44.857  11.078
39251W        W  540  28.530  25.668   1.449
39252W        W  541   3.406   2.394  14.900
39253W        W  542  34.605  33.903  11.028
39254W        W  543   6.212   0.787  10.493
39255W        W  544  39.946  43.472   0.375
39256W        W  545  15.146   9.226   2.871
39257W        W  546  27.165  11.303   0.935
39258W        W  547  22.026   2.909   2.330
39259W        W  548  11.251  43.463   1.219
39260W        W  549  24.558  29.031   2.870
39261W        W  550  37.348  22.578   4.231
39262W        W  551  23.146   6.830   0.932
39263W        W  552   0.889   0.250  14.798
39264W        W  553  39.863  22.708   2.818
39265W        W  554  32.937  19.734  12.551
39266W        W  555  36.547   9.165   2.417
39267W        W  556  27.532   7.299   5.587
39268W        W  557  17.590  35.930  11.937
39269W        W  558  13.118  10.193   2.404
39270W        W  559  34.972  29.075  13.512
39271W        W  560   8.174  15.654   1.375
39272W        W  561   3.264  20.696   3.850
39273W        W  562  26.137  32.442   0.446
39274W        W  563   8.327  21.725  13.495
39275W        W  564  25.688  33.988  12.928
39276W        W  565  14.695  18.052  13.814
39277W        W  566  15.121  39.470   9.582
39278W        W  567  10.643   8.847   1.266
39279W        W  568  10.271  31.485  10.035
39280W        W  569  25.654  38.829   3.732
39281W        W  570  22.670   6.210   0.785
39282W        W  571  44.929  24.543   2.888
39283W        W  572  15.817  16.618   3.286
39284W        W  573  34.388  41.452  11.481
39285W        W  574   8.792  13.336   4.699
39286W        W  575   3.873  22.233   4.601
39287W        W  576  43.814  42.016   4.161
39288W        W  577   1.433  39.493   1.887
39289W        W  578  24.980   4.843   3.320
39290W        W  579  19.230  37.858  11.442
39291W        W  580  15.652  28.960   1.809
39292W        W  581  22.614  43.467   3.375
39293W        W  582   5.438   1.422   0.311
39294W        W  583  33.620  26.563  14.914
39295W        W  584  38.539  43.293  13.897
39296W        W  585  36.459   8.681   2.390
39297W        W  586  28.143  21.211   1.715
39298W        W  587   3.235   3.872   2.823
39299W        W  588  14.256  31.923  12.441
39300W        W  589  20.526  20.741   1.925
39301W        W  590  27.551  44.418  11.546
39302W        W  591  29.525   1.872  11.957
39303W        W  592  12.171  13.781   0.294
39304W        W  593  44.350   7.175   3.742
39305W        W  594   1.937  20.565  14.503
39306W        W  595  21.079  41.908   3.826
39307W        W  596  24.516  27.677  14.977
39308W        W  597  11.295  20.733  12.547
39309W        W  598   2.416  10.193  13.969
39310W        W  599  15.740  33.507   1.305
39311W        W  600  30.940  18.707   1.776
39312W        W  601  20.243  15.778   3.386
39313W        W  602  40.423   5.926  12.057
39314W        W  603   9.196   7.711  11.056
39315W        W  604  14.299  12.256   0.925
39316W        W  605  28.109   5.839   2.687
39317W        W  606  11.734  15.151  11.544
39318W        W  607  39.988   9.324   4.641
39319W        W  608   8.340  33.402   5.698
39320W        W  609  19.655   1.854  13.394
39321W        W  610   4.859  24.517   0.757
39322W        W  611  33.059  11.796  13.843
39323W        W  612  26.951  11.723  12.092
39324W        W  613  11.253  29.567   1.277
39325W        W  614   5.811  17.249  12.859
39326W        W  615  26.496  44.432  12.968
39327W        W  616   2.738  35.065  11.088
39328W        W  617  19.172  17.200  11.579
39329W        W  618  31.491  35.898  12.346
39330W        W  619  13.214  36.020  11.437
39331W        W  620  20.556  37.947   3.823
39332W        W  621   0.756  30.433  11.517
39333W        W  622  14.171  36.590   1.923
39334W        W  623  34.018  40.841  13.415
39335W        W  624   3.766   9.851  14.941
39336W        W  625  30.937  27.549  13.958
39337W        W  626  14.222  29.464  11.897
39338W        W  627  30.920  26.195  11.545
39339W        W  628   9.780  22.560   2.238
39340W        W  629   3.871   7.192  14.916
39341W        W  630  26.104  30.143   0.869
39342W        W  631  33.552  26.962  11.392
39343W        W  632   1.480  21.073  14.488
39344W        W  633  13.667  27.100  10.559
39345W        W  634   0.787  15.295  11.966
39346W        W  635  19.166   8.301   1.754
39347W        W  636  14.744   7.395   1.919
39348W        W  637   1.276  16.718   0.459
39349W        W  638  16.770  14.632   0.763
39350W        W  639  18.663   1.786   4.768
39351W        W  640  42.994  37.015  13.869
39352W        W  641  20.123  44.849   1.368
39353W        W  642  39.873  16.733  14.766
39354W        W  643  40.958  39.059  10.119
39355W        W  644   4.345  13.247   0.369
39356W        W  645  41.969   7.207  11.417
39357W        W  646  34.571   7.725  11.465
39358W        W  647   5.278  15.317  13.539
39359W        W  648  10.144  14.287  13.030
39360W        W  649   4.274  19.677  14.765
39361W        W  650  17.223  32.065  11.990
39362W        W  651  29.035  28.675  11.022
39363W        W  652  38.911   8.687   5.219
39364W        W  653  24.525   1.303  12.992
39365W        W  654  23.673  40.896  14.986
39366W        W  655  16.285   1.460  12.011
39367W        W  656  20.250   2.472  10.630
39368W        W  657  15.662  20.161  10.119
39369W        W  658  28.654  38.354  14.832
39370W        W  659  38.465  38.366   2.675
39371W        W  660   8.782  39.436   4.305
39372W        W  661  38.882   1.774   3.210
39373W        W  662  38.561  34.613  11.392
39374W        W  663   9.761  35.425   5.625
39375W        W  664  13.296  31.485  10.532
39376W        W  665  17.130   7.280  10.112
39377W        W  666  13.135  11.689  12.579
39378W        W  667  27.522  22.573  12.353
39379W        W  668  32.120  41.996   1.322
39380W        W  669   8.192  43.395  12.522
39381W        W  670  37.925   5.375  10.421
39382W        W  671   4.932  12.688  13.494
39383W        W  672  44.313  37.443  10.417
39384W        W  673   7.385  30.485  13.484
39385W        W  674  25.995  37.468  11.887
39386W        W  675  34.589  26.681  10.430
39387W        W  676  35.861  28.593  10.924
39388W        W  677  35.046  15.786   3.248
39389W        W  678  36.506   5.259   2.827
39390W        W  679  24.565  33.043  11.966
39391W        W  680   5.726   7.380   0.909
39392W        W  681  12.134   1.815  11.461
39393W        W  682  38.054  14.287   3.184
39394W        W  683   1.738  21.158  14.322
39395W        W  684   0.278  10.286  10.565
39396W        W  685  12.328  23.534  11.859
39397W        W  686  26.693  28.479  12.506
39398W        W  687   5.323  25.143  11.571
39399W        W  688  15.306   0.937  12.395
39400W        W  689  23.625  15.605  14.960
39401W        W  690   0.790  32.610   2.861
39402W        W  691  18.294   5.786  11.394
39403W        W  692  24.535  25.196   1.383
39404W        W  693  33.565   5.895   5.219
39405W        W  694  27.608  22.102  13.950
39406W        W  695  15.201  20.626  14.417
39407W        W  696  39.385  13.762   0.811
39408W        W  697   5.433   4.438   1.406
39409W        W  698  11.843  25.542   4.765
39410W        W  699  23.518  40.482  11.052
39411W        W  700   9.720  10.225   2.291
39412W        W  701  15.092  44.457   0.247
39413W        W  702  25.619  24.195  14.005
39414W        W  703   7.267  27.522  12.481
39415W        W  704  39.357  19.714  12.553
39416W        W  705  41.370   6.384   3.866
39417W        W  706  35.444  18.068   3.674
39418W        W  707  23.146  20.685  14.972
39419W        W  708   3.922  31.087  14.994
39420W        W  709  23.207   5.318  12.953
39421W        W  710  11.865  19.254   4.630
39422W        W  711  31.520   8.899  12.868
39423W        W  712  24.663  14.679   2.849
39424W        W  713  23.153  33.522  13.818
39425W        W  714  39.857  38.469  14.400
39426W        W  715  35.043   2.870  13.860
39427W        W  716   3.720  42.847   4.770
39428W        W  717  19.593   6.917  11.599
39429W        W  718  39.931  11.753   2.402
39430W        W  719   1.769  43.002  10.482
39431W        W  720   8.722   6.391   0.755
39432W        W  721   3.255  24.109   4.719
39433W        W  722  40.539  25.474  13.508
39434W        W  723  43.976   0.302  14.437
39435W        W  724  37.038   6.736   0.453
39436W        W  725  31.425  23.715   1.886
39437W        W  726   0.402  33.026   3.764
39438W        W  727  34.897  33.472   2.837
39439W        W  728  43.874  23.186   1.238
39440W        W  729   6.244  43.464  13.381
39441W        W  730  25.539  13.713   2.229
39442W        W  731  41.509  39.425   0.420
39443W        W  732  16.300   0.844   3.283
39444W        W  733  32.886  39.413  13.917
39445W        W  734  12.169   5.357  13.527
39446W        W  735  12.796  33.985   3.657
39447W        W  736  12.265   1.875  14.314
39448W        W  737  39.882  23.510   4.781
39449W        W  738   7.173   7.803   4.144
39450W        W  739  44.439  37.537   5.189
39451W        W  740  38.902  30.503   1.931
39452W        W  741  32.449  25.548  12.444
39453W        W  742  38.069  27.503   0.867
39454W        W  743  10.354   1.807   1.887
39455W        W  744  43.417   2.346  14.509
39456W        W  745  31.562  22.059   1.873
39457W        W  746   5.305  24.509   1.410
39458W        W  747  42.482  33.412  11.106
39459W        W  748   1.373  38.918   3.670
39460W        W  749  26.472   2.762  10.961
39461W        W  750  29.922  18.197   4.794
39462W        W  751  20.666  19.542  13.341
39463W        W  752  36.363  28.087   0.740
39464W        W  753  39.333   5.755  13.411
39465W        W  754  10.789  13.711  10.618
39466W        W  755  23.166  23.678  14.963
39467W        W  756  25.620  34.489  11.599
39468W        W  757  19.676  22.646   4.718
39469W        W  758   3.316  25.994  10.006
39470W        W  759   3.900  15.154  13.916
39471W        W  760   3.446  14.304  11.032
39472W        W  761   4.343  26.516   4.773
39473W        W  762  22.572  37.386  13.940
39474W        W  763  42.933  20.549   1.908
39475W        W  764  31.452  14.690   0.961
39476W        W  765  42.943   5.803   1.245
39477W        W  766  40.959  15.729   4.123
39478W        W  767  33.912  21.754  14.825
39479W        W  768  35.994  14.626  11.462
39480W        W  769  24.087   9.326   2.281
39481W        W  770  35.046  17.672   1.422
39482W        W  771  44.387  43.957  13.405
39483W        W  772  24.687   5.918  12.358
39484W        W  773   9.850  38.476  14.402
39485W        W  774  14.698   7.788   1.695
39486W        W  775  24.718  33.508  14.343
39487W        W  776   4.414   0.754   1.903
39488W        W  777  27.039  34.469   2.314
39489W        W  778  22.029  22.142  13.412
39490W        W  779  13.702   0.987   1.226
39491W        W  780  42.338  33.047   4.180
39492W        W  781  34.512  34.950   3.793
39493W        W  782  41.845  27.173   3.359
39494W        W  783   1.425  41.339   3.834
39495W        W  784  22.102   0.401  14.005
39496W        W  785  39.992  13.286  12.347
39497W        W  786  17.223  12.820   0.896
39498W        W  787  35.042  19.647  12.424
39499W        W  788  42.899  43.427  11.565
39500W        W  789  31.470  27.072   3.806
39501W        W  790  10.651  34.434   1.261
39502W        W  791  29.574   9.762   1.331
39503W        W  792  15.224  43.820  13.850
39504W        W  793  14.168   6.819   4.215
39505W        W  794  42.919  28.950   1.842
39506W        W  795  30.151  18.123   0.280
39507W        W  796  12.613   7.281  11.020
39508W        W  797  37.007   4.403   1.367
39509W        W  798  38.043  23.009   0.258
39510W        W  799  20.165  15.102  11.932
39511W        W  800   4.351  16.198  13.952
39512W        W  801  27.103  42.983   3.378
39513W        W  802  14.762   0.367   0.824
39514W        W  803  28.559  14.648   3.210
39515W        W  804  13.640  10.231  14.926
39516W        W  805  38.520  21.043  10.464
39517W        W  806  13.723   4.381  14.790
39518W        W  807  25.641   6.687  13.035
39519W        W  808  35.923  12.353  12.866
39520W        W  809  32.568  21.102   2.373
39521W        W  810  36.590  43.786   3.703
39522W        W  811  11.128  27.079  11.526
39523W        W  812  28.656  42.996  11.467
39524W        W  813  33.010   8.897   4.189
39525W        W  814   3.734   0.456   0.949
39526W        W  815  25.548  26.109  14.011
39527W        W  816  39.552   7.766  12.829
39528W        W  817  16.646  25.019  14.446
39529W        W  818   8.367  37.390  11.471
39530W        W  819   6.423  29.623  14.826
39531W        W  820   7.362  22.736   4.801
39532W        W  821   0.341  32.556  11.968
39533W        W  822  30.642  16.300   0.451
39534W        W  823   2.957   9.379  12.001
39535W        W  824   0.848  21.087   4.687
39536W        W  825  37.433  13.759   4.782
39537W        W  826  11.216  15.199  14.491
39538W        W  827  42.337  26.648  14.947
39539W        W  828  44.310  42.309  14.927
39540W        W  829  34.055  10.817   4.222
39541W        W  830  39.318  14.206   4.229
39542W        W  831  17.131   0.317  12.842
39543W        W  832  28.079  29.641  12.846
39544W        W  833  14.785  30.084  14.515
39545W        W  834  31.409  42.403  11.532
39546W        W  835   0.266  40.799   1.216
39547W        W  836  27.195  11.837  14.396
39548W        W  837  26.463   1.429  10.601
39549W        W  838  15.760  17.625  12.492
39550W        W  839  43.322  44.833   0.853
39551W        W  840   0.261  10.148   0.931
39552W        W  841  36.394  41.791   3.780
39553W        W  842  41.462  16.272   3.241
39554W        W  843  44.380  32.484   4.683
39555W        W  844   4.416  10.799   3.294
39556W        W  845  22.668  14.180   0.323
39557W        W  846  11.737  17.739  13.025
39558W        W  847  15.302  15.171  11.587
39559W        W  848  25.508  30.556   2.322
39560W        W  849  21.723  26.569   2.719
39561W        W  850   8.752  15.136  14.021
39562W        W  851  13.303  15.779  12.384
39563W        W  852  29.628   6.185  13.320
39564W        W  853  26.675  40.546   3.823
39565W        W  854  22.508  21.533  13.372
39566W        W  855  15.128   5.775   0.938
39567W        W  856  29.066  14.636  12.095
39568W        W  857  17.189  25.484   3.847
39569W        W  858  41.827   7.206   1.212
39570W        W  859  34.069  14.153  12.835
39571W        W  860  17.634  19.590   1.360
39572W        W  861  37.922  25.632   2.763
39573W        W  862  43.928  21.526  12.483
39574W        W  863   6.690   2.417  11.050
39575W        W  864  20.051  12.302  11.501
39576W        W  865  43.496   9.870  12.010
39577W        W  866  23.152   0.834  13.454
39578W        W  867  18.733   9.155  14.470
39579W        W  868  10.791  10.265  13.329
39580W        W  869  36.857  21.126  10.926
39581W        W  870  20.131  13.772  14.877
39582W        W  871  22.691  11.277   3.680
39583W        W  872   3.751  32.514  14.914
39584W        W  873  19.554  11.639  12.095
39585W        W  874  12.286   0.301  11.510
39586W        W  875  23.101   1.939   2.861
39587W        W  876  37.040  22.232   0.793
39588W        W  877  34.040  19.533   2.668
39589W        W  878  26.656  31.443   2.344
39590W        W  879  23.605  29.013  11.550
39591W        W  880  30.555  36.914   1.258
39592W        W  881  32.549  11.315   1.241
39593W        W  882  10.225   6.919  13.475
39594W        W  883  11.295  29.558   0.410
39595W        W  884  23.194  32.912  10.963
39596W        W  885  10.633  37.929  10.504
39597W        W  886  26.090   4.769  10.916
39598W        W  887   7.848  26.656  10.426
39599W        W  888  19.215  36.425  14.492
39600W        W  889  40.541  22.664   1.365
39601W        W  890   7.276   9.827   4.303
39602W        W  891  38.560  42.818  11.992
39603W        W  892   0.863  14.209   2.366
39604W        W  893  38.520  24.218   2.815
39605W        W  894  34.434  32.010   3.374
39606W        W  895  23.038  11.322  10.900
39607W        W  896  25.013  36.024  11.095
39608W        W  897  36.453  34.524   3.765
39609W        W  898  20.710  14.753   3.711
39610W        W  899  42.408  39.062  13.894
39611W        W  900   1.862  28.594  11.895
39612W        W  901  17.643   2.393  13.836
39613W        W  902  27.999  12.118   3.309
39614W        W  903  16.313   7.242   2.695
39615W        W  904  13.181  28.985  12.492
39616W        W  905  35.366   2.838   2.274
39617W        W  906  20.660  42.393  13.849
39618W        W  907  33.984  33.491   1.798
39619W        W  908  30.083   9.290   0.783
39620W        W  909  19.125   2.916   0.367
39621W        W  910  19.649  25.135   1.451
39622W        W  911  30.929  35.491   2.664
39623W        W  912   7.392   1.919   4.605
39624W        W  913   2.824  37.403  12.864
39625W        W  914  27.454  27.965  10.571
39626W        W  915  22.577  34.576   0.381
39627W        W  916  42.959  15.218  14.928
39628W        W  917  16.117  43.298  14.792
39629W        W  918   6.195   6.309   0.886
39630W        W  919  33.509   8.222  11.597
39631W        W  920  23.674  29.426  14.976
39632W        W  921  33.563  31.942   2.816
39633W        W  922  26.024  32.101  14.935
39634W        W  923   4.408  13.620   1.345
39635W        W  924  43.946  32.979  14.415
39636W        W  925   8.174  36.373   2.370
39637W        W  926  18.235   9.666   4.156
39638W        W  927  24.202  40.001  10.644
39639W        W  928  15.718   8.159  10.930
39640W        W  929  27.688   2.336  12.014
39641W        W  930  30.091  17.673   2.392
39642W        W  931  38.066  30.563   1.700
39643W        W  932  41.885   4.353  14.296
39644W        W  933   6.336  29.934  13.883
39645W        W  934  14.170  30.444  13.461
39646W        W  935  26.119   3.381  10.889
39647W        W  936  37.854  24.215  14.870
39648W        W  937   2.237  21.743   1.786
39649W        W  938  35.364  27.641  14.431
39650W        W  939  29.167   8.763  14.981
39651W        W  940  25.181   8.284  10.607
39652W        W  941   7.371   2.451   4.268
39653W        W  942  11.148  27.644   3.791
39654W        W  943  18.272   9.761   0.290
39655W        W  944  36.360  41.444   4.122
39656W        W  945   9.293  14.304  10.592
39657W        W  946  10.802  25.100   5.142
39658W        W  947   2.875   9.195  11.597
39659W        W  948  33.071  14.141   5.135
39660W        W  949   3.930   9.723   2.847
39661W        W  950  15.792  10.736   0.851
39662W        W  951   1.464   1.883   2.675
39663W        W  952  44.793  12.788  10.934
39664W        W  953   5.909  19.206   1.418
39665W        W  954  17.061  23.694  13.388
39666W        W  955  14.329  31.931   1.863
39667W        W  956   7.907  29.998   2.293
39668W        W  957   4.347  18.623   2.798
39669W        W  958  39.907  26.106   4.337
39670W        W  959  43.458  21.068  12.351
39671W        W  960  41.351  34.952   0.391
39672W        W  961  43.372  37.469   4.354
39673W        W  962  11.682   2.435   3.173
39674W        W  963  40.316  30.014   0.938
39675W        W  964  27.541  26.085  14.868
39676W        W  965   2.471   8.180  11.008
39677W        W  966   8.324   1.239   4.219
39678W        W  967  41.862  37.907   2.731
39679W        W  968  19.706  37.020  13.503
39680W        W  969   3.394   1.436   2.865
39681W        W  970  15.134  43.885  12.360
39682W        W  971  26.467   0.353  11.861
39683W        W  972  40.355   7.702   0.927
39684W        W  973   8.745  30.611   5.192
39685W        W  974  10.707  41.010   1.816
39686W        W  975  42.473  39.866  10.433
39687W        W  976  16.100   2.386  13.923
39688W        W  977  34.455  38.929   0.803
39689W        W  978   0.310   7.809   3.659
39690W        W  979  16.786  20.757  13.998
39691W        W  980   8.330   1.865  12.995
39692W        W  981  31.423   0.298  13.539
39693W        W  982  24.173   3.292  10.490
39694W        W  983  15.631  29.094   4.652
39695W        W  984  19.655   1.775  14.430
39696W        W  985  25.639  14.153   3.151
39697W        W  986  36.522  42.849   1.932
39698W        W  987   9.747  43.010   1.378
39699W        W  988  10.753  40.896   1.273
39700W        W  989  31.926  41.014   1.256
39701W        W  990  14.713   1.751   4.239
39702W        W  991   3.767   8.185   1.260
39703W        W  992   2.817  34.956  14.379
39704W        W  993   7.227  36.451   0.400
39705W        W  994   1.781   5.796  14.392
39706W        W  995  25.712  42.960  11.048
39707W        W  996  21.104   6.192   5.156
39708W        W  997   6.759   4.276   0.754
39709W        W  998  24.566  26.199  10.979
39710W        W  999  13.770  33.065   1.827
39711W        W 1000  23.162   5.899  13.794
39712W        W 1001  18.660   5.808   0.960
39713W        W 1002  29.919  38.330   0.330
39714W        W 1003   1.839   8.330   4.286
39715W        W 1004  43.969  26.609  13.943
39716W        W 1005   5.759   4.868   2.747
39717W        W 1006  38.975  23.636  12.964
39718W        W 1007   0.360  27.060  10.471
39719W        W 1008  29.000   8.728  12.445
39720W        W 1009   4.383   5.314   3.743
39721W        W 1010  22.679  28.491   0.362
39722W        W 1011  22.693  34.489   2.249
39723W        W 1012   6.255  26.184  12.475
39724W        W 1013   1.462  37.028  14.285
39725W        W 1014   1.393  34.901   3.183
39726W        W 1015  17.081  24.699  14.384
39727W        W 1016  14.273   1.272  12.436
39728W        W 1017  32.406  37.576  12.009
39729W        W 1018  30.028  38.544  14.404
39730W        W 1019  43.490  33.578  10.531
39731W        W 1020  24.094  19.226   0.403
39732W        W 1021  34.062  35.365  10.439
39733W        W 1022  20.212  23.162  10.624
39734W        W 1023  34.053  13.823  10.604
39735W        W 1024  25.592  37.965   2.785
39736W        W 1025   5.869  16.677   3.354
39737W        W 1026  26.530   1.455  13.984
39738W        W 1027  25.563   5.855   2.347
39739W        W 1028   8.813  44.894  11.127
39740W        W 1029   4.257  11.685  13.063
39741W        W 1030  28.085  22.242   0.300
39742W        W 1031  31.446  14.674   3.637
39743W        W 1032  23.053  21.059  11.075
39744W        W 1033  28.647  29.967   2.692
39745W        W 1034  18.591   2.879   4.628
39746W        W 1035  10.292  17.304  10.978
39747W        W 1036   4.763   3.300   2.681
39748W        W 1037  16.080  29.110   2.728
39749W        W 1038  25.138  41.905   0.964
39750W        W 1039  17.138  39.957  13.793
39751W        W 1040   3.241  10.371   2.729
39752W        W 1041  25.515  27.496  14.006
39753W        W 1042  37.877   5.233   1.447
39754W        W 1043  29.504  33.112   1.881
39755W        W 1044  20.054  27.622  12.543
39756W        W 1045  36.430   3.457   0.342
39757W        W 1046   1.340  25.132  10.455
39758W        W 1047  20.731  36.925  13.024
39759W        W 1048  27.641  41.370  10.440
39760W        W 1049  14.272  33.528  14.449
39761W        W 1050   2.421  35.891   1.432
39762W        W 1051   4.391  34.597   0.910
39763W        W 1052  35.401  18.161   1.803
39764W        W 1053   2.861  27.687   2.418
39765W        W 1054   5.868   9.828   1.773
39766W        W 1055   1.872   2.922   2.792
39767W        W 1056  44.458  27.153  10.014
39768W        W 1057   7.236   5.381   2.387
39769W        W 1058  13.110  14.716  12.022
39770W        W 1059  39.008   9.322   1.243
39771W        W 1060  19.243  35.403   4.326
39772W        W 1061  18.282  33.580   3.386
39773W        W 1062  34.493  19.589   2.232
39774W        W 1063  20.618   0.402  12.825
39775W        W 1064   8.319   5.405   2.845
39776W        W 1065  25.610  25.479  13.898
39777W        W 1066   0.371  33.614   0.304
39778W        W 1067  34.120   0.779   2.834
39779W        W 1068  42.908   8.661  13.424
39780W        W 1069  41.538   3.771   3.775
39781W        W 1070  10.680  13.611   0.257
39782W        W 1071  31.026   8.404   9.921
39783W        W 1072  24.993  33.485   3.703
39784W        W 1073  24.652  26.035  12.913
39785W        W 1074  40.971   2.420  14.408
39786W        W 1075  20.061  12.155   1.335
39787W        W 1076   0.831   4.887  14.019
39788W        W 1077  29.945   6.725   3.672
39789W        W 1078  33.906  38.478  13.544
39790W        W 1079  33.518  31.908   3.844
39791W        W 1080  32.557  40.336  14.447
39792W        W 1081  21.538  26.679   0.928
39793W        W 1082  26.098   9.319   3.331
39794W        W 1083  19.192  27.602  12.825
39795W        W 1084  32.110  20.244  14.351
39796W        W 1085  15.753  39.535   1.287
39797W        W 1086   6.736  40.414   4.139
39798W        W 1087   9.682   1.256  13.802
39799W        W 1088  43.443   6.905  10.141
39800W        W 1089  17.233  36.845  10.052
39801W        W 1090  43.339  44.280  13.398
39802W        W 1091  16.155  33.007   3.167
39803W        W 1092  44.389   9.196  13.946
39804W        W 1093  23.671  41.362   4.627
39805W        W 1094  31.115  39.866  12.462
39806W        W 1095  20.036  19.573   3.733
39807W        W 1096   3.954   0.780   3.639
39808W        W 1097  29.489   6.763  12.918
39809W        W 1098  21.038  44.299   4.825
39810W        W 1099  11.202   8.180   4.797
39811W        W 1100  21.202  29.928   4.791
39812W        W 1101  37.568  37.875   3.732
39813W        W 1102  16.107  30.981   2.816
39814W        W 1103  10.700   3.309  11.915
39815W        W 1104  22.675   0.751  14.842
39816W        W 1105  37.870  39.429  14.967
39817W        W 1106  39.906  33.094   0.787
39818W        W 1107  11.268   7.777   1.929
39819W        W 1108   9.652   8.272   0.963
39820W        W 1109  32.543  23.604  14.422
39821W        W 1110  44.938   4.342  14.902
39822W        W 1111  33.913   7.196  14.852
39823W        W 1112  35.080  24.998   2.809
39824W        W 1113   5.271   2.463   1.220
39825W        W 1114  44.420  34.473  12.057
39826W        W 1115  31.482  19.681  10.587
39827W        W 1116   7.908  29.128  12.382
39828W        W 1117  27.532  14.188   4.696
39829W        W 1118  37.945  26.510   3.867
39830W        W 1119  38.406  22.999  14.467
39831W        W 1120  23.725  11.214   0.446
39832W        W 1121   1.966  43.425  11.052
39833W        W 1122  41.431  11.634   2.723
39834W        W 1123  21.111  24.076   0.403
39835W        W 1124  11.645  42.411   2.884
39836W        W 1125  22.023  24.149  14.376
39837W        W 1126  40.022   1.751   1.400
39838W        W 1127  20.611  42.809   0.343
39839W        W 1128  23.649  33.072   4.786
39840W        W 1129  34.901  37.379   1.256
39841W        W 1130   1.307  40.045   4.687
39842W        W 1131  44.409  10.747   0.878
39843W        W 1132  39.871  30.485   3.677
39844W        W 1133  42.787  16.692  12.068
39845W        W 1134  32.485   8.771   3.156
39846W        W 1135  23.998   1.790   1.931
39847W        W 1136   2.744  37.064  12.900
39848W        W 1137  13.230  27.994  10.937
39849W        W 1138   5.439   7.904   1.290
39850W        W 1139  17.168  19.605  11.024
39851W        W 1140  24.582  41.492   2.881
39852W        W 1141   5.911  30.505   4.134
39853W        W 1142   0.479  37.970   2.885
39854W        W 1143  19.202   6.264   1.903
39855W        W 1144  42.307  17.141  11.112
39856W        W 1145  31.115  10.340   0.818
39857W        W 1146  14.112  12.623   0.414
39858W        W 1147  19.150  29.979  14.787
39859W        W 1148  32.091  16.778   3.258
39860W        W 1149  11.154  26.051  10.986
39861W        W 1150  43.293  15.592   0.853
39862W        W 1151  43.899  31.004  11.095
39863W        W 1152   4.372   1.734  12.049
39864W        W 1153  40.895  43.774  14.999
39865W        W 1154   0.744  36.086   5.258
39866W        W 1155   7.786  21.543   3.753
39867W        W 1156  30.612  23.510   3.250
39868W        W 1157   6.747   6.428  12.552
39869W        W 1158  20.567  35.370  12.075
39870W        W 1159   1.830  14.240   4.701
39871W        W 1160   9.164  27.147  12.536
39872W        W 1161  30.012  12.119  12.971
39873W        W 1162  32.630  11.733   0.356
39874W        W 1163   9.730   0.754   1.341
39875W        W 1164  42.781  28.663  13.482
39876W        W 1165  26.986  16.781   0.409
39877W        W 1166  11.173  11.356   3.337
39878W        W 1167   3.772  13.331   4.259
39879W        W 1168   9.231   9.882   4.196
39880W        W 1169  44.361  16.091  14.765
39881W        W 1170  36.987  18.138   1.291
39882W        W 1171   0.390  38.828   9.992
39883W        W 1172  14.665  40.944  11.110
39884W        W 1173   7.297  19.199   3.153
39885W        W 1174  29.045   1.959   2.230
39886W        W 1175  17.611   9.730  11.026
39887W        W 1176   8.748  25.049   5.204
39888W        W 1177  12.128   5.222   1.708
39889W        W 1178  38.839  31.518  13.879
39890W        W 1179  19.267   1.402  12.558
39891W        W 1180  23.105  18.685  14.762
39892W        W 1181  39.420  44.349  12.927
39893W        W 1182  35.967  30.430  11.462
39894W        W 1183  19.243  12.139   3.790
39895W        W 1184   8.888  19.765   5.231
39896W        W 1185   5.917   1.937   1.235
39897W        W 1186  29.009   6.229  11.115
39898W        W 1187  12.144  24.047  11.407
39899W        W 1188  19.115   0.410  14.477
39900W        W 1189  37.849  32.996  12.460
39901W        W 1190   3.873  39.359  14.846
39902W        W 1191  32.135  36.878  12.371
39903W        W 1192  10.338  12.140  12.044
39904W        W 1193  16.086   6.720  14.973
39905W        W 1194  43.971  25.520  14.832
39906W        W 1195  43.349   8.332  12.907
39907W        W 1196  40.430  28.495  13.027
39908W        W 1197  38.525  12.174   3.795
39909W        W 1198  11.700  36.030  11.550
39910W        W 1199   6.331  40.939  13.357
39911W        W 1200  29.078   0.434   1.413
39912W        W 1201  36.907  22.107  10.969
39913W        W 1202  31.938  37.837  14.773
39914W        W 1203  17.073  40.847   3.379
39915W        W 1204  26.493  42.381   1.737
39916W        W 1205  43.925  15.647  11.553
39917W        W 1206  42.868  21.543   0.829
39918W        W 1207   2.844  41.510   3.721
39919W        W 1208   6.685  20.753  14.451
39920W        W 1209  42.480  32.424   4.327
39921W        W 1210   0.409  23.216   1.219
39922W        W 1211  24.675  29.633  10.980
39923W        W 1212  12.297  30.118   2.334
39924W        W 1213  20.542  12.311   2.252
39925W        W 1214  40.963   7.327   3.779
39926W        W 1215  19.080  20.639   4.253
39927W        W 1216  34.045  23.612  10.497
39928W        W 1217  39.314  42.315   4.613
39929W        W 1218  41.857   5.377  13.486
39930W        W 1219  11.811  20.139  14.004
39931W        W 1220  38.920  42.397   0.254
39932W        W 1221  17.297  39.014   4.834
39933W        W 1222  19.261  28.461  13.883
39934W        W 1223  39.965  36.849   1.700
39935W        W 1224  13.704  11.367  10.500
39936W        W 1225  35.908  43.349   0.394
39937W        W 1226  41.375  10.383   1.901
39938W        W 1227  26.026  35.932  10.622
39939W        W 1228  39.344  34.949   1.359
39940W        W 1229  18.553  20.195   2.881
39941W        W 1230  26.687  10.743   3.262
39942W        W 1231  20.572  26.004   3.721
39943W        W 1232  25.637  19.128   3.842
39944W        W 1233  43.847  43.852  13.838
39945W        W 1234  19.657  18.641  13.520
39946W        W 1235  20.135  25.035   0.375
39947W        W 1236  42.287  31.612   0.893
39948W        W 1237  15.651  39.875  12.981
39949W        W 1238  31.101   9.743  12.863
39950W        W 1239  24.710  19.701  14.444
39951W        W 1240  24.498  16.627   2.329
39952W        W 1241  30.416   0.830  11.857
39953W        W 1242  20.634  18.149   1.771
39954W        W 1243  29.095  10.367   2.237
39955W        W 1244  38.451  35.878  13.995
39956W        W 1245  12.688  38.039   3.696
39957W        W 1246  28.524  39.892  14.781
39958W        W 1247  22.591   1.839   4.783
39959W        W 1248  14.269  35.411   5.131
39960W        W 1249  41.031  24.212   3.697
39961W        W 1250  24.711  17.273  10.458
39962W        W 1251  17.191  23.657  14.497
39963W        W 1252   1.742  22.584  13.003
39964W        W 1253  14.612  15.682   4.675
39965W        W 1254  36.931  19.631   2.297
39966W        W 1255  33.522  19.267  13.801
39967W        W 1256   6.821  37.833   3.315
39968W        W 1257  33.055  23.207   0.392
39969W        W 1258  30.109  35.951  10.521
39970W        W 1259   9.858  41.503  11.911
39971W        W 1260  38.367   2.884  10.997
39972W        W 1261  44.783  40.951   1.911
39973W        W 1262  38.873  22.171   3.731
39974W        W 1263  44.775   3.709   3.379
39975W        W 1264  29.519  19.113  13.008
39976W        W 1265  15.133  36.348   1.218
39977W        W 1266   7.392  12.672  11.429
39978W        W 1267  32.918  11.356  12.896
39979W        W 1268  25.608  41.821  12.404
39980W        W 1269  43.968  19.274   2.812
39981W        W 1270   0.277   9.710  11.466
39982W        W 1271  30.148  29.168   3.362
39983W        W 1272   4.919  34.076  10.475
39984W        W 1273  43.772  43.375  10.519
39985W        W 1274  16.160  34.527  13.487
39986W        W 1275  36.368  26.701   2.399
39987W        W 1276  38.490  10.331   4.235
39988W        W 1277  37.873  29.557   1.790
39989W        W 1278  40.052   6.872   4.740
39990W        W 1279  10.747  31.044   5.322
39991W        W 1280  27.090  13.760  12.359
39992W        W 1281  44.935  24.520  12.076
39993W        W 1282  40.033  36.488   3.228
39994W        W 1283  17.100  11.665   2.272
39995W        W 1284  18.147   3.741  11.115
39996W        W 1285   5.919   1.910   0.914
39997W        W 1286  33.129  41.995   1.372
39998W        W 1287  27.996   3.286  10.934
39999W        W 1288  41.963  29.030  13.835
40000W        W 1289  18.286  35.584   0.405
40001W        W 1290  23.134   8.787  13.417
40002W        W 1291  36.034  33.918  14.998
40003W        W 1292   8.310  43.958  14.936
40004W        W 1293  13.718  14.713   1.283
40005W        W 1294  21.755  11.843   2.699
40006W        W 1295  32.932  35.412   3.310
40007W        W 1296   0.392  34.505  14.792
40008W        W 1297  23.110  44.431   2.887
40009W        W 1298  32.096  20.059  11.411
40010W        W 1299  44.386  43.476   3.679
40011W        W 1300  20.089  37.844   0.325
40012W        W 1301   3.259  21.658   2.231
40013W        W 1302  33.960   9.263   4.133
40014W        W 1303  18.633   5.388   1.296
40015W        W 1304  25.022  36.488   0.483
40016W        W 1305  28.470  37.936   0.263
40017W        W 1306  29.098   2.851   5.142
40018W        W 1307  30.091  23.540  14.826
40019W        W 1308  42.933  19.181   0.940
40020W        W 1309  20.186  33.988  10.904
40021W        W 1310  23.595  26.626   2.718
40022W        W 1311  31.046   3.289  11.044
40023W        W 1312  21.731   0.867   0.380
40024W        W 1313  16.308   1.791   4.732
40025W        W 1314   0.282  16.195   0.949
40026W        W 1315  27.160   3.722  10.542
40027W        W 1316  44.999   3.262   4.781
40028W        W 1317  43.834   2.883   4.679
40029W        W 1318  22.539   8.695   4.250
40030W        W 1319  10.282   8.363   1.731
40031W        W 1320   2.922  11.350   2.220
40032W        W 1321  17.706   3.263   0.756
40033W        W 1322  12.322  12.679  10.643
40034W        W 1323  41.978  42.504  14.493
40035W        W 1324   4.829   1.366  11.905
40036W        W 1325  41.844   1.777  11.877
40037W        W 1326   3.871  23.160   2.410
40038W        W 1327  15.650  12.730  14.402
40039W        W 1328  39.334  18.170  11.399
40040W        W 1329  24.592  43.835  13.892
40041W        W 1330   9.750  39.986   3.317
40042W        W 1331   4.910  29.655  12.525
40043W        W 1332  21.711  33.002  13.512
40044W        W 1333  28.160   9.219   9.468
40045W        W 1334   0.466   0.368  12.418
40046W        W 1335  22.627  11.623  11.899
40047W        W 1336  41.346  35.598   4.618
40048W        W 1337  22.520   6.231   4.142
40049W        W 1338   4.250  10.311   1.337
40050W        W 1339  21.521  25.168   1.439
40051W        W 1340  31.615  25.010   1.406
40052W        W 1341  41.325   1.830  11.538
40053W        W 1342   3.333   5.721  12.845
40054W        W 1343  29.484  43.901   4.266
40055W        W 1344   0.368  13.635   0.779
40056W        W 1345  21.022  18.271   4.177
40057W        W 1346   1.785   7.273   0.379
40058W        W 1347  37.841   0.988   3.778
40059W        W 1348  17.199  19.143  14.900
40060W        W 1349  10.823  13.701  12.344
40061W        W 1350  23.584  16.283   2.232
40062W        W 1351  44.281  40.807  10.566
40063W        W 1352   1.736  10.820  13.024
40064W        W 1353  14.210   0.855  12.971
40065W        W 1354  11.833  42.908   3.742
40066W        W 1355  41.808   0.343   3.262
40067W        W 1356  21.547   3.791   2.352
40068W        W 1357   8.884  41.952  13.463
40069W        W 1358  15.809   2.264  13.044
40070W        W 1359  24.704   7.317  14.438
40071W        W 1360  43.306   0.835   4.617
40072W        W 1361  34.004  36.877  10.521
40073W        W 1362  15.742   1.327  11.524
40074W        W 1363  37.938   6.383  11.022
40075W        W 1364  41.304  10.731  12.097
40076W        W 1365  24.540  22.727  11.412
40077W        W 1366  43.403  39.463  11.583
40078W        W 1367  26.690  16.709  10.543
40079W        W 1368  17.634   3.852   0.483
40080W        W 1369  26.492  35.083   3.846
40081W        W 1370  12.634   6.860  12.931
40082W        W 1371  38.543  35.588  11.498
40083W        W 1372   6.427  13.748  10.445
40084W        W 1373  38.947  34.953  14.812
40085W        W 1374  38.379   3.419   3.227
40086W        W 1375  13.814  34.479  14.836
40087W        W 1376  30.128   1.244   0.923
40088W        W 1377  15.210  32.597   4.653
40089W        W 1378  40.925  14.779  12.991
40090W        W 1379   5.377  23.039  11.438
40091W        W 1380  44.795  12.125   0.297
40092W        W 1381  21.246  32.928   0.442
40093W        W 1382   4.320  17.141   2.395
40094W        W 1383  39.052  38.054  10.430
40095W        W 1384  27.679  21.039   1.853
40096W        W 1385  37.052   8.359   3.255
40097W        W 1386  25.495  44.439   0.930
40098W        W 1387  20.199  12.785  14.856
40099W        W 1388  29.046   2.328   3.728
40100W        W 1389  22.695  16.757   3.260
40101W        W 1390  35.079  38.071  14.304
40102W        W 1391  15.657   3.837  11.381
40103W        W 1392  23.078  37.357   1.902
40104W        W 1393  42.526  16.153  13.466
40105W        W 1394  24.221  29.042  12.022
40106W        W 1395   2.876  19.764   2.753
40107W        W 1396   8.838  25.982   4.597
40108W        W 1397  36.986  21.724   1.735
40109W        W 1398  18.666  29.016  11.544
40110W        W 1399   5.700  14.623   3.814
40111W        W 1400  10.198  37.522  14.283
40112W        W 1401   5.295  38.846   0.939
40113W        W 1402  37.050  30.081   1.902
40114W        W 1403  40.534  12.651  14.406
40115W        W 1404  10.256  20.236   0.885
40116W        W 1405   8.793   3.925  13.415
40117W        W 1406  16.212  42.464  12.479
40118W        W 1407  41.816  42.867   5.171
40119W        W 1408  41.473  24.671  11.402
40120W        W 1409   6.914   5.375   1.256
40121W        W 1410  29.168  18.741   3.842
40122W        W 1411  36.457   4.373  11.565
40123W        W 1412  33.592  13.703   3.867
40124W        W 1413  27.648  33.047  12.997
40125W        W 1414  21.724  44.924  13.928
40126W        W 1415  10.169  12.176   3.798
40127W        W 1416  41.002   1.740  12.045
40128W        W 1417  42.954   7.871   2.323
40129W        W 1418  12.229  15.295  10.430
40130W        W 1419  30.048   6.384  12.457
40131W        W 1420   3.381  25.188   1.360
40132W        W 1421   1.324  35.901   3.213
40133W        W 1422  10.269  10.148   0.257
40134W        W 1423  27.581  17.766   2.405
40135W        W 1424  16.261  44.382  13.912
40136W        W 1425  22.585  16.723   0.302
40137W        W 1426   3.885  10.789  11.900
40138W        W 1427  35.537  26.075   1.311
40139W        W 1428  23.490   1.442  14.772
40140W        W 1429  17.761  19.279  10.576
40141W        W 1430   1.475  11.355   3.659
40142W        W 1431  42.030  25.009   3.818
40143W        W 1432   1.344  21.140  12.526
40144W        W 1433  13.234  21.557   5.117
40145W        W 1434   3.945  27.988  13.495
40146W        W 1435  13.322  38.407  13.435
40147W        W 1436  30.099   2.926   4.713
40148W        W 1437  11.152  13.716   4.227
40149W        W 1438  21.209  22.567  14.293
40150W        W 1439  27.521  30.009   2.206
40151W        W 1440  23.102  44.279   2.271
40152W        W 1441  43.860  24.497  10.577
40153W        W 1442  39.480  29.464   0.886
40154W        W 1443  35.509  19.577   4.753
40155W        W 1444  38.479   5.809   0.889
40156W        W 1445  10.296  32.062  10.130
40157W        W 1446  43.419  11.679  12.492
40158W        W 1447  32.593  32.450  13.971
40159W        W 1448  42.307  27.518  11.047
40160W        W 1449  43.791   4.255   1.714
40161W        W 1450  38.988  28.520  12.548
40162W        W 1451  12.116   2.914   2.360
40163W        W 1452  11.840  31.578   1.930
40164W        W 1453  12.273  23.225  13.339
40165W        W 1454  44.005  12.119  14.441
40166W        W 1455  35.085  13.182  13.940
40167W        W 1456  43.923  10.234  14.764
40168W        W 1457  12.135  23.697  10.110
40169W        W 1458  25.512  36.432   4.293
40170W        W 1459   3.360  24.624  12.960
40171W        W 1460  39.421  30.529  14.510
40172W        W 1461  10.331  44.779   5.303
40173W        W 1462   0.852   8.779  12.912
40174W        W 1463   5.860   4.280   3.672
40175W        W 1464  22.142  23.551  11.421
40176W        W 1465  20.572  28.488   3.851
40177W        W 1466   1.293  19.102   4.341
40178W        W 1467  27.065  31.455   4.193
40179W        W 1468   5.814  32.141  14.900
40180W        W 1469  36.444  27.099  12.438
40181W        W 1470  30.994  11.170  12.445
40182W        W 1471  29.000   3.383   1.354
40183W        W 1472  13.765   6.711   3.678
40184W        W 1473   3.343  13.246   4.644
40185W        W 1474   9.306  39.518   4.652
40186W        W 1475  37.087   7.695  13.038
40187W        W 1476  18.056  38.903   5.123
40188W        W 1477  23.194  13.179  13.010
40189W        W 1478  14.757   4.719  14.301
40190W        W 1479  37.510  32.135   3.341
40191W        W 1480   7.809  43.821   3.210
40192W        W 1481  19.154   6.874   4.334
40193W        W 1482  21.606  22.531   1.832
40194W        W 1483  28.146  19.103  14.865
40195W        W 1484  37.580  25.070   0.925
40196W        W 1485  18.221  15.755  14.310
40197W        W 1486  44.888   0.836   2.201
40198W        W 1487  29.622   5.298  10.591
40199W        W 1488   5.201   9.376   3.688
40200W        W 1489  41.032  30.918   2.751
40201W        W 1490  13.236  14.254  14.936
40202W        W 1491   3.729  29.548   2.204
40203W        W 1492  27.518  16.206  14.957
40204W        W 1493  31.483  33.092  11.907
40205W        W 1494  22.232  44.762  12.363
40206W        W 1495  21.253  35.597  14.313
40207W        W 1496  33.883  12.186  11.017
40208W        W 1497   0.439  40.384  14.380
40209W        W 1498  41.897  12.186   0.870
40210W        W 1499  42.343  11.285   3.785
40211W        W 1500  12.637  29.587  11.008
40212W        W 1501  36.086  28.060  11.574
40213W        W 1502  18.269  22.523   4.774
40214W        W 1503  15.737   7.693  11.978
40215W        W 1504   9.371  27.123  13.458
40216W        W 1505   8.664  36.863  13.938
40217W        W 1506   5.732  31.935   2.686
40218W        W 1507   0.253  36.502   1.370
40219W        W 1508  14.592  19.120   4.116
40220W        W 1509  20.162   9.269   2.843
40221W        W 1510  18.128  24.130  10.448
40222W        W 1511  21.135  26.038   0.853
40223W        W 1512  32.117   2.735  12.457
40224W        W 1513   7.747  12.192   1.211
40225W        W 1514   8.330  44.313   3.807
40226W        W 1515   7.406  30.955  12.502
40227W        W 1516  22.675   4.909   3.730
40228W        W 1517   0.967  20.050  14.763
40229W        W 1518  27.966  29.989  10.529
40230W        W 1519  28.624  10.690   1.348
40231W        W 1520   8.672  11.704  10.965
40232W        W 1521  28.626  19.581   4.264
40233W        W 1522  44.399  15.793   0.740
40234W        W 1523  29.436  40.909  13.827
40235W        W 1524  26.469  35.436  14.395
40236W        W 1525  28.985   4.789   0.928
40237W        W 1526  30.046  43.768  13.430
40238W        W 1527  26.502  35.917   3.209
40239W        W 1528  27.954  29.653  13.986
40240W        W 1529  21.228  15.324  12.067
40241W        W 1530  35.002   9.334  12.000
40242W        W 1531   3.221  38.414   4.732
40243W        W 1532   6.403  29.982   0.326
40244W        W 1533  19.165   6.873  13.415
40245W        W 1534  29.049   0.954   4.633
40246W        W 1535   8.707   9.700  14.416
40247W        W 1536  15.615  36.003  11.960
40248W        W 1537   6.892  28.475   3.653
40249W        W 1538  25.643  38.057  13.543
40250W        W 1539  23.685  19.748  14.764
40251W        W 1540  35.976  26.106  12.566
40252W        W 1541  43.508  18.563  10.545
40253W        W 1542  32.925   5.726   3.188
40254W        W 1543   4.837  14.201   4.804
40255W        W 1544   5.899  17.281   0.312
40256W        W 1545   5.245  44.984  12.455
40257W        W 1546  13.658  20.162   0.255
40258W        W 1547  44.813  18.601  14.848
40259W        W 1548  21.548   0.401  11.957
40260W        W 1549  20.075  40.907   2.238
40261W        W 1550  39.418  22.609  13.988
40262W        W 1551  42.499  35.033   1.252
40263W        W 1552   5.421   7.798   3.645
40264W        W 1553  19.552  15.319   4.637
40265W        W 1554  38.828  16.190  11.586
40266W        W 1555  26.168  12.177   1.214
40267W        W 1556  20.548   8.699  10.479
40268W        W 1557  31.968  35.523   0.445
40269W        W 1558  16.703  19.052  11.971
40270W        W 1559  14.253  19.182   4.784
40271W        W 1560  35.957  32.409   2.352
40272W        W 1561  42.483  28.514   1.833
40273W        W 1562  18.673  19.643   2.186
40274W        W 1563   0.783  29.664   5.115
40275W        W 1564  22.746   8.778   2.736
40276W        W 1565  20.159  25.094  11.049
40277W        W 1566  43.319  39.833   3.731
40278W        W 1567  31.976  38.895   1.340
40279W        W 1568  43.470  44.454  11.452
40280W        W 1569  42.429  44.422   2.291
40281W        W 1570  23.034  21.638  14.782
40282W        W 1571  28.176  36.358   2.394
40283W        W 1572   9.291  28.468  10.549
40284W        W 1573   1.437  21.162  10.091
40285W        W 1574  20.728  37.376   4.761
40286W        W 1575  39.375  23.991   0.852
40287W        W 1576  44.319  19.073  11.118
40288W        W 1577  35.438  13.166  14.390
40289W        W 1578  37.868  39.941   4.322
40290W        W 1579  18.624  25.545  13.338
40291W        W 1580   7.856  31.548   2.776
40292W        W 1581  33.473   7.753  10.050
40293W        W 1582  33.888  34.982  11.959
40294W        W 1583   4.846  42.938   4.766
40295W        W 1584  10.328   8.292   0.385
40296W        W 1585  24.607  35.009   2.809
40297W        W 1586  14.792  24.545   0.274
40298W        W 1587  28.653  44.369  11.565
40299W        W 1588   3.230  27.048   3.155
40300W        W 1589  22.724   0.886  11.029
40301W        W 1590   0.922  29.551   0.423
40302W        W 1591  10.658  40.905  13.333
40303W        W 1592  14.239  36.561   2.794
40304W        W 1593  24.686  34.438  12.522
40305W        W 1594   0.967   9.808  11.438
40306W        W 1595   4.331  10.669  11.471
40307W        W 1596  31.444   0.391   5.274
40308W        W 1597  31.005  17.221  12.842
40309W        W 1598  33.385  22.091   4.689
40310W        W 1599  33.486  34.101  10.915
40311W        W 1600  42.031  13.633  10.438
40312W        W 1601  10.242  32.561   4.715
40313W        W 1602  20.685  24.495  14.515
40314W        W 1603  15.249  22.995   0.857
40315W        W 1604  38.821  10.335  12.880
40316W        W 1605  41.883   7.242   2.667
40317W        W 1606   7.254  28.042   4.728
40318W        W 1607  42.924  38.030   5.302
40319W        W 1608  27.515  13.821   1.775
40320W        W 1609   1.768  40.949   3.224
40321W        W 1610   7.746   4.745  13.429
40322W        W 1611  15.587  26.996   1.304
40323W        W 1612  32.942   4.208   3.320
40324W        W 1613  22.659  21.538   2.229
40325W        W 1614  35.462  42.787  12.073
40326W        W 1615  28.947  40.423   3.801
40327W        W 1616  17.182   6.729  11.878
40328W        W 1617  38.516  14.806   3.811
40329W        W 1618  44.882  16.737   4.656
40330W        W 1619   5.821  17.621  11.570
40331W        W 1620  16.679  22.245   9.459
40332W        W 1621  35.561  38.456   0.814
40333W        W 1622   4.775  44.412  12.533
40334W        W 1623  11.714  19.578   1.900
40335W        W 1624  20.600  36.925   3.763
40336W        W 1625  29.447   5.689  11.890
40337W        W 1626   2.958  27.055  12.940
40338W        W 1627  15.577  25.147  10.595
40339W        W 1628  32.403  23.519   2.899
40340W        W 1629  41.405  15.728   0.342
40341W        W 1630  25.185   0.445  13.488
40342W        W 1631   9.797  22.129  10.986
40343W        W 1632  13.634  21.134   2.669
40344W        W 1633   5.931  12.631  10.969
40345W        W 1634  13.126  38.926   3.368
40346W        W 1635  40.817  36.045   0.963
40347W        W 1636  12.195  31.462   4.166
40348W        W 1637  16.224   4.309  13.963
40349W        W 1638  16.600  24.133   3.734
40350W        W 1639   8.872  11.842   1.831
40351W        W 1640  29.956  15.785  13.517
40352W        W 1641   9.209  30.640  11.024
40353W        W 1642  26.962   9.828   3.797
40354W        W 1643  40.325  29.031  11.088
40355W        W 1644  43.316  35.564  11.471
40356W        W 1645  10.701  36.993   4.814
40357W        W 1646  28.105  31.925   3.644
40358W        W 1647  23.635  13.264  12.902
40359W        W 1648   8.362  18.254   4.336
40360W        W 1649  27.006   9.721  10.953
40361W        W 1650  24.630  41.966   0.805
40362W        W 1651  28.574  11.660  14.421
40363W        W 1652  28.092   2.768   1.409
40364W        W 1653  24.674   6.691   1.884
40365W        W 1654  14.289   7.787  14.953
40366W        W 1655  12.204  28.975   4.736
40367W        W 1656  41.923  34.992  11.532
40368W        W 1657  16.250  44.780   2.229
40369W        W 1658   9.841  23.627   0.388
40370W        W 1659  37.524  16.121  12.966
40371W        W 1660   7.216  37.422   0.738
40372W        W 1661   3.230  31.100  11.383
40373W        W 1662  41.529  33.401  14.441
40374W        W 1663  38.947  24.080  11.059
40375W        W 1664   3.375  25.073  12.056
40376W        W 1665   1.376  25.682  11.064
40377W        W 1666   8.737  44.977  12.343
40378W        W 1667  41.359   1.902  13.958
40379W        W 1668  17.189   0.474  11.106
40380W        W 1669  12.769  26.976  11.556
40381W        W 1670  41.984   2.838   2.852
40382W        W 1671   3.450  35.402  13.425
40383W        W 1672   1.399  15.254  14.880
40384W        W 1673  28.551  37.029  12.493
40385W        W 1674  29.930  17.195  12.926
40386W        W 1675   7.858  17.072  11.881
40387W        W 1676  10.260  38.438   0.401
40388W        W 1677   2.386  29.993  10.890
40389W        W 1678  17.245  21.704   2.389
40390W        W 1679  17.762  40.541  11.389
40391W        W 1680  36.884  10.656   3.172
40392W        W 1681  13.771  20.630  10.037
40393W        W 1682   8.806  25.712  12.435
40394W        W 1683  28.167  15.143   3.657
40395W        W 1684   0.917   6.232  12.918
40396W        W 1685  16.650  32.097  11.128
40397W        W 1686  13.192  26.956   3.661
40398W        W 1687  39.335   5.774   3.185
40399W        W 1688  42.372  34.912   2.801
40400W        W 1689   6.340  29.444   3.819
40401W        W 1690  31.955  25.204  11.475
40402W        W 1691  18.569   7.297   3.329
40403W        W 1692   5.895  13.346   0.306
40404W        W 1693   4.422  16.763  10.564
40405W        W 1694  22.019  29.642  13.059
40406W        W 1695   0.365  22.546   4.680
40407W        W 1696  35.476  15.249  11.904
40408W        W 1697  37.082  23.058  13.046
40409W        W 1698  35.545  23.513  10.903
40410W        W 1699  34.959  42.377   1.898
40411W        W 1700   2.781   7.238  13.847
40412W        W 1701   4.430  32.598   1.791
40413W        W 1702  40.953  21.517   2.715
40414W        W 1703  24.198  26.598  12.467
40415W        W 1704  39.815   9.747  10.417
40416W        W 1705  41.360  27.521   2.326
40417W        W 1706   8.749  35.937   0.466
40418W        W 1707  33.957   5.828  11.571
40419W        W 1708  13.306  15.298  13.033
40420W        W 1709  19.551   1.971   0.836
40421W        W 1710  34.452  20.571  10.569
40422W        W 1711  32.602  23.064  13.870
40423W        W 1712  18.777   3.365  11.959
40424W        W 1713  40.454  32.924  13.920
40425W        W 1714  30.657   4.315   3.380
40426W        W 1715   7.865   1.809   3.326
40427W        W 1716  13.599  31.106   4.318
40428W        W 1717  17.163  42.283  12.995
40429W        W 1718  30.453  16.792  12.983
40430W        W 1719  29.572  33.507   1.309
40431W        W 1720   9.704  24.184   3.742
40432W        W 1721  30.029   4.772  13.527
40433W        W 1722   0.971   3.954  10.492
40434W        W 1723  38.974  22.047  11.448
40435W        W 1724  28.589  15.661  12.375
40436W        W 1725  27.673  23.643   1.291
40437W        W 1726  30.564  19.119  13.807
40438W        W 1727  10.784  16.163   3.701
40439W        W 1728   3.901  19.664   2.872
40440W        W 1729  43.503  21.549   2.770
40441W        W 1730  42.825  39.465   2.777
40442W        W 1731  29.646  28.082  13.983
40443W        W 1732  20.107   0.916  11.465
40444W        W 1733   6.304  23.054  10.140
40445W        W 1734  11.792   6.344   3.771
40446W        W 1735   3.751   2.310   1.382
40447W        W 1736  27.120  30.930  13.844
40448W        W 1737  13.143  17.736  11.124
40449W        W 1738  36.979   6.395  12.909
40450W        W 1739   8.795  15.732  11.070
40451W        W 1740  38.469  30.042   4.819
40452W        W 1741  13.108   6.710   3.336
40453W        W 1742   2.892  16.198   2.360
40454W        W 1743  40.354  27.026  14.423
40455W        W 1744  33.504  44.276   3.273
40456W        W 1745  15.094   7.873  12.499
40457W        W 1746  36.096  19.766   2.404
40458W        W 1747   6.881  11.844  14.954
40459W        W 1748  38.947  22.056  11.093
40460W        W 1749  28.552  32.963   1.258
40461W        W 1750  43.956  27.016   1.845
40462W        W 1751  23.207  32.050  12.041
40463W        W 1752  22.100   9.233   4.608
40464W        W 1753  24.127  24.168  14.390
40465W        W 1754  11.157   6.829  11.961
40466W        W 1755   5.353  22.559  14.302
40467W        W 1756   3.760  11.761  12.490
40468W        W 1757  18.289   9.211   1.419
40469W        W 1758  20.095  27.550   3.855
40470W        W 1759  37.553  39.038   4.197
40471W        W 1760  25.149  22.202  13.938
40472W        W 1761  12.143   6.225   1.211
40473W        W 1762  11.831  21.702  14.474
40474W        W 1763  25.554  44.489   3.792
40475W        W 1764   2.749  44.271  14.957
40476W        W 1765  36.958  28.651   4.702
40477W        W 1766  38.410  25.081  13.521
40478W        W 1767   1.768  38.854   4.736
40479W        W 1768  30.426  10.826  14.914
40480W        W 1769  27.135  21.679  14.870
40481W        W 1770  10.753   1.909   1.722
40482W        W 1771   9.836   0.827  11.928
40483W        W 1772  21.245  23.691  12.403
40484W        W 1773   5.242  40.472  12.017
40485W        W 1774   0.285  32.076   0.263
40486W        W 1775  18.762  39.438   4.697
40487W        W 1776  19.047  14.661   1.444
40488W        W 1777  40.461   6.308   2.380
40489W        W 1778   8.787  16.594   3.170
40490W        W 1779  10.174  19.551  13.364
40491W        W 1780  42.368  34.545   4.666
40492W        W 1781  11.782  15.656  10.038
40493W        W 1782   0.828  44.336   2.245
40494W        W 1783   0.813   6.717  12.373
40495W        W 1784  25.630  16.080  14.859
40496W        W 1785  21.723  16.232   1.270
40497W        W 1786  16.178  16.299   4.163
40498W        W 1787  43.448   8.741   3.351
40499W        W 1788   3.720  16.785  12.562
40500W        W 1789  42.872  20.700  14.808
40501W        W 1790  30.947  12.151   3.768
40502W        W 1791  23.186  29.159  13.951
40503W        W 1792   5.403  42.426  14.492
40504W        W 1793   5.407  13.270  14.290
40505W        W 1794  34.564  21.101   3.819
40506W        W 1795  20.725  17.105   0.837
40507W        W 1796  44.006   2.392  12.485
40508W        W 1797   6.427  27.093   0.952
40509W        W 1798  24.640  37.081   3.265
40510W        W 1799  41.962  37.579   1.233
40511W        W 1800  37.088  23.681   4.677
40512W        W 1801  16.728   0.899  14.897
40513W        W 1802  19.757  18.135  11.472
40514W        W 1803  27.650  30.006  10.968
40515W        W 1804  33.522  10.732   0.881
40516W        W 1805  40.361  21.681   4.803
40517W        W 1806  33.553  28.087  13.489
40518W        W 1807  44.932  20.602   2.753
40519W        W 1808  44.333  42.421  12.091
40520W        W 1809  11.194  26.159   3.735
40521W        W 1810   2.232  25.500  13.345
40522W        W 1811  40.474  28.610   4.621
40523W        W 1812  10.789  21.239   1.400
40524W        W 1813  22.571  16.616  14.305
40525W        W 1814  31.468  14.244   3.259
40526W        W 1815  23.183  23.998  11.494
40527W        W 1816  27.051  24.046   3.203
40528W        W 1817  28.174   7.849  11.388
40529W        W 1818   5.894  39.022   2.821
40530W        W 1819  22.672   2.235   2.317
40531W        W 1820  43.009   4.250   0.747
40532W        W 1821  43.433  44.495  12.054
40533W        W 1822  15.652  21.621   2.231
40534W        W 1823  36.960   1.964  11.059
40535W        W 1824  34.607  38.332  14.494
40536W        W 1825  39.458  28.591   0.811
40537W        W 1826   8.739   0.793  10.917
40538W        W 1827  27.659  21.707  12.487
40539W        W 1828  41.533  37.853  11.068
40540W        W 1829   0.782  43.985  11.374
40541W        W 1830  30.422  21.606   1.867
40542W        W 1831  31.955  18.159   0.814
40543W        W 1832  24.011   8.858   2.344
40544W        W 1833   4.270  22.105  12.466
40545W        W 1834  30.420  15.214  10.638
40546W        W 1835  11.284  29.978  10.898
40547W        W 1836  30.499  17.105  13.446
40548W        W 1837  29.576  18.214  10.463
40549W        W 1838  21.541  21.037  14.982
40550W        W 1839  10.646  40.438  14.312
40551W        W 1840  31.117   2.391   9.992
40552W        W 1841  21.730   8.378   2.229
40553W        W 1842  42.442   1.803   2.406
40554W        W 1843  24.130  10.807  12.440
40555W        W 1844   4.904  42.482  13.408
40556W        W 1845   2.890  41.843   2.681
40557W        W 1846  16.283  40.001  13.050
40558W        W 1847   3.366  44.466  13.794
40559W        W 1848  38.859  26.478  12.419
40560W        W 1849  37.443   5.267   0.341
40561W        W 1850  21.155  15.153  10.507
40562W        W 1851  31.050  26.151  10.511
40563W        W 1852  10.878   8.778   2.670
40564W        W 1853   0.978  38.910  12.928
40565W        W 1854  23.123  12.783   2.273
40566W        W 1855   1.956  28.117  13.475
40567W        W 1856  43.503   5.729  11.997
40568W        W 1857  37.524  20.656  12.968
40569W        W 1858  17.303  22.237   1.838
40570W        W 1859  18.159  10.781   3.868
40571W        W 1860  22.737   6.224   3.677
40572W        W 1861   8.214   7.181   4.271
40573W        W 1862  18.551  30.469   4.778
40574W        W 1863  18.264  29.926  11.026
40575W        W 1864  28.186  37.457   2.762
40576W        W 1865   1.268   6.864  12.986
40577W        W 1866  39.949  15.714   2.884
40578W        W 1867  10.700  40.904  10.444
40579W        W 1868   2.814  29.452   0.447
40580W        W 1869  10.356   2.346   4.128
40581W        W 1870  44.905  41.353  11.459
40582W        W 1871   0.853  31.982  12.938
40583W        W 1872  19.690  12.247  14.334
40584W        W 1873  24.696  17.652  12.480
40585W        W 1874   5.415  27.102  12.523
40586W        W 1875  19.201  36.347  12.080
40587W        W 1876  27.528   9.770   5.115
40588W        W 1877  27.454   2.803   3.255
40589W        W 1878  25.052  12.710   4.672
40590W        W 1879   9.652  14.327   1.888
40591W        W 1880  36.572  35.381   4.334
40592W        W 1881  26.207  19.629  10.976
40593W        W 1882  29.455  36.444   0.368
40594W        W 1883  33.978  31.961   5.277
40595W        W 1884  12.233   1.456   1.286
40596W        W 1885  22.598  32.613  11.887
40597W        W 1886  23.021   8.217   0.409
40598W        W 1887   1.947  12.647   1.788
40599W        W 1888  39.013  23.521   0.932
40600W        W 1889  23.646  34.986  10.603
40601W        W 1890   2.818   3.741   1.405
40602W        W 1891  39.522  37.006  11.546
40603W        W 1892  38.892  29.133  13.961
40604W        W 1893  18.698  27.029   4.763
40605W        W 1894   3.338  22.176  14.496
40606W        W 1895  37.378  17.137  11.558
40607W        W 1896  27.625   6.791  10.429
40608W        W 1897   0.315  22.082   4.326
40609W        W 1898  15.800  25.509  13.821
40610W        W 1899  14.810  28.975  12.833
40611W        W 1900  33.469  33.558   0.749
40612W        W 1901  36.900  25.627   3.718
40613W        W 1902  30.124  17.152   1.333
40614W        W 1903   1.916  18.135  11.440
40615W        W 1904   2.365   7.290  10.989
40616W        W 1905   7.179  14.744   4.231
40617W        W 1906  15.309  38.524   5.115
40618W        W 1907  13.323   6.847  11.511
40619W        W 1908  37.952  37.543  12.458
40620W        W 1909  36.563  36.035   1.719
40621W        W 1910  17.117  14.316   0.314
40622W        W 1911  38.912  11.336  13.968
40623W        W 1912  14.663  29.012   4.335
40624W        W 1913  36.508  22.232  12.961
40625W        W 1914  34.101   9.695   2.347
40626W        W 1915   4.876  25.629   2.673
40627W        W 1916  41.449   4.366   0.375
40628W        W 1917  20.694  10.157  10.935
40629W        W 1918   1.270  31.941   0.400
40630W        W 1919   4.753   5.341   0.816
40631W        W 1920   0.344  44.300  11.391
40632W        W 1921  11.362   9.780  12.999
40633W        W 1922   3.775  13.210  13.978
40634W        W 1923  21.079  28.123  13.833
40635W        W 1924  42.965   7.295  10.121
40636W        W 1925  27.460  22.643   4.236
40637W        W 1926   6.404  31.097  14.363
40638W        W 1927   8.199  36.084  13.920
40639W        W 1928  26.046  18.674   0.783
40640W        W 1929  26.126  28.439   3.260
40641W        W 1930  24.708  39.960  12.880
40642W        W 1931  23.576  14.594  10.953
40643W        W 1932  39.401  35.480   2.698
40644W        W 1933  19.155  23.682   3.249
40645W        W 1934  24.195  16.646   0.381
40646W        W 1935  44.888  27.958   2.869
40647W        W 1936  29.506  23.640  11.539
40648W        W 1937   5.289   6.916   1.777
40649W        W 1938  16.111  43.839   1.709
40650W        W 1939  43.921  36.981  11.465
40651W        W 1940   1.361  22.034  13.894
40652W        W 1941   1.950  11.149   1.726
40653W        W 1942   9.279  43.393   1.807
40654W        W 1943  15.258   1.420   2.670
40655W        W 1944  34.004  16.104   1.449
40656W        W 1945   9.182   2.842   2.297
40657W        W 1946  15.677  12.181   2.871
40658W        W 1947  12.283  23.631   1.912
40659W        W 1948  41.325  19.723   2.389
40660W        W 1949  26.147  11.727   1.331
40661W        W 1950  44.270  24.635   0.395
40662W        W 1951  13.225   2.345  11.514
40663W        W 1952  12.193  28.114   0.431
40664W        W 1953  19.215  41.440  12.081
40665W        W 1954  25.646   3.362  11.046
40666W        W 1955  37.888  16.309   0.259
40667W        W 1956   2.448  10.236  10.560
40668W        W 1957  15.697   5.737  10.472
40669W        W 1958  10.325  44.959  14.401
40670W        W 1959  41.029  17.094   4.156
40671W        W 1960  32.583  13.190  14.896
40672W        W 1961  22.673  13.130   1.876
40673W        W 1962  21.649  15.668   9.923
40674W        W 1963  37.551   9.660   4.312
40675W        W 1964   4.353  22.197  14.397
40676W        W 1965  30.136  31.045  12.447
40677W        W 1966   1.921  18.772   0.290
40678W        W 1967  42.463   7.374   2.890
40679W        W 1968  39.906  34.546  14.433
40680W        W 1969  44.973   6.854   0.400
40681W        W 1970  42.409  26.051  14.918
40682W        W 1971  25.994   9.361   2.849
40683W        W 1972  13.313  25.633   2.731
40684W        W 1973  36.568  10.225   3.822
40685W        W 1974  36.960  18.622  13.814
40686W        W 1975  44.789  10.141   2.286
40687W        W 1976  43.981  40.013  12.468
40688W        W 1977  37.066   9.290  12.349
40689W        W 1978  23.146  28.644  11.533
40690W        W 1979  31.953  15.326   2.678
40691W        W 1980  15.592  39.555  11.979
40692W        W 1981  25.488  24.157   4.217
40693W        W 1982  31.142  11.169   2.767
40694W        W 1983  22.219  29.576   0.805
40695W        W 1984  32.113   3.909  14.408
40696W        W 1985  10.671  39.038  11.509
40697W        W 1986  27.643  22.209  12.381
40698W        W 1987   2.766  33.116   0.794
40699W        W 1988  25.087  41.469  13.059
40700W        W 1989   3.285  43.975  11.533
40701W        W 1990  12.236  41.529  12.449
40702W        W 1991  24.192  15.663   2.218
40703W        W 1992  23.067  36.547  13.800
40704W        W 1993   5.298  43.499   0.273
40705W        W 1994  28.180   1.425   0.887
40706W        W 1995  32.565  22.634  14.308
40707W        W 1996  22.095  40.870  12.355
40708W        W 1997   5.201  31.527  10.512
40709W        W 1998  19.627  28.662  13.863
40710W        W 1999   6.342   2.788   2.789
40711W        W 2000  29.998  44.470  14.278
40712W        W 2001  32.560  35.955  14.462
40713W        W 2002  31.490  34.511  14.946
40714W        W 2003  21.525  34.045  14.808
40715W        W 2004  21.213  29.540   1.309
40716W        W 2005  14.669   6.811   0.771
40717W        W 2006   5.910  15.706  12.869
40718W        W 2007  32.460  14.726   1.785
40719W        W 2008  44.427  16.678   3.309
40720W        W 2009  31.903  36.419   2.251
40721W        W 2010  12.119   9.340  10.997
40722W        W 2011  24.033  41.310  12.547
40723W        W 2012  39.864  44.835  13.848
40724W        W 2013  40.941  12.691  13.828
40725W        W 2014   1.953   1.773  14.420
40726W        W 2015  25.992  10.228   3.819
40727W        W 2016  27.490   6.883  12.011
40728W        W 2017  21.086  20.687  14.430
40729W        W 2018  27.063  10.843  12.508
40730W        W 2019  37.836  10.304  11.999
40731W        W 2020   9.213   7.302  11.090
40732W        W 2021  40.456  34.371   3.348
40733W        W 2022   9.730  27.632   0.914
40734W        W 2023  32.059   2.434  13.486
40735W        W 2024  25.094   1.823  11.986
40736W        W 2025   5.750   2.911  11.607
40737W        W 2026  36.446  28.459   1.908
40738W        W 2027  23.606  35.513  12.425
40739W        W 2028  32.082  23.227   1.330
40740W        W 2029  43.297  19.208  12.575
40741W        W 2030  40.522  40.041  11.557
40742W        W 2031  25.164  19.568   1.439
40743W        W 2032  14.820  25.141  10.477
40744W        W 2033  35.416  42.425   2.758
40745W        W 2034   0.854  10.673  12.953
40746W        W 2035  27.162  21.675   5.740
40747W        W 2036  32.570  33.093   2.723
40748W        W 2037   9.774   4.816   0.257
40749W        W 2038  11.789  37.485   5.220
40750W        W 2039  20.523  14.285   4.178
40751W        W 2040  24.158  39.059  14.492
40752W        W 2041  39.816   4.259  14.859
40753W        W 2042  28.512  18.182   2.795
40754W        W 2043  26.193  36.954   1.759
40755W        W 2044   4.711  27.184  12.512
40756W        W 2045  29.956  30.082   2.843
40757W        W 2046  26.533  18.694   2.287
40758W        W 2047  23.237  17.778  11.088
40759W        W 2048  15.301  19.687  13.861
40760W        W 2049  42.964  30.147   2.838
40761W        W 2050  40.333  18.636  10.024
40762W        W 2051  42.976  14.639   1.286
40763W        W 2052  37.928  33.998   4.780
40764W        W 2053   5.900  14.718  14.399
40765W        W 2054  39.817  29.089   0.735
40766W        W 2055  19.107  31.009   0.278
40767W        W 2056  43.503  19.154  12.973
40768W        W 2057  30.948  36.861   4.324
40769W        W 2058   9.818  24.704   4.317
40770W        W 2059  41.845  23.090   2.853
40771W        W 2060  43.386   8.247   1.282
40772W        W 2061  16.160  19.283   0.795
40773W        W 2062  37.858  44.497   1.288
40774W        W 2063   6.328  31.991   2.297
40775W        W 2064  43.816   1.404  12.090
40776W        W 2065  17.235   5.850   2.778
40777W        W 2066   1.322  29.471   4.350
40778W        W 2067  32.900  36.920   4.814
40779W        W 2068  17.303  39.954   4.192
40780W        W 2069  18.200   8.678   4.256
40781W        W 2070   2.951  23.049   3.387
40782W        W 2071   7.184   5.239  12.091
40783W        W 2072  23.081  37.434   4.598
40784W        W 2073   4.770  39.325  13.874
40785W        W 2074  20.606   7.233   2.691
40786W        W 2075  19.537  34.081  12.022
40787W        W 2076  34.869  29.494   9.927
40788W        W 2077  27.057  40.350  14.876
40789W        W 2078  10.320  44.806  10.148
40790W        W 2079  13.311  29.932  10.418
40791W        W 2080  11.213  22.121   1.876
40792W        W 2081  22.743   2.389   4.303
40793W        W 2082  20.683  14.590  12.528
40794W        W 2083  36.964  15.237  12.998
40795W        W 2084  43.827  29.164  13.357
40796W        W 2085  34.041  17.254  12.389
40797W        W 2086   5.303  42.361  14.820
40798W        W 2087  35.579  38.877  12.443
40799W        W 2088   7.391  31.578   0.813
40800W        W 2089  33.466  36.892   2.680
40801W        W 2090  20.044  27.494   1.371
40802W        W 2091   1.300   9.681   4.696
40803W        W 2092  31.988  20.541  11.506
40804W        W 2093  30.942  19.273  14.004
40805W        W 2094  36.472  43.289   1.766
40806W        W 2095   0.253  22.136  14.372
40807W        W 2096   3.404   1.893  13.032
40808W        W 2097  37.003   3.453  12.912
40809W        W 2098  29.582  31.961  12.383
40810W        W 2099   2.723  10.716   0.903
40811W        W 2100  26.069  20.608  14.912
40812W        W 2101  24.523  17.063  14.514
40813W        W 2102  17.563  26.532  10.488
40814W        W 2103  18.218   7.732  13.447
40815W        W 2104  16.603   6.252  14.481
40816W        W 2105  27.471   9.862   2.860
40817W        W 2106  26.668  21.579  10.571
40818W        W 2107  38.968   8.248   2.366
40819W        W 2108  14.340  33.938   3.217
40820W        W 2109  12.700   9.672  11.110
40821W        W 2110   7.824   9.823  10.600
40822W        W 2111   3.854  28.498   1.417
40823W        W 2112  34.595  37.062  14.450
40824W        W 2113  14.180  30.438   0.293
40825W        W 2114  12.329   4.767   0.387
40826W        W 2115  41.325   1.344   4.225
40827W        W 2116  30.615  19.184   1.786
40828W        W 2117   5.888  23.198  11.008
40829W        W 2118   5.729  15.653  10.430
40830W        W 2119  20.212  32.534   4.662
40831W        W 2120  43.450  22.564   2.726
40832W        W 2121  15.636  20.749  13.800
40833W        W 2122  19.545  13.334   0.334
40834W        W 2123   3.790  17.081  11.586
40835W        W 2124  35.050   6.279  11.584
40836W        W 2125  22.555  36.373   2.730
40837W        W 2126   0.444  28.576   1.752
40838W        W 2127   5.299  26.059  14.822
40839W        W 2128   3.881  25.469   4.248
40840W        W 2129  20.726  35.096   2.229
40841W        W 2130   4.251  34.533  14.897
40842W        W 2131  22.725  44.459  11.544
40843W        W 2132  21.700  39.461  13.813
40844W        W 2133  32.073  31.603  12.839
40845W        W 2134   8.830  38.534  10.472
40846W        W 2135  17.111   4.879  12.491
40847W        W 2136   8.270  42.982   1.778
40848W        W 2137  22.644  44.456   0.857
40849W        W 2138  10.809  43.510  12.076
40850W        W 2139  15.654  34.959   3.193
40851W        W 2140  33.515   9.812  11.880
40852W        W 2141   2.720  37.966   3.325
40853W        W 2142   8.327  42.953  11.496
40854W        W 2143  39.865  39.973  10.476
40855W        W 2144  27.611  10.256   4.204
40856W        W 2145  24.138  39.040  11.424
40857W        W 2146  18.225  31.645  11.047
40858W        W 2147   5.238  23.499  14.994
40859W        W 2148  35.411  30.926  11.415
40860W        W 2149   9.348  16.147   1.329
40861W        W 2150  11.859  17.700  11.057
40862W        W 2151  26.513  37.396  10.420
40863W        W 2152  13.106   1.468  11.083
40864W        W 2153  35.487  31.506  14.490
40865W        W 2154  41.834  41.391   2.772
40866W        W 2155  15.320  27.031   4.345
40867W        W 2156  20.131  26.588   2.307
40868W        W 2157  26.141  26.117  10.026
40869W        W 2158   8.870   3.780  11.116
40870W        W 2159  27.452  39.974   4.734
40871W        W 2160   4.299   0.828   0.438
40872W        W 2161   6.824   6.208   3.244
40873W        W 2162  21.688  19.560   0.312
40874W        W 2163   5.815  33.880   2.843
40875W        W 2164  13.756   2.307   1.318
40876W        W 2165  16.696   2.443   3.371
40877W        W 2166  29.175  26.608   4.664
40878W        W 2167  39.895  31.898   4.274
40879W        W 2168  23.046  14.760   2.260
40880W        W 2169  17.757  12.838   3.302
40881W        W 2170  36.057  25.005   2.261
40882W        W 2171  42.500  30.134  11.584
40883W        W 2172  19.618  44.868  11.488
40884W        W 2173   1.846  40.811  14.020
40885W        W 2174  31.916  22.669   5.246
40886W        W 2175  27.054  36.458  10.451
40887W        W 2176  36.914  27.533   2.795
40888W        W 2177  16.244  30.636  10.447
40889W        W 2178  23.084  33.591  10.416
40890W        W 2179  23.650  43.438   4.664
40891W        W 2180  22.640  14.663   3.746
40892W        W 2181  37.497   2.357   1.813
40893W        W 2182  18.649  42.798  15.000
40894W        W 2183  20.253  15.608   2.805
40895W        W 2184  21.529  10.728  13.892
40896W        W 2185  25.006  26.012  12.039
40897W        W 2186  32.636  12.240  11.977
40898W        W 2187  25.067  17.697  14.366
40899W        W 2188  12.116  20.611   3.281
40900W        W 2189  22.669  31.525  11.940
40901W        W 2190  13.108  37.518   0.863
40902W        W 2191  44.262  15.768   3.302
40903W        W 2192   2.937  39.429   1.395
40904W        W 2193  40.434  15.219   2.829
40905W        W 2194   8.712  43.504  13.359
40906W        W 2195  35.557  41.440  13.926
40907W        W 2196   0.864  15.614  10.463
40908W        W 2197  30.514  13.659  13.429
40909W        W 2198  29.439  26.565   4.289
40910W        W 2199  14.222  28.534  14.806
40911W        W 2200  41.795  19.274   3.818
40912W        W 2201  25.479   3.762  14.883
40913W        W 2202   2.327  34.473   2.728
40914W        W 2203  42.317  10.260   3.233
40915W        W 2204  12.338  17.152  12.089
40916W        W 2205  39.884  19.245  13.451
40917W        W 2206   6.278  31.910   3.218
40918W        W 2207  14.751  35.956   4.148
40919W        W 2208  12.195  29.513   2.697
40920W        W 2209  20.580  19.193   0.736
40921W        W 2210  41.875  29.021   5.288
40922W        W 2211   4.832   2.948  12.977
40923W        W 2212  13.759  29.109  14.814
40924W        W 2213  17.240  30.510  15.000
40925W        W 2214  36.999   8.669  13.341
40926W        W 2215  34.068  37.909  12.926
40927W        W 2216  16.611  22.034   0.257
40928W        W 2217   0.967   6.892  10.504
40929W        W 2218   6.857   7.282   0.901
40930W        W 2219   4.905  41.788  14.274
40931W        W 2220  23.538  15.661  10.460
40932W        W 2221  31.461  24.191  10.889
40933W        W 2222  35.485   1.381  13.878
40934W        W 2223  30.110  37.494   2.412
40935W        W 2224  34.060  38.524  10.478
40936W        W 2225  36.359  38.499   0.249
40937W        W 2226  35.423   7.320   4.668
40938W        W 2227  42.032  36.974   0.455
40939W        W 2228   3.738  22.577  12.004
40940W        W 2229  37.551  42.294  14.329
40941W        W 2230  10.242  10.323   0.874
40942W        W 2231  18.575  16.775  14.321
40943W        W 2232   1.435  16.138  11.043
40944W        W 2233  37.367   6.208   3.244
40945W        W 2234   6.356   6.325  14.397
40946W        W 2235  23.094  31.597  14.452
40947W        W 2236   5.283  27.635   4.673
40948W        W 2237  20.766  16.174  12.464
40949W        W 2238   8.689  33.080  11.377
40950W        W 2239  14.155  30.074   0.244
40951W        W 2240  12.346   7.187   1.429
40952W        W 2241  38.383  27.503   2.880
40953W        W 2242  32.633   0.895   5.197
40954W        W 2243   7.382  42.985   0.437
40955W        W 2244  26.622  36.456   2.349
40956W        W 2245  23.553  34.063  11.610
40957W        W 2246  26.021  27.944   1.820
40958W        W 2247  26.598  22.062   2.289
40959W        W 2248  12.841  39.440   0.908
40960W        W 2249  31.002  26.538   9.989
40961W        W 2250  13.147  29.598   3.364
40962W        W 2251  10.367  33.508  14.894
40963W        W 2252  43.969  12.274   3.352
40964W        W 2253  31.437  13.839  10.542
40965W        W 2254  15.600  44.494  11.376
40966W        W 2255   4.256  41.928   3.353
40967W        W 2256  25.695   2.925  12.494
40968W        W 2257   9.865  18.150   1.267
40969W        W 2258   1.741  25.171  14.291
40970W        W 2259  38.897  13.822   1.339
40971W        W 2260  34.907  37.079   1.378
40972W        W 2261  36.552   5.246   3.764
40973W        W 2262  18.246  13.836   4.214
40974W        W 2263   7.207  19.219  10.453
40975W        W 2264  10.795  24.651   2.875
40976W        W 2265  26.685  18.121   2.202
40977W        W 2266  25.594  23.062   3.698
40978W        W 2267  11.280  15.188  10.642
40979W        W 2268  37.034  38.013   0.422
40980W        W 2269   7.759  44.407  10.539
40981W        W 2270  22.079   3.725   3.727
40982W        W 2271   9.360  14.591  12.548
40983W        W 2272  11.129  25.557   3.762
40984W        W 2273  28.023   0.265   0.365
40985W        W 2274  22.684  15.292   9.986
40986W        W 2275  37.901  44.432  12.973
40987W        W 2276  43.441  29.569   3.693
40988W        W 2277  25.703   2.726   2.402
40989W        W 2278  45.000   7.223  13.473
40990W        W 2279   5.859  28.030   3.793
40991W        W 2280  14.776  32.524  10.456
40992W        W 2281   9.240  31.487   1.221
40993W        W 2282  12.183  29.129  13.450
40994W        W 2283  20.638   7.708  14.005
40995W        W 2284   1.956  40.824   3.780
40996W        W 2285  38.021   0.483  12.393
40997W        W 2286  41.427  35.403   3.305
40998W        W 2287   0.889   5.201   4.219
40999W        W 2288  26.163  29.029  11.469
41000W        W 2289  13.695  21.122   1.916
41001W        W 2290  11.157  36.465   1.316
41002W        W 2291  27.579  44.285  13.446
41003W        W 2292  37.841  20.173   4.193
41004W        W 2293  32.085   2.961  11.918
41005W        W 2294  37.846   0.394  13.984
41006W        W 2295  12.828   2.790  14.024
41007W        W 2296  31.111  22.116  13.448
41008W        W 2297  15.582  31.093   2.730
41009W        W 2298  39.007  40.946  11.870
41010W        W 2299  21.586  20.204   2.235
41011W        W 2300  20.732  39.871   2.221
41012W        W 2301   3.360  34.482  12.840
41013W        W 2302  22.175  12.813   0.305
41014W        W 2303  29.470  14.600   0.881
41015W        W 2304  36.420   1.926   3.331
41016W        W 2305  24.618   1.973  14.883
41017W        W 2306  32.082  42.926  12.049
41018W        W 2307  11.649  25.638   3.375
41019W        W 2308  23.077   3.757  13.530
41020W        W 2309  20.584   1.770  10.451
41021W        W 2310  29.475   8.303   1.234
41022W        W 2311  11.743  18.568  12.461
41023W        W 2312  25.493  14.671  11.506
41024W        W 2313  20.656  25.551   1.308
41025W        W 2314  12.658  11.846  12.951
41026W        W 2315  18.693   5.251  13.915
41027W        W 2316  32.406  11.832   1.357
41028W        W 2317  32.444  32.615  11.931
41029W        W 2318  15.762  26.627  11.925
41030W        W 2319  41.969  34.893  10.459
41031W        W 2320  25.620  43.327  11.945
41032W        W 2321  14.096   1.805   9.982
41033W        W 2322  34.098  44.782   3.856
41034W        W 2323  16.812  16.753   2.854
41035W        W 2324  20.680  39.873   0.879
41036W        W 2325  30.489  36.444   2.672
41037W        W 2326  41.974  24.482   0.822
41038W        W 2327  21.536  13.231   3.632
41039W        W 2328  21.555  42.362   3.196
41040W        W 2329  10.667  34.395   3.376
41041W        W 2330   2.933   7.249  13.013
41042W        W 2331   2.374  26.156   4.131
41043W        W 2332  20.718  35.049   4.814
41044W        W 2333  34.526  39.347  10.469
41045W        W 2334   3.918  18.103  14.340
41046W        W 2335  11.175  38.855   0.743
41047W        W 2336  35.978  38.913   3.757
41048W        W 2337  23.514  41.334  11.071
41049W        W 2338  20.606   1.442  14.294
41050W        W 2339  16.312  23.588  10.997
41051W        W 2340   0.968  42.360  12.003
41052W        W 2341  42.421  21.116  13.891
41053W        W 2342  17.091   4.428  13.915
41054W        W 2343   7.734  36.009   5.189
41055W        W 2344  15.702  44.357   1.256
41056W        W 2345  31.458   0.963  11.397
41057W        W 2346  33.492   9.216   2.787
41058W        W 2347  26.104  40.420   0.461
41059W        W 2348  16.807  22.590  10.409
41060W        W 2349  16.261  17.654   1.327
41061W        W 2350   7.400   3.428   3.678
41062W        W 2351   6.810  15.115  11.486
41063W        W 2352   3.715   3.296   1.757
41064W        W 2353   1.389  19.716   3.323
41065W        W 2354   5.915  17.654  12.532
41066W        W 2355  36.925  37.876  11.982
41067W        W 2356  18.198  13.791  10.465
41068W        W 2357  38.870  17.792   1.925
41069W        W 2358  12.790  41.020   3.750
41070W        W 2359  33.926  30.954  12.379
41071W        W 2360   1.354  36.985   1.325
41072W        W 2361  33.435  13.332  14.788
41073W        W 2362  38.992  19.603  13.482
41074W        W 2363  29.444  16.672   4.176
41075W        W 2364  25.594  23.231   2.743
41076W        W 2365  30.982  40.880  10.912
41077W        W 2366  31.923   8.753  13.824
41078W        W 2367  37.468  40.943   1.234
41079W        W 2368  10.799  43.871   3.659
41080W        W 2369  37.874  25.160   1.844
41081W        W 2370   8.758   0.481  10.612
41082W        W 2371  34.965  16.582  12.857
41083W        W 2372  16.203   7.363  13.399
41084W        W 2373  15.200  34.923   1.269
41085W        W 2374  38.493   3.261  10.979
41086W        W 2375  32.492   0.894   4.823
41087W        W 2376   7.824  32.071   4.710
41088W        W 2377  42.988  11.730  11.058
41089W        W 2378   0.382  36.455  11.007
41090W        W 2379  15.603   6.298   3.797
41091W        W 2380  39.812  20.681  11.923
41092W        W 2381  39.856   1.925   1.811
41093W        W 2382  25.501  36.058  11.378
41094W        W 2383  31.929  35.888  12.488
41095W        W 2384  17.082   7.268   4.678
41096W        W 2385  34.981  23.599  10.067
41097W        W 2386  14.105  21.227  12.941
41098W        W 2387  11.731  10.220   4.214
41099W        W 2388  26.114   8.694  12.534
41100W        W 2389  39.495   7.175  12.074
41101W        W 2390  20.181  21.204   2.774
41102W        W 2391  19.223  30.559   2.895
41103W        W 2392  43.866  44.326   4.257
41104W        W 2393   3.237  29.655   5.246
41105W        W 2394  42.834   2.359  14.354
41106W        W 2395   7.707   0.842   4.647
41107W        W 2396  25.544  16.228   1.723
41108W        W 2397  37.544   4.722  14.888
41109W        W 2398  39.998  20.243   9.482
41110W        W 2399  34.937  21.136   3.250
41111W        W 2400  25.993  31.116   2.384
41112W        W 2401   6.307   6.801   3.346
41113W        W 2402  34.506  33.382  11.448
41114W        W 2403  18.125  15.172  10.497
41115W        W 2404  21.564  29.010   4.729
41116W        W 2405  34.597  33.413  11.900
41117W        W 2406  25.087  42.785   4.617
41118W        W 2407  38.327  21.071   0.464
41119W        W 2408  15.305  41.404  14.506
41120W        W 2409   4.714  18.652   1.824
41121W        W 2410   5.344   1.840  11.858
41122W        W 2411  17.788  24.142   3.862
41123W        W 2412  10.260  16.667  13.940
41124W        W 2413   2.746   0.428   0.854
41125W        W 2414  25.530  39.058  10.024
41126W        W 2415  42.500   5.902   1.810
41127W        W 2416  40.973  29.578  13.381
41128W        W 2417  44.836  15.680  14.443
41129W        W 2418   1.834  18.754   0.731
41130W        W 2419  16.208  22.102   0.752
41131W        W 2420  30.975  44.933   1.826
41132W        W 2421  13.688  35.454   4.131
41133W        W 2422   6.826  22.104   3.704
41134W        W 2423  16.274  16.131  11.941
41135W        W 2424  21.180  31.084   0.424
41136W        W 2425   7.891  10.256   4.280
41137W        W 2426  20.263  14.259  13.325
41138W        W 2427  17.744  26.122  12.408
41139W        W 2428  12.831  23.172   2.792
41140W        W 2429  14.650  35.876  11.379
41141W        W 2430  21.086  20.255  10.482
41142W        W 2431  12.826  14.596  13.493
41143W        W 2432  37.891  41.941  13.024
41144W        W 2433  25.607   0.767  10.040
41145W        W 2434  26.030  26.561  13.825
41146W        W 2435   5.405  35.424   3.312
41147W        W 2436  30.466  16.170  12.351
41148W        W 2437  29.654  32.075   1.715
41149W        W 2438  22.534  28.962   4.195
41150W        W 2439  11.364  41.304  13.529
41151W        W 2440  23.712  29.649  11.071
41152W        W 2441  41.307  13.231  13.960
41153W        W 2442   0.456   4.891   3.706
41154W        W 2443  35.960  19.658   3.379
41155W        W 2444  33.920   1.452   4.624
41156W        W 2445  24.161  24.679   0.780
41157W        W 2446  19.270  24.478  13.903
41158W        W 2447  22.575  30.589   1.437
41159W        W 2448   6.410  35.962  14.370
41160W        W 2449  44.328   4.329   0.432
41161W        W 2450   0.287  25.474   0.757
41162W        W 2451  16.207   4.896  10.940
41163W        W 2452  10.251  32.899   5.297
41164W        W 2453  41.878   2.842   2.286
41165W        W 2454  42.313   7.378   9.609
41166W        W 2455  19.055  41.806   2.701
41167W        W 2456  43.796  18.553   0.833
41168W        W 2457  21.129  23.042   1.382
41169W        W 2458  13.603   3.834  11.590
41170W        W 2459   9.708  38.502   3.740
41171W        W 2460  44.490  30.548  12.488
41172W        W 2461  41.327  14.182  11.006
41173W        W 2462   3.285  14.096   0.394
41174W        W 2463  39.426   9.789  13.995
41175W        W 2464   1.890  30.595  10.490
41176W        W 2465  40.986  30.480   0.731
41177W        W 2466  16.142  28.662  14.346
41178W        W 2467   9.249   6.747  14.275
41179W        W 2468  28.657  29.536   4.296
41180W        W 2469  21.742  23.148   3.290
41181W        W 2470  27.031  21.156  10.644
41182W        W 2471  38.840  39.431  12.895
41183W        W 2472   5.843  12.223  12.523
41184W        W 2473  19.226  17.223   0.440
41185W        W 2474   0.831  22.726   1.298
41186W        W 2475  26.602  12.744   3.867
41187W        W 2476   7.222  23.607  13.952
41188W        W 2477  23.199   6.754  14.883
41189W        W 2478  22.724  30.623  12.958
41190W        W 2479  29.632  30.621   1.402
41191W        W 2480   6.315   4.888   5.314
41192W        W 2481   4.409  10.821  13.405
41193W        W 2482  27.575  19.265   1.810
41194W        W 2483  22.650  16.129  13.492
41195W        W 2484  20.751   7.339   1.248
41196W        W 2485  18.058  36.486  14.926
41197W        W 2486   3.224  38.497  12.968
41198W        W 2487  18.061  20.616   5.248
41199W        W 2488  30.935   6.184   1.267
41200W        W 2489  40.436  18.633   3.676
41201W        W 2490   0.488  17.119   0.244
41202W        W 2491  23.152  18.231   4.207
41203W        W 2492  18.102  15.226   4.148
41204W        W 2493   6.286  37.405  14.867
41205W        W 2494  26.078  44.332   1.260
41206W        W 2495   9.246  21.188   3.722
41207W        W 2496  39.474  44.455   0.387
41208W        W 2497   5.311  17.798   3.664
41209W        W 2498  20.065  18.759   1.353
41210W        W 2499  28.008  32.607  10.526
41211W        W 2500  40.014   3.342   3.697
41212W        W 2501  26.009  27.058  11.437
41213W        W 2502   3.891  39.372  10.475
41214W        W 2503  21.161  21.701   3.870
41215W        W 2504  27.978  24.146  12.573
41216W        W 2505  40.498   3.222   3.863
41217W        W 2506  30.456  16.716   1.240
41218W        W 2507  36.942   2.432  10.478
41219W        W 2508  17.737  42.431   4.131
41220W        W 2509   0.363   3.309  14.294
41221W        W 2510  21.109   4.248  14.903
41222W        W 2511  20.101  21.523  12.576
41223W        W 2512  30.481  21.063   1.379
41224W        W 2513  35.004  23.627  14.358
41225W        W 2514  43.833  22.065   2.801
41226W        W 2515  42.424  43.496  11.889
41227W        W 2516  10.218  16.790  10.611
41228W        W 2517  23.104  20.622  13.482
41229W        W 2518  37.832   2.885   1.341
41230W        W 2519  27.126  41.936  11.858
41231W        W 2520  37.962  28.948   2.768
41232W        W 2521  30.068  10.806  10.619
41233W        W 2522  34.869  44.419   0.319
41234W        W 2523   7.353   8.769  13.885
41235W        W 2524   9.279  32.424  11.994
41236W        W 2525   1.886   8.868   3.691
41237W        W 2526  13.164  20.151  14.416
41238W        W 2527  41.448  20.542  10.627
41239W        W 2528  42.456  16.125   0.382
41240W        W 2529  43.509  13.139  12.545
41241W        W 2530  18.183  37.535   0.967
41242W        W 2531  42.983  12.358  12.434
41243W        W 2532   8.375  18.695  14.358
41244W        W 2533  41.972   4.287   2.694
41245W        W 2534  41.309  19.105   3.331
41246W        W 2535  17.292   9.750   4.131
41247W        W 2536   8.870  28.102  13.951
41248W        W 2537   4.363  37.465  14.308
41249W        W 2538  40.970   4.800   2.237
41250W        W 2539  39.500  12.203   2.734
41251W        W 2540   9.367  40.854   3.270
41252W        W 2541  35.510  36.573  11.554
41253W        W 2542  30.037  42.508  11.956
41254W        W 2543  28.447  17.800   4.682
41255W        W 2544   9.284  44.758   0.321
41256W        W 2545   3.870  40.956  12.887
41257W        W 2546  34.917  35.382  14.514
41258W        W 2547  34.963  24.565  10.888
41259W        W 2548  30.652   6.374  10.110
41260W        W 2549  30.012  15.591   0.942
41261W        W 2550  21.545  27.480  13.943
41262W        W 2551  41.462  33.977   0.736
41263W        W 2552   0.460  15.754  14.983
41264W        W 2553  24.087  13.682  14.851
41265W        W 2554   0.753  10.190   0.960
41266W        W 2555  26.624  23.733  10.598
41267W        W 2556  16.131  22.122   3.678
41268W        W 2557  30.598  10.691   2.279
41269W        W 2558  34.035  35.968   4.353
41270W        W 2559  12.830  21.056   4.730
41271W        W 2560  17.120  39.011   2.768
41272W        W 2561  32.552   0.826  11.554
41273W        W 2562   6.794  11.214  11.898
41274W        W 2563   1.258  18.626  14.301
41275W        W 2564  37.947  22.520  14.777
41276W        W 2565  44.773  37.504   4.639
41277W        W 2566  11.660  10.352   3.201
41278W        W 2567   5.700  42.983  12.958
41279W        W 2568   2.469   0.263   1.440
41280W        W 2569  12.288  30.575  14.434
41281W        W 2570  20.195  25.168   4.152
41282W        W 2571   8.165  29.168  13.053
41283W        W 2572  16.209  35.535  14.952
41284W        W 2573  25.477  36.502   0.392
41285W        W 2574  20.607  36.432  11.472
41286W        W 2575  27.664  19.212  11.929
41287W        W 2576  37.528   5.697  11.448
41288W        W 2577  37.575  33.618   3.707
41289W        W 2578  35.584  38.842   0.252
41290W        W 2579  44.437  39.970   1.257
41291W        W 2580   9.695   7.704   1.700
41292W        W 2581   7.893   1.856   2.374
41293W        W 2582  16.197   8.384   0.479
41294W        W 2583  24.716  39.442  13.344
41295W        W 2584  43.447  24.126  12.029
41296W        W 2585  36.908   4.347   4.285
41297W        W 2586   4.252   1.400  14.846
41298W        W 2587  34.956  41.404   1.735
41299W        W 2588  43.967  29.066  10.596
41300W        W 2589   0.806  15.788   2.820
41301W        W 2590  32.885  35.961  12.417
41302W        W 2591  32.950  31.077   1.818
41303W        W 2592  19.628  15.109   1.386
41304W        W 2593  40.880  16.302  10.517
41305W        W 2594  40.536  38.559   0.291
41306W        W 2595  43.379  18.192   1.744
41307W        W 2596  39.919  13.764  13.326
41308W        W 2597  12.243  27.668  11.408
41309W        W 2598  33.592  21.171   1.344
41310W        W 2599  44.002  30.952  13.405
41311W        W 2600  12.297  10.741   1.830
41312W        W 2601  37.019   2.784   2.209
41313W        W 2602   9.328  36.906  11.973
41314W        W 2603  21.682  11.840  13.952
41315W        W 2604  27.609  18.065   0.967
41316W        W 2605  29.117  39.504   0.914
41317W        W 2606  22.743   6.362  11.514
41318W        W 2607  38.380  28.539   4.676
41319W        W 2608  13.339  26.512   4.147
41320W        W 2609  35.520   5.280  10.497
41321W        W 2610   4.722  24.058   9.486
41322W        W 2611  10.253   7.361   2.667
41323W        W 2612  10.197  10.286   3.322
41324W        W 2613  22.674  40.306   5.313
41325W        W 2614  38.037  33.894  13.870
41326W        W 2615   6.362  37.564   5.103
41327W        W 2616  37.512   9.811   3.805
41328W        W 2617  41.819  38.022  11.977
41329W        W 2618  16.140  15.639  13.942
41330W        W 2619  24.211   2.890  14.766
41331W        W 2620  22.150  36.398   1.343
41332W        W 2621  42.375  21.550  11.056
41333W        W 2622  12.763  41.405   3.770
41334W        W 2623  24.102  32.520   3.296
41335W        W 2624  31.094   3.242   3.285
41336W        W 2625  28.453  27.686  12.410
41337W        W 2626  37.875  41.880   0.380
41338W        W 2627  10.180  41.430  12.956
41339W        W 2628  31.098  28.964   3.647
41340W        W 2629   0.417  12.742  11.928
41341W        W 2630  36.519  22.068   2.230
41342W        W 2631  42.806  28.955  13.439
41343W        W 2632  21.700  35.954   0.884
41344W        W 2633  41.383  39.903   1.907
41345W        W 2634  29.459  30.635   3.155
41346W        W 2635  20.108  28.973  12.086
41347W        W 2636  38.915  16.689  10.569
41348W        W 2637  10.774   6.751   2.355
41349W        W 2638  12.630  11.317   2.285
41350W        W 2639  20.748  42.479  13.405
41351W        W 2640  34.411  36.509   0.439
41352W        W 2641  12.731  25.539   2.897
41353W        W 2642   6.382  40.806  14.379
41354W        W 2643  40.523  16.655  11.014
41355W        W 2644  38.045  38.328  11.456
41356W        W 2645   5.294  21.626   4.692
41357W        W 2646  16.707  31.445  13.415
41358W        W 2647   4.785  34.118  12.878
41359W        W 2648  30.976  37.042   3.260
41360W        W 2649  40.908  43.778  10.496
41361W        W 2650  32.459  43.924  14.423
41362W        W 2651   8.699  18.762  11.094
41363W        W 2652  31.132  28.664  13.504
41364W        W 2653  32.396  35.577  10.910
41365W        W 2654  44.885  27.073  11.892
41366W        W 2655  36.897  18.246   3.720
41367W        W 2656  34.561  30.447   1.324
41368W        W 2657  43.358  43.509  14.441
41369W        W 2658   8.797  22.523  11.009
41370W        W 2659  27.034   7.696  10.471
41371W        W 2660  35.047  36.423  12.511
41372W        W 2661  13.171  17.062   3.721
41373W        W 2662   7.848  23.574   0.741
41374W        W 2663   8.837   4.835  11.488
41375W        W 2664  21.618  27.617  11.479
41376W        W 2665  38.001  34.948  10.995
41377W        W 2666  21.034  33.937   1.816
41378W        W 2667  38.540  15.661   4.140
41379W        W 2668  27.503  40.923  10.634
41380W        W 2669  31.519  40.974  12.494
41381W        W 2670   3.881   0.781   4.236
41382W        W 2671  22.603  18.283   1.411
41383W        W 2672  12.236  35.918   1.765
41384W        W 2673  41.336  36.930  14.898
41385W        W 2674  29.516  35.379  14.837
41386W        W 2675  14.766  41.533  11.014
41387W        W 2676  25.149  37.458  10.071
41388W        W 2677  43.500  19.240  11.548
41389W        W 2678   1.824  42.806  12.077
41390W        W 2679  37.006  13.820   4.740
41391W        W 2680   8.674  17.090   4.196
41392W        W 2681   0.753  28.072  14.453
41393W        W 2682  41.024  35.922  12.007
41394W        W 2683  23.498  40.034   3.175
41395W        W 2684  34.057  38.842   2.355
41396W        W 2685   1.346  30.498  12.565
41397W        W 2686  15.236  36.957  14.314
41398W        W 2687  30.414  33.090   2.243
41399W        W 2688  39.916  14.229  11.893
41400W        W 2689  19.761  20.183   2.186
41401W        W 2690  43.301  31.909  12.005
41402W        W 2691  22.659  41.963  14.776
41403W        W 2692  39.510  28.169  12.928
41404W        W 2693  43.385   8.291   4.669
41405W        W 2694   3.392  26.528  10.983
41406W        W 2695  36.566  12.739   0.746
41407W        W 2696  12.653  37.467  12.853
41408W        W 2697  43.399  37.840  12.449
41409W        W 2698   9.311   8.351  12.339
41410W        W 2699   4.368  23.570  11.572
41411W        W 2700  10.285  11.845   5.288
41412W        W 2701   6.232  33.436  14.925
41413W        W 2702  12.121  42.287   2.720
41414W        W 2703  30.050  16.799  10.507
41415W        W 2704   4.783  28.182   0.811
41416W        W 2705   3.943  22.103  11.880
41417W        W 2706  42.375   0.913   2.207
41418W        W 2707  14.214  36.378  12.982
41419W        W 2708  39.922   1.867   3.696
41420W        W 2709  31.596  22.594  14.387
41421W        W 2710  17.668  42.492   0.294
41422W        W 2711   7.804   7.893   3.346
41423W        W 2712  11.752  30.427   1.307
41424W        W 2713  11.750  29.424   4.211
41425W        W 2714  41.479  13.343  12.971
41426W        W 2715  25.652  35.540  11.085
41427W        W 2716   9.254  42.834  13.392
41428W        W 2717   9.740  19.594  13.309
41429W        W 2718  18.209  39.457   3.338
41430W        W 2719  41.474  23.024  14.387
41431W        W 2720   1.290   8.360   3.658
41432W        W 2721  19.256  42.298  10.484
41433W        W 2722  23.696   4.883  10.609
41434W        W 2723   5.894  25.975   0.785
41435W        W 2724  21.124  36.883   3.740
41436W        W 2725  10.668  14.642  13.408
41437W        W 2726  19.069  39.455  11.075
41438W        W 2727  40.935  41.402   2.852
41439W        W 2728  20.264  34.056   2.298
41440W        W 2729  29.096  32.619   2.821
41441W        W 2730  36.036  19.718  14.930
41442W        W 2731   2.393  31.048  14.822
41443W        W 2732   0.330   3.932   2.826
41444W        W 2733  20.157  27.957   1.273
41445W        W 2734  31.470  17.759  14.865
41446W        W 2735  30.544  25.631   4.126
41447W        W 2736  44.788  44.430   3.804
41448W        W 2737   8.277  15.256   0.845
41449W        W 2738  22.025   4.895   4.677
41450W        W 2739  39.027  44.859   2.903
41451W        W 2740  21.650  16.762  14.842
41452W        W 2741  37.385  10.807  12.471
41453W        W 2742  40.548  13.716   1.277
41454W        W 2743  24.482  12.692  14.912
41455W        W 2744  43.980  37.897   2.733
41456W        W 2745   9.773  16.104  13.414
41457W        W 2746  12.806  36.542   3.679
41458W        W 2747  34.551  28.466   3.733
41459W        W 2748  26.620  36.008   2.270
41460W        W 2749  32.008  10.331  11.946
41461W        W 2750  10.158  33.993   4.702
41462W        W 2751  34.595  16.733  14.504
41463W        W 2752   6.183   9.235  13.469
41464W        W 2753  39.026  31.509   3.823
41465W        W 2754   2.832  32.901  14.344
41466W        W 2755  39.407   9.313  10.462
41467W        W 2756  14.594  30.967  11.935
41468W        W 2757  30.050   9.756   4.749
41469W        W 2758  16.787  10.850   4.186
41470W        W 2759  30.640  11.355  13.467
41471W        W 2760  33.431  17.128  14.436
41472W        W 2761  26.118  35.939  10.997
41473W        W 2762  38.509  15.083  11.998
41474W        W 2763  25.102  37.016  13.349
41475W        W 2764  10.144  35.003   1.325
41476W        W 2765   2.286  44.854   0.829
41477W        W 2766   5.714  38.874   3.236
41478W        W 2767  24.661  39.985  11.946
41479W        W 2768  37.389  28.522  12.847
41480W        W 2769  11.292  43.007  10.104
41481W        W 2770  27.541  11.318  11.859
41482W        W 2771   7.236  27.071  11.987
41483W        W 2772  39.437  17.652   0.780
41484W        W 2773  29.974  25.128   3.742
41485W        W 2774   8.695  11.187  10.905
41486W        W 2775  18.246   2.782   3.360
41487W        W 2776  31.609  43.941  12.834
41488W        W 2777   6.245  39.831  12.049
41489W        W 2778   5.795  15.309  13.403
41490W        W 2779  15.116  38.512   0.900
41491W        W 2780  32.611  41.006  12.056
41492W        W 2781   8.172  30.072  14.428
41493W        W 2782  37.045  13.761  12.847
41494W        W 2783  38.016  33.990  10.958
41495W        W 2784   1.930  42.364  12.959
41496W        W 2785  21.118  37.960   3.768
41497W        W 2786  42.002   1.353   1.750
41498W        W 2787  12.188  27.533   4.662
41499W        W 2788  26.122   5.797  13.456
41500W        W 2789  38.498  21.105   5.794
41501W        W 2790  32.626  17.291   0.482
41502W        W 2791   1.383   0.461  11.522
41503W        W 2792  32.011  10.256  11.583
41504W        W 2793  40.024  22.034   1.778
41505W        W 2794  30.550   1.237   4.313
41506W        W 2795  39.852  23.992   4.317
41507W        W 2796  24.563  23.533   4.760
41508W        W 2797  34.423  35.935   0.478
41509W        W 2798  33.558   9.164   0.299
41510W        W 2799  41.983  42.304   1.330
41511W        W 2800  23.582  33.892  13.365
41512W        W 2801  35.455  36.364  13.448
41513W        W 2802  37.560   8.767  12.998
41514W        W 2803  40.330  20.600  14.481
41515W        W 2804  28.637  42.800  12.889
41516W        W 2805  31.453   4.779   2.673
41517W        W 2806   4.778  19.712   2.355
41518W        W 2807  19.613  15.180   2.321
41519W        W 2808  29.617  27.995   5.132
41520W        W 2809  38.557  35.902  12.359
41521W        W 2810  32.056   7.852  12.059
41522W        W 2811  44.772  33.550  12.524
41523W        W 2812  37.038  12.239  11.503
41524W        W 2813  32.495  29.008   3.373
41525W        W 2814  24.627  35.956  11.543
41526W        W 2815   5.434  17.304  14.832
41527W        W 2816  25.523  28.627   0.480
41528W        W 2817  34.443   8.232  11.552
41529W        W 2818  43.003  24.483   2.353
41530W        W 2819  43.306  14.752   4.341
41531W        W 2820  24.078  44.769   2.201
41532W        W 2821   2.859  19.630   1.785
41533W        W 2822  27.140   5.255   0.287
41534W        W 2823  35.949  44.362   2.741
41535W        W 2824  25.490  37.880   3.310
41536W        W 2825   0.837  28.562   0.849
41537W        W 2826  27.092  12.764   1.357
41538W        W 2827  22.617  35.515   3.835
41539W        W 2828  30.607  34.464  11.585
41540W        W 2829  25.215   4.774   1.231
41541W        W 2830  32.539  10.220  14.327
41542W        W 2831   7.766  40.529  10.056
41543W        W 2832   7.821  15.188   2.311
41544W        W 2833  22.050  21.526   2.783
41545W        W 2834  20.245   8.864   4.789
41546W        W 2835   3.342  11.684  11.881
41547W        W 2836  10.680  30.040   1.301
41548W        W 2837  12.229  25.670   0.368
41549W        W 2838   1.936  18.664  13.455
41550W        W 2839  37.080   5.885   2.790
41551W        W 2840   2.401  24.037  14.863
41552W        W 2841   7.211  31.424  13.828
41553W        W 2842   8.754  28.043   0.899
41554W        W 2843  13.766  13.330   4.251
41555W        W 2844   7.736  35.071   4.759
41556W        W 2845   3.221  17.770   0.963
41557W        W 2846  25.092  20.056   3.725
41558W        W 2847   7.899  14.643  10.943
41559W        W 2848  40.386  37.937   1.368
41560W        W 2849  36.526   9.683  12.407
41561W        W 2850   8.774   6.891  12.856
41562W        W 2851  37.926  34.438  10.888
41563W        W 2852  34.491  31.517   3.286
41564W        W 2853  29.040  41.851  11.574
41565W        W 2854   0.494  38.854   0.389
41566W        W 2855   7.293  23.002   1.433
41567W        W 2856  30.430  23.024   1.743
41568W        W 2857  20.240  42.971  11.469
41569W        W 2858  19.569  20.640  11.475
41570W        W 2859   0.880  38.352  14.774
41571W        W 2860  15.089  24.127   5.135
41572W        W 2861  11.239  18.617  14.781
41573W        W 2862  20.606   1.859  13.418
41574W        W 2863  21.068  12.254  10.529
41575W        W 2864  12.241  33.471   3.256
41576W        W 2865  39.514   6.829  14.284
41577W        W 2866  39.943  28.930   4.705
41578W        W 2867  26.498   3.277   0.446
41579W        W 2868  19.280  28.022  14.473
41580W        W 2869  40.859  38.395   1.386
41581W        W 2870  38.380  23.613   3.669
41582W        W 2871  27.995  13.690  10.446
41583W        W 2872  42.995  38.945  12.938
41584W        W 2873  30.598   6.873   2.281
41585W        W 2874  14.639  39.365  11.920
41586W        W 2875  27.691   9.867   3.261
41587W        W 2876  36.430   8.399   2.352
41588W        W 2877  21.130  30.455  10.020
41589W        W 2878  18.660  42.961  11.409
41590W        W 2879  31.528  10.381   0.400
41591W        W 2880  28.024  14.219   3.847
41592W        W 2881  41.421  12.284  12.974
41593W        W 2882  40.930  17.564   1.728
41594W        W 2883  26.521   0.389   1.900
41595W        W 2884  25.540   4.820  12.066
41596W        W 2885  38.456  42.828  10.481
41597W        W 2886  44.299   3.381   1.925
41598W        W 2887  15.685   9.352  14.365
41599W        W 2888  25.970  26.098   5.283
41600W        W 2889  32.009  23.612   0.959
41601W        W 2890  11.653  16.661  12.907
41602W        W 2891  23.007  28.141   1.740
41603W        W 2892  10.769  10.360   1.418
41604W        W 2893  21.619  24.148   1.697
41605W        W 2894  22.736  20.230  13.457
41606W        W 2895  16.097  39.828  13.863
41607W        W 2896  15.151  34.600  11.433
41608W        W 2897  32.629  29.429  11.380
41609W        W 2898  15.166  27.661   1.374
41610W        W 2899  31.483  32.439  13.011
41611W        W 2900  23.568   4.305   1.344
41612W        W 2901  17.787  30.596  13.855
41613W        W 2902  30.910  24.639  14.791
41614W        W 2903  18.220  10.275  11.111
41615W        W 2904  32.132  20.672   1.889
41616W        W 2905   0.288   0.969  11.988
41617W        W 2906  19.139  12.731  11.602
41618W        W 2907  38.569  33.621   4.622
41619W        W 2908   5.270  30.592   1.222
41620W        W 2909  19.281  34.895   4.155
41621W        W 2910  21.676   0.387   0.384
41622W        W 2911   4.728  36.472   4.331
41623W        W 2912   7.360   0.813  10.626
41624W        W 2913  27.519  34.948   2.756
41625W        W 2914  12.781   9.236  11.477
41626W        W 2915  10.175  17.723   2.264
41627W        W 2916  18.701   8.726  11.436
41628W        W 2917   8.873  11.224  13.475
41629W        W 2918  30.546  23.160  13.062
41630W        W 2919  11.318  30.093   0.285
41631W        W 2920  13.204  34.536  11.520
41632W        W 2921   1.293   9.151   3.184
41633W        W 2922  30.521   8.686  13.446
41634W        W 2923  25.613   5.200   1.307
41635W        W 2924  10.681  34.108   0.783
41636W        W 2925  40.908  25.063   2.293
41637W        W 2926  10.254  29.127   4.826
41638W        W 2927  42.827   4.824  13.544
41639W        W 2928  14.742  41.386   5.188
41640W        W 2929  35.439  19.264  12.546
41641W        W 2930  38.995  12.283  13.885
41642W        W 2931  44.922  13.244  10.945
41643W        W 2932  39.401  12.253   4.342
41644W        W 2933  20.137   1.421   4.134
41645W        W 2934  11.713  21.144  11.004
41646W        W 2935  33.489  12.358   4.144
41647W        W 2936   9.799  31.932  10.610
41648W        W 2937  41.494  41.488  11.013
41649W        W 2938   4.847  32.885  12.394
41650W        W 2939  29.584   3.762   4.687
41651W        W 2940  13.689  16.227   4.704
41652W        W 2941  35.544  34.969   2.410
41653W        W 2942  17.768  31.993   2.837
41654W        W 2943   3.799  42.292  14.435
41655W        W 2944  24.176  20.171   3.799
41656W        W 2945  14.232   6.822   3.645
41657W        W 2946  14.129  40.813   1.404
41658W        W 2947  14.192   5.754  11.087
41659W        W 2948  33.918  42.797  10.950
41660W        W 2949   8.760  17.216   1.230
41661W        W 2950  26.682   7.868  10.033
41662W        W 2951  30.067   0.747   0.257
41663W        W 2952   2.359  38.463   1.759
41664W        W 2953   0.315  44.872  10.630
41665W        W 2954  32.504  21.741   0.450
41666W        W 2955  43.942   6.784   2.707
41667W        W 2956  11.810  13.687  11.409
41668W        W 2957  15.305   6.898  12.889
41669W        W 2958   1.799  17.586   3.723
41670W        W 2959  42.802  20.097   0.933
41671W        W 2960  36.561   9.886   2.684
41672W        W 2961  37.955  13.737   1.826
41673W        W 2962  41.381  18.110  13.048
41674W        W 2963  42.862  17.134  14.276
41675W        W 2964  20.570  25.051  10.528
41676W        W 2965  42.013  29.049  14.377
41677W        W 2966   7.267  17.231   5.083
41678W        W 2967  12.762  26.184   0.790
41679W        W 2968   8.343  22.125   0.299
41680W        W 2969  29.547  29.545   1.737
41681W        W 2970  31.038  28.499  12.860
41682W        W 2971  21.128  19.733   2.338
41683W        W 2972   1.774  20.121  11.121
41684W        W 2973  43.286  37.345  11.517
41685W        W 2974   3.831  19.640   0.411
41686W        W 2975  11.140  37.850   2.847
41687W        W 2976  40.361   6.816   2.367
41688W        W 2977   8.671   9.744   1.283
41689W        W 2978   4.740  39.038  10.934
41690W        W 2979  17.625  34.090  14.509
41691W        W 2980  41.900  43.996   3.196
41692W        W 2981   4.438  27.507   5.090
41693W        W 2982   8.859  43.876   4.691
41694W        W 2983  10.167  12.810  13.799
41695W        W 2984  33.028  18.618   2.806
41696W        W 2985  19.115   3.884  10.636
41697W        W 2986  21.755  31.561  14.813
41698W        W 2987  15.268  40.306  10.615
41699W        W 2988  18.219  36.860  13.904
41700W        W 2989   9.277   6.182  12.339
41701W        W 2990   4.926  14.815  10.540
41702W        W 2991  25.700   0.289   4.741
41703W        W 2992  26.505  24.618   1.358
41704W        W 2993  13.626   0.459   3.808
41705W        W 2994  12.362  41.795  11.928
41706W        W 2995  25.506   0.936   0.772
41707W        W 2996   9.808  27.083  11.546
41708W        W 2997   5.882   4.210  13.314
41709W        W 2998  16.592  18.134  11.972
41710W        W 2999  37.841  31.559   4.730
41711W        W 3000  13.646  42.898  11.600
41712W        W 3001   4.767  41.840  11.605
41713W        W 3002  20.712  28.136  14.371
41714W        W 3003  10.716  15.765   0.280
41715W        W 3004  35.432   9.888   3.747
41716W        W 3005  37.474  22.608  10.508
41717W        W 3006  17.067  27.450  14.485
41718W        W 3007  17.793  25.043   3.263
41719W        W 3008  18.075  36.393   3.171
41720W        W 3009  44.873  10.374  11.575
41721W        W 3010  13.187  35.462   1.743
41722W        W 3011  38.470  39.371   0.948
41723W        W 3012  37.338  18.205   9.553
41724W        W 3013  29.600   4.737  11.599
41725W        W 3014   0.840  37.519   0.952
41726W        W 3015  21.628   8.702  14.799
41727W        W 3016  40.403  25.219  14.868
41728W        W 3017  32.957  39.974  12.065
41729W        W 3018  35.393  44.330   3.782
41730W        W 3019  31.102  43.969  11.610
41731W        W 3020  12.718  44.272   3.707
41732W        W 3021  34.959  41.879  12.985
41733W        W 3022  20.765  13.705  10.466
41734W        W 3023  35.483   1.741   0.401
41735W        W 3024   3.890  10.696   3.674
41736W        W 3025  21.515  35.865  13.013
41737W        W 3026  35.578  21.642  11.905
41738W        W 3027  42.478  30.446  13.793
41739W        W 3028   4.369   7.895   4.755
41740W        W 3029  18.091  23.131   3.277
41741W        W 3030  12.628   2.469   2.344
41742W        W 3031  11.314  16.284  13.819
41743W        W 3032  35.579  29.502  11.080
41744W        W 3033   5.268  39.349   2.687
41745W        W 3034  27.969  35.530  11.410
41746W        W 3035  37.544  10.202  13.023
41747W        W 3036  16.595  17.609  10.977
41748W        W 3037  26.051  20.733  10.472
41749W        W 3038  34.943   6.208  12.562
41750W        W 3039  12.305  23.619  14.431
41751W        W 3040  36.924  24.580   0.849
41752W        W 3041  31.575  34.392   3.699
41753W        W 3042   6.357  23.628   0.412
41754W        W 3043  44.274  15.585   2.332
41755W        W 3044  20.615  44.788   0.847
41756W        W 3045  44.440  32.551  14.811
41757W        W 3046   2.233  12.139  10.589
41758W        W 3047  18.085  40.001   9.538
41759W        W 3048  15.166  23.054   1.348
41760W        W 3049  13.213  10.322   0.439
41761W        W 3050   9.360   0.831   1.238
41762W        W 3051  17.708  43.512   3.208
41763W        W 3052  42.351   3.236  13.893
41764W        W 3053  10.289  24.570  10.441
41765W        W 3054  30.514  11.745   3.254
41766W        W 3055  29.975  44.989   1.899
41767W        W 3056  19.121  19.624  13.449
41768W        W 3057  11.777  23.103   2.863
41769W        W 3058  10.676  22.237   1.260
41770W        W 3059   7.368  12.122   4.715
41771W        W 3060  12.287  30.074  14.301
41772W        W 3061  16.770  37.078   4.732
41773W        W 3062  27.137  21.150  14.839
41774W        W 3063  19.596  22.243   9.932
41775W        W 3064  28.117  18.201   3.187
41776W        W 3065   7.192  18.090   2.730
41777W        W 3066  44.377   5.253   4.254
41778W        W 3067  35.068   3.275   9.996
41779W        W 3068  41.798  19.273   2.779
41780W        W 3069  23.208  33.485  10.976
41781W        W 3070  36.409  23.992  14.318
41782W        W 3071  14.602  44.902   2.376
41783W        W 3072  39.951  13.268   3.153
41784W        W 3073  21.167  13.108   0.896
41785W        W 3074   9.701  34.433   4.350
41786W        W 3075   6.369  28.441  11.554
41787W        W 3076  35.541  25.683  11.582
41788W        W 3077  39.982  28.965  12.510
41789W        W 3078  12.799  34.562   3.788
41790W        W 3079  14.295  43.956  14.353
41791W        W 3080  35.021  44.905   2.766
41792W        W 3081  35.376  36.055   2.857
41793W        W 3082  36.461  40.037   4.154
41794W        W 3083   0.819  44.850   2.847
41795W        W 3084  12.229  42.791  13.508
41796W        W 3085  33.547   5.830   0.903
41797W        W 3086  21.675   4.754  11.981
41798W        W 3087  43.386  19.628   4.603
41799W        W 3088  29.137  10.227  11.109
41800W        W 3089  28.173  19.533  10.633
41801W        W 3090  18.789  33.430  12.974
41802W        W 3091  31.069   6.791  14.857
41803W        W 3092  39.026  37.036  12.383
41804W        W 3093  26.512   6.808   5.749
41805W        W 3094  23.663  25.068  14.783
41806W        W 3095  29.665  37.463   1.718
41807W        W 3096  40.027  31.616  10.444
41808W        W 3097  26.043  39.870  10.413
41809W        W 3098  30.483  22.125  11.478
41810W        W 3099   4.885  23.540  12.972
41811W        W 3100  34.611   7.378   4.655
41812W        W 3101   1.376  17.288  11.021
41813W        W 3102  33.489   0.920  13.388
41814W        W 3103  20.187  11.793   4.304
41815W        W 3104  12.653  24.669  13.524
41816W        W 3105  13.152  21.077   3.668
41817W        W 3106   8.804  15.604   2.731
41818W        W 3107   9.704  44.994  12.558
41819W        W 3108  29.959  42.847   4.644
41820W        W 3109  31.636  10.369  14.940
41821W        W 3110  15.669  26.097  12.843
41822W        W 3111  40.825   8.877  12.340
41823W        W 3112   8.699  28.472  13.919
41824W        W 3113  30.008  43.467  11.969
41825W        W 3114  26.991   2.881   2.684
41826W        W 3115  15.677  24.105   3.666
41827W        W 3116  26.687   5.221   4.624
41828W        W 3117  35.108   1.344   2.205
41829W        W 3118  40.461  37.456  10.466
41830W        W 3119  25.166   6.342   3.779
41831W        W 3120   4.361  44.409  12.010
41832W        W 3121   7.866  32.436   4.170
41833W        W 3122   1.736  40.015   0.803
41834W        W 3123  35.392  40.870  13.832
41835W        W 3124   7.376  42.998  12.070
41836W        W 3125  14.111  38.431   3.162
41837W        W 3126  36.930  29.616   4.291
41838W        W 3127  15.754  29.944  11.447
41839W        W 3128  36.386  25.567   0.354
41840W        W 3129   1.424  13.815   3.751
41841W        W 3130  32.944  19.772  11.373
41842W        W 3131  36.547   1.915  14.300
41843W        W 3132   3.851   5.325   2.860
41844W        W 3133  40.009  31.975   3.241
41845W        W 3134  27.162  17.243   9.921
41846W        W 3135   6.683   9.710  13.919
41847W        W 3136   1.351  18.123  11.545
41848W        W 3137   5.737  30.937  14.900
41849W        W 3138  36.017  34.948   4.697
41850W        W 3139  20.531   8.731   3.171
41851W        W 3140  13.263  43.783   4.648
41852W        W 3141   8.302  36.592  14.321
41853W        W 3142  37.476  34.901   1.775
41854W        W 3143   6.407  20.612   1.451
41855W        W 3144  13.834  32.994   1.432
41856W        W 3145  13.839  38.358  11.503
41857W        W 3146  14.691  18.641   2.814
41858W        W 3147   2.893   4.931  11.503
41859W        W 3148  16.317  16.587  14.826
41860W        W 3149  21.074  23.570   0.857
41861W        W 3150  23.992   4.873  13.053
41862W        W 3151  33.472  10.210   2.341
41863W        W 3152  13.691  38.395   2.252
41864W        W 3153  44.916   3.907  14.763
41865W        W 3154  34.523  28.946   3.158
41866W        W 3155   2.741  42.966  11.431
41867W        W 3156  35.555  28.550   1.882
41868W        W 3157  19.109  33.914   0.251
41869W        W 3158   8.170  40.861   3.708
41870W        W 3159  27.012  42.776  11.506
41871W        W 3160   5.799  16.677  14.412
41872W        W 3161  38.420  35.421   0.418
41873W        W 3162  28.017  18.623  14.908
41874W        W 3163  29.522  30.980  11.014
41875W        W 3164  38.335  39.451   3.291
41876W        W 3165  15.602  11.666  14.331
41877W        W 3166  18.753  26.074  11.407
41878W        W 3167  43.428  39.395  13.384
41879W        W 3168  37.982   7.312  14.973
41880W        W 3169   2.955  30.536   1.916
41881W        W 3170  18.573  43.809   3.843
41882W        W 3171  24.032  21.060   3.824
41883W        W 3172  10.215   0.895   1.246
41884W        W 3173  31.952  33.975  13.366
41885W        W 3174  43.328  15.745   1.849
41886W        W 3175  32.426  16.702   0.867
41887W        W 3176  28.108  31.460  13.825
41888W        W 3177  28.133  41.350  10.406
41889W        W 3178   0.452  13.261  10.440
41890W        W 3179  29.451   2.436  14.025
41891W        W 3180  11.724  25.981   2.750
41892W        W 3181  37.988  44.353  11.514
41893W        W 3182  17.693  31.541   1.888
41894W        W 3183  38.820  28.641  13.417
41895W        W 3184  41.969  19.120  10.531
41896W        W 3185   0.399  19.269  13.322
41897W        W 3186  39.003  13.644  12.919
41898W        W 3187   6.274   6.207   4.258
41899W        W 3188  23.688  44.925   3.787
41900W        W 3189   3.323  39.513   0.244
41901W        W 3190   9.348  38.460   1.374
41902W        W 3191   0.306  22.513   2.803
41903W        W 3192  19.095   3.326  11.861
41904W        W 3193  39.481  13.141  13.894
41905W        W 3194   0.481   6.343   0.835
41906W        W 3195  31.108  19.708  13.313
41907W        W 3196  22.533  42.381   3.169
41908W        W 3197  35.546  18.204  13.383
41909W        W 3198  21.703  43.902   1.439
41910W        W 3199  37.417  23.500  11.930
41911W        W 3200  39.447  20.562   2.702
41912W        W 3201   1.382  14.312  14.351
41913W        W 3202  36.503   2.948  11.084
41914W        W 3203  38.012   3.741  12.045
41915W        W 3204   2.753  40.871   2.814
41916W        W 3205  40.929  43.811  14.351
41917W        W 3206  26.689  19.766  13.385
41918W        W 3207  18.757   8.793  13.899
41919W        W 3208  10.654   0.458  11.410
41920W        W 3209  18.065  33.524   1.428
41921W        W 3210  26.560   0.877   0.876
41922W        W 3211  18.736  33.002  14.507
41923W        W 3212  34.954  40.389  13.050
41924W        W 3213  17.573   6.288  14.818
41925W        W 3214  38.412  11.208  13.356
41926W        W 3215  12.217  37.050   0.439
41927W        W 3216  19.692  44.929   0.871
41928W        W 3217   6.361  12.157   4.258
41929W        W 3218   4.381  32.938   3.848
41930W        W 3219  10.826  31.930   4.164
41931W        W 3220  11.285  38.978   2.729
41932W        W 3221  31.106   4.792   3.746
41933W        W 3222  38.070  30.503  13.449
41934W        W 3223  18.722  17.631   1.892
41935W        W 3224  33.499  39.900   5.137
41936W        W 3225  17.268  30.005   1.828
41937W        W 3226   1.395  39.341  10.618
41938W        W 3227   8.895  44.836   4.230
41939W        W 3228  33.515  35.592  13.981
41940W        W 3229  20.573  37.934  10.428
41941W        W 3230  30.038  26.631  14.796
41942W        W 3231   7.702   2.409   2.261
41943W        W 3232  27.676  38.047  14.777
41944W        W 3233  39.857   6.397   1.241
41945W        W 3234  41.303   9.318   3.384
41946W        W 3235  31.639   9.296   2.287
41947W        W 3236  37.861  42.527  11.888
41948W        W 3237  42.938  38.524   4.830
41949W        W 3238  25.078  17.135  11.587
41950W        W 3239  44.761  29.639   2.877
41951W        W 3240  41.904  17.166  12.871
41952W        W 3241  26.590  24.649   3.282
41953W        W 3242  42.471  32.898  14.395
41954W        W 3243  22.562   6.407  12.545
41955W        W 3244  11.236  41.415   2.840
41956W        W 3245  38.964  38.371   0.856
41957W        W 3246  17.617  35.869   0.803
41958W        W 3247   3.414  14.772  12.891
41959W        W 3248  14.317  14.811   3.340
41960W        W 3249  25.698  42.919   0.827
41961W        W 3250   3.842  41.011  14.452
41962W        W 3251  32.444   6.250  11.397
41963W        W 3252  44.881  24.487   3.764
41964W        W 3253  38.440  21.564   1.906
41965W        W 3254  28.540   4.752   0.816
41966W        W 3255  22.070  22.069   9.939
41967W        W 3256  40.426  11.168   0.342
41968W        W 3257  20.129  33.617   0.472
41969W        W 3258  10.684   9.267   2.746
41970W        W 3259  11.194  20.587  14.363
41971W        W 3260  21.047   6.684   0.873
41972W        W 3261  11.745  16.132   0.876
41973W        W 3262  22.743  16.103  12.999
41974W        W 3263  27.662  29.438  11.944
41975W        W 3264  26.082  44.848  11.382
41976W        W 3265   3.384  43.284   1.715
41977W        W 3266  21.752  32.460  14.357
41978W        W 3267  38.900  26.633   3.635
41979W        W 3268   4.713   1.317   0.767
41980W        W 3269  39.854  23.205   1.288
41981W        W 3270  38.937  35.543   3.374
41982W        W 3271  25.699  15.240   0.763
41983W        W 3272   1.961  26.469   1.259
41984W        W 3273  25.978  39.011  13.373
41985W        W 3274  15.235  41.822   3.150
41986W        W 3275  44.287  22.227   0.846
41987W        W 3276  11.246  41.309  14.512
41988W        W 3277   1.273  22.540  11.894
41989W        W 3278  32.134  15.279   0.805
41990W        W 3279  26.191  32.468  14.940
41991W        W 3280  30.576  24.012   3.152
41992W        W 3281  12.162  25.064   5.206
41993W        W 3282  25.009   2.318  10.562
41994W        W 3283   6.731  23.615   0.897
41995W        W 3284  25.508  11.624   4.665
41996W        W 3285  14.740   0.847  10.963
41997W        W 3286  33.911  32.394   2.385
41998W        W 3287   3.407  15.168   0.385
41999W        W 3288  42.859   1.357   3.341
42000W        W 3289   0.363  13.193   3.856
42001W        W 3290  23.990  20.625   0.787
42002W        W 3291  30.573  22.096  12.029
42003W        W 3292  23.032  39.823   3.190
42004W        W 3293  28.942   4.317  13.454
42005W        W 3294  32.515  40.547  14.873
42006W        W 3295  23.157  29.439  13.055
42007W        W 3296   7.749   9.842  11.028
42008W        W 3297  10.305  44.852  14.974
42009W        W 3298  43.766  44.500   0.349
42010W        W 3299   6.726   2.393   2.715
42011W        W 3300  12.819   4.274  13.950
42012W        W 3301  18.575  28.638  11.531
42013W        W 3302  43.799  35.004   4.743
42014W        W 3303  37.973  16.662   0.245
42015W        W 3304  38.820  12.313   2.856
42016W        W 3305  40.370  41.394   2.813
42017W        W 3306   3.404  39.425  14.019
42018W        W 3307  24.054  15.092  14.314
42019W        W 3308  41.842  43.285   2.400
42020W        W 3309  20.554  33.411   0.409
42021W        W 3310  34.589  34.534  10.442
42022W        W 3311  40.533   1.335  12.029
42023W        W 3312  33.963  35.089   1.389
42024W        W 3313  29.018  36.993  10.442
42025W        W 3314  30.639   1.824  13.459
42026W        W 3315  14.792  33.069  10.472
42027W        W 3316  13.633  34.566  10.591
42028W        W 3317   4.242  24.219  13.954
42029W        W 3318  24.138   2.395  13.019
42030W        W 3319  14.611  15.642   4.215
42031W        W 3320  25.573  15.201  13.031
42032W        W 3321   7.865  11.647  10.892
42033W        W 3322  36.452  10.749  14.915
42034W        W 3323  11.812  20.530  11.947
42035W        W 3324  28.981  31.467   3.728
42036W        W 3325  26.196   1.400  12.567
42037W        W 3326   6.384   0.759  14.325
42038W        W 3327  40.533   9.233   5.584
42039W        W 3328  11.328  34.502  12.971
42040W        W 3329  21.560  29.107   3.338
42041W        W 3330  12.777  13.749   4.710
42042W        W 3331  17.579  23.701   2.830
42043W        W 3332  15.273  31.523   0.475
42044W        W 3333   0.311  10.274   4.283
42045W        W 3334  15.251  12.144  11.555
42046W        W 3335  32.946  29.125  14.477
42047W        W 3336  23.166  30.435  12.846
42048W        W 3337  32.630  19.611  10.032
42049W        W 3338  22.687  12.811  13.470
42050W        W 3339  22.710  31.143   1.293
42051W        W 3340  29.643  36.535  14.447
42052W        W 3341  38.008  44.271  11.073
42053W        W 3342  24.658   7.839  11.013
42054W        W 3343  34.969  14.218   4.342
42055W        W 3344   6.222  41.498   1.923
42056W        W 3345   0.315  25.038   0.816
42057W        W 3346  34.476  34.977  12.579
42058W        W 3347  43.966   2.761  12.505
42059W        W 3348  39.482  36.857   4.304
42060W        W 3349  20.063  12.320   3.792
42061W        W 3350   3.770   0.305   1.845
42062W        W 3351  32.082   7.811   5.300
42063W        W 3352  26.518   0.428  14.353
42064W        W 3353  44.922  10.816  12.928
42065W        W 3354  32.501  42.898   2.195
42066W        W 3355  33.059  19.128   2.252
42067W        W 3356   1.339  12.221   3.354
42068W        W 3357  42.325  12.295   4.184
42069W        W 3358  28.979  20.237   0.837
42070W        W 3359   6.803  44.441   1.703
42071W        W 3360   2.412  39.956  14.431
42072W        W 3361  30.556  21.166  10.599
42073W        W 3362  43.767   7.813   3.758
42074W        W 3363  42.463   7.847   2.202
42075W        W 3364  19.574  29.496   3.229
42076W        W 3365  36.038  41.950   3.636
42077W        W 3366   4.249  33.383   4.645
42078W        W 3367   0.976  38.447   2.395
42079W        W 3368   3.360  20.099  13.805
42080W        W 3369  26.676  11.752   4.218
42081W        W 3370  42.428  37.904  11.550
42082W        W 3371  40.484  15.173   0.786
42083W        W 3372  43.443   8.400  14.370
42084W        W 3373   8.669  33.452  14.865
42085W        W 3374   8.818  27.057   1.320
42086W        W 3375   8.257  14.834  10.572
42087W        W 3376   1.387  25.562  11.473
42088W        W 3377   0.878  44.296  10.458
42089W        W 3378  31.012   0.446   0.817
42090W        W 3379  34.595   3.777  12.380
42091W        W 3380  11.645   8.279   2.316
42092W        W 3381   1.904  10.288   4.671
42093W        W 3382  30.078   9.366  13.525
42094W        W 3383  43.944  36.950   4.680
42095W        W 3384  30.525  29.500  13.538
42096W        W 3385   3.724  17.273   3.699
42097W        W 3386   7.700   5.811   3.699
42098W        W 3387  34.549  12.778   3.253
42099W        W 3388  24.513  25.691   4.254
42100W        W 3389  43.931   6.873   9.965
42101W        W 3390  38.933  36.504   4.288
42102W        W 3391  23.649  24.108  13.829
42103W        W 3392  41.966  29.072  12.875
42104W        W 3393  34.576  25.157   1.789
42105W        W 3394  21.027  39.366  13.451
42106W        W 3395  41.945  16.598  11.125
42107W        W 3396  43.984   4.351   3.707
42108W        W 3397  18.077  20.050   3.317
42109W        W 3398  38.351  22.581  14.403
42110W        W 3399  21.523   3.273   2.814
42111W        W 3400  43.951  27.571   1.338
42112W        W 3401  13.192   0.965   0.951
42113W        W 3402   9.829  37.835   3.675
42114W        W 3403  32.953  14.176   0.372
42115W        W 3404   5.888  41.933   2.212
42116W        W 3405  24.216   8.263  13.488
42117W        W 3406  17.589  38.976  13.993
42118W        W 3407  16.124  32.545  12.862
42119W        W 3408  29.102  31.054   0.754
42120W        W 3409  17.679  37.956   1.422
42121W        W 3410   2.852  10.716  12.564
42122W        W 3411  22.520  32.082  11.856
42123W        W 3412  12.697  40.898  11.478
42124W        W 3413   5.308   2.871   0.483
42125W        W 3414  31.141  13.239   4.214
42126W        W 3415  20.208  33.393   2.265
42127W        W 3416   2.454  20.699   2.776
42128W        W 3417  25.573  13.670  11.949
42129W        W 3418  30.610   5.212   4.137
42130W        W 3419  42.893  19.708   2.901
42131W        W 3420  25.128  29.170  13.054
42132W        W 3421  10.709  27.990  10.599
42133W        W 3422  18.709  37.033   4.627
42134W        W 3423   4.431   2.763   2.735
42135W        W 3424  32.555  15.208  13.009
42136W        W 3425  37.982  27.509   3.336
42137W        W 3426  25.005  32.397   3.665
42138W        W 3427  32.472  23.640  12.361
42139W        W 3428   4.382  29.613  12.033
42140W        W 3429  41.024  33.897   3.195
42141W        W 3430  36.916  24.125   3.161
42142W        W 3431   0.800  27.482  14.407
42143W        W 3432   1.836   2.420  14.764
42144W        W 3433  37.529  24.594   3.381
42145W        W 3434  44.884  33.496  13.434
42146W        W 3435   5.855  18.159   2.708
42147W        W 3436   7.377  41.414   4.723
42148W        W 3437   5.199  14.793   4.748
42149W        W 3438   4.810  18.712   1.276
42150W        W 3439  42.478  41.362  12.378
42151W        W 3440   7.174  17.611   3.270
42152W        W 3441  14.197  29.568  13.878
42153W        W 3442  10.769  38.992  10.460
42154W        W 3443  43.354   8.184  13.355
42155W        W 3444  15.612  27.084   2.891
42156W        W 3445   0.742  39.976  13.881
42157W        W 3446  38.383  41.484  11.407
42158W        W 3447   1.408   2.951  12.495
42159W        W 3448  26.078   8.384   0.763
42160W        W 3449  41.892  18.175  14.854
42161W        W 3450  32.103  23.233   3.290
42162W        W 3451  38.068  13.606  10.963
42163W        W 3452   8.813   5.770  10.040
42164W        W 3453  15.124  17.634   1.328
42165W        W 3454  33.562  32.608   2.880
42166W        W 3455   6.908  39.354   3.864
42167W        W 3456  30.538  36.932  11.602
42168W        W 3457  43.954  13.232   4.743
42169W        W 3458  23.193  42.967   0.247
42170W        W 3459  11.350  26.969   3.274
42171W        W 3460  35.417  17.252   2.694
42172W        W 3461  18.604  38.003  12.943
42173W        W 3462  39.907  22.670  14.470
42174W        W 3463  35.096  41.892  10.591
42175W        W 3464  26.021  31.426   1.341
42176W        W 3465  23.017  18.629  12.901
42177W        W 3466  41.016  10.273   2.398
42178W        W 3467   8.390  25.980  12.360
42179W        W 3468   3.829  24.666   9.992
42180W        W 3469  23.069  28.019  13.822
42181W        W 3470  11.864  22.171  11.443
42182W        W 3471  39.854  36.460   2.675
42183W        W 3472   0.368  12.685  13.470
42184W        W 3473  19.183  29.062  14.891
42185W        W 3474  30.945   8.377   2.363
42186W        W 3475   8.195   2.889  12.074
42187W        W 3476  14.815   3.950  10.644
42188W        W 3477  10.165  30.066   4.757
42189W        W 3478  35.892  23.021   1.779
42190W        W 3479  22.579  19.114   1.725
42191W        W 3480   6.741   7.843  13.914
42192W        W 3481  17.727  20.572  13.424
42193W        W 3482  12.681  22.520  13.044
42194W        W 3483  42.907   7.244   5.274
42195W        W 3484  33.611  22.168  13.951
42196W        W 3485  37.984  26.464   0.321
42197W        W 3486  30.118   9.867   9.553
42198W        W 3487  28.152  41.970   2.199
42199W        W 3488   7.175  41.949  14.799
42200W        W 3489  17.577  40.835   4.122
42201W        W 3490  43.912   7.888  14.437
42202W        W 3491  30.097  10.370   0.262
42203W        W 3492  13.129  38.566   1.312
42204W        W 3493  31.544  38.821  14.804
42205W        W 3494  44.318  23.522   1.773
42206W        W 3495   1.896   7.349  11.022
42207W        W 3496  29.123   8.233  11.513
42208W        W 3497  23.498  35.388  13.036
42209W        W 3498   6.709   8.849   1.219
42210W        W 3499  19.608  11.841  14.921
42211W        W 3500  22.088  17.558   3.866
42212W        W 3501   2.370  27.958   0.402
42213W        W 3502  11.359  13.698  13.860
42214W        W 3503   9.765  38.837   1.405
42215W        W 3504   8.368  31.558   3.767
42216W        W 3505  25.661   5.733   9.965
42217W        W 3506   5.829  24.620  14.906
42218W        W 3507   5.324   4.333   4.344
42219W        W 3508  17.573  15.106  12.976
42220W        W 3509   5.204  36.573  12.436
42221W        W 3510  17.761  27.474  11.035
42222W        W 3511  30.144  36.003   1.352
42223W        W 3512  35.370  30.072   0.785
42224W        W 3513  22.685  22.545   1.799
42225W        W 3514  26.997  40.507   4.250
42226W        W 3515  40.378   2.762  13.343
42227W        W 3516   2.279  17.268   4.766
42228W        W 3517   3.935  17.606  11.118
42229W        W 3518  15.292   6.313  13.462
42230W        W 3519  39.395   4.377   4.835
42231W        W 3520  23.214  29.428   2.406
42232W        W 3521   9.326  23.002   2.356
42233W        W 3522  42.827  22.032   3.673
42234W        W 3523  39.425   3.877  11.097
42235W        W 3524  19.253  33.481   0.260
42236W        W 3525  33.886  13.223   3.818
42237W        W 3526  19.182  11.734  11.408
42238W        W 3527   0.854  18.123   2.710
42239W        W 3528  27.132  32.130  11.538
42240W        W 3529  31.619  42.017  10.994
42241W        W 3530  21.242  32.505  12.523
42242W        W 3531  16.787  28.480  10.458
42243W        W 3532  22.164   1.342  11.937
42244W        W 3533   3.234   0.968  11.412
42245W        W 3534   5.694  23.094   2.898
42246W        W 3535  26.990  32.025   2.243
42247W        W 3536  11.840  27.530   3.335
42248W        W 3537   4.700  19.731   0.778
42249W        W 3538  18.590  22.613  11.900
42250W        W 3539  19.212  43.459   0.952
42251W        W 3540  35.501  20.600   3.804
42252W        W 3541  14.595  41.838  13.473
42253W        W 3542  23.130  41.502  11.863
42254W        W 3543   5.364  16.084  10.621
42255W        W 3544  20.077  32.637   1.701
42256W        W 3545  24.042   7.788   1.875
42257W        W 3546   0.813   7.892  13.970
42258W        W 3547  10.872  11.856   0.303
42259W        W 3548  22.565  28.011   2.213
42260W        W 3549  17.649   6.257  11.502
42261W        W 3550  22.204  24.538  12.531
42262W        W 3551  20.730  17.602  13.793
42263W        W 3552  18.163  19.667  14.810
42264W        W 3553  44.904   7.400   3.185
42265W        W 3554   1.923  30.140  12.565
42266W        W 3555  25.563   3.899  11.495
42267W        W 3556  37.016  41.826  12.492
42268W        W 3557  13.767   7.311  12.058
42269W        W 3558  20.144  26.491  14.986
42270W        W 3559  28.661  37.519  11.018
42271W        W 3560  17.740  17.166  12.568
42272W        W 3561   4.352  44.919  13.046
42273W        W 3562  28.033   7.171  11.019
42274W        W 3563  13.694  44.498  11.588
42275W        W 3564  42.329  20.765   0.419
42276W        W 3565  11.254  39.443  14.932
42277W        W 3566  41.536  35.600  10.601
42278W        W 3567   0.940  11.220  13.978
42279W        W 3568  42.853   1.464  12.921
42280W        W 3569  11.157  39.967  12.047
42281W        W 3570  35.555  20.686  12.074
42282W        W 3571   8.220  39.357  14.927
42283W        W 3572  34.489  36.519  13.547
42284W        W 3573  44.440  36.051   3.866
42285W        W 3574   3.393  30.012   4.810
42286W        W 3575  27.686   9.150  11.870
42287W        W 3576  14.690  40.845   0.464
42288W        W 3577  38.460   6.886   3.649
42289W        W 3578  30.459  23.113  10.915
42290W        W 3579  15.108   5.230  13.397
42291W        W 3580  10.751  15.791  12.897
42292W        W 3581  38.560  44.398  11.521
42293W        W 3582  32.009  32.603  12.824
42294W        W 3583  41.811  29.081   0.339
42295W        W 3584  25.527   9.697   3.254
42296W        W 3585  17.279   4.211   1.713
42297W        W 3586  11.169  42.443   2.394
42298W        W 3587  30.037   8.795  10.640
42299W        W 3588  31.636  25.489  10.645
42300W        W 3589   7.704  34.086   4.130
42301W        W 3590   9.799  28.121  12.830
42302W        W 3591  29.485  36.476  10.909
42303W        W 3592   9.704  19.063  11.884
42304W        W 3593  34.482  27.546  14.797
42305W        W 3594   9.829   2.947   1.444
42306W        W 3595  26.558  19.057  10.593
42307W        W 3596  13.684  15.195   1.922
42308W        W 3597  14.220  26.002  11.972
42309W        W 3598  33.091   2.863   2.230
42310W        W 3599   5.209  33.072   2.196
42311W        W 3600   5.717   5.340  14.962
42312W        W 3601  38.875  23.717   3.184
42313W        W 3602   2.779   2.267   3.827
42314W        W 3603   9.702  27.085   1.763
42315W        W 3604  27.173  41.954   3.197
42316W        W 3605  25.476  11.220  12.441
42317W        W 3606  29.647  15.578   5.085
42318W        W 3607   8.267  38.531   1.437
42319W        W 3608  17.133  38.348   5.152
42320W        W 3609  10.273  21.120  14.797
42321W        W 3610  33.455  42.802   1.756
42322W        W 3611  26.523  31.104   1.923
42323W        W 3612  29.497  15.793   4.161
42324W        W 3613  24.698  28.938  12.453
42325W        W 3614  37.347  10.815  13.451
42326W        W 3615  19.078  14.646   1.739
42327W        W 3616  33.897  35.397  14.952
42328W        W 3617   1.321  40.421   3.832
42329W        W 3618   3.230  13.261   4.132
42330W        W 3619  22.624   2.898  10.512
42331W        W 3620  33.591  10.770   2.712
42332W        W 3621  15.736  18.658  13.903
42333W        W 3622  17.133   4.832  13.434
42334W        W 3623  19.720  27.542   3.813
42335W        W 3624  25.124  33.621  14.472
42336W        W 3625  40.346  32.116   1.322
42337W        W 3626  19.777   2.787  13.919
42338W        W 3627   4.230  35.427  11.043
42339W        W 3628  23.077  29.079   0.935
42340W        W 3629  24.528  23.073  11.606
42341W        W 3630  23.107   0.865   3.343
42342W        W 3631  14.614  28.646  14.304
42343W        W 3632  13.647  36.558  11.066
42344W        W 3633  25.708  16.147  13.885
42345W        W 3634  38.981  18.741  12.934
42346W        W 3635  33.038  25.171   0.358
42347W        W 3636  21.125  20.647  13.035
42348W        W 3637   8.848  20.185   1.857
42349W        W 3638  25.128  42.802   2.756
42350W        W 3639   3.923   5.303   2.240
42351W        W 3640  27.995  36.891  12.567
42352W        W 3641   6.718  37.982  12.874
42353W        W 3642  40.845  12.847   4.260
42354W        W 3643  39.953  25.664   2.188
42355W        W 3644  18.218   8.384   1.780
42356W        W 3645  15.090  40.535   3.768
42357W        W 3646  14.145  34.043  14.284
42358W        W 3647  10.348  18.786   1.386
42359W        W 3648  26.634  11.796   1.405
42360W        W 3649  18.163  25.680   3.803
42361W        W 3650  10.762  10.740  14.361
42362W        W 3651   8.317  28.980   0.859
42363W        W 3652  19.160  29.126  13.862
42364W        W 3653   3.259  35.046   5.228
42365W        W 3654  39.847  18.683   3.782
42366W        W 3655  11.625  11.360   3.299
42367W        W 3656  26.031  13.766   4.683
42368W        W 3657  30.143  28.529  11.084
42369W        W 3658  32.593  28.993   1.392
42370W        W 3659  11.637  23.129  11.884
42371W        W 3660  29.991  40.445   1.800
42372W        W 3661  22.162  36.547  14.760
42373W        W 3662  17.170  13.149  11.980
42374W        W 3663  19.094  22.171   2.857
42375W        W 3664   2.240  15.287   1.928
42376W        W 3665  16.244  30.580   0.763
42377W        W 3666   0.396  41.434   2.903
42378W        W 3667  27.123  41.993  14.977
42379W        W 3668  31.464  33.044   1.407
42380W        W 3669  34.887  28.544   3.727
42381W        W 3670   9.751  14.809  10.993
42382W        W 3671  13.730   5.828  11.032
42383W        W 3672   8.798   8.718   1.243
42384W        W 3673  36.863  25.148  11.086
42385W        W 3674  36.474  32.944   3.664
42386W        W 3675  44.336  38.944   2.352
42387W        W 3676   1.903  25.637  13.919
42388W        W 3677  32.589  22.039   4.710
42389W        W 3678  25.146  25.023   3.766
42390W        W 3679  38.937   9.756   0.475
42391W        W 3680  38.896  15.323  14.285
42392W        W 3681  20.085  40.510   1.845
42393W        W 3682  39.935  11.633   3.776
42394W        W 3683  21.135  43.279  14.474
42395W        W 3684  24.115  16.750  13.865
42396W        W 3685   5.291   4.743  13.972
42397W        W 3686   9.777   7.264   0.356
42398W        W 3687  22.206  11.836  14.876
42399W        W 3688   2.325   6.238   2.407
42400W        W 3689  23.234  22.652   3.858
42401W        W 3690  10.145  25.517  11.524
42402W        W 3691  12.756  26.178   4.693
42403W        W 3692  20.642  44.911   1.270
42404W        W 3693  44.503  30.617  11.491
42405W        W 3694  22.615  31.918  10.148
42406W        W 3695  35.425  25.568  11.972
42407W        W 3696  25.545  44.958  12.047
42408W        W 3697   8.675   8.823   4.307
42409W        W 3698  19.765  18.678  12.832
42410W        W 3699  34.383  16.247  11.075
42411W        W 3700   3.871  10.806   2.411
42412W        W 3701  16.665  42.976   1.858
42413W        W 3702  35.971  41.968  11.081
42414W        W 3703   4.286   5.749   1.365
42415W        W 3704   5.298  25.560   2.874
42416W        W 3705   8.807   6.300  11.535
42417W        W 3706  42.798  36.050   1.911
42418W        W 3707  23.613   2.949   0.399
42419W        W 3708   3.334  30.584  13.836
42420W        W 3709  40.944  11.232   4.828
42421W        W 3710  36.966  32.938  11.909
42422W        W 3711  19.185  27.108   1.314
42423W        W 3712   9.184  20.737   2.410
42424W        W 3713  10.357  19.255  11.535
42425W        W 3714  39.979  44.265  14.433
42426W        W 3715  42.017  14.832  14.490
42427W        W 3716  20.637  15.684   0.732
42428W        W 3717  20.231  35.983  13.039
42429W        W 3718  25.196  23.208  12.400
42430W        W 3719   3.439  39.315   2.277
42431W        W 3720  23.496  21.601  13.987
42432W        W 3721  21.044  40.503   0.915
42433W        W 3722   4.900  37.003   4.709
42434W        W 3723  17.704   4.806  12.988
42435W        W 3724  40.303  19.158  12.406
42436W        W 3725  37.870  43.462  12.484
42437W        W 3726  43.957  12.753   3.804
42438W        W 3727  33.112  34.014   4.292
42439W        W 3728  11.181  16.283   0.840
42440W        W 3729  38.429   1.918   4.219
42441W        W 3730  21.257  14.774   1.819
42442W        W 3731  16.106   7.237  12.043
42443W        W 3732   7.243  43.919   2.259
42444W        W 3733   1.909  17.709  13.995
42445W        W 3734  20.134   2.767   4.618
42446W        W 3735   0.393  28.671   4.330
42447W        W 3736   8.679  17.641  13.024
42448W        W 3737  20.156  34.526   4.212
42449W        W 3738   2.314  27.036  13.919
42450W        W 3739  10.737  44.912   5.219
42451W        W 3740  33.042  17.719  13.375
42452W        W 3741  25.104  33.620  10.582
42453W        W 3742  25.642  22.538   9.559
42454W        W 3743  44.499  21.242  11.967
42455W        W 3744   9.671  23.548   9.672
42456W        W 3745  42.837  11.683  13.437
42457W        W 3746   1.458  38.412   2.406
42458W        W 3747   2.367  32.631   4.703
42459W        W 3748  43.993  13.656  10.906
42460W        W 3749  10.782  44.355  11.085
42461W        W 3750  24.022  35.065   5.229
42462W        W 3751  22.192  32.604  11.053
42463W        W 3752  37.958   4.719   0.780
42464W        W 3753  18.093  29.103   2.879
42465W        W 3754  13.642  30.993   3.376
42466W        W 3755  38.528  25.528  12.095
42467W        W 3756  30.512  29.041  13.344
42468W        W 3757  43.452  23.560  13.520
42469W        W 3758  22.134  43.973  10.934
42470W        W 3759  22.528   6.893   1.248
42471W        W 3760  37.894   1.285   2.265
42472W        W 3761  20.029  20.523   0.965
42473W        W 3762  33.908   4.864  14.004
42474W        W 3763  17.192  18.193   1.706
42475W        W 3764  34.060  21.145   3.682
42476W        W 3765  33.081  17.641  10.630
42477W        W 3766   7.802  17.230   0.908
42478W        W 3767  13.775  36.472  11.430
42479W        W 3768   8.864  23.730   2.360
42480W        W 3769  37.000  23.543  13.961
42481W        W 3770  24.200   8.770   5.280
42482W        W 3771  10.208  43.788   4.157
42483W        W 3772   9.312   6.401  11.459
42484W        W 3773   5.213   2.325   2.191
42485W        W 3774   2.765  18.126   0.898
42486W        W 3775  18.636   2.871   3.310
42487W        W 3776  14.620  43.273   1.315
42488W        W 3777  39.990  13.796   3.382
42489W        W 3778  34.938  19.636   4.187
42490W        W 3779   0.342  11.771  14.891
42491W        W 3780  16.633  29.128  14.984
42492W        W 3781  36.061  12.693   4.117
42493W        W 3782  40.988  43.876   3.372
42494W        W 3783  13.279   0.833   2.201
42495W        W 3784   9.759  25.494   2.267
42496W        W 3785  33.506   8.243   0.476
42497W        W 3786  36.536  14.729   4.166
42498W        W 3787  32.086  17.576   0.377
42499W        W 3788  35.510   5.375  12.003
42500W        W 3789  21.663   6.275  10.415
42501W        W 3790  23.194  27.532  10.580
42502W        W 3791  41.494  25.473  12.354
42503W        W 3792   4.865  21.719  14.029
42504W        W 3793  10.143   2.831   3.787
42505W        W 3794  11.805  35.969  12.350
42506W        W 3795  43.464  14.811  10.503
42507W        W 3796   0.899   2.448  14.505
42508W        W 3797   5.920  44.370  10.605
42509W        W 3798  36.398  32.078   5.294
42510W        W 3799  37.048  36.481  10.982
42511W        W 3800  28.567  44.480   2.875
42512W        W 3801  31.958  17.181  11.054
42513W        W 3802  16.695   2.957  11.064
42514W        W 3803  31.103  32.622  12.564
42515W        W 3804  43.861   8.325  12.466
42516W        W 3805  28.051   4.205   2.275
42517W        W 3806  12.841  16.122   0.407
42518W        W 3807  16.311  29.007   4.674
42519W        W 3808   7.687  40.516   1.227
42520W        W 3809  36.964  43.999  14.463
42521W        W 3810  21.111   3.370  11.889
42522W        W 3811  18.718   9.707   2.414
42523W        W 3812  26.021   3.714  13.861
42524W        W 3813   3.214   1.467  12.472
42525W        W 3814  15.284  10.354   1.771
42526W        W 3815  32.899  11.283  10.922
42527W        W 3816  37.874   6.852  13.539
42528W        W 3817  29.626  21.079   1.216
42529W        W 3818  32.118  32.585   4.340
42530W        W 3819   6.227  35.560  13.498
42531W        W 3820  10.649  40.398  13.441
42532W        W 3821  39.933  20.214  12.383
42533W        W 3822  12.779  32.391   4.685
42534W        W 3823   4.248  15.717   2.847
42535W        W 3824   5.203  29.476  12.372
42536W        W 3825  15.252  13.600   4.246
42537W        W 3826  41.449   6.881   0.336
42538W        W 3827   7.262  25.125  14.781
42539W        W 3828  11.786  13.263   5.234
42540W        W 3829   5.328  13.236  10.546
42541W        W 3830  39.417  27.494   2.315
42542W        W 3831  34.008   8.300   3.203
42543W        W 3832  39.840   0.257   3.644
42544W        W 3833  36.018  12.677   1.745
42545W        W 3834  22.101  23.578   2.204
42546W        W 3835  18.598  25.213  13.932
42547W        W 3836   4.355  12.769   1.386
42548W        W 3837   8.218  36.954   2.344
42549W        W 3838  10.346  35.091  12.990
42550W        W 3839  31.051  40.465  13.483
42551W        W 3840  20.178  20.147  11.028
42552W        W 3841   3.862  20.238   1.432
42553W        W 3842   3.286  23.030   1.770
42554W        W 3843  29.612  11.180  13.954
42555W        W 3844  44.006  15.684  13.858
42556W        W 3845   3.871  33.582  11.588
42557W        W 3846   8.255  28.091   0.276
42558W        W 3847   4.848   3.272   4.141
42559W        W 3848  12.229  16.096  14.956
42560W        W 3849  35.106  34.449  11.374
42561W        W 3850   4.737  33.502   3.155
42562W        W 3851  13.266  44.873   4.684
42563W        W 3852   3.897   8.825   0.885
42564W        W 3853   8.878  34.431   0.448
42565W        W 3854  27.654  41.359   2.890
42566W        W 3855  12.230  41.478   3.229
42567W        W 3856  13.670  41.927  14.796
42568W        W 3857   9.228   1.428   0.787
42569W        W 3858  39.441  12.821   1.329
42570W        W 3859   7.353   5.333  10.516
42571W        W 3860   8.386  16.249   2.372
42572W        W 3861  39.336  35.957   0.748
42573W        W 3862  10.845   8.656  10.447
42574W        W 3863  17.643  43.919   2.679
42575W        W 3864  22.681  11.737   1.913
42576W        W 3865   5.264  31.458  11.989
42577W        W 3866   0.263  36.590   4.676
42578W        W 3867   7.803  31.603   1.237
42579W        W 3868  12.161  10.759  13.001
42580W        W 3869  13.243  18.663   1.785
42581W        W 3870  43.858  20.679  13.343
42582W        W 3871   3.340  22.581  12.084
42583W        W 3872  38.830   7.753  14.968
42584W        W 3873  32.583  36.514  10.995
42585W        W 3874  16.181   7.789  13.368
42586W        W 3875   5.301  41.833  10.578
42587W        W 3876  10.325  36.019   0.967
42588W        W 3877  38.411   9.863   4.604
42589W        W 3878  21.512   9.742  13.840
42590W        W 3879  23.684   1.763  12.840
42591W        W 3880  17.247  24.023  13.380
42592W        W 3881  26.006  29.062   0.395
42593W        W 3882   0.843  17.224   5.287
42594W        W 3883  11.330  22.631   1.853
42595W        W 3884  35.891  24.117   1.785
42596W        W 3885  25.663  20.769  10.905
42597W        W 3886  29.645   1.840   4.191
42598W        W 3887   3.246  34.612   4.227
42599W        W 3888  14.226  44.945  11.461
42600W        W 3889  10.755  24.608  11.097
42601W        W 3890  22.147  18.181  11.937
42602W        W 3891   8.890  17.287   3.219
42603W        W 3892  16.679  13.257  14.017
42604W        W 3893   4.855  10.694  13.416
42605W        W 3894  36.582  39.325   2.340
42606W        W 3895  29.089  29.075   1.226
42607W        W 3896  14.632  26.659  11.560
42608W        W 3897  36.451  28.047   2.819
42609W        W 3898   7.389  24.501  14.349
42610W        W 3899  20.097  27.024   0.245
42611W        W 3900  13.696  39.506   3.641
42612W        W 3901   0.985  44.777   3.845
42613W        W 3902  35.369  23.658  14.012
42614W        W 3903  26.020  40.909  14.850
42615W        W 3904  27.597  36.908   1.723
42616W        W 3905  36.500   9.656   3.338
42617W        W 3906  42.427  23.630   2.707
42618W        W 3907   0.766  41.422  14.957
42619W        W 3908  12.302  23.523   3.372
42620W        W 3909   5.385   6.204  12.451
42621W        W 3910  19.766  18.643   2.703
42622W        W 3911  39.898   3.402   4.177
42623W        W 3912  29.998  13.774  10.521
42624W        W 3913  12.225  19.723  14.474
42625W        W 3914  15.296  14.783   0.301
42626W        W 3915  23.644   7.746  10.526
42627W        W 3916  20.066  11.137  10.998
42628W        W 3917   6.914   1.355   3.827
42629W        W 3918  36.350  26.029   0.739
42630W        W 3919  16.724  35.411  13.470
42631W        W 3920  21.182  15.764   0.379
42632W        W 3921  35.424  10.311  11.061
42633W        W 3922  14.225  24.589   1.309
42634W        W 3923   2.413  13.765  11.979
42635W        W 3924   6.884  18.266  10.906
42636W        W 3925  22.722  42.936  11.076
42637W        W 3926  10.149  22.204  12.931
42638W        W 3927   6.762  27.621   3.864
42639W        W 3928  21.140   5.752   2.684
42640W        W 3929  30.547  31.469   4.126
42641W        W 3930  38.519  31.903   0.905
42642W        W 3931  14.246  24.077  13.990
42643W        W 3932  22.196  22.097   3.321
42644W        W 3933   1.946   7.219   1.429
42645W        W 3934  25.987   8.275  14.009
42646W        W 3935  34.428  21.197  10.966
42647W        W 3936   0.771   2.787  12.943
42648W        W 3937  17.287  34.601   3.647
42649W        W 3938   7.768   8.658   1.786
42650W        W 3939  11.777  27.535   0.772
42651W        W 3940  17.576  28.134  11.111
42652W        W 3941  11.770  13.316   2.399
42653W        W 3942  35.048  42.922  14.996
42654W        W 3943  19.645  30.056  12.904
42655W        W 3944  36.378  31.470   3.270
42656W        W 3945  17.615  25.153   2.674
42657W        W 3946  12.766  15.806   0.734
42658W        W 3947   4.757  36.854   2.356
42659W        W 3948  42.978   9.697   2.229
42660W        W 3949  20.638  15.234   4.790
42661W        W 3950  41.887  32.085   0.286
42662W        W 3951  41.465  19.616  12.830
42663W        W 3952   8.750  17.188  10.933
42664W        W 3953   9.336  17.278   1.750
42665W        W 3954   3.435  33.083   4.278
42666W        W 3955  42.032  25.556   2.700
42667W        W 3956   3.397  35.583   0.856
42668W        W 3957  19.615  25.143  14.923
42669W        W 3958  39.902  13.230   1.727
42670W        W 3959  31.101  30.497  11.126
42671W        W 3960  43.320  40.505   4.197
42672W        W 3961  34.377  29.079  11.502
42673W        W 3962  11.642  31.912  14.022
42674W        W 3963  25.985  30.045  11.599
42675W        W 3964   6.305  27.612   4.834
42676W        W 3965  27.628  32.085   2.667
42677W        W 3966  24.510   3.232  12.085
42678W        W 3967  42.423  11.296  14.403
42679W        W 3968  23.042  30.602  14.848
42680W        W 3969  10.305  15.098  13.470
42681W        W 3970  25.507  31.982   4.779
42682W        W 3971  38.425  31.647   2.335
42683W        W 3972   6.352  36.371  11.521
42684W        W 3973  23.635  38.859   4.251
42685W        W 3974   7.853  29.147   1.869
42686W        W 3975   3.893  15.281  12.470
42687W        W 3976  15.196   5.326  11.600
42688W        W 3977  20.546  26.184   2.380
42689W        W 3978  11.280  30.543  12.922
42690W        W 3979   3.942  22.586   2.341
42691W        W 3980  43.894  37.545   2.383
42692W        W 3981  20.134  23.154   3.206
42693W        W 3982   5.758  25.984   1.935
42694W        W 3983  13.311   2.929  11.992
42695W        W 3984  11.360  44.466  11.488
42696W        W 3985  38.992   1.295  13.047
42697W        W 3986  28.507  40.822  14.865
42698W        W 3987  41.466  43.303   4.354
42699W        W 3988  11.685   8.336  14.475
42700W        W 3989  21.027   8.339   3.177
42701W        W 3990  34.117  24.479   4.710
42702W        W 3991  32.006  10.382   3.789
42703W        W 3992   5.403  29.518   4.296
42704W        W 3993   0.856  24.194   3.325
42705W        W 3994   9.149  11.630  11.384
42706W        W 3995  44.356  21.611  10.513
42707W        W 3996  29.503  27.995  14.365
42708W        W 3997  11.773   4.315   2.868
42709W        W 3998  30.472  24.023   2.363
42710W        W 3999  35.521  19.664   0.375
42711W        W 4000  36.917  29.638  11.557
42712W        W 4001   2.253  22.239   3.359
42713W        W 4002  20.528   9.799  14.314
42714W        W 4003  39.045   0.422   1.297
42715W        W 4004   9.653  18.654   1.351
42716W        W 4005   9.189   4.908  14.781
42717W        W 4006  31.095   9.759   2.253
42718W        W 4007  32.043  38.516   3.736
42719W        W 4008  30.937  31.406   2.789
42720W        W 4009  41.817  32.094   0.738
42721W        W 4010   5.854   9.296  10.625
42722W        W 4011  38.400  25.651  12.916
42723W        W 4012  11.823  20.193   4.324
42724W        W 4013  21.597   0.256   2.845
42725W        W 4014   5.420  17.234  10.632
42726W        W 4015  23.158   2.728  11.552
42727W        W 4016  36.932   5.402  14.945
42728W        W 4017   7.326   4.837  12.421
42729W        W 4018   3.372  23.011  10.605
42730W        W 4019  11.307  18.601  11.942
42731W        W 4020  21.523  40.450   4.182
42732W        W 4021   2.772  18.102  12.846
42733W        W 4022  19.623  19.562  13.861
42734W        W 4023   0.800  11.736  11.500
42735W        W 4024   9.340  34.554   4.197
42736W        W 4025  40.387  12.664   1.398
42737W        W 4026  28.947  26.183   2.895
42738W        W 4027   3.263  37.985  11.855
42739W        W 4028  19.218  12.237   2.207
42740W        W 4029  37.400   5.789  10.470
42741W        W 4030  40.928  27.461  11.068
42742W        W 4031  37.856   3.795   1.731
42743W        W 4032  13.813  35.453  14.455
42744W        W 4033   5.881  17.713   4.749
42745W        W 4034  32.934  31.439   3.239
42746W        W 4035   0.764  32.456   3.200
42747W        W 4036  43.316  34.067   0.740
42748W        W 4037  18.269  36.977   4.147
42749W        W 4038  44.284  31.907  13.326
42750W        W 4039   0.370  44.401  14.016
42751W        W 4040  39.486  15.772  11.929
42752W        W 4041  16.755  39.820  11.464
42753W        W 4042  43.818  12.220  12.016
42754W        W 4043  18.089  31.902  11.070
42755W        W 4044  36.010  14.701  12.513
42756W        W 4045  27.612  27.989  12.064
42757W        W 4046  12.792  38.441  14.936
42758W        W 4047   8.791  37.048  10.970
42759W        W 4048  23.046  18.135   1.846
42760W        W 4049   7.216  13.125   0.953
42761W        W 4050  39.554   0.794   4.657
42762W        W 4051   2.797  28.614  12.919
42763W        W 4052  29.175  28.108  14.516
42764W        W 4053  33.482  37.940   0.815
42765W        W 4054  35.475   7.879   0.413
42766W        W 4055  28.054  40.923  12.978
42767W        W 4056   7.766  21.161  12.067
42768W        W 4057  10.789  23.170   4.783
42769W        W 4058  23.992  31.089  13.032
42770W        W 4059  37.049  20.089   4.652
42771W        W 4060  30.943   4.897  13.449
42772W        W 4061   6.364  43.892   0.958
42773W        W 4062  23.994  43.287   4.348
42774W        W 4063  12.833  34.995   4.786
42775W        W 4064  10.752  33.081  12.014
42776W        W 4065  37.533   4.255  14.487
42777W        W 4066   0.892  35.394  12.419
42778W        W 4067  40.944  19.713   0.384
42779W        W 4068  38.854  40.030  10.947
42780W        W 4069  10.836  36.526   0.356
42781W        W 4070  12.614  11.678  11.901
42782W        W 4071  29.573  43.950  11.450
42783W        W 4072  43.813  12.235  12.350
42784W        W 4073  33.001  12.791   0.836
42785W        W 4074  22.595   9.268   2.784
42786W        W 4075  26.046  16.242  11.011
42787W        W 4076  44.429  21.708  13.013
42788W        W 4077  33.523  10.689   3.847
42789W        W 4078  14.643  17.791   2.723
42790W        W 4079  22.027  16.159   3.208
42791W        W 4080  23.514  11.287  11.999
42792W        W 4081  22.673   5.209   0.389
42793W        W 4082  17.272  43.473  13.987
42794W        W 4083  36.082  20.067   1.915
42795W        W 4084  35.565   6.920  13.486
42796W        W 4085  44.957  31.144   4.247
42797W        W 4086  12.843  10.843   0.381
42798W        W 4087  29.086  20.713   1.711
42799W        W 4088  37.945  42.514   0.886
42800W        W 4089  40.989  39.937   1.839
42801W        W 4090   4.243  28.441   0.850
42802W        W 4091  11.230   9.669   2.394
42803W        W 4092  36.890  34.012  13.506
42804W        W 4093  18.215   5.396   3.701
42805W        W 4094  17.624  43.475   2.279
42806W        W 4095  41.419  35.946   3.301
42807W        W 4096   4.924   9.386   0.960
42808W        W 4097  23.588  12.807  12.433
42809W        W 4098  22.224  21.060  11.470
42810W        W 4099  35.582  29.045   4.341
42811W        W 4100   8.768  41.004  11.124
42812W        W 4101  33.408   8.886  12.860
42813W        W 4102  35.913  10.299   0.317
42814W        W 4103  22.511  20.244  12.374
42815W        W 4104  16.295  42.317   0.892
42816W        W 4105  40.403  28.114   0.247
42817W        W 4106  24.129  32.547   4.174
42818W        W 4107  20.658  42.999   2.382
42819W        W 4108  37.446  16.137   4.706
42820W        W 4109  28.168   3.371   2.340
42821W        W 4110  35.988  11.173  13.892
42822W        W 4111   5.807   6.922   4.124
42823W        W 4112   6.785  14.224  13.940
42824W        W 4113  22.692   3.827   3.802
42825W        W 4114  17.223  31.025   1.357
42826W        W 4115  42.321   3.295   2.240
42827W        W 4116  18.135  42.337   4.193
42828W        W 4117   6.385  41.799   3.816
42829W        W 4118  26.034  23.156  14.005
42830W        W 4119  16.596  32.963  12.912
42831W        W 4120   9.316  32.055   5.708
42832W        W 4121  30.508  11.812   2.338
42833W        W 4122  11.370   2.452  12.846
42834W        W 4123  22.616  36.374   0.892
42835W        W 4124  20.632  11.646  11.497
42836W        W 4125   4.376   7.891  11.889
42837W        W 4126  10.734   4.799  12.502
42838W        W 4127   0.772  38.038  11.057
42839W        W 4128   1.339  29.587   3.218
42840W        W 4129  40.501  13.121  10.589
42841W        W 4130  20.152  36.882  11.927
42842W        W 4131  27.474  13.331  11.091
42843W        W 4132  33.514  32.107  13.493
42844W        W 4133  23.198  27.528   0.471
42845W        W 4134  27.561  32.473   1.753
42846W        W 4135  36.887  39.527  11.987
42847W        W 4136   2.909  11.827  13.389
42848W        W 4137  29.609  16.756   3.853
42849W        W 4138  40.019  24.105   3.667
42850W        W 4139  20.169  32.062   2.346
42851W        W 4140  28.561   8.212   3.157
42852W        W 4141  37.400  13.156   0.917
42853W        W 4142  40.402  39.545  14.920
42854W        W 4143   8.840  38.056   3.330
42855W        W 4144  40.322  24.090   2.816
42856W        W 4145   1.468   9.179  10.473
42857W        W 4146  26.494  32.085  14.509
42858W        W 4147  40.410   6.680  11.586
42859W        W 4148  28.606  32.903  10.433
42860W        W 4149  22.711  42.846   0.475
42861W        W 4150  37.337  24.136   4.790
42862W        W 4151  43.499  16.609   1.712
42863W        W 4152  20.266  26.974   3.173
42864W        W 4153  22.211  37.895   0.893
42865W        W 4154  12.252  30.965  13.417
42866W        W 4155  43.489  13.807   4.821
42867W        W 4156  23.052  31.540   3.323
42868W        W 4157  18.212  17.279  12.552
42869W        W 4158   4.868   6.785   0.901
42870W        W 4159  38.438  37.559  12.528
42871W        W 4160  33.611  39.410  10.901
42872W        W 4161  35.558   3.333   0.752
42873W        W 4162  33.418  39.962  13.486
42874W        W 4163  24.103  20.108   0.800
42875W        W 4164  13.134  27.468   2.296
42876W        W 4165  13.238  27.619  11.039
42877W        W 4166  25.501  21.260  11.125
42878W        W 4167  19.709  30.056  12.051
42879W        W 4168  24.063   5.439  12.894
42880W        W 4169  21.127  13.749  12.056
42881W        W 4170   8.256  11.274  14.906
42882W        W 4171  36.986  24.159   3.678
42883W        W 4172  31.449  11.844   3.220
42884W        W 4173  16.307  21.597  12.557
42885W        W 4174  40.366  21.256   5.229
42886W        W 4175  20.670  18.284  12.935
42887W        W 4176   1.278  25.998   1.400
42888W        W 4177  17.711  43.450   2.702
42889W        W 4178  34.869  28.090  12.450
42890W        W 4179  30.957  17.259  13.528
42891W        W 4180  42.803  14.132   3.735
42892W        W 4181  26.169  31.993   4.160
42893W        W 4182  42.828  21.568  13.056
42894W        W 4183  42.917  43.918   4.126
42895W        W 4184  17.088  16.291   1.912
42896W        W 4185  14.334   8.724  11.062
42897W        W 4186  23.068  30.129   3.237
42898W        W 4187  40.362   6.696  13.943
42899W        W 4188  30.160  39.023  13.508
42900W        W 4189  18.690  24.173   1.364
42901W        W 4190  18.556  28.089   1.324
42902W        W 4191  32.413  38.844  13.416
42903W        W 4192  16.175  18.108   1.366
42904W        W 4193   8.395  24.989  10.979
42905W        W 4194  43.324  33.104   0.337
42906W        W 4195  29.567  36.039   4.204
42907W        W 4196  27.192  19.587   0.362
42908W        W 4197  39.502   3.332  13.500
42909W        W 4198  37.354   4.384  12.999
42910W        W 4199  30.090  37.377   1.785
42911W        W 4200  41.458   4.759  13.311
42912W        W 4201  26.046  40.883   1.420
42913W        W 4202   9.229   0.776   4.241
42914W        W 4203  20.664  25.069   1.405
42915W        W 4204  14.204  32.040  12.828
42916W        W 4205  44.986  31.459   1.266
42917W        W 4206  33.395  20.177   3.641
42918W        W 4207   4.757  29.143   2.673
42919W        W 4208  22.240  36.013   0.799
42920W        W 4209  35.886  13.707  11.410
42921W        W 4210  17.237  20.682  12.430
42922W        W 4211  43.796  42.934   2.881
42923W        W 4212  39.366  40.832  10.435
42924W        W 4213   1.900   3.830   0.415
42925W        W 4214  39.487   5.366  13.537
42926W        W 4215   6.750  39.328   3.376
42927W        W 4216  16.803   1.813   2.235
42928W        W 4217   9.368  42.460  12.920
42929W        W 4218  25.174  11.126  11.858
42930W        W 4219  18.661  44.860  14.771
42931W        W 4220  18.563  12.245   4.699
42932W        W 4221  27.034  15.792   4.147
42933W        W 4222  37.570  13.777  14.428
42934W        W 4223  39.494  25.674  14.904
42935W        W 4224   8.205  33.986  11.553
42936W        W 4225  16.602   8.212   4.264
42937W        W 4226  13.133  10.721  12.392
42938W        W 4227   0.868  19.258  11.604
42939W        W 4228  38.830  12.149   3.318
42940W        W 4229  31.571   4.344   3.239
42941W        W 4230   5.422  32.580  11.476
42942W        W 4231  25.470   2.322  10.468
42943W        W 4232   9.350   2.770  13.982
42944W        W 4233  16.255  44.485   2.783
42945W        W 4234  19.712  19.127  10.445
42946W        W 4235  33.085  18.638  11.997
42947W        W 4236  12.246  27.169   3.237
42948W        W 4237  31.586  31.069   2.340
42949W        W 4238  38.368   3.897   1.854
42950W        W 4239  31.476  40.833  10.922
42951W        W 4240  37.411  44.821   0.792
42952W        W 4241  44.446   3.453   3.803
42953W        W 4242  29.017   4.748  11.106
42954W        W 4243  35.015  38.916   5.218
42955W        W 4244  16.627  13.622   4.753
42956W        W 4245  31.517  36.075  13.961
42957W        W 4246  11.143  17.778   3.176
42958W        W 4247  14.596  17.216   0.373
42959W        W 4248   7.395  21.720   1.826
42960W        W 4249  17.260   8.660   5.129
42961W        W 4250   6.797  23.611  13.852
42962W        W 4251   6.805  40.037  13.396
42963W        W 4252  10.682  24.684  13.437
42964W        W 4253  27.474   3.945  12.529
42965W        W 4254  33.625   3.949  12.903
42966W        W 4255  37.993  28.024   3.269
42967W        W 4256   2.814  14.259  12.002
42968W        W 4257  38.889  28.090   2.340
42969W        W 4258  14.740  36.521   1.895
42970W        W 4259  30.125  12.236   3.770
42971W        W 4260  30.926  30.996   3.777
42972W        W 4261  38.832  21.118   5.107
42973W        W 4262  38.053  25.499  12.072
42974W        W 4263   4.832  44.389   3.149
42975W        W 4264   9.309  12.203   2.226
42976W        W 4265  35.060  38.496   0.402
42977W        W 4266   8.671  44.449   5.112
42978W        W 4267  11.704  40.528   2.877
42979W        W 4268   4.309  29.095   0.324
42980W        W 4269  12.702   5.282   2.414
42981W        W 4270   6.753  37.374   3.672
42982W        W 4271  17.726  21.125   0.826
42983W        W 4272   0.441  35.405  12.834
42984W        W 4273  17.145  31.097   2.208
42985W        W 4274  37.003  32.528   1.754
42986W        W 4275  40.334  38.940  14.919
42987W        W 4276  14.803  42.861  12.852
42988W        W 4277  42.957   6.856  10.919
42989W        W 4278   7.214  16.083  13.897
42990W        W 4279  25.486  32.141  13.344
42991W        W 4280  29.568   0.757   2.767
42992W        W 4281   1.958  18.692  11.505
42993W        W 4282  33.876  24.216   1.304
42994W        W 4283   7.255  19.659  13.914
42995W        W 4284  34.508  15.305   1.231
42996W        W 4285  15.579  35.010  12.435
42997W        W 4286   3.317  44.339  13.003
42998W        W 4287  38.358  18.596   5.180
42999W        W 4288   5.924  23.101  14.940
43000W        W 4289  21.726   4.937   2.277
43001W        W 4290  17.207  16.298   2.840
43002W        W 4291  33.119  13.796  11.380
43003W        W 4292  41.477  37.850  13.898
43004W        W 4293  35.091   3.262   3.241
43005W        W 4294  11.682  17.253  13.358
43006W        W 4295  26.970  25.616  14.905
43007W        W 4296  16.118   6.360   3.702
43008W        W 4297   7.867  14.320  12.958
43009W        W 4298  23.026  10.836  14.980
43010W        W 4299  37.386  44.914  10.495
43011W        W 4300  11.716  25.984  12.349
43012W        W 4301  13.125  20.624  13.064
43013W        W 4302  26.014   7.360   0.858
43014W        W 4303  20.100  24.570   3.717
43015W        W 4304   4.243  17.077  12.451
43016W        W 4305  22.664  38.566  14.403
43017W        W 4306  44.945  32.030   3.166
43018W        W 4307   5.837   1.424   4.827
43019W        W 4308   2.262  17.191  10.020
43020W        W 4309  25.572  34.055  11.983
43021W        W 4310  33.025   5.871   0.766
43022W        W 4311  27.569  18.052  12.090
43023W        W 4312  13.778  19.769  12.395
43024W        W 4313  12.636  41.927   2.277
43025W        W 4314  24.010  28.031  10.137
43026W        W 4315   8.281  12.343  14.018
43027W        W 4316  38.443  17.080   3.630
43028W        W 4317  31.619  16.166   0.343
43029W        W 4318  21.613  20.113  14.433
43030W        W 4319  17.167  20.111   2.901
43031W        W 4320   1.788   0.254   0.908
43032W        W 4321   6.695  26.126  13.405
43033W        W 4322  11.359  14.279   3.193
43034W        W 4323  10.367  42.788  10.147
43035W        W 4324   1.376  33.073  13.825
43036W        W 4325  32.583  16.295   0.804
43037W        W 4326  15.794  32.049  13.844
43038W        W 4327  12.828  15.812   4.597
43039W        W 4328  29.651  34.590   0.913
43040W        W 4329   8.331   2.283  10.931
43041W        W 4330  42.374   9.834  12.519
43042W        W 4331  21.541  22.080   3.818
43043W        W 4332  23.552  42.834   3.199
43044W        W 4333  37.946  26.193  14.472
43045W        W 4334   2.226  22.539  12.535
43046W        W 4335   2.304  37.490   4.672
43047W        W 4336   3.384  33.574  14.333
43048W        W 4337  22.685  17.254  13.493
43049W        W 4338  34.388  24.198   1.353
43050W        W 4339  24.136   2.257  11.028
43051W        W 4340  23.021  24.082  14.511
43052W        W 4341  12.673  38.911  13.478
43053W        W 4342   5.741  17.099   0.846
43054W        W 4343  33.909   2.804   1.714
43055W        W 4344  26.502  34.582  12.573
43056W        W 4345  32.068  42.942  13.338
43057W        W 4346  24.590   8.228   5.141
43058W        W 4347  39.392  39.947   0.460
43059W        W 4348  19.683  35.432  11.063
43060W        W 4349  21.088  23.113   0.915
43061W        W 4350  13.656  40.962   4.758
43062W        W 4351  37.459  21.681  14.279
43063W        W 4352  15.108   5.689  13.388
43064W        W 4353   6.771  29.532   1.721
43065W        W 4354  35.066  14.589  12.873
43066W        W 4355  42.468  10.824   2.182
43067W        W 4356  21.585   8.809   3.688
43068W        W 4357  20.028   7.225   1.348
43069W        W 4358   3.765  42.333  10.427
43070W        W 4359  26.957  27.661   3.263
43071W        W 4360  30.927  34.957   1.811
43072W        W 4361  15.789  41.969  10.496
43073W        W 4362  21.615   5.330  14.018
43074W        W 4363  41.795  28.556   0.448
43075W        W 4364  26.059  39.837   3.631
43076W        W 4365  25.093  36.846   1.815
43077W        W 4366  12.794  25.536   3.328
43078W        W 4367  33.888  18.713  11.404
43079W        W 4368  38.406  14.265  13.995
43080W        W 4369  30.571  30.113   4.286
43081W        W 4370   0.458  27.089   4.248
43082W        W 4371  22.595   1.301  11.967
43083W        W 4372  37.912  39.515  13.895
43084W        W 4373  18.734  23.114  11.868
43085W        W 4374  43.838   7.710   1.369
43086W        W 4375  12.639  13.749   0.885
43087W        W 4376  23.668  37.384   3.158
43088W        W 4377  13.308  28.652  13.929
43089W        W 4378   6.383  33.532  10.572
43090W        W 4379  19.108  16.260   1.887
43091W        W 4380   7.193  10.867  12.554
43092W        W 4381   9.239   0.856  10.007
43093W        W 4382  23.654  38.360  14.389
43094W        W 4383  35.963  11.728  11.951
43095W        W 4384  33.550  41.305  10.508
43096W        W 4385  23.159  11.346  11.503
43097W        W 4386  10.245  13.775   1.747
43098W        W 4387  24.021  26.028   4.831
43099W        W 4388  34.967  33.902  14.918
43100W        W 4389  24.692  19.622   3.659
43101W        W 4390  34.601  18.722   3.859
43102W        W 4391  37.365  20.030  14.397
43103W        W 4392  31.584   9.339  10.571
43104W        W 4393  41.428  36.086  10.406
43105W        W 4394   7.332   2.244   1.857
43106W        W 4395   5.249  13.687   1.425
43107W        W 4396  21.140  43.892   0.417
43108W        W 4397  33.417  25.982  12.849
43109W        W 4398  43.861  12.650  10.591
43110W        W 4399  28.527  31.973   3.811
43111W        W 4400  44.499   3.929  11.557
43112W        W 4401  24.560  13.655  14.868
43113W        W 4402  16.095  11.638   2.782
43114W        W 4403   0.334  17.723  10.549
43115W        W 4404  25.483  13.112   3.321
43116W        W 4405  29.129  11.335   2.192
43117W        W 4406  32.524  30.454  14.511
43118W        W 4407   7.704  44.834  14.414
43119W        W 4408  26.680  36.948  13.791
43120W        W 4409   4.831  36.847   1.347
43121W        W 4410  29.921  30.644   1.889
43122W        W 4411  36.556  33.601   0.450
43123W        W 4412  19.690  39.551   0.900
43124W        W 4413   5.324   3.761  10.562
43125W        W 4414  20.060   2.290   3.359
43126W        W 4415  40.453  37.477   4.258
43127W        W 4416  31.482  21.208  14.992
43128W        W 4417  26.969  37.361   0.754
43129W        W 4418  21.708  35.870   5.196
43130W        W 4419  33.490  26.621  13.460
43131W        W 4420  34.589  23.985  13.479
43132W        W 4421  13.828  11.666  12.396
43133W        W 4422  31.487  12.212   3.812
43134W        W 4423   0.966   2.285   1.372
43135W        W 4424  24.091  44.887   0.480
43136W        W 4425  33.468  14.174  13.415
43137W        W 4426   0.946  12.804   2.833
43138W        W 4427  25.079  30.565   0.260
43139W        W 4428  42.308   5.317  11.882
43140W        W 4429  36.909  39.470   4.676
43141W        W 4430  21.601  40.905   0.819
43142W        W 4431  12.234  28.511   0.781
43143W        W 4432  27.563  37.057  13.458
43144W        W 4433  42.420   6.786   5.090
43145W        W 4434   1.464  39.506   3.838
43146W        W 4435  18.595  16.610   3.246
43147W        W 4436   1.483   9.787  14.023
43148W        W 4437  38.050  34.907   2.701
43149W        W 4438  30.940   1.388  13.947
43150W        W 4439  36.021  32.536   3.166
43151W        W 4440   9.867  15.107  11.906
43152W        W 4441  43.882   9.211  11.534
43153W        W 4442   8.254  22.121  13.391
43154W        W 4443   8.768  42.500   1.783
43155W        W 4444   0.390  18.738   1.887
43156W        W 4445   0.956   9.842   4.729
43157W        W 4446  10.830  33.420   3.261
43158W        W 4447  33.008  44.786  12.977
43159W        W 4448  19.046   4.845   1.424
43160W        W 4449  13.108   9.324  14.381
43161W        W 4450  24.139   1.399   2.415
43162W        W 4451  26.990  18.688   4.669
43163W        W 4452  35.876   1.936   1.839
43164W        W 4453  38.466   4.213   3.190
43165W        W 4454  13.304  15.314   4.205
43166W        W 4455  30.033  23.569   0.787
43167W        W 4456  20.580  26.198  13.405
43168W        W 4457  32.532  28.538   4.794
43169W        W 4458  40.933  44.907  13.017
43170W        W 4459  21.162  39.908  11.419
43171W        W 4460   2.961  34.531   2.234
43172W        W 4461  39.339  32.094  13.470
43173W        W 4462  14.696  33.058  13.517
43174W        W 4463  44.361  43.840  11.594
43175W        W 4464  30.126   3.759  13.913
43176W        W 4465  32.625  20.153  11.423
43177W        W 4466  20.188  15.721   1.294
43178W        W 4467  20.657  32.028  12.841
43179W        W 4468  43.950  16.649   2.381
43180W        W 4469  27.109  33.032  11.964
43181W        W 4470   8.288  39.350   2.742
43182W        W 4471  29.497   4.450   9.985
43183W        W 4472  16.811  25.094   0.429
43184W        W 4473  43.922  40.892   4.157
43185W        W 4474  42.898  11.830  12.825
43186W        W 4475  26.641  17.701  12.502
43187W        W 4476  41.814  16.102   2.790
43188W        W 4477  43.017  13.172  11.409
43189W        W 4478  39.053  44.388   3.850
43190W        W 4479  40.316  36.016   2.802
43191W        W 4480  11.323  14.281  10.423
43192W        W 4481  31.101  30.635  12.987
43193W        W 4482  30.430  25.523  14.829
43194W        W 4483  29.478  15.198   3.324
43195W        W 4484  39.545   2.248  11.869
43196W        W 4485  41.886  29.981   2.666
43197W        W 4486   5.728  16.686  13.408
43198W        W 4487  43.783  17.264   3.226
43199W        W 4488  35.911  20.156  11.515
43200W        W 4489  35.503  40.906   4.790
43201W        W 4490   1.293  43.349   4.620
43202W        W 4491  40.867  26.538  13.834
43203W        W 4492  14.615  14.634  13.811
43204W        W 4493  39.897  31.497   2.850
43205W        W 4494  21.120  37.415  13.050
43206W        W 4495  19.041   6.339   0.349
43207W        W 4496   4.816  17.187  14.031
43208W        W 4497  14.127  22.236  14.458
43209W        W 4498   1.780   3.759  12.894
43210W        W 4499  16.711  15.270  11.450
43211W        W 4500   3.862  36.910   4.261
43212W        W 4501  16.136  25.110   5.213
43213W        W 4502  15.639   0.345   0.259
43214W        W 4503  31.041  28.089  12.365
43215W        W 4504  20.734  20.689  12.878
43216W        W 4505  38.908  35.382   1.378
43217W        W 4506  15.795   1.820   2.738
43218W        W 4507  22.686  25.102   5.178
43219W        W 4508  27.593  32.469  13.342
43220W        W 4509   5.853   5.768  14.479
43221W        W 4510  40.451  41.414   1.381
43222W        W 4511   4.922  43.006  14.333
43223W        W 4512  29.650   2.927  10.547
43224W        W 4513  39.343  35.603  14.386
43225W        W 4514  34.970  12.348   4.743
43226W        W 4515  11.743  40.448   3.807
43227W        W 4516  35.375  29.566   3.210
43228W        W 4517  19.540   3.332  11.404
43229W        W 4518   5.306  25.162   9.473
43230W        W 4519  39.835  33.622   1.856
43231W        W 4520  17.148  36.997   2.695
43232W        W 4521  42.520   8.870   0.252
43233W        W 4522  24.214   2.346  10.528
43234W        W 4523  10.787  38.463   0.252
43235W        W 4524  33.103  18.591  10.630
43236W        W 4525   7.879  37.499  10.121
43237W        W 4526  16.137  25.150   5.604
43238W        W 4527   4.419  43.278  10.555
43239W        W 4528  28.063  15.180   2.866
43240W        W 4529  24.083  21.617  12.012
43241W        W 4530  17.678  32.585  13.507
43242W        W 4531  40.999  22.233   2.202
43243W        W 4532  12.683  36.935   1.729
43244W        W 4533  25.977   6.362  13.375
43245W        W 4534  12.199  41.425  13.895
43246W        W 4535  29.655  39.064  14.423
43247W        W 4536  35.996   0.855   2.872
43248W        W 4537  22.115  18.548  13.821
43249W        W 4538   3.242  34.112   1.365
43250W        W 4539  19.550  39.470  11.469
43251W        W 4540  35.087  35.604  11.974
43252W        W 4541  14.302  38.454   0.740
43253W        W 4542   2.724  36.955  10.906
43254W        W 4543  31.548  13.846   1.780
43255W        W 4544   2.331   5.721   2.692
43256W        W 4545   5.717  43.926  14.357
43257W        W 4546  17.254  30.079  14.910
43258W        W 4547   7.342   9.713   4.788
43259W        W 4548  11.244  18.113  14.031
43260W        W 4549  34.540  40.022   1.412
43261W        W 4550  34.936  12.719  13.988
43262W        W 4551  35.901   3.296   0.766
43263W        W 4552   2.952   7.240  11.042
43264W        W 4553  27.945   4.927  12.095
43265W        W 4554   6.379  32.578  11.537
43266W        W 4555  20.607  31.905  13.890
43267W        W 4556  23.169  32.411  13.519
43268W        W 4557  13.329   6.318   0.376
43269W        W 4558  36.937  32.007  10.570
43270W        W 4559   1.315  24.076  10.457
43271W        W 4560  44.886  32.116  13.424
43272W        W 4561  38.434  40.798  11.585
43273W        W 4562  44.801  27.576  14.789
43274W        W 4563  12.339  18.200  14.865
43275W        W 4564  38.041   4.286   4.200
43276W        W 4565  40.020  24.531   1.388
43277W        W 4566  14.701  25.598   1.929
43278W        W 4567  26.054   6.754   0.867
43279W        W 4568  20.105  13.141  10.081
43280W        W 4569  44.820  42.290  11.128
43281W        W 4570  41.366  12.267   1.878
43282W        W 4571  11.169  13.317  14.920
43283W        W 4572  13.689   4.233  12.515
43284W        W 4573   1.780  15.103   1.305
43285W        W 4574  12.351  25.506   3.302
43286W        W 4575  13.277  40.543   1.253
43287W        W 4576  44.826  44.428  14.886
43288W        W 4577  40.346   2.260   3.246
43289W        W 4578  42.849  32.042  10.642
43290W        W 4579   6.772  33.995   3.380
43291W        W 4580  15.094  17.735  13.826
43292W        W 4581  15.715   9.328   4.219
43293W        W 4582   2.439  15.237  10.890
43294W        W 4583   9.333   3.906  13.539
43295W        W 4584   5.885  11.754  10.419
43296W        W 4585  12.663  26.051   1.298
43297W        W 4586   0.287   3.364   0.348
43298W        W 4587  28.599  18.089  11.576
43299W        W 4588  41.932  10.248   0.967
43300W        W 4589  37.362  25.043  12.038
43301W        W 4590  29.961   6.266  13.337
43302W        W 4591  38.376  35.426   3.773
43303W        W 4592  37.582  33.417   2.409
43304W        W 4593   2.945  32.604  13.810
43305W        W 4594   0.486  41.477   0.858
43306W        W 4595  36.082  41.949  12.061
43307W        W 4596   1.425  10.852  12.050
43308W        W 4597  22.551   2.459   4.830
43309W        W 4598  15.641  39.005   2.380
43310W        W 4599  22.096   5.827   2.772
43311W        W 4600   2.816  36.496  12.829
43312W        W 4601   7.308  35.518  12.070
43313W        W 4602  18.276  40.462  14.515
43314W        W 4603  32.556  21.730  12.560
43315W        W 4604  10.847  43.327  13.388
43316W        W 4605  29.557   7.667   3.660
43317W        W 4606  27.129  33.540   3.310
43318W        W 4607  39.930  41.804  12.395
43319W        W 4608  14.215  37.951  14.501
43320W        W 4609   6.703  11.851  12.461
43321W        W 4610  37.940  33.890  12.387
43322W        W 4611   8.376  13.722   0.930
43323W        W 4612  17.630  23.989  11.403
43324W        W 4613   4.284  35.410  13.047
43325W        W 4614  31.548  12.766  12.384
43326W        W 4615   7.783  39.970   4.132
43327W        W 4616  44.808   1.436   0.868
43328W        W 4617  35.094  38.883  12.086
43329W        W 4618   6.381  36.456   2.358
43330W        W 4619  34.543  38.996  13.935
43331W        W 4620  12.126   5.431  12.983
43332W        W 4621   7.329  43.978  13.409
43333W        W 4622  41.300  15.678   1.239
43334W        W 4623   7.762  19.148   2.413
43335W        W 4624  25.553  40.885   0.328
43336W        W 4625   3.238  15.748   1.247
43337W        W 4626  15.134  16.712  12.926
43338W        W 4627  23.129  32.416  11.457
43339W        W 4628  36.900  44.373  12.473
43340W        W 4629  12.139  32.611  13.973
43341W        W 4630   9.789  15.149  13.014
43342W        W 4631   2.309  21.538   2.337
43343W        W 4632  12.725  32.062   2.816
43344W        W 4633  37.375  29.625  10.608
43345W        W 4634  30.579   7.771  12.907
43346W        W 4635  31.454  18.190  12.395
43347W        W 4636  26.467  15.704  13.980
43348W        W 4637  29.066  30.943   2.876
43349W        W 4638  43.419   9.311  12.462
43350W        W 4639  43.875   3.321  14.787
43351W        W 4640  31.978  24.095  13.406
43352W        W 4641   0.258   2.296   0.395
43353W        W 4642  15.776  39.443   0.808
43354W        W 4643  41.422  17.202  12.904
43355W        W 4644  28.538  18.195   2.265
43356W        W 4645   1.883  12.619   2.703
43357W        W 4646  29.428  39.908   2.387
43358W        W 4647   6.372  12.222   0.901
43359W        W 4648  44.353  14.835   2.267
43360W        W 4649   0.883  39.361  12.411
43361W        W 4650  19.660  16.253  14.427
43362W        W 4651   4.715   2.438   2.694
43363W        W 4652  37.363  15.659  14.457
43364W        W 4653  34.042   6.870  14.355
43365W        W 4654  25.704  35.548  13.438
43366W        W 4655   2.965  14.095  13.875
43367W        W 4656  15.237  30.576   0.452
43368W        W 4657  35.905  27.458   2.881
43369W        W 4658  42.331  13.152  12.465
43370W        W 4659  31.120  39.405   3.310
43371W        W 4660   0.427   4.878  12.450
43372W        W 4661  41.821   3.355  13.957
43373W        W 4662  18.157  25.972  11.584
43374W        W 4663   6.334  10.200  14.280
43375W        W 4664  31.067  15.665  12.886
43376W        W 4665  42.905  22.646   2.663
43377W        W 4666   8.689  28.570  12.930
43378W        W 4667  19.646   0.953  11.494
43379W        W 4668  39.059  39.910   1.898
43380W        W 4669  25.482   3.260  12.576
43381W        W 4670  18.055  20.612  12.905
43382W        W 4671  40.000  18.738   2.328
43383W        W 4672  26.535  15.166   2.223
43384W        W 4673  12.322  16.128   2.771
43385W        W 4674   2.921  17.643  12.904
43386W        W 4675  12.789  42.970   3.768
43387W        W 4676  42.446  20.570   3.852
43388W        W 4677  10.754  28.947   4.715
43389W        W 4678   1.958  14.761   1.376
43390W        W 4679  39.846  40.840   3.190
43391W        W 4680  25.169  22.236   4.618
43392W        W 4681  21.065  15.106   3.739
43393W        W 4682  20.551  34.541  11.043
43394W        W 4683  36.082   8.860   4.672
43395W        W 4684  23.098  12.318  13.359
43396W        W 4685  38.406   2.863   2.699
43397W        W 4686  11.838  32.421   0.243
43398W        W 4687  27.632  43.788   2.694
43399W        W 4688   0.796  41.375   3.189
43400W        W 4689  35.067  29.168  10.545
43401W        W 4690   3.328  25.491   4.827
43402W        W 4691  13.227   4.713  10.092
43403W        W 4692  41.962  43.465   3.314
43404W        W 4693  31.641  29.063  10.890
43405W        W 4694   3.725  34.029  12.933
43406W        W 4695  40.843  39.853   0.886
43407W        W 4696  36.864  38.361   2.253
43408W        W 4697  15.168  16.160   2.241
43409W        W 4698  37.380  44.775  13.533
43410W        W 4699   6.219  30.652   2.275
43411W        W 4700  15.139   6.390   3.729
43412W        W 4701  33.590  11.370   4.644
43413W        W 4702  42.843  33.958  11.532
43414W        W 4703  43.902  23.532   4.326
43415W        W 4704  31.055  38.039  10.993
43416W        W 4705  25.155  42.405  13.860
43417W        W 4706  15.759   1.412   1.389
43418W        W 4707  30.160  16.608  14.449
43419W        W 4708  12.847  29.058  12.531
43420W        W 4709  33.595  44.878   3.251
43421W        W 4710  13.644  10.651   3.272
43422W        W 4711  38.340  28.487  14.497
43423W        W 4712   0.871  16.692   0.831
43424W        W 4713  38.524  33.098  12.476
43425W        W 4714   6.333  25.509   0.814
43426W        W 4715  35.581  23.184  14.381
43427W        W 4716  22.010  23.222  13.431
43428W        W 4717  32.628  43.511   0.331
43429W        W 4718   5.236  39.964  13.873
43430W        W 4719  17.718  25.095   1.918
43431W        W 4720  18.113  12.722   1.212
43432W        W 4721  31.512  29.964  12.450
43433W        W 4722  12.771  34.545  11.904
43434W        W 4723  11.664  14.827  13.373
43435W        W 4724   2.730   5.750  14.962
43436W        W 4725  29.003  13.616   4.712
43437W        W 4726  18.584  18.125  13.388
43438W        W 4727  33.424  14.825  14.780
43439W        W 4728   6.420   3.394   5.225
43440W        W 4729  14.678   1.898  10.053
43441W        W 4730  42.362  13.649   1.735
43442W        W 4731  11.372  41.858  10.489
43443W        W 4732  42.023  15.768   0.274
43444W        W 4733  18.211  16.259  13.371
43445W        W 4734  21.634  30.952   2.344
43446W        W 4735  22.178  30.602  13.939
43447W        W 4736  28.042  21.564   9.975
43448W        W 4737  43.392  24.005  11.395
43449W        W 4738  25.517  37.379   9.938
43450W        W 4739  13.691  35.604   1.857
43451W        W 4740   9.877  42.838  12.541
43452W        W 4741  29.017  24.172   4.640
43453W        W 4742  35.491   5.345  13.315
43454W        W 4743  33.495  21.212   3.366
43455W        W 4744  39.530   2.721  14.972
43456W        W 4745  28.146  16.093   1.829
43457W        W 4746  27.142  35.531  10.452
43458W        W 4747  17.092  22.706  14.945
43459W        W 4748  16.177   6.739   2.294
43460W        W 4749  41.957  28.668   1.245
43461W        W 4750  39.411   9.215   0.395
43462W        W 4751  19.093  13.747   1.778
43463W        W 4752  19.710  10.150   0.831
43464W        W 4753  10.167  19.768  10.416
43465W        W 4754  30.450   3.906   2.729
43466W        W 4755  19.220  31.505   4.316
43467W        W 4756  12.192   7.687  13.812
43468W        W 4757  32.133  37.903  13.359
43469W        W 4758  20.754   5.731   1.886
43470W        W 4759  14.735  44.445  11.527
43471W        W 4760  30.541   4.914  12.082
43472W        W 4761  24.134  40.545   3.232
43473W        W 4762  11.137  12.225  12.423
43474W        W 4763  44.810  11.149   0.447
43475W        W 4764  37.524  23.031   2.709
43476W        W 4765  11.831  24.640   3.819
43477W        W 4766   1.737  17.126  13.387
43478W        W 4767  21.592   8.214  13.413
43479W        W 4768   2.294  11.706   3.731
43480W        W 4769   4.280   2.919  12.404
43481W        W 4770  21.513   7.839  12.524
43482W        W 4771   1.929  41.786  12.341
43483W        W 4772  16.696  21.240  13.424
43484W        W 4773  25.042  14.720   2.321
43485W        W 4774  26.073   6.888  13.810
43486W        W 4775  10.633  36.899  13.045
43487W        W 4776   8.759  13.302   1.862
43488W        W 4777   8.189  39.054   0.361
43489W        W 4778  37.878   6.707   3.717
43490W        W 4779   7.282  22.084   3.680
43491W        W 4780  23.526  10.312  14.329
43492W        W 4781   6.807  17.135  11.989
43493W        W 4782  16.696  14.236  13.369
43494W        W 4783  39.513  29.447   3.650
43495W        W 4784   7.844  37.862  14.807
43496W        W 4785  21.064  44.766   1.252
43497W        W 4786  21.131  31.519  12.874
43498W        W 4787  11.354  24.076  11.418
43499W        W 4788  27.945  26.529   1.723
43500W        W 4789  34.978  20.748   2.389
43501W        W 4790  44.269   6.867  12.506
43502W        W 4791   6.207  13.136  10.543
43503W        W 4792   4.331   0.974  11.104
43504W        W 4793  44.272  43.901   4.289
43505W        W 4794  11.133   7.794  14.503
43506W        W 4795  14.588  15.138  13.993
43507W        W 4796  30.020  26.156  14.411
43508W        W 4797  36.095  28.623  13.539
43509W        W 4798  37.454  10.695  14.459
43510W        W 4799  41.501   3.886  12.395
43511W        W 4800  35.494  15.686   0.470
43512W        W 4801  37.563   6.815   1.379
43513W        W 4802  11.359  43.981  10.515
43514W        W 4803  32.909  24.060   2.334
43515W        W 4804  24.632  13.809  11.095
43516W        W 4805  39.458  11.340  12.580
43517W        W 4806  40.825  33.086   2.349
43518W        W 4807  34.457  18.776  13.910
43519W        W 4808  33.112  31.906  14.881
43520W        W 4809   8.234   3.386   3.217
43521W        W 4810  20.219  10.255  14.322
43522W        W 4811  26.023  24.485  10.514
43523W        W 4812  19.770  27.056   0.430
43524W        W 4813  12.821  19.124  13.923
43525W        W 4814   9.835  36.576   1.722
43526W        W 4815  10.268  43.326  12.373
43527W        W 4816  29.447   7.279  10.417
43528W        W 4817   3.874  41.329  10.489
43529W        W 4818  23.653  27.177   2.387
43530W        W 4819   8.377  21.218  10.525
43531W        W 4820  38.524  34.108   3.765
43532W        W 4821  14.188  39.896   3.181
43533W        W 4822   6.811  12.694  13.532
43534W        W 4823  28.496  42.793  14.958
43535W        W 4824  26.556  27.529   4.241
43536W        W 4825  36.877  22.107   1.293
43537W        W 4826  29.948  33.093   3.251
43538W        W 4827  18.659  41.335  12.421
43539W        W 4828   2.421  34.903  12.835
43540W        W 4829  31.143   2.398   1.271
43541W        W 4830  25.658  19.213   0.904
43542W        W 4831  26.531   3.798  11.984
43543W        W 4832  40.306   0.248   5.097
43544W        W 4833  36.478  17.186   5.655
43545W        W 4834  30.140  20.702  10.593
43546W        W 4835  43.768   7.702  10.514
43547W        W 4836   2.843   7.284  10.495
43548W        W 4837  39.828  10.325   4.254
43549W        W 4838  35.503  23.178  13.002
43550W        W 4839  29.651  35.589   0.854
43551W        W 4840   1.394  19.075   2.241
43552W        W 4841  42.475   6.420   0.421
43553W        W 4842   7.404   3.751  11.407
43554W        W 4843  42.780  34.944  10.627
43555W        W 4844  21.021  16.230   3.234
43556W        W 4845   8.889  26.110   2.849
43557W        W 4846  34.988   3.732   5.106
43558W        W 4847  28.093  18.673   0.745
43559W        W 4848  20.177  23.201   4.700
43560W        W 4849  11.774   1.421   0.771
43561W        W 4850  35.026   0.826  14.345
43562W        W 4851  31.047   6.226  12.553
43563W        W 4852  31.054  32.035   5.092
43564W        W 4853  18.171  28.105  12.891
43565W        W 4854  32.070   8.805   0.356
43566W        W 4855  23.096   2.257  12.971
43567W        W 4856  39.946   8.875  12.363
43568W        W 4857   0.424   8.366  10.901
43569W        W 4858  34.091  23.656  13.801
43570W        W 4859  33.497  38.432   2.704
43571W        W 4860  11.684   6.741  11.908
43572W        W 4861  30.021  26.659   1.769
43573W        W 4862  11.356  41.378   2.311
43574W        W 4863  23.537  33.518   3.839
43575W        W 4864   6.776  42.418  11.573
43576W        W 4865  35.896  10.807  11.925
43577W        W 4866  12.827  38.964   0.907
43578W        W 4867  34.990  13.346  10.631
43579W        W 4868  26.072  43.990  12.012
43580W        W 4869   3.716  23.699   4.348
43581W        W 4870   5.846  10.874  10.898
43582W        W 4871  37.481  29.444   1.730
43583W        W 4872  31.613  26.563   1.258
43584W        W 4873  11.263  13.216   4.766
43585W        W 4874   3.834  43.908  13.436
43586W        W 4875   2.776  25.186  12.895
43587W        W 4876  34.458  18.699  14.329
43588W        W 4877  31.964  37.434   2.400
43589W        W 4878   2.768  17.760   1.933
43590W        W 4879  30.606  11.781  14.932
43591W        W 4880  13.238   1.407   1.702
43592W        W 4881  26.023   4.411   4.230
43593W        W 4882  44.916  42.330  10.483
43594W        W 4883   2.310   0.940   1.448
43595W        W 4884   4.890  15.227  12.387
43596W        W 4885  37.550  39.328  11.045
43597W        W 4886  39.404  12.123   3.276
43598W        W 4887  29.002  41.005   2.252
43599W        W 4888  31.406  12.808  10.462
43600W        W 4889  25.474  20.750   3.318
43601W        W 4890  21.702   3.904   4.235
43602W        W 4891  19.063  42.330   4.176
43603W        W 4892  43.324  18.201   0.940
43604W        W 4893  22.600  24.143   1.238
43605W        W 4894   6.398  29.426  12.936
43606W        W 4895  15.694  34.392   2.374
43607W        W 4896  37.082  41.515   3.719
43608W        W 4897   9.817  38.536   3.287
43609W        W 4898  24.178   0.796  12.833
43610W        W 4899   1.425  16.769   1.232
43611W        W 4900   4.399  15.094  14.303
43612W        W 4901   5.208  38.866   3.728
43613W        W 4902  14.832  25.490  11.423
43614W        W 4903  25.159   3.913  14.355
43615W        W 4904   4.292  10.354   2.743
43616W        W 4905   5.304  35.562  13.820
43617W        W 4906  17.672  36.489   0.331
43618W        W 4907  41.439  34.578   4.733
43619W        W 4908   9.274  44.441   2.189
43620W        W 4909  21.183   9.777   2.234
43621W        W 4910  11.214  44.450  10.505
43622W        W 4911  34.444  22.693  12.997
43623W        W 4912  29.583  40.963   2.368
43624W        W 4913   5.430  31.101  12.996
43625W        W 4914  30.920  40.041  13.345
43626W        W 4915  28.096  10.262  11.520
43627W        W 4916  43.344  28.120  12.844
43628W        W 4917  11.677   1.837   4.803
43629W        W 4918  18.184  41.940   3.188
43630W        W 4919  27.559  34.972  14.304
43631W        W 4920  13.644  37.832   1.856
43632W        W 4921   0.950   7.732   5.253
43633W        W 4922  12.840   6.319  10.510
43634W        W 4923   7.696  25.499   2.353
43635W        W 4924   7.789  25.624   0.329
43636W        W 4925   0.831   8.187   1.439
43637W        W 4926  41.908  10.751  13.474
43638W        W 4927  26.159   6.191  11.427
43639W        W 4928   6.879  29.569  12.861
43640W        W 4929   1.372  16.784   2.334
43641W        W 4930   5.688  16.309   0.749
43642W        W 4931  39.971  17.555  10.409
43643W        W 4932  22.542  29.051   2.319
43644W        W 4933  39.840   6.759   3.313
43645W        W 4934  16.762   3.233   0.898
43646W        W 4935  35.534  18.595  12.386
43647W        W 4936  41.816  16.651   1.212
43648W        W 4937  24.146  44.500   0.749
43649W        W 4938  20.614  31.409  10.631
43650W        W 4939  39.365  25.188   1.711
43651W        W 4940  41.438   6.855  13.033
43652W        W 4941  24.655   4.801   0.289
43653W        W 4942  35.924  31.516  10.419
43654W        W 4943  22.042  11.198  10.431
43655W        W 4944  22.139   2.953   3.338
43656W        W 4945   0.821  42.847  10.644
43657W        W 4946  29.153  19.770  14.484
43658W        W 4947   8.813  43.823  13.544
43659W        W 4948  24.105   9.781  11.407
43660W        W 4949  15.098   2.291  11.982
43661W        W 4950  30.577  18.655   0.840
43662W        W 4951  27.165  38.042   3.826
43663W        W 4952  13.174  25.500   4.612
43664W        W 4953  39.521   8.384  11.066
43665W        W 4954  22.560  31.113   3.823
43666W        W 4955  28.457  42.858  12.458
43667W        W 4956   6.822   5.261   2.694
43668W        W 4957   7.289   8.317   0.906
43669W        W 4958  41.310  38.462   2.865
43670W        W 4959  40.882  26.140   2.218
43671W        W 4960  12.763  43.304   0.962
43672W        W 4961  12.238  34.908  12.867
43673W        W 4962   2.461   4.725  13.312
43674W        W 4963  26.590   6.721   0.281
43675W        W 4964  30.961   6.800   2.248
43676W        W 4965  27.612  20.545   1.380
43677W        W 4966   5.852  40.002   3.643
43678W        W 4967  37.396  44.468  11.594
43679W        W 4968  38.487  11.672  14.982
43680W        W 4969  15.789  10.284  11.867
43681W        W 4970  43.384  28.935   1.804
43682W        W 4971  10.210   3.382   3.780
43683W        W 4972   4.256  35.109   0.936
43684W        W 4973  37.956  15.776  13.803
43685W        W 4974  25.112  31.001  10.628
43686W        W 4975  40.424   1.481   4.245
43687W        W 4976  12.282  27.969  14.411
43688W        W 4977   6.876   1.253  13.814
43689W        W 4978  15.180  35.916  10.449
43690W        W 4979  11.210  44.886   0.332
43691W        W 4980   7.853  20.677   1.826
43692W        W 4981  15.305  31.045   4.231
43693W        W 4982   9.358  34.916   1.773
43694W        W 4983  38.538  17.734   0.876
43695W        W 4984  22.521   3.911  12.575
43696W        W 4985  23.574   2.730   0.873
43697W        W 4986  25.038  11.653   3.227
43698W        W 4987   6.836  23.002   2.826
43699W        W 4988  40.541  19.624   2.799
43700W        W 4989  32.453  41.877  12.064
43701W        W 4990   5.267  29.509   2.261
43702W        W 4991  17.713  39.551  10.475
43703W        W 4992  17.210  34.463   3.145
43704W        W 4993  11.707  30.596  10.123
43705W        W 4994  34.508  12.614  10.544
43706W        W 4995   3.290  12.194   4.807
43707W        W 4996  32.390   8.884   4.315
43708W        W 4997  16.716  16.282   2.723
43709W        W 4998  23.527  21.748   3.340
43710W        W 4999  36.480  28.025  14.347
43711W        W 5000  42.892  23.585  10.954
43712W        W 5001  41.318   0.816   1.830
43713W        W 5002  19.706  44.466   5.195
43714W        W 5003  41.980  17.111   4.240
43715W        W 5004  10.242  36.923   2.678
43716W        W 5005  39.933  38.521  13.369
43717W        W 5006  34.874  26.640   3.845
43718W        W 5007   9.800  32.985   0.796
43719W        W 5008   7.666  26.460  13.978
43720W        W 5009  27.002   9.215  10.902
43721W        W 5010  19.282  13.647   2.739
43722W        W 5011  12.708  18.061   3.383
43723W        W 5012   0.282  40.814   4.660
43724W        W 5013   6.865  32.979   3.691
43725W        W 5014   5.305  11.332   4.620
43726W        W 5015  33.083  29.551  11.417
43727W        W 5016  34.081  34.426   4.821
43728W        W 5017  44.961  12.686  13.865
43729W        W 5018  15.192   4.279   3.374
43730W        W 5019  13.649  20.267  11.963
43731W        W 5020  44.352  41.818   2.264
43732W        W 5021   7.271  21.744   2.841
43733W        W 5022   1.278  37.033   0.477
43734W        W 5023  41.453  19.090   2.895
43735W        W 5024  35.100  29.104   2.773
43736W        W 5025   0.384  20.529  12.984
43737W        W 5026   6.351  20.591  13.882
43738W        W 5027  23.165   7.265  13.858
43739W        W 5028   7.298  23.608  14.812
43740W        W 5029  26.471   1.883   3.829
43741W        W 5030   6.317  17.778   0.284
43742W        W 5031  11.625  15.729  12.432
43743W        W 5032  22.567   0.408  14.486
43744W        W 5033  10.641  19.094   3.718
43745W        W 5034  24.682  38.497   4.250
43746W        W 5035   6.743  33.999   1.804
43747W        W 5036  16.282  35.898  10.410
43748W        W 5037   7.844  40.934  12.056
43749W        W 5038  41.802  41.841   0.912
43750W        W 5039   2.889  18.217  12.563
43751W        W 5040  10.324   3.939   3.171
43752W        W 5041  21.668   4.433   3.833
43753W        W 5042  42.486  26.052   3.759
43754W        W 5043   4.721  25.107  14.877
43755W        W 5044  20.261  39.356   0.779
43756W        W 5045   2.296  18.603  14.495
43757W        W 5046  40.322  11.316  13.368
43758W        W 5047  33.988  41.936   0.736
43759W        W 5048  29.080  11.184   3.750
43760W        W 5049  35.456  39.543   2.681
43761W        W 5050  21.635  21.088   0.258
43762W        W 5051   5.336   6.828   2.898
43763W        W 5052   4.817   2.382  10.530
43764W        W 5053  28.099  42.786  12.088
43765W        W 5054  13.153  22.525   1.811
43766W        W 5055  29.928  23.027   0.381
43767W        W 5056  20.604  34.430   3.208
43768W        W 5057  25.181  35.478  11.015
43769W        W 5058   3.322  23.077   0.288
43770W        W 5059  22.212  42.451   3.648
43771W        W 5060  12.202  13.715  13.312
43772W        W 5061  18.056  31.637  14.895
43773W        W 5062   1.910   7.259  13.483
43774W        W 5063  22.738   9.864  10.940
43775W        W 5064  28.040  28.650   1.808
43776W        W 5065   4.838  35.444  12.955
43777W        W 5066  41.318  40.549  10.473
43778W        W 5067  28.110  23.154  13.043
43779W        W 5068  18.791  28.458   4.204
43780W        W 5069  25.501  16.111  14.501
43781W        W 5070   0.494  29.090   4.803
43782W        W 5071  25.135  12.235  14.497
43783W        W 5072  14.143  41.352  11.458
43784W        W 5073  28.036  33.103  13.877
43785W        W 5074  32.939  16.616  11.073
43786W        W 5075  35.043  26.490   4.717
43787W        W 5076  19.176  17.767   0.770
43788W        W 5077  44.779  18.064  14.967
43789W        W 5078  27.022   0.430  11.406
43790W        W 5079  31.085  22.111   1.290
43791W        W 5080  30.495  13.279   4.177
43792W        W 5081   7.174   8.183  14.921
43793W        W 5082  34.924  27.054   0.291
43794W        W 5083  39.941  22.703  12.504
43795W        W 5084  11.729  44.794  13.354
43796W        W 5085  42.304  25.195  13.913
43797W        W 5086   1.269  18.735  12.549
43798W        W 5087  24.092  40.339  13.456
43799W        W 5088   4.770  35.600   2.670
43800W        W 5089  38.362   9.650  10.429
43801W        W 5090   2.323   5.914  11.456
43802W        W 5091   6.768  24.613  11.488
43803W        W 5092   7.327  43.894  13.945
43804W        W 5093  15.639  29.018  12.037
43805W        W 5094  13.795  36.059  10.488
43806W        W 5095  29.522  34.407  12.900
43807W        W 5096  37.037  38.016  10.612
43808W        W 5097   3.432  19.090  12.487
43809W        W 5098  33.397   5.726   1.272
43810W        W 5099  35.564  21.232  12.086
43811W        W 5100  24.212  25.058  14.852
43812W        W 5101  41.440  28.609   0.453
43813W        W 5102  23.233  26.006  13.383
43814W        W 5103  29.658   9.301  12.448
43815W        W 5104  18.658  20.700   2.878
43816W        W 5105  37.856  19.238   4.810
43817W        W 5106  30.413  42.370  12.085
43818W        W 5107  42.448  32.077   2.390
43819W        W 5108  42.894   1.752   0.246
43820W        W 5109  44.369  22.018   4.671
43821W        W 5110  20.714  10.648  14.514
43822W        W 5111   9.691  39.838   0.438
43823W        W 5112  12.313  20.766   2.668
43824W        W 5113   3.939   4.296   0.893
43825W        W 5114  39.541  17.775  11.496
43826W        W 5115  42.373  32.449  11.496
43827W        W 5116  34.987  22.093   1.338
43828W        W 5117  25.136  35.954   4.788
43829W        W 5118   1.254  23.170   3.195
43830W        W 5119  19.630   9.298  14.364
43831W        W 5120  26.997  42.424  13.803
43832W        W 5121  33.397  40.818   3.252
43833W        W 5122   8.742  18.119   4.616
43834W        W 5123   8.258  18.213  13.911
43835W        W 5124  24.603  37.360  11.490
43836W        W 5125  41.371  14.727   2.242
43837W        W 5126   2.267  14.261   0.833
43838W        W 5127  35.908   1.462  14.494
43839W        W 5128  32.516  29.666   2.853
43840W        W 5129  30.015  15.677   2.697
43841W        W 5130  14.317  13.323  14.470
43842W        W 5131   0.846  33.605  10.160
43843W        W 5132   4.786   8.363   2.228
43844W        W 5133   3.341   5.756  14.828
43845W        W 5134  26.098  30.916  14.415
43846W        W 5135  10.287  28.996   3.779
43847W        W 5136  44.806  12.727   2.874
43848W        W 5137  35.018  31.968   0.349
43849W        W 5138  23.629  35.945   0.767
43850W        W 5139   5.423  12.768   1.319
43851W        W 5140  32.556  38.951   3.193
43852W        W 5141  18.146  40.948  13.938
43853W        W 5142  24.100   1.466   0.858
43854W        W 5143  33.426  28.632  14.445
43855W        W 5144  14.723  23.103  10.481
43856W        W 5145  33.049  33.014   3.838
43857W        W 5146  10.722  40.927   0.848
43858W        W 5147   3.902  29.610   3.747
43859W        W 5148  44.395  20.555  13.372
43860W        W 5149  29.090  36.373   0.335
43861W        W 5150  42.970  21.667  12.390
43862W        W 5151  36.575  42.449   2.666
43863W        W 5152   5.280  19.139  13.907
43864W        W 5153  14.205  25.514  12.422
43865W        W 5154   9.851   4.440   3.632
43866W        W 5155  41.431  27.943   0.379
43867W        W 5156   9.769  25.477   1.315
43868W        W 5157  27.969   2.433   2.742
43869W        W 5158  11.281   1.447  12.006
43870W        W 5159  14.243  30.082  13.961
43871W        W 5160  42.808  22.564  12.960
43872W        W 5161  11.684  37.907  12.362
43873W        W 5162  21.731  25.676  12.571
43874W        W 5163  27.507  29.048  12.533
43875W        W 5164  32.950  42.779  12.538
43876W        W 5165   5.276  21.096  14.433
43877W        W 5166  28.568  20.175   4.172
43878W        W 5167  41.486  43.338  10.978
43879W        W 5168   6.338  17.683   3.702
43880W        W 5169  43.860   1.957   2.688
43881W        W 5170  34.543   0.343   4.296
43882W        W 5171  43.795  27.992   0.835
43883W        W 5172  23.040  28.013  12.053
43884W        W 5173  38.997  41.896  12.961
43885W        W 5174  25.207  26.972   3.861
43886W        W 5175   3.362  41.852   5.096
43887W        W 5176  38.976   4.373   0.292
43888W        W 5177   2.234  34.864  11.463
43889W        W 5178  25.162  12.298   0.747
43890W        W 5179  15.209   0.900   5.192
43891W        W 5180   5.708  27.618   1.262
43892W        W 5181  15.237  11.140   4.202
43893W        W 5182  40.416   0.273   0.774
43894W        W 5183  40.012  33.027  14.807
43895W        W 5184  41.454  21.152   3.346
43896W        W 5185   8.699  23.637   4.704
43897W        W 5186   6.890  12.162  10.595
43898W        W 5187  40.817  12.643   0.383
43899W        W 5188  20.675  17.781  11.953
43900W        W 5189   8.697  37.862   4.775
43901W        W 5190  39.464  24.192  14.007
43902W        W 5191  15.675  14.103   4.316
43903W        W 5192  26.565   1.465  12.444
43904W        W 5193  25.474  41.515   2.238
43905W        W 5194  44.837   7.789   1.220
43906W        W 5195   8.792  10.710  10.563
43907W        W 5196  30.068  22.613   0.418
43908W        W 5197  38.550   6.416  10.408
43909W        W 5198   7.304  39.510   1.804
43910W        W 5199  15.260  23.576  14.911
43911W        W 5200  24.487  10.729  11.918
43912W        W 5201  35.374  31.432  12.002
43913W        W 5202  13.181  37.413   0.460
43914W        W 5203   9.367  16.137  12.528
43915W        W 5204  22.221  27.636   3.190
43916W        W 5205  10.744  37.847   2.273
43917W        W 5206  25.663  18.728  12.357
43918W        W 5207  42.829  21.143  14.308
43919W        W 5208  19.743  10.755   4.765
43920W        W 5209   3.395  22.663   4.150
43921W        W 5210  34.511  20.668  12.860
43922W        W 5211  21.651   9.720   2.703
43923W        W 5212  10.861   4.367   0.291
43924W        W 5213  15.614  16.316   3.768
43925W        W 5214  12.633  39.340  12.062
43926W        W 5215  24.196  30.447  12.964
43927W        W 5216  18.216  21.048  11.492
43928W        W 5217  29.102   4.369  14.436
43929W        W 5218  29.062   0.465  12.991
43930W        W 5219  32.003  28.929   2.417
43931W        W 5220  24.161  18.754   3.384
43932W        W 5221  14.815  25.714   0.437
43933W        W 5222  31.542   3.939  14.480
43934W        W 5223   4.378  31.117  12.059
43935W        W 5224  20.179  36.941   4.254
43936W        W 5225  33.485   1.458   3.759
43937W        W 5226  26.970  32.042  13.383
43938W        W 5227   0.486   0.298   3.323
43939W        W 5228   6.824   4.273   4.689
43940W        W 5229  21.581  31.978  10.972
43941W        W 5230  32.913  12.654  12.011
43942W        W 5231  39.491  29.064   1.282
43943W        W 5232  42.868  19.713   0.280
43944W        W 5233   1.978  16.076   3.705
43945W        W 5234  31.440  20.731   1.243
43946W        W 5235  26.551   7.799  13.421
43947W        W 5236  34.015  39.916   2.850
43948W        W 5237  11.166   7.216   0.803
43949W        W 5238  26.495  28.954  13.514
43950W        W 5239  40.467  15.720   2.678
43951W        W 5240   7.239   6.784   1.272
43952W        W 5241  38.071  44.968  12.454
43953W        W 5242  25.145   2.837  10.563
43954W        W 5243  12.742  43.930  12.545
43955W        W 5244   0.988  22.152   0.246
43956W        W 5245  15.779  26.700   1.280
43957W        W 5246  31.485   1.405  12.069
43958W        W 5247  22.189  11.354   0.270
43959W        W 5248   5.397  40.852   1.752
43960W        W 5249   7.784   1.247  14.349
43961W        W 5250  35.578  12.160   4.243
43962W        W 5251  41.301  12.267  14.866
43963W        W 5252  38.404   9.254   0.912
43964W        W 5253  25.136  38.524   3.321
43965W        W 5254   5.911  10.193   0.798
43966W        W 5255  38.999  27.478  11.855
43967W        W 5256  22.651  36.037   1.421
43968W        W 5257  14.250   5.341  10.538
43969W        W 5258  39.922  28.990  13.478
43970W        W 5259  20.202  16.136   2.755
43971W        W 5260  42.282  34.919  10.458
43972W        W 5261  22.024  17.180   1.910
43973W        W 5262  31.639  43.448  12.003
43974W        W 5263   7.339  39.330  11.378
43975W        W 5264   8.738   2.799  10.993
43976W        W 5265  26.537   7.354  14.357
43977W        W 5266  12.711  44.878   0.468
43978W        W 5267  20.730  20.217   0.278
43979W        W 5268  42.831   3.324  14.871
43980W        W 5269   0.796  17.241  12.028
43981W        W 5270   8.175  26.508  13.426
43982W        W 5271  21.685  18.057  14.900
43983W        W 5272  44.358  22.521  12.015
43984W        W 5273  42.024  22.055  11.418
43985W        W 5274  24.022  32.410  14.462
43986W        W 5275  12.622  36.369  13.326
43987W        W 5276  24.189  17.114   3.207
43988W        W 5277  17.106  33.408   1.277
43989W        W 5278   2.360  27.950   0.942
43990W        W 5279   0.787  43.885  11.962
43991W        W 5280   9.290  37.537  12.449
43992W        W 5281  40.824  42.483   4.648
43993W        W 5282  33.114  17.244   3.785
43994W        W 5283  39.943  23.585   0.296
43995W        W 5284   9.158   3.273   4.183
43996W        W 5285  38.344  40.002  10.431
43997W        W 5286  33.589  42.414   1.769
43998W        W 5287  33.437  26.681  10.894
43999W        W 5288   7.364   0.908  10.923
44000W        W 5289  17.792  10.784   0.839
44001W        W 5290   2.919  42.312  10.540
44002W        W 5291  29.972   2.913  12.957
44003W        W 5292   1.856  15.578   0.758
44004W        W 5293  22.648   3.437  13.482
44005W        W 5294  15.171  19.255  10.888
44006W        W 5295  33.441   6.391   4.300
44007W        W 5296  37.348  39.488  12.924
44008W        W 5297   4.707  30.020  11.031
44009W        W 5298   2.903  32.967   4.688
44010W        W 5299  12.653   6.869   2.748
44011W        W 5300  14.694   9.369   1.281
44012W        W 5301  17.557  22.732   1.848
44013W        W 5302  40.384  34.608   0.835
44014W        W 5303  11.138  18.188  12.542
44015W        W 5304  10.848  21.602   2.227
44016W        W 5305   0.301  23.194  13.995
44017W        W 5306  18.704  16.672  11.012
44018W        W 5307  13.215   6.223   0.874
44019W        W 5308  14.322  13.622   1.772
44020W        W 5309   1.829  25.598  13.020
44021W        W 5310  21.125  22.540  10.156
44022W        W 5311  35.422  13.171  14.950
44023W        W 5312  38.421  29.482  11.935
44024W        W 5313  37.474  14.149   0.787
44025W        W 5314  43.877  41.922  12.998
44026W        W 5315  41.857  10.637   3.674
44027W        W 5316   1.762  43.289  11.382
44028W        W 5317  15.703  14.302   1.856
44029W        W 5318  36.469  34.374   0.744
44030W        W 5319  38.844  40.951  11.392
44031W        W 5320  12.715  29.125   2.334
44032W        W 5321  37.519  34.402   0.288
44033W        W 5322  19.617  26.986  14.870
44034W        W 5323  31.065  24.724   0.247
44035W        W 5324   2.960  10.151   0.310
44036W        W 5325  30.449  33.516   2.870
44037W        W 5326  31.911  42.815  12.973
44038W        W 5327  12.326  20.721  12.902
44039W        W 5328   2.302  19.136  11.928
44040W        W 5329   4.714   5.381   0.256
44041W        W 5330  43.883  33.913   1.929
44042W        W 5331  14.757  33.464   4.326
44043W        W 5332   5.813  10.291  13.324
44044W        W 5333  17.667  24.722   1.772
44045W        W 5334  15.178   7.779  13.447
44046W        W 5335  35.961  29.997  13.363
44047W        W 5336  18.586  27.106  14.316
44048W        W 5337  44.285  16.704  13.904
44049W        W 5338  12.254  30.144  10.637
44050W        W 5339  22.643  41.911   0.422
44051W        W 5340  24.520   8.717  14.965
44052W        W 5341  24.491  17.795  14.297
44053W        W 5342  25.183  14.786   0.858
44054W        W 5343  35.891  44.479   1.729
44055W        W 5344  44.938  19.049   1.336
44056W        W 5345  31.513   6.341   4.737
44057W        W 5346  28.485   6.818  13.880
44058W        W 5347  16.122  36.439  10.565
44059W        W 5348   3.952   8.892  11.973
44060W        W 5349  29.639   1.794  12.398
44061W        W 5350   6.719  27.539  14.888
44062W        W 5351  13.231  24.689  14.986
44063W        W 5352  20.542  15.112   2.812
44064W        W 5353  32.135  38.962   3.749
44065W        W 5354  41.029  39.316  12.405
44066W        W 5355  18.092   0.747  14.950
44067W        W 5356  43.807  30.621  11.530
44068W        W 5357  34.967  15.230  13.810
44069W        W 5358  24.543  17.567  13.532
44070W        W 5359  19.615  44.920   1.715
44071W        W 5360  25.507  39.009  11.442
44072W        W 5361  35.487  31.521   0.949
44073W        W 5362  32.061  38.358  11.411
44074W        W 5363  19.069  33.411   4.313
44075W        W 5364  27.154  13.603  11.441
44076W        W 5365   7.769  26.520   2.894
44077W        W 5366  11.633  13.239   4.662
44078W        W 5367  32.466  25.544  10.534
44079W        W 5368  37.073  20.594  14.873
44080W        W 5369  18.600   5.234  12.956
44081W        W 5370  40.948  19.649   1.695
44082W        W 5371  26.137  44.339  11.397
44083W        W 5372   1.857  27.512   2.708
44084W        W 5373  15.153  34.956   0.468
44085W        W 5374  14.182  25.539  13.018
44086W        W 5375   7.309   3.403  10.568
44087W        W 5376  19.665  11.335  12.576
44088W        W 5377  28.662  43.980  12.363
44089W        W 5378  42.358  18.550   1.906
44090W        W 5379  42.971  40.400  14.431
44091W        W 5380   5.766  19.285   3.651
44092W        W 5381  44.774  19.138   2.286
44093W        W 5382   9.758  22.606   3.320
44094W        W 5383  23.185  37.498   2.289
44095W        W 5384  36.583  31.025  13.798
44096W        W 5385  20.141  13.278  10.939
44097W        W 5386   3.935  17.627   3.235
44098W        W 5387  27.106  19.766   4.790
44099W        W 5388  32.616  28.434  12.915
44100W        W 5389  28.474  44.349   3.205
44101W        W 5390   9.682  13.722  14.313
44102W        W 5391  31.471  10.196   3.756
44103W        W 5392  22.162  43.848   2.275
44104W        W 5393  29.038  28.091  13.384
44105W        W 5394   0.311  26.054   0.744
44106W        W 5395  23.734  42.486   1.383
44107W        W 5396  16.127   3.392   0.734
44108W        W 5397  25.172  42.896  11.913
44109W        W 5398  16.574  26.034   3.709
44110W        W 5399   5.776  27.507   3.675
44111W        W 5400  38.904  42.012   3.859
44112W        W 5401  11.146  18.106  10.916
44113W        W 5402  29.521  19.065  14.927
44114W        W 5403  42.891  38.922   5.207
44115W        W 5404  15.116  16.096   2.780
44116W        W 5405   2.934  38.395  12.868
44117W        W 5406  15.725  27.002  10.517
44118W        W 5407  23.038  12.711  13.546
44119W        W 5408  19.593  28.496  12.087
44120W        W 5409  20.684  28.579   4.835
44121W        W 5410  44.381   0.873   0.335
44122W        W 5411  19.260  15.757   2.860
44123W        W 5412  20.128  33.018  11.508
44124W        W 5413  26.091  39.909   2.267
44125W        W 5414  34.548  23.140   1.926
44126W        W 5415  25.507  36.421   1.368
44127W        W 5416  12.287  38.490  13.959
44128W        W 5417  12.217  23.200  13.867
44129W        W 5418  23.205  40.522  13.825
44130W        W 5419  17.068  17.254  12.481
44131W        W 5420   5.802  40.369   2.779
44132W        W 5421   3.385  44.260   1.759
44133W        W 5422  21.176  44.835   0.875
44134W        W 5423  33.410  28.619   4.813
44135W        W 5424   3.770  19.151   3.776
44136W        W 5425  37.497   6.739   0.287
44137W        W 5426   8.815  36.461  13.487
44138W        W 5427  29.093   2.444  11.555
44139W        W 5428   7.387  39.405  12.998
44140W        W 5429  26.547  44.919   4.124
44141W        W 5430  25.002  31.127   0.431
44142W        W 5431   8.803   6.841   3.336
44143W        W 5432  12.826  21.744  12.503
44144W        W 5433  24.158  14.332   5.277
44145W        W 5434  45.000  33.564   4.310
44146W        W 5435  37.499  19.549   4.161
44147W        W 5436  39.865   7.673  12.967
44148W        W 5437  39.348  18.115  12.940
44149W        W 5438  22.162  12.805  13.895
44150W        W 5439  44.411  34.906   0.842
44151W        W 5440  43.791   2.953  13.869
44152W        W 5441  10.257  33.929  13.815
44153W        W 5442  21.241  10.669  12.901
44154W        W 5443  42.518   6.812  14.798
44155W        W 5444  16.146  13.629   0.952
44156W        W 5445   6.838  13.327   1.799
44157W        W 5446   5.819  18.777  13.807
44158W        W 5447  10.219  31.004  10.063
44159W        W 5448  20.041  18.656   0.788
44160W        W 5449  28.186  26.963   2.766
44161W        W 5450  17.575  43.775  12.385
44162W        W 5451  43.959  29.512   1.736
44163W        W 5452  32.083  38.344   4.700
44164W        W 5453  15.193  35.998   2.223
44165W        W 5454   9.798  15.807   1.370
44166W        W 5455  30.998  41.478  12.872
44167W        W 5456  33.902   5.773   3.633
44168W        W 5457   4.797   7.887   4.241
44169W        W 5458   9.724   0.298  11.376
44170W        W 5459  25.141  15.605  14.843
44171W        W 5460  31.995   5.218   4.272
44172W        W 5461  38.885  35.037   5.122
44173W        W 5462  15.084   0.465   5.798
44174W        W 5463  41.925   7.250  12.535
44175W        W 5464  41.983   2.867   1.315
44176W        W 5465   7.409  20.704  11.478
44177W        W 5466  34.996  14.168   4.799
44178W        W 5467  39.512  19.263   5.621
44179W        W 5468  42.886   0.905   2.412
44180W        W 5469   8.868  10.198   2.204
44181W        W 5470  15.243   9.856   3.383
44182W        W 5471  20.741  11.180   4.692
44183W        W 5472   1.786  42.494  14.827
44184W        W 5473  32.429  39.366  13.371
44185W        W 5474  26.555  24.172   0.953
44186W        W 5475  29.666  22.631  12.863
44187W        W 5476  43.309  14.717  13.461
44188W        W 5477  28.000  30.637   1.323
44189W        W 5478  38.567  29.493   2.834
44190W        W 5479   4.340  12.177   3.794
44191W        W 5480  14.149  39.496   0.928
44192W        W 5481  30.945   0.427   4.311
44193W        W 5482  23.554  44.293   3.280
44194W        W 5483  41.446  35.951   1.800
44195W        W 5484   1.280   1.292  11.965
44196W        W 5485  44.365  42.916  14.798
44197W        W 5486  35.531  26.536  13.031
44198W        W 5487  38.820  23.204   4.823
44199W        W 5488  12.187  27.509  10.498
44200W        W 5489  14.619  16.595  13.513
44201W        W 5490   9.206  33.013   1.853
44202W        W 5491   5.319  28.507   4.299
44203W        W 5492  36.078  22.577   4.221
44204W        W 5493  13.295  36.364   2.754
44205W        W 5494  30.947  23.179   4.290
44206W        W 5495  18.098  44.986   0.872
44207W        W 5496  28.492  34.903   3.647
44208W        W 5497   3.791   8.670   0.383
44209W        W 5498  31.119   9.202  10.461
44210W        W 5499  13.255  35.359   1.253
44211W        W 5500   8.318  30.029  14.028
44212W        W 5501  37.899  15.809  12.900
44213W        W 5502   0.791  28.541  12.862
44214W        W 5503  37.893   4.878  13.046
44215W        W 5504  20.062  10.842  14.768
44216W        W 5505  32.042  36.423  12.888
44217W        W 5506  31.536  31.941   4.822
44218W        W 5507  27.148  40.856  11.435
44219W        W 5508  15.246  26.691   3.312
44220W        W 5509  19.611   3.777   2.376
44221W        W 5510  10.639  31.938  13.378
44222W        W 5511  39.491  41.299  10.935
44223W        W 5512  43.823  19.606   3.734
44224W        W 5513  27.033  17.069  13.901
44225W        W 5514   6.699  26.601  11.504
44226W        W 5515  23.230  13.268  13.911
44227W        W 5516  41.386   6.912  12.572
44228W        W 5517   2.274  41.015   4.691
44229W        W 5518  20.547  12.743   0.963
44230W        W 5519  25.608  35.108   3.156
44231W        W 5520  19.157  15.798   3.380
44232W        W 5521  29.015  10.148  14.017
44233W        W 5522  17.775  10.289  14.278
44234W        W 5523  34.057  22.208  11.454
44235W        W 5524  43.336  18.173   5.252
44236W        W 5525  25.083  14.696  12.893
44237W        W 5526  44.300   5.890  14.917
44238W        W 5527  25.050  23.678   3.644
44239W        W 5528  33.046  30.976  14.859
44240W        W 5529  31.041  13.662   2.761
44241W        W 5530   4.745  12.803  12.478
44242W        W 5531  24.231  29.005  14.947
44243W        W 5532   4.448  18.272   3.246
44244W        W 5533  11.280  14.143   1.337
44245W        W 5534  28.468  43.414  11.523
44246W        W 5535  19.210  40.883   2.683
44247W        W 5536  21.207  40.373   4.162
44248W        W 5537   1.245  32.439   2.292
44249W        W 5538  35.418  35.394   1.390
44250W        W 5539   6.300   6.362  12.888
44251W        W 5540  10.269  34.552   1.870
44252W        W 5541   1.972  11.177   4.813
44253W        W 5542  20.217  35.048  12.447
44254W        W 5543  19.736  16.775  10.971
44255W        W 5544  17.208   1.819  13.964
44256W        W 5545  10.226  38.993   0.360
44257W        W 5546  30.628   7.836   5.086
44258W        W 5547  24.154  15.188  10.519
44259W        W 5548  28.186  13.182  10.102
44260W        W 5549  35.025  24.102  12.969
44261W        W 5550   1.363  11.248   4.773
44262W        W 5551  42.427  10.210   0.807
44263W        W 5552  15.757   7.343  11.520
44264W        W 5553   0.324   8.160  14.276
44265W        W 5554  32.135  39.977   4.307
44266W        W 5555  32.628  18.051  13.358
44267W        W 5556  42.902  14.102   3.290
44268W        W 5557  42.857   9.223   2.782
44269W        W 5558   2.760  37.854   1.810
44270W        W 5559  33.012  41.843  14.468
44271W        W 5560  15.182  42.862   3.673
44272W        W 5561  10.291  41.890  12.000
44273W        W 5562  14.260  25.673   3.811
44274W        W 5563   4.937  14.603  13.505
44275W        W 5564   5.263  24.003   0.840
44276W        W 5565  37.859   1.934  10.500
44277W        W 5566  37.571  36.564   1.845
44278W        W 5567   4.446  35.018   0.451
44279W        W 5568   3.300  14.171  10.635
44280W        W 5569   0.824   1.285   3.218
44281W        W 5570  19.714  28.522  14.294
44282W        W 5571  31.062  37.926  10.457
44283W        W 5572  31.961  35.090  14.799
44284W        W 5573  33.420  14.143  13.937
44285W        W 5574   6.800   9.374  14.776
44286W        W 5575  42.948  39.541  13.853
44287W        W 5576  28.030  20.559   1.383
44288W        W 5577  41.896  16.596   4.658
44289W        W 5578  42.786  14.781   1.725
44290W        W 5579  19.240  35.433   2.897
44291W        W 5580  35.967  19.202   5.112
44292W        W 5581   7.759  25.189   3.180
44293W        W 5582  23.088  13.114   3.172
44294W        W 5583   6.381   5.881   1.729
44295W        W 5584  32.559  22.177  12.547
44296W        W 5585  30.498  38.921  12.858
44297W        W 5586  29.973  24.646   3.198
44298W        W 5587  23.517  36.348   1.730
44299W        W 5588  39.397  19.054  14.419
44300W        W 5589  22.029  41.907   0.358
44301W        W 5590   8.253   5.400  14.960
44302W        W 5591  14.216   4.337  10.477
44303W        W 5592   6.326  11.865   0.732
44304W        W 5593   7.200  27.124  13.016
44305W        W 5594  17.172   7.312   2.371
44306W        W 5595  44.377   7.229   0.934
44307W        W 5596  27.488   3.818   2.852
44308W        W 5597   2.288  29.599  12.393
44309W        W 5598  28.516   7.753   4.622
44310W        W 5599  20.552   0.839   1.738
44311W        W 5600  26.702   2.365   4.280
44312W        W 5601  16.146   4.277  11.439
44313W        W 5602  17.272   7.307   4.142
44314W        W 5603  21.607   5.696   0.789
44315W        W 5604  16.734  30.980   1.758
44316W        W 5605  23.598   5.353   0.921
44317W        W 5606  35.365  31.499  11.054
44318W        W 5607   1.442  40.029  12.554
44319W        W 5608  14.227   3.271   4.644
44320W        W 5609  13.156  36.094  14.477
44321W        W 5610  12.293  22.549   0.415
44322W        W 5611  29.578   0.433   5.090
44323W        W 5612  40.486  15.606  13.793
44324W        W 5613  36.495  31.612   0.740
44325W        W 5614   1.885  16.135   4.618
44326W        W 5615  18.630  27.607  10.607
44327W        W 5616  16.098  28.183   4.134
44328W        W 5617  36.593  20.709   3.192
44329W        W 5618  36.065  26.060   2.208
44330W        W 5619  18.150   4.390   0.869
44331W        W 5620  27.974  24.578   2.210
44332W        W 5621  11.803  22.505  10.471
44333W        W 5622   0.850  24.069   2.282
44334W        W 5623   6.779  34.910   0.801
44335W        W 5624   4.327   4.882  14.355
44336W        W 5625   7.775  14.105   2.325
44337W        W 5626  41.943  28.162  11.115
44338W        W 5627   2.960  34.452   4.664
44339W        W 5628   2.411  19.248  14.281
44340W        W 5629  22.039  39.370   4.168
44341W        W 5630   8.715  34.431   4.661
44342W        W 5631  23.067  36.028  14.959
44343W        W 5632  39.408   4.740   0.734
44344W        W 5633   7.331  29.622  12.842
44345W        W 5634  10.290  41.816   4.834
44346W        W 5635  20.550  13.132   1.772
44347W        W 5636   2.867  35.867   4.299
44348W        W 5637   6.796  36.546  10.435
44349W        W 5638   1.453  36.380  13.518
44350W        W 5639  15.820   3.752   3.150
44351W        W 5640  22.206  24.114  12.433
44352W        W 5641  19.600  34.524   3.685
44353W        W 5642  34.008  17.629   2.777
44354W        W 5643  42.395  31.524   3.182
44355W        W 5644   2.898  37.410   3.292
44356W        W 5645  15.173  16.240   3.863
44357W        W 5646  26.994  34.972  10.459
44358W        W 5647  33.479  20.742  14.997
44359W        W 5648  22.688   0.787   0.928
44360W        W 5649  35.405  43.405   1.266
44361W        W 5650  31.914  38.874   3.284
44362W        W 5651  26.486  15.234   1.318
44363W        W 5652  30.502   7.308  13.338
44364W        W 5653  15.697   6.248  11.017
44365W        W 5654   4.868  13.683   4.268
44366W        W 5655   4.752  40.529   2.366
44367W        W 5656   2.377  30.138   3.327
44368W        W 5657  32.091  22.523  13.969
44369W        W 5658   5.346   7.309   4.269
44370W        W 5659  40.029   9.707  13.037
44371W        W 5660  33.430  27.131  14.373
44372W        W 5661   1.787  15.721  14.439
44373W        W 5662  19.763  20.758  12.376
44374W        W 5663  11.151  31.107  10.543
44375W        W 5664   6.331  26.963   2.740
44376W        W 5665  42.853  42.849  12.407
44377W        W 5666  10.271   4.204   0.245
44378W        W 5667  35.894  30.999  10.608
44379W        W 5668  14.104  22.051  13.530
44380W        W 5669   2.876  12.267  11.103
44381W        W 5670  12.116  21.678  14.496
44382W        W 5671  14.318   5.233  12.567
44383W        W 5672   2.337  21.025   3.161
44384W        W 5673   0.983  11.630   0.775
44385W        W 5674  37.956  35.911   4.253
44386W        W 5675  22.178  11.755  13.521
44387W        W 5676   8.377  28.538  14.299
44388W        W 5677   6.335  26.103   1.218
44389W        W 5678   7.378  20.168  10.993
44390W        W 5679   7.899   4.296   0.955
44391W        W 5680  11.786   9.684  14.868
44392W        W 5681   3.340  17.774  11.395
44393W        W 5682   5.386  39.808   3.710
44394W        W 5683  23.695  38.001   3.159
44395W        W 5684  24.642  16.776   0.351
44396W        W 5685  34.895  24.686   2.212
44397W        W 5686  36.358   1.858  12.896
44398W        W 5687  20.110  31.435   4.208
44399W        W 5688  37.044  23.057  13.458
44400W        W 5689   9.743  23.117   4.642
44401W        W 5690  40.911   4.858  13.497
44402W        W 5691  12.632  22.681   0.943
44403W        W 5692   9.827   1.855  14.947
44404W        W 5693  39.909   2.769  10.983
44405W        W 5694  33.586  36.004   2.329
44406W        W 5695  35.918  36.400  11.987
44407W        W 5696  33.905  10.730   2.808
44408W        W 5697  25.095  35.429   0.930
44409W        W 5698   9.170  40.366  14.360
44410W        W 5699  41.005  34.596   2.317
44411W        W 5700  15.273  28.153   0.938
44412W        W 5701   6.796   1.755   4.231
44413W        W 5702  31.945  16.687   2.824
44414W        W 5703   2.365  20.215  10.476
44415W        W 5704  44.281  41.465   2.811
44416W        W 5705   3.742   0.285   3.806
44417W        W 5706  36.465   4.881  14.382
44418W        W 5707  19.146  15.239   0.951
44419W        W 5708  11.633   9.827   2.214
44420W        W 5709   7.883  28.671   2.416
44421W        W 5710  33.091  14.219  13.922
44422W        W 5711  20.197  33.926  13.927
44423W        W 5712  41.295  35.416   1.910
44424W        W 5713  14.812  10.328   2.224
44425W        W 5714  42.358  34.996  14.467
44426W        W 5715  15.281  20.047   1.802
44427W        W 5716  42.808  26.014  13.344
44428W        W 5717  28.438  30.004  13.040
44429W        W 5718  44.870  32.125  10.628
44430W        W 5719   0.904  43.771   3.695
44431W        W 5720  37.401  27.578   0.894
44432W        W 5721  37.460  25.217   0.322
44433W        W 5722   6.333  41.463   2.799
44434W        W 5723  25.158   3.724   4.642
44435W        W 5724  27.528  22.244  13.537
44436W        W 5725  20.131  36.444   1.790
44437W        W 5726  39.449  27.669   4.720
44438W        W 5727   8.214  17.735  12.827
44439W        W 5728  31.960   3.899   3.738
44440W        W 5729  30.975  37.455  10.041
44441W        W 5730  28.031  20.691   1.800
44442W        W 5731  20.609   2.412  10.488
44443W        W 5732  25.646   5.916   4.690
44444W        W 5733   4.334  25.695  10.610
44445W        W 5734  25.619  40.336   4.834
44446W        W 5735  17.618  24.591  13.522
44447W        W 5736  39.340  14.207  11.914
44448W        W 5737  21.660  19.181   3.700
44449W        W 5738  23.089  43.803  11.497
44450W        W 5739  33.544  10.370  13.880
44451W        W 5740  33.066  31.119   4.127
44452W        W 5741  16.653  24.200  12.884
44453W        W 5742  40.305  15.283  12.829
44454W        W 5743  30.108  32.947  14.948
44455W        W 5744  38.328  17.666  13.920
44456W        W 5745  33.413  18.688  11.597
44457W        W 5746  40.324  30.608  10.895
44458W        W 5747  37.069  36.475  12.959
44459W        W 5748  13.762   1.900   4.224
44460W        W 5749  15.663  18.733  13.541
44461W        W 5750  23.646  20.036  10.439
44462W        W 5751  44.411  25.592  11.892
44463W        W 5752  18.734  20.694   1.303
44464W        W 5753   2.446   2.381   4.660
44465W        W 5754  30.619  32.392  14.843
44466W        W 5755  11.344   1.319  11.434
44467W        W 5756   7.764  31.482   2.284
44468W        W 5757  29.094  13.771  14.983
44469W        W 5758  40.542  35.479   2.237
44470W        W 5759  37.085  20.614  12.898
44471W        W 5760  31.522   8.656  13.408
44472W        W 5761  25.081  26.958   0.754
44473W        W 5762  23.088  17.778  14.844
44474W        W 5763  29.072   3.741  11.427
44475W        W 5764  27.572  35.382   3.673
44476W        W 5765  18.566   9.375  11.463
44477W        W 5766  11.740   6.215  14.886
44478W        W 5767  41.909  28.630   0.779
44479W        W 5768  24.495  41.451  14.363
44480W        W 5769  27.687   4.797   0.758
44481W        W 5770   8.401  21.555  12.007
44482W        W 5771  29.525  37.076   2.301
44483W        W 5772  22.591  40.338   1.711
44484W        W 5773  18.580   1.775  11.966
44485W        W 5774  41.835  34.865   1.884
44486W        W 5775  19.733   8.816   4.781
44487W        W 5776   0.908  17.145  14.932
44488W        W 5777  22.614  10.289   5.246
44489W        W 5778   7.287  26.149  12.894
44490W        W 5779  25.986   4.795   1.373
44491W        W 5780   5.353  21.715   3.369
44492W        W 5781  32.133   2.329   2.224
44493W        W 5782  27.011  42.387   3.275
44494W        W 5783  26.575  40.531  10.422
44495W        W 5784  21.192  28.527  14.867
44496W        W 5785  15.801  34.562  14.932
44497W        W 5786  10.175  36.548  11.389
44498W        W 5787  23.581  31.925  12.974
44499W        W 5788  33.114  32.952   4.731
44500W        W 5789  38.534  44.294   4.656
44501W        W 5790  17.184   7.795   1.732
44502W        W 5791  14.239  33.082   0.929
44503W        W 5792  20.217   0.818   2.684
44504W        W 5793  10.869  36.990  12.399
44505W        W 5794  27.964  32.075   3.148
44506W        W 5795   5.423  26.122  13.012
44507W        W 5796   7.789  43.452  14.943
44508W        W 5797   7.239   1.843  14.311
44509W        W 5798   8.742   6.831  10.553
44510W        W 5799  25.067  36.912   0.296
44511W        W 5800  22.060  43.860   0.806
44512W        W 5801   4.761   9.748   1.841
44513W        W 5802   2.373  42.405   0.821
44514W        W 5803  23.043  24.695  12.356
44515W        W 5804   0.399  11.289   2.215
44516W        W 5805  20.523  35.012  14.473
44517W        W 5806  36.392  44.897   2.230
44518W        W 5807  39.497  19.534  10.588
44519W        W 5808  27.636   5.399  14.825
44520W        W 5809   2.450  36.990  12.446
44521W        W 5810  24.638  17.750   4.810
44522W        W 5811  20.615   5.424   4.178
44523W        W 5812   4.910  43.975   1.388
44524W        W 5813  29.014  24.700  14.854
44525W        W 5814  35.524  40.020  14.509
44526W        W 5815  26.007  38.351  12.089
44527W        W 5816  14.173  29.158  11.907
44528W        W 5817  39.472  30.081  11.474
44529W        W 5818  38.329  18.260   3.162
44530W        W 5819  22.182  22.602   0.868
44531W        W 5820  12.149  32.907  14.008
44532W        W 5821  26.064  33.903  10.892
44533W        W 5822  29.615  43.931  13.008
44534W        W 5823  12.160   6.293   1.850
44535W        W 5824  10.381  32.583   1.440
44536W        W 5825   4.244  32.472  12.080
44537W        W 5826  14.130  41.949   1.449
44538W        W 5827  42.362  42.934   4.606
44539W        W 5828  42.281  13.779  12.980
44540W        W 5829   2.789  40.460   4.646
44541W        W 5830  31.526   4.814  11.065
44542W        W 5831  21.687   9.346   2.718
44543W        W 5832  34.920  43.415  13.462
44544W        W 5833  17.577  22.091   1.734
44545W        W 5834   3.260   7.207  12.887
44546W        W 5835  30.517  39.334  12.517
44547W        W 5836   8.356  16.693   4.302
44548W        W 5837  22.604  19.269  14.996
44549W        W 5838   9.842  10.869   0.328
44550W        W 5839  38.966  40.371  14.468
44551W        W 5840   6.682  25.108   1.292
44552W        W 5841  32.048   0.935   0.281
44553W        W 5842   1.266  36.025   1.752
44554W        W 5843   5.901  31.060  11.545
44555W        W 5844   2.313  12.658   4.171
44556W        W 5845  18.245  28.041  14.396
44557W        W 5846  32.620  12.303   3.285
44558W        W 5847  26.591  34.956   4.186
44559W        W 5848  27.105  19.632  14.463
44560W        W 5849  26.611  43.272   1.890
44561W        W 5850  43.287   5.830  13.369
44562W        W 5851  36.884   7.870  10.957
44563W        W 5852  23.178  43.825   0.784
44564W        W 5853   3.737  32.635  11.460
44565W        W 5854  43.392   4.402  10.508
44566W        W 5855   4.310  11.812   4.235
44567W        W 5856  34.537  10.301   0.285
44568W        W 5857  16.301  21.184  12.576
44569W        W 5858  35.038  17.093   4.811
44570W        W 5859   1.782  33.582  12.823
44571W        W 5860   2.746  34.044  14.458
44572W        W 5861  13.261  16.244   2.763
44573W        W 5862  37.544  22.166  14.825
44574W        W 5863  18.738  27.628  14.882
44575W        W 5864  28.604  43.993  14.966
44576W        W 5865   2.853  11.666   3.160
44577W        W 5866  39.373  12.745   0.373
44578W        W 5867  25.187  38.824   1.390
44579W        W 5868  19.213  40.048  12.436
44580W        W 5869  10.138  31.534   4.277
44581W        W 5870  39.848  20.657  11.383
44582W        W 5871  25.616  17.630  12.875
44583W        W 5872   8.705  29.055   9.980
44584W        W 5873   0.825  33.922   0.899
44585W        W 5874  34.114   6.800   0.741
44586W        W 5875  44.368  36.456  10.476
44587W        W 5876  21.633   0.782  10.554
44588W        W 5877  44.985  43.465   2.748
44589W        W 5878  42.854  39.354   0.841
44590W        W 5879  31.115   8.246   0.899
44591W        W 5880  44.384  18.683   4.775
44592W        W 5881  41.538  26.976  12.927
44593W        W 5882  28.113   2.885  12.355
44594W        W 5883  43.397   8.213   5.228
44595W        W 5884  28.053   3.768   0.333
44596W        W 5885   0.912  32.008  11.067
44597W        W 5886  11.302  34.397   3.345
44598W        W 5887   1.367  38.531  10.509
44599W        W 5888  29.472   9.202  14.483
44600W        W 5889   0.979  16.656   2.665
44601W        W 5890  43.947  24.680   4.635
44602W        W 5891  34.372   4.779   1.858
44603W        W 5892  36.983  30.144   4.640
44604W        W 5893  16.271   1.455  10.950
44605W        W 5894  33.480  17.108   0.841
44606W        W 5895  43.978  18.268  14.873
44607W        W 5896  30.429  20.638   4.701
44608W        W 5897   3.720   7.320   0.386
44609W        W 5898  15.775  31.561  13.973
44610W        W 5899  16.181  31.645  10.489
44611W        W 5900   3.915   2.779  14.391
44612W        W 5901  10.725  30.048   4.647
44613W        W 5902  24.646  33.620  10.900
44614W        W 5903  30.918  13.683   4.812
44615W        W 5904  32.508   2.444  13.982
44616W        W 5905  40.012  19.574   2.257
44617W        W 5906  24.999  11.814  14.434
44618W        W 5907   2.448  12.638   3.858
44619W        W 5908  36.917   6.769   1.262
44620W        W 5909   3.283  21.237  13.489
44621W        W 5910  39.947  20.257   2.830
44622W        W 5911  41.440   7.709   4.328
44623W        W 5912   9.341  40.455  14.918
44624W        W 5913  12.611  20.039   4.136
44625W        W 5914   1.749  30.426   2.903
44626W        W 5915  10.265  37.867   5.126
44627W        W 5916  32.979  36.559   0.810
44628W        W 5917   5.840  13.645  13.047
44629W        W 5918  39.333  21.728  10.951
44630W        W 5919  10.162  39.490   4.205
44631W        W 5920  39.950  35.506  12.371
44632W        W 5921   9.753  16.742  11.491
44633W        W 5922   1.849  17.215   1.211
44634W        W 5923  44.446  14.198   4.313
44635W        W 5924   3.305  30.574   3.203
44636W        W 5925  39.933  22.089   0.263
44637W        W 5926  39.484  36.958  14.328
44638W        W 5927  31.415  28.448  11.859
44639W        W 5928   3.786  13.647  11.975
44640W        W 5929  31.967   6.204  14.447
44641W        W 5930   1.840   4.912  10.407
44642W        W 5931  35.486  11.747   4.761
44643W        W 5932  13.782  41.465  14.386
44644W        W 5933   5.897   2.882  14.780
44645W        W 5934  40.955  11.676   1.401
44646W        W 5935   7.828  19.558  10.157
44647W        W 5936  17.276  44.471  12.837
44648W        W 5937   7.713  22.009   3.320
44649W        W 5938   5.696  32.398   4.171
44650W        W 5939  27.029   7.216   5.598
44651W        W 5940  36.985  17.302   9.616
44652W        W 5941  30.051   2.427   4.696
44653W        W 5942   5.919  14.700  12.062
44654W        W 5943   3.388  44.420   4.785
44655W        W 5944  43.772   8.182  10.607
44656W        W 5945  19.715  38.894  13.423
44657W        W 5946  37.837  30.538  12.972
44658W        W 5947  16.750   6.422   4.340
44659W        W 5948  28.630  21.066  11.442
44660W        W 5949  42.518  25.674  11.574
44661W        W 5950  35.917  22.736   3.146
44662W        W 5951  29.461  12.335  11.057
44663W        W 5952  10.361  16.584  14.340
44664W        W 5953  27.095  30.927  11.978
44665W        W 5954   3.218   8.193  12.859
44666W        W 5955  17.566   0.473  14.482
44667W        W 5956   8.307  37.419   4.598
44668W        W 5957  38.535  34.614  12.479
44669W        W 5958  24.982  19.060   1.911
44670W        W 5959  37.853  14.824  12.844
44671W        W 5960  32.428  14.243   3.286
44672W        W 5961  43.942  42.477  12.039
44673W        W 5962  16.125  29.157  12.363
44674W        W 5963  36.886   8.850  11.577
44675W        W 5964  12.747  27.141  10.592
44676W        W 5965  17.799  39.870   3.641
44677W        W 5966  13.656  38.883   3.706
44678W        W 5967   4.900  43.513   3.254
44679W        W 5968  30.985  22.648  12.346
44680W        W 5969  36.095  14.234  12.871
44681W        W 5970  32.094   9.741   0.461
44682W        W 5971  35.365  23.038   4.805
44683W        W 5972   9.645  36.002   5.766
44684W        W 5973  25.079  28.944  10.479
44685W        W 5974  23.206  20.705   1.298
44686W        W 5975  32.105  33.394   4.703
44687W        W 5976  29.510  34.422  11.975
44688W        W 5977  28.039  25.490   2.799
44689W        W 5978  21.039  37.499   3.290
44690W        W 5979  17.642  33.534  12.019
44691W        W 5980  23.996  35.420  10.929
44692W        W 5981  44.772  28.039  14.852
44693W        W 5982  14.302  34.448   0.373
44694W        W 5983  33.587   4.760   4.712
44695W        W 5984   4.243  33.513   2.759
44696W        W 5985   0.780  30.033   3.719
44697W        W 5986  43.367  40.343   0.259
44698W        W 5987   2.952  40.452   3.749
44699W        W 5988  20.225  19.712   1.214
44700W        W 5989  29.576  41.413   3.779
44701W        W 5990  27.462  25.603  14.773
44702W        W 5991  41.007  15.697   1.912
44703W        W 5992   1.817  22.081   1.262
44704W        W 5993  32.935  25.496  10.496
44705W        W 5994  38.539  43.500   1.753
44706W        W 5995  35.878  19.222   2.199
44707W        W 5996  35.067  34.424   0.834
44708W        W 5997   1.426  22.582   3.286
44709W        W 5998  31.906  18.609  12.981
44710W        W 5999  25.541  42.878  14.494
44711W        W 6000  11.138   6.196  14.503
44712W        W 6001  23.102  38.064  13.331
44713W        W 6002  26.079  25.670  14.814
44714W        W 6003  14.152  27.946   1.324
44715W        W 6004  28.492  41.464  12.436
44716W        W 6005   1.248  10.656  12.480
44717W        W 6006  18.758   8.180   4.255
44718W        W 6007  11.823  39.405  12.400
44719W        W 6008  20.744  17.213   3.802
44720W        W 6009  32.009  13.172  14.911
44721W        W 6010  37.938  13.173   1.927
44722W        W 6011  11.789  33.598  13.802
44723W        W 6012  40.331  41.355  12.863
44724W        W 6013  40.838  33.613   4.692
44725W        W 6014  30.086   3.301   0.422
44726W        W 6015  26.095  11.214   4.299
44727W        W 6016  38.856   3.954  11.495
44728W        W 6017  44.366  11.273  11.049
44729W        W 6018  38.972   7.854   3.192
44730W        W 6019  26.570  30.057  14.327
44731W        W 6020  21.067  26.468   1.724
44732W        W 6021  35.969  38.969   1.360
44733W        W 6022   5.314   6.734   4.207
44734W        W 6023  18.636  12.692   0.468
44735W        W 6024   1.792  35.366  13.414
44736W        W 6025   3.863   5.207  10.936
44737W        W 6026  37.943   9.352  10.484
44738W        W 6027  33.891  39.861   4.207
44739W        W 6028  22.139  34.996  11.887
44740W        W 6029  18.127  37.481  14.369
44741W        W 6030  14.288  41.870  10.554
44742W        W 6031  28.678  44.369   1.721
44743W        W 6032  17.649  42.826  14.515
44744W        W 6033  20.250   0.318   3.726
44745W        W 6034  26.979   2.743  11.020
44746W        W 6035   8.291  37.034   0.427
44747W        W 6036  22.722   3.878  10.598
44748W        W 6037  38.959   3.290   1.853
44749W        W 6038   6.804   5.832  11.403
44750W        W 6039   7.346  26.655  11.529
44751W        W 6040   5.356  33.619   9.970
44752W        W 6041  34.474  17.151  12.428
44753W        W 6042   9.356  12.628  11.385
44754W        W 6043   5.802  16.654  11.446
44755W        W 6044  18.581  37.554   2.405
44756W        W 6045  17.662  20.209  12.825
44757W        W 6046  43.966  17.185  13.519
44758W        W 6047   6.767  20.646   3.163
44759W        W 6048  24.114  23.504   2.199
44760W        W 6049  34.438  43.493   1.728
44761W        W 6050   3.851  14.129  12.538
44762W        W 6051   2.891   1.795   0.774
44763W        W 6052  37.865  16.670  14.325
44764W        W 6053  23.609  19.224   0.301
44765W        W 6054  24.602  35.593   3.377
44766W        W 6055  29.601  34.944   2.296
44767W        W 6056  28.116  33.400  14.837
44768W        W 6057  17.138  34.868   0.259
44769W        W 6058  43.866  14.258  12.907
44770W        W 6059   4.848  31.626   5.118
44771W        W 6060  32.916  21.086  10.529
44772W        W 6061  30.908  38.480  12.425
44773W        W 6062  42.452  15.135  14.903
44774W        W 6063  40.302   4.940  13.902
44775W        W 6064  40.931  39.560   3.849
44776W        W 6065  37.990   1.418   2.822
44777W        W 6066  18.170  36.959   5.718
44778W        W 6067   1.943  42.297   2.361
44779W        W 6068  11.321   8.748   1.326
44780W        W 6069  42.324  36.925   4.256
44781W        W 6070  43.834   9.284  14.765
44782W        W 6071   7.212  43.889  14.973
44783W        W 6072  43.805  40.974   3.180
44784W        W 6073  17.190  31.637   1.346
44785W        W 6074  11.264  28.529   3.790
44786W        W 6075  39.330  12.153   4.631
44787W        W 6076   3.944  32.628   3.355
44788W        W 6077  10.263  31.424  12.057
44789W        W 6078  36.939   8.896   3.853
44790W        W 6079  22.092  21.171  14.469
44791W        W 6080  43.796  34.579   0.396
44792W        W 6081  41.460   4.441  11.374
44793W        W 6082  14.136  37.430   2.782
44794W        W 6083   8.209  14.764  13.050
44795W        W 6084  43.977  42.919   2.398
44796W        W 6085  25.214   6.893   4.774
44797W        W 6086  23.212  43.922  12.841
44798W        W 6087  16.720   3.798   3.366
44799W        W 6088  41.830  32.978  12.418
44800W        W 6089  26.625  32.610  14.895
44801W        W 6090  20.112   7.701   3.207
44802W        W 6091  19.235  38.836   2.688
44803W        W 6092  39.862  39.344   1.726
44804W        W 6093  26.477  43.336  13.364
44805W        W 6094   3.922  33.013   1.725
44806W        W 6095  42.315  42.304   3.695
44807W        W 6096   0.426  15.679   1.231
44808W        W 6097  28.952   6.374   4.220
44809W        W 6098  34.009  34.958  11.558
44810W        W 6099   9.286  29.615  11.402
44811W        W 6100  29.063   1.820  10.641
44812W        W 6101  30.607  39.430  13.972
44813W        W 6102   3.339  26.605   0.930
44814W        W 6103  35.100  27.562  13.532
44815W        W 6104  22.163  17.281  11.910
44816W        W 6105  36.890  28.641   3.859
44817W        W 6106  10.706  10.301  10.517
44818W        W 6107  28.039  39.052  12.893
44819W        W 6108  26.962   1.977  10.971
44820W        W 6109  30.496  29.432  12.852
44821W        W 6110  15.090  40.933   2.791
44822W        W 6111   8.696  29.436   2.703
44823W        W 6112  34.902  40.970  13.401
44824W        W 6113  34.104  41.931   1.390
44825W        W 6114  37.020   3.312  14.437
44826W        W 6115  39.985  41.307  13.049
44827W        W 6116   4.732  14.729   4.688
44828W        W 6117  38.563  20.620   2.241
44829W        W 6118  30.036   6.245  14.406
44830W        W 6119   2.246  20.137   1.744
44831W        W 6120  15.189  39.994   0.428
44832W        W 6121   2.900  36.089  10.460
44833W        W 6122  29.541  12.339   1.914
44834W        W 6123  12.280  19.674   0.941
44835W        W 6124  37.529  27.130   1.924
44836W        W 6125  42.910  17.735   0.843
44837W        W 6126   3.861  28.475   3.658
44838W        W 6127  11.817  40.928  11.606
44839W        W 6128  25.475   8.819   2.336
44840W        W 6129  16.585  25.697   2.673
44841W        W 6130   9.673  42.391  13.964
44842W        W 6131  27.489   4.798  10.608
44843W        W 6132  37.001  23.575   1.344
44844W        W 6133  29.998  12.785  14.959
44845W        W 6134  32.419  27.527   2.843
44846W        W 6135   0.344  41.345   3.691
44847W        W 6136  37.532  38.953   3.251
44848W        W 6137  11.266   4.353  10.112
44849W        W 6138  33.558  25.089   4.201
44850W        W 6139  13.345  28.145   4.258
44851W        W 6140  25.628  32.008   2.355
44852W        W 6141  44.334  27.182  14.451
44853W        W 6142   7.835  41.905  13.519
44854W        W 6143  16.280  14.696   4.727
44855W        W 6144  10.669   7.258  10.429
44856W        W 6145   0.978  29.075   0.909
44857W        W 6146   6.321  11.244   1.225
44858W        W 6147  38.429  16.641  12.839
44859W        W 6148   1.770  12.826   1.341
44860W        W 6149  42.811  28.013   0.438
44861W        W 6150  14.598  31.005  12.929
44862W        W 6151  32.511  28.099   2.824
44863W        W 6152   3.813  31.474   3.296
44864W        W 6153  40.841   0.771  12.349
44865W        W 6154  12.347  16.144   3.720
44866W        W 6155  13.276  44.330  11.585
44867W        W 6156  11.162  11.230  11.491
44868W        W 6157  27.505  14.599   0.426
44869W        W 6158   1.437   0.781   2.770
44870W        W 6159   9.716  44.909   4.318
44871W        W 6160   7.184  32.579  13.523
44872W        W 6161  20.689  15.302  13.499
44873W        W 6162  41.982  14.599   2.848
44874W        W 6163  40.988  43.890   4.351
44875W        W 6164  40.017   5.760   0.444
44876W        W 6165  31.142  35.434  11.986
44877W        W 6166  12.671   3.946  12.477
44878W        W 6167   6.228   3.909  10.970
44879W        W 6168  24.545  39.549   2.265
44880W        W 6169   1.239  41.832   4.734
44881W        W 6170   1.347  44.007  11.916
44882W        W 6171  39.054   3.326   4.278
44883W        W 6172  43.011  13.651   0.317
44884W        W 6173  30.112  29.480  13.858
44885W        W 6174   5.872  15.097  14.385
44886W        W 6175  21.181  21.535  11.584
44887W        W 6176  40.445  40.014   1.880
44888W        W 6177  37.960  15.744   2.317
44889W        W 6178  36.865  30.950   3.791
44890W        W 6179   1.399  28.081   3.243
44891W        W 6180  40.418  39.049   3.296
44892W        W 6181  34.478   9.846   4.685
44893W        W 6182  40.518  17.666  11.125
44894W        W 6183   8.728  23.088  14.367
44895W        W 6184  13.711   6.818   1.885
44896W        W 6185  34.914  26.120  11.461
44897W        W 6186  29.574  37.374   0.245
44898W        W 6187   3.754  33.083   4.188
44899W        W 6188   6.341  42.815   1.388
44900W        W 6189  41.493  18.550  12.959
44901W        W 6190  30.491  30.951  10.520
44902W        W 6191   9.268  17.573  10.413
44903W        W 6192   1.414   8.691   1.251
44904W        W 6193  43.490   0.979   1.853
44905W        W 6194   0.909  20.066   2.246
44906W        W 6195  10.877   6.772  12.019
44907W        W 6196   2.284  17.131   4.266
44908W        W 6197   5.829  22.603  14.487
44909W        W 6198  44.999   6.881  11.110
44910W        W 6199  11.362  25.588   0.879
44911W        W 6200  36.938  22.079   2.416
44912W        W 6201  30.118   6.804  14.871
44913W        W 6202  16.633  36.379   0.887
44914W        W 6203  11.695  33.591  13.480
44915W        W 6204  32.573  30.616   4.701
44916W        W 6205  10.153  44.375   3.766
44917W        W 6206  11.149  40.385  14.310
44918W        W 6207  33.503  10.305  10.904
44919W        W 6208  43.375   4.765  12.878
44920W        W 6209  19.124  17.644  13.790
44921W        W 6210  38.520  25.602  14.365
44922W        W 6211  17.720  31.542   4.731
44923W        W 6212   4.428  36.391  12.496
44924W        W 6213  37.455   9.270   1.861
44925W        W 6214  30.995  17.634   0.761
44926W        W 6215  40.994  17.254  11.123
44927W        W 6216  25.480  26.112   3.336
44928W        W 6217  39.894  41.304   4.240
44929W        W 6218  25.672   1.731  14.389
44930W        W 6219  44.347  11.682   1.712
44931W        W 6220  25.501  29.471  12.575
44932W        W 6221  11.659  38.915   0.348
44933W        W 6222  36.380  15.754   4.768
44934W        W 6223  11.654  12.819   4.150
44935W        W 6224   0.947  39.371  14.390
44936W        W 6225  21.074  40.480  12.493
44937W        W 6226  10.788   8.178  12.472
44938W        W 6227   3.807  23.592   5.084
44939W        W 6228  24.099   7.305   3.714
44940W        W 6229  23.147  11.631  11.584
44941W        W 6230  19.757  41.868   1.840
44942W        W 6231  36.074  43.416   3.258
44943W        W 6232  40.393  18.546   5.317
44944W        W 6233   1.274  35.014   0.924
44945W        W 6234  36.894   0.328   3.733
44946W        W 6235  31.106  40.922  14.321
44947W        W 6236  11.336   1.946  10.155
44948W        W 6237  39.842  27.007  13.387
44949W        W 6238  28.443  43.861  12.032
44950W        W 6239  23.678  20.132  13.429
44951W        W 6240   4.702  33.429  10.614
44952W        W 6241  42.972  38.388   2.893
44953W        W 6242  40.051  43.454  12.894
44954W        W 6243  25.666   1.442   1.441
44955W        W 6244  37.925  34.595   4.613
44956W        W 6245  25.565  36.022  10.979
44957W        W 6246   5.296  17.589   4.782
44958W        W 6247  18.248  36.004  12.513
44959W        W 6248   4.407  15.656  12.868
44960W        W 6249  37.453  43.390   2.885
44961W        W 6250  38.559  28.955  13.048
44962W        W 6251  32.902  19.649   2.311
44963W        W 6252   2.301  18.552   4.639
44964W        W 6253  21.183  19.688  10.418
44965W        W 6254  32.586  29.135  14.789
44966W        W 6255  28.012  16.693   4.739
44967W        W 6256  32.503  16.099  13.057
44968W        W 6257  20.710  43.413  13.482
44969W        W 6258  24.604   8.732   0.854
44970W        W 6259   7.672  39.906   0.827
44971W        W 6260  38.076   6.341  12.872
44972W        W 6261   0.394  39.445  14.281
44973W        W 6262  41.318  33.118   4.165
44974W        W 6263  10.702  44.795   1.904
44975W        W 6264  36.489  11.842  12.945
44976W        W 6265  35.454  24.619  12.088
44977W        W 6266  32.966  29.541  14.966
44978W        W 6267  33.563  22.122   1.914
44979W        W 6268  35.918  13.604  10.496
44980W        W 6269   9.328  18.711  14.786
44981W        W 6270  37.066  28.593  13.812
44982W        W 6271  13.762  17.711   4.116
44983W        W 6272  27.187  17.302   1.281
44984W        W 6273  15.775  41.007  10.947
44985W        W 6274   7.695  23.522  14.455
44986W        W 6275   4.254   7.822  14.988
44987W        W 6276  37.451  14.136  14.355
44988W        W 6277  21.236  28.071  12.874
44989W        W 6278   0.955  17.699   2.797
44990W        W 6279  15.231  17.250   1.752
44991W        W 6280  40.956  23.070   3.364
44992W        W 6281   1.778  31.093   4.811
44993W        W 6282  13.250  42.325  14.462
44994W        W 6283  41.446  21.671   3.853
44995W        W 6284  27.155  42.942   2.272
44996W        W 6285  12.665  36.558   3.281
44997W        W 6286  32.969  10.772   4.690
44998W        W 6287  12.714  10.851  10.553
44999W        W 6288  28.542   4.715   3.845
45000W        W 6289  17.297  41.523   5.084
45001W        W 6290  14.287  32.393  13.317
45002W        W 6291  11.692   3.745   2.355
45003W        W 6292  11.189  33.457   3.183
45004W        W 6293   5.277  20.593   2.662
45005W        W 6294  40.047  17.114  11.583
45006W        W 6295  22.589  34.957  13.358
45007W        W 6296  37.041  36.370  10.627
45008W        W 6297  43.484  28.106   1.446
45009W        W 6298  15.164  20.196  10.590
45010W        W 6299  11.641  11.306   0.415
45011W        W 6300   0.268  26.515  10.921
45012W        W 6301  10.194  11.703   0.429
45013W        W 6302  44.801   0.479  10.496
45014W        W 6303   9.188  10.303  10.473
45015W        W 6304   1.284  22.031   0.819
45016W        W 6305  28.069  15.726   0.278
45017W        W 6306   7.287  41.822  13.909
45018W        W 6307   9.775  34.422  11.534
45019W        W 6308  17.286  33.911   1.267
45020W        W 6309  30.077  24.050  11.089
45021W        W 6310   8.754  21.068  14.775
45022W        W 6311   0.314   6.210  11.111
45023W        W 6312   0.821  36.055  14.858
45024W        W 6313   8.675   6.245  11.088
45025W        W 6314  20.034  12.762  14.405
45026W        W 6315  44.809  19.676  14.935
45027W        W 6316  27.102  35.573   2.179
45028W        W 6317  37.544  12.340   1.925
45029W        W 6318  31.001  17.606   1.222
45030W        W 6319   3.300  39.498   1.423
45031W        W 6320  44.956  17.794   2.778
45032W        W 6321   6.192   9.288   2.842
45033W        W 6322  15.631   4.698  11.933
45034W        W 6323  15.672  24.658   2.686
45035W        W 6324  22.082  28.105   3.218
45036W        W 6325   5.779  30.498  14.998
45037W        W 6326  25.995   3.427  14.939
45038W        W 6327  23.056  14.203   0.315
45039W        W 6328  25.067  11.699  13.876
45040W        W 6329  30.013  34.531   4.286
45041W        W 6330  11.325  41.463  14.886
45042W        W 6331  34.416  23.214   4.255
45043W        W 6332  14.196  22.075  10.131
45044W        W 6333   1.785   1.782   3.723
45045W        W 6334  14.788   8.337   0.849
45046W        W 6335  10.675   8.656  11.399
45047W        W 6336   7.709  18.791   1.860
45048W        W 6337  22.134  32.411  14.993
45049W        W 6338  44.882  39.414   0.747
45050W        W 6339   8.837  29.015   2.793
45051W        W 6340  19.115   1.841   4.800
45052W        W 6341  44.813  24.697  14.367
45053W        W 6342  16.149  26.615   3.664
45054W        W 6343  13.214  15.811  13.966
45055W        W 6344   1.912  36.496   1.869
45056W        W 6345  44.303  39.445   4.720
45057W        W 6346  10.637   0.837  11.545
45058W        W 6347  15.796  39.037  14.832
45059W        W 6348  23.524   7.217   4.157
45060W        W 6349  29.027  36.496  12.079
45061W        W 6350  30.161   8.228   9.629
45062W        W 6351  11.373  18.203   3.702
45063W        W 6352  30.920  38.457  10.977
45064W        W 6353  39.516  22.120  10.640
45065W        W 6354  21.624  36.493  11.474
45066W        W 6355  33.594  33.506   9.987
45067W        W 6356  16.795  13.282  12.081
45068W        W 6357  26.175  33.484  14.385
45069W        W 6358  10.216  31.513  14.025
45070W        W 6359   4.863  15.819  13.061
45071W        W 6360  25.601  33.882  14.372
45072W        W 6361  35.072  15.300   3.163
45073W        W 6362  28.543  38.049   1.701
45074W        W 6363  41.846  28.127   1.365
45075W        W 6364  30.615  38.431   2.289
45076W        W 6365   3.355  37.379  11.557
45077W        W 6366   2.346  16.196  12.497
45078W        W 6367  30.000  14.174  12.945
45079W        W 6368   5.819   0.953   0.284
45080W        W 6369  33.027  39.873  11.110
45081W        W 6370  14.783  17.707   3.839
45082W        W 6371   1.854   1.922   4.740
45083W        W 6372   0.288  34.913   3.224
45084W        W 6373  30.021  23.008   4.244
45085W        W 6374  25.979  36.081  14.806
45086W        W 6375  40.376  31.023  13.931
45087W        W 6376  17.093  20.079  12.543
45088W        W 6377  23.628  27.072   3.789
45089W        W 6378  22.545  17.663   4.313
45090W        W 6379  28.662  43.504  10.888
45091W        W 6380   3.250  10.302  10.126
45092W        W 6381   0.451  40.922  10.957
45093W        W 6382  38.355  31.617  14.295
45094W        W 6383   3.806   1.782  13.914
45095W        W 6384  28.482   6.909  10.976
45096W        W 6385   1.367   9.275   4.600
45097W        W 6386   9.238  39.329  11.005
45098W        W 6387  36.455  24.190   4.632
45099W        W 6388   4.797   0.406   3.810
45100W        W 6389  41.408  40.403   3.766
45101W        W 6390   9.870   8.183  11.028
45102W        W 6391   2.849  27.008  12.484
45103W        W 6392  26.146  41.879   1.894
45104W        W 6393  40.401  41.905   2.669
45105W        W 6394  25.702  32.634   3.765
45106W        W 6395  35.436  42.370   0.950
45107W        W 6396   3.944  13.637   2.358
45108W        W 6397  28.599   6.291   0.859
45109W        W 6398  11.654  30.557  14.359
45110W        W 6399  37.842  39.330  11.397
45111W        W 6400  10.165  27.064  13.519
45112W        W 6401  31.953  36.404   4.676
45113W        W 6402  14.143  23.570   2.385
45114W        W 6403  25.190  40.843  10.931
45115W        W 6404   4.214  28.107  14.920
45116W        W 6405  32.106  33.951  10.946
45117W        W 6406   7.792  40.994   4.116
45118W        W 6407   9.677   7.345  13.505
45119W        W 6408   8.895  37.004   3.862
45120W        W 6409  20.545  36.037   4.297
45121W        W 6410  23.661  30.526  14.894
45122W        W 6411   7.677  16.804   1.729
45123W        W 6412  13.124  39.042  10.451
45124W        W 6413  27.132  41.893   0.403
45125W        W 6414  39.553  33.109   1.373
45126W        W 6415  30.015  20.172   1.835
45127W        W 6416  15.295  29.115   0.814
45128W        W 6417   1.436  35.415  13.867
45129W        W 6418  26.534  23.128   0.249
45130W        W 6419  30.450  17.278   3.651
45131W        W 6420   2.228  26.568  10.409
45132W        W 6421   3.791  38.968  14.344
45133W        W 6422  42.419  21.524   2.732
45134W        W 6423  32.566   5.240  13.859
45135W        W 6424  16.257  24.008  14.880
45136W        W 6425  37.577  30.022  14.428
45137W        W 6426  11.830  22.073   4.691
45138W        W 6427  40.544  18.195  14.820
45139W        W 6428   7.389  29.918   1.439
45140W        W 6429   2.357   1.413  12.505
45141W        W 6430  24.131  15.187   0.866
45142W        W 6431  26.196  35.410   3.245
45143W        W 6432  44.259  31.899   3.835
45144W        W 6433  37.434   4.856   2.674
45145W        W 6434  37.924  40.431  13.794
45146W        W 6435  16.249  37.582  14.477
45147W        W 6436  22.567  13.781   0.836
45148W        W 6437  25.586  43.845  13.058
45149W        W 6438  40.962  18.710  13.313
45150W        W 6439  16.099  29.133  10.638
45151W        W 6440  21.511  20.029   4.138
45152W        W 6441  41.922   9.653  13.515
45153W        W 6442  14.237  41.439  12.881
45154W        W 6443   2.245   4.340  14.319
45155W        W 6444  31.475  27.450  13.987
45156W        W 6445  13.112  26.083  10.577
45157W        W 6446  32.564  31.933   0.749
45158W        W 6447   8.792   5.761   2.292
45159W        W 6448  13.797  43.964  12.850
45160W        W 6449  10.236  18.782  12.860
45161W        W 6450  36.048  40.443   4.223
45162W        W 6451  23.127  30.630  13.890
45163W        W 6452  36.576  44.458   4.127
45164W        W 6453  27.471  24.021  13.511
45165W        W 6454   9.223  11.714  12.435
45166W        W 6455  24.621  25.579  12.940
45167W        W 6456  15.661  23.143   1.361
45168W        W 6457  34.113  18.629   0.440
45169W        W 6458  30.506  41.319   3.275
45170W        W 6459  23.100  29.511   3.279
45171W        W 6460   3.232  11.671  14.327
45172W        W 6461   6.216   6.774   2.323
45173W        W 6462  35.372  29.999  12.476
45174W        W 6463  10.657  43.936   1.383
45175W        W 6464   4.793   9.754   5.305
45176W        W 6465  38.423  29.018   1.868
45177W        W 6466  25.523  25.085  12.379
45178W        W 6467  26.001  40.863   3.774
45179W        W 6468  26.976  19.150   4.794
45180W        W 6469  40.798  27.098  13.916
45181W        W 6470  14.111   2.791   1.855
45182W        W 6471  22.186  30.923  12.038
45183W        W 6472  36.853   8.669   3.268
45184W        W 6473  15.315  35.556   0.482
45185W        W 6474  34.944   3.431  10.954
45186W        W 6475  11.294  20.238  10.507
45187W        W 6476  29.940  13.632   2.290
45188W        W 6477  37.398  35.099  14.779
45189W        W 6478  13.305  21.053  13.802
45190W        W 6479  19.067  37.023  13.310
45191W        W 6480   5.371  12.357   1.230
45192W        W 6481   3.888  12.318   2.771
45193W        W 6482  15.236  25.174  10.090
45194W        W 6483  12.814  15.609   5.203
45195W        W 6484  39.051  17.612  12.563
45196W        W 6485   3.342   5.386   4.213
45197W        W 6486   9.325   9.882   0.875
45198W        W 6487  42.524   7.361   0.398
45199W        W 6488  20.665   4.370   3.328
45200W        W 6489   4.389  37.401  13.431
45201W        W 6490  33.951  33.945  10.889
45202W        W 6491   0.486  23.117   3.734
45203W        W 6492  15.605  35.983  13.041
45204W        W 6493  25.566  28.617   3.344
45205W        W 6494  29.617  28.651  13.543
45206W        W 6495  38.004  29.150  12.041
45207W        W 6496   8.259   3.388  14.908
45208W        W 6497  36.061  41.004   3.191
45209W        W 6498  12.644  36.975  12.406
45210W        W 6499   4.320  10.371  10.418
45211W        W 6500  30.616  15.672  10.502
45212W        W 6501  37.927  43.501   3.336
45213W        W 6502   9.344   3.878   1.797
45214W        W 6503  30.521  16.206   3.379
45215W        W 6504  31.593  37.401  12.855
45216W        W 6505  30.452   7.774  10.432
45217W        W 6506  37.336   6.269  12.916
45218W        W 6507  35.496   2.246   4.147
45219W        W 6508  30.648  22.617  12.538
45220W        W 6509  14.119   6.388  11.434
45221W        W 6510   1.242  11.320   9.454
45222W        W 6511  20.231  28.186   2.326
45223W        W 6512  36.014  29.646  10.987
45224W        W 6513  41.789  13.795  10.992
45225W        W 6514   5.377   0.833  10.893
45226W        W 6515  21.224   0.862  10.531
45227W        W 6516   0.402   3.935   1.819
45228W        W 6517  32.547  13.309  11.866
45229W        W 6518  37.516  40.440  14.800
45230W        W 6519  38.389  18.644   0.281
45231W        W 6520  30.549  12.118   3.795
45232W        W 6521  10.283  22.598  12.504
45233W        W 6522  23.128  40.390  11.930
45234W        W 6523  11.700  18.260   1.358
45235W        W 6524   4.282  21.188   4.691
45236W        W 6525  21.523  26.118  14.840
45237W        W 6526  15.267  10.759   1.878
45238W        W 6527  35.403  25.131  12.525
45239W        W 6528  35.521  11.134   3.348
45240W        W 6529   6.706   5.403  14.831
45241W        W 6530  15.155   7.267   1.739
45242W        W 6531   4.741  26.619  13.812
45243W        W 6532   0.819   0.479   3.807
45244W        W 6533  24.175  40.006  14.418
45245W        W 6534  27.047   6.699   1.261
45246W        W 6535  30.907  13.150   4.772
45247W        W 6536  28.642  42.386   4.231
45248W        W 6537  32.100  37.442  11.544
45249W        W 6538  19.758   9.194  11.955
45250W        W 6539  22.033  27.532   2.272
45251W        W 6540  31.082  28.567   4.325
45252W        W 6541  34.933  36.414  14.024
45253W        W 6542  11.144  30.414  14.954
45254W        W 6543  22.040  39.378  12.836
45255W        W 6544  21.515  23.012  14.832
45256W        W 6545  41.800  42.368   2.851
45257W        W 6546   0.322  31.065   0.428
45258W        W 6547  22.064  23.211   0.286
45259W        W 6548  20.616  41.972   4.210
45260W        W 6549  42.387   8.347   1.807
45261W        W 6550  28.663  35.373  14.965
45262W        W 6551  25.497  42.357  10.506
45263W        W 6552  21.086  13.230  12.907
45264W        W 6553  33.057  12.817  13.865
45265W        W 6554   9.675  15.146  14.394
45266W        W 6555  38.846  34.971  12.360
45267W        W 6556  18.154  14.803   0.243
45268W        W 6557  39.945  33.622  14.889
45269W        W 6558   9.664  38.524  13.334
45270W        W 6559  33.553  19.744   0.466
45271W        W 6560  21.024   6.709   2.374
45272W        W 6561   0.379   3.262  10.599
45273W        W 6562  30.912   2.936  12.473
45274W        W 6563  24.015  25.709   0.884
45275W        W 6564  28.469  15.219  13.491
45276W        W 6565  13.311   8.661   2.402
45277W        W 6566  37.984  35.050  14.890
45278W        W 6567  12.805  27.137   0.850
45279W        W 6568  32.021   9.151   3.382
45280W        W 6569  36.364  25.962  14.310
45281W        W 6570   4.834  31.961  13.346
45282W        W 6571   8.712  43.789  11.477
45283W        W 6572  13.794  28.118  12.088
45284W        W 6573  25.482  26.564  11.029
45285W        W 6574  38.969  32.114  14.334
45286W        W 6575  31.461  20.694  11.560
45287W        W 6576  37.519  18.251  14.334
45288W        W 6577  14.227  33.973  13.404
45289W        W 6578  28.444  44.498  13.336
45290W        W 6579  23.145   1.237   0.854
45291W        W 6580   2.338  34.583   3.783
45292W        W 6581  25.093   9.667   2.858
45293W        W 6582  12.335  27.015  11.440
45294W        W 6583   1.253  32.026  12.563
45295W        W 6584   8.306  13.714  10.889
45296W        W 6585  34.453  38.047   4.294
45297W        W 6586  33.040   5.373   1.374
45298W        W 6587  36.428  43.784   2.210
45299W        W 6588  43.485  35.025   1.243
45300W        W 6589  38.537   4.871  11.120
45301W        W 6590  19.063   3.903  13.966
45302W        W 6591  12.228  29.577  10.444
45303W        W 6592  23.640   8.331   3.336
45304W        W 6593  19.252   7.697  12.915
45305W        W 6594  37.887  15.100   9.547
45306W        W 6595  24.714  17.683   1.717
45307W        W 6596  18.549  16.123   2.389
45308W        W 6597  32.939   5.747   5.176
45309W        W 6598  14.234   1.272   1.216
45310W        W 6599   4.911  19.248   1.720
45311W        W 6600  35.566  18.253  12.888
45312W        W 6601  35.374  36.557   0.283
45313W        W 6602  19.667  27.469  11.987
45314W        W 6603   9.843  35.012  11.514
45315W        W 6604  16.635   9.855   1.875
45316W        W 6605  39.059  30.001   1.699
45317W        W 6606  13.649   5.878   1.855
45318W        W 6607   3.808  13.175   3.358
45319W        W 6608  29.167  38.835  13.897
45320W        W 6609  26.491  12.667   0.477
45321W        W 6610   0.410  41.849  12.857
45322W        W 6611   3.939   2.817  12.955
45323W        W 6612  39.906  28.550   4.130
45324W        W 6613  32.590  41.483  10.986
45325W        W 6614  17.151  28.010  10.069
45326W        W 6615  19.616  37.979   4.710
45327W        W 6616   1.905  14.616  14.419
45328W        W 6617  35.888  27.080  10.535
45329W        W 6618  34.046  16.195   2.715
45330W        W 6619  29.633   9.785  10.509
45331W        W 6620  22.160  26.020  10.614
45332W        W 6621  30.577   3.346  13.534
45333W        W 6622  24.156  37.839  11.902
45334W        W 6623  12.788  24.645  14.484
45335W        W 6624   5.317  16.109  14.790
45336W        W 6625  42.361   7.815  14.469
45337W        W 6626  14.668  19.124   3.774
45338W        W 6627   5.412   3.855   4.213
45339W        W 6628  10.166  22.128   2.801
45340W        W 6629  34.084  16.283   4.666
45341W        W 6630  13.328  21.593   5.709
45342W        W 6631   8.801  15.587   2.275
45343W        W 6632  34.503  17.257  11.984
45344W        W 6633  27.071   6.794   5.097
45345W        W 6634  23.229  37.446   0.898
45346W        W 6635  34.457   0.954  13.495
45347W        W 6636  13.299  14.164  12.389
45348W        W 6637  17.062  16.221  12.473
45349W        W 6638  14.122  22.746  13.056
45350W        W 6639  15.116  33.093  11.025
45351W        W 6640  44.763  29.962   0.882
45352W        W 6641  36.965  41.312  12.388
45353W        W 6642  32.085   6.812  14.501
45354W        W 6643  31.515   0.416  13.032
45355W        W 6644  36.079  12.653  11.908
45356W        W 6645  41.927  31.932   5.161
45357W        W 6646  15.578  28.131  14.864
45358W        W 6647  36.464   3.224   1.253
45359W        W 6648  37.459  21.215   2.326
45360W        W 6649   4.938   2.265   4.143
45361W        W 6650  22.575  23.542  11.064
45362W        W 6651  38.550  27.978  12.927
45363W        W 6652  11.257  27.103  14.456
45364W        W 6653  20.107  19.703   2.887
45365W        W 6654  44.925  43.376  11.057
45366W        W 6655  33.932  36.932  12.017
45367W        W 6656  18.696  40.978   1.291
45368W        W 6657   4.286  44.778   0.251
45369W        W 6658  21.663  10.322  14.450
45370W        W 6659  14.335  32.940  11.899
45371W        W 6660  20.547  20.654  13.970
45372W        W 6661  44.460  33.572   0.349
45373W        W 6662  32.077  27.029  11.955
45374W        W 6663  33.449  29.919   3.220
45375W        W 6664  28.164  29.630   4.625
45376W        W 6665  36.945   5.833   4.675
45377W        W 6666   3.748   8.722  11.027
45378W        W 6667  28.099   2.444   1.781
45379W        W 6668  28.525  17.115  11.489
45380W        W 6669   8.396  18.064   3.632
45381W        W 6670  15.117  39.948   3.170
45382W        W 6671  37.384  26.542  12.556
45383W        W 6672  12.705   5.724  13.308
45384W        W 6673  17.608   7.222  11.552
45385W        W 6674   2.831  14.146   1.262
45386W        W 6675  39.053  35.375  14.005
45387W        W 6676  23.613  13.816  13.991
45388W        W 6677  27.070  15.258   4.627
45389W        W 6678  27.682  24.188  12.444
45390W        W 6679  23.004  19.588  14.387
45391W        W 6680  37.418  28.443   1.243
45392W        W 6681  18.691   3.410   1.319
45393W        W 6682  16.316  23.139  12.870
45394W        W 6683  43.455  17.653  14.841
45395W        W 6684  43.951  42.421   0.782
45396W        W 6685  34.092   5.427  11.999
45397W        W 6686  43.314  31.102   2.711
45398W        W 6687  28.150  31.023  14.985
45399W        W 6688  12.296   6.689  12.934
45400W        W 6689  44.470  34.589  14.488
45401W        W 6690   5.746   5.917   4.164
45402W        W 6691  41.426  16.250   4.181
45403W        W 6692  37.924   2.433  14.431
45404W        W 6693  20.589  13.662  12.520
45405W        W 6694  11.347  37.060  13.541
45406W        W 6695   7.709  27.142  10.962
45407W        W 6696  20.138  16.297   4.628
45408W        W 6697  14.218   6.736   0.251
45409W        W 6698  33.549  29.434  14.292
45410W        W 6699  20.060  11.350  12.979
45411W        W 6700   1.842   0.397   2.213
45412W        W 6701  39.439  15.167  14.779
45413W        W 6702  22.143   6.819   0.277
45414W        W 6703  33.973  18.073  11.513
45415W        W 6704  31.500   3.907  14.008
45416W        W 6705   1.429   8.768   0.804
45417W        W 6706  31.899  42.792   0.967
45418W        W 6707  38.448  28.664  13.485
45419W        W 6708  35.971  13.137  14.784
45420W        W 6709  21.083  38.352  11.910
45421W        W 6710  28.577  32.495   4.327
45422W        W 6711  12.754  40.518   4.834
45423W        W 6712  18.595  26.519  11.488
45424W        W 6713   1.767  29.631   4.256
45425W        W 6714   6.782  10.266  10.531
45426W        W 6715  10.248  42.374  14.382
45427W        W 6716   7.823  24.545  13.449
45428W        W 6717  21.094   7.235   3.180
45429W        W 6718   2.777  35.108  13.360
45430W        W 6719  12.167  37.896   1.728
45431W        W 6720   6.268  33.920  12.559
45432W        W 6721  19.142   6.899  10.518
45433W        W 6722  11.332   0.402  14.496
45434W        W 6723   6.409  44.886   1.425
45435W        W 6724  34.956  30.492   2.808
45436W        W 6725  39.942   2.362   0.318
45437W        W 6726   0.808  11.662  13.898
45438W        W 6727  28.598  22.094   2.243
45439W        W 6728   3.287  34.528   3.766
45440W        W 6729   9.205  32.113   3.656
45441W        W 6730  36.067   1.802  14.791
45442W        W 6731  44.998  14.771   1.853
45443W        W 6732  14.288  16.283  13.476
45444W        W 6733  31.441  25.677   4.641
45445W        W 6734  30.589  30.518   4.175
45446W        W 6735  32.503  21.647  11.013
45447W        W 6736  21.078  12.352   4.139
45448W        W 6737  35.559   1.334   4.838
45449W        W 6738  35.927   0.842   4.175
45450W        W 6739  29.165   0.934   2.257
45451W        W 6740  32.421  38.007  12.034
45452W        W 6741  16.224   2.925  12.564
45453W        W 6742  15.231  30.089   0.955
45454W        W 6743  39.430  35.024  13.006
45455W        W 6744  31.511  10.196   1.344
45456W        W 6745  30.490  19.576   4.223
45457W        W 6746  11.816  42.321  14.455
45458W        W 6747  21.138   8.845  12.561
45459W        W 6748   8.208   7.832   4.171
45460W        W 6749   1.896   7.308   0.855
45461W        W 6750  18.546   4.232   0.791
45462W        W 6751  17.129   6.717   4.155
45463W        W 6752  12.333  31.538  11.566
45464W        W 6753  32.449  32.555  12.870
45465W        W 6754  24.223   5.407  13.970
45466W        W 6755  13.641  33.956  12.428
45467W        W 6756  36.490  33.458  12.021
45468W        W 6757   2.234  20.125  11.484
45469W        W 6758  30.965  33.948  13.433
45470W        W 6759  10.793  13.687   2.185
45471W        W 6760   4.327  39.859   3.203
45472W        W 6761  16.607  36.843   0.432
45473W        W 6762   4.235  35.925  10.641
45474W        W 6763  27.095  43.978  11.888
45475W        W 6764  44.855  10.850  11.008
45476W        W 6765  34.599   8.685  13.404
45477W        W 6766   8.675  26.532  11.015
45478W        W 6767  31.502   2.865  14.513
45479W        W 6768   6.688  33.946   3.846
45480W        W 6769  10.272  23.717  11.410
45481W        W 6770   3.263   8.219   1.701
45482W        W 6771  30.448  22.670   3.340
45483W        W 6772   2.899  36.577  11.102
45484W        W 6773   8.859  37.919   2.662
45485W        W 6774  11.687   4.247   0.937
45486W        W 6775  37.037  20.121  14.371
45487W        W 6776  18.251  20.230   0.743
45488W        W 6777   5.331  29.640   3.787
45489W        W 6778  26.186  38.327  12.468
45490W        W 6779  24.680  35.413  11.606
45491W        W 6780   2.863  41.413   0.945
45492W        W 6781  40.511  26.999   0.392
45493W        W 6782  30.081  27.666   4.604
45494W        W 6783  42.447  10.876   4.246
45495W        W 6784  21.069  36.891   0.381
45496W        W 6785  15.637  33.121  13.007
45497W        W 6786   4.720  36.495   0.397
45498W        W 6787  16.634  14.293   4.620
45499W        W 6788   1.915  10.783  10.421
45500W        W 6789   0.380   7.299   2.678
45501W        W 6790   9.825  26.951  10.155
45502W        W 6791  44.809   9.303   1.231
45503W        W 6792  30.555  10.758  12.054
45504W        W 6793  29.955  25.572   1.866
45505W        W 6794  32.092   0.758   1.436
45506W        W 6795  41.497  25.551  14.808
45507W        W 6796   4.869  38.879   1.756
45508W        W 6797  11.161  16.173  14.799
45509W        W 6798  27.637  40.309   0.787
45510W        W 6799  23.172  22.632   1.381
45511W        W 6800  32.065   2.302   3.819
45512W        W 6801  24.143   5.206   2.267
45513W        W 6802  27.685   4.756   1.389
45514W        W 6803   1.780  39.947   4.627
45515W        W 6804  33.604  43.513   3.721
45516W        W 6805  38.397  32.049   2.888
45517W        W 6806  26.954  19.103  13.829
45518W        W 6807   9.765   1.973   1.801
45519W        W 6808  17.725  11.160   1.288
45520W        W 6809   2.292  34.035   0.889
45521W        W 6810  39.499  18.051   3.249
45522W        W 6811  38.058  38.977   1.212
45523W        W 6812  43.382   0.929  13.888
45524W        W 6813  32.576  39.356   0.818
45525W        W 6814  34.519  24.012   4.721
45526W        W 6815  25.649  29.067  10.971
45527W        W 6816   8.845  14.114   0.437
45528W        W 6817  34.072   4.350  12.368
45529W        W 6818   4.225  25.595   1.849
45530W        W 6819  11.669  14.644   1.875
45531W        W 6820  15.291  31.444   1.433
45532W        W 6821  42.372  42.810   0.911
45533W        W 6822  35.364   9.751  13.379
45534W        W 6823   8.337  44.949   2.740
45535W        W 6824  27.961  35.875  14.470
45536W        W 6825  13.127  19.595  12.568
45537W        W 6826  28.951  16.166  11.103
45538W        W 6827  18.738  13.313   0.243
45539W        W 6828  15.213   9.793   3.658
45540W        W 6829  35.097  44.341  14.807
45541W        W 6830  39.413   6.860  14.026
45542W        W 6831  33.626  23.050   1.417
45543W        W 6832   6.327  31.020  10.519
45544W        W 6833  38.011  42.375  11.094
45545W        W 6834   0.868  24.489  13.046
45546W        W 6835  22.579  15.681   3.835
45547W        W 6836  14.597  36.553   4.834
45548W        W 6837  32.594  15.146   3.731
45549W        W 6838   1.255  11.814   0.798
45550W        W 6839   7.399  27.070   1.748
45551W        W 6840  42.333  30.114  13.384
45552W        W 6841  11.348  29.101   0.463
45553W        W 6842  34.999  41.529  13.026
45554W        W 6843  43.939  32.891  14.971
45555W        W 6844  41.353  41.015   3.772
45556W        W 6845  36.405  41.329   2.248
45557W        W 6846  10.148  29.436   2.185
45558W        W 6847  40.444  30.073  13.815
45559W        W 6848  15.193   9.774   2.753
45560W        W 6849   1.772  31.958  12.343
45561W        W 6850  14.706  36.087   3.703
45562W        W 6851  20.603  10.698  11.526
45563W        W 6852  13.219  35.574  10.424
45564W        W 6853   5.267  36.081   3.647
45565W        W 6854  33.488  38.325   5.111
45566W        W 6855  19.697  43.815  14.428
45567W        W 6856   7.289   6.749   4.147
45568W        W 6857  34.061   3.330   1.715
45569W        W 6858  17.229  42.013  11.102
45570W        W 6859  29.945  12.353   2.750
45571W        W 6860   7.859   3.745  13.528
45572W        W 6861   6.381  35.384   2.297
45573W        W 6862  14.142  27.947  13.511
45574W        W 6863   2.342  15.323  11.477
45575W        W 6864  40.487  35.954  10.079
45576W        W 6865  13.779  10.704  12.078
45577W        W 6866   9.664  19.194   3.703
45578W        W 6867  30.096   5.812  13.976
45579W        W 6868   9.331  34.991  13.000
45580W        W 6869   8.255  21.689   2.235
45581W        W 6870  27.564  31.506   0.755
45582W        W 6871  30.061  25.555  14.981
45583W        W 6872  29.086  40.966   1.717
45584W        W 6873  16.581  42.894   0.275
45585W        W 6874  28.183  17.593  11.026
45586W        W 6875   9.227  14.172  11.490
45587W        W 6876  20.220   4.727   1.350
45588W        W 6877  13.245  31.528  12.413
45589W        W 6878  27.457  26.962  10.415
45590W        W 6879  37.074  20.734  12.446
45591W        W 6880  34.535  11.831   2.902
45592W        W 6881  32.920  15.227   0.964
45593W        W 6882  10.379  17.200   3.193
45594W        W 6883  33.393  30.114   3.659
45595W        W 6884  38.953  12.209  14.980
45596W        W 6885  23.011   0.391  10.612
45597W        W 6886  38.923  19.154   4.223
45598W        W 6887  21.220  41.421   0.384
45599W        W 6888  34.494  25.516   2.707
45600W        W 6889   1.451  32.442   3.265
45601W        W 6890  27.589  30.103  10.496
45602W        W 6891  12.126  38.337  14.942
45603W        W 6892  23.494  26.086  13.876
45604W        W 6893  43.849  20.682   4.220
45605W        W 6894  18.549  18.771   1.265
45606W        W 6895  22.140   7.269   4.600
45607W        W 6896  40.825   5.758  11.997
45608W        W 6897  20.541   8.244  10.931
45609W        W 6898  25.096  37.928   3.333
45610W        W 6899  36.980  40.872   4.729
45611W        W 6900  42.885  30.654   4.656
45612W        W 6901  22.010  44.364   3.376
45613W        W 6902   1.826  39.322   4.299
45614W        W 6903  38.504  14.668   2.234
45615W        W 6904  17.639  35.047   2.711
45616W        W 6905   4.448  41.823   2.811
45617W        W 6906   6.316  28.959   3.686
45618W        W 6907  24.681  25.041   1.889
45619W        W 6908  23.715   0.800  14.444
45620W        W 6909  44.919  34.906   0.381
45621W        W 6910   0.813  29.554  12.454
45622W        W 6911  24.014  27.661  11.904
45623W        W 6912  26.048  27.165   4.637
45624W        W 6913  31.604   3.954   1.714
45625W        W 6914  24.066   3.854  14.430
45626W        W 6915  33.584  40.008  10.128
45627W        W 6916  43.491   6.795   1.732
45628W        W 6917  40.017  20.233   1.739
45629W        W 6918  24.026  19.103   0.786
45630W        W 6919  25.169  36.395   2.834
45631W        W 6920  28.942  38.974   3.722
45632W        W 6921  24.654   9.271   4.807
45633W        W 6922  30.655  25.160  12.416
45634W        W 6923  32.139  36.568   1.300
45635W        W 6924  43.892  16.195  13.848
45636W        W 6925  29.958  33.096  14.479
45637W        W 6926  31.150  12.161   1.424
45638W        W 6927  38.516  22.672  13.484
45639W        W 6928   4.791  29.112   4.348
45640W        W 6929  14.227  10.864   1.416
45641W        W 6930  44.326  43.498   1.433
45642W        W 6931  37.845  43.924  12.865
45643W        W 6932  33.511   5.878  13.480
45644W        W 6933  13.708   3.327  12.405
45645W        W 6934  13.146  13.196  12.564
45646W        W 6935  29.537  44.326   0.824
45647W        W 6936  22.209  42.986   0.820
45648W        W 6937  26.065  18.728  10.446
45649W        W 6938  22.251  27.570   1.707
45650W        W 6939  21.170  34.455   3.302
45651W        W 6940  42.458  13.246   2.285
45652W        W 6941   3.448  44.303  13.426
45653W        W 6942  23.110  36.562   3.232
45654W        W 6943  17.168  11.825  14.928
45655W        W 6944  26.557   6.909  13.509
45656W        W 6945   9.674  44.806  10.509
45657W        W 6946  40.340   4.362  14.860
45658W        W 6947   4.768  43.490  11.379
45659W        W 6948   0.863  12.150  11.881
45660W        W 6949  18.115  42.417   0.859
45661W        W 6950  33.570  18.078   3.385
45662W        W 6951  41.944  35.419  13.791
45663W        W 6952   1.408  39.975  14.312
45664W        W 6953  20.162  31.896  14.414
45665W        W 6954   5.825  38.039  13.334
45666W        W 6955  41.305  23.625   0.258
45667W        W 6956  13.794  26.550   1.365
45668W        W 6957  21.570  32.047  14.478
45669W        W 6958   4.331  15.213   1.223
45670W        W 6959  30.470  12.214  14.000
45671W        W 6960   2.780  12.765   3.629
45672W        W 6961   7.223   7.384  13.843
45673W        W 6962  18.702  32.886  12.965
45674W        W 6963   2.840  27.510  11.028
45675W        W 6964  24.973   5.864  12.827
45676W        W 6965   6.900  30.584   3.303
45677W        W 6966  25.085  21.569  14.801
45678W        W 6967  30.537  22.026   0.404
45679W        W 6968  17.218  28.072  14.839
45680W        W 6969  41.350  36.474   1.911
45681W        W 6970   4.803  26.019  10.597
45682W        W 6971  30.956   4.852  12.853
45683W        W 6972  44.898  22.511   0.356
45684W        W 6973  37.495  19.042   2.772
45685W        W 6974  40.949   0.787   1.859
45686W        W 6975  21.154  11.667  14.889
45687W        W 6976  25.153  39.856  12.045
45688W        W 6977   4.713   3.722  11.466
45689W        W 6978  42.019  33.441  12.075
45690W        W 6979  37.566  41.838   0.866
45691W        W 6980  22.217  14.652   0.269
45692W        W 6981   0.780   5.261  12.874
45693W        W 6982  24.078  29.919  12.403
45694W        W 6983  12.714   4.879  11.986
45695W        W 6984   6.373  15.788   2.781
45696W        W 6985  16.268  22.725   2.898
45697W        W 6986  26.988  37.966  11.876
45698W        W 6987  36.097   6.209   3.846
45699W        W 6988  25.108  26.685   4.598
45700W        W 6989  44.473  28.492   1.718
45701W        W 6990  31.623  10.722   0.928
45702W        W 6991   2.795  16.591   1.789
45703W        W 6992  26.045  18.725   4.245
45704W        W 6993   1.758  40.868   0.748
45705W        W 6994  10.209   7.238   1.717
45706W        W 6995   7.315  34.462   9.467
45707W        W 6996   8.817  10.745  11.397
45708W        W 6997  41.478  38.516   1.879
45709W        W 6998  20.537  36.061  14.896
45710W        W 6999   8.899  20.186  13.799
45711W        W 7000   3.713  35.557  14.824
45712W        W 7001  42.926  36.569  14.874
45713W        W 7002  39.982  10.747   5.130
45714W        W 7003  31.967   1.887  13.432
45715W        W 7004  11.279  43.345  13.963
45716W        W 7005  21.225  33.438  12.085
45717W        W 7006  14.690  27.946  10.927
45718W        W 7007  18.749   0.933   0.812
45719W        W 7008  42.467  15.681   3.796
45720W        W 7009  27.484  26.006  11.577
45721W        W 7010   8.712   4.344  10.111
45722W        W 7011  25.556  11.262   0.281
45723W        W 7012  44.408  44.764   3.684
45724W        W 7013  13.693   4.726  12.440
45725W        W 7014  33.581  42.324  11.930
45726W        W 7015  31.901  34.405  11.979
45727W        W 7016   5.758  32.623   4.831
45728W        W 7017  38.371  16.653  11.977
45729W        W 7018   1.816  14.284  13.421
45730W        W 7019  16.755  29.517  14.894
45731W        W 7020  31.139  18.193   4.149
45732W        W 7021  29.557  44.768   2.664
45733W        W 7022  23.059  13.809   2.738
45734W        W 7023   9.373  41.031   0.814
45735W        W 7024  20.672  14.674   0.362
45736W        W 7025  35.379  39.850   0.795
45737W        W 7026  19.650  26.054  11.934
45738W        W 7027  38.995   5.718   4.823
45739W        W 7028  17.626  16.125  11.983
45740W        W 7029  22.687  16.751  10.526
45741W        W 7030  39.000   7.247   4.344
45742W        W 7031  29.511  29.508   3.804
45743W        W 7032  14.757  26.068   3.371
45744W        W 7033  28.951  25.193  11.128
45745W        W 7034  30.908   6.873   1.328
45746W        W 7035  34.881  19.717  10.056
45747W        W 7036   3.934  16.235   2.260
45748W        W 7037   0.811  12.620   1.340
45749W        W 7038  18.608  14.203   3.198
45750W        W 7039   3.341  16.077   3.707
45751W        W 7040  22.660  37.879  13.512
45752W        W 7041  30.585   9.847  10.053
45753W        W 7042  26.120  39.557  12.580
45754W        W 7043  36.449  15.089   1.913
45755W        W 7044  29.169  34.491  12.069
45756W        W 7045  36.447  28.572   3.794
45757W        W 7046  15.145  14.234  13.320
45758W        W 7047  12.331  28.086  12.093
45759W        W 7048   7.743  14.129  14.354
45760W        W 7049  26.634  11.755   1.743
45761W        W 7050  42.483  39.980   3.765
45762W        W 7051  41.482  20.179   4.799
45763W        W 7052   4.323  25.984   1.220
45764W        W 7053  21.168  12.737   2.749
45765W        W 7054  25.023  20.074   9.956
45766W        W 7055  24.517  35.994   0.730
45767W        W 7056  32.913  43.847  10.458
45768W        W 7057  18.159  41.350   3.656
45769W        W 7058   0.857  10.659   2.181
45770W        W 7059  43.950  13.686  13.471
45771W        W 7060  10.858   3.903  13.868
45772W        W 7061  41.959   9.663   1.375
45773W        W 7062  28.132   5.780  13.525
45774W        W 7063   5.888   4.802  11.380
45775W        W 7064  20.180  44.494  10.483
45776W        W 7065  13.822  36.036  11.034
45777W        W 7066  37.955  17.258   0.416
45778W        W 7067  25.980  18.184   3.326
45779W        W 7068  36.483  25.119  12.424
45780W        W 7069  32.893  12.611  10.935
45781W        W 7070   1.945  27.572  11.395
45782W        W 7071  19.040  10.755  13.410
45783W        W 7072  41.415  31.981   2.893
45784W        W 7073  32.089  26.973   1.273
45785W        W 7074  28.986  17.594   4.665
45786W        W 7075  32.958  14.326  13.034
45787W        W 7076  10.381   6.370   3.656
45788W        W 7077  10.679   7.811  12.535
45789W        W 7078  10.314   4.942  14.307
45790W        W 7079  12.250  38.513   3.180
45791W        W 7080  14.277  32.941  12.497
45792W        W 7081  39.439   2.806  11.575
45793W        W 7082  16.293  29.614  10.504
45794W        W 7083  26.551  16.726   0.813
45795W        W 7084  19.132  12.800   2.831
45796W        W 7085  36.090   7.900  13.064
45797W        W 7086  31.577  28.014   1.341
45798W        W 7087   1.301  29.516  11.855
45799W        W 7088  15.323   2.796   3.242
45800W        W 7089  18.589  29.146   0.898
45801W        W 7090  39.921  24.637  11.111
45802W        W 7091  37.970   5.264   0.753
45803W        W 7092  25.660  44.293  11.058
45804W        W 7093  11.707  25.679  12.358
45805W        W 7094  14.793   8.880   2.898
45806W        W 7095  24.021  29.150   2.737
45807W        W 7096  24.555  21.676  11.958
45808W        W 7097  33.580   3.771  11.967
45809W        W 7098  13.788  20.143   2.289
45810W        W 7099  24.075  24.639   3.681
45811W        W 7100  14.316   0.816   3.351
45812W        W 7101  30.418  26.631  10.406
45813W        W 7102  11.808  31.149   4.724
45814W        W 7103  13.623  21.079   3.751
45815W        W 7104  18.081  35.466   3.712
45816W        W 7105  24.707  15.170   4.729
45817W        W 7106   7.183   6.327   4.608
45818W        W 7107  43.901  14.174   3.778
45819W        W 7108   9.313  42.442   1.876
45820W        W 7109  36.575  35.360   3.746
45821W        W 7110  17.708  30.565   2.363
45822W        W 7111   5.805   8.385   2.191
45823W        W 7112  33.393  13.279  11.475
45824W        W 7113   0.821  28.116   3.630
45825W        W 7114  18.196  29.049  11.425
45826W        W 7115  23.611  31.904   3.803
45827W        W 7116  27.109  44.886  10.935
45828W        W 7117  29.921  42.851   3.760
45829W        W 7118  18.122  37.454  11.877
45830W        W 7119  11.169  18.569  12.930
45831W        W 7120  20.147  24.581  14.918
45832W        W 7121  11.801  29.669  14.909
45833W        W 7122  32.971  30.958  14.428
45834W        W 7123  25.091  23.668  14.858
45835W        W 7124  12.657   6.369   5.151
45836W        W 7125   5.791  14.782   1.254
45837W        W 7126  33.874  34.045   4.724
45838W        W 7127   3.730  15.246  10.552
45839W        W 7128  21.732  11.174   0.327
45840W        W 7129  36.059  28.602  11.994
45841W        W 7130  14.250  43.286   3.771
45842W        W 7131  31.906  21.621   0.372
45843W        W 7132   7.770  27.527  12.854
45844W        W 7133  38.948   5.867  10.049
45845W        W 7134  18.664  37.005  11.597
45846W        W 7135  15.216  42.826   1.413
45847W        W 7136  39.881  34.536   0.263
45848W        W 7137  17.246  11.655  11.461
45849W        W 7138  33.907  44.815   1.850
45850W        W 7139  39.986   7.259   0.845
45851W        W 7140  38.530   4.432  13.043
45852W        W 7141  13.813   3.845   0.874
45853W        W 7142  22.611   1.823   3.387
45854W        W 7143  19.177   6.204  13.481
45855W        W 7144  19.120  11.244  10.547
45856W        W 7145   5.705  33.013   1.315
45857W        W 7146  17.081   6.265  13.840
45858W        W 7147  18.713   1.286   2.826
45859W        W 7148   0.311  40.993   2.320
45860W        W 7149   3.896   0.946  12.032
45861W        W 7150  44.896  12.758  11.412
45862W        W 7151  23.535   2.844  13.973
45863W        W 7152  28.603  40.989  11.562
45864W        W 7153  18.598   6.397  14.899
45865W        W 7154  20.039  10.830   4.613
45866W        W 7155  22.603  25.691   3.654
45867W        W 7156  26.672  11.685   3.678
45868W        W 7157  21.050   5.900   3.301
45869W        W 7158   8.766  25.563   5.170
45870W        W 7159  33.512  37.574  13.923
45871W        W 7160   7.272   4.353   1.757
45872W        W 7161  43.338  32.476   4.623
45873W        W 7162   7.766  29.955   0.737
45874W        W 7163  38.405  37.436   2.257
45875W        W 7164   6.845   6.368  14.787
45876W        W 7165  40.516   6.807  13.447
45877W        W 7166  21.594   4.751   3.637
45878W        W 7167   2.945  17.236   0.306
45879W        W 7168  16.251   8.185   2.370
45880W        W 7169  14.307   3.781   0.475
45881W        W 7170  10.290  44.361  12.009
45882W        W 7171  13.647  24.197  13.018
45883W        W 7172  32.472  16.136   4.226
45884W        W 7173  31.531  22.712  10.565
45885W        W 7174  21.138  41.522  12.492
45886W        W 7175  37.342  38.396   1.229
45887W        W 7176  12.220  18.743   0.880
45888W        W 7177  27.482  20.105  13.308
45889W        W 7178  12.686  30.589  11.522
45890W        W 7179  36.006  31.469   0.881
45891W        W 7180  23.509  34.995  13.431
45892W        W 7181  37.938  34.589   2.732
45893W        W 7182  25.219  44.828  12.863
45894W        W 7183  10.208  35.086   3.863
45895W        W 7184  12.119   7.202  11.557
45896W        W 7185  17.667   6.835   1.783
45897W        W 7186   4.315  23.568  13.947
45898W        W 7187  10.337   5.386   4.343
45899W        W 7188  34.429  34.613  14.301
45900W        W 7189   7.764   2.905  10.478
45901W        W 7190   4.876  21.664   3.152
45902W        W 7191   4.803   6.373  13.827
45903W        W 7192  26.644  32.498  13.483
45904W        W 7193  39.821  37.491  13.010
45905W        W 7194  32.959  22.148   0.359
45906W        W 7195  41.951  36.086   1.896
45907W        W 7196   7.757  18.083  13.875
45908W        W 7197   9.252  38.895   2.213
45909W        W 7198   7.850  37.553   1.323
45910W        W 7199  24.103   3.240  13.816
45911W        W 7200  27.066  30.934  13.437
45912W        W 7201   0.844   3.318  13.944
45913W        W 7202  21.706   0.885  14.298
45914W        W 7203  20.242  26.652   1.934
45915W        W 7204   0.943  32.981  12.004
45916W        W 7205  19.046  10.673  14.981
45917W        W 7206  40.489  16.793  12.933
45918W        W 7207  36.545  29.436  14.475
45919W        W 7208  20.535  13.125  13.404
45920W        W 7209   4.867  19.609  10.550
45921W        W 7210  17.755  34.010  11.963
45922W        W 7211  43.943  39.449   1.740
45923W        W 7212   7.787   8.190   0.964
45924W        W 7213  11.761  13.771   2.862
45925W        W 7214   1.868  37.036  14.336
45926W        W 7215  33.909   1.905   0.769
45927W        W 7216  25.507   2.355  11.894
45928W        W 7217  22.242  31.103   2.855
45929W        W 7218   9.657  18.273   2.271
45930W        W 7219  14.248   9.255  11.975
45931W        W 7220  35.041  27.458  14.783
45932W        W 7221  30.934   9.249   1.802
45933W        W 7222  14.211  29.603  11.607
45934W        W 7223  34.594  35.914   2.324
45935W        W 7224   0.748  14.631   2.323
45936W        W 7225   6.719  27.058  11.517
45937W        W 7226  34.392  42.791   4.207
45938W        W 7227  35.594   5.366  14.301
45939W        W 7228  16.192  32.000  11.066
45940W        W 7229  20.620  13.288  12.946
45941W        W 7230  25.659  37.529   5.321
45942W        W 7231  24.132  43.816   0.780
45943W        W 7232   6.364  44.400  10.565
45944W        W 7233  41.409  23.666  12.072
45945W        W 7234  31.903  21.749   0.883
45946W        W 7235   2.817  30.984   0.961
45947W        W 7236   4.915   9.228   0.318
45948W        W 7237  43.322  14.311  14.873
45949W        W 7238  10.853  19.246   0.394
45950W        W 7239  12.249  42.384  12.918
45951W        W 7240   1.951  28.535  14.365
45952W        W 7241  14.106  36.898  14.381
45953W        W 7242  29.455  17.632   2.765
45954W        W 7243  14.104  15.181  13.011
45955W        W 7244  13.174   4.822   0.910
45956W        W 7245  12.298  23.632  14.886
45957W        W 7246   5.847   5.817   2.807
45958W        W 7247   8.898  31.910  11.051
45959W        W 7248  33.909  26.001  13.852
45960W        W 7249   4.208   3.853  11.071
45961W        W 7250   0.774  13.697  12.866
45962W        W 7251  30.056  44.376  11.431
45963W        W 7252   7.226   9.773   3.255
45964W        W 7253  43.943  29.069   1.385
45965W        W 7254  13.641  16.256   3.154
45966W        W 7255  12.721   7.252   3.188
45967W        W 7256  30.109  17.701   0.461
45968W        W 7257  19.155  39.479  12.418
45969W        W 7258  29.580  22.715  12.385
45970W        W 7259  40.468  11.774  14.455
45971W        W 7260  15.587  41.043  14.995
45972W        W 7261  13.657  39.061  11.973
45973W        W 7262   2.278  22.188  12.579
45974W        W 7263  25.191   9.197  12.343
45975W        W 7264  37.880  23.152  14.795
45976W        W 7265  22.044  28.132   2.873
45977W        W 7266  30.617  19.711   2.242
45978W        W 7267   6.369  33.998  12.929
45979W        W 7268  20.539  23.233  13.368
45980W        W 7269  18.205  22.642  14.514
45981W        W 7270  32.631  38.819  13.824
45982W        W 7271  15.083  23.615   3.190
45983W        W 7272   3.313  38.993  14.911
45984W        W 7273   3.789  16.687   1.424
45985W        W 7274  13.230  10.691  14.371
45986W        W 7275  24.495  24.536  10.439
45987W        W 7276  34.923  28.080  14.338
45988W        W 7277  20.094  20.275   1.285
45989W        W 7278  31.925   5.835   0.907
45990W        W 7279   0.948  35.017  13.322
45991W        W 7280  10.726  41.995   3.324
45992W        W 7281  34.461  41.968   3.238
45993W        W 7282  17.794  40.872   2.861
45994W        W 7283  29.453   8.366   4.765
45995W        W 7284  29.610   6.921   5.182
45996W        W 7285  26.554  21.061  12.907
45997W        W 7286  21.703  29.477   3.250
45998W        W 7287   2.962  42.783   1.930
45999W        W 7288  33.536  14.251   4.246
46000W        W 7289  31.984  24.689  12.347
46001W        W 7290  16.624  15.163  13.006
46002W        W 7291  39.861   4.924  14.916
46003W        W 7292  25.586   7.882  12.471
46004W        W 7293  29.636  19.170   4.223
46005W        W 7294  36.005  36.895  10.932
46006W        W 7295  19.188  20.232  11.521
46007W        W 7296  41.523  11.747  12.038
46008W        W 7297  13.148  38.921  14.475
46009W        W 7298   9.151  35.054   2.775
46010W        W 7299   0.259  30.612  11.387
46011W        W 7300  28.035  25.662  13.814
46012W        W 7301  38.444  37.050  11.437
46013W        W 7302  14.643  38.936  14.334
46014W        W 7303  42.896  33.070   4.131
46015W        W 7304   2.249  29.476  13.359
46016W        W 7305  35.944  39.907  11.107
46017W        W 7306  33.591  23.681   0.475
46018W        W 7307   7.186  44.809   3.266
46019W        W 7308  25.123  41.402  11.477
46020W        W 7309  10.696  36.464  11.065
46021W        W 7310  10.821  41.964   0.934
46022W        W 7311  13.766   1.362  13.856
46023W        W 7312  40.410  21.669   2.301
46024W        W 7313  25.597  44.460  14.478
46025W        W 7314  23.574   6.384   4.142
46026W        W 7315  39.544   2.300  14.460
46027W        W 7316  17.117   4.908  10.578
46028W        W 7317  13.201  18.082   0.289
46029W        W 7318  27.539  36.941   4.801
46030W        W 7319  32.627  27.489   1.749
46031W        W 7320  39.466  29.057   4.204
46032W        W 7321   9.741  30.556  11.979
46033W        W 7322  27.940  40.421   2.875
46034W        W 7323  38.493   9.851   2.333
46035W        W 7324   0.409  18.165  14.474
46036W        W 7325  38.869  31.967   4.327
46037W        W 7326   8.323  17.658   4.124
46038W        W 7327  16.083  11.665  14.001
46039W        W 7328  23.117  22.146   0.415
46040W        W 7329   1.427  21.017   2.778
46041W        W 7330  18.789  35.068   2.695
46042W        W 7331   3.721  25.153   0.945
46043W        W 7332  32.578  12.198   0.892
46044W        W 7333  42.305  26.951   4.318
46045W        W 7334  19.590  43.356   1.803
46046W        W 7335  32.923  35.863   4.355
46047W        W 7336  30.519  14.723   1.271
46048W        W 7337  18.761  25.578  14.961
46049W        W 7338  20.763   2.810   3.852
46050W        W 7339  18.783  12.842   2.861
46051W        W 7340  16.584  26.623   2.243
46052W        W 7341  13.620  41.934  10.905
46053W        W 7342  14.174   7.238  13.014
46054W        W 7343  41.507  33.402  12.355
46055W        W 7344  25.645  38.450   1.309
46056W        W 7345  23.147  33.617  12.929
46057W        W 7346  41.349   8.223   3.302
46058W        W 7347  23.519   5.256  14.365
46059W        W 7348  41.892  20.706  13.353
46060W        W 7349  33.923  37.543  11.380
46061W        W 7350  27.598  20.074   0.911
46062W        W 7351  12.806   1.269  12.897
46063W        W 7352  36.034  30.088   3.773
46064W        W 7353  12.327   6.344   3.235
46065W        W 7354  25.016  33.536   1.248
46066W        W 7355  20.684  40.923   3.781
46067W        W 7356   4.416  29.993   1.282
46068W        W 7357  27.633  39.897  10.414
46069W        W 7358  25.081  13.784   2.393
46070W        W 7359  32.905  23.514   3.662
46071W        W 7360   3.301  38.541  10.468
46072W        W 7361  16.235   5.888  11.491
46073W        W 7362  22.743  43.802   1.425
46074W        W 7363  34.368  14.626   0.956
46075W        W 7364   9.330  39.558   0.919
46076W        W 7365   8.894  20.201  13.485
46077W        W 7366  22.668   7.730   4.717
46078W        W 7367  10.326  34.090   2.205
46079W        W 7368  40.405  11.329   3.720
46080W        W 7369  10.739  22.546  14.394
46081W        W 7370  31.072  29.948   2.696
46082W        W 7371  21.553  27.185   3.268
46083W        W 7372   2.241  23.014  14.966
46084W        W 7373  18.710   8.810   1.874
46085W        W 7374  44.880  25.487  12.381
46086W        W 7375  12.845  22.649   5.124
46087W        W 7376   7.259   4.359   0.299
46088W        W 7377  40.439   2.967   3.338
46089W        W 7378  18.725   1.755   2.843
46090W        W 7379  41.044  29.460  14.767
46091W        W 7380   2.378   3.850   2.740
46092W        W 7381  41.292  33.925   0.335
46093W        W 7382  37.411  10.825   0.807
46094W        W 7383   4.749  40.864  12.063
46095W        W 7384  41.993  37.854  10.919
46096W        W 7385  25.546  31.628   4.748
46097W        W 7386  38.466   1.881  11.481
46098W        W 7387  26.517  35.452   4.728
46099W        W 7388  43.920  42.360  13.833
46100W        W 7389  16.608  41.975  13.980
46101W        W 7390  23.020  25.071  14.326
46102W        W 7391  27.197  20.183   5.157
46103W        W 7392   9.802  13.719  11.862
46104W        W 7393  21.712  31.439   3.648
46105W        W 7394  33.107  30.497   0.728
46106W        W 7395  42.805  16.114   4.265
46107W        W 7396   3.846  38.879   1.707
46108W        W 7397  26.626  41.421   0.330
46109W        W 7398  41.845  13.304  10.900
46110W        W 7399   4.859  30.993   3.798
46111W        W 7400   9.245   5.290  10.507
46112W        W 7401  40.480  34.429   1.887
46113W        W 7402  21.082   5.699   0.866
46114W        W 7403  22.647  15.109   0.765
46115W        W 7404  12.809  25.147  10.516
46116W        W 7405  14.802  18.221  13.367
46117W        W 7406  28.488   5.394   2.344
46118W        W 7407  33.588  17.697   2.286
46119W        W 7408  19.136  10.723   1.364
46120W        W 7409  27.977  40.962   1.703
46121W        W 7410  22.028  44.314   2.204
46122W        W 7411   1.938  39.408  11.061
46123W        W 7412   7.188  20.109  11.953
46124W        W 7413   5.230  18.135  12.835
46125W        W 7414  38.361  39.559  13.995
46126W        W 7415  10.272  29.109  10.012
46127W        W 7416  33.478  25.204  13.472
46128W        W 7417  26.580   6.753  12.423
46129W        W 7418  30.027  15.725  14.395
46130W        W 7419   4.439  33.121   4.270
46131W        W 7420  12.132  16.591   1.358
46132W        W 7421  24.596  30.102   4.648
46133W        W 7422  12.274  34.895  14.459
46134W        W 7423  11.141  31.496   1.434
46135W        W 7424  13.719  43.278   1.840
46136W        W 7425  44.914   1.911   2.697
46137W        W 7426   6.311  29.965  10.110
46138W        W 7427  16.178  26.205  13.450
46139W        W 7428   8.699  25.208  11.537
46140W        W 7429   5.724  37.994   2.756
46141W        W 7430  24.975  32.576  10.974
46142W        W 7431   3.326   0.260  14.783
46143W        W 7432  23.583  34.437   4.340
46144W        W 7433  23.626  28.449  12.826
46145W        W 7434  15.636   1.738   2.380
46146W        W 7435  29.026  17.236   0.910
46147W        W 7436  19.597  19.599   1.338
46148W        W 7437  22.564   7.824  12.438
46149W        W 7438  16.263  17.142  13.969
46150W        W 7439   4.279  28.538   1.762
46151W        W 7440  39.913  39.336   2.777
46152W        W 7441  34.925  36.021   5.297
46153W        W 7442   8.811  22.718  12.914
46154W        W 7443  25.489   4.783  13.823
46155W        W 7444  26.203  33.936  13.347
46156W        W 7445  20.149  44.867   0.289
46157W        W 7446  30.545  39.876  12.454
46158W        W 7447  18.696   3.376   9.985
46159W        W 7448  40.515  34.997  10.499
46160W        W 7449  21.234  32.463   0.424
46161W        W 7450  43.978  39.556   2.763
46162W        W 7451  12.786  37.421  11.947
46163W        W 7452  27.537  39.523   3.725
46164W        W 7453  43.858  24.553   2.678
46165W        W 7454  37.364  20.030   1.745
46166W        W 7455  33.623   4.324   2.412
46167W        W 7456  38.905  17.176   1.245
46168W        W 7457  44.755  35.075  11.981
46169W        W 7458  10.350  20.595   3.670
46170W        W 7459  15.160   4.829   3.346
46171W        W 7460  16.679  38.918   0.473
46172W        W 7461  29.557  30.973  13.976
46173W        W 7462  33.382  43.510   4.173
46174W        W 7463  31.987  16.233   2.180
46175W        W 7464  23.595  25.032   2.179
46176W        W 7465  33.947  16.640   2.804
46177W        W 7466  15.318   3.733   3.710
46178W        W 7467  35.944  41.424   1.372
46179W        W 7468  19.242  18.691  13.372
46180W        W 7469  18.697  32.446   4.276
46181W        W 7470  25.140  11.859   4.683
46182W        W 7471  24.101  11.167   0.458
46183W        W 7472  13.705  26.026   1.801
46184W        W 7473  28.092   5.740   4.341
46185W        W 7474  43.350  16.752  11.433
46186W        W 7475   4.850  22.077   3.171
46187W        W 7476  31.560  32.422  14.939
46188W        W 7477  38.034  28.535  14.447
46189W        W 7478  11.857   4.404   0.345
46190W        W 7479  28.143   9.261   3.335
46191W        W 7480  40.999  43.939  13.492
46192W        W 7481  33.414  42.935   1.264
46193W        W 7482   9.833  25.640  11.059
46194W        W 7483  43.955  29.048   3.223
46195W        W 7484  32.020   2.724   2.665
46196W        W 7485  20.190  24.536   4.166
46197W        W 7486  32.995   8.395   3.659
46198W        W 7487  38.872   2.734   1.337
46199W        W 7488  32.398  12.705  14.926
46200W        W 7489  24.187   8.767  12.440
46201W        W 7490  37.422   8.217  12.465
46202W        W 7491  40.810  31.464  11.428
46203W        W 7492  42.834  39.318   3.171
46204W        W 7493  24.096  30.624   2.409
46205W        W 7494  25.504   7.273  11.520
46206W        W 7495  27.061  37.538  12.000
46207W        W 7496   2.776   8.167  11.084
46208W        W 7497   7.318  23.235   1.720
46209W        W 7498  20.631  24.230   3.654
46210W        W 7499  20.128  26.560   3.850
46211W        W 7500   9.767  10.816   1.238
46212W        W 7501  27.604  12.291   3.317
46213W        W 7502  38.997  20.579   3.259
46214W        W 7503  16.178  40.007   2.368
46215W        W 7504  40.406  43.463  14.317
46216W        W 7505  41.978  12.682   2.201
46217W        W 7506  35.384   7.786   2.338
46218W        W 7507  11.258  38.502  14.815
46219W        W 7508  13.662  37.911  13.361
46220W        W 7509  17.580  16.695  13.498
46221W        W 7510  18.651  26.585  12.440
46222W        W 7511  42.443  32.450  14.832
46223W        W 7512  12.202   9.292   4.284
46224W        W 7513  28.601  43.780  10.947
46225W        W 7514  19.052  41.456   4.665
46226W        W 7515  14.336   9.787   0.259
46227W        W 7516  28.988  37.868   4.607
46228W        W 7517  21.582  39.430   2.324
46229W        W 7518  31.612  24.103   2.871
46230W        W 7519  17.715  42.847  11.561
46231W        W 7520  23.512  26.699  13.432
46232W        W 7521  28.591  31.930   4.226
46233W        W 7522   3.768  11.830   4.150
46234W        W 7523  19.696  22.229   2.767
46235W        W 7524  26.978   8.308  13.975
46236W        W 7525  25.678  24.653  13.997
46237W        W 7526   5.832  29.080   0.823
46238W        W 7527  32.889  22.109  14.466
46239W        W 7528   5.244   1.354   2.263
46240W        W 7529  19.264  42.989  11.515
46241W        W 7530  30.061   1.941  11.410
46242W        W 7531  18.094   7.188   0.789
46243W        W 7532  43.823   7.194   5.759
46244W        W 7533  15.282   1.747  14.967
46245W        W 7534  41.793  19.683   3.675
46246W        W 7535  24.173  10.354  14.759
46247W        W 7536   8.301  16.624   2.783
46248W        W 7537   9.708   9.699  10.640
46249W        W 7538   8.723   5.726  12.524
46250W        W 7539  24.696   3.341   0.290
46251W        W 7540   7.670  31.095   2.196
46252W        W 7541   1.758  20.701   2.894
46253W        W 7542  14.734   9.346  11.577
46254W        W 7543  29.508  41.826  14.375
46255W        W 7544   1.915  15.632   2.267
46256W        W 7545  31.942  19.161   4.648
46257W        W 7546  19.090  21.670  11.034
46258W        W 7547   8.160  11.639   2.346
46259W        W 7548  31.580  18.076   1.276
46260W        W 7549   6.187  36.946  12.345
46261W        W 7550  27.177  18.280  14.380
46262W        W 7551  35.526  40.516   3.364
46263W        W 7552  19.163  18.112  13.523
46264W        W 7553  23.611   1.733   1.720
46265W        W 7554  43.784  20.126  13.345
46266W        W 7555  15.700   8.346  12.961
46267W        W 7556  26.056   9.822  10.473
46268W        W 7557  21.213  18.566   1.359
46269W        W 7558  20.626   8.190   0.286
46270W        W 7559  33.126   1.276   4.304
46271W        W 7560  17.061  16.568   2.902
46272W        W 7561  12.260   9.694   4.709
46273W        W 7562   6.747  12.297   3.867
46274W        W 7563  20.032  27.459  14.379
46275W        W 7564  14.705  40.882  13.997
46276W        W 7565  28.954  10.339  12.043
46277W        W 7566  35.011  24.680  14.493
46278W        W 7567  38.397  21.238  11.515
46279W        W 7568   0.345  36.953  10.441
46280W        W 7569   8.849   4.942   4.142
46281W        W 7570   0.947  34.075   1.764
46282W        W 7571  10.297  20.121   9.925
46283W        W 7572  38.999  14.280  13.373
46284W        W 7573  26.013  36.961  13.906
46285W        W 7574   6.780  13.727  14.991
46286W        W 7575  11.760  32.049  11.589
46287W        W 7576  38.487   5.278  12.991
46288W        W 7577  14.167  15.711   3.732
46289W        W 7578  35.961   3.915  13.337
46290W        W 7579  10.737  29.547   3.299
46291W        W 7580  33.579  11.798  10.510
46292W        W 7581  29.499  36.864  13.933
46293W        W 7582  32.016  42.453  13.813
46294W        W 7583  25.166  29.134   1.222
46295W        W 7584  35.548  40.507  14.476
46296W        W 7585   3.749  14.131   2.835
46297W        W 7586  34.474  36.565   3.674
46298W        W 7587  34.000  42.397  13.507
46299W        W 7588  33.040  33.444  13.530
46300W        W 7589  32.941  17.143   1.290
46301W        W 7590  44.799  19.603   3.364
46302W        W 7591  42.959  21.228  10.152
46303W        W 7592  26.046  33.611   2.873
46304W        W 7593  28.951  42.343  13.921
46305W        W 7594  40.473  30.498  14.805
46306W        W 7595  19.260  36.532   4.335
46307W        W 7596  31.590  14.126   2.333
46308W        W 7597  17.557  18.758   3.176
46309W        W 7598  37.336   2.746  12.872
46310W        W 7599  12.118   6.848  12.411
46311W        W 7600  36.577   3.811   0.428
46312W        W 7601   9.874   6.273   4.323
46313W        W 7602  17.200  24.605   0.257
46314W        W 7603  33.526  16.735   2.258
46315W        W 7604  26.520  38.329  10.617
46316W        W 7605  34.520  28.110  13.359
46317W        W 7606  43.998  21.053   0.802
46318W        W 7607  37.837  13.692  11.862
46319W        W 7608  23.125  31.146   4.294
46320W        W 7609  18.281   1.788  14.972
46321W        W 7610  24.171   1.742   2.395
46322W        W 7611  24.132  44.910  11.450
46323W        W 7612   6.858  15.771   0.912
46324W        W 7613  25.627  26.649   0.823
46325W        W 7614  13.703  16.200   3.697
46326W        W 7615  44.464   0.781   1.415
46327W        W 7616  10.740  12.681  12.565
46328W        W 7617   6.767   6.417  14.023
46329W        W 7618   7.706  23.236  13.492
46330W        W 7619  42.419  40.446   4.705
46331W        W 7620  12.690  37.007   4.732
46332W        W 7621  40.455   9.792  14.825
46333W        W 7622  25.497  27.557   1.351
46334W        W 7623  28.476   9.228  10.422
46335W        W 7624  43.427  33.541  10.944
46336W        W 7625  44.959  21.066  11.475
46337W        W 7626  13.349  14.138  10.986
46338W        W 7627   3.762  26.047   3.814
46339W        W 7628   6.726  42.025  11.445
46340W        W 7629  33.520  17.241   0.311
46341W        W 7630  35.034  12.716   3.792
46342W        W 7631  35.590  25.030  11.057
46343W        W 7632  41.821  21.702  13.525
46344W        W 7633  39.528  11.796  12.918
46345W        W 7634  40.826  26.491  10.972
46346W        W 7635  17.277  10.845  11.964
46347W        W 7636   7.392  36.097  14.958
46348W        W 7637   3.270  36.438   3.700
46349W        W 7638   2.374  33.416  13.009
46350W        W 7639  41.806  13.137   4.824
46351W        W 7640  23.163  31.639  11.122
46352W        W 7641  27.030  39.511  13.923
46353W        W 7642  34.881  37.530  14.428
46354W        W 7643  31.604  22.701  14.002
46355W        W 7644   3.429  14.810   0.761
46356W        W 7645  24.982  38.002  13.855
46357W        W 7646  30.420   7.711   1.916
46358W        W 7647   8.175  20.728   0.278
46359W        W 7648   7.832  23.643   2.301
46360W        W 7649   0.322  11.237  14.937
46361W        W 7650   2.940  40.935   0.854
46362W        W 7651   0.281  42.978  14.508
46363W        W 7652   9.833  20.757  14.922
46364W        W 7653  14.122   9.334  14.489
46365W        W 7654  26.208  19.217   4.772
46366W        W 7655  20.704  34.492   0.443
46367W        W 7656  35.552  26.643   1.380
46368W        W 7657   7.875  22.120   4.749
46369W        W 7658  11.642  25.048  12.343
46370W        W 7659   5.846   9.653  10.427
46371W        W 7660  27.183   5.196   1.784
46372W        W 7661   3.833  25.659   0.265
46373W        W 7662   0.417  16.315   0.366
46374W        W 7663   6.331  11.166   2.804
46375W        W 7664  13.105  22.608   2.808
46376W        W 7665   6.872  39.851   0.735
46377W        W 7666   6.871   3.923  11.595
46378W        W 7667  20.044   7.754  10.925
46379W        W 7668  22.186  11.351  14.929
46380W        W 7669  21.717  42.336   2.873
46381W        W 7670   4.322  38.337  11.087
46382W        W 7671  19.683   1.284   4.600
46383W        W 7672  24.659  18.203  13.995
46384W        W 7673   4.384   2.419   3.712
46385W        W 7674  16.623  37.410   2.369
46386W        W 7675  17.253  34.113   3.770
46387W        W 7676  32.031  34.072   1.727
46388W        W 7677  41.466  15.697  14.395
46389W        W 7678  25.500  10.865  13.400
46390W        W 7679  26.648  10.319  11.103
46391W        W 7680  10.697  31.447   2.308
46392W        W 7681  22.716  37.857   4.716
46393W        W 7682  11.236  34.973  13.460
46394W        W 7683  15.199  36.524  14.836
46395W        W 7684  33.508  42.997   0.411
46396W        W 7685  40.916   9.224   3.695
46397W        W 7686  35.877  28.074  12.406
46398W        W 7687  29.159  12.342   2.247
46399W        W 7688  26.154  13.793  13.000
46400W        W 7689  28.629  40.992  14.494
46401W        W 7690  21.031  32.900  11.609
46402W        W 7691  31.961  40.016  13.043
46403W        W 7692  23.718  39.404   3.824
46404W        W 7693  29.063   6.264  11.424
46405W        W 7694  31.021   7.724  13.491
46406W        W 7695  42.303  16.197   3.861
46407W        W 7696  31.117  35.526  12.422
46408W        W 7697  31.080   8.381  11.992
46409W        W 7698   2.335  24.201  10.618
46410W        W 7699  25.477  44.979  10.418
46411W        W 7700  19.277  34.928  11.613
46412W        W 7701  31.460  38.542  14.279
46413W        W 7702  38.445  38.032  12.461
46414W        W 7703  37.510  35.377   0.960
46415W        W 7704   8.227  28.967   3.171
46416W        W 7705  19.203  43.396  14.789
46417W        W 7706  10.794   1.445  14.442
46418W        W 7707  24.130   4.242   4.142
46419W        W 7708  10.838  26.597   3.632
46420W        W 7709   8.708   3.759  12.054
46421W        W 7710  15.649  14.301  10.624
46422W        W 7711   2.859  16.641  11.110
46423W        W 7712  43.434   8.402   0.913
46424W        W 7713  27.480   6.220   4.838
46425W        W 7714  26.465  44.840  11.899
46426W        W 7715   2.446   7.759   4.273
46427W        W 7716   6.696  32.589   0.923
46428W        W 7717   3.263  39.933   4.721
46429W        W 7718  43.000  15.633   0.832
46430W        W 7719   2.236  43.339  10.471
46431W        W 7720  29.448   8.224  14.018
46432W        W 7721  26.552  33.894   3.169
46433W        W 7722  29.433  31.464   4.694
46434W        W 7723  44.874   7.370  10.592
46435W        W 7724  30.036  11.761   0.776
46436W        W 7725  24.194  40.432   4.800
46437W        W 7726  21.235  17.733  11.009
46438W        W 7727  43.800  26.029  14.354
46439W        W 7728  13.203  36.882   2.877
46440W        W 7729   7.238  30.476  10.616
46441W        W 7730  32.121  26.681  13.957
46442W        W 7731   4.721  21.602   2.251
46443W        W 7732  17.076   5.782   4.148
46444W        W 7733   2.946  18.554  13.467
46445W        W 7734  15.601  10.879   4.802
46446W        W 7735   5.414  11.229  11.583
46447W        W 7736  30.075  22.565  10.985
46448W        W 7737  32.899  12.657   4.134
46449W        W 7738  23.503  15.804  12.488
46450W        W 7739  26.129  18.234  12.933
46451W        W 7740   5.393  38.546  13.319
46452W        W 7741  39.906  22.074  14.296
46453W        W 7742  41.504  10.138  11.884
46454W        W 7743   5.927  35.472   3.176
46455W        W 7744  11.710  35.069  14.502
46456W        W 7745   7.752  12.186  11.529
46457W        W 7746  34.615  31.496  13.460
46458W        W 7747  39.345  31.122   2.689
46459W        W 7748  21.543  31.019  14.975
46460W        W 7749  21.247  36.457   4.338
46461W        W 7750  25.967   2.472  13.968
46462W        W 7751   0.450  38.507   3.667
46463W        W 7752  43.994  38.511  12.052
46464W        W 7753  15.749   3.362  14.880
46465W        W 7754  23.153  44.994   2.786
46466W        W 7755  39.411  19.624   1.752
46467W        W 7756   4.926  35.485  11.509
46468W        W 7757  15.181   0.928   1.244
46469W        W 7758  12.301  38.866   3.152
46470W        W 7759  22.674  31.565   4.674
46471W        W 7760  41.977  18.135  13.431
46472W        W 7761  18.623   9.282  13.471
46473W        W 7762  33.493  16.580  13.905
46474W        W 7763  43.282   4.282   2.233
46475W        W 7764   3.886  20.721   4.668
46476W        W 7765  29.548   9.380   5.631
46477W        W 7766  25.155  40.917   3.784
46478W        W 7767  35.063   2.958   1.844
46479W        W 7768   1.319  36.933   1.842
46480W        W 7769  31.942  40.483   5.211
46481W        W 7770  41.006  40.923  14.782
46482W        W 7771  22.574   3.919  13.474
46483W        W 7772  25.187  22.507  13.457
46484W        W 7773  42.354  23.985  13.534
46485W        W 7774  44.906  32.964  12.565
46486W        W 7775  28.088  30.138  14.031
46487W        W 7776  21.518  25.090   2.400
46488W        W 7777  39.473   9.848   0.482
46489W        W 7778  27.561  13.628  12.412
46490W        W 7779  33.393  25.494  12.509
46491W        W 7780  41.878  32.598   4.789
46492W        W 7781  34.897  37.985   4.203
46493W        W 7782  33.009  17.584   3.734
46494W        W 7783   3.342   0.759  12.095
46495W        W 7784  27.002  39.461  10.589
46496W        W 7785  22.735  15.135   1.935
46497W        W 7786  14.736  29.942   3.770
46498W        W 7787  14.284  29.465   0.383
46499W        W 7788  27.147  24.056   1.875
46500W        W 7789  40.532   7.786   4.611
46501W        W 7790  33.921  12.267  11.387
46502W        W 7791  32.475  30.005   2.231
46503W        W 7792  35.065  41.374  10.002
46504W        W 7793   6.310  29.505   1.282
46505W        W 7794  27.658  34.096  10.543
46506W        W 7795  25.981   4.219  12.426
46507W        W 7796   0.256  35.926  14.850
46508W        W 7797  43.828  17.749  14.773
46509W        W 7798  15.647  29.542   4.678
46510W        W 7799  41.806  23.699   3.765
46511W        W 7800  24.520  13.601   4.769
46512W        W 7801   5.238  29.065   1.764
46513W        W 7802  36.034   2.344  14.508
46514W        W 7803  23.686   8.300   4.799
46515W        W 7804  32.983   6.695  11.908
46516W        W 7805  12.196  37.378   2.859
46517W        W 7806  34.121  12.145   0.345
46518W        W 7807   1.255   6.228  12.424
46519W        W 7808  19.750   9.658   1.712
46520W        W 7809  14.736  12.341   1.236
46521W        W 7810  43.422  44.871   3.708
46522W        W 7811   5.250  37.368   3.269
46523W        W 7812  21.200  19.196   4.789
46524W        W 7813  13.170  35.106  13.923
46525W        W 7814   7.896   7.245   0.956
46526W        W 7815  28.960  24.096   2.700
46527W        W 7816   9.651  40.863  10.605
46528W        W 7817   6.344  27.478   1.769
46529W        W 7818  22.187  25.643  12.028
46530W        W 7819   2.826  12.128   0.740
46531W        W 7820   2.470  35.461   3.248
46532W        W 7821   0.766  40.542  11.488
46533W        W 7822  40.932   8.728   3.338
46534W        W 7823  37.519  13.147  11.589
46535W        W 7824  22.529  40.870   4.661
46536W        W 7825  37.071  44.995  13.020
46537W        W 7826  22.645  27.145   3.387
46538W        W 7827  24.034  35.434  12.977
46539W        W 7828  39.846  42.008   3.644
46540W        W 7829   6.276  10.876  10.544
46541W        W 7830  29.136  27.000  14.887
46542W        W 7831  32.015  19.143   2.873
46543W        W 7832  36.090  27.047  10.920
46544W        W 7833  41.423  36.033  14.329
46545W        W 7834  44.001  25.126   0.752
46546W        W 7835  44.850  26.637  13.936
46547W        W 7836  44.500  42.477  12.452
46548W        W 7837  31.069   9.393  10.932
46549W        W 7838  23.675  30.016   3.843
46550W        W 7839  22.176  27.491   0.907
46551W        W 7840   7.399  11.198   0.830
46552W        W 7841   3.812  26.067   4.745
46553W        W 7842  31.521  20.646   3.180
46554W        W 7843  27.968  35.531  13.859
46555W        W 7844   9.729  22.691   0.334
46556W        W 7845   3.794  34.506  10.561
46557W        W 7846  21.241  14.607   0.752
46558W        W 7847  12.171  29.594   2.342
46559W        W 7848  31.537  14.141   4.824
46560W        W 7849  22.669  16.082   1.846
46561W        W 7850   9.243  31.450  10.611
46562W        W 7851  12.674  40.023  14.461
46563W        W 7852  15.602  25.551  11.552
46564W        W 7853  38.849  31.017  13.375
46565W        W 7854  26.482  29.520   3.343
46566W        W 7855  10.236   5.265  14.936
46567W        W 7856  43.420  11.788  10.566
46568W        W 7857   7.891  31.954  14.418
46569W        W 7858  36.506   3.229  13.471
46570W        W 7859  40.448  21.194  12.967
46571W        W 7860  44.280  30.153  13.405
46572W        W 7861  10.794  13.822  11.594
46573W        W 7862  36.903  41.393   2.743
46574W        W 7863  41.916  10.160  10.581
46575W        W 7864  22.745  19.780  13.000
46576W        W 7865   6.369  13.223  11.418
46577W        W 7866  20.069  12.645   0.450
46578W        W 7867  41.391  34.077  12.871
46579W        W 7868  34.889  36.045   4.654
46580W        W 7869  34.476  27.160  13.430
46581W        W 7870  25.016  34.909   1.907
46582W        W 7871  14.744  11.735  10.570
46583W        W 7872  27.154   7.404   1.364
46584W        W 7873  39.863  34.536  12.049
46585W        W 7874  39.477   4.884  14.285
46586W        W 7875  21.214  43.853  14.008
46587W        W 7876  38.469  15.267   0.475
46588W        W 7877   7.861  39.447  10.907
46589W        W 7878   9.311  36.414  11.546
46590W        W 7879  34.062   1.324  14.311
46591W        W 7880  43.434  36.355   2.730
46592W        W 7881  32.595  44.291   0.788
46593W        W 7882  43.902  32.511  12.915
46594W        W 7883  25.095  15.289   4.160
46595W        W 7884  11.670   3.806   0.337
46596W        W 7885  16.585  13.206  11.079
46597W        W 7886  11.191  27.191  14.766
46598W        W 7887  21.747  32.095  13.868
46599W        W 7888  39.560  36.410  12.955
46600W        W 7889   6.237  25.020  12.914
46601W        W 7890  15.594  24.608  13.857
46602W        W 7891  18.071  41.960  14.435
46603W        W 7892  16.740   8.361  13.825
46604W        W 7893  21.520  15.671   0.361
46605W        W 7894  42.303  10.210   2.710
46606W        W 7895  17.091  28.957   4.207
46607W        W 7896  35.929  15.813   3.703
46608W        W 7897  13.826   2.233  14.493
46609W        W 7898  33.942  26.644  11.474
46610W        W 7899  16.151  32.509  10.962
46611W        W 7900   9.249   3.321   9.992
46612W        W 7901  36.989  37.068   1.340
46613W        W 7902  38.394   4.245   4.217
46614W        W 7903  34.514  35.869   1.396
46615W        W 7904  34.030   7.194   3.283
46616W        W 7905  35.489  23.054  11.613
46617W        W 7906  28.090   4.354  14.931
46618W        W 7907  41.872   3.323   3.364
46619W        W 7908  15.675  31.050   4.168
46620W        W 7909  24.048   2.750   2.278
46621W        W 7910  21.111  12.185   2.316
46622W        W 7911  44.826  44.368  12.872
46623W        W 7912   8.733  15.103   1.916
46624W        W 7913   1.287   3.372   2.383
46625W        W 7914  35.516   9.800  12.364
46626W        W 7915   5.363  10.829  13.462
46627W        W 7916  24.568   9.710   2.231
46628W        W 7917  14.335  36.034  13.860
46629W        W 7918  38.931   6.195  12.921
46630W        W 7919  22.537  37.430   0.327
46631W        W 7920  15.818  42.981   5.242
46632W        W 7921  11.810  12.716  10.421
46633W        W 7922   8.691  10.662  12.833
46634W        W 7923  34.477  44.924   0.958
46635W        W 7924  32.549  16.696   2.726
46636W        W 7925  41.466  24.057   3.314
46637W        W 7926  29.621  38.385  13.834
46638W        W 7927  12.242  19.734  13.503
46639W        W 7928  42.349  19.074   0.919
46640W        W 7929  22.241  28.655   1.411
46641W        W 7930  19.203  36.097   0.929
46642W        W 7931  38.979  43.894   0.359
46643W        W 7932  15.107  44.971   3.146
46644W        W 7933  34.942  18.120  13.984
46645W        W 7934  38.056  21.171  14.870
46646W        W 7935  39.981  34.459  14.910
46647W        W 7936  33.589  22.570   5.258
46648W        W 7937  27.969  11.630   2.349
46649W        W 7938  29.623  40.872   3.827
46650W        W 7939  32.504  33.515   0.854
46651W        W 7940  38.017  43.917  10.904
46652W        W 7941  18.663  13.612   2.807
46653W        W 7942  24.091   8.808   0.265
46654W        W 7943  13.113  44.380  11.057
46655W        W 7944  17.200  15.708   4.117
46656W        W 7945  17.092   2.373   0.902
46657W        W 7946   0.279   5.790  12.432
46658W        W 7947  10.809   3.944  14.302
46659W        W 7948   4.722   3.881  13.982
46660W        W 7949   9.793  11.275  12.866
46661W        W 7950  29.148  36.563   1.828
46662W        W 7951   7.178  20.601   4.634
46663W        W 7952  19.110  10.681   4.770
46664W        W 7953  43.504  38.494  11.379
46665W        W 7954  19.668  34.444   1.244
46666W        W 7955   3.303  11.158   2.765
46667W        W 7956  37.898  32.070  13.859
46668W        W 7957  13.843   3.216  14.969
46669W        W 7958   5.323  11.643   4.811
46670W        W 7959  29.951  14.206   2.716
46671W        W 7960  18.567  40.340   0.958
46672W        W 7961  41.991  17.653   0.357
46673W        W 7962  41.325   9.279  13.471
46674W        W 7963  27.082  14.187   2.768
46675W        W 7964  16.685   9.365   2.336
46676W        W 7965  14.790  24.122   1.255
46677W        W 7966   8.755  13.151   2.417
46678W        W 7967  17.670  15.591   4.166
46679W        W 7968  25.188  44.801  13.362
46680W        W 7969  34.558  29.546   3.354
46681W        W 7970  39.471  11.247  10.525
46682W        W 7971  31.441   0.448   5.691
46683W        W 7972   2.331  43.994  10.619
46684W        W 7973  27.099  31.489   1.409
46685W        W 7974  22.656  20.613  12.414
46686W        W 7975  10.326  31.900   2.675
46687W        W 7976  26.204  30.049  12.089
46688W        W 7977  12.187  39.909  13.870
46689W        W 7978   7.224  30.113  10.576
46690W        W 7979   6.903  28.606  12.896
46691W        W 7980  37.876  33.606   3.198
46692W        W 7981   6.203  42.876  10.617
46693W        W 7982   7.208   4.895   3.231
46694W        W 7983   7.811   4.834  14.293
46695W        W 7984  24.651   3.902  10.626
46696W        W 7985  19.563  34.605  14.495
46697W        W 7986  11.756  37.351   2.816
46698W        W 7987   3.417  41.852   4.228
46699W        W 7988   7.692  10.369   1.375
46700W        W 7989  19.688   7.816   4.290
46701W        W 7990  37.451   5.918   1.910
46702W        W 7991  37.040  14.320   1.211
46703W        W 7992   4.341  15.668  13.978
46704W        W 7993  30.481   3.274  11.611
46705W        W 7994  26.202  25.692  11.858
46706W        W 7995  31.517  16.184   2.749
46707W        W 7996  38.380  35.012   0.822
46708W        W 7997  23.581  21.251  11.902
46709W        W 7998  25.170  19.733  13.817
46710W        W 7999  17.165  41.814   4.772
46711W        W 8000  20.758  34.909   0.312
46712W        W 8001  35.588   2.312   9.478
46713W        W 8002  36.083   7.738  14.009
46714W        W 8003  26.956  32.067  11.011
46715W        W 8004   3.770   3.346   4.301
46716W        W 8005  21.082   8.755  12.013
46717W        W 8006  20.529   9.285  11.052
46718W        W 8007  20.733  11.159  11.498
46719W        W 8008   0.881   4.387  13.474
46720W        W 8009  42.424  30.495   0.949
46721W        W 8010  39.357  13.149  14.800
46722W        W 8011  26.536  44.424  11.588
46723W        W 8012  32.448  27.674  14.850
46724W        W 8013  44.477  18.558  12.080
46725W        W 8014   3.258  33.922   0.884
46726W        W 8015  10.663   7.887  10.640
46727W        W 8016  39.559  39.857  12.847
46728W        W 8017  22.111   8.253   2.381
46729W        W 8018  31.567  29.424   1.884
46730W        W 8019   9.352  43.290   4.259
46731W        W 8020  31.577   5.817   0.423
46732W        W 8021  16.148  36.449   4.740
46733W        W 8022  36.581  26.674   1.338
46734W        W 8023  32.512  16.150  11.868
46735W        W 8024   3.295   6.899   3.338
46736W        W 8025  18.138   3.237   0.948
46737W        W 8026   4.401  43.485   1.712
46738W        W 8027  18.732  37.982  11.599
46739W        W 8028  42.970  24.483  11.924
46740W        W 8029  13.166   3.915   2.895
46741W        W 8030  14.313  10.270  10.525
46742W        W 8031  16.115  22.074  13.438
46743W        W 8032   5.347  37.518   0.407
46744W        W 8033  21.167  25.091   4.645
46745W        W 8034  33.030  20.593  14.008
46746W        W 8035   9.337  10.213   1.852
46747W        W 8036  33.462   5.209   4.703
46748W        W 8037  35.422  42.920  13.963
46749W        W 8038  34.438  21.202   0.267
46750W        W 8039  25.604  21.207   1.862
46751W        W 8040  35.389  37.441  13.338
46752W        W 8041   7.850  18.050  10.429
46753W        W 8042  31.479  34.403   0.934
46754W        W 8043  16.231  25.578   5.304
46755W        W 8044  37.833  30.025   1.262
46756W        W 8045  43.436  31.106   0.897
46757W        W 8046  31.091   1.475  14.909
46758W        W 8047   0.955  13.819   2.297
46759W        W 8048  24.622   2.234   2.762
46760W        W 8049  33.999  31.060  11.897
46761W        W 8050   1.974  35.419  10.534
46762W        W 8051  18.207  17.286   4.323
46763W        W 8052  29.042  23.222   4.180
46764W        W 8053  18.653   2.788  14.783
46765W        W 8054  20.716  42.503   2.854
46766W        W 8055  43.347  26.489   2.382
46767W        W 8056   8.303  23.082  11.074
46768W        W 8057  16.782  10.741   3.738
46769W        W 8058  26.092  29.975   1.251
46770W        W 8059   5.806   2.239   4.296
46771W        W 8060  19.618  16.299  14.848
46772W        W 8061  14.330  14.164   0.839
46773W        W 8062  36.425  12.167   0.452
46774W        W 8063   3.756  23.652   2.303
46775W        W 8064  29.542  36.865  12.459
46776W        W 8065  29.639  13.788   1.218
46777W        W 8066   1.884  37.544   0.250
46778W        W 8067  34.929  26.168   2.264
46779W        W 8068  31.577  12.612   1.211
46780W        W 8069  32.996  13.639   1.733
46781W        W 8070  44.957  18.236  12.427
46782W        W 8071  14.095  44.834   4.723
46783W        W 8072  33.439  18.131  13.875
46784W        W 8073  10.288   5.873  10.003
46785W        W 8074  28.061   0.951  13.395
46786W        W 8075   8.208  22.136   1.320
46787W        W 8076  39.431  16.623   2.861
46788W        W 8077  35.504  11.638   2.735
46789W        W 8078  38.881  27.450  12.964
46790W        W 8079  11.711  17.121   5.258
46791W        W 8080  12.629  23.510  10.993
46792W        W 8081  20.099  24.038  12.411
46793W        W 8082  11.336  19.703  12.875
46794W        W 8083  32.398  43.453   0.810
46795W        W 8084  39.419  41.487  10.623
46796W        W 8085  34.438  17.268   4.148
46797W        W 8086  27.498  21.172   0.428
46798W        W 8087  17.688  14.730  10.559
46799W        W 8088  32.527  34.504   1.912
46800W        W 8089  43.798   4.875   2.342
46801W        W 8090  19.127  22.610   0.269
46802W        W 8091  10.183   1.836   1.269
46803W        W 8092  22.720   1.248  13.341
46804W        W 8093  28.078  23.639   3.734
46805W        W 8094  42.401  19.041  13.944
46806W        W 8095   1.413   0.312  13.496
46807W        W 8096   6.341  26.584   1.781
46808W        W 8097  15.709   9.863  13.869
46809W        W 8098  39.385  14.198   5.191
46810W        W 8099  44.937  16.729   0.274
46811W        W 8100  33.075  33.404  10.933
46812W        W 8101  34.101   7.731  14.495
46813W        W 8102  39.028  36.848   3.256
46814W        W 8103   1.760   4.387  13.990
46815W        W 8104  26.549  13.653   0.748
46816W        W 8105  40.013  20.713   1.383
46817W        W 8106  36.845  22.635   4.128
46818W        W 8107  33.470  43.982  11.592
46819W        W 8108  17.633  18.696  10.558
46820W        W 8109  28.128  20.078   2.882
46821W        W 8110  23.507   6.916  11.019
46822W        W 8111  27.471  39.036   0.315
46823W        W 8112  16.652  16.605   0.422
46824W        W 8113   1.320  25.511   2.319
46825W        W 8114  42.843  39.013  14.334
46826W        W 8115  36.883  17.570  13.800
46827W        W 8116  24.196   6.742   0.359
46828W        W 8117  20.596   0.954   2.895
46829W        W 8118  19.062  38.477  13.387
46830W        W 8119  17.296   7.261  11.091
46831W        W 8120   0.868  12.242  10.527
46832W        W 8121  32.460  42.916   3.690
46833W        W 8122  16.759  12.193  12.836
46834W        W 8123   2.826  11.209  11.476
46835W        W 8124  28.540  28.134  14.991
46836W        W 8125  44.498  21.113   9.966
46837W        W 8126  35.056  35.362   0.457
46838W        W 8127  37.077   8.883  14.332
46839W        W 8128   2.458  25.510  10.925
46840W        W 8129  19.565   5.882  14.808
46841W        W 8130  32.422  23.596  13.969
46842W        W 8131  35.021  17.728  14.322
46843W        W 8132  30.462  16.293   2.368
46844W        W 8133  37.373   1.960  11.908
46845W        W 8134   2.873  43.772   1.855
46846W        W 8135  29.026  30.639  10.989
46847W        W 8136   4.878  22.578   3.824
46848W        W 8137  15.768  31.932   4.677
46849W        W 8138  42.013  33.496   4.786
46850W        W 8139  28.933  34.523   2.777
46851W        W 8140  30.052  21.157  10.453
46852W        W 8141  14.331  19.201  14.794
46853W        W 8142  22.203  41.004  13.334
46854W        W 8143  38.062   7.249  10.598
46855W        W 8144  10.780  22.145  14.282
46856W        W 8145  19.697   8.397  10.551
46857W        W 8146  44.998  44.783  10.910
46858W        W 8147  15.271  24.513   1.223
46859W        W 8148   4.293   0.308  13.889
46860W        W 8149   5.857  32.923  12.358
46861W        W 8150  26.017  36.411  10.468
46862W        W 8151  30.458  12.188  14.816
46863W        W 8152  13.129  37.906   1.848
46864W        W 8153   2.305  37.060  13.431
46865W        W 8154   8.227  13.115   0.751
46866W        W 8155  30.135   1.900   3.166
46867W        W 8156  32.127  16.183   3.812
46868W        W 8157  40.354  17.769   3.708
46869W        W 8158  38.041  38.567  12.983
46870W        W 8159  27.607   1.293   4.137
46871W        W 8160   1.476  41.383  14.501
46872W        W 8161  33.010  10.370   1.239
46873W        W 8162   5.414  21.167  12.384
46874W        W 8163  24.704   2.339  11.922
46875W        W 8164  34.030   1.783  11.920
46876W        W 8165   3.319  20.063   4.173
46877W        W 8166   6.840  28.022  12.405
46878W        W 8167  33.542  27.677   0.439
46879W        W 8168  21.754  30.480   0.435
46880W        W 8169  19.740  21.139  13.960
46881W        W 8170   2.366  22.526   0.453
46882W        W 8171  24.170  44.776  14.403
46883W        W 8172  20.566  24.098  12.380
46884W        W 8173   0.754   5.342   1.918
46885W        W 8174  30.582  22.578  11.864
46886W        W 8175  32.396   5.317  11.423
46887W        W 8176  43.801  33.585  13.410
46888W        W 8177  29.623  36.411  14.871
46889W        W 8178  41.043   3.276  13.975
46890W        W 8179   3.414  36.561   0.305
46891W        W 8180  13.187  19.739  13.365
46892W        W 8181  10.164  17.096   0.472
46893W        W 8182  17.087  15.145   1.449
46894W        W 8183   5.428  14.821  14.882
46895W        W 8184  38.533  25.191  12.396
46896W        W 8185  20.552   9.804   4.693
46897W        W 8186  39.550  20.733  12.009
46898W        W 8187  10.853  14.259  10.461
46899W        W 8188  25.213  34.447   3.371
46900W        W 8189  27.081  33.389   2.223
46901W        W 8190   2.260   2.377   3.276
46902W        W 8191  44.500   6.268   2.363
46903W        W 8192  18.286  24.081  13.857
46904W        W 8193  27.001  21.727   2.865
46905W        W 8194  19.273  10.204   1.694
46906W        W 8195  15.093  31.541  14.008
46907W        W 8196  26.960  23.535  13.479
46908W        W 8197  36.089   1.300   4.748
46909W        W 8198  22.594  43.351   2.670
46910W        W 8199  36.568   2.257   0.810
46911W        W 8200  19.696  13.182   2.847
46912W        W 8201  42.411  15.147  11.912
46913W        W 8202  30.951  43.329   3.679
46914W        W 8203  24.985   3.374   0.398
46915W        W 8204  18.706  34.472   3.281
46916W        W 8205  16.266  10.767   1.709
46917W        W 8206   1.876  20.047   1.362
46918W        W 8207   8.328   8.325   0.838
46919W        W 8208   5.922   2.760   1.794
46920W        W 8209   4.928  36.419   0.887
46921W        W 8210  32.893  31.958  12.423
46922W        W 8211  30.034  36.008  11.548
46923W        W 8212  42.865   3.219   2.215
46924W        W 8213  10.207  32.461   2.404
46925W        W 8214  43.477   9.686  13.333
46926W        W 8215  23.701  30.434  14.451
46927W        W 8216  19.764  12.158   0.726
46928W        W 8217  27.489  22.211   4.234
46929W        W 8218   4.904  11.232   0.322
46930W        W 8219  16.600  23.535   3.177
46931W        W 8220  22.039  32.102   0.469
46932W        W 8221   9.871  43.787   0.875
46933W        W 8222  25.056  39.020  11.010
46934W        W 8223  22.640   1.365  12.409
46935W        W 8224  27.075  11.299  12.433
46936W        W 8225  11.802  13.347   2.751
46937W        W 8226   0.900  25.556  11.589
46938W        W 8227  44.462  18.132  13.338
46939W        W 8228  13.174   3.759  10.542
46940W        W 8229  23.187  38.959   3.231
46941W        W 8230  18.211  21.137  10.981
46942W        W 8231  42.994  41.012  14.890
46943W        W 8232  14.271   6.415   0.885
46944W        W 8233  16.697  19.146   2.306
46945W        W 8234   5.342  26.601  14.491
46946W        W 8235  37.926  44.382   1.882
46947W        W 8236  24.119   8.815  11.526
46948W        W 8237  10.362  30.547  14.833
46949W        W 8238   0.307  42.499   1.220
46950W        W 8239  19.200   3.353  11.072
46951W        W 8240  23.602  44.402   4.355
46952W        W 8241  25.062  23.691  11.385
46953W        W 8242   1.254  35.860  12.908
46954W        W 8243   4.778  20.683  12.917
46955W        W 8244  41.383   1.394  13.952
46956W        W 8245  43.344  12.346  12.481
46957W        W 8246  10.877  35.946   5.236
46958W        W 8247  27.513  11.621  14.292
46959W        W 8248   9.801  14.769  12.952
46960W        W 8249  20.659  25.574   2.313
46961W        W 8250  28.951  10.195  12.900
46962W        W 8251  44.352  36.543   3.361
46963W        W 8252  42.453  34.111  12.990
46964W        W 8253  33.415  17.092  11.085
46965W        W 8254  38.982  18.126  11.975
46966W        W 8255  31.930  28.002  10.604
46967W        W 8256  34.374  14.776   4.237
46968W        W 8257  21.564   7.773   4.739
46969W        W 8258  37.008  32.489  13.799
46970W        W 8259   3.216   9.333   3.650
46971W        W 8260  17.797  28.095  14.384
46972W        W 8261  26.187  23.630   4.837
46973W        W 8262  12.808   4.282  12.507
46974W        W 8263   7.687  22.082  11.955
46975W        W 8264  26.058   2.904   0.400
46976W        W 8265   3.743   9.657  14.316
46977W        W 8266  27.163   9.868   3.301
46978W        W 8267  36.964  13.754   0.306
46979W        W 8268  19.201  22.185   0.382
46980W        W 8269  42.318  36.000   3.221
46981W        W 8270  43.925  24.139   2.194
46982W        W 8271  21.680   8.177   1.437
46983W        W 8272  29.057   9.196  13.472
46984W        W 8273   5.438  31.113   1.318
46985W        W 8274   6.203  32.421  14.998
46986W        W 8275  15.735  17.234  11.565
46987W        W 8276  35.411  33.983  14.867
46988W        W 8277  10.866   6.787  12.505
46989W        W 8278  20.637  32.920  10.532
46990W        W 8279  25.206   0.337   1.727
46991W        W 8280  12.729  17.575  13.875
46992W        W 8281  30.468   7.865  13.859
46993W        W 8282  42.927  16.086  13.009
46994W        W 8283   2.764  22.999   2.357
46995W        W 8284  42.970   1.255  14.289
46996W        W 8285  38.021  15.093   4.115
46997W        W 8286  12.628  24.683   1.818
46998W        W 8287   3.716   1.916   0.397
46999W        W 8288  32.099  31.576  11.421
47000W        W 8289   6.748  17.734   4.732
47001W        W 8290  41.359   0.372   1.356
47002W        W 8291  24.200  27.094   4.323
47003W        W 8292   6.192  42.990   4.318
47004W        W 8293  18.192   3.303   2.261
47005W        W 8294   9.358  13.289  12.970
47006W        W 8295   1.471  11.222  10.560
47007W        W 8296  26.642  36.536  11.400
47008W        W 8297   0.344  29.038  14.772
47009W        W 8298  37.068  33.962  11.967
47010W        W 8299  41.362   4.303  10.532
47011W        W 8300  29.929  25.576   3.257
47012W        W 8301   9.887  18.667  13.834
47013W        W 8302  24.498  27.136  12.499
47014W        W 8303  14.149  30.149   2.362
47015W        W 8304   9.395  11.290  10.548
47016W        W 8305  35.424  22.746   4.752
47017W        W 8306  35.984  36.491  12.457
47018W        W 8307  31.924  17.699   1.391
47019W        W 8308  15.126  42.328  14.905
47020W        W 8309  42.352   8.810  13.979
47021W        W 8310  13.629  29.073   0.759
47022W        W 8311   2.231  32.029   0.477
47023W        W 8312   7.675   9.749   0.782
47024W        W 8313  33.436  40.524   3.285
47025W        W 8314  39.462   5.867   2.314
47026W        W 8315  38.941   4.850  12.020
47027W        W 8316  18.729   0.821   3.754
47028W        W 8317  29.983  29.633  14.389
47029W        W 8318  36.030   6.238  13.835
47030W        W 8319  19.215  33.040   3.779
47031W        W 8320   0.936  35.417   4.142
47032W        W 8321  25.545  22.181  13.996
47033W        W 8322   0.971  22.236   9.936
47034W        W 8323  42.809  35.542  12.010
47035W        W 8324  32.584  19.114  14.925
47036W        W 8325  29.172   8.217  10.512
47037W        W 8326   9.217  10.785  11.539
47038W        W 8327  20.741  41.802  11.974
47039W        W 8328  32.589   8.366   1.335
47040W        W 8329  30.611  26.038  10.411
47041W        W 8330   7.763  22.111   2.873
47042W        W 8331   2.769   1.291  13.812
47043W        W 8332  20.632  19.544  14.878
47044W        W 8333   5.860  11.709  12.037
47045W        W 8334   9.852  28.138   2.813
47046W        W 8335  23.064  44.320  10.053
47047W        W 8336  44.877  38.353  12.989
47048W        W 8337   7.732  31.971   1.445
47049W        W 8338  40.340  36.911   4.647
47050W        W 8339   5.246  37.951   1.233
47051W        W 8340  15.114  31.473   2.753
47052W        W 8341  37.529  12.807  10.492
47053W        W 8342  21.083  32.557  13.055
47054W        W 8343   7.858  25.549   1.396
47055W        W 8344  19.654  22.546  13.939
47056W        W 8345   3.264  40.996   1.309
47057W        W 8346  36.375   7.777   4.796
47058W        W 8347  19.270   5.424  11.049
47059W        W 8348   7.903  25.151   1.284
47060W        W 8349  23.013  27.486  12.454
47061W        W 8350  44.762  42.356  11.500
47062W        W 8351   5.197   4.245   0.739
47063W        W 8352  21.569  30.959  13.337
47064W        W 8353  25.623  14.662  14.292
47065W        W 8354  31.937  28.474  14.796
47066W        W 8355  13.676  26.643   3.174
47067W        W 8356  28.929  12.126  10.563
47068W        W 8357   6.820   9.155  11.874
47069W        W 8358   4.237  37.921   3.177
47070W        W 8359  41.348   6.421  14.464
47071W        W 8360  34.370  12.696   1.233
47072W        W 8361  22.133  36.932   0.480
47073W        W 8362  43.278  40.805  10.993
47074W        W 8363  37.972  12.823  11.870
47075W        W 8364  36.909  17.665  12.960
47076W        W 8365  17.608  44.938  13.362
47077W        W 8366  34.551  18.690   0.396
47078W        W 8367  14.817  41.386  12.863
47079W        W 8368   6.249  22.226   3.263
47080W        W 8369  13.842  12.686   4.255
47081W        W 8370  44.873  25.656  10.576
47082W        W 8371  32.459  24.484  13.535
47083W        W 8372  15.732   7.224  13.392
47084W        W 8373   8.334   9.374  14.818
47085W        W 8374  38.350   4.769  12.829
47086W        W 8375  28.672  19.248  12.567
47087W        W 8376  30.941   3.243  12.832
47088W        W 8377  28.138  30.466  13.877
47089W        W 8378  40.040   2.304  12.443
47090W        W 8379   0.311   8.378   2.396
47091W        W 8380  21.154  42.471   2.222
47092W        W 8381   6.816  30.115  11.998
47093W        W 8382  17.609  39.507  12.540
47094W        W 8383   7.808   7.887   3.687
47095W        W 8384  29.583  32.450  10.580
47096W        W 8385  25.695   6.724   0.371
47097W        W 8386  31.085  34.917  12.855
47098W        W 8387  11.141  24.683   2.858
47099W        W 8388  44.848  34.092  10.539
47100W        W 8389   6.412  15.258  10.041
47101W        W 8390   9.154  30.647   1.344
47102W        W 8391   8.739  21.220  12.901
47103W        W 8392  23.667  26.195   0.293
47104W        W 8393  10.154   4.899   0.462
47105W        W 8394  30.597  44.976  13.812
47106W        W 8395  13.173  35.597   3.277
47107W        W 8396  31.018  25.582   4.239
47108W        W 8397  15.112  18.224  12.469
47109W        W 8398  20.587  21.136  14.872
47110W        W 8399  25.672  18.554  10.419
47111W        W 8400  15.697  17.218   1.312
47112W        W 8401  16.110  17.782  13.060
47113W        W 8402  16.284  41.827  13.335
47114W        W 8403  31.905  22.713  14.968
47115W        W 8404  13.308  25.598  11.536
47116W        W 8405  26.138  31.954  10.426
47117W        W 8406  33.060  44.883  13.499
47118W        W 8407  15.621  30.551   4.148
47119W        W 8408  22.704  15.224  10.463
47120W        W 8409  17.633  39.340  11.094
47121W        W 8410  40.048   9.243   9.631
47122W        W 8411  17.242  16.197   3.226
47123W        W 8412  42.980  26.000  14.790
47124W        W 8413  22.171  12.636  12.066
47125W        W 8414  23.079   1.243  14.854
47126W        W 8415  20.263  18.622  14.302
47127W        W 8416   4.704   0.384   2.381
47128W        W 8417  28.960   1.763  13.480
47129W        W 8418  12.838  41.981   4.333
47130W        W 8419  29.941   8.271  10.411
47131W        W 8420   2.393  24.635   2.204
47132W        W 8421  15.232  25.108  12.891
47133W        W 8422   4.897   8.335  13.028
47134W        W 8423  37.355   8.810   4.279
47135W        W 8424  12.362  32.029   0.341
47136W        W 8425   8.736  41.019   4.667
47137W        W 8426  32.502  11.663   0.833
47138W        W 8427  40.806   4.872  10.482
47139W        W 8428  43.296  40.546  10.069
47140W        W 8429  28.106  42.938  14.027
47141W        W 8430   7.403  23.631  14.456
47142W        W 8431  21.215  27.501   3.240
47143W        W 8432  19.656   0.747  12.962
47144W        W 8433  43.325  30.977  11.584
47145W        W 8434   1.870   7.369   3.688
47146W        W 8435   4.446  10.372   0.314
47147W        W 8436  21.120  30.643   5.253
47148W        W 8437  22.250  21.199  14.927
47149W        W 8438  31.922  10.860  11.446
47150W        W 8439   0.489  10.718  13.029
47151W        W 8440  27.046  22.153  12.009
47152W        W 8441  11.654  33.903  13.852
47153W        W 8442  16.249  15.185   2.246
47154W        W 8443   4.413  25.709   4.238
47155W        W 8444  10.754  21.592  12.480
47156W        W 8445  34.454   7.359  14.458
47157W        W 8446   1.445  15.087  12.031
47158W        W 8447  44.888  16.277   0.800
47159W        W 8448  30.610   8.332  13.492
47160W        W 8449  38.354  39.043   0.831
47161W        W 8450   8.247   8.339  11.477
47162W        W 8451  30.930  14.287   2.850
47163W        W 8452  21.618  21.235  10.094
47164W        W 8453  41.989   6.238   3.835
47165W        W 8454  29.605  34.560  12.519
47166W        W 8455  10.855  19.222  11.465
47167W        W 8456  19.082  26.538  13.003
47168W        W 8457  36.377  27.943   4.268
47169W        W 8458   9.255   7.280  11.518
47170W        W 8459  22.598   6.424   2.673
47171W        W 8460  10.802  30.572   5.309
47172W        W 8461  30.551  43.432  10.427
47173W        W 8462  43.771  32.971   0.950
47174W        W 8463   2.386   2.880  14.286
47175W        W 8464   0.846  31.991  12.039
47176W        W 8465  29.581  17.252   3.638
47177W        W 8466   0.759  14.308   4.708
47178W        W 8467  25.027  39.507  13.848
47179W        W 8468  13.192  10.669  13.482
47180W        W 8469  33.008  33.992  10.521
47181W        W 8470  26.702   6.230  11.517
47182W        W 8471   0.430  11.329  13.806
47183W        W 8472  23.200   7.801  11.915
47184W        W 8473  29.601  13.188  14.904
47185W        W 8474  38.403  27.969  10.596
47186W        W 8475  25.546  36.465  13.401
47187W        W 8476  44.804  28.103   4.720
47188W        W 8477  33.591  43.290  11.091
47189W        W 8478   4.216  13.724   4.159
47190W        W 8479   8.716  28.050  14.318
47191W        W 8480  18.276   3.939   2.844
47192W        W 8481  29.657   2.242   2.705
47193W        W 8482  28.602  36.519   2.880
47194W        W 8483   8.768  25.205   1.908
47195W        W 8484  11.323  40.429   0.869
47196W        W 8485  13.642  27.017  12.871
47197W        W 8486  41.809  39.935  11.536
47198W        W 8487  17.567   9.161   2.872
47199W        W 8488  14.336  23.692  13.994
47200W        W 8489   1.385  22.525  13.002
47201W        W 8490  39.455  34.041   3.313
47202W        W 8491  18.104   6.706   3.805
47203W        W 8492  33.482  24.672   0.337
47204W        W 8493   0.315   5.844  11.098
47205W        W 8494   7.746  18.072   1.394
47206W        W 8495  36.844  10.353  13.828
47207W        W 8496   8.742  21.687   1.706
47208W        W 8497  16.116  14.104  14.482
47209W        W 8498  42.376  38.989  12.926
47210W        W 8499  35.467   9.789   1.869
47211W        W 8500  27.629  14.739  14.477
47212W        W 8501  20.263  41.844  10.493
47213W        W 8502   5.845  17.206  14.886
47214W        W 8503  35.044  37.382   5.156
47215W        W 8504  35.092  28.517  14.771
47216W        W 8505  26.145  17.765   0.744
47217W        W 8506  41.312  21.752   4.716
47218W        W 8507  21.228   5.374   0.832
47219W        W 8508  28.454  33.416   3.374
47220W        W 8509  15.117   5.900   4.629
47221W        W 8510  39.401  14.233  13.882
47222W        W 8511  19.687  43.900  14.892
47223W        W 8512  42.830  44.287   1.284
47224W        W 8513   1.357  24.154  13.913
47225W        W 8514  36.493  14.713   0.300
47226W        W 8515  44.325  19.558   4.753
47227W        W 8516  44.266  12.842  13.465
47228W        W 8517  33.111  21.154   2.250
47229W        W 8518  19.765  37.895  13.989
47230W        W 8519  36.005   1.905   3.689
47231W        W 8520   5.373  26.526  11.401
47232W        W 8521   3.811   4.348  14.847
47233W        W 8522   3.930   4.880  13.373
47234W        W 8523  33.938  36.000   1.276
47235W        W 8524  24.187  19.220  14.918
47236W        W 8525  17.074   9.161   0.391
47237W        W 8526   9.739  32.067  11.103
47238W        W 8527  15.294   6.691   2.193
47239W        W 8528  37.959  41.788   4.807
47240W        W 8529  38.335  15.639  10.438
47241W        W 8530  18.239  36.553   4.669
47242W        W 8531  12.622  33.595   2.224
47243W        W 8532  40.323  10.256   1.758
47244W        W 8533   1.324  15.101   4.738
47245W        W 8534   9.296   9.696   3.683
47246W        W 8535  35.912  35.434   4.662
47247W        W 8536   5.725  25.523   0.838
47248W        W 8537  34.865   0.474   1.700
47249W        W 8538  31.508  44.453   3.281
47250W        W 8539  43.376   2.327   4.241
47251W        W 8540  42.783  27.967  13.900
47252W        W 8541  15.253  29.641  13.855
47253W        W 8542   7.221   1.321  11.438
47254W        W 8543  21.137  22.041   1.823
47255W        W 8544  26.607  18.690  10.467
47256W        W 8545  22.167   0.841  13.407
47257W        W 8546  18.584  39.062  13.947
47258W        W 8547   7.393  44.870   1.399
47259W        W 8548  44.272  28.465   0.370
47260W        W 8549   3.346   5.438   0.402
47261W        W 8550  38.927  30.019  12.353
47262W        W 8551  27.048  36.863   4.281
47263W        W 8552  27.024  44.821   2.263
47264W        W 8553  16.227  12.720  10.411
47265W        W 8554  35.439  36.454   4.605
47266W        W 8555  19.244  31.475  13.353
47267W        W 8556  26.645  36.994   1.804
47268W        W 8557  22.658   3.396   3.385
47269W        W 8558  29.654  23.564  14.903
47270W        W 8559  27.152   6.892   2.196
47271W        W 8560   6.206  14.313  14.487
47272W        W 8561  25.473   7.706   0.837
47273W        W 8562  26.156  36.564  14.957
47274W        W 8563  18.776  34.426   4.634
47275W        W 8564  15.682   2.737   0.391
47276W        W 8565  11.146  10.365  13.455
47277W        W 8566  22.119  17.713  13.308
47278W        W 8567  35.083  21.539   3.190
47279W        W 8568   1.731   6.197  12.057
47280W        W 8569  29.532  20.763  14.342
47281W        W 8570  39.423   8.880   4.174
47282W        W 8571  19.768  29.666   1.869
47283W        W 8572  26.162  34.047   1.230
47284W        W 8573  14.709  22.134  13.958
47285W        W 8574  33.041   1.406  12.970
47286W        W 8575  44.502   2.795   0.780
47287W        W 8576  18.554  10.637  11.122
47288W        W 8577  31.898  12.669   3.722
47289W        W 8578  21.709  21.736  11.460
47290W        W 8579  35.988  16.318  12.531
47291W        W 8580  43.320  15.744   4.645
47292W        W 8581  38.407  29.639   4.675
47293W        W 8582  37.964  20.669  12.015
47294W        W 8583  32.502   2.232  14.802
47295W        W 8584  41.445  16.118  10.413
47296W        W 8585   2.262  34.001  11.928
47297W        W 8586  33.023  38.916   3.351
47298W        W 8587   1.334  40.515   1.386
47299W        W 8588   2.425   9.256   1.233
47300W        W 8589  21.623   6.218   4.806
47301W        W 8590  15.206  44.431   2.843
47302W        W 8591  21.023  23.513  13.497
47303W        W 8592  29.555  31.549  14.785
47304W        W 8593  20.188  26.653   1.382
47305W        W 8594  35.503  31.027  11.112
47306W        W 8595  17.655  29.104   1.872
47307W        W 8596   0.456  35.526  12.035
47308W        W 8597  27.952  42.896   0.906
47309W        W 8598  22.552   9.366  10.578
47310W        W 8599  35.577  16.100   1.713
47311W        W 8600   6.205  23.560  12.918
47312W        W 8601  38.416  40.369  13.024
47313W        W 8602  39.881  26.590  14.334
47314W        W 8603  27.992  26.085   3.170
47315W        W 8604  22.144  12.143  10.475
47316W        W 8605  22.108  12.260   1.385
47317W        W 8606  32.616  43.954   0.794
47318W        W 8607   2.854  19.055   0.915
47319W        W 8608   0.401  21.585   4.229
47320W        W 8609  21.733  12.318  10.423
47321W        W 8610   6.226  35.430   1.407
47322W        W 8611  15.101  41.482   0.310
47323W        W 8612  12.128  29.104   4.150
47324W        W 8613  18.246  22.120   1.922
47325W        W 8614  39.060  29.450  10.524
47326W        W 8615  17.284  20.683  11.532
47327W        W 8616  33.583  15.158   2.408
47328W        W 8617  40.343   0.365  13.498
47329W        W 8618   6.733   7.387  13.433
47330W        W 8619  21.181   6.184  12.545
47331W        W 8620  30.915  34.512   4.278
47332W        W 8621  28.065  38.430  14.357
47333W        W 8622  15.248   1.313  13.397
47334W        W 8623   5.331   4.332  12.471
47335W        W 8624  20.631  36.425   0.761
47336W        W 8625  42.831  28.084   1.257
47337W        W 8626   3.810   4.817   2.410
47338W        W 8627  29.656  30.094  11.417
47339W        W 8628  27.554  34.539   0.741
47340W        W 8629  11.220   8.207   2.796
47341W        W 8630  15.215   2.329   5.568
47342W        W 8631  38.411  23.987   3.816
47343W        W 8632   5.284  43.765   3.753
47344W        W 8633   5.361  24.670   0.312
47345W        W 8634  29.063  29.149   0.785
47346W        W 8635  10.297  19.701  14.015
47347W        W 8636  42.952  20.579   0.808
47348W        W 8637  20.580   0.256  13.365
47349W        W 8638  13.603  34.932  13.978
47350W        W 8639  40.912  36.863  13.944
47351W        W 8640  18.683   1.410  12.961
47352W        W 8641  23.209   8.233  13.059
47353W        W 8642  31.602  30.972   3.379
47354W        W 8643  44.367   4.804  14.833
47355W        W 8644  27.045  36.366  13.862
47356W        W 8645  36.882  44.990  12.524
47357W        W 8646  44.786  35.452   3.300
47358W        W 8647   3.217  19.612   3.236
47359W        W 8648  38.877   7.210   1.909
47360W        W 8649  34.023   7.402   0.916
47361W        W 8650  31.123  36.915  10.982
47362W        W 8651  34.936  11.211   0.249
47363W        W 8652  16.280  20.253   0.349
47364W        W 8653  16.616   2.801  11.422
47365W        W 8654  24.555  22.714  14.768
47366W        W 8655  19.206  38.948   0.394
47367W        W 8656  43.410   8.778  12.061
47368W        W 8657   4.717   8.395  10.911
47369W        W 8658  11.749  41.024  11.082
47370W        W 8659  14.591  32.908   1.832
47371W        W 8660  18.151  41.510   4.339
47372W        W 8661   3.876  27.679   1.399
47373W        W 8662  39.906   5.799   1.252
47374W        W 8663  32.015  17.584  11.989
47375W        W 8664  37.488  14.317   2.402
47376W        W 8665   0.799  11.766   4.779
47377W        W 8666  27.068  44.388  14.482
47378W        W 8667  38.040  26.691  11.606
47379W        W 8668  20.153  17.705   4.306
47380W        W 8669   1.265  22.743  10.492
47381W        W 8670   8.845  43.443  14.026
47382W        W 8671  30.503  40.379  11.042
47383W        W 8672  15.718  19.541  12.066
47384W        W 8673   2.316  41.367  13.022
47385W        W 8674   0.919  29.656  11.855
47386W        W 8675  16.095  35.583  14.310
47387W        W 8676  28.018  35.538  12.535
47388W        W 8677   3.363  25.062   2.777
47389W        W 8678   1.870  24.585  11.540
47390W        W 8679  22.202  30.429  14.777
47391W        W 8680   7.838   6.825   0.909
47392W        W 8681  10.793  22.549   0.384
47393W        W 8682  22.219  18.764   3.217
47394W        W 8683  30.483  25.037   1.861
47395W        W 8684   5.892  15.319   0.373
47396W        W 8685   2.427  13.202  11.998
47397W        W 8686   7.839  37.438   3.384
47398W        W 8687   4.900  38.949   2.886
47399W        W 8688  32.891  40.853  12.574
47400W        W 8689  27.123  30.643   5.289
47401W        W 8690  36.021  17.104   0.832
47402W        W 8691  20.131  32.083  11.011
47403W        W 8692  44.963  14.321  10.888
47404W        W 8693  22.586  13.127   3.727
47405W        W 8694  34.474  18.079  11.861
47406W        W 8695   3.266  19.622  11.016
47407W        W 8696  21.263  18.699   4.644
47408W        W 8697   7.270  13.610  14.005
47409W        W 8698  43.792  10.189   2.732
47410W        W 8699  39.511   1.321  12.407
47411W        W 8700  19.234  40.501  14.499
47412W        W 8701  10.172  25.052   0.468
47413W        W 8702  18.238  23.628   1.765
47414W        W 8703  31.477   3.880   0.905
47415W        W 8704  13.647  15.764  13.509
47416W        W 8705  25.031  33.944   2.251
47417W        W 8706   3.424  32.086  14.010
47418W        W 8707  22.187  22.580   2.212
47419W        W 8708  37.464  19.683   2.851
47420W        W 8709  38.345   0.346  11.955
47421W        W 8710  30.120  23.127   1.318
47422W        W 8711   6.839  12.142  11.484
47423W        W 8712   8.658   1.434  12.864
47424W        W 8713  39.971  44.935  11.086
47425W        W 8714  19.073   0.859  13.399
47426W        W 8715  34.928  39.508   0.343
47427W        W 8716  43.463  20.587   1.244
47428W        W 8717  20.109  41.447   1.731
47429W        W 8718  16.187   9.186  13.456
47430W        W 8719   7.786  31.114   1.702
47431W        W 8720  17.222  43.289  14.930
47432W        W 8721  21.696  23.697  11.502
47433W        W 8722  43.832  41.856   2.741
47434W        W 8723  29.939  31.475   1.890
47435W        W 8724  16.584   0.268  12.365
47436W        W 8725  14.804  44.963   5.292
47437W        W 8726   7.417  30.039  14.943
47438W        W 8727  43.281  16.627  13.318
47439W        W 8728  33.558   9.653  10.932
47440W        W 8729  32.049   6.245  13.046
47441W        W 8730  18.694   3.840   0.899
47442W        W 8731  13.827  12.681  12.831
47443W        W 8732   7.873  20.576  13.472
47444W        W 8733  22.055  20.181  10.948
47445W        W 8734  40.808  40.954   2.388
47446W        W 8735  13.183   7.398  13.421
47447W        W 8736  44.301  26.557   4.330
47448W        W 8737  36.911   3.289  11.064
47449W        W 8738  35.509  27.654   2.300
47450W        W 8739   7.692  44.766  10.575
47451W        W 8740  28.567  44.924   0.738
47452W        W 8741  30.133  43.444  13.040
47453W        W 8742  19.730  21.209  10.927
47454W        W 8743  24.479   5.341   0.419
47455W        W 8744   3.282  22.670  12.398
47456W        W 8745  10.341  23.045  11.503
47457W        W 8746   5.312  43.503   3.230
47458W        W 8747  41.795  24.995  13.544
47459W        W 8748  24.073   5.797   0.953
47460W        W 8749   7.875   4.909   4.759
47461W        W 8750  10.228  14.813   3.380
47462W        W 8751  14.227  20.657  12.502
47463W        W 8752   9.339  38.388   1.887
47464W        W 8753  33.055  24.624  11.099
47465W        W 8754  23.989  28.510   3.730
47466W        W 8755  42.800  10.224   0.275
47467W        W 8756  43.020  27.992   2.819
47468W        W 8757  30.966   3.859  14.428
47469W        W 8758  28.611  36.996  14.891
47470W        W 8759  35.092  31.073  13.816
47471W        W 8760  28.137  11.644   5.206
47472W        W 8761  15.774  16.635   1.242
47473W        W 8762  14.781   6.916  10.480
47474W        W 8763  25.498   1.817   0.924
47475W        W 8764  13.150  23.632   0.342
47476W        W 8765  24.035   3.326  14.762
47477W        W 8766  36.534  38.874  13.879
47478W        W 8767   3.943  20.544   2.839
47479W        W 8768   3.284   1.813  13.504
47480W        W 8769  35.462   2.819  10.927
47481W        W 8770  31.116   4.238  13.028
47482W        W 8771  14.228  20.100  13.834
47483W        W 8772  39.347  24.508   1.425
47484W        W 8773  35.911  33.029  13.544
47485W        W 8774  30.418  21.566  12.863
47486W        W 8775  36.568   1.316   3.783
47487W        W 8776  13.136  33.497  12.064
47488W        W 8777  32.626   5.913  12.010
47489W        W 8778  20.631  41.331  14.910
47490W        W 8779  28.950  25.975   4.618
47491W        W 8780  30.599   3.906  13.496
47492W        W 8781  41.990  26.039   2.778
47493W        W 8782  40.955  16.274  14.801
47494W        W 8783  19.755  13.275   4.309
47495W        W 8784  28.534  13.225   1.335
47496W        W 8785   2.833  33.456  12.900
47497W        W 8786  25.977  37.348  10.957
47498W        W 8787  28.478   0.974   3.815
47499W        W 8788  39.541  36.031   1.247
47500W        W 8789  26.022  44.784  13.026
47501W        W 8790  31.100  36.024  14.784
47502W        W 8791  19.054  26.514  10.538
47503W        W 8792   6.307  33.591  10.062
47504W        W 8793  35.498  41.415  10.968
47505W        W 8794  10.291  41.902  10.636
47506W        W 8795  12.767  25.215   1.317
47507W        W 8796  42.303  19.773  10.929
47508W        W 8797  35.024  37.070  14.321
47509W        W 8798  32.600  43.817   1.333
47510W        W 8799  12.686  37.457   4.124
47511W        W 8800  10.660   6.252   4.345
47512W        W 8801  38.346  34.470   4.307
47513W        W 8802   4.769  25.551  11.935
47514W        W 8803  32.029  22.161  14.813
47515W        W 8804  38.523  30.015   2.295
47516W        W 8805  28.935  14.716  12.457
47517W        W 8806  16.312   0.948   4.279
47518W        W 8807  26.522  26.975   4.222
47519W        W 8808   0.293  14.675   2.300
47520W        W 8809  32.470  39.904   0.801
47521W        W 8810  42.365  15.129  11.430
47522W        W 8811   6.393  23.059  14.970
47523W        W 8812   9.361   7.189   0.310
47524W        W 8813  25.194  25.163   0.311
47525W        W 8814  33.903  29.079  14.900
47526W        W 8815  16.260  17.604  10.999
47527W        W 8816  25.682  32.589   2.183
47528W        W 8817  25.536  24.536   5.283
47529W        W 8818   8.680  11.716  12.978
47530W        W 8819  24.100  44.400   2.852
47531W        W 8820  10.692  34.516  11.991
47532W        W 8821  36.036   2.918  13.449
47533W        W 8822  44.972   5.346   3.335
47534W        W 8823  39.513   4.702  10.920
47535W        W 8824  18.681  18.104  10.529
47536W        W 8825   7.818   7.724   1.435
47537W        W 8826   8.161   0.952   3.639
47538W        W 8827  12.291  15.617  14.910
47539W        W 8828  10.741  40.881   0.361
47540W        W 8829  14.643  10.864  12.895
47541W        W 8830  21.200  39.465  13.946
47542W        W 8831   8.181  27.190   3.353
47543W        W 8832   4.803  13.246  13.992
47544W        W 8833  27.527  24.077  14.931
47545W        W 8834   3.448  22.225  12.833
47546W        W 8835  20.553  42.521   1.889
47547W        W 8836  25.639   0.332  11.086
47548W        W 8837   8.220  34.904  12.515
47549W        W 8838  15.677   1.466   0.803
47550W        W 8839  41.811  34.557  12.477
47551W        W 8840   9.885  13.324   4.196
47552W        W 8841  11.679  28.007   2.312
47553W        W 8842  35.384   2.337   0.872
47554W        W 8843  33.518  35.546   3.264
47555W        W 8844  14.667   9.241   2.368
47556W        W 8845  41.973  19.136  14.838
47557W        W 8846  31.509  27.512  10.536
47558W        W 8847  22.693  20.039   4.206
47559W        W 8848  41.990  14.820   1.432
47560W        W 8849   1.449  39.427  13.498
47561W        W 8850  21.589  36.033  10.955
47562W        W 8851  28.530  21.754  14.900
47563W        W 8852  15.662   7.770   0.252
47564W        W 8853   4.824  19.542   3.715
47565W        W 8854  30.102  30.525  13.534
47566W        W 8855  18.722  34.573  14.866
47567W        W 8856  26.523  43.329  14.409
47568W        W 8857  40.542  23.688  12.495
47569W        W 8858  13.145  14.773   1.906
47570W        W 8859   7.874  16.787   0.482
47571W        W 8860  43.867  21.212  11.535
47572W        W 8861  11.162   5.795   0.358
47573W        W 8862  19.603  36.446   3.321
47574W        W 8863  16.614  44.964  12.487
47575W        W 8864  34.938   7.816  14.871
47576W        W 8865  43.493  23.006  14.365
47577W        W 8866  23.086  24.508   4.643
47578W        W 8867  39.045   3.287   4.752
47579W        W 8868  26.132  29.085  12.968
47580W        W 8869  32.072  15.155  11.446
47581W        W 8870   2.831  39.990  11.106
47582W        W 8871  29.588   5.718   1.312
47583W        W 8872  23.509  39.852   0.419
47584W        W 8873  15.805   9.649  11.069
47585W        W 8874  31.580  42.446   2.378
47586W        W 8875  44.940  18.766  13.322
47587W        W 8876  11.824  39.467   3.697
47588W        W 8877  37.387  15.295   4.246
47589W        W 8878   7.242   7.266  14.889
47590W        W 8879  29.499  24.625  13.027
47591W        W 8880  30.487  16.725   0.413
47592W        W 8881  32.042   7.793   0.963
47593W        W 8882  35.489  26.065   2.900
47594W        W 8883  40.519  21.616  13.312
47595W        W 8884   9.801  10.666   3.808
47596W        W 8885  43.314  32.585   1.839
47597W        W 8886  25.074  27.536   3.824
47598W        W 8887   3.299  11.663   2.290
47599W        W 8888  13.225   8.330  13.794
47600W        W 8889  41.005   3.363  12.569
47601W        W 8890  24.639  14.137   3.343
47602W        W 8891  38.969   5.799  13.863
47603W        W 8892  10.334  10.713  11.071
47604W        W 8893   8.285  35.508   2.354
47605W        W 8894  42.871  16.735   2.807
47606W        W 8895   7.833  36.089  12.944
47607W        W 8896   6.832  37.935  12.010
47608W        W 8897  19.686  33.524  14.830
47609W        W 8898  39.988  36.847  13.867
47610W        W 8899  39.444  24.198  12.014
47611W        W 8900   3.217   0.794  11.030
47612W        W 8901  17.184   9.763   0.385
47613W        W 8902  22.251   2.252   3.163
47614W        W 8903  19.116  18.104  12.502
47615W        W 8904  40.503  41.817   4.318
47616W        W 8905   4.749   3.277  12.952
47617W        W 8906  29.969  16.644   0.436
47618W        W 8907  22.594  29.140  11.436
47619W        W 8908  37.388   7.324   9.939
47620W        W 8909  29.482  44.975  12.411
47621W        W 8910   9.833  29.991   2.670
47622W        W 8911   9.179  17.283   4.170
47623W        W 8912  34.006  18.144   4.276
47624W        W 8913  15.642  12.228  13.808
47625W        W 8914  15.094  28.483  10.561
47626W        W 8915  17.760  43.426  12.393
47627W        W 8916   2.262   1.238   0.401
47628W        W 8917  35.527  43.443   3.275
47629W        W 8918   9.204  10.293   3.674
47630W        W 8919  20.562   2.366  12.963
47631W        W 8920  44.963  44.988  11.577
47632W        W 8921  15.286  11.315  12.529
47633W        W 8922  15.228  11.668  12.557
47634W        W 8923  26.673   2.345   2.663
47635W        W 8924  14.595   7.752   4.746
47636W        W 8925   3.293   1.324   2.328
47637W        W 8926  31.996  11.739   1.279
47638W        W 8927  32.048  20.640   3.347
47639W        W 8928  23.117   4.237   0.830
47640W        W 8929  14.810  14.257   1.262
47641W        W 8930  13.324  15.165   4.709
47642W        W 8931   4.874  15.147  10.644
47643W        W 8932  22.158  28.066   4.772
47644W        W 8933  28.493  28.537  13.511
47645W        W 8934   7.780  28.672  13.810
47646W        W 8935  39.012  30.034  13.539
47647W        W 8936  27.997   7.329  10.559
47648W        W 8937   1.864  19.091   2.708
47649W        W 8938  41.449  43.508   3.786
47650W        W 8939   4.941  35.067   0.436
47651W        W 8940   5.706  13.261  12.366
47652W        W 8941  20.583  18.125  14.807
47653W        W 8942  33.468  24.126   3.310
47654W        W 8943  10.243  35.052  13.395
47655W        W 8944  21.741   3.853   1.276
47656W        W 8945  18.083  40.014  14.493
47657W        W 8946  39.446  44.482   1.211
47658W        W 8947  39.364   9.649   2.873
47659W        W 8948  33.876  43.322   1.242
47660W        W 8949   4.421  43.473  11.597
47661W        W 8950   2.336   2.953   4.705
47662W        W 8951  42.981   4.850   1.696
47663W        W 8952  10.226  36.885   5.571
47664W        W 8953   6.190  35.881   1.788
47665W        W 8954  24.534   1.868  11.402
47666W        W 8955  36.893   3.381   1.323
47667W        W 8956  17.083   7.815  14.868
47668W        W 8957  35.949  25.109   5.278
47669W        W 8958   6.783  41.452   3.803
47670W        W 8959  42.803  27.630  14.362
47671W        W 8960  18.103  37.554   3.841
47672W        W 8961  11.162  38.499  13.999
47673W        W 8962  11.313   0.356  13.011
47674W        W 8963   7.795  37.030   1.431
47675W        W 8964  25.712  25.092   5.213
47676W        W 8965   3.414  11.336  12.436
47677W        W 8966  11.632   3.348   1.874
47678W        W 8967  37.900  42.409  14.973
47679W        W 8968  38.358  40.013  14.462
47680W        W 8969  33.569  27.578   4.612
47681W        W 8970  12.808  42.327   4.273
47682W        W 8971  18.718   8.174  13.942
47683W        W 8972  18.061  32.494  14.007
47684W        W 8973  17.608  43.018  12.503
47685W        W 8974   9.367  14.595  14.868
47686W        W 8975  27.645  30.656   4.734
47687W        W 8976   9.201   7.347  14.995
47688W        W 8977  41.495  38.862  13.467
47689W        W 8978  15.743  38.895  13.542
47690W        W 8979  22.077   5.196  11.872
47691W        W 8980  21.183  33.545  10.442
47692W        W 8981   7.852  14.689  10.404
47693W        W 8982  40.023  20.101   1.395
47694W        W 8983  28.111   5.356  14.903
47695W        W 8984  29.581  33.068  14.767
47696W        W 8985   4.316  21.524   0.947
47697W        W 8986  22.524  11.128   2.397
47698W        W 8987  36.347  34.875   3.633
47699W        W 8988  21.254  18.093  13.859
47700W        W 8989  39.813  14.123   2.251
47701W        W 8990   1.801  37.485  13.959
47702W        W 8991   3.251  18.591   1.313
47703W        W 8992  33.530  32.506   2.344
47704W        W 8993  44.285  37.025  11.954
47705W        W 8994  43.455  18.084  12.482
47706W        W 8995  42.970  37.080   1.392
47707W        W 8996  34.069  30.503  11.584
47708W        W 8997  43.950  16.165   3.809
47709W        W 8998  37.979  12.285   3.793
47710W        W 8999  11.726   9.656   2.822
47711W        W 9000  43.824  29.588  11.948
47712W        W 9001  24.132  33.911  11.581
47713W        W 9002  20.532  15.597  13.981
47714W        W 9003  10.180  25.198  12.061
47715W        W 9004   0.918  26.002  12.471
47716W        W 9005  24.544  38.463  14.765
47717W        W 9006  22.206  44.379  14.474
47718W        W 9007  31.989  25.615  10.605
47719W        W 9008   4.297  13.679  11.443
47720W        W 9009  19.602  31.911   3.350
47721W        W 9010  18.702  42.870   0.900
47722W        W 9011  24.572  38.970   2.240
47723W        W 9012  21.255  28.681   0.281
47724W        W 9013  34.005  19.591   2.202
47725W        W 9014  35.592  16.216  11.945
47726W        W 9015  20.658  36.048  10.529
47727W        W 9016  37.524  37.343  10.934
47728W        W 9017  15.644   7.282   3.264
47729W        W 9018  37.081  13.693  10.497
47730W        W 9019  37.412  28.019  11.582
47731W        W 9020  15.176  36.896  13.984
47732W        W 9021  18.682  29.144  14.307
47733W        W 9022  33.942   8.774   0.259
47734W        W 9023  21.748  10.668  10.890
47735W        W 9024  41.036  39.032   0.890
47736W        W 9025   6.197  37.990   1.360
47737W        W 9026   7.252  38.027  11.583
47738W        W 9027  35.075   2.340  14.760
47739W        W 9028   0.303  42.987   0.310
47740W        W 9029   4.422   8.866  10.959
47741W        W 9030   0.327  25.554  11.571
47742W        W 9031  23.230  23.663   4.212
47743W        W 9032  44.268  32.970   2.737
47744W        W 9033  31.988  22.606  11.497
47745W        W 9034  18.755  30.547  12.035
47746W        W 9035  25.688  16.726   2.387
47747W        W 9036  31.060  28.174   1.415
47748W        W 9037  34.928  35.928  14.982
47749W        W 9038   8.185  25.475  12.096
47750W        W 9039  38.338  23.733   3.300
47751W        W 9040  37.915   8.288   1.785
47752W        W 9041  40.415  10.186   4.338
47753W        W 9042   9.213  42.874   1.935
47754W        W 9043  18.712  44.444   5.105
47755W        W 9044  11.749  38.561  11.465
47756W        W 9045  23.056  15.226  13.361
47757W        W 9046  11.724   1.242  12.510
47758W        W 9047  40.397   0.364  11.991
47759W        W 9048  13.653  28.625  13.042
47760W        W 9049  22.673  44.437  12.962
47761W        W 9050  21.627  11.668   1.351
47762W        W 9051  14.819  43.816  12.863
47763W        W 9052  43.836  40.838   0.407
47764W        W 9053  41.794  35.571  12.888
47765W        W 9054   3.411  40.827   3.685
47766W        W 9055  14.685   8.766  14.908
47767W        W 9056  34.500   6.817  12.552
47768W        W 9057  12.663   5.318  14.975
47769W        W 9058  29.508  15.704  10.146
47770W        W 9059   3.755  27.073   4.221
47771W        W 9060  14.149  40.339   2.901
47772W        W 9061   9.845   2.842   4.277
47773W        W 9062  15.785  42.290   4.821
47774W        W 9063  14.623  27.194  10.499
47775W        W 9064  11.181  17.172  14.775
47776W        W 9065  25.616  16.670   0.802
47777W        W 9066   1.305  43.930   3.702
47778W        W 9067  35.472  40.494   1.305
47779W        W 9068  39.032  10.670   2.375
47780W        W 9069  42.332  13.726   1.416
47781W        W 9070  41.517  15.321   2.899
47782W        W 9071   6.228  23.658   9.495
47783W        W 9072   0.286  35.104  11.477
47784W        W 9073  32.007  37.996  11.448
47785W        W 9074  36.430  13.809   1.742
47786W        W 9075  29.587  14.717   3.158
47787W        W 9076  31.909  42.316  11.377
47788W        W 9077   9.739  35.552  11.885
47789W        W 9078  23.126  22.033   1.250
47790W        W 9079  18.618  37.074  14.465
47791W        W 9080  35.877   2.226  12.417
47792W        W 9081   4.864   8.262   5.114
47793W        W 9082  35.367  16.084  14.885
47794W        W 9083   6.715  31.595   0.353
47795W        W 9084   8.678   2.434   4.718
47796W        W 9085  39.984  10.787   1.249
47797W        W 9086  34.439  28.646   4.145
47798W        W 9087   7.741  37.498  13.521
47799W        W 9088  39.480  42.953  14.425
47800W        W 9089   9.152   2.458  11.937
47801W        W 9090  24.702  10.217  11.978
47802W        W 9091   0.832  17.612   1.895
47803W        W 9092  26.666  16.662  12.926
47804W        W 9093  14.801  13.241   2.352
47805W        W 9094  27.565  44.838  13.322
47806W        W 9095  35.541  28.491   0.260
47807W        W 9096   4.782  44.482   4.308
47808W        W 9097   2.398   4.323  11.878
47809W        W 9098  44.344   0.467  11.448
47810W        W 9099  27.978  20.716  14.906
47811W        W 9100  32.579  10.748   1.865
47812W        W 9101  25.134   7.753   4.771
47813W        W 9102  28.629  38.003  12.960
47814W        W 9103  22.114  19.164  11.050
47815W        W 9104   0.252  14.608   1.738
47816W        W 9105  14.153  17.569  12.998
47817W        W 9106  18.659  26.543   2.838
47818W        W 9107  17.176  25.132  12.538
47819W        W 9108  27.606  17.089   2.413
47820W        W 9109  15.172   0.882   3.779
47821W        W 9110  35.577  27.987  13.006
47822W        W 9111  39.916   3.226   0.321
47823W        W 9112  38.488  24.194   4.185
47824W        W 9113  42.927  36.901  14.513
47825W        W 9114  12.653  16.761  14.826
47826W        W 9115  43.440  21.259   1.720
47827W        W 9116  33.491  19.116  14.881
47828W        W 9117  24.987   1.317  14.802
47829W        W 9118  20.058  32.044  10.071
47830W        W 9119   2.299  34.416   1.405
47831W        W 9120  31.947   9.869   1.373
47832W        W 9121   1.961  36.954  12.422
47833W        W 9122  40.471  15.094   4.768
47834W        W 9123  30.601  15.582   4.276
47835W        W 9124  11.694  43.916  13.381
47836W        W 9125  16.784  22.146   5.787
47837W        W 9126  26.646  25.140  12.955
47838W        W 9127  21.040  25.545   1.823
47839W        W 9128  12.122  12.235  11.510
47840W        W 9129  41.803  25.215   5.124
47841W        W 9130  20.139  27.515   2.695
47842W        W 9131   9.211  38.554  12.542
47843W        W 9132  28.184  14.262   0.276
47844W        W 9133  13.634  18.645  10.946
47845W        W 9134   1.837  40.410   3.773
47846W        W 9135  24.539  10.224   0.886
47847W        W 9136  20.635  39.367  12.504
47848W        W 9137  34.419  32.448   2.372
47849W        W 9138  15.791  18.740  10.519
47850W        W 9139   8.857   6.418   2.362
47851W        W 9140  30.516  23.011  12.550
47852W        W 9141  20.050  35.485  13.421
47853W        W 9142   9.353   1.414  10.608
47854W        W 9143  27.110  44.274   1.353
47855W        W 9144  15.804  16.139  14.951
47856W        W 9145   3.833  34.038   2.355
47857W        W 9146   6.224  43.439  12.370
47858W        W 9147  21.256  17.250   1.273
47859W        W 9148  13.196  17.667  12.942
47860W        W 9149  39.390  12.689  10.422
47861W        W 9150   5.398   0.314   2.725
47862W        W 9151  16.318   1.443   1.865
47863W        W 9152  17.079  13.154   4.170
47864W        W 9153   1.370   6.852   3.798
47865W        W 9154   5.285  17.791   3.189
47866W        W 9155   7.880  23.089  10.587
47867W        W 9156  21.739   0.791   4.740
47868W        W 9157  33.875   1.907   0.267
47869W        W 9158  19.113   6.255  10.472
47870W        W 9159  42.819  35.894  12.020
47871W        W 9160  20.045  26.195   4.158
47872W        W 9161   1.287  15.662  12.530
47873W        W 9162  21.133  30.482  10.917
47874W        W 9163  25.123  15.596   0.887
47875W        W 9164  44.957  14.334  13.435
47876W        W 9165  13.666   6.325   4.275
47877W        W 9166  33.519   4.448  12.981
47878W        W 9167  22.506  24.589   2.242
47879W        W 9168  24.597  37.870  11.040
47880W        W 9169  32.129  14.769  12.836
47881W        W 9170  23.213  28.618   3.816
47882W        W 9171  23.543  32.061  14.970
47883W        W 9172  19.658  30.426  13.502
47884W        W 9173  31.986  24.635   2.269
47885W        W 9174  16.279  27.654  12.890
47886W        W 9175  11.155  33.599  14.999
47887W        W 9176  28.545   7.750  13.471
47888W        W 9177  31.634  26.514  14.884
47889W        W 9178  37.046  33.590  14.462
47890W        W 9179  18.644  27.088  13.462
47891W        W 9180  33.485  23.158   0.800
47892W        W 9181  27.608  11.675  13.378
47893W        W 9182  18.697  28.112   2.294
47894W        W 9183  41.336   0.397  11.575
47895W        W 9184   3.795  26.534  13.906
47896W        W 9185  12.185  21.749  14.989
47897W        W 9186  12.126   2.426   4.345
47898W        W 9187   6.797   7.755   1.711
47899W        W 9188  14.650  27.019   4.348
47900W        W 9189  28.174  42.370  11.882
47901W        W 9190  14.246   2.370  13.544
47902W        W 9191  14.242  22.066  13.835
47903W        W 9192  19.172  44.264   3.768
47904W        W 9193  31.523  11.362   3.655
47905W        W 9194  39.915  10.263   3.637
47906W        W 9195  28.555  41.877  12.870
47907W        W 9196  28.015  29.013   2.792
47908W        W 9197   7.297  42.467  11.072
47909W        W 9198  23.070  42.997  13.455
47910W        W 9199  37.905  39.042   2.717
47911W        W 9200   3.275  21.083  11.032
47912W        W 9201  14.172  25.165   2.662
47913W        W 9202  41.843  44.903  11.409
47914W        W 9203   5.240  37.860  13.424
47915W        W 9204  13.618  25.485  12.029
47916W        W 9205   8.311   4.400  14.465
47917W        W 9206   9.880   4.907   4.643
47918W        W 9207   5.867  26.168   4.737
47919W        W 9208  41.821   3.452   1.853
47920W        W 9209  13.211  44.981   5.095
47921W        W 9210  23.194  23.086   4.606
47922W        W 9211  27.464  16.720   0.956
47923W        W 9212  17.258  15.285   4.163
47924W        W 9213  19.155  27.500  13.999
47925W        W 9214  11.675  36.572   1.865
47926W        W 9215  11.823  16.306  13.816
47927W        W 9216   7.771  20.253   4.757
47928W        W 9217  36.901  40.335  12.518
47929W        W 9218   1.392  43.372   0.826
47930W        W 9219  43.992  37.566   1.861
47931W        W 9220  38.038  17.750  14.889
47932W        W 9221  18.146   6.252   4.724
47933W        W 9222  34.090  36.439   4.803
47934W        W 9223  22.526  36.994   0.393
47935W        W 9224  34.610  17.773   1.904
47936W        W 9225   7.327  20.082   1.798
47937W        W 9226  11.250  37.948  11.077
47938W        W 9227   9.350  43.482   0.731
47939W        W 9228   3.858   6.299  11.593
47940W        W 9229  24.044  40.872  14.378
47941W        W 9230  12.134  12.805   3.705
47942W        W 9231  16.099  11.294   1.299
47943W        W 9232  16.120   5.732   1.781
47944W        W 9233  34.098  25.081   1.254
47945W        W 9234  26.461  27.473  11.963
47946W        W 9235  28.060  33.974  11.492
47947W        W 9236   0.360  23.232   1.791
47948W        W 9237  44.971  34.432  12.076
47949W        W 9238  33.398  43.900  13.348
47950W        W 9239   6.770  43.386   1.895
47951W        W 9240  13.670  17.075  13.791
47952W        W 9241  21.657  42.476   4.128
47953W        W 9242  30.020  12.692   3.832
47954W        W 9243  16.293  41.962   3.778
47955W        W 9244   0.488  30.496   4.120
47956W        W 9245  33.445  29.016  14.892
47957W        W 9246  29.071  32.958   1.433
47958W        W 9247  19.585  34.521  13.444
47959W        W 9248  28.662  17.203   0.847
47960W        W 9249   7.245  42.866  11.055
47961W        W 9250  15.201  41.961  14.422
47962W        W 9251  37.579  24.712  12.342
47963W        W 9252  25.143   2.362  13.348
47964W        W 9253   4.334  32.023  11.010
47965W        W 9254  20.253  24.567   0.478
47966W        W 9255  20.223  23.582  14.772
47967W        W 9256  44.915  34.059  12.459
47968W        W 9257  14.258  22.597   9.996
47969W        W 9258  23.211  23.019   4.154
47970W        W 9259  24.706  14.305  12.439
47971W        W 9260  27.686  36.955  11.124
47972W        W 9261  36.929   4.836   1.224
47973W        W 9262   9.727  27.013  12.574
47974W        W 9263  33.390   5.429   3.328
47975W        W 9264  34.487  29.983   0.423
47976W        W 9265  18.203  25.572   4.705
47977W        W 9266  22.556  20.747   4.251
47978W        W 9267   7.729  12.695   1.400
47979W        W 9268  23.714   1.271   1.444
47980W        W 9269  12.289  35.556  11.456
47981W        W 9270   9.861   0.349   3.646
47982W        W 9271  18.723  10.368  13.313
47983W        W 9272  34.872  14.244   3.251
47984W        W 9273  22.062  31.090   1.846
47985W        W 9274  18.072  26.521   1.753
47986W        W 9275   0.373  31.035   3.248
47987W        W 9276  26.622  12.790  14.484
47988W        W 9277  10.171  43.398   2.754
47989W        W 9278  31.581  30.611  11.115
47990W        W 9279   7.230  38.530   3.729
47991W        W 9280  39.843  32.049   0.893
47992W        W 9281  27.941  31.911  13.349
47993W        W 9282  33.065  10.806  12.848
47994W        W 9283  20.545  35.421   0.787
47995W        W 9284  10.783   8.853   3.173
47996W        W 9285  43.355  25.675   2.847
47997W        W 9286  23.607   0.921  14.794
47998W        W 9287   2.744  23.636   1.292
47999W        W 9288   8.231   6.742   2.713
48000W        W 9289  26.678  17.124   5.301
48001W        W 9290   6.265  16.767  10.122
48002W        W 9291  12.317  19.536   4.256
48003W        W 9292  39.375   5.775  10.519
48004W        W 9293   1.375   8.832   0.390
48005W        W 9294   0.290   5.765   1.347
48006W        W 9295  12.665  15.704   3.664
48007W        W 9296  13.280   7.310  13.047
48008W        W 9297  20.710  28.440   2.799
48009W        W 9298   1.342   6.354  13.456
48010W        W 9299   2.453  43.306   2.664
48011W        W 9300  20.249  34.119  14.951
48012W        W 9301   2.411  10.372  12.472
48013W        W 9302   9.838  38.019  10.951
48014W        W 9303  44.929  42.505  12.524
48015W        W 9304  30.463  20.581  12.091
48016W        W 9305  44.430   4.942   9.954
48017W        W 9306  17.242  27.022   0.765
48018W        W 9307   7.340  34.390  10.060
48019W        W 9308  41.458   3.865  10.620
48020W        W 9309  28.629  31.509   1.715
48021W        W 9310  34.523   9.237   2.775
48022W        W 9311  15.810  12.280  12.940
48023W        W 9312   8.223   8.246   4.773
48024W        W 9313  44.009  10.837   0.403
48025W        W 9314  24.084  25.709  13.033
48026W        W 9315  10.321  26.997   0.407
48027W        W 9316   9.207  15.229  14.347
48028W        W 9317  19.573  40.381  13.969
48029W        W 9318  29.499   4.792  13.358
48030W        W 9319  15.167  43.894  10.584
48031W        W 9320  39.321  16.107   1.899
48032W        W 9321  28.536  24.675  12.880
48033W        W 9322   2.402  38.880   1.762
48034W        W 9323  31.922  16.159  13.877
48035W        W 9324  44.445  16.293   0.869
48036W        W 9325  26.191  31.509  14.785
48037W        W 9326  34.010  13.246   3.258
48038W        W 9327  25.622   0.857  13.947
48039W        W 9328  40.489  22.544  13.024
48040W        W 9329  34.514  43.892   4.197
48041W        W 9330  28.150   8.167   0.947
48042W        W 9331  44.380  12.824   0.331
48043W        W 9332   5.729  36.904  10.585
48044W        W 9333  14.613  26.513  13.038
48045W        W 9334  30.533  43.290  10.950
48046W        W 9335  28.500  30.102   0.746
48047W        W 9336  18.641  33.947   3.799
48048W        W 9337  36.859  14.329   2.352
48049W        W 9338  43.368  13.312  10.609
48050W        W 9339   9.791  36.027   4.628
48051W        W 9340   0.358   2.761  13.932
48052W        W 9341  21.566  33.877   3.668
48053W        W 9342   2.401  20.040  13.480
48054W        W 9343  25.490  28.618  13.826
48055W        W 9344  11.225  41.866  13.353
48056W        W 9345  18.116  30.128  10.455
48057W        W 9346  30.443  11.634  10.566
48058W        W 9347   3.744  31.445  10.439
48059W        W 9348  21.141   6.408   2.280
48060W        W 9349  32.908   8.370   2.234
48061W        W 9350  16.184   6.885  14.275
48062W        W 9351  41.367  16.788   0.756
48063W        W 9352  40.807   7.846   4.629
48064W        W 9353  42.389  25.677   1.342
48065W        W 9354  17.305   2.963  14.348
48066W        W 9355  27.085  41.941   1.769
48067W        W 9356  32.418  23.542   4.638
48068W        W 9357  40.873  35.594  10.627
48069W        W 9358  17.275  16.250  10.542
48070W        W 9359  17.663  32.913   0.818
48071W        W 9360  33.470  38.860  13.948
48072W        W 9361  22.510   3.253   5.136
48073W        W 9362  26.160  12.751  12.051
48074W        W 9363  34.574  16.689  13.810
48075W        W 9364  35.891  36.442  14.485
48076W        W 9365  40.924  25.678   1.804
48077W        W 9366   2.766  11.320  11.084
48078W        W 9367   6.277  35.468  13.809
48079W        W 9368  28.628  34.946   4.711
48080W        W 9369  35.548  20.052   2.678
48081W        W 9370  39.006  17.286  11.553
48082W        W 9371  23.157   2.314  14.989
48083W        W 9372  38.827   1.381  11.949
48084W        W 9373   4.318  29.932  11.607
48085W        W 9374  28.576  34.951   2.711
48086W        W 9375  44.947   5.365  13.845
48087W        W 9376  41.433  38.909   1.220
48088W        W 9377  10.274  33.928  14.929
48089W        W 9378  11.866  38.983   2.730
48090W        W 9379  12.305  15.589   0.366
48091W        W 9380   4.230  21.692   3.384
48092W        W 9381  28.452  12.167  11.441
48093W        W 9382  35.943  24.204   2.217
48094W        W 9383   4.923  24.021   1.759
48095W        W 9384  28.546  23.172  13.406
48096W        W 9385  24.632  40.043   0.789
48097W        W 9386  28.444   9.797  12.856
48098W        W 9387  42.342   1.759  12.440
48099W        W 9388  42.526  26.537   4.663
48100W        W 9389  35.090  22.153  11.393
48101W        W 9390  24.667  39.045   4.231
48102W        W 9391  41.945  16.258   0.320
48103W        W 9392  12.767  42.841  12.043
48104W        W 9393  25.710  35.544  12.978
48105W        W 9394  14.828  41.018   4.826
48106W        W 9395  28.104  43.450  14.480
48107W        W 9396  27.062  14.647   3.246
48108W        W 9397  12.258  40.318  13.818
48109W        W 9398  31.991   6.256   3.648
48110W        W 9399  40.398   1.297   3.735
48111W        W 9400  27.060  37.502   1.404
48112W        W 9401   8.324  16.237  13.997
48113W        W 9402  27.604  25.011   0.254
48114W        W 9403  20.137  30.937   0.269
48115W        W 9404  39.531  32.622  14.482
48116W        W 9405  31.040  10.730  14.396
48117W        W 9406   5.735  10.268  13.893
48118W        W 9407  34.481  37.968  13.907
48119W        W 9408   2.446  24.521  12.443
48120W        W 9409  27.514   0.406   3.671
48121W        W 9410  37.012   5.214   0.368
48122W        W 9411  44.378  42.424   1.222
48123W        W 9412  24.659   9.877  10.939
48124W        W 9413   7.911  16.618  10.947
48125W        W 9414  39.059   9.215  13.031
48126W        W 9415   8.817   4.263  11.393
48127W        W 9416  17.648   3.757  12.443
48128W        W 9417  28.465   7.837  10.534
48129W        W 9418  17.669   7.247  13.998
48130W        W 9419  20.756  40.334  11.453
48131W        W 9420  19.225  16.222   1.307
48132W        W 9421  24.587  40.970   1.321
48133W        W 9422  28.989  30.602   3.662
48134W        W 9423  26.043  35.030   2.301
48135W        W 9424  20.754  20.611  13.524
48136W        W 9425   3.916  41.009  10.410
48137W        W 9426  28.073  24.539  11.888
48138W        W 9427  33.602  23.698   9.993
48139W        W 9428  39.356  32.992  12.904
48140W        W 9429  12.255  39.329   2.319
48141W        W 9430  27.163  16.271  14.778
48142W        W 9431  15.701  36.993  14.955
48143W        W 9432  39.415  28.439  11.584
48144W        W 9433   8.166  20.232  12.834
48145W        W 9434  36.368  40.464  13.812
48146W        W 9435  30.428   0.902  11.549
48147W        W 9436  20.768  33.557  12.824
48148W        W 9437   7.189   7.836  11.503
48149W        W 9438  15.722  23.056   5.776
48150W        W 9439   0.880  15.170  14.474
48151W        W 9440  36.371  14.241   1.774
48152W        W 9441  18.615   1.748   0.812
48153W        W 9442  42.318  15.194  12.495
48154W        W 9443   6.340  35.464   4.789
48155W        W 9444  44.760  36.078   2.413
48156W        W 9445  42.281  37.559  13.960
48157W        W 9446  26.091  41.446   1.801
48158W        W 9447  30.525   0.394   3.647
48159W        W 9448   7.383  33.112  12.479
48160W        W 9449  14.127  13.252  13.825
48161W        W 9450  22.141  12.751   3.638
48162W        W 9451  32.630  21.229   1.379
48163W        W 9452  41.292   5.894   1.322
48164W        W 9453  31.420  27.120   1.226
48165W        W 9454  20.730  26.586  11.005
48166W        W 9455   5.205  18.088  13.376
48167W        W 9456  37.923  41.003  14.002
48168W        W 9457  14.145   4.838   1.281
48169W        W 9458  24.206  30.004  12.059
48170W        W 9459   6.253  16.241  13.888
48171W        W 9460  10.732  42.926  13.892
48172W        W 9461  20.194  35.900   3.823
48173W        W 9462  42.510  27.055   1.251
48174W        W 9463  13.778  36.496   4.183
48175W        W 9464   6.771   7.345  11.117
48176W        W 9465   6.868  38.961   2.879
48177W        W 9466   0.337  27.555  10.586
48178W        W 9467  23.620  16.685   4.309
48179W        W 9468  12.134  28.053  11.582
48180W        W 9469  23.627   6.849   2.741
48181W        W 9470  26.973  33.513   1.292
48182W        W 9471  39.054  39.513  13.485
48183W        W 9472   6.866  36.517   1.270
48184W        W 9473  24.106  14.775  11.859
48185W        W 9474  32.063  11.203  14.858
48186W        W 9475  10.180  34.887  14.313
48187W        W 9476   0.769   7.855  14.799
48188W        W 9477  20.157   3.396   4.305
48189W        W 9478  20.622  15.748  12.897
48190W        W 9479  36.462   5.712  13.822
48191W        W 9480  35.904  37.527   2.767
48192W        W 9481  17.558  41.518   3.642
48193W        W 9482  42.796  16.252   2.199
48194W        W 9483  21.709  35.535   2.361
48195W        W 9484  15.658  32.996   0.950
48196W        W 9485  10.687  13.306  14.383
48197W        W 9486   6.746  38.359  13.409
48198W        W 9487  44.938  41.009   4.122
48199W        W 9488  14.094  39.345   4.660
48200W        W 9489   7.722  20.107  14.398
48201W        W 9490  43.991  33.003   4.835
48202W        W 9491  11.831   9.244   0.445
48203W        W 9492  25.138   4.391   3.267
48204W        W 9493  25.191  30.123  12.014
48205W        W 9494  32.543  19.157   4.119
48206W        W 9495  20.205  39.326   2.297
48207W        W 9496  32.932   9.819  10.451
48208W        W 9497   5.258  29.053   0.936
48209W        W 9498  23.140  40.443  14.402
48210W        W 9499  35.596   7.782   1.884
48211W        W 9500  39.895   6.825   3.780
48212W        W 9501  32.472  34.046   3.869
48213W        W 9502  13.727  25.134  13.542
48214W        W 9503  27.509  12.273  13.800
48215W        W 9504   4.418  19.748  14.380
48216W        W 9505  42.961  41.868   3.201
48217W        W 9506  34.415  42.329  14.951
48218W        W 9507  39.433  42.025   1.271
48219W        W 9508  31.534  19.099  11.590
48220W        W 9509   0.333  41.945   3.310
48221W        W 9510  17.791   6.872   3.226
48222W        W 9511   2.380  42.449  10.588
48223W        W 9512   5.802  32.465  11.425
48224W        W 9513  29.505   6.187   2.360
48225W        W 9514  20.696  12.789   1.439
48226W        W 9515  43.369  30.133  11.532
48227W        W 9516  17.179  22.168  10.637
48228W        W 9517   8.363  43.921  10.477
48229W        W 9518  13.692  10.828   0.309
48230W        W 9519  38.870  22.182  13.423
48231W        W 9520  41.026   2.938   0.479
48232W        W 9521  30.559   9.260   2.419
48233W        W 9522  28.509  31.107  13.841
48234W        W 9523  38.529   5.905  10.566
48235W        W 9524  37.028  10.302  10.613
48236W        W 9525  30.462  11.846   4.337
48237W        W 9526  17.124  15.763  12.947
48238W        W 9527  35.359   2.272  12.356
48239W        W 9528   2.770  28.522   1.416
48240W        W 9529  23.646   6.731   1.818
48241W        W 9530  42.963  12.308  10.104
48242W        W 9531  35.028  10.647   3.315
48243W        W 9532   4.796  22.552  12.494
48244W        W 9533  17.150  28.156   4.656
48245W        W 9534  24.101   7.304   4.182
48246W        W 9535   1.764  30.503   2.293
48247W        W 9536  31.950   6.293  10.474
48248W        W 9537   2.861  19.160  13.834
48249W        W 9538   2.942  35.371   0.327
48250W        W 9539  18.076  43.373   3.231
48251W        W 9540  13.745  17.172   4.208
48252W        W 9541  39.557   4.734  12.830
48253W        W 9542  40.484  42.792   1.706
48254W        W 9543   0.396  12.274   3.292
48255W        W 9544  21.260  25.148   0.819
48256W        W 9545   7.304  10.812   2.186
48257W        W 9546   8.749  28.059   0.480
48258W        W 9547   2.380  11.259   3.811
48259W        W 9548  34.062  37.039  14.865
48260W        W 9549  39.011  15.743  12.863
48261W        W 9550   8.248  10.181   1.808
48262W        W 9551   6.705   7.264   0.287
48263W        W 9552  21.653  20.159   1.792
48264W        W 9553   8.214  44.441   0.414
48265W        W 9554  41.994  21.742   1.253
48266W        W 9555  22.192  34.107  10.410
48267W        W 9556   8.214  44.810  11.864
48268W        W 9557  26.961   7.230  12.504
48269W        W 9558  11.798  43.807   0.798
48270W        W 9559   0.311  22.571   2.197
48271W        W 9560  41.006  38.442  10.579
48272W        W 9561  32.140  44.795   4.636
48273W        W 9562  30.944  14.324  13.848
48274W        W 9563  14.711  14.196  10.031
48275W        W 9564  31.482  32.473  12.077
48276W        W 9565   9.232  14.780   4.150
48277W        W 9566  44.960  37.878  13.460
48278W        W 9567  13.121  13.192   4.794
48279W        W 9568  29.558   4.232  11.108
48280W        W 9569  25.641  28.947  13.496
48281W        W 9570  10.668  30.418  13.860
48282W        W 9571  30.413   0.895   0.408
48283W        W 9572  43.308  23.115   1.436
48284W        W 9573  31.522   0.874   4.709
48285W        W 9574  37.554   3.941  11.015
48286W        W 9575   2.936  42.440   2.685
48287W        W 9576  41.869  37.357  11.544
48288W        W 9577  32.056  28.947   3.846
48289W        W 9578  21.105   9.773  14.932
48290W        W 9579  26.665  42.308   0.893
48291W        W 9580  11.250  12.321   2.338
48292W        W 9581  13.225  24.525  14.513
48293W        W 9582  36.068  42.900  12.934
48294W        W 9583  27.526  11.229  14.420
48295W        W 9584  10.688  42.316  14.973
48296W        W 9585  22.555  38.355  10.938
48297W        W 9586  43.333  26.980   3.181
48298W        W 9587  17.705  13.192  11.921
48299W        W 9588   2.759  29.977  10.506
48300W        W 9589  25.642  44.788  10.939
48301W        W 9590   7.351  14.642   1.696
48302W        W 9591  16.253  33.932   0.808
48303W        W 9592  14.681  33.075  14.452
48304W        W 9593  28.457  38.373   4.651
48305W        W 9594  37.347  13.122   5.302
48306W        W 9595  29.624  20.263  13.041
48307W        W 9596  29.068  42.956  10.977
48308W        W 9597  12.297   6.331  10.963
48309W        W 9598  35.910  15.099   0.243
48310W        W 9599   2.416  31.152   4.715
48311W        W 9600  21.536  44.855   0.281
48312W        W 9601  37.388  36.438  10.511
48313W        W 9602  39.380  14.636   5.675
48314W        W 9603   8.877   6.368  13.513
48315W        W 9604  12.308  28.622  13.009
48316W        W 9605   1.240  38.427   1.779
48317W        W 9606  22.679   2.826  14.421
48318W        W 9607  30.431  28.998  12.986
48319W        W 9608  20.243  40.392   3.697
48320W        W 9609  41.439  14.768  14.476
48321W        W 9610  35.928  34.105   1.704
48322W        W 9611   9.251   1.389  14.900
48323W        W 9612  35.396  43.000   5.216
48324W        W 9613  37.082  34.942   1.326
48325W        W 9614  43.917   7.670   4.745
48326W        W 9615   4.699  42.396   2.903
48327W        W 9616   9.688  44.411  13.454
48328W        W 9617   6.769  15.276  14.373
48329W        W 9618  31.077  36.047  11.027
48330W        W 9619  28.655  23.125  11.128
48331W        W 9620   6.885  39.559  13.429
48332W        W 9621  35.577   2.813  13.340
48333W        W 9622  33.509  36.037   3.714
48334W        W 9623  38.929  39.961  10.037
48335W        W 9624   2.337  43.771   4.160
48336W        W 9625  37.348  26.643   2.789
48337W        W 9626  24.058  12.845  11.381
48338W        W 9627   4.742  16.150   1.773
48339W        W 9628  27.001  20.194   4.213
48340W        W 9629  36.439  41.997  14.303
48341W        W 9630   0.311   2.933   2.339
48342W        W 9631  16.631  21.622  14.372
48343W        W 9632  20.707   9.743   3.157
48344W        W 9633  23.065   0.351   2.343
48345W        W 9634  37.922   0.294   3.253
48346W        W 9635   8.224  15.616  10.529
48347W        W 9636  11.772  42.373  11.054
48348W        W 9637   7.697   4.800   2.664
48349W        W 9638  44.999  15.141  14.498
48350W        W 9639  32.074  40.885  11.579
48351W        W 9640   7.379  26.520  13.957
48352W        W 9641  23.011  10.701   3.691
48353W        W 9642  37.837  20.152   2.856
48354W        W 9643   3.886   1.924   2.825
48355W        W 9644   8.666  39.857   4.660
48356W        W 9645   0.482  26.465   5.291
48357W        W 9646  28.054   1.924   3.364
48358W        W 9647  35.443  40.857  13.493
48359W        W 9648  38.529  35.082  12.393
48360W        W 9649  24.074  14.112  13.883
48361W        W 9650  40.368  25.976  14.826
48362W        W 9651  11.279  26.140  14.912
48363W        W 9652  26.643  10.273   2.202
48364W        W 9653  33.918  21.618  12.580
48365W        W 9654  32.518  29.616   3.772
48366W        W 9655  32.056  25.523   3.156
48367W        W 9656  35.364  17.678  12.525
48368W        W 9657   9.662  33.045  10.889
48369W        W 9658   4.827  10.773   2.249
48370W        W 9659  40.344  34.907  11.128
48371W        W 9660  13.743  35.977  14.905
48372W        W 9661  39.410  25.541  11.090
48373W        W 9662  22.213  11.163  11.580
48374W        W 9663  13.817  41.359   4.337
48375W        W 9664  35.975   0.796  12.828
48376W        W 9665  23.021  27.560   3.695
48377W        W 9666  20.567   8.764   4.748
48378W        W 9667  29.972  34.428   1.756
48379W        W 9668  11.223  28.536   2.334
48380W        W 9669  11.189   3.422   3.793
48381W        W 9670  22.239  25.094  11.556
48382W        W 9671  12.808  23.188  14.863
48383W        W 9672   9.770  44.463   1.226
48384W        W 9673  37.894   2.850  13.815
48385W        W 9674  25.529  23.538   2.263
48386W        W 9675  27.018   7.385  12.052
48387W        W 9676  26.047   6.345   4.759
48388W        W 9677  33.063  34.595   1.926
48389W        W 9678  19.750  10.328  13.814
48390W        W 9679  27.518  22.068  12.045
48391W        W 9680  19.704   0.310   2.223
48392W        W 9681  38.539  21.543   3.286
48393W        W 9682   0.309  33.483   4.188
48394W        W 9683   4.778  13.173   3.738
48395W        W 9684  41.323  30.991  14.428
48396W        W 9685  25.212   1.858  12.532
48397W        W 9686  19.222   6.338   3.367
48398W        W 9687  10.731  30.061   5.179
48399W        W 9688  19.075  30.145   0.468
48400W        W 9689  17.065  15.649   1.281
48401W        W 9690  22.115  24.154   1.391
48402W        W 9691   3.863   2.937  11.963
48403W        W 9692  37.066  12.260  10.916
48404W        W 9693  39.451  12.326  13.053
48405W        W 9694  24.570   4.426  13.017
48406W        W 9695  22.092  37.018   3.204
48407W        W 9696   8.307  10.335  14.821
48408W        W 9697   8.874  43.349   4.273
48409W        W 9698  34.473  21.575   3.323
48410W        W 9699  29.983  31.528   4.144
48411W        W 9700  26.686   9.832   9.940
48412W        W 9701  12.125  20.589   4.607
48413W        W 9702   2.902  23.081   0.423
48414W        W 9703  30.565  34.601   1.721
48415W        W 9704  16.297  11.840   1.358
48416W        W 9705   5.754  43.855  10.535
48417W        W 9706   5.761   3.897   0.259
48418W        W 9707   7.753  15.227   1.396
48419W        W 9708  18.193  43.478  12.508
48420W        W 9709  22.589  30.551   3.291
48421W        W 9710   5.396  14.152   2.870
48422W        W 9711  30.973  17.181   4.269
48423W        W 9712  31.611   9.743  12.858
48424W        W 9713  44.824  38.565   1.714
48425W        W 9714  32.068   8.361  14.394
48426W        W 9715   9.819  27.473   4.616
48427W        W 9716  35.042  39.355   4.786
48428W        W 9717  13.255   1.822  13.055
48429W        W 9718  14.606   0.366   4.118
48430W        W 9719   4.250  42.893  11.526
48431W        W 9720   2.239  41.333  13.932
48432W        W 9721  27.975  32.399   3.791
48433W        W 9722  12.814  17.197   2.809
48434W        W 9723   1.260   6.202   1.436
48435W        W 9724  37.970  14.188  14.426
48436W        W 9725  44.370  38.427   3.719
48437W        W 9726  10.313  19.533   1.710
48438W        W 9727   4.432  43.371   1.221
48439W        W 9728  30.468  24.211  11.872
48440W        W 9729  11.181  12.720  10.968
48441W        W 9730   7.247   9.701  12.369
48442W        W 9731  32.599  15.759  13.988
48443W        W 9732   0.402  42.901  12.941
48444W        W 9733  34.074  28.965   0.468
48445W        W 9734   0.938   1.426   4.677
48446W        W 9735  18.249  22.687  11.592
48447W        W 9736  24.152  31.427   1.307
48448W        W 9737  20.156   1.748  13.038
48449W        W 9738   9.802   3.909   4.733
48450W        W 9739  37.395  42.853  13.061
48451W        W 9740  12.856  29.562   0.968
48452W        W 9741  10.303  16.215   2.851
48453W        W 9742  15.661   8.872   3.820
48454W        W 9743  35.596  14.727   2.719
48455W        W 9744  41.919   9.781  11.944
48456W        W 9745  25.205  26.074  13.423
48457W        W 9746  12.613  36.562  12.862
48458W        W 9747  23.624  17.297   2.792
48459W        W 9748  41.805  28.033   3.164
48460W        W 9749  15.612  10.237   4.688
48461W        W 9750  38.924  35.874  14.317
48462W        W 9751  13.753   8.347   2.865
48463W        W 9752  33.467   1.796   9.975
48464W        W 9753  21.640  43.288  14.994
48465W        W 9754  43.387  23.511   1.715
48466W        W 9755  41.461  15.300   2.413
48467W        W 9756  21.055  25.641  13.976
48468W        W 9757  22.138  25.051  12.958
48469W        W 9758   7.203  36.895   3.220
48470W        W 9759  32.066   6.376   2.378
48471W        W 9760  16.629   0.403   4.684
48472W        W 9761   1.407  36.567   1.422
48473W        W 9762  39.469  10.804  13.024
48474W        W 9763  14.723  27.005   4.762
48475W        W 9764  37.377  29.434  11.472
48476W        W 9765  34.995  42.325  11.577
48477W        W 9766   1.926  36.860  12.002
48478W        W 9767  42.947  12.661   5.284
48479W        W 9768  44.330  37.041   2.678
48480W        W 9769  23.148   8.355   1.916
48481W        W 9770  24.175  25.169  13.454
48482W        W 9771  27.155   6.206  12.443
48483W        W 9772   1.772  28.975  11.052
48484W        W 9773   6.890  27.610  14.457
48485W        W 9774   3.792   1.287  14.512
48486W        W 9775  35.407  38.545   4.731
48487W        W 9776  11.847  34.074   4.149
48488W        W 9777  17.643  19.763  12.070
48489W        W 9778  21.114  13.175   1.280
48490W        W 9779  31.906  29.940  10.450
48491W        W 9780   9.287  26.183   4.233
48492W        W 9781  34.382  14.101   1.757
48493W        W 9782  32.942   3.382   2.356
48494W        W 9783  19.159  18.669   2.251
48495W        W 9784  19.203  28.159   2.690
48496W        W 9785  26.037  21.651  12.057
48497W        W 9786   3.727  36.515   3.679
48498W        W 9787   2.352  21.257  12.947
48499W        W 9788   4.377   0.410  12.420
48500W        W 9789  23.184  30.133   4.172
48501W        W 9790  26.192  41.966  14.317
48502W        W 9791   4.747  39.849   1.310
48503W        W 9792   5.258   0.459   1.864
48504W        W 9793  38.433  28.063   4.718
48505W        W 9794   7.818  42.414   3.382
48506W        W 9795   4.224  24.576   4.235
48507W        W 9796   6.256  18.725  10.622
48508W        W 9797  12.140  23.720  12.342
48509W        W 9798  13.239  25.199   2.813
48510W        W 9799  34.400  13.165   3.847
48511W        W 9800  20.105  15.591   2.202
48512W        W 9801  41.991  44.967   4.641
48513W        W 9802  32.580  33.506   4.708
48514W        W 9803  39.397  24.711   3.755
48515W        W 9804  22.736  33.428   3.638
48516W        W 9805  39.348   3.227   1.807
48517W        W 9806  33.925  33.601  12.349
48518W        W 9807  36.370  10.659  13.005
48519W        W 9808  37.023  29.947  12.559
48520W        W 9809  44.792   0.856  12.466
48521W        W 9810   9.306  11.825   3.736
48522W        W 9811  13.785  33.608  11.500
48523W        W 9812   4.331  29.453   4.311
48524W        W 9813   9.252  26.678  13.978
48525W        W 9814  20.562  43.439   3.245
48526W        W 9815  31.408  14.790  14.291
48527W        W 9816  39.347   9.272  14.796
48528W        W 9817  38.831  14.824  12.858
48529W        W 9818  30.035   2.903  13.792
48530W        W 9819  26.140  10.784   2.385
48531W        W 9820  44.811  22.737  10.452
48532W        W 9821  29.637  38.421  12.481
48533W        W 9822  36.030  36.031  11.496
48534W        W 9823  19.058  38.479   0.812
48535W        W 9824   2.868   6.921  14.898
48536W        W 9825  30.629  28.671   2.877
48537W        W 9826  43.381  12.716   0.924
48538W        W 9827  39.463  37.351  13.913
48539W        W 9828   8.362  22.016   2.185
48540W        W 9829  38.410  33.411   3.296
48541W        W 9830  41.420  32.525   0.255
48542W        W 9831   0.914  40.006   9.947
48543W        W 9832   4.868   0.356   0.877
48544W        W 9833   4.832  38.384   3.364
48545W        W 9834   6.828  25.167   3.729
48546W        W 9835  22.006   9.717   3.793
48547W        W 9836  12.763  10.699   3.212
48548W        W 9837   6.296  35.093   0.259
48549W        W 9838  28.944  15.737  13.802
48550W        W 9839  35.015  35.526   1.260
48551W        W 9840  33.423  21.622   1.909
48552W        W 9841  37.528   5.815   4.221
48553W        W 9842  29.588  41.984   4.789
48554W        W 9843  18.289  18.656  14.419
48555W        W 9844  13.608  39.455   0.433
48556W        W 9845  17.694  33.903  14.930
48557W        W 9846  39.850   0.792  14.986
48558W        W 9847  22.547  13.201  11.113
48559W        W 9848  30.460  26.131  12.514
48560W        W 9849  20.105  19.564  13.538
48561W        W 9850  26.595  19.697  13.871
48562W        W 9851  44.010   7.265  12.918
48563W        W 9852  40.846  43.948   0.263
48564W        W 9853  21.574  14.647   3.313
48565W        W 9854   9.749  19.178  13.811
48566W        W 9855   3.318  24.197  14.345
48567W        W 9856   6.263  30.412  11.044
48568W        W 9857  13.340  22.023  12.903
48569W        W 9858   3.899  15.168   4.814
48570W        W 9859  15.180  23.677   0.323
48571W        W 9860  37.494  21.163  14.787
48572W        W 9861  29.170  33.491   3.386
48573W        W 9862  28.628  38.478  14.012
48574W        W 9863  18.738  40.800  14.994
48575W        W 9864  19.084  11.144  11.901
48576W        W 9865  13.676  39.551  12.858
48577W        W 9866  44.778  43.806  14.426
48578W        W 9867  36.396   4.348  13.904
48579W        W 9868   1.904  12.151   1.807
48580W        W 9869  11.712  28.149   0.829
48581W        W 9870  19.669  35.407  12.357
48582W        W 9871   1.840  31.139   3.290
48583W        W 9872  34.552  13.174   2.689
48584W        W 9873  19.282   5.768   2.209
48585W        W 9874  20.694  40.346   3.215
48586W        W 9875  22.589   7.172   2.806
48587W        W 9876  14.787  15.085  11.490
48588W        W 9877  39.036  36.413   2.217
48589W        W 9878  15.601  22.999  13.515
48590W        W 9879  13.151   5.767   1.237
48591W        W 9880   9.762  23.613  11.541
48592W        W 9881  19.273   4.714   0.732
48593W        W 9882  25.113  23.557  11.859
48594W        W 9883   2.294  26.588   0.326
48595W        W 9884  26.610   8.660  14.978
48596W        W 9885  11.710  25.193   1.294
48597W        W 9886  10.179  19.541  10.932
48598W        W 9887  20.639   0.407   1.434
48599W        W 9888  18.786   4.913   0.475
48600W        W 9889  20.088  27.622   3.368
48601W        W 9890  21.152   1.420   3.286
48602W        W 9891  34.975  16.729   4.318
48603W        W 9892  28.436  14.606   2.746
48604W        W 9893  20.727  19.056   2.415
48605W        W 9894  16.310  36.583  12.096
48606W        W 9895  17.636  19.181  11.964
48607W        W 9896   2.420  11.257  12.564
48608W        W 9897   1.323   6.753   1.268
48609W        W 9898   4.234   0.380  11.859
48610W        W 9899  42.514   3.763   4.291
48611W        W 9900  35.533  42.309   1.877
48612W        W 9901  16.163   3.404  13.499
48613W        W 9902  24.204  19.731  11.894
48614W        W 9903  11.841  13.254  13.485
48615W        W 9904  20.753  27.620  11.073
48616W        W 9905  16.168  27.002  12.412
48617W        W 9906  27.960  23.639   1.232
48618W        W 9907  42.387  41.480  13.360
48619W        W 9908   0.940  37.407  14.456
48620W        W 9909  44.009  32.075  13.928
48621W        W 9910  43.017   6.295  14.919
48622W        W 9911  29.522   5.262   2.861
48623W        W 9912  21.189  13.605  12.966
48624W        W 9913  32.004  13.235  11.119
48625W        W 9914  36.350   2.828  11.495
48626W        W 9915  44.809  10.744  13.985
48627W        W 9916  39.334  32.614   2.320
48628W        W 9917   6.755  21.608  13.891
48629W        W 9918  20.038  26.966  12.946
48630W        W 9919  43.277  19.621  11.095
48631W        W 9920  44.267  36.075  14.860
48632W        W 9921   6.880  36.566   2.703
48633W        W 9922  22.629  44.767   1.806
48634W        W 9923  24.063  33.032   4.350
48635W        W 9924  16.781  20.090   1.791
48636W        W 9925   4.809   2.899   3.164
48637W        W 9926   3.436  44.374   0.775
48638W        W 9927  36.404  34.445   2.349
48639W        W 9928  15.670  23.702   4.733
48640W        W 9929  28.123  29.173   2.332
48641W        W 9930  11.646  23.706  12.838
48642W        W 9931  36.943   3.280  14.988
48643W        W 9932   9.785  44.989   0.318
48644W        W 9933   3.452  23.646  14.768
48645W        W 9934  26.024  15.131   0.463
48646W        W 9935  22.103  32.589   3.637
48647W        W 9936  41.923  19.634  14.325
48648W        W 9937  32.975  34.910   2.236
48649W        W 9938   6.358  18.593  12.516
48650W        W 9939   1.824  41.009   4.778
48651W        W 9940  37.907   5.350   3.778
48652W        W 9941  18.618  14.753  14.764
48653W        W 9942  33.990  42.481   3.372
48654W        W 9943  18.249  19.691   2.205
48655W        W 9944  28.043  18.203  10.953
48656W        W 9945   9.796   4.226   4.205
48657W        W 9946   6.295  31.990   1.319
48658W        W 9947  27.166  32.402  14.836
48659W        W 9948  31.430  28.652   2.333
48660W        W 9949  16.259  31.946  11.561
48661W        W 9950  39.494  42.281   2.793
48662W        W 9951  42.523  40.046  12.879
48663W        W 9952  22.183   3.949   0.250
48664W        W 9953  43.946  36.931  12.578
48665W        W 9954  34.873  16.111   4.765
48666W        W 9955  23.199   7.408   2.205
48667W        W 9956  31.618  34.408  11.550
48668W        W 9957  42.955  24.226  14.923
48669W        W 9958  33.587  42.778   9.970
48670W        W 9959  22.104   3.444  14.873
48671W        W 9960   8.187  44.496   3.269
48672W        W 9961   5.930   9.766   4.173
48673W        W 9962  31.528   0.780   1.759
48674W        W 9963  40.492  13.789   2.291
48675W        W 9964  27.078   9.823  11.498
48676W        W 9965  28.628  34.484  11.410
48677W        W 9966  10.351  29.494   2.779
48678W        W 9967  43.428  27.077   3.775
48679W        W 9968  14.793  15.238   2.355
48680W        W 9969  20.028   7.223   0.297
48681W        W 9970  10.340  29.067   1.845
48682W        W 9971  28.981  12.647  10.445
48683W        W 9972  27.673  36.354   1.345
48684W        W 9973  34.548  22.675  12.007
48685W        W 9974   4.396   8.241  14.798
48686W        W 9975  40.870  34.520  13.311
48687W        W 9976  11.164  43.355   5.272
48688W        W 9977  11.272  23.037   3.769
48689W        W 9978  26.585  11.131  10.120
48690W        W 9979  24.691  31.099   4.347
48691W        W 9980  17.116  27.128  12.027
48692W        W 9981  34.872  31.437  14.411
48693W        W 9982   6.900   0.424  13.867
48694W        W 9983  23.069  25.624  13.901
48695W        W 9984   7.305  29.544  13.795
48696W        W 9985  20.158  34.057  14.407
48697W        W 9986  13.215  32.532  14.902
48698W        W 9987  15.611  26.177  11.032
48699W        W 9988  14.133   5.214   4.799
48700W        W 9989  29.108  29.058  11.526
48701W        W 9990   8.244  35.501   3.684
48702W        W 9991   5.785  23.054   3.301
48703W        W 9992   4.774   1.408  12.502
48704W        W 9993   6.836  14.202  14.386
48705W        W 9994  17.611   8.400  13.316
48706W        W 9995   1.272   9.776   3.755
48707W        W 9996  15.709  39.044   3.342
48708W        W 9997  18.157  10.141   3.701
48709W        W 9998  33.591  31.982  10.599
48710W        W 9999  25.204  16.578  13.381
48711W        W10000  16.708  10.642  12.461
48712W        W10001   8.406   0.312  13.455
48713W        W10002  19.638  36.987  10.480
48714W        W10003  42.506  12.277  10.444
48715W        W10004  18.119  26.697  13.451
48716W        W10005   6.253  23.715   1.249
48717W        W10006   1.803  30.013  13.889
48718W        W10007  40.471  27.043  12.872
48719W        W10008  35.021  19.126  12.495
48720W        W10009  42.394  19.621   0.322
48721W        W10010   3.881   1.747  12.544
48722W        W10011   9.385  40.023   2.721
48723W        W10012  33.922  26.165   2.380
48724W        W10013  10.694  41.836  10.898
48725W        W10014  30.547  12.312   1.876
48726W        W10015  21.537  11.256   1.275
48727W        W10016   9.285  41.309   4.788
48728W        W10017  25.004   1.284  11.405
48729W        W10018  37.366  18.231   1.770
48730W        W10019  38.007  25.064   2.862
48731W        W10020   7.704   3.713   3.383
48732W        W10021   0.949  26.557   3.259
48733W        W10022  24.108  44.976   3.800
48734W        W10023  29.536  25.214   4.322
48735W        W10024  30.976  10.716  13.460
48736W        W10025   6.350  38.367  12.891
48737W        W10026   4.395  20.562   0.964
48738W        W10027  34.956  21.514   0.956
48739W        W10028  15.753   7.805  14.009
48740W        W10029  33.520   0.482  14.765
48741W        W10030  24.062  20.695   3.227
48742W        W10031   5.333  12.636   3.808
48743W        W10032  25.471  11.696  13.397
48744W        W10033  40.341  39.335   3.173
48745W        W10034   8.354   0.924  14.884
48746W        W10035  27.960  44.865  11.055
48747W        W10036   0.470  11.696  14.427
48748W        W10037  42.425  16.296   0.823
48749W        W10038  44.980  43.393  13.832
48750W        W10039  29.993  21.722  10.483
48751W        W10040  25.030  18.600  13.014
48752W        W10041  42.289  17.666  11.465
48753W        W10042  11.133  18.055   2.756
48754W        W10043  24.648   2.315   1.295
48755W        W10044  23.552  22.540   1.260
48756W        W10045  22.143  14.760  10.501
48757W        W10046  25.970  14.658  13.841
48758W        W10047  31.109  21.727  13.315
48759W        W10048  36.571   8.787  13.484
48760W        W10049   3.911  31.567   0.883
48761W        W10050  17.181  26.649  11.479
48762W        W10051  22.654  35.390  13.966
48763W        W10052  30.435  30.474  14.422
48764W        W10053  39.003   1.890  10.153
48765W        W10054  16.120  18.052  13.965
48766W        W10055   0.846  18.738   5.119
48767W        W10056  30.933  44.451   3.740
48768W        W10057  37.032  19.065   1.724
48769W        W10058  15.178   4.393  13.319
48770W        W10059  22.070   0.295   0.450
48771W        W10060  40.989  21.163  14.425
48772W        W10061  11.372  41.444  10.456
48773W        W10062  10.638  32.954   1.721
48774W        W10063   7.674  34.401   4.295
48775W        W10064  26.556  40.997   0.338
48776W        W10065   0.434  10.146   2.298
48777W        W10066  17.658  34.535   2.878
48778W        W10067  12.611  18.114   4.220
48779W        W10068   0.937   8.859   5.580
48780W        W10069  27.071  17.747  13.879
48781W        W10070  37.060  31.401  10.932
48782W        W10071  14.136  23.031  14.472
48783W        W10072   2.776  14.102  14.771
48784W        W10073   6.386  27.592   3.859
48785W        W10074   0.304  36.000  14.383
48786W        W10075   1.394  38.389  13.029
48787W        W10076  33.920  43.496   4.224
48788W        W10077  27.083   3.434  14.929
48789W        W10078  18.772  40.826  13.348
48790W        W10079   2.411  28.663  14.510
48791W        W10080  40.358   3.718  10.971
48792W        W10081  34.883  15.168   2.785
48793W        W10082  34.484  30.538  11.609
48794W        W10083  36.462  28.159  10.905
48795W        W10084  27.515  35.056  12.996
48796W        W10085  22.226  32.919  13.512
48797W        W10086  42.827  28.491   1.902
48798W        W10087   4.745   7.376   1.236
48799W        W10088  32.967  33.446   2.865
48800W        W10089  26.153  34.443  10.611
48801W        W10090   2.247  37.415  12.380
48802W        W10091  37.438  13.685  12.868
48803W        W10092  39.050  29.474  12.873
48804W        W10093  36.462  19.202  13.966
48805W        W10094  25.963  38.913  12.543
48806W        W10095  37.924   3.388  11.950
48807W        W10096  37.921  26.574  11.865
48808W        W10097  35.463  25.091  14.773
48809W        W10098  17.722  24.564  14.424
48810W        W10099  41.479  22.516  14.990
48811W        W10100  10.356   7.301  11.880
48812W        W10101   5.437  31.996  14.874
48813W        W10102  24.001  37.477   3.823
48814W        W10103  42.400  19.607   3.735
48815W        W10104  22.517  41.492   4.740
48816W        W10105  32.484  35.094  11.566
48817W        W10106  41.866  21.609  14.959
48818W        W10107  38.351   1.384  13.365
48819W        W10108   3.911   4.748  14.336
48820W        W10109   0.755  33.941  14.913
48821W        W10110  42.778  37.552  13.039
48822W        W10111  39.469  26.506   2.798
48823W        W10112   0.839  20.199   3.712
48824W        W10113  34.565   6.795   1.279
48825W        W10114  10.228  43.997  13.345
48826W        W10115  31.961   9.166  11.581
48827W        W10116  34.051  32.523  11.043
48828W        W10117  44.404  28.627   4.614
48829W        W10118  15.319  28.000  14.391
48830W        W10119  33.432   6.808   2.818
48831W        W10120  19.627   0.851   2.399
48832W        W10121  36.492  10.188   1.832
48833W        W10122  27.151  29.018  11.013
48834W        W10123  13.808  23.105  12.053
48835W        W10124  38.998  27.023  11.564
48836W        W10125  42.430  36.013   0.285
48837W        W10126   5.385  11.313   0.798
48838W        W10127  16.191   7.708   0.947
48839W        W10128  27.174  24.560  12.977
48840W        W10129   8.669  44.435   0.417
48841W        W10130  34.514  34.519  11.006
48842W        W10131  32.083  18.627   1.343
48843W        W10132  28.160  16.795  14.863
48844W        W10133   2.468  16.636   4.261
48845W        W10134  35.463   1.885   3.359
48846W        W10135  12.742  12.349   4.817
48847W        W10136   9.756   4.930   3.191
48848W        W10137  42.477  37.340   2.709
48849W        W10138  28.991  34.536   4.695
48850W        W10139  23.163  12.726   0.295
48851W        W10140  20.686  30.151   1.241
48852W        W10141  30.444   5.199   2.253
48853W        W10142  43.980  22.716   3.770
48854W        W10143   1.255  21.126   3.244
48855W        W10144  34.369  29.543  11.009
48856W        W10145  17.565  19.577   4.808
48857W        W10146  36.352  25.114   1.896
48858W        W10147  37.898   5.696   1.852
48859W        W10148  13.267  29.425   1.428
48860W        W10149  15.599  29.031   3.651
48861W        W10150  20.137  34.386  11.519
48862W        W10151  20.553  19.194  12.912
48863W        W10152  14.150  11.370  10.604
48864W        W10153  35.905   6.771  10.543
48865W        W10154  44.946  43.280  12.919
48866W        W10155   9.221  21.515   2.703
48867W        W10156  13.698  29.043  12.866
48868W        W10157   8.181  14.259  11.990
48869W        W10158   0.312  41.455  11.568
48870W        W10159  35.006  28.177   1.306
48871W        W10160  23.578   6.385   2.333
48872W        W10161  42.826  36.517   3.716
48873W        W10162   6.421  34.604  14.390
48874W        W10163  17.567  13.114  10.949
48875W        W10164   2.448  27.568  10.937
48876W        W10165  10.803   7.267  12.944
48877W        W10166   7.280  30.949  14.881
48878W        W10167  44.009   7.365   0.868
48879W        W10168   4.706  28.141  14.341
48880W        W10169  27.680  31.970  14.946
48881W        W10170  13.166  29.105  11.868
48882W        W10171   3.235  13.177   2.700
48883W        W10172  35.462  39.402  14.964
48884W        W10173  39.964   8.705   4.617
48885W        W10174  28.529  28.573   1.838
48886W        W10175  15.603  29.660   1.390
48887W        W10176  30.973  21.683  12.510
48888W        W10177   8.705  33.597  11.594
48889W        W10178  17.676   5.383  12.990
48890W        W10179  13.234  24.071  13.460
48891W        W10180  19.670  18.239  12.873
48892W        W10181   9.333   2.453   2.357
48893W        W10182  35.986  35.431   0.383
48894W        W10183  26.162  20.543   3.728
48895W        W10184  17.262  41.474  10.602
48896W        W10185  44.988  41.947  14.400
48897W        W10186   4.223  43.790  12.555
48898W        W10187  19.713   3.772   4.801
48899W        W10188  32.887  10.288   0.370
48900W        W10189  42.436  12.786  13.349
48901W        W10190  20.227  23.159   4.310
48902W        W10191  16.190  44.265   4.301
48903W        W10192  36.956   8.372  11.953
48904W        W10193   9.794  22.048  12.447
48905W        W10194   3.340  28.164   4.829
48906W        W10195  21.032  15.684  13.797
48907W        W10196  18.722  44.799  10.968
48908W        W10197  11.749  43.336  14.966
48909W        W10198  30.418  10.721   1.295
48910W        W10199   2.834  23.095   4.628
48911W        W10200   1.771   9.834  14.330
48912W        W10201  25.698   4.382   1.396
48913W        W10202  14.629  41.457   4.686
48914W        W10203  19.285  20.180  13.854
48915W        W10204   6.843  21.186   2.858
48916W        W10205   2.379   6.394  14.275
48917W        W10206  16.169  14.129   3.720
48918W        W10207  37.911  15.678  10.526
48919W        W10208  23.592  15.172   1.913
48920W        W10209  20.633   9.214  11.564
48921W        W10210   9.646  40.839   0.368
48922W        W10211  26.528  22.201   0.870
48923W        W10212  41.522  41.930   1.792
48924W        W10213  36.901  19.212   4.696
48925W        W10214  26.043  15.684  11.999
48926W        W10215  41.374  16.652  14.333
48927W        W10216  35.358  35.984  12.427
48928W        W10217  19.547  39.560   2.282
48929W        W10218  19.603  42.396   2.413
48930W        W10219  11.362  12.753   0.916
48931W        W10220  25.981  17.767   3.699
48932W        W10221  17.131   2.940   1.431
48933W        W10222  42.527  33.437   1.414
48934W        W10223  34.483  34.120  12.400
48935W        W10224  20.677  12.265  11.089
48936W        W10225  36.407   0.370  11.445
48937W        W10226   3.244   1.275  11.121
48938W        W10227  35.447  17.261  12.089
48939W        W10228  20.740   7.180  11.015
48940W        W10229  35.039  34.596   3.686
48941W        W10230  22.633  16.228   0.807
48942W        W10231  38.830  38.516   3.275
48943W        W10232  15.182  18.206  14.358
48944W        W10233  31.973  34.974   1.294
48945W        W10234  13.690   5.828  12.892
48946W        W10235   1.847  40.523  14.401
48947W        W10236  35.029  29.924   1.764
48948W        W10237  23.156  24.716   1.386
48949W        W10238   1.383  37.430   2.263
48950W        W10239  27.010  18.783  13.002
48951W        W10240   5.799  14.238  13.515
48952W        W10241  35.908  24.723   2.721
48953W        W10242  18.791   4.403   1.232
48954W        W10243  15.155  36.942  13.505
48955W        W10244  10.292  20.581  14.885
48956W        W10245  34.416  36.448  12.517
48957W        W10246   6.206  33.423  12.905
48958W        W10247  11.308  38.994   1.804
48959W        W10248   7.719  16.643   9.952
48960W        W10249  44.951  30.161  13.040
48961W        W10250  36.855  17.707  13.407
48962W        W10251  10.297  10.325  14.879
48963W        W10252   5.744   6.318   0.445
48964W        W10253  24.545  20.570   2.191
48965W        W10254  17.590  17.707   4.617
48966W        W10255  32.518   9.682   1.906
48967W        W10256  11.200  21.640  10.539
48968W        W10257   1.409  15.732  13.908
48969W        W10258  12.235  21.076  14.351
48970W        W10259   5.838  33.618   0.962
48971W        W10260   7.386  11.636   2.289
48972W        W10261  37.439  18.568  13.831
48973W        W10262   7.678  24.620  14.338
48974W        W10263  15.097  31.438  10.909
48975W        W10264  32.557   4.238  12.045
48976W        W10265   7.306  14.165  14.868
48977W        W10266  13.669  24.594   2.897
48978W        W10267  12.836   6.269   3.668
48979W        W10268  20.193  32.439   1.312
48980W        W10269  30.992   4.413   2.369
48981W        W10270  28.956  43.904   3.792
48982W        W10271   0.750  35.403  14.989
48983W        W10272   1.438  25.515   4.667
48984W        W10273  43.356  20.621   2.288
48985W        W10274  30.484  42.288   3.754
48986W        W10275  43.292  16.628  14.778
48987W        W10276   3.387   9.884  11.395
48988W        W10277  39.420  20.542   0.283
48989W        W10278  13.197  26.459   4.772
48990W        W10279   0.964  19.653  13.038
48991W        W10280  21.576   9.841   4.165
48992W        W10281  44.289   6.841  10.546
48993W        W10282  30.568   1.281   3.176
48994W        W10283  38.035   3.898  13.036
48995W        W10284   1.257  24.049   3.672
48996W        W10285  23.642  40.821  13.357
48997W        W10286  40.498  15.102   4.270
48998W        W10287  13.650  14.297  14.367
48999W        W10288  10.723  27.172   1.295
49000W        W10289  23.207  12.283  12.096
49001W        W10290  29.657  18.769  14.776
49002W        W10291  35.401  33.006  13.926
49003W        W10292  20.720   6.299   3.729
49004W        W10293  31.521  36.028  12.034
49005W        W10294  22.032  18.142  10.643
49006W        W10295  11.730  30.019   3.159
49007W        W10296  42.375   2.939  13.526
49008W        W10297  40.439  36.007  14.013
49009W        W10298  12.285   1.422   0.310
49010W        W10299   0.815  16.795   4.785
49011W        W10300  31.412  17.558  11.920
49012W        W10301   5.408  42.964   1.837
49013W        W10302  40.444  33.487   2.732
49014W        W10303  17.159  30.138   4.761
49015W        W10304  30.462  20.136  12.862
49016W        W10305  31.516  25.981   4.121
49017W        W10306  28.604  28.161   3.178
49018W        W10307  15.160  16.293  11.903
49019W        W10308  24.995  22.073  12.063
49020W        W10309  33.445  42.313   0.284
49021W        W10310   6.424  35.085  14.978
49022W        W10311  23.552  21.092  10.005
49023W        W10312  43.958  43.353  12.444
49024W        W10313  35.927  19.590   0.809
49025W        W10314  14.174  35.509   1.320
49026W        W10315  32.620  44.821   1.743
49027W        W10316  13.297   0.967  13.823
49028W        W10317  41.482  30.934  12.578
49029W        W10318  31.095  24.641   2.327
49030W        W10319   1.409   6.731  13.896
49031W        W10320   2.764  41.382   0.320
49032W        W10321  19.700   3.948  13.959
49033W        W10322   2.230  34.013  11.017
49034W        W10323  33.543  14.825   2.188
49035W        W10324  36.461  24.031   0.930
49036W        W10325   3.388  32.545   0.313
49037W        W10326   3.275  11.216  12.823
49038W        W10327  10.789  10.246  12.058
49039W        W10328   2.760  30.593   2.807
49040W        W10329  34.414  32.112   1.899
49041W        W10330  24.169  14.772  14.026
49042W        W10331  21.737   6.696  13.842
49043W        W10332   3.370  12.272  11.459
49044W        W10333   9.828  24.588  12.379
49045W        W10334  30.991  30.586  13.531
49046W        W10335  40.818  30.077   4.249
49047W        W10336  37.400  39.854   0.815
49048W        W10337   9.172   2.390   0.378
49049W        W10338  12.345  23.095  10.633
49050W        W10339  14.127  41.465   5.106
49051W        W10340  13.175   9.826  14.379
49052W        W10341   8.734  34.477  11.600
49053W        W10342  22.738  32.498   1.358
49054W        W10343  28.001  36.568  14.854
49055W        W10344  15.603  12.791   4.813
49056W        W10345  38.523   7.238  10.625
49057W        W10346  14.760  16.708   2.287
49058W        W10347   5.390  20.071  13.421
49059W        W10348   2.929  13.737  13.411
49060W        W10349   7.896  29.629   1.755
49061W        W10350   9.663   5.436   0.447
49062W        W10351  11.203   8.896  13.374
49063W        W10352  13.819  12.746   3.847
49064W        W10353  38.504  10.878   2.413
49065W        W10354  44.278  41.788   0.743
49066W        W10355  37.004  12.685  11.081
49067W        W10356  19.201   3.302  13.369
49068W        W10357  30.015  12.343   0.926
49069W        W10358  11.629  10.286  14.914
49070W        W10359  14.181  20.205   3.187
49071W        W10360  21.707  24.083   3.344
49072W        W10361  25.091  21.732  14.465
49073W        W10362   2.784   6.871  11.027
49074W        W10363  35.889  24.567  13.901
49075W        W10364   2.818   0.286   1.337
49076W        W10365  35.464  19.265   9.671
49077W        W10366  15.615   9.770   3.859
49078W        W10367  37.942  28.125  10.927
49079W        W10368  37.917   6.241   3.688
49080W        W10369  27.454  10.737  10.922
49081W        W10370  18.687   7.721  10.930
49082W        W10371  14.156  39.555   0.243
49083W        W10372  32.492  17.302  14.917
49084W        W10373   0.799   4.817   2.300
49085W        W10374  37.363  10.873  11.061
49086W        W10375   7.199   1.815   3.172
49087W        W10376  21.198  34.583  11.448
49088W        W10377   8.678  35.390  11.120
49089W        W10378  35.364  43.969  13.934
49090W        W10379  41.294  44.422  11.029
49091W        W10380   0.859   0.865  12.051
49092W        W10381  13.732  20.212  13.396
49093W        W10382  39.873  43.796  12.020
49094W        W10383  35.914   2.908  12.339
49095W        W10384   4.878  10.197   1.402
49096W        W10385  19.597  44.374  12.079
49097W        W10386  34.865  20.100   2.759
49098W        W10387   1.472  17.759  10.512
49099W        W10388  18.234  32.543   3.307
49100W        W10389  18.182  14.114   3.801
49101W        W10390   0.937  40.043  14.380
49102W        W10391  26.634  31.416  12.910
49103W        W10392  16.745   2.949  13.406
49104W        W10393  38.467  21.070  12.361
49105W        W10394  34.439  14.672   2.274
49106W        W10395  36.423  32.618   0.783
49107W        W10396  10.330  27.497   2.703
49108W        W10397  35.454  29.442   2.292
49109W        W10398  27.112  17.624   3.744
49110W        W10399  38.886  17.649  11.554
49111W        W10400  13.280  14.291   1.369
49112W        W10401   5.748  19.155   2.822
49113W        W10402   9.329  22.136   0.467
49114W        W10403  10.827  41.462  12.377
49115W        W10404   9.804  35.490  13.389
49116W        W10405  25.545  40.360   0.914
49117W        W10406  11.229  42.799  14.468
49118W        W10407  32.615  37.854  12.517
49119W        W10408  34.508  30.600  13.972
49120W        W10409  12.210  31.952  14.402
49121W        W10410  29.516  21.121  14.496
49122W        W10411  25.046  29.162  12.486
49123W        W10412  17.638  28.995  13.483
49124W        W10413  31.914  21.656  13.807
49125W        W10414   9.819  21.123  11.059
49126W        W10415  34.036  13.788  11.928
49127W        W10416  39.316   0.925   4.153
49128W        W10417  25.054  33.878  12.075
49129W        W10418   7.188  23.220   0.271
49130W        W10419  33.022   2.914   0.401
49131W        W10420  17.131  20.109   3.378
49132W        W10421  29.437   8.770  12.086
49133W        W10422   6.224  38.333   0.295
49134W        W10423   1.269  43.828   3.261
49135W        W10424  23.997  12.791  10.530
49136W        W10425  19.105   7.848   0.952
49137W        W10426   5.299  22.247   2.767
49138W        W10427   7.332  39.948   4.231
49139W        W10428   5.760  33.476  14.938
49140W        W10429  39.032  29.041   2.214
49141W        W10430  28.476   3.842   1.430
49142W        W10431  26.526  39.543   0.748
49143W        W10432  13.676  36.870   5.591
49144W        W10433  12.338  40.929  11.540
49145W        W10434  30.978  21.248  10.448
49146W        W10435  11.278  43.840   3.828
49147W        W10436  30.474   0.313  10.572
49148W        W10437  15.628  27.680  14.819
49149W        W10438  43.483  23.676   1.263
49150W        W10439  37.032  19.122   3.380
49151W        W10440   7.815   0.489  14.485
49152W        W10441  10.793  40.515  11.879
49153W        W10442  33.529  42.011  11.870
49154W        W10443   2.894  23.641  13.916
49155W        W10444  40.373   0.349   0.475
49156W        W10445  17.747  27.983   3.301
49157W        W10446  40.026  30.990   0.961
49158W        W10447   8.179  44.973   0.461
49159W        W10448  37.986  33.030   1.858
49160W        W10449   4.345   5.378  11.129
49161W        W10450   8.722  18.788  10.448
49162W        W10451  35.409  36.874   3.235
49163W        W10452  41.870  37.494   5.162
49164W        W10453  34.570  43.946   3.863
49165W        W10454  27.662  13.704   2.668
49166W        W10455  13.261   4.204  12.919
49167W        W10456  11.813   2.264  14.921
49168W        W10457  41.293   1.400   0.458
49169W        W10458  38.823   6.369  11.863
49170W        W10459  10.260   9.340  10.504
49171W        W10460  23.547  39.548  11.058
49172W        W10461  10.275  18.606  14.363
49173W        W10462   2.965  19.712  13.013
49174W        W10463  39.491   4.822  11.594
49175W        W10464  27.144  33.417  14.402
49176W        W10465   7.800  43.298   1.704
49177W        W10466   3.249  21.684   4.177
49178W        W10467  24.564  18.295   0.405
49179W        W10468   6.413  12.321  14.410
49180W        W10469  32.993  12.125   4.662
49181W        W10470  17.254  23.097   3.320
49182W        W10471  18.137  39.550  12.851
49183W        W10472  36.087   6.286  11.951
49184W        W10473  33.874  14.217  11.074
49185W        W10474   4.390   4.768   3.816
49186W        W10475  17.292  42.386  11.095
49187W        W10476  42.928  43.453  10.547
49188W        W10477  28.555  13.667   0.905
49189W        W10478  43.390  41.941  13.507
49190W        W10479  29.146  17.786  13.336
49191W        W10480   5.922  27.051   0.805
49192W        W10481  14.321  15.712   0.396
49193W        W10482  37.980  19.766  13.835
49194W        W10483  39.062  32.436  13.873
49195W        W10484   0.250  17.718   2.264
49196W        W10485  40.949  32.626   4.282
49197W        W10486   4.384  42.478   4.822
49198W        W10487  25.601   9.676  11.020
49199W        W10488  37.489  42.383   2.804
49200W        W10489  35.895   1.317  11.929
49201W        W10490   1.353   7.178   1.289
49202W        W10491  21.044  32.535   0.789
49203W        W10492   9.717  26.625  14.964
49204W        W10493  21.117  19.551   3.212
49205W        W10494  16.154  26.605  13.480
49206W        W10495  32.909  40.526  14.926
49207W        W10496   4.777   3.448   4.743
49208W        W10497  39.866  33.615  12.354
49209W        W10498  22.142  26.539  10.613
49210W        W10499  40.341  30.554   3.237
49211W        W10500  38.371   2.393  11.414
49212W        W10501  29.942  30.995   0.393
49213W        W10502   3.916   5.933   2.748
49214W        W10503  16.755  28.069  14.006
49215W        W10504  14.703  22.652   1.282
49216W        W10505   0.433  23.587  11.575
49217W        W10506  34.079  13.769   3.367
49218W        W10507  26.657  18.178  13.411
49219W        W10508  34.992  10.179  13.542
49220W        W10509   7.256  21.692  10.478
49221W        W10510  42.344  18.710   2.835
49222W        W10511   2.917  43.450   1.431
49223W        W10512  18.078  40.492  14.971
49224W        W10513   6.425   3.799   1.412
49225W        W10514  43.376  12.203   0.944
49226W        W10515  17.240  33.572  11.971
49227W        W10516  16.241   6.393   1.214
49228W        W10517  41.530  41.403   0.932
49229W        W10518  43.469   1.976  12.837
49230W        W10519  33.474  27.196  11.095
49231W        W10520  43.431   2.798   1.781
49232W        W10521  30.629  32.921   4.794
49233W        W10522  34.465  26.590  13.910
49234W        W10523  16.599  11.178  11.423
49235W        W10524   4.825  22.589   4.186
49236W        W10525   6.356  31.507  11.589
49237W        W10526  12.271  40.807   0.275
49238W        W10527  10.357  23.686   4.633
49239W        W10528  14.210  12.653  14.324
49240W        W10529  22.736  27.160   2.243
49241W        W10530   7.312  27.989  10.488
49242W        W10531  30.444  43.449   0.859
49243W        W10532  12.610  12.657  12.431
49244W        W10533  40.523  16.271   4.682
49245W        W10534  11.322   5.776   3.249
49246W        W10535  40.968  41.867  12.085
49247W        W10536   3.930  17.773   4.597
49248W        W10537  12.661   4.821   2.816
49249W        W10538  43.817  24.582  12.018
49250W        W10539  21.147  24.613  13.001
49251W        W10540  24.989  34.408   3.829
49252W        W10541   9.853   1.779  13.820
49253W        W10542  32.603  27.668  13.526
49254W        W10543  24.990  24.110  11.095
49255W        W10544   7.708  30.103  14.442
49256W        W10545  28.575   5.217   0.446
49257W        W10546  26.643   2.428  14.872
49258W        W10547  40.389  18.616   0.331
49259W        W10548   3.906  31.980   1.935
49260W        W10549   0.795  34.085  13.483
49261W        W10550  11.313  25.140  12.470
49262W        W10551   1.244   7.872  14.421
49263W        W10552  30.013   3.811   2.837
49264W        W10553  34.373   2.764  12.393
49265W        W10554  31.026  11.776  10.048
49266W        W10555  10.804  18.661  11.513
49267W        W10556  35.454  35.995  12.086
49268W        W10557   2.809  31.000  14.352
49269W        W10558  41.396   7.380   3.192
49270W        W10559  41.840   0.477   4.648
49271W        W10560  28.449  35.921   3.241
49272W        W10561  10.786   3.862  14.845
49273W        W10562  14.601  23.162   0.945
49274W        W10563   3.345  36.074  11.514
49275W        W10564  25.080  28.449  12.920
49276W        W10565  42.931   9.818   2.735
49277W        W10566  42.524  25.642   4.743
49278W        W10567  43.904  23.655  14.350
49279W        W10568   1.402   0.323   3.851
49280W        W10569  42.416  33.442  11.375
49281W        W10570  23.589  25.198  12.578
49282W        W10571  25.001  30.548   1.714
49283W        W10572  23.212   1.327   2.666
49284W        W10573  37.968  10.185   0.956
49285W        W10574   7.822  30.943   4.600
49286W        W10575  44.861  22.112   2.763
49287W        W10576  23.525  26.179   1.746
49288W        W10577  44.881  37.934   2.716
49289W        W10578  37.375  10.176  14.019
49290W        W10579   0.383  13.754  14.390
49291W        W10580  36.593  21.692  11.939
49292W        W10581  36.450  40.855   3.310
49293W        W10582  41.327   8.731  14.911
49294W        W10583  38.946  37.548  14.769
49295W        W10584  36.585   4.372   1.367
49296W        W10585  42.820  43.770  12.444
49297W        W10586  21.166  25.691   0.292
49298W        W10587  24.191  33.995  14.793
49299W        W10588  18.268  31.477   1.742
49300W        W10589   7.678  30.470  13.399
49301W        W10590   3.266  28.575  10.479
49302W        W10591  28.078   2.381  14.502
49303W        W10592  24.646  40.434   4.242
49304W        W10593   1.307  20.248  14.385
49305W        W10594  33.128  28.526  10.891
49306W        W10595  15.320  21.586   3.296
49307W        W10596  39.851   6.850   4.256
49308W        W10597  39.381   8.322   1.713
49309W        W10598  38.947  17.079  14.800
49310W        W10599  40.524  19.747  12.359
49311W        W10600  38.426  16.661   3.185
49312W        W10601  43.303  43.884  12.455
49313W        W10602  11.821   9.761  13.923
49314W        W10603  13.724  22.610  11.949
49315W        W10604  37.565   0.958  14.347
49316W        W10605  38.364  24.196  14.514
49317W        W10606  23.237   1.802   2.262
49318W        W10607  28.622  32.604  13.314
49319W        W10608  26.473  32.042   0.896
49320W        W10609  43.817  32.514  12.086
49321W        W10610  32.073  34.031   2.681
49322W        W10611  22.563  23.665   2.759
49323W        W10612  35.949  24.518  12.846
49324W        W10613  19.275  37.955   1.805
49325W        W10614  23.719  30.542   0.797
49326W        W10615  11.851  35.536  11.594
49327W        W10616   3.839  25.499   2.196
49328W        W10617   4.335  20.687   4.220
49329W        W10618  27.678  18.722  14.906
49330W        W10619  42.848   5.435   3.859
49331W        W10620  20.045  38.516   2.325
49332W        W10621  27.055  40.021  12.561
49333W        W10622  29.136  11.751   4.653
49334W        W10623  43.991   3.881   0.745
49335W        W10624  16.605   7.686  12.501
49336W        W10625  36.498  31.918   2.695
49337W        W10626  25.970  32.029  14.024
49338W        W10627  38.466  42.956  12.411
49339W        W10628  42.362  18.680  13.362
49340W        W10629  37.831  23.575   2.329
49341W        W10630  38.520   7.723   3.736
49342W        W10631  27.517  39.494   2.715
49343W        W10632   6.274   8.405   3.280
49344W        W10633  13.671  19.177   4.630
49345W        W10634  18.083  19.660  13.035
49346W        W10635  25.166  10.634  13.874
49347W        W10636  17.108  26.093   1.391
49348W        W10637  42.926  25.998  10.515
49349W        W10638   1.795  38.459   2.285
49350W        W10639   3.935  39.947  13.456
49351W        W10640   9.678  35.380   0.268
49352W        W10641  37.453  20.644   0.293
49353W        W10642  13.621  30.621   3.826
49354W        W10643   9.233  36.464   0.310
49355W        W10644  26.089  15.736  13.008
49356W        W10645  26.095   2.396   3.775
49357W        W10646  12.246  41.012  12.836
49358W        W10647  10.740  26.692   4.169
49359W        W10648  28.098  29.609  12.549
49360W        W10649  41.303  13.275   3.720
49361W        W10650   4.846   3.224  14.489
49362W        W10651  42.003  37.053  12.515
49363W        W10652  41.947  43.012   1.813
49364W        W10653  41.402  32.041  14.513
49365W        W10654   0.894  23.051   4.778
49366W        W10655  30.117  34.109  14.804
49367W        W10656  34.435  25.509   4.633
49368W        W10657   8.233  12.631   0.732
49369W        W10658  32.622   6.248   3.825
49370W        W10659  12.632   8.856  14.317
49371W        W10660  16.811   3.868  12.989
49372W        W10661  29.444  40.402   1.230
49373W        W10662  38.865  30.083  14.992
49374W        W10663  29.060  43.946   2.868
49375W        W10664  42.850   6.818   0.369
49376W        W10665   4.320  37.347   4.170
49377W        W10666  23.526  20.566   3.263
49378W        W10667   2.920  13.679   1.717
49379W        W10668  20.684   7.734  11.565
49380W        W10669   0.467  37.469   2.399
49381W        W10670  41.898  29.115   0.849
49382W        W10671   2.941  32.971  10.639
49383W        W10672   8.869  19.591  13.535
49384W        W10673  42.518   0.348  14.316
49385W        W10674  42.021   6.911   0.282
49386W        W10675   6.701  16.739   4.700
49387W        W10676   0.934  31.108   0.475
49388W        W10677   3.296  28.107  14.971
49389W        W10678   2.272  39.361   4.705
49390W        W10679  41.925   9.213  12.563
49391W        W10680  30.516  19.608   2.793
49392W        W10681  22.198  43.981   4.603
49393W        W10682  40.364  38.521  12.883
49394W        W10683  43.292  27.059   1.417
49395W        W10684  33.517  33.409   4.647
49396W        W10685  35.534  40.051   0.430
49397W        W10686  28.168  42.963   4.293
49398W        W10687  17.728  35.552   3.242
49399W        W10688   6.207   3.901  11.952
49400W        W10689   6.294  36.565  10.612
49401W        W10690  11.219  34.046  12.578
49402W        W10691   1.851   3.339  14.488
49403W        W10692   1.357   1.434  14.815
49404W        W10693  42.457  43.822  12.091
49405W        W10694  27.585  43.422  10.422
49406W        W10695   4.278  12.304  14.418
49407W        W10696  12.135  24.496   4.282
49408W        W10697   0.962  35.983  12.405
49409W        W10698  36.465   6.292  13.318
49410W        W10699  36.924  40.849  13.843
49411W        W10700  41.958  38.339  13.820
49412W        W10701  15.161  39.957   0.808
49413W        W10702  32.422   4.385   2.261
49414W        W10703  26.962  22.621   3.192
49415W        W10704  39.426  26.973   1.228
49416W        W10705  27.590  24.544  13.852
49417W        W10706   1.922  35.033  14.311
49418W        W10707  14.199  44.940  10.512
49419W        W10708  32.048  43.867  12.038
49420W        W10709  10.826   7.313   2.744
49421W        W10710  16.095  40.453  11.477
49422W        W10711  29.033  38.390  14.823
49423W        W10712   5.917  43.802  11.096
49424W        W10713  16.227  28.555  12.527
49425W        W10714  44.889  44.825  11.893
49426W        W10715   4.442  35.434   0.452
49427W        W10716  43.969  10.201   3.658
49428W        W10717  29.582   1.348  13.455
49429W        W10718  30.930  31.472  12.973
49430W        W10719   5.751   4.323  14.334
49431W        W10720   6.787  40.421   3.328
49432W        W10721   6.814   5.255  13.822
49433W        W10722  16.134  27.025   1.216
49434W        W10723  35.974  30.076  10.443
49435W        W10724  41.884  41.321  11.431
49436W        W10725   0.365  30.556   4.782
49437W        W10726  31.461  43.383   3.706
49438W        W10727   4.745  11.215   1.341
49439W        W10728   6.911   1.381   3.148
49440W        W10729  32.119  22.711   0.357
49441W        W10730  39.321  36.032  10.549
49442W        W10731  23.535  17.592   0.908
49443W        W10732  38.400  23.594  10.957
49444W        W10733  22.029  24.606   1.903
49445W        W10734  35.587  27.465  11.519
49446W        W10735  12.343  18.750  12.359
49447W        W10736  34.029  34.484  11.411
49448W        W10737  30.533  26.525  14.861
49449W        W10738  11.687  40.946  10.414
49450W        W10739  10.651  16.725  12.040
49451W        W10740  43.289  11.277  13.802
49452W        W10741  43.017  27.000  13.895
49453W        W10742   5.909  18.091   0.779
49454W        W10743  42.483  23.632  14.789
49455W        W10744  19.046  19.780   1.920
49456W        W10745   1.973  24.177   4.146
49457W        W10746  27.548   9.215   3.161
49458W        W10747   4.277  42.487   1.923
49459W        W10748  10.284  12.316   2.192
49460W        W10749  36.564  20.063   0.277
49461W        W10750  19.738  12.193  11.906
49462W        W10751  30.493  41.830   4.811
49463W        W10752  14.230  28.092   0.403
49464W        W10753  29.010  40.454  11.062
49465W        W10754  10.658  38.398  10.619
49466W        W10755  42.855  43.432   2.236
49467W        W10756  19.109  28.093  11.397
49468W        W10757  38.502  19.115  12.418
49469W        W10758   8.262  29.073  14.967
49470W        W10759  43.454  38.469   0.416
49471W        W10760  30.165  43.919  11.481
49472W        W10761  28.017  16.621  12.019
49473W        W10762  17.613  40.859  14.775
49474W        W10763  18.216   8.350  13.441
49475W        W10764  27.144  22.504  14.498
49476W        W10765  11.830   4.441  12.461
49477W        W10766  22.141   9.290   0.959
49478W        W10767   8.361  43.781   4.702
49479W        W10768   3.722   9.288  12.344
49480W        W10769   6.784  39.392  14.483
49481W        W10770  13.129   2.806   1.822
49482W        W10771  21.725   6.761  12.837
49483W        W10772   0.430  37.374   2.721
49484W        W10773  42.299  15.169  13.373
49485W        W10774  29.000  12.637  13.406
49486W        W10775   2.812  14.255   2.221
49487W        W10776  18.258  23.685   0.906
49488W        W10777  15.649  21.241   0.341
49489W        W10778   7.345  27.127  13.836
49490W        W10779  42.481  17.697   2.357
49491W        W10780  18.668  32.950  10.515
49492W        W10781  13.695  17.747   0.459
49493W        W10782  21.024  32.017  13.049
49494W        W10783   4.850  31.982   0.758
49495W        W10784  12.220  14.118   1.443
49496W        W10785  32.560  32.549   3.147
49497W        W10786   5.380  42.467   2.318
49498W        W10787   6.826  27.035  14.328
49499W        W10788  21.256   6.372   0.852
49500W        W10789  32.138  44.365   1.393
49501W        W10790   2.324  11.214  12.885
49502W        W10791  36.054  26.602  14.817
49503W        W10792  36.392  27.993  12.978
49504W        W10793  22.557  24.147  12.519
49505W        W10794   2.458  38.325   0.945
49506W        W10795   8.311  39.513  12.405
49507W        W10796   9.391  10.800  13.947
49508W        W10797  10.686  28.535  11.118
49509W        W10798  34.966   8.163  12.907
49510W        W10799  18.140  27.467   3.226
49511W        W10800   7.199   9.159   1.827
49512W        W10801  22.052   7.175   3.726
49513W        W10802   2.874   9.752   0.817
49514W        W10803  23.177   4.441  13.042
49515W        W10804  24.527  20.149   2.840
49516W        W10805  18.134  18.555   1.413
49517W        W10806  33.968  44.871  12.853
49518W        W10807  44.763   3.800  10.533
49519W        W10808  43.922  25.141   1.373
49520W        W10809  14.700  10.879   4.213
49521W        W10810  22.519   2.361   1.301
49522W        W10811  42.928  29.636   2.323
49523W        W10812  17.175  18.191  10.571
49524W        W10813  20.692  42.974  14.465
49525W        W10814  29.434  24.186   2.251
49526W        W10815  30.630   2.381   3.301
49527W        W10816  33.559  42.361  13.831
49528W        W10817  40.534  44.905   1.444
49529W        W10818  17.266  19.753   1.353
49530W        W10819  29.453  35.383  13.918
49531W        W10820  12.612  42.884  13.930
49532W        W10821  40.501   0.372   1.726
49533W        W10822  33.995  33.123  14.986
49534W        W10823   2.269  16.277  12.838
49535W        W10824  44.975   8.734   4.170
49536W        W10825  42.806  14.633  13.020
49537W        W10826  35.980  31.457  13.995
49538W        W10827   8.710  22.606  11.431
49539W        W10828  14.098   0.463  14.958
49540W        W10829  32.451  10.262   3.150
49541W        W10830   2.766  35.030   4.745
49542W        W10831  31.503   0.380   0.277
49543W        W10832  18.290  15.208   1.296
49544W        W10833  24.039   0.259  13.814
49545W        W10834  43.372  11.201  10.066
49546W        W10835   0.776  18.219  10.036
49547W        W10836  39.907  33.577  12.965
49548W        W10837   3.938  21.237  14.002
49549W        W10838  15.198  11.686   4.260
49550W        W10839  27.604  25.186  13.950
49551W        W10840  23.058  17.087   3.783
49552W        W10841   4.762   8.887  10.109
49553W        W10842   9.763  43.010  10.936
49554W        W10843   3.937  17.292  13.393
49555W        W10844  24.705  15.233  13.442
49556W        W10845  39.314   5.195  14.275
49557W        W10846   1.970  30.445   3.315
49558W        W10847  33.985  32.014  11.509
49559W        W10848   1.821   1.270   1.258
49560W        W10849  21.656   4.369   1.363
49561W        W10850  34.949  43.921   4.210
49562W        W10851  23.217  12.613  12.850
49563W        W10852  37.472  18.783   4.332
49564W        W10853  34.030  22.147  10.947
49565W        W10854  20.646  27.486   1.363
49566W        W10855  34.997  24.218   1.834
49567W        W10856  35.413   8.730   0.460
49568W        W10857   9.673  17.099   3.384
49569W        W10858  37.453  13.305  14.847
49570W        W10859   5.364  21.144  11.558
49571W        W10860  30.043   1.436   4.668
49572W        W10861  16.151  20.043   9.999
49573W        W10862   5.734  10.264   2.832
49574W        W10863  20.685  10.643   4.312
49575W        W10864   0.933   5.765   0.914
49576W        W10865  22.070   6.321   0.957
49577W        W10866  11.348  17.756  14.986
49578W        W10867  36.848  26.641  12.554
49579W        W10868  32.590  14.746  11.475
49580W        W10869   4.748  25.068  13.323
49581W        W10870  15.200  30.567  10.616
49582W        W10871  43.786  35.556   2.819
49583W        W10872  15.128  15.175   3.818
49584W        W10873  35.521  31.029   4.825
49585W        W10874   2.336  17.676  11.041
49586W        W10875  32.887  31.138  11.955
49587W        W10876  24.655  32.457   0.942
49588W        W10877   3.717  17.106   1.720
49589W        W10878  44.888   6.404  11.473
49590W        W10879  13.107   5.301  12.438
49591W        W10880   9.758  29.425  12.847
49592W        W10881  31.490  27.624   0.917
49593W        W10882  28.991  37.488   2.895
49594W        W10883  12.665  44.792  13.337
49595W        W10884  14.736   9.309  12.500
49596W        W10885  38.905   2.851  11.568
49597W        W10886  30.559  39.946   0.949
49598W        W10887   0.987  21.616  14.382
49599W        W10888  21.249  15.726  10.077
49600W        W10889  11.295  44.782   5.623
49601W        W10890  41.908  24.217  12.981
49602W        W10891  29.429  34.583  14.407
49603W        W10892  26.078   1.876  12.926
49604W        W10893  40.439  22.020  11.107
49605W        W10894   5.738   5.904  14.798
49606W        W10895  43.414   9.375  11.011
49607W        W10896   1.829   9.318   4.154
49608W        W10897  17.631  42.020  12.486
49609W        W10898   4.401  22.540   3.308
49610W        W10899  10.337  42.004  11.593
49611W        W10900  37.415   3.325  14.963
49612W        W10901  20.149   2.404   3.830
49613W        W10902   2.373  24.586   1.445
49614W        W10903   7.361  31.447  12.530
49615W        W10904  40.948  15.742  12.989
49616W        W10905  12.829   3.915  13.418
49617W        W10906  25.094  33.934  11.075
49618W        W10907  25.470  37.541  13.854
49619W        W10908  27.940  34.423   4.648
49620W        W10909  43.002  39.817  13.496
49621W        W10910  34.083  19.696  12.856
49622W        W10911   2.268  26.457   3.366
49623W        W10912  28.493  39.808   4.173
49624W        W10913  34.971   5.206   4.251
49625W        W10914  22.131   2.817   1.367
49626W        W10915  36.502   5.795  13.358
49627W        W10916  36.946   2.418   4.347
49628W        W10917  10.277   3.952  12.057
49629W        W10918  32.120  10.164   2.668
49630W        W10919  32.901  42.462   3.835
49631W        W10920  34.531  34.984  14.782
49632W        W10921   7.787  14.311   4.169
49633W        W10922  23.992  26.618   3.834
49634W        W10923  29.174   9.774  11.569
49635W        W10924  29.478  18.549  13.544
49636W        W10925  28.052  11.144  13.512
49637W        W10926  31.099  15.295  11.995
49638W        W10927   4.718  40.853  13.967
49639W        W10928  17.652  10.359  13.442
49640W        W10929  27.535  37.522   0.797
49641W        W10930  36.933   1.326  12.835
49642W        W10931  15.594   5.765   2.723
49643W        W10932  29.943  38.500   4.290
49644W        W10933  12.184   0.901  13.390
49645W        W10934  44.862  13.678  12.484
49646W        W10935  23.626  28.076  10.605
49647W        W10936   8.814  39.544  12.567
49648W        W10937  35.437  18.624  14.505
49649W        W10938  31.615  17.234  10.897
49650W        W10939  39.914  18.147  14.422
49651W        W10940  17.642  34.545  11.119
49652W        W10941  29.938  29.124  14.913
49653W        W10942   8.657   8.655  12.489
49654W        W10943  28.443  30.977  12.347
49655W        W10944  40.861  44.892  10.606
49656W        W10945  36.467   0.795  10.521
49657W        W10946  33.072   7.269   1.882
49658W        W10947  22.736  32.130   4.656
49659W        W10948   8.377  26.952   2.862
49660W        W10949   0.756  14.318   3.147
49661W        W10950  23.517  23.685  10.933
49662W        W10951  21.232  44.920   2.744
49663W        W10952  25.701   0.452  14.303
49664W        W10953  30.919  22.652  14.976
49665W        W10954  16.191   0.378  11.396
49666W        W10955   0.248   5.870  12.874
49667W        W10956  23.215  12.718  10.611
49668W        W10957  38.881  13.261  12.427
49669W        W10958  33.618  11.840  13.851
49670W        W10959  20.699  23.493   2.279
49671W        W10960  11.752  21.700   4.775
49672W        W10961  10.352  18.729   4.690
49673W        W10962   2.463  13.325   2.741
49674W        W10963  41.341  13.182  14.954
49675W        W10964  25.641  30.097   4.160
49676W        W10965  32.581   0.258  10.968
49677W        W10966   4.841  42.012   2.669
49678W        W10967  24.033  39.984   0.940
49679W        W10968  26.179  27.187  13.845
49680W        W10969   8.390  26.659  11.402
49681W        W10970  15.681   9.845  10.477
49682W        W10971  37.373  44.502   2.883
49683W        W10972   7.372  17.615   3.790
49684W        W10973  33.539  17.161  12.847
49685W        W10974   7.232  16.313   2.344
49686W        W10975  18.141  44.399  14.494
49687W        W10976   4.398  25.169   1.836
49688W        W10977  13.702  25.674  11.474
49689W        W10978  14.168   9.840  11.972
49690W        W10979  15.111  21.091  12.897
49691W        W10980  24.720  14.296  11.521
49692W        W10981  35.975   2.243   0.915
49693W        W10982  18.280  38.489   9.536
49694W        W10983   7.252   2.267  14.486
49695W        W10984  30.531   7.296  12.544
49696W        W10985   9.863  42.019   3.205
49697W        W10986  41.307  41.005  11.011
49698W        W10987  35.910  16.655  12.838
49699W        W10988   6.834  10.180  11.586
49700W        W10989  31.539   7.716  11.417
49701W        W10990  11.237  36.900   0.775
49702W        W10991  21.727   9.273   0.422
49703W        W10992  22.518  44.309   4.279
49704W        W10993  34.373  23.677  14.943
49705W        W10994  37.354  16.641   5.690
49706W        W10995  25.467  16.619  10.532
49707W        W10996  35.099  36.501   1.399
49708W        W10997  20.664   2.387   0.873
49709W        W10998   8.690  43.503  14.910
49710W        W10999  32.418  27.535   0.742
49711W        W11000   4.210   1.798  10.904
49712W        W11001   4.787  29.597   1.897
49713W        W11002  30.126  21.684   3.178
49714W        W11003  13.257  44.408   1.841
49715W        W11004   7.385   0.314   3.834
49716W        W11005  42.308  41.294   2.322
49717W        W11006  34.536  44.338   3.640
49718W        W11007  16.602  40.499   4.121
49719W        W11008  41.512   0.491  11.879
49720W        W11009   1.791  25.516   0.375
49721W        W11010  29.108  10.815  11.983
49722W        W11011   9.302  23.175  12.384
49723W        W11012  11.157  16.098   3.726
49724W        W11013  40.054  21.191  12.456
49725W        W11014  16.235  40.548  10.891
49726W        W11015  21.194  32.082   3.631
49727W        W11016   3.847  13.307  12.499
49728W        W11017  12.179  35.414  11.922
49729W        W11018  30.644  33.382  11.461
49730W        W11019  24.224  39.956   3.180
49731W        W11020  37.528  41.396  13.060
49732W        W11021  37.966  10.285  11.093
49733W        W11022  42.858  44.780   2.825
49734W        W11023  18.705  44.423   0.866
49735W        W11024  13.628  21.657  12.502
49736W        W11025  33.057  20.153   0.379
49737W        W11026   7.199  42.435   0.316
49738W        W11027  23.649  37.076   4.602
49739W        W11028  13.133  18.740  11.544
49740W        W11029  41.520   1.765   3.640
49741W        W11030  10.375  16.270   2.290
49742W        W11031  28.605  43.280   2.860
49743W        W11032  27.114  39.862   1.831
49744W        W11033  25.072  14.257   0.283
49745W        W11034   3.738   0.375  13.825
49746W        W11035  26.195   6.815   2.254
49747W        W11036  37.498  28.544   4.339
49748W        W11037  10.861  12.645   4.312
49749W        W11038  32.493  21.634   2.877
49750W        W11039   9.718   4.852  13.452
49751W        W11040  22.157  12.341   3.737
49752W        W11041  13.350  33.877   3.708
49753W        W11042   0.845  37.542  11.012
49754W        W11043  15.203  10.155  14.794
49755W        W11044   1.842  34.881   2.676
49756W        W11045  24.715   0.405  13.884
49757W        W11046   8.835  32.060   1.774
49758W        W11047  34.865  25.545   3.814
49759W        W11048  39.042  43.276  11.412
49760W        W11049  33.579   5.732  12.400
49761W        W11050  35.567  21.709   4.275
49762W        W11051  41.000  43.933  12.372
49763W        W11052  33.557  27.664  10.101
49764W        W11053  41.437  19.734   3.805
49765W        W11054  30.003  41.467  13.377
49766W        W11055   6.806  13.716   0.308
49767W        W11056  25.008  22.227  14.893
49768W        W11057   3.425  37.499   2.730
49769W        W11058  29.602  36.070   2.291
49770W        W11059  28.543  33.470   1.367
49771W        W11060  37.575  19.256  14.890
49772W        W11061  10.847  41.308  11.902
49773W        W11062  10.735  43.436  11.428
49774W        W11063   4.238  43.448   0.437
49775W        W11064  16.803  27.103  14.327
49776W        W11065  37.548  18.627  10.615
49777W        W11066   7.310   2.724   2.187
49778W        W11067   2.306  35.431  11.113
49779W        W11068   4.350  18.555  12.380
49780W        W11069   0.961  40.020  13.007
49781W        W11070  43.820  20.749   1.841
49782W        W11071  42.828  13.156  12.847
49783W        W11072  39.459  39.975   1.834
49784W        W11073   8.400  25.687  12.961
49785W        W11074  27.672   1.243   3.645
49786W        W11075  36.471   4.296  13.376
49787W        W11076   8.185   4.371  12.489
49788W        W11077  20.274  18.099   0.867
49789W        W11078   9.385   8.286  13.897
49790W        W11079  10.776  32.984   3.217
49791W        W11080  38.832  35.426  11.514
49792W        W11081   1.846  20.757  11.594
49793W        W11082  11.252   7.243  10.581
49794W        W11083  23.658  40.412  12.918
49795W        W11084  34.870  25.082  12.479
49796W        W11085  11.785  33.426   9.468
49797W        W11086  12.677  34.472  13.007
49798W        W11087  35.018  44.834   1.906
49799W        W11088  10.812   4.339  14.926
49800W        W11089  29.126  26.659  10.600
49801W        W11090  40.990  26.689   2.839
49802W        W11091  12.361  40.347  14.488
49803W        W11092  13.269  21.683  13.362
49804W        W11093  34.864  18.058  14.947
49805W        W11094  16.706  26.503  14.952
49806W        W11095  14.777   4.890  13.841
49807W        W11096  32.524  43.284  10.965
49808W        W11097  28.088  22.100   3.273
49809W        W11098  23.621   0.367  13.845
49810W        W11099  14.308  40.429  11.536
49811W        W11100  17.129  34.493   4.622
49812W        W11101   8.737   3.920   2.899
49813W        W11102  17.123  31.568  13.905
49814W        W11103  22.130  19.538  14.335
49815W        W11104   3.380   2.960   0.772
49816W        W11105   5.756   3.245  11.939
49817W        W11106  25.088  12.313   3.801
49818W        W11107  15.779  42.996  14.351
49819W        W11108  29.577  42.407   1.713
49820W        W11109  10.383  12.256  14.425
49821W        W11110   6.353  40.512  10.921
49822W        W11111  12.800  31.493   2.272
49823W        W11112  24.690  10.169   2.663
49824W        W11113  40.961  43.011  12.938
49825W        W11114  24.124   5.825  14.402
49826W        W11115   0.318  44.364   4.714
49827W        W11116  40.492  14.139  10.410
49828W        W11117  23.236  43.795   1.447
49829W        W11118  41.341  36.364  13.435
49830W        W11119   5.805   8.301   3.188
49831W        W11120  40.019  30.497  13.845
49832W        W11121  42.449  22.559  11.446
49833W        W11122  31.025  14.202   4.208
49834W        W11123  35.441  28.076  11.403
49835W        W11124   4.857   9.381  14.939
49836W        W11125  41.411  19.724  14.305
49837W        W11126  16.719  18.187  12.886
49838W        W11127  37.364  36.406   4.353
49839W        W11128   6.208  33.384  12.527
49840W        W11129   2.742  22.089  10.498
49841W        W11130   8.800   1.831  10.621
49842W        W11131  30.153  28.138  10.973
49843W        W11132  12.190  43.449  12.915
49844W        W11133   5.695  35.529   4.337
49845W        W11134  20.094  32.394   2.825
49846W        W11135  17.578   7.906   1.906
49847W        W11136  29.091  13.124   0.380
49848W        W11137   7.843  27.117   5.649
49849W        W11138  23.538  10.210  10.552
49850W        W11139  31.118  35.490   0.445
49851W        W11140  18.272  42.969   0.792
49852W        W11141  41.819  33.617   2.342
49853W        W11142  20.044  22.229  14.495
49854W        W11143  38.927  27.674  14.446
49855W        W11144  42.458  44.827   2.403
49856W        W11145  12.635  32.484  13.340
49857W        W11146  26.023  42.306  14.770
49858W        W11147  37.906  23.098   2.808
49859W        W11148  18.623   7.355  14.334
49860W        W11149  29.994  38.470  13.520
49861W        W11150  25.004  17.556   3.283
49862W        W11151  18.092  30.439  11.452
49863W        W11152  12.281  11.702   2.320
49864W        W11153   8.271  15.323  13.369
49865W        W11154  37.048   2.469  11.547
49866W        W11155  19.643  10.376   1.821
49867W        W11156  36.533   2.728   4.340
49868W        W11157   3.242  28.052   3.636
49869W        W11158  10.362   9.768   0.388
49870W        W11159  11.368  29.050  13.020
49871W        W11160  19.668  32.600  11.965
49872W        W11161  21.178  30.157  12.564
49873W        W11162  23.590  39.003   2.804
49874W        W11163   9.847  30.946  12.476
49875W        W11164   0.326  17.173  10.604
49876W        W11165  24.542   1.252  14.482
49877W        W11166  23.007  44.816  12.516
49878W        W11167  14.787   3.261   9.593
49879W        W11168  44.861  13.669  13.006
49880W        W11169  30.958  33.544  13.524
49881W        W11170  38.543  33.958  13.836
49882W        W11171  42.342  28.582   4.177
49883W        W11172  36.424   6.872  11.960
49884W        W11173  35.427  37.937   1.419
49885W        W11174  39.852  20.246   3.639
49886W        W11175  36.027  32.913   2.696
49887W        W11176   4.393  43.921  14.960
49888W        W11177  24.498  41.043   3.258
49889W        W11178  34.404   9.199   3.708
49890W        W11179  11.754  33.887   2.400
49891W        W11180  10.347  25.071  14.290
49892W        W11181  37.367  34.065  13.484
49893W        W11182  14.184   5.691   0.419
49894W        W11183  44.940  43.304  12.075
49895W        W11184  12.321   2.849  14.446
49896W        W11185   8.189  17.684  12.431
49897W        W11186  31.580  11.634   2.360
49898W        W11187  31.416  38.470   1.232
49899W        W11188   2.269   2.953  12.438
49900W        W11189   4.411  25.180  14.977
49901W        W11190  43.304  29.019  12.391
49902W        W11191  26.701  33.605  13.881
49903W        W11192  33.921  37.056  13.955
49904W        W11193  40.441  24.080   4.272
49905W        W11194  37.891   9.150  14.981
49906W        W11195   1.906  24.722  10.418
49907W        W11196  11.746  34.439  10.557
49908W        W11197  30.122  21.039   2.698
49909W        W11198   2.884  22.103  11.611
49910W        W11199  41.369  23.071   4.649
49911W        W11200  28.601  24.494  10.021
49912W        W11201  30.058   9.767  10.064
49913W        W11202  38.821  31.917  10.964
49914W        W11203  43.332   0.352   4.766
49915W        W11204  34.954  26.624   2.367
49916W        W11205   0.477  14.242   4.289
49917W        W11206  40.321  14.286  13.436
49918W        W11207  24.107  21.137   2.884
49919W        W11208   0.896   1.742   1.339
49920W        W11209  37.869  16.082  14.448
49921W        W11210  31.537  32.430  13.327
49922W        W11211  18.212  11.693  14.415
49923W        W11212  32.618   7.796  14.307
49924W        W11213  35.968  15.683  12.846
49925W        W11214  35.007  19.774  10.504
49926W        W11215   9.876  34.094  14.864
49927W        W11216  30.077   7.357   0.360
49928W        W11217  33.559  35.998  13.016
49929W        W11218   0.325   4.329  10.967
49930W        W11219  13.775  32.573   1.812
49931W        W11220  27.583   7.672   0.741
49932W        W11221  39.979   4.854   0.774
49933W        W11222  39.855   8.771   0.282
49934W        W11223  36.498   5.700   4.746
49935W        W11224  27.508  40.847  10.930
49936W        W11225  21.027   3.713  10.910
49937W        W11226  30.147  16.570   4.183
49938W        W11227  39.010   7.780   2.797
49939W        W11228   2.845  16.654  13.033
49940W        W11229  18.776   9.776   1.869
49941W        W11230  17.603  30.442  13.484
49942W        W11231  36.448  17.570  10.076
49943W        W11232  17.591  44.799   1.697
49944W        W11233  22.542  37.503   1.717
49945W        W11234   8.823  41.002  13.873
49946W        W11235  36.530  31.602   2.186
49947W        W11236  41.976   0.947   5.285
49948W        W11237  11.841   8.764   4.169
49949W        W11238  29.971  36.852  12.960
49950W        W11239  25.145  20.661   4.171
49951W        W11240   8.237  35.471  14.880
49952W        W11241  21.017  13.285   0.451
49953W        W11242   2.358  38.959  11.442
49954W        W11243  38.937  31.964   1.377
49955W        W11244  32.538  17.219   4.770
49956W        W11245  20.736  35.020   3.332
49957W        W11246  41.816  39.455   4.241
49958W        W11247  29.569   3.385  10.548
49959W        W11248  23.582  23.230   2.203
49960W        W11249   0.435   0.368   1.341
49961W        W11250   5.214  43.840   1.278
49962W        W11251  35.480  11.351  14.437
49963W        W11252  34.504  22.524   3.643
49964W        W11253   1.919  42.944   4.318
49965W        W11254  27.092  24.501  14.374
49966W        W11255  22.640  37.560   3.285
49967W        W11256  20.158  35.921   1.281
49968W        W11257  13.834  22.211   1.761
49969W        W11258  37.984  30.019  14.485
49970W        W11259  25.120  39.379   3.353
49971W        W11260  13.743   8.334  13.366
49972W        W11261  10.268  19.153   3.635
49973W        W11262   0.450  36.458  12.067
49974W        W11263  42.971  25.539   4.612
49975W        W11264  31.446   0.936  13.852
49976W        W11265  32.129  31.049  14.881
49977W        W11266  21.107  36.360   3.209
49978W        W11267  30.508   6.876  12.548
49979W        W11268  10.354  10.647  10.475
49980W        W11269  38.492   6.824  10.530
49981W        W11270  31.426  34.980  13.033
49982W        W11271   3.338  37.881   2.254
49983W        W11272  10.305  14.113   5.114
49984W        W11273  44.886   7.730   3.702
49985W        W11274  18.671  37.076  12.065
49986W        W11275  26.499  38.454  12.348
49987W        W11276  14.267   6.329   4.171
49988W        W11277  24.614  13.201   0.275
49989W        W11278  40.923  38.879   0.328
49990W        W11279  27.538  16.162  12.901
49991W        W11280  26.008  25.992  10.496
49992W        W11281  29.123  34.420   2.214
49993W        W11282   1.337  32.398   4.150
49994W        W11283   0.481  25.996   2.749
49995W        W11284  37.870  24.015   2.389
49996W        W11285  28.027  28.505   4.777
49997W        W11286  24.168  25.205  14.018
49998W        W11287  21.080   7.844  11.411
49999W        W11288  29.978  28.604  10.474
50000W        W11289   9.258  27.605  11.970
50001W        W11290  19.651  21.652   0.957
50002W        W11291  37.943  40.046   3.668
50003W        W11292  43.892  23.712  12.449
50004W        W11293  26.514  28.598   2.814
50005W        W11294  22.513   6.227   0.250
50006W        W11295   7.354  25.163  11.586
50007W        W11296   3.743  20.216  14.921
50008W        W11297  14.821   5.921  14.029
50009W        W11298  28.177  25.018   4.259
50010W        W11299  12.661   6.696  13.313
50011W        W11300  33.049   2.736  12.083
50012W        W11301  39.343  42.962   2.763
50013W        W11302  11.163  27.198  11.017
50014W        W11303   2.873  17.155  11.986
50015W        W11304  22.157   5.378  11.388
50016W        W11305  36.497  40.030  11.441
50017W        W11306  25.514  37.450  10.408
50018W        W11307  19.220  43.306   1.347
50019W        W11308  26.008  29.153   3.815
50020W        W11309   9.825   8.802  14.315
50021W        W11310   9.694  11.348  10.893
50022W        W11311  20.048  41.817  13.447
50023W        W11312   1.810  34.416  11.987
50024W        W11313  39.816  36.012  10.463
50025W        W11314   1.256   1.817  14.485
50026W        W11315  10.254   0.813  13.547
50027W        W11316  28.177   9.666   2.684
50028W        W11317  29.176  16.182  11.959
50029W        W11318  40.545  27.948  12.495
50030W        W11319  39.939  44.805  10.580
50031W        W11320  16.097   8.292  12.435
50032W        W11321   0.410  14.142   1.264
50033W        W11322  39.451  15.292  10.058
50034W        W11323  34.563  11.197  11.929
50035W        W11324  10.668  34.391  11.496
50036W        W11325  19.062  26.641   0.881
50037W        W11326   5.897   5.427  11.077
50038W        W11327  15.700  12.309   3.195
50039W        W11328  18.773  30.931   0.330
50040W        W11329   1.428  11.711  14.363
50041W        W11330   9.328  43.968   1.296
50042W        W11331   4.750  38.512  13.914
50043W        W11332  13.192  13.141   3.826
50044W        W11333  23.697  28.546   0.431
50045W        W11334   2.302  38.479  13.527
50046W        W11335  12.252  15.581  12.515
50047W        W11336   2.456  43.824   2.777
50048W        W11337  10.250  44.948   4.152
50049W        W11338  13.673  21.541  11.569
50050W        W11339  11.772  21.215   2.857
50051W        W11340  35.456  32.984   4.353
50052W        W11341  29.937  24.077   4.831
50053W        W11342   5.313  18.600   0.893
50054W        W11343   9.701   6.865   0.729
50055W        W11344  43.328  25.076   9.966
50056W        W11345  21.049  20.141  12.370
50057W        W11346   8.239   5.910  12.908
50058W        W11347   1.282  36.403  13.968
50059W        W11348  27.669  25.190   4.170
50060W        W11349  13.187  37.468   2.390
50061W        W11350  20.556  35.361  12.551
50062W        W11351   5.839  42.376   1.357
50063W        W11352  15.207   1.334  12.564
50064W        W11353  26.614  17.104   2.690
50065W        W11354   4.906   7.877   2.231
50066W        W11355  20.175  25.496   1.799
50067W        W11356  11.336  22.620   3.365
50068W        W11357  12.339   5.328  12.537
50069W        W11358  27.026  33.435  10.145
50070W        W11359  30.560  32.892  13.501
50071W        W11360  29.441  22.588  11.923
50072W        W11361  29.633  11.311   9.984
50073W        W11362  35.988  11.686   3.655
50074W        W11363  12.309  30.550  12.834
50075W        W11364  36.390  39.977   3.793
50076W        W11365  37.479  12.239   2.291
50077W        W11366  35.987  36.999   4.655
50078W        W11367   9.222   0.782   0.249
50079W        W11368  13.620  18.059   3.307
50080W        W11369  22.715  43.008   0.880
50081W        W11370  16.596  26.199   1.862
50082W        W11371   5.437  29.442  11.474
50083W        W11372  19.119   0.795   3.738
50084W        W11373   9.283  16.156  12.960
50085W        W11374  10.179  24.000  13.336
50086W        W11375  44.366  27.084   4.273
50087W        W11376  39.954  37.953   1.858
50088W        W11377  14.593  42.912  13.864
50089W        W11378  32.631   2.938   2.304
50090W        W11379  42.449   0.425  12.543
50091W        W11380   4.942   3.405  12.519
50092W        W11381  35.930   5.366  10.534
50093W        W11382  20.052   1.819   0.943
50094W        W11383  21.110  10.354   1.878
50095W        W11384  33.059  37.044  10.621
50096W        W11385  36.853   6.350  12.420
50097W        W11386  25.572   6.830  12.515
50098W        W11387   2.340  32.412  11.022
50099W        W11388  43.834  43.384  12.963
50100W        W11389  34.369  28.185   4.742
50101W        W11390  16.210  35.914  12.347
50102W        W11391  26.619   7.725   2.292
50103W        W11392  11.225   7.719   3.741
50104W        W11393  39.942  34.517   4.831
50105W        W11394  24.042  14.710  14.828
50106W        W11395  11.817  44.466  14.824
50107W        W11396  30.538  39.877  14.767
50108W        W11397  24.488  25.098   4.649
50109W        W11398   2.930   7.197  13.400
50110W        W11399  21.661  39.037  14.442
50111W        W11400  35.490   2.873  13.884
50112W        W11401   8.269  15.227   1.387
50113W        W11402   6.276  26.959  11.018
50114W        W11403  24.038  30.572  10.100
50115W        W11404  42.884  26.109   4.172
50116W        W11405  30.603   1.293  13.000
50117W        W11406  14.317  16.667   0.254
50118W        W11407  30.953  42.938  12.355
50119W        W11408  23.634  36.474   2.386
50120W        W11409  36.446   1.307  14.807
50121W        W11410  42.358  13.343  14.328
50122W        W11411  25.185   4.724  13.019
50123W        W11412  34.440  30.939  13.857
50124W        W11413  40.443   9.180   3.321
50125W        W11414  15.105  13.640   2.834
50126W        W11415  20.212  40.462   1.221
50127W        W11416  10.356   4.930   1.803
50128W        W11417   2.283  12.338   0.779
50129W        W11418  40.908   8.223  14.993
50130W        W11419   0.464   1.469   1.407
50131W        W11420   1.338   7.874  12.860
50132W        W11421  38.002  20.190  12.884
50133W        W11422   2.379  27.948   2.405
50134W        W11423  40.533   9.162   2.221
50135W        W11424  35.017  42.976  13.845
50136W        W11425  44.956  39.924  11.893
50137W        W11426   6.363  41.817   1.927
50138W        W11427  32.450   0.381  14.505
50139W        W11428  30.544  21.676  11.585
50140W        W11429  34.079  14.756  12.914
50141W        W11430  37.430   3.847  10.519
50142W        W11431  43.996   3.352   3.763
50143W        W11432  43.332  28.168  14.400
50144W        W11433  43.418  37.340   3.167
50145W        W11434  34.479   3.850   4.161
50146W        W11435  14.707  25.128  11.560
50147W        W11436  19.051  13.601   0.925
50148W        W11437  34.975  19.671  14.495
50149W        W11438  30.461   9.378   1.283
50150W        W11439  41.384  43.768  13.849
50151W        W11440  32.567   2.831  13.398
50152W        W11441   3.307  39.989  12.493
50153W        W11442  30.584  36.490  11.975
50154W        W11443  11.320   8.244   2.203
50155W        W11444  22.596  44.984   2.253
50156W        W11445   3.371  34.886   3.698
50157W        W11446  31.439  36.551  13.400
50158W        W11447  26.205   2.283   0.480
50159W        W11448  16.279  17.186   1.769
50160W        W11449  28.518   3.294   2.724
50161W        W11450  39.529  40.041  14.456
50162W        W11451  41.316  35.459  13.470
50163W        W11452  13.235  14.324   9.954
50164W        W11453   8.273  38.942   3.287
50165W        W11454  40.546   3.261   0.843
50166W        W11455  19.655  30.597  14.472
50167W        W11456   0.252  42.373   1.764
50168W        W11457  11.293  24.135   1.317
50169W        W11458  11.179   8.745  14.820
50170W        W11459  39.471  20.125   2.853
50171W        W11460  31.611  19.151   2.397
50172W        W11461  30.648  22.099  12.999
50173W        W11462  25.638  26.517   0.328
50174W        W11463  16.742  25.474   1.720
50175W        W11464  31.031  20.268  13.848
50176W        W11465  39.369   4.336   1.320
50177W        W11466  34.940  29.166   3.672
50178W        W11467  43.956  34.411   3.214
50179W        W11468  36.375  29.500   0.322
50180W        W11469  29.170  29.942   4.243
50181W        W11470  18.201  30.569  14.500
50182W        W11471  19.060  37.944  14.460
50183W        W11472  36.021  34.892   2.854
50184W        W11473  23.209   1.398  12.410
50185W        W11474   8.388  23.092  12.986
50186W        W11475  16.211  23.558  14.281
50187W        W11476  39.899   7.265   0.270
50188W        W11477   1.809  42.314  14.375
50189W        W11478  13.804  42.849  10.930
50190W        W11479  41.409  40.445   4.786
50191W        W11480  19.062  33.997   1.822
50192W        W11481   9.367  31.628  13.359
50193W        W11482  16.242  44.991   0.855
50194W        W11483  15.188  16.631   0.471
50195W        W11484  32.522  12.803  10.018
50196W        W11485   8.800  36.570   3.309
50197W        W11486  29.602  37.998  10.404
50198W        W11487   4.739  28.437   0.370
50199W        W11488  22.042   0.824  11.579
50200W        W11489   2.342  22.109   3.714
50201W        W11490  24.142  27.511  10.488
50202W        W11491  35.375   0.782   0.780
50203W        W11492  44.337  17.793   3.289
50204W        W11493  17.129  21.180  11.882
50205W        W11494  15.759  26.465   4.813
50206W        W11495  10.224  20.733  11.958
50207W        W11496  14.638  14.780   3.780
50208W        W11497   2.282  30.644   4.825
50209W        W11498  36.563  42.985  12.063
50210W        W11499  23.230  15.084   3.359
50211W        W11500   9.194  34.527  11.547
50212W        W11501  38.882  32.625   3.264
50213W        W11502  10.850  10.845   2.681
50214W        W11503   1.459  21.689  12.433
50215W        W11504  30.915  23.132   3.761
50216W        W11505  27.139   2.811  12.412
50217W        W11506   2.850  29.597  12.937
50218W        W11507  36.363   3.753   4.135
50219W        W11508   0.798  37.001   3.803
50220W        W11509  35.366  21.154   4.788
50221W        W11510  24.530  40.546  14.470
50222W        W11511  28.599   8.238   0.826
50223W        W11512  29.019   3.847   1.750
50224W        W11513  24.998  30.104  12.482
50225W        W11514  33.624  11.844  12.087
50226W        W11515  44.312  43.901  11.890
50227W        W11516   0.257   8.657  11.554
50228W        W11517   8.188  19.065   4.225
50229W        W11518  41.316  13.283  13.352
50230W        W11519  31.960   3.934  13.825
50231W        W11520   6.779  40.845   4.654
50232W        W11521  22.603  17.185   1.449
50233W        W11522  34.012  44.965  14.919
50234W        W11523  20.144  40.475  12.050
50235W        W11524  37.857  40.484   2.393
50236W        W11525  28.097  13.639  10.977
50237W        W11526  11.271  44.818   4.243
50238W        W11527   9.193  13.168   1.329
50239W        W11528  12.612   1.270   0.457
50240W        W11529  24.563   3.307  11.516
50241W        W11530  44.332   9.826   0.268
50242W        W11531  26.497  18.709  12.979
50243W        W11532  40.445  25.483  12.864
50244W        W11533  11.815  42.972   0.871
50245W        W11534  25.993  43.445  12.860
50246W        W11535  23.684  10.746   2.324
50247W        W11536  32.418  20.689  12.877
50248W        W11537  35.994  18.184   0.453
50249W        W11538  34.869  14.228  11.417
50250W        W11539  32.932  43.827  11.080
50251W        W11540  31.501  22.697  12.543
50252W        W11541  15.629   3.320   9.943
50253W        W11542   0.464  29.643   0.249
50254W        W11543   2.879   2.966   2.751
50255W        W11544  23.661  17.246   4.734
50256W        W11545  11.634  32.112   3.688
50257W        W11546  16.222  27.565  11.496
50258W        W11547   0.491  11.648   3.809
50259W        W11548   2.364  36.450  12.461
50260W        W11549  37.367  17.105  13.870
50261W        W11550  22.026  34.418  13.806
50262W        W11551   3.240  17.578   1.330
50263W        W11552  43.861  23.496   0.951
50264W        W11553   2.861   9.784  12.518
50265W        W11554  40.403  14.624  13.815
50266W        W11555  30.104  28.646   1.784
50267W        W11556  19.741  12.636   3.201
50268W        W11557   7.397  30.429   3.170
50269W        W11558  37.364  33.559   0.327
50270W        W11559  44.811  36.534   0.431
50271W        W11560  10.239  17.737   1.737
50272W        W11561   6.358  14.251   2.806
50273W        W11562   6.821   7.907  14.353
50274W        W11563  27.998   1.886   4.119
50275W        W11564  28.557   8.241  12.056
50276W        W11565  22.116  39.421  14.467
50277W        W11566  17.633  40.970   0.949
50278W        W11567   0.845  10.343   1.844
50279W        W11568  38.901  24.681  10.424
50280W        W11569   2.965  43.792   0.251
50281W        W11570   3.726  29.077   3.360
50282W        W11571  10.753  12.737   2.317
50283W        W11572  28.042   6.331   2.833
50284W        W11573  33.417  41.820   2.675
50285W        W11574  39.352  18.137   9.950
50286W        W11575  40.809  14.194  10.970
50287W        W11576   0.977   3.952   0.422
50288W        W11577  39.549  23.150   1.871
50289W        W11578   0.915  34.542   2.415
50290W        W11579  27.174  18.731   0.909
50291W        W11580  15.593  36.090  11.099
50292W        W11581  27.133   5.365  12.851
50293W        W11582  21.564   7.212  12.466
50294W        W11583  40.333  33.959   0.825
50295W        W11584  44.409  27.587  12.864
50296W        W11585  37.491   3.808   3.212
50297W        W11586  41.377  27.170  12.409
50298W        W11587  35.514   8.807   1.784
50299W        W11588  42.920  35.394  10.981
50300W        W11589  35.866  33.571   4.764
50301W        W11590  18.152  37.577  11.465
50302W        W11591  20.034   0.462   0.465
50303W        W11592  19.198  31.579  12.905
50304W        W11593  23.049  30.924  13.546
50305W        W11594  11.258  37.074   9.452
50306W        W11595   2.369   7.712  10.582
50307W        W11596  24.216  35.098   1.698
50308W        W11597  22.059  10.289   3.860
50309W        W11598  22.057  23.206   2.306
50310W        W11599  18.552  10.265   4.253
50311W        W11600  39.020  21.221  14.954
50312W        W11601  14.160  40.879   4.159
50313W        W11602  18.106  11.778   1.779
50314W        W11603  25.193   6.900   4.189
50315W        W11604  26.477  10.360  12.556
50316W        W11605   9.178  24.043   1.441
50317W        W11606  32.951  32.072  14.499
50318W        W11607  40.335  12.351  11.969
50319W        W11608   3.893  43.885   0.420
50320W        W11609  34.476  43.950  11.946
50321W        W11610  16.170   1.871  12.409
50322W        W11611  37.049   8.898   0.465
50323W        W11612   8.740   8.256  11.552
50324W        W11613  20.040   9.696   4.283
50325W        W11614  41.889  44.987   2.362
50326W        W11615  39.825  25.027   1.365
50327W        W11616  34.538  21.524   3.728
50328W        W11617  40.355   4.754   0.879
50329W        W11618  15.730   4.369  12.487
50330W        W11619  28.933  35.109  12.525
50331W        W11620   8.379   3.344   1.351
50332W        W11621  11.170   5.305  14.785
50333W        W11622  29.021  33.052  12.402
50334W        W11623  44.353  17.087   5.113
50335W        W11624  20.675  31.624   0.261
50336W        W11625  31.550  31.527  11.506
50337W        W11626  18.701  20.553  13.490
50338W        W11627  17.590  43.826  10.614
50339W        W11628  19.699  37.071  13.827
50340W        W11629   6.757   9.326  12.890
50341W        W11630  24.719  11.764   3.303
50342W        W11631  34.418  32.424  12.430
50343W        W11632  41.954  17.103  13.928
50344W        W11633   7.217  31.510   1.708
50345W        W11634   2.797   6.293  13.012
50346W        W11635   9.352  24.161   0.413
50347W        W11636  31.124  33.074   3.363
50348W        W11637  30.592   4.311  12.374
50349W        W11638   8.359   7.825  13.902
50350W        W11639  14.614  43.797  14.460
50351W        W11640  12.828  28.168  12.458
50352W        W11641  33.959  14.628   0.760
50353W        W11642  39.992   8.177   3.752
50354W        W11643  18.090  26.024   0.748
50355W        W11644  16.211  42.522  11.082
50356W        W11645   7.742  17.231  11.002
50357W        W11646   7.195   5.772  10.465
50358W        W11647   4.218  37.046  11.519
50359W        W11648  28.080  41.417   2.848
50360W        W11649   3.246  12.825  12.358
50361W        W11650  19.271  29.988   3.797
50362W        W11651  10.666  42.877  12.390
50363W        W11652  27.943  38.420  11.519
50364W        W11653  12.297  25.597   0.786
50365W        W11654  24.500  11.786  12.508
50366W        W11655   0.901   3.817  14.309
50367W        W11656  15.779  14.140   2.707
50368W        W11657   2.449   8.770   1.363
50369W        W11658  37.938  15.723  10.074
50370W        W11659  20.150   4.720   0.459
50371W        W11660  42.345  36.966  12.986
50372W        W11661   7.170  29.440   2.722
50373W        W11662  28.052   6.315  11.044
50374W        W11663  10.799  15.218  13.906
50375W        W11664  27.548  10.741   2.764
50376W        W11665   8.190  20.085  14.366
50377W        W11666  33.928  39.008  11.441
50378W        W11667  43.823   8.161   0.367
50379W        W11668  24.518  28.167  14.375
50380W        W11669  34.057  41.373  12.557
50381W        W11670   2.728  17.231   4.297
50382W        W11671  42.297  17.123  11.965
50383W        W11672  29.102  30.575  11.371
50384W        W11673  19.688   0.284   1.918
50385W        W11674  20.202  30.147  14.379
50386W        W11675  40.388  40.504  10.434
50387W        W11676  18.281  13.790  11.484
50388W        W11677  28.045  14.322   4.255
50389W        W11678   8.216   0.441   3.689
50390W        W11679  25.523  15.305   1.257
50391W        W11680   3.344  14.154   1.342
50392W        W11681  22.575  41.353   1.302
50393W        W11682   6.273   0.342  11.099
50394W        W11683  41.956  30.983  11.592
50395W        W11684  42.025   3.729  14.419
50396W        W11685  12.628  25.600   1.284
50397W        W11686   2.420  22.715  10.957
50398W        W11687  24.194   4.264   1.817
50399W        W11688  38.046  16.251  14.824
50400W        W11689  32.567  32.411   2.229
50401W        W11690   4.240  16.180  12.855
50402W        W11691   2.321  25.667  10.559
50403W        W11692  21.691  27.491   1.855
50404W        W11693  23.190  23.023   3.684
50405W        W11694  18.059   6.360  14.900
50406W        W11695  32.453  19.603   0.831
50407W        W11696  37.409  23.185   4.248
50408W        W11697  30.443  30.006  13.525
50409W        W11698  37.378  29.656   1.362
50410W        W11699  40.531  44.979  10.453
50411W        W11700  13.686  17.614  11.095
50412W        W11701  15.134  36.461   5.762
50413W        W11702  11.688   8.658  11.861
50414W        W11703   6.797  14.591   3.850
50415W        W11704  10.276  24.226   3.305
50416W        W11705   0.394  30.083   2.866
50417W        W11706   4.908  19.725  11.014
50418W        W11707  23.731  17.143   1.352
50419W        W11708  32.978  35.568  12.873
50420W        W11709   8.795  10.637   4.297
50421W        W11710  20.545  39.883   1.759
50422W        W11711  26.476  39.449   1.722
50423W        W11712  17.124  12.235  14.287
50424W        W11713  43.496  41.794  13.027
50425W        W11714  18.118  38.324   2.814
50426W        W11715  25.667  41.319  12.944
50427W        W11716  34.925  22.049   4.193
50428W        W11717  31.066  38.915  12.031
50429W        W11718  15.274   6.427  11.433
50430W        W11719   9.766  38.820  11.510
50431W        W11720  10.155  13.311   2.323
50432W        W11721  37.065  27.503  10.409
50433W        W11722  34.059  15.777   1.366
50434W        W11723  13.140  34.492   2.223
50435W        W11724   5.792  10.660   4.162
50436W        W11725  14.221   9.303  12.885
50437W        W11726  40.838  32.455   1.778
50438W        W11727  29.014  16.606   0.967
50439W        W11728  33.876   1.733   5.089
50440W        W11729   2.418  13.699  13.920
50441W        W11730  20.067   1.804  13.353
50442W        W11731  26.627   1.823  13.956
50443W        W11732  37.581  32.902  11.384
50444W        W11733  19.747  19.717  11.596
50445W        W11734  27.947   0.306   0.844
50446W        W11735  41.512  36.568   3.683
50447W        W11736  34.591  27.095  11.098
50448W        W11737  20.684   7.824   0.430
50449W        W11738  22.014   1.960  11.597
50450W        W11739  28.032  29.624   3.824
50451W        W11740  15.818  28.630  11.935
50452W        W11741  18.081  31.146  13.873
50453W        W11742  27.087  39.343   2.712
50454W        W11743  31.411  39.996  12.009
50455W        W11744  13.107  16.102   1.784
50456W        W11745  26.699   6.787  11.010
50457W        W11746   2.816   3.950  12.508
50458W        W11747   4.275  32.532   4.836
50459W        W11748  11.233   6.332   4.214
50460W        W11749  20.565  26.119  13.800
50461W        W11750  37.032  15.282   4.169
50462W        W11751  11.829  14.642   3.691
50463W        W11752  43.301  16.141   4.129
50464W        W11753   9.256  34.561  13.934
50465W        W11754   7.884  25.219   1.851
50466W        W11755  12.700  21.655  13.319
50467W        W11756   4.913  12.810   0.845
50468W        W11757  32.496  30.519  12.397
50469W        W11758  18.185  40.962   3.813
50470W        W11759  44.960   3.888  13.953
50471W        W11760  26.120   1.267  14.331
50472W        W11761  31.147  23.664  13.486
50473W        W11762  23.501  41.879  12.353
50474W        W11763  11.835  24.516   1.916
50475W        W11764  13.673  42.929  14.005
50476W        W11765  44.410  29.925   4.312
50477W        W11766  18.054  28.075  12.002
50478W        W11767  32.011  24.206  11.912
50479W        W11768  32.093  25.503   2.746
50480W        W11769  20.208  10.192   3.710
50481W        W11770  28.080  21.731   0.300
50482W        W11771  17.802  25.075  14.501
50483W        W11772  31.440   9.863  13.436
50484W        W11773  40.356  32.498  11.897
50485W        W11774  28.936  39.335  13.841
50486W        W11775  29.504  38.909  11.975
50487W        W11776  24.037   4.884   2.387
50488W        W11777  16.257  32.133  12.891
50489W        W11778   6.798  43.955   4.157
50490W        W11779  30.008  41.426   4.745
50491W        W11780   4.843   7.804   3.150
50492W        W11781  29.085  10.811   0.386
50493W        W11782  12.260   8.897   0.916
50494W        W11783  14.256  18.713   3.145
50495W        W11784  43.301  14.699   4.636
50496W        W11785   5.389  11.800  14.474
50497W        W11786  43.816  10.699   2.902
50498W        W11787  24.201  30.607  14.966
50499W        W11788  26.019  24.548  12.863
50500W        W11789   0.975  25.142   5.223
50501W        W11790  30.476  38.561   1.325
50502W        W11791  37.369  11.368   3.751
50503W        W11792  42.880   0.903  11.443
50504W        W11793  42.447  32.454   1.896
50505W        W11794  14.260  34.991   1.434
50506W        W11795  32.934  26.649  10.414
50507W        W11796  27.500  44.830  13.935
50508W        W11797   7.800  28.658  13.409
50509W        W11798  32.973   1.935  13.491
50510W        W11799  44.796  25.134  13.058
50511W        W11800  43.769   2.416  10.918
50512W        W11801  20.137  40.461  11.588
50513W        W11802   7.690  37.985   0.825
50514W        W11803  12.850   2.913   3.187
50515W        W11804  38.357   3.412  11.481
50516W        W11805  27.523   9.336  10.973
50517W        W11806  22.121  23.207   3.280
50518W        W11807  38.402  37.466  14.405
50519W        W11808  32.943  33.906  11.597
50520W        W11809   8.659  26.459   1.774
50521W        W11810  37.403  20.648  14.852
50522W        W11811   8.656  42.921  11.562
50523W        W11812   0.936  44.952  14.897
50524W        W11813  18.675  29.970   4.721
50525W        W11814  38.481  23.717   2.414
50526W        W11815  41.957  13.766   1.735
50527W        W11816  42.352  41.008  12.019
50528W        W11817  14.256  44.800   4.119
50529W        W11818  17.796  40.326  13.058
50530W        W11819   9.670  29.934   1.215
50531W        W11820  42.848  32.446   4.270
50532W        W11821   6.770  35.389  14.324
50533W        W11822  14.212   8.223   0.853
50534W        W11823   2.360  38.552   3.809
50535W        W11824  15.233  29.123   4.204
50536W        W11825  16.161  43.847  11.117
50537W        W11826  42.898   4.272   1.904
50538W        W11827   9.775   2.349   3.254
50539W        W11828  42.821  29.651  11.946
50540W        W11829  44.761  19.745   4.772
50541W        W11830  33.084   0.878  14.031
50542W        W11831   0.380  35.573  14.972
50543W        W11832   3.816  26.635  11.098
50544W        W11833  29.027  40.426  11.488
50545W        W11834  11.313  17.285  14.322
50546W        W11835   0.913  32.524  14.417
50547W        W11836   2.366  32.923  11.431
50548W        W11837  37.841  12.653  10.608
50549W        W11838   1.480   5.800   3.794
50550W        W11839   0.922   6.906  11.531
50551W        W11840  44.922   6.240  11.974
50552W        W11841  15.130   5.417   2.871
50553W        W11842  33.916  37.879   3.729
50554W        W11843  17.148   4.871  13.051
50555W        W11844   8.189  31.473  14.425
50556W        W11845   8.174  38.508   2.273
50557W        W11846  28.036  34.909   0.863
50558W        W11847  13.178  22.149   0.861
50559W        W11848   8.834  21.584   4.336
50560W        W11849  32.465  15.175   4.638
50561W        W11850  15.258  25.107  14.935
50562W        W11851   3.311  38.440   1.842
50563W        W11852   5.916  43.368  11.865
50564W        W11853  25.491  14.606   1.929
50565W        W11854  15.099  24.150   4.680
50566W        W11855  10.738  44.854   1.331
50567W        W11856  37.422   2.426  14.769
50568W        W11857  21.194  29.162   2.791
50569W        W11858  44.311  40.966   2.373
50570W        W11859   6.392   9.720  14.030
50571W        W11860  25.591  13.744  12.581
50572W        W11861  36.453   2.348  13.449
50573W        W11862  41.362  30.657  10.923
50574W        W11863  44.298  31.955   4.626
50575W        W11864  26.082  42.367  12.410
50576W        W11865  42.309   0.289   3.863
50577W        W11866  12.708  15.694  14.958
50578W        W11867   5.312  15.812   3.861
50579W        W11868  27.174  41.391   1.316
50580W        W11869  17.143  20.257  14.997
50581W        W11870  31.499  26.478   4.822
50582W        W11871  37.945  40.809  12.943
50583W        W11872  44.782  18.200  13.424
50584W        W11873  24.710  29.570   2.777
50585W        W11874  29.512  13.323  12.026
50586W        W11875  41.849  22.056   2.339
50587W        W11876  43.005  22.032   2.861
50588W        W11877  23.614  35.507  14.861
50589W        W11878   9.764  39.814  10.993
50590W        W11879   3.790  41.847  13.406
50591W        W11880  34.098  31.609   4.199
50592W        W11881   0.333  41.788  13.478
50593W        W11882  15.714  15.263  14.922
50594W        W11883  38.397   1.850  14.322
50595W        W11884  41.318   2.380   2.316
50596W        W11885  11.809  11.362   2.184
50597W        W11886  37.407  39.314  12.528
50598W        W11887  24.082  24.068   3.838
50599W        W11888  24.644  44.336   0.822
50600W        W11889  18.071   6.349  12.372
50601W        W11890  13.302  26.999   4.327
50602W        W11891  14.197  38.074   3.307
50603W        W11892   8.215   4.737   2.666
50604W        W11893  11.731  35.513   0.903
50605W        W11894  19.160  37.939  10.463
50606W        W11895  34.498  11.840  12.070
50607W        W11896  41.392  43.908   2.677
50608W        W11897  22.531  17.183   3.146
50609W        W11898   0.364  37.891   2.381
50610W        W11899   5.274  25.064  12.860
50611W        W11900  37.030  13.800  12.580
50612W        W11901   4.212   1.474   2.301
50613W        W11902  16.726  34.115   0.914
50614W        W11903  28.024  25.691  10.440
50615W        W11904  41.816  16.138  13.962
50616W        W11905  26.149  32.437  12.342
50617W        W11906  28.994   7.882   1.313
50618W        W11907  38.837  34.944   0.878
50619W        W11908  21.107   2.281  14.378
50620W        W11909  31.404   9.822  12.059
50621W        W11910   0.957   7.327   3.671
50622W        W11911  44.319  12.263   2.686
50623W        W11912  15.101   2.266  10.099
50624W        W11913  32.556  31.960  11.974
50625W        W11914   8.314  16.144   1.837
50626W        W11915  39.342  32.008   0.756
50627W        W11916  17.608  35.514  11.450
50628W        W11917  11.687  29.165   2.786
50629W        W11918  38.532  19.234  13.948
50630W        W11919   6.768   4.274  12.512
50631W        W11920  43.814  32.998  13.005
50632W        W11921  32.442  30.163  11.523
50633W        W11922  24.584   0.277  13.317
50634W        W11923  15.300  44.928  13.424
50635W        W11924   8.297  30.033   1.714
50636W        W11925  41.997  38.552  14.846
50637W        W11926  19.579  38.894  11.043
50638W        W11927  18.101  25.060  13.854
50639W        W11928   1.263  26.185  11.102
50640W        W11929  36.450  41.461   1.714
50641W        W11930  36.060  42.316  12.054
50642W        W11931  24.091  30.635   4.133
50643W        W11932  30.937  42.006  13.903
50644W        W11933   0.946  28.984  13.494
50645W        W11934  38.551  32.902   3.675
50646W        W11935  31.475   0.292  12.514
50647W        W11936  36.484  41.464  11.922
50648W        W11937  16.201  38.876   2.814
50649W        W11938   2.244  26.991   0.477
50650W        W11939  19.156  20.537   2.354
50651W        W11940  17.296  34.090   3.253
50652W        W11941  42.905  10.708  11.952
50653W        W11942  19.045  30.006   3.197
50654W        W11943  33.608  15.718  10.627
50655W        W11944  41.490  29.437   3.159
50656W        W11945  21.650  42.880  11.384
50657W        W11946   8.676  42.369  11.411
50658W        W11947  16.706  32.520   2.259
50659W        W11948  24.173   6.400   3.340
50660W        W11949  14.257  32.611   4.713
50661W        W11950  26.650  29.160   2.899
50662W        W11951  36.031  14.655   1.256
50663W        W11952  33.591  21.656   3.228
50664W        W11953   7.773   9.360   1.904
50665W        W11954   1.852  29.532  12.036
50666W        W11955  25.027  27.108  10.979
50667W        W11956   7.337  31.645   4.664
50668W        W11957  24.168  35.565  14.903
50669W        W11958  21.618  31.106  14.465
50670W        W11959  41.401  15.150  13.016
50671W        W11960  41.365  42.952  11.612
50672W        W11961  35.070  29.531  14.769
50673W        W11962  27.072   6.902   2.729
50674W        W11963  10.290  23.153   4.117
50675W        W11964  37.338  38.475  14.869
50676W        W11965  35.446  39.492   1.878
50677W        W11966  22.229   6.798   4.309
50678W        W11967  31.929  15.652   9.936
50679W        W11968   5.709   5.430  11.571
50680W        W11969  26.629  43.369  10.625
50681W        W11970   1.917   6.417  14.495
50682W        W11971  35.975  21.043  14.375
50683W        W11972  39.914  15.639   3.374
50684W        W11973  37.051  18.727  11.002
50685W        W11974   8.817   1.405   4.350
50686W        W11975   5.897  28.521  14.312
50687W        W11976   5.235  44.264   4.835
50688W        W11977  40.937  18.733   4.321
50689W        W11978   5.707  21.549   9.666
50690W        W11979  25.645  21.521   0.897
50691W        W11980  29.450  40.434  14.921
50692W        W11981  33.499  28.583  10.506
50693W        W11982  29.170  34.396  11.493
50694W        W11983  40.369   5.909   3.247
50695W        W11984  17.242  23.644  14.017
50696W        W11985  26.628  32.399  12.856
50697W        W11986  19.641  13.204  12.980
50698W        W11987   6.415  13.250   3.777
50699W        W11988  13.214  41.851   3.375
50700W        W11989   9.722  38.393   1.390
50701W        W11990   6.204  18.582   4.679
50702W        W11991  20.079  43.430  13.043
50703W        W11992  15.676  30.550   1.930
50704W        W11993  15.130  36.459   4.762
50705W        W11994  33.086  40.530  12.446
50706W        W11995   3.759  44.876  14.403
50707W        W11996  10.795  27.508  11.414
50708W        W11997  17.776   2.367  14.453
50709W        W11998  20.159   3.912   1.344
50710W        W11999  38.836   0.934   2.290
50711W        W12000  34.992   4.219  12.852
50712W        W12001  36.588  36.577  14.890
50713W        W12002   4.426   2.249   3.171
50714W        W12003  23.043   5.813   3.387
50715W        W12004  37.420  32.020   4.779
50716W        W12005  35.049  26.003   0.779
50717W        W12006  19.559  35.085  13.546
50718W        W12007  39.433  31.631   1.275
50719W        W12008  28.634  25.611  14.290
50720W        W12009  42.778   6.704   1.706
50721W        W12010  36.351  36.420  10.589
50722W        W12011  12.170  29.011  10.975
50723W        W12012  38.953  26.518  11.524
50724W        W12013  32.438  14.258  14.832
50725W        W12014  29.574  31.497   1.321
50726W        W12015  35.081  18.656   2.802
50727W        W12016   3.786  16.765  13.359
50728W        W12017  25.219  19.186   3.664
50729W        W12018  34.374  15.137  14.857
50730W        W12019  15.594  23.503   3.668
50731W        W12020  17.655  35.925  14.788
50732W        W12021  13.663   5.786   1.359
50733W        W12022  24.693   5.341   3.799
50734W        W12023  17.114  20.608  14.856
50735W        W12024  38.012  29.568  10.616
50736W        W12025   6.912  24.582  13.307
50737W        W12026  15.112  34.913  12.373
50738W        W12027  20.063   2.472   0.735
50739W        W12028  27.180  14.307  14.396
50740W        W12029   0.261   6.906   4.311
50741W        W12030  40.012  13.748   2.341
50742W        W12031  31.598  43.509  13.009
50743W        W12032   9.782  30.603   0.438
50744W        W12033   2.793  27.671  12.865
50745W        W12034  16.725  37.432   1.873
50746W        W12035   1.463   3.402  14.972
50747W        W12036  21.604  33.519  11.009
50748W        W12037  37.516  22.175  11.433
50749W        W12038  25.707  32.448   4.721
50750W        W12039  21.550   9.764   4.612
50751W        W12040  27.026   6.402  12.898
50752W        W12041   0.907  24.648  10.492
50753W        W12042  36.085  19.102  13.013
50754W        W12043  41.996  40.541   0.354
50755W        W12044  31.053  39.844   1.750
50756W        W12045  42.503  14.751  14.780
50757W        W12046  37.387  27.974  14.805
50758W        W12047  25.059  39.490   2.227
50759W        W12048   9.302  40.924   1.934
50760W        W12049  19.238  20.606  14.495
50761W        W12050  24.198  41.869  11.609
50762W        W12051   9.328  37.451  10.922
50763W        W12052  28.105   1.732   1.429
50764W        W12053  42.822  28.991   3.155
50765W        W12054   5.916   3.858   1.884
50766W        W12055  35.884  42.025  12.932
50767W        W12056  29.510  14.208   0.382
50768W        W12057  11.856  25.170   3.856
50769W        W12058  10.342  17.757  11.961
50770W        W12059  27.085   7.765  14.958
50771W        W12060   3.851  21.062   2.229
50772W        W12061  13.808  37.905  12.967
50773W        W12062  23.214  34.042   1.816
50774W        W12063  34.438  30.138   4.140
50775W        W12064  40.895   9.284  14.782
50776W        W12065   6.882  21.220  13.450
50777W        W12066  23.169   1.333   1.717
50778W        W12067  31.418  36.897  13.895
50779W        W12068  22.063  37.014   1.392
50780W        W12069  44.343  16.793  14.496
50781W        W12070  30.534  40.859  13.989
50782W        W12071  33.554  31.976  12.054
50783W        W12072  26.969   5.836   2.713
50784W        W12073  21.752  12.126   1.866
50785W        W12074  14.762  35.029   2.381
50786W        W12075  23.679  41.869  13.492
50787W        W12076   2.347  15.647   3.704
50788W        W12077  41.871   7.288   4.160
50789W        W12078  37.378  23.685   0.824
50790W        W12079  40.459  23.218   1.740
50791W        W12080  27.586  43.352  12.864
50792W        W12081  42.384   5.424   4.183
50793W        W12082  31.991  26.988   2.240
50794W        W12083   6.797  24.535   5.163
50795W        W12084  12.216  21.224   3.259
50796W        W12085  41.470  24.570   2.713
50797W        W12086  23.566  33.500  11.855
50798W        W12087  32.061   7.862   2.815
50799W        W12088  24.230   2.343   1.255
50800W        W12089   2.810  13.204   0.773
50801W        W12090  18.686   4.359  10.933
50802W        W12091  43.884  15.104   3.164
50803W        W12092  20.548  27.685  12.925
50804W        W12093  15.261  41.923  14.814
50805W        W12094   5.429   6.896   0.448
50806W        W12095  42.850   1.425   4.222
50807W        W12096  25.161  18.152  14.349
50808W        W12097  32.140  40.318   4.708
50809W        W12098  35.006  32.060   5.158
50810W        W12099  19.177  27.642   2.717
50811W        W12100  11.309  23.507  10.951
50812W        W12101  21.076   7.710   4.303
50813W        W12102  22.721   3.894  12.998
50814W        W12103  23.065  23.196   0.415
50815W        W12104  19.046  20.618   2.667
50816W        W12105  26.082  17.629   0.281
50817W        W12106  14.716  31.415  12.908
50818W        W12107  40.382  31.442   1.891
50819W        W12108  40.900  39.838   4.122
50820W        W12109  10.695  33.897  14.430
50821W        W12110  23.152   0.326   2.768
50822W        W12111   6.332  16.233   1.853
50823W        W12112  37.461  34.943   1.232
50824W        W12113  39.036  20.223  12.426
50825W        W12114  31.518  43.450  14.772
50826W        W12115   1.778  44.001  13.471
50827W        W12116   5.691   9.330  11.073
50828W        W12117  10.830  28.573  10.467
50829W        W12118  13.603  17.189   0.839
50830W        W12119  19.627  28.075  10.639
50831W        W12120  11.714  21.121   5.102
50832W        W12121  34.904  34.960   0.426
50833W        W12122  22.582  25.067  10.569
50834W        W12123   1.824  14.268  11.985
50835W        W12124  21.118  42.825   3.698
50836W        W12125  38.834   8.200  12.910
50837W        W12126   9.728   0.902  10.148
50838W        W12127  17.667  37.853  11.454
50839W        W12128  20.659   5.732  12.445
50840W        W12129   2.871  37.481  11.373
50841W        W12130  30.119  33.935   1.235
50842W        W12131  27.460  12.802   4.308
50843W        W12132  39.055  32.115  10.619
50844W        W12133  33.599  33.591   3.823
50845W        W12134  36.873  22.118  12.365
50846W        W12135  15.588  15.231  10.972
50847W        W12136  41.322  15.594   3.683
50848W        W12137  11.817   3.331   9.988
50849W        W12138   5.225  34.995   3.867
50850W        W12139   0.886  19.046   2.749
50851W        W12140   7.405  37.507  14.938
50852W        W12141  32.614  32.445  12.383
50853W        W12142  26.649  39.976   1.919
50854W        W12143  33.404  38.325  10.478
50855W        W12144  36.942  40.451   3.202
50856W        W12145  29.160  30.473  13.035
50857W        W12146  25.705   0.898  14.888
50858W        W12147  39.907  31.959  10.933
50859W        W12148  33.585  33.386   1.359
50860W        W12149   9.302  40.958   2.796
50861W        W12150  34.523   9.683  14.847
50862W        W12151  33.901   9.654  12.472
50863W        W12152  43.348  33.423  14.919
50864W        W12153  43.272  20.707  14.449
50865W        W12154  31.910   7.190  13.420
50866W        W12155  28.670  35.939   4.838
50867W        W12156   0.988  36.381   1.864
50868W        W12157  39.983  36.381   1.828
50869W        W12158  12.313  20.590  13.851
50870W        W12159  35.555  27.490  13.398
50871W        W12160  41.352  44.309  12.006
50872W        W12161  37.571  14.764   4.708
50873W        W12162  38.959   6.216   4.189
50874W        W12163  20.707   6.714  11.499
50875W        W12164  38.445  32.900   2.813
50876W        W12165  14.308  42.985   0.781
50877W        W12166  19.714  17.732   0.952
50878W        W12167   6.302  33.426   2.370
50879W        W12168  18.197   0.901   4.157
50880W        W12169  31.454  20.104   2.245
50881W        W12170  23.151  12.361  13.992
50882W        W12171  30.940  41.019   0.300
50883W        W12172  30.985   8.858  14.850
50884W        W12173  27.480   9.828  12.424
50885W        W12174   8.192   4.450   2.390
50886W        W12175  21.727  20.588  14.863
50887W        W12176  10.863  30.414   0.446
50888W        W12177  32.072   3.400   0.320
50889W        W12178  39.457   4.826  14.908
50890W        W12179  14.112  16.613  12.905
50891W        W12180  38.819  11.734  14.362
50892W        W12181   7.232  19.643   1.800
50893W        W12182  25.617  24.531   1.282
50894W        W12183   5.241  44.471  14.984
50895W        W12184  17.635  18.287   1.805
50896W        W12185   1.951  36.928  13.335
50897W        W12186  32.974  40.019   1.716
50898W        W12187  28.463  12.681   1.274
50899W        W12188  44.798  37.388   3.329
50900W        W12189  27.656  12.354   4.687
50901W        W12190  20.273   0.803   0.903
50902W        W12191   9.872   5.219   0.806
50903W        W12192  35.496  32.035   3.801
50904W        W12193  31.070  44.001  14.358
50905W        W12194  20.260  35.859  14.315
50906W        W12195   5.395  31.023   0.764
50907W        W12196  20.659   2.866   1.256
50908W        W12197   3.298  39.421  11.965
50909W        W12198  36.590  41.395  13.811
50910W        W12199  16.769  13.293   3.158
50911W        W12200  33.124  39.403  13.340
50912W        W12201  42.824  33.570   3.381
50913W        W12202  32.522   4.738   2.269
50914W        W12203  39.494  33.562  13.925
50915W        W12204  12.359  42.283   3.252
50916W        W12205  36.891  36.470   2.730
50917W        W12206   1.439   2.267   4.268
50918W        W12207  28.974  42.833   3.718
50919W        W12208  25.089  42.819   2.352
50920W        W12209  34.090   8.718  14.771
50921W        W12210  16.168  12.628   4.343
50922W        W12211   0.467  21.667  11.531
50923W        W12212  29.091  39.366  11.902
50924W        W12213   3.422   5.900   0.288
50925W        W12214  41.912   0.966  11.115
50926W        W12215   0.918  13.152   1.832
50927W        W12216   7.880  36.541   1.389
50928W        W12217  15.259   4.340   2.830
50929W        W12218   4.941  41.008  13.529
50930W        W12219  22.055  29.600   3.229
50931W        W12220  15.144   2.234   2.350
50932W        W12221  42.894   3.789  14.410
50933W        W12222  31.001  13.168   2.856
50934W        W12223  19.051  24.498   3.824
50935W        W12224  41.463   6.718   3.864
50936W        W12225  30.487  28.476  11.501
50937W        W12226  22.688   7.192   1.284
50938W        W12227  10.290  25.034   2.702
50939W        W12228  42.928  35.103  14.965
50940W        W12229  14.796  32.575  11.091
50941W        W12230  40.386   1.861  14.347
50942W        W12231  14.741  42.897   2.349
50943W        W12232  22.667   5.217   2.320
50944W        W12233  13.347   4.301   3.778
50945W        W12234  44.435  30.915  10.645
50946W        W12235  27.178  39.934  12.839
50947W        W12236  43.375  26.985  10.517
50948W        W12237  29.033  15.697  11.491
50949W        W12238   6.206   7.403  12.459
50950W        W12239  19.058   1.392  13.040
50951W        W12240  27.176  19.101   2.304
50952W        W12241  33.050  39.857  14.782
50953W        W12242  22.241  10.225  13.507
50954W        W12243  32.622  26.164   3.659
50955W        W12244  15.801  28.656  12.554
50956W        W12245  42.344  32.582  10.915
50957W        W12246  38.895  17.205  13.793
50958W        W12247   9.381  15.136   3.155
50959W        W12248  29.948  40.446  14.332
50960W        W12249  19.227  17.614  14.292
50961W        W12250  32.489  43.303   1.799
50962W        W12251  10.143  25.697  12.541
50963W        W12252   4.371   6.812  10.576
50964W        W12253  27.080  11.707   0.771
50965W        W12254  40.812  42.508   2.868
50966W        W12255  28.524   0.398  12.388
50967W        W12256  40.862  23.218  14.820
50968W        W12257  22.207  42.284   0.943
50969W        W12258  14.236  34.381  11.124
50970W        W12259  25.557  15.233  13.972
50971W        W12260  13.677  16.738   4.617
50972W        W12261   0.909  37.560  12.453
50973W        W12262  27.086  27.478   2.253
50974W        W12263  38.410  23.211  12.427
50975W        W12264  20.098  37.933  10.451
50976W        W12265  16.235  10.778  10.451
50977W        W12266  36.878  22.573  13.476
50978W        W12267  23.991   6.846   4.815
50979W        W12268  24.032  20.231   1.729
50980W        W12269  20.726  28.086  11.607
50981W        W12270  33.527  35.894  11.573
50982W        W12271  12.141   7.672  12.976
50983W        W12272  10.239  41.850   3.317
50984W        W12273  32.947  16.141   4.787
50985W        W12274   1.370  39.349   1.248
50986W        W12275  13.689  14.669   3.327
50987W        W12276  12.665  28.562  14.776
50988W        W12277  16.636  35.406   3.700
50989W        W12278   4.819   3.735   1.825
50990W        W12279  24.569  27.682  12.349
50991W        W12280   0.767  36.036  14.475
50992W        W12281   6.352  15.642  13.371
50993W        W12282  26.139  33.526  12.923
50994W        W12283  33.626  22.101   1.360
50995W        W12284   9.273  21.038   1.346
50996W        W12285  23.143  34.564  13.320
50997W        W12286  30.626  14.637   3.294
50998W        W12287  41.527  36.064   4.205
50999W        W12288  25.061  37.477  10.406
51000W        W12289  17.292   3.825   0.404
51001W        W12290   6.812   0.803   2.847
51002W        W12291   2.771   6.775  11.484
51003W        W12292  27.457  37.522  12.871
51004W        W12293   1.419  17.233   0.459
51005W        W12294   1.427  30.068  14.451
51006W        W12295   3.933   7.798   3.705
51007W        W12296   5.847  22.625   5.229
51008W        W12297  44.905   3.318   3.324
51009W        W12298  39.906  42.468   2.294
51010W        W12299   9.699  15.797  14.287
51011W        W12300  21.551  17.242   4.640
51012W        W12301  40.987  11.251   0.792
51013W        W12302   3.298  23.712   0.348
51014W        W12303  24.687  34.582   0.281
51015W        W12304  41.338  41.352  11.469
51016W        W12305  29.948  19.115  11.004
51017W        W12306  19.080   9.722   2.800
51018W        W12307   7.282   3.450   2.703
51019W        W12308  23.505  42.358  11.930
51020W        W12309  12.134   1.286  10.472
51021W        W12310  44.839  12.184   1.431
51022W        W12311   2.409  40.320  13.374
51023W        W12312  16.575  27.690   2.757
51024W        W12313  28.088  41.895  14.780
51025W        W12314  35.401  43.886   0.258
51026W        W12315   2.793  37.989  12.520
51027W        W12316  29.472   4.861   5.090
51028W        W12317   4.799  23.059   3.739
51029W        W12318   5.895  33.058   3.665
51030W        W12319  12.615  20.657   9.961
51031W        W12320  43.828  26.976  14.320
51032W        W12321  15.327  32.026  13.538
51033W        W12322  14.688  16.574   2.861
51034W        W12323  21.595  33.479  14.806
51035W        W12324  10.261  23.544   2.784
51036W        W12325  12.827  14.719   3.825
51037W        W12326  37.474  16.223   1.706
51038W        W12327  31.538  39.892  11.005
51039W        W12328  29.432  43.988  10.526
51040W        W12329  35.467   5.196   4.176
51041W        W12330  37.068  15.753   4.319
51042W        W12331  39.901  33.918   3.640
51043W        W12332  40.519  27.047   4.342
51044W        W12333  41.850  15.811   5.081
51045W        W12334  40.384  29.445  13.029
51046W        W12335  14.590  34.463  12.472
51047W        W12336   3.357  35.968   3.335
51048W        W12337  37.003  40.479  14.024
51049W        W12338  43.339  40.054  11.434
51050W        W12339  11.805  36.446  11.042
51051W        W12340  24.635  43.430   2.374
51052W        W12341  41.384   6.758   2.314
51053W        W12342  36.355  41.333   3.679
51054W        W12343   5.240   9.395   0.264
51055W        W12344  15.707   8.788   2.849
51056W        W12345  31.532  40.942  13.542
51057W        W12346  33.497   5.777  11.457
51058W        W12347  40.421  18.138   0.918
51059W        W12348  16.782   3.369   0.413
51060W        W12349  32.109  37.857   4.774
51061W        W12350  17.775  24.214  12.076
51062W        W12351  29.566  27.997   0.730
51063W        W12352  17.234  19.656   1.694
51064W        W12353  43.011   7.780  10.123
51065W        W12354  37.458  26.147   1.801
51066W        W12355   1.432  26.146  13.516
51067W        W12356  13.600  26.008  11.865
51068W        W12357  25.042  40.511   3.668
51069W        W12358   5.256  33.086  12.346
51070W        W12359  31.456  35.437  13.805
51071W        W12360  12.802  12.786   2.331
51072W        W12361  32.491  32.536   4.116
51073W        W12362   6.306  36.065  12.421
51074W        W12363  17.297  36.019   0.255
51075W        W12364   2.760  10.810   2.328
51076W        W12365  22.215   8.364   3.795
51077W        W12366  29.581   6.304  13.931
51078W        W12367  35.505   8.849   1.355
51079W        W12368  22.160  11.263   0.742
51080W        W12369  19.219  10.680   3.380
51081W        W12370  29.982  37.033  13.407
51082W        W12371  20.231  13.792   3.636
51083W        W12372  22.044   2.729  12.545
51084W        W12373  14.309   8.666  12.859
51085W        W12374  18.646  44.819  12.071
51086W        W12375  12.174   1.960  11.912
51087W        W12376  12.631  39.504   1.263
51088W        W12377  35.473  33.403   2.899
51089W        W12378  42.414   2.935   2.889
51090W        W12379  24.682  43.469   0.353
51091W        W12380   2.939  33.486  11.611
51092W        W12381  41.389   7.708  10.899
51093W        W12382  42.474   7.198  10.978
51094W        W12383  17.121  20.766   4.155
51095W        W12384  10.795  25.518  12.416
51096W        W12385  29.121  13.349   2.735
51097W        W12386   8.805  17.137   2.200
51098W        W12387  29.964  21.602   1.742
51099W        W12388  28.607  24.687   4.208
51100W        W12389  32.992  15.596   3.744
51101W        W12390  11.691  20.226  14.464
51102W        W12391   6.397  29.037   2.805
51103W        W12392  25.995  44.841  10.515
51104W        W12393  30.467  42.382   1.784
51105W        W12394  42.284   7.286   4.789
51106W        W12395  33.471  16.795   2.830
51107W        W12396   3.739   6.381   3.359
51108W        W12397  26.196  33.123   2.899
51109W        W12398  11.828  42.885   4.259
51110W        W12399   4.804  24.068   2.366
51111W        W12400  31.495   2.458   3.242
51112W        W12401  26.470  33.016  14.302
51113W        W12402  33.461   9.384   3.281
51114W        W12403  37.514  11.321  13.869
51115W        W12404  19.077   2.370  10.967
51116W        W12405  13.237  18.121  14.030
51117W        W12406  12.729   0.799  11.412
51118W        W12407   6.372  14.607  14.315
51119W        W12408  28.959   7.742  13.413
51120W        W12409  28.174  42.005  13.354
51121W        W12410  21.743   0.842  12.368
51122W        W12411   7.900  12.155  14.003
51123W        W12412   1.733  25.034   3.227
51124W        W12413  16.615  25.031   4.735
51125W        W12414  42.414  11.226  12.364
51126W        W12415  26.178  19.550   1.332
51127W        W12416   4.247   5.425   0.457
51128W        W12417  24.110  33.505  10.430
51129W        W12418  23.493  43.015   3.709
51130W        W12419  32.634   1.276  11.455
51131W        W12420  39.393  40.871   4.203
51132W        W12421  29.521  30.456  10.939
51133W        W12422  28.002  11.373   2.279
51134W        W12423  32.109  12.685   0.861
51135W        W12424  35.549  35.596   2.236
51136W        W12425  31.085  37.580   3.203
51137W        W12426  24.668  15.631  11.924
51138W        W12427  18.218   4.424   1.788
51139W        W12428  11.165  24.495   0.777
51140W        W12429   2.287  17.209  12.516
51141W        W12430   3.415  39.042   4.696
51142W        W12431  38.895  16.108  13.879
51143W        W12432  17.697  44.317  10.586
51144W        W12433  25.032  37.379  12.950
51145W        W12434  39.945   0.841  14.389
51146W        W12435  40.545   3.840  12.032
51147W        W12436   0.891   2.386   1.766
51148W        W12437  32.515  13.220  12.445
51149W        W12438  11.279  42.474   3.808
51150W        W12439  27.680  16.265  13.476
51151W        W12440  29.464   3.237  12.569
51152W        W12441  29.060   4.357   3.714
51153W        W12442   1.879   9.716   0.384
51154W        W12443   0.979  11.772   4.171
51155W        W12444  38.400  34.108   2.228
51156W        W12445  39.888  21.755   0.372
51157W        W12446  13.625   6.278   2.674
51158W        W12447  39.936  10.833   2.902
51159W        W12448  27.996   9.681  12.914
51160W        W12449   1.933  35.998   1.694
51161W        W12450   6.775   5.424  13.459
51162W        W12451   7.319  20.719  13.842
51163W        W12452  35.064  26.671   3.303
51164W        W12453  11.208  33.382   3.722
51165W        W12454  40.452  26.646  12.006
51166W        W12455  15.733  31.415  12.004
51167W        W12456  41.041  13.606   0.436
51168W        W12457  25.606  38.020  13.060
51169W        W12458  40.311  20.093   3.321
51170W        W12459  43.940   6.883   4.748
51171W        W12460   0.324  42.905  13.537
51172W        W12461   7.353  16.609  14.405
51173W        W12462  31.485   0.256   1.879
51174W        W12463  43.473  18.258  13.977
51175W        W12464  32.099  27.545   2.805
51176W        W12465  24.615   9.201  14.799
51177W        W12466   0.356  26.689   4.280
51178W        W12467  36.951  26.041  14.442
51179W        W12468  25.621  12.667   2.350
51180W        W12469  27.508  11.327  11.388
51181W        W12470  41.843  38.883  10.059
51182W        W12471  32.094  22.096   0.441
51183W        W12472   6.189  23.509   1.831
51184W        W12473  14.714  10.336   4.217
51185W        W12474   2.930  15.584  12.859
51186W        W12475  31.575   3.954  14.813
51187W        W12476   2.966  15.783   3.763
51188W        W12477  19.593  14.638   4.239
51189W        W12478  13.260  39.945   9.610
51190W        W12479   2.250  17.675   4.653
51191W        W12480  28.511  14.267   1.364
51192W        W12481  37.076   6.749  13.897
51193W        W12482  19.722  38.958   1.322
51194W        W12483  21.168  11.341   4.795
51195W        W12484  35.603  27.463   3.662
51196W        W12485   3.349  12.697   4.816
51197W        W12486   8.398  37.409   2.303
51198W        W12487   1.864  28.620  11.088
51199W        W12488  42.347  29.087   4.787
51200W        W12489   6.818  40.423  14.373
51201W        W12490  35.364  13.712  13.537
51202W        W12491   0.948  16.597   2.336
51203W        W12492  44.436  20.541  10.009
51204W        W12493  34.958  18.676   4.336
51205W        W12494  21.089   7.196   0.928
51206W        W12495  22.622   7.388  11.586
51207W        W12496   5.380  41.024   2.853
51208W        W12497  16.189  44.323  10.062
51209W        W12498  21.653   9.237  14.381
51210W        W12499  42.356   5.237   1.804
51211W        W12500  17.250  32.886  13.002
51212W        W12501  14.140  34.518   5.091
51213W        W12502  25.580   8.860   0.353
51214W        W12503  15.142  24.021  14.802
51215W        W12504  23.234  16.107  14.512
51216W        W12505   8.720   6.884  12.392
51217W        W12506  37.477  14.738   4.184
51218W        W12507  38.444   5.273  13.981
51219W        W12508   1.961  11.738  13.060
51220W        W12509  15.168  13.751  12.446
51221W        W12510  10.236  15.322  12.479
51222W        W12511  12.646  12.692   4.143
51223W        W12512   0.454  44.883   2.184
51224W        W12513  32.630  23.127  12.028
51225W        W12514  26.626  22.170   1.837
51226W        W12515  43.422  44.278  10.419
51227W        W12516  32.582  43.962  12.465
51228W        W12517  14.224   4.785   1.829
51229W        W12518  38.966   2.782   4.710
51230W        W12519  37.492  42.374  12.552
51231W        W12520  18.121  40.810   4.321
51232W        W12521   8.896  36.458  14.801
51233W        W12522  22.160  36.549  12.577
51234W        W12523  33.441  42.304   1.449
51235W        W12524  43.827  21.071  12.071
51236W        W12525  34.950  24.586   3.331
51237W        W12526  15.189  43.977   4.683
51238W        W12527  25.557  33.090   2.224
51239W        W12528  11.181  40.339   0.307
51240W        W12529   5.736   9.318   4.719
51241W        W12530   9.244  16.774   0.935
51242W        W12531   6.381  35.933  13.857
51243W        W12532   7.273   9.284  10.914
51244W        W12533  25.975   6.188  13.935
51245W        W12534  20.224  10.144  10.449
51246W        W12535   4.414  36.944   3.295
51247W        W12536  44.276  34.410  12.937
51248W        W12537  38.447   1.440   2.856
51249W        W12538   5.898   4.443   3.256
51250W        W12539  10.287  15.588  12.909
51251W        W12540  22.130   5.292  12.856
51252W        W12541  14.640  23.618   1.831
51253W        W12542   0.291  24.595  14.819
51254W        W12543  36.532  17.618   5.226
51255W        W12544  44.465  21.145  14.431
51256W        W12545   7.257  25.533  12.436
51257W        W12546  18.690   3.904  13.454
51258W        W12547   2.245  44.301  11.042
51259W        W12548  34.872   5.388   3.799
51260W        W12549  10.806  24.992  13.323
51261W        W12550  26.979  20.533   3.232
51262W        W12551  10.153   8.782   3.228
51263W        W12552   4.880  44.811  11.457
51264W        W12553  21.639  30.641  11.605
51265W        W12554   6.259  12.672   4.308
51266W        W12555  31.618   2.416   2.735
51267W        W12556  41.405  36.898  14.421
51268W        W12557  31.124  34.556   3.646
51269W        W12558   9.152   7.406   0.805
51270W        W12559  40.364   3.215  10.016
51271W        W12560  28.502  26.518  12.938
51272W        W12561  12.146  10.181  14.818
51273W        W12562  13.261   6.424  13.899
51274W        W12563  30.932  28.530  14.997
51275W        W12564  43.892   7.796   3.287
51276W        W12565  13.173  26.999   0.870
51277W        W12566   8.231   3.834  10.896
51278W        W12567  18.727  36.446   3.808
51279W        W12568  11.701  29.517  10.597
51280W        W12569  38.529  28.576   1.781
51281W        W12570  13.222  33.064   1.711
51282W        W12571   6.885  28.029   4.665
51283W        W12572  21.547  30.047  12.022
51284W        W12573  12.729  16.317  12.441
51285W        W12574   3.258  27.954   0.883
51286W        W12575  29.667  27.106   1.926
51287W        W12576  28.582  25.588   3.637
51288W        W12577   8.361  30.118  13.541
51289W        W12578  36.532   5.796  11.597
51290W        W12579  31.002  26.616   4.272
51291W        W12580  39.434  10.847   3.196
51292W        W12581  15.138  19.042  12.567
51293W        W12582   0.280  23.210  12.834
51294W        W12583  20.749  39.869   3.298
51295W        W12584   0.312  44.834   3.343
51296W        W12585  30.606  19.663   3.689
51297W        W12586  43.350   3.811  11.478
51298W        W12587   4.287  43.416  11.952
51299W        W12588  18.644  15.221   3.312
51300W        W12589  18.724  15.185  12.415
51301W        W12590   7.190  44.967  13.002
51302W        W12591  37.076  25.165   4.350
51303W        W12592  12.641   5.857  12.092
51304W        W12593  41.854   5.421   1.430
51305W        W12594  32.531  31.945   3.247
51306W        W12595  14.153   2.911  13.052
51307W        W12596  38.926  11.218  14.413
51308W        W12597   4.293  29.998   4.605
51309W        W12598  17.171  14.772  14.987
51310W        W12599  42.869  14.767  13.849
51311W        W12600  21.566   8.352   3.836
51312W        W12601  33.613  19.231   0.932
51313W        W12602  26.674  22.161   1.444
51314W        W12603   9.262   7.231   2.773
51315W        W12604   6.743   1.273  12.433
51316W        W12605  17.632   5.751   3.375
51317W        W12606  42.426  25.195   4.239
51318W        W12607  32.474  14.767  10.962
51319W        W12608  26.693   2.869  10.443
51320W        W12609  19.715  18.773   0.959
51321W        W12610  26.586  17.101   4.190
51322W        W12611  41.895   7.843   0.261
51323W        W12612   4.868  38.561  12.510
51324W        W12613   7.866  30.005  11.928
51325W        W12614   5.383   4.741   2.793
51326W        W12615  44.362  31.082   4.156
51327W        W12616  38.841  38.504  14.290
51328W        W12617  33.479   0.440  12.961
51329W        W12618   0.926  19.259  13.978
51330W        W12619  26.994  18.204   1.784
51331W        W12620   5.910  26.632   3.659
51332W        W12621  42.451  34.120  13.536
51333W        W12622  16.690  30.070   4.716
51334W        W12623   8.385  20.723   4.771
51335W        W12624   9.334  13.311   2.748
51336W        W12625  13.238   3.450  14.944
51337W        W12626  22.677  29.492  13.801
51338W        W12627  29.127  19.633  12.392
51339W        W12628  34.916  13.670   4.693
51340W        W12629  14.155  29.989   4.292
51341W        W12630  25.524  28.526   2.720
51342W        W12631  40.389  33.513  14.460
51343W        W12632   7.197  34.380  14.438
51344W        W12633   9.301  44.482  14.889
51345W        W12634  17.252  36.028  10.995
51346W        W12635  28.136  26.629  11.860
51347W        W12636  14.312   7.289   4.613
51348W        W12637  43.465  22.152  13.827
51349W        W12638   0.432   1.816   1.235
51350W        W12639  26.549  24.147   4.816
51351W        W12640   5.918  38.942  10.642
51352W        W12641  19.280   1.425   1.243
51353W        W12642  10.303  17.657   0.259
51354W        W12643  22.174   1.402  14.396
51355W        W12644  14.796  43.857   4.613
51356W        W12645  34.609  22.535  14.810
51357W        W12646  30.569   4.805   1.433
51358W        W12647  32.128  30.504   3.687
51359W        W12648  15.588  32.512  13.464
51360W        W12649  19.736  26.475  12.965
51361W        W12650  17.288  17.167   3.351
51362W        W12651  10.223  16.724  10.052
51363W        W12652  23.204  17.730  13.329
51364W        W12653   8.315  17.714   4.658
51365W        W12654  29.993  28.944   0.933
51366W        W12655  42.280   3.883  12.007
51367W        W12656   3.854  23.554   1.829
51368W        W12657  27.505  12.208  11.943
51369W        W12658   6.792  23.619   3.261
51370W        W12659  27.156  34.612   4.808
51371W        W12660  32.969  41.459  11.030
51372W        W12661  22.609  24.722  14.927
51373W        W12662  24.177  43.283   4.636
51374W        W12663   1.264  37.957  14.378
51375W        W12664  19.230  24.086  12.411
51376W        W12665   1.754  37.001   4.693
51377W        W12666  43.988   7.305   2.762
51378W        W12667   5.375   5.733  12.451
51379W        W12668  14.163  15.232  14.898
51380W        W12669  31.989  11.705   3.182
51381W        W12670  23.177  20.183  11.467
51382W        W12671  37.476   2.289  10.411
51383W        W12672  28.525  44.402   4.673
51384W        W12673  39.536  27.506   3.785
51385W        W12674  25.993  26.074  14.831
51386W        W12675  35.388   6.776  11.930
51387W        W12676  21.571  42.387   1.705
51388W        W12677  26.101  37.359   0.299
51389W        W12678  17.765   2.470  14.829
51390W        W12679  11.272   3.450   3.297
51391W        W12680  41.450   8.846   0.944
51392W        W12681  26.956  36.905  13.471
51393W        W12682  12.755  19.163   2.244
51394W        W12683  14.334  36.991  12.567
51395W        W12684  11.760  10.711   4.764
51396W        W12685  39.935  38.505   1.724
51397W        W12686   7.308  20.194  13.057
51398W        W12687  39.916  43.305   3.729
51399W        W12688  12.618   9.213  11.933
51400W        W12689  27.132  41.832  10.905
51401W        W12690  11.155  40.016  12.374
51402W        W12691  37.025  43.000   0.305
51403W        W12692   7.817  10.668   0.391
51404W        W12693  31.078  18.091  12.973
51405W        W12694  39.854  16.159  14.031
51406W        W12695  39.501   7.287  12.984
51407W        W12696  13.678  32.555   4.793
51408W        W12697  17.078  22.569  11.060
51409W        W12698   5.377  18.218  14.416
51410W        W12699  17.586   1.978   3.381
51411W        W12700  16.691  37.076   1.725
51412W        W12701   7.765  34.390  13.360
51413W        W12702  41.821  44.490  11.593
51414W        W12703  37.387  14.115  12.572
51415W        W12704   5.873  34.999  12.398
51416W        W12705   7.770   6.883  12.862
51417W        W12706  15.697  15.233   5.245
51418W        W12707  19.100  12.213   0.369
51419W        W12708  38.069   4.740  13.311
51420W        W12709  40.340  23.661  11.568
51421W        W12710   1.745   2.269   2.791
51422W        W12711  32.037  15.149   3.648
51423W        W12712   6.290   5.297  14.880
51424W        W12713  32.560  43.394   4.124
51425W        W12714  26.040   2.734   3.862
51426W        W12715  24.556  28.609   0.471
51427W        W12716  29.539  18.296  14.366
51428W        W12717  21.193  31.014   0.963
51429W        W12718  39.935  42.323   3.163
51430W        W12719  25.968  27.559   4.336
51431W        W12720   5.205   8.163  14.943
51432W        W12721  26.485  35.436  12.343
51433W        W12722   7.274  42.810  13.536
51434W        W12723  44.769  13.325   1.885
51435W        W12724   4.393  44.400   4.267
51436W        W12725   2.283  40.463  12.377
51437W        W12726  30.082  29.927   4.800
51438W        W12727   1.428  30.566   4.331
51439W        W12728  34.987  16.192   2.340
51440W        W12729  23.013  35.475  11.031
51441W        W12730  16.709  11.192   0.933
51442W        W12731  16.281  25.042  10.940
51443W        W12732   0.300  33.121  11.445
51444W        W12733   8.723   0.368   9.515
51445W        W12734  22.020  12.753   0.892
51446W        W12735  17.787   9.249  11.103
51447W        W12736  34.021  34.089   2.835
51448W        W12737  15.814   9.329   4.649
51449W        W12738  27.178  43.951  11.094
51450W        W12739  11.358  39.971   2.269
51451W        W12740  17.129  11.234   4.235
51452W        W12741  12.163   4.896  14.438
51453W        W12742   2.743  22.508   3.768
51454W        W12743  10.187  13.684  10.519
51455W        W12744  26.054  15.722  13.332
51456W        W12745  31.988  23.674  12.069
51457W        W12746  43.438  20.748  12.011
51458W        W12747  40.988   5.425  10.531
51459W        W12748  25.605  29.544  10.613
51460W        W12749  41.798  39.959   4.668
51461W        W12750   0.792  19.111   1.700
51462W        W12751  25.136  24.607  13.047
51463W        W12752  24.189  21.255   5.803
51464W        W12753  40.885  10.187   1.788
51465W        W12754  28.462  29.625  13.823
51466W        W12755   1.345  42.982  12.513
51467W        W12756  26.695   9.865   0.781
51468W        W12757   0.382  36.543  14.474
51469W        W12758  39.535  35.024  13.457
51470W        W12759  23.560  36.521  14.445
51471W        W12760   2.228   5.760  12.959
51472W        W12761  40.352  24.225   0.812
51473W        W12762   4.811   1.918   1.445
51474W        W12763  41.944  31.588  14.024
51475W        W12764  21.019  26.665   1.420
51476W        W12765  32.634  18.116  11.929
51477W        W12766  34.955   0.314   2.781
51478W        W12767  33.911  33.031   3.695
51479W        W12768  43.771  14.789  13.839
51480W        W12769  14.164  24.698   0.401
51481W        W12770  39.367  21.729  13.542
51482W        W12771  28.591   3.454  14.927
51483W        W12772  38.067   6.796  14.294
51484W        W12773  32.907  30.951  13.525
51485W        W12774  34.460   0.749  11.880
51486W        W12775  23.230  15.309   2.181
51487W        W12776   2.885  38.904   0.253
51488W        W12777  40.902  24.128  13.532
51489W        W12778   8.847  35.857   9.924
51490W        W12779   6.678  26.635  10.105
51491W        W12780   7.666  18.711   3.243
51492W        W12781  31.076  40.470   0.851
51493W        W12782  44.953  43.903   4.306
51494W        W12783  11.695   0.890   2.850
51495W        W12784  19.118  30.024  11.867
51496W        W12785   8.311  31.009   2.701
51497W        W12786  35.031  11.749   2.849
51498W        W12787  25.549  10.796  12.018
51499W        W12788  26.629   1.262  11.479
51500W        W12789  33.982  26.036  12.965
51501W        W12790  11.817  43.987   3.755
51502W        W12791  28.594  17.655  10.557
51503W        W12792   9.310  13.808   0.388
51504W        W12793  21.724   1.481   3.657
51505W        W12794  26.091  27.958  12.001
51506W        W12795  34.497  19.602  13.930
51507W        W12796  18.722  41.306   3.194
51508W        W12797  42.436  29.166   2.283
51509W        W12798   3.295  23.625   2.840
51510W        W12799  22.539  43.419  11.588
51511W        W12800  31.623   1.425  12.837
51512W        W12801  29.657   0.941  12.362
51513W        W12802  30.616   0.284  12.387
51514W        W12803   2.390  32.586  11.440
51515W        W12804  43.790   0.260  13.424
51516W        W12805   2.319  27.182   3.238
51517W        W12806  24.161   5.213   0.463
51518W        W12807  39.358  25.163  14.822
51519W        W12808  43.270  22.167  14.485
51520W        W12809   2.452  15.645   2.789
51521W        W12810  20.739  35.102   2.894
51522W        W12811  20.636  40.822  14.950
51523W        W12812   7.894  13.745  10.985
51524W        W12813  42.952  20.622   4.298
51525W        W12814   6.686  14.215   4.744
51526W        W12815  36.972  42.776  11.050
51527W        W12816  19.639  16.213  12.905
51528W        W12817  29.618  44.499  10.958
51529W        W12818  23.514  36.450   4.711
51530W        W12819  21.748  37.954  11.934
51531W        W12820  13.168   4.398  14.401
51532W        W12821  19.567  20.745  11.021
51533W        W12822   0.463  36.952   3.350
51534W        W12823  20.134  29.605   9.986
51535W        W12824  31.615  26.082  12.890
51536W        W12825  42.497  19.251   1.242
51537W        W12826   4.712  21.585  11.118
51538W        W12827  12.325  22.214  10.563
51539W        W12828  43.440   6.402   0.242
51540W        W12829  25.535  35.868  10.416
51541W        W12830  15.809  26.104  14.906
51542W        W12831   8.358  39.009   2.798
51543W        W12832  40.957  42.467  11.417
51544W        W12833  14.784  35.359  11.911
51545W        W12834  30.449  28.026  11.087
51546W        W12835  35.527  38.882   3.827
51547W        W12836  12.787  29.074  11.471
51548W        W12837  37.517  41.925  13.961
51549W        W12838  36.936   7.775   1.932
51550W        W12839  26.981   2.227  14.498
51551W        W12840  13.223  28.173   1.318
51552W        W12841  10.862  26.632   9.922
51553W        W12842  33.557   2.722   3.789
51554W        W12843  10.733  21.172   3.723
51555W        W12844  27.079  11.206   2.704
51556W        W12845  38.467  10.240  11.382
51557W        W12846  33.533   8.891   5.256
51558W        W12847  11.737  43.364   0.793
51559W        W12848  30.573  15.784   3.326
51560W        W12849  36.384  35.417   3.363
51561W        W12850  19.052   7.809   3.712
51562W        W12851  21.178  18.546   0.891
51563W        W12852  33.072  28.545   4.793
51564W        W12853  33.056  43.819   1.295
51565W        W12854   8.244  29.664  14.958
51566W        W12855  18.638  22.097  12.357
51567W        W12856  43.443  33.473  11.980
51568W        W12857  42.026   8.293  13.511
51569W        W12858  14.803  27.024  12.877
51570W        W12859  18.712  25.594  12.527
51571W        W12860  38.918   0.765   1.765
51572W        W12861  24.205  31.035   4.803
51573W        W12862  43.915  41.453  11.091
51574W        W12863  31.109   3.931   1.863
51575W        W12864  24.629  39.026  14.441
51576W        W12865  17.776  14.674   0.297
51577W        W12866   8.841  31.506  12.549
51578W        W12867  34.493   8.179  14.994
51579W        W12868  37.386  20.063   1.310
51580W        W12869  37.432  34.459  13.465
51581W        W12870   4.229  44.306  12.987
51582W        W12871  14.649   1.323   2.330
51583W        W12872  14.266   8.854  12.341
51584W        W12873  11.249   3.781  13.906
51585W        W12874  31.903  39.978  13.919
51586W        W12875  23.219   8.850  12.435
51587W        W12876  13.662  44.430  14.782
51588W        W12877  42.885   0.873  10.908
51589W        W12878  28.012  42.399   2.892
51590W        W12879  12.228  29.046  10.635
51591W        W12880  43.384  44.341   1.258
51592W        W12881  18.768  26.573   4.612
51593W        W12882  22.061   5.780   3.825
51594W        W12883  28.680   6.398  12.395
51595W        W12884  11.818  28.469  14.784
51596W        W12885  19.769  30.082  12.572
51597W        W12886  35.019   4.793  11.560
51598W        W12887   2.420  35.864  11.589
51599W        W12888   7.280   6.340  12.022
51600W        W12889  17.160  17.078   1.933
51601W        W12890  17.268   2.242   2.237
51602W        W12891  37.087  26.124  14.981
51603W        W12892  43.963   6.726  12.889
51604W        W12893   3.801   1.380  14.817
51605W        W12894  23.225  14.109   4.770
51606W        W12895  25.491  30.416  14.811
51607W        W12896   8.161   2.459  14.881
51608W        W12897   3.246  43.012   1.210
51609W        W12898   6.279   7.870   3.787
51610W        W12899  27.968  11.810  12.091
51611W        W12900  33.390  40.541  12.823
51612W        W12901  43.813  44.769  14.029
51613W        W12902  22.563  27.640   1.900
51614W        W12903  26.172  39.322   4.708
51615W        W12904   8.684   7.415  10.078
51616W        W12905  29.608   5.698  14.922
51617W        W12906  39.433  15.291   2.348
51618W        W12907  29.928   0.796  12.489
51619W        W12908   6.359  39.449  13.023
51620W        W12909  41.043   8.733  10.010
51621W        W12910   5.755  23.145  13.984
51622W        W12911   3.938  42.356  12.873
51623W        W12912   8.295  19.647   1.771
51624W        W12913  31.978  33.424  13.464
51625W        W12914   5.326  19.106   0.292
51626W        W12915  29.492  39.414   4.625
51627W        W12916  23.149  11.865  12.936
51628W        W12917  20.621  19.756  10.470
51629W        W12918  14.237  21.068  14.358
51630W        W12919  25.468  10.771  12.990
51631W        W12920  40.446  37.483  12.036
51632W        W12921  21.070  23.059   3.256
51633W        W12922  22.511  24.568  10.058
51634W        W12923  16.287   5.704   0.347
51635W        W12924  19.283  37.428   2.371
51636W        W12925  38.912  13.607  11.448
51637W        W12926  31.128  26.108   1.445
51638W        W12927   6.315  10.873   3.361
51639W        W12928  27.107  18.668  11.998
51640W        W12929  39.866  10.309  11.492
51641W        W12930   5.231  29.659   1.344
51642W        W12931   4.302   7.304   3.667
51643W        W12932  16.801   4.376   4.288
51644W        W12933   8.323  14.097   1.782
51645W        W12934  34.409  25.130   0.412
51646W        W12935  37.540  15.193   2.286
51647W        W12936  35.884  38.560  11.442
51648W        W12937  32.568  42.972  14.933
51649W        W12938  18.623  26.008   0.885
51650W        W12939   3.864  21.193  10.500
51651W        W12940   3.367  13.815   0.401
51652W        W12941  24.522  35.464  14.935
51653W        W12942  17.061  10.805  14.455
51654W        W12943  24.479  30.444  14.865
51655W        W12944  27.072   1.353   1.225
51656W        W12945  40.320  16.683  13.545
51657W        W12946   0.888  44.278  12.343
51658W        W12947   4.423   4.917  12.882
51659W        W12948   0.945  36.574   1.375
51660W        W12949  41.823  29.143   1.242
51661W        W12950   3.328  20.761   1.244
51662W        W12951  23.225  22.111  14.395
51663W        W12952   3.865  29.953  11.577
51664W        W12953  25.141  28.470   4.149
51665W        W12954  24.118  38.567  14.489
51666W        W12955  18.703  23.663   2.240
51667W        W12956   9.873  18.172  11.494
51668W        W12957  18.136  10.841  14.435
51669W        W12958  20.088   9.220  12.911
51670W        W12959  25.170   3.937  11.478
51671W        W12960  24.091   6.331   1.286
51672W        W12961  11.743   9.375   4.322
51673W        W12962  38.851  25.713  11.561
51674W        W12963  30.508  33.004  12.972
51675W        W12964  21.059  35.396   4.701
51676W        W12965  43.919  13.304   3.350
51677W        W12966   1.335  16.657   3.311
51678W        W12967  14.331  26.995   4.295
51679W        W12968  15.603  39.056  13.805
51680W        W12969  39.948   9.313  13.971
51681W        W12970  27.644  34.036  11.104
51682W        W12971  23.632   8.767   1.324
51683W        W12972  15.768   1.457  14.869
51684W        W12973   2.293  13.276  11.429
51685W        W12974  15.259  36.883   3.832
51686W        W12975  17.651   7.317   0.369
51687W        W12976   1.428  29.456   1.344
51688W        W12977  23.104   6.408  11.537
51689W        W12978  13.341  24.175  12.922
51690W        W12979  18.144  15.702  11.864
51691W        W12980  21.557  30.132  13.365
51692W        W12981  17.084  43.349  10.490
51693W        W12982  27.084   1.752   1.415
51694W        W12983  28.476   3.952   3.368
51695W        W12984  18.771  11.210  12.011
51696W        W12985  26.519  28.085  11.080
51697W        W12986  18.789   8.886   4.604
51698W        W12987  43.910  25.690   2.203
51699W        W12988  13.846  26.610   2.795
51700W        W12989   5.373  32.537   0.274
51701W        W12990  31.951  13.195   4.783
51702W        W12991  32.948  36.954  11.385
51703W        W12992  13.709  16.306   2.838
51704W        W12993  10.359   2.322   1.758
51705W        W12994  23.695   7.243  11.893
51706W        W12995  22.578  26.611  11.099
51707W        W12996   1.315  23.196   0.912
51708W        W12997  34.507  15.233  13.543
51709W        W12998   9.340  39.974  11.529
51710W        W12999  44.890  36.537   4.601
51711W        W13000  26.516  30.908  13.018
51712W        W13001  24.519  17.584  11.959
51713W        W13002  20.527  42.021  14.418
51714W        W13003  43.877  31.116   0.866
51715W        W13004   2.903  41.935  12.473
51716W        W13005  35.500  19.265  14.813
51717W        W13006   9.334  22.598  13.962
51718W        W13007   2.833   3.777  14.432
51719W        W13008   4.379  37.376  12.905
51720W        W13009   0.745   0.491   2.300
51721W        W13010   3.414   1.325  14.276
51722W        W13011   8.222  31.436  14.917
51723W        W13012   0.904  15.582   4.763
51724W        W13013   8.734  16.102  13.372
51725W        W13014   3.305  36.368  12.402
51726W        W13015  14.144   4.231  13.811
51727W        W13016   6.906  41.007  14.279
51728W        W13017  36.524  15.808   3.194
51729W        W13018  13.610  28.562   0.753
51730W        W13019  18.178  33.085  12.867
51731W        W13020  39.923  23.498  11.397
51732W        W13021   6.415  23.120  10.579
51733W        W13022  24.196  20.033  12.828
51734W        W13023   1.932   1.791   1.854
51735W        W13024  41.915  32.465  11.117
51736W        W13025  30.067  41.038   2.808
51737W        W13026  21.245   3.276   3.791
51738W        W13027  43.784  17.706   0.475
51739W        W13028  21.751  25.176  14.005
51740W        W13029   5.867   8.350   4.809
51741W        W13030  32.035   6.357  12.082
51742W        W13031  28.669   9.886  11.943
51743W        W13032  39.013   9.876  13.028
51744W        W13033  32.112  15.682  10.602
51745W        W13034  37.967  25.207   0.931
51746W        W13035  35.531  31.106   3.633
51747W        W13036  11.847  38.392  13.525
51748W        W13037   8.867  14.773  13.539
51749W        W13038  11.832   2.873  12.866
51750W        W13039   5.922  17.756  10.620
51751W        W13040  30.034  34.950   2.346
51752W        W13041  38.973  24.608   1.905
51753W        W13042  38.424  30.481  14.466
51754W        W13043  37.876   8.282   0.734
51755W        W13044  26.554  12.755  14.866
51756W        W13045   1.427   9.187  14.485
51757W        W13046  21.560   1.900  11.526
51758W        W13047   5.734  31.406   1.896
51759W        W13048   3.372   4.378  10.550
51760W        W13049  42.332  13.281   3.146
51761W        W13050  24.706  21.235  14.428
51762W        W13051  15.779   1.329   3.747
51763W        W13052  29.027  23.179  11.534
51764W        W13053  10.184   7.312  10.933
51765W        W13054  12.214  28.641   2.790
51766W        W13055   1.282  18.790   1.260
51767W        W13056  20.118  20.190   3.331
51768W        W13057  22.018  25.086  10.975
51769W        W13058  38.915  14.720   2.857
51770W        W13059  19.594  36.041  13.496
51771W        W13060  24.033  32.897  10.404
51772W        W13061  40.044  29.487   2.866
51773W        W13062   2.956  11.788   0.290
51774W        W13063  27.550   1.959   3.790
51775W        W13064  23.635  23.544   3.166
51776W        W13065   3.823  23.016   3.377
51777W        W13066  31.466   3.457  11.395
51778W        W13067  11.667  35.926  14.925
51779W        W13068   5.758  20.040   1.372
51780W        W13069  38.416   8.188   0.246
51781W        W13070  20.082  29.987   0.301
51782W        W13071   6.752   6.688  13.019
51783W        W13072   1.951  42.838   4.807
51784W        W13073  32.571   8.177  13.061
51785W        W13074  15.709  12.255   1.264
51786W        W13075  31.403  28.021  12.902
51787W        W13076  33.926  22.072   4.658
51788W        W13077   1.946  34.925  10.485
51789W        W13078  30.919  25.666   1.396
51790W        W13079  16.109  28.098   0.459
51791W        W13080  35.953  28.119   3.816
51792W        W13081   7.206  26.597   3.196
51793W        W13082   7.200  39.404   2.352
51794W        W13083  23.592  31.535   3.187
51795W        W13084  10.234  25.081   4.687
51796W        W13085   2.738  38.048  14.386
51797W        W13086   2.940  10.241  14.413
51798W        W13087   0.857  25.197   1.700
51799W        W13088  25.504  19.175   3.306
51800W        W13089  26.991   5.923  14.516
51801W        W13090  27.604  44.304   4.735
51802W        W13091  33.015   0.877   0.859
51803W        W13092  10.340  42.373   5.247
51804W        W13093  36.413   5.870   2.344
51805W        W13094   5.302  43.793  12.015
51806W        W13095  14.115  17.688   4.678
51807W        W13096  19.667   1.273  10.447
51808W        W13097   8.729  16.231  12.019
51809W        W13098   7.784  23.203  12.531
51810W        W13099  37.500   0.374  10.431
51811W        W13100  36.414  17.717  12.932
51812W        W13101  35.448  42.401  10.963
51813W        W13102  26.577  24.121  14.352
51814W        W13103  17.742  26.589   2.403
51815W        W13104   0.781   8.806  10.154
51816W        W13105  14.340  16.288   1.344
51817W        W13106  39.826  42.388   0.961
51818W        W13107  10.677  25.060  11.066
51819W        W13108   2.731   4.256  10.605
51820W        W13109  44.423  30.959   1.809
51821W        W13110  33.488   7.905  12.398
51822W        W13111  24.155   4.286   0.780
51823W        W13112  36.847  12.227   1.241
51824W        W13113  35.535  22.742   3.288
51825W        W13114   7.300   2.406  11.997
51826W        W13115  43.802  44.008  10.955
51827W        W13116  44.321  42.925   4.259
51828W        W13117   8.313  12.170  11.431
51829W        W13118   7.253  33.517   5.212
51830W        W13119  40.018  35.862   1.274
51831W        W13120  41.496  44.915   1.425
51832W        W13121   8.200  37.836  10.996
51833W        W13122  17.066   4.775   4.784
51834W        W13123   2.400  43.357   2.273
51835W        W13124  13.166  16.649   1.339
51836W        W13125  17.646  13.629   1.849
51837W        W13126  39.912  11.778   0.425
51838W        W13127  36.997  30.079   3.340
51839W        W13128   1.286  44.832  12.371
51840W        W13129   4.377   5.777   0.824
51841W        W13130  33.585  44.918   0.840
51842W        W13131  16.219   2.724  12.993
51843W        W13132  24.196  41.817   3.333
51844W        W13133  19.074  39.995   2.669
51845W        W13134   8.842  27.641  12.902
51846W        W13135  11.169   5.773   4.250
51847W        W13136   8.813  26.562   3.754
51848W        W13137  24.540  43.775   0.932
51849W        W13138   9.847  19.720   3.777
51850W        W13139  39.439  33.970   0.943
51851W        W13140  35.984  17.655   5.118
51852W        W13141  37.388  27.667   4.619
51853W        W13142  10.171  31.981  10.492
51854W        W13143  40.019  12.249   2.812
51855W        W13144   0.869   7.766   1.696
51856W        W13145  33.606   7.210   2.319
51857W        W13146  40.351   6.881   1.212
51858W        W13147  10.836  17.768  14.441
51859W        W13148   2.281   8.164  12.358
51860W        W13149   9.873  42.889   4.278
51861W        W13150  38.395  34.003  11.093
51862W        W13151  20.708  29.545   0.924
51863W        W13152  30.157  19.167  14.019
51864W        W13153  11.362  33.526   1.839
51865W        W13154  17.144  41.031   0.376
51866W        W13155  22.117   7.412  12.018
51867W        W13156  17.725  39.822   2.725
51868W        W13157  25.207  16.096  13.533
51869W        W13158  33.407  36.565  14.862
51870W        W13159  40.497   9.207   0.870
51871W        W13160  27.972  12.723  11.455
51872W        W13161  40.914   6.393  13.926
51873W        W13162  14.204  32.476   4.258
51874W        W13163  17.254  12.637  13.810
51875W        W13164  31.112  13.604  12.366
51876W        W13165  16.304  18.206  12.485
51877W        W13166  38.420  33.401   4.142
51878W        W13167  31.480  18.660  14.508
51879W        W13168  37.965   5.702  14.878
51880W        W13169  40.845  20.164   1.360
51881W        W13170  12.823   5.297  12.448
51882W        W13171   1.245  30.007  11.993
51883W        W13172  11.130  36.428  13.382
51884W        W13173  38.548  23.711   0.805
51885W        W13174  25.522  29.521  11.523
51886W        W13175  30.415  14.822  13.985
51887W        W13176  19.197  19.039   2.706
51888W        W13177  26.623  21.545   2.281
51889W        W13178  27.176  26.477   2.237
51890W        W13179   4.901  17.108  12.995
51891W        W13180  35.076  15.232  11.985
51892W        W13181  30.552  14.222  12.422
51893W        W13182  33.455  23.018  13.532
51894W        W13183  28.585   1.969  11.011
51895W        W13184  39.877  27.555  12.363
51896W        W13185  27.634  41.525  13.517
51897W        W13186   6.398  20.731  14.992
51898W        W13187  26.143   1.397   1.820
51899W        W13188  19.154  17.775   4.258
51900W        W13189  33.907  22.152   2.853
51901W        W13190  14.156  44.805   2.767
51902W        W13191  38.024  19.639   2.238
51903W        W13192  43.509  29.648  11.433
51904W        W13193  25.528  34.118  12.574
51905W        W13194  25.061  43.874   3.670
51906W        W13195   9.338   3.897  13.005
51907W        W13196  26.176  15.294   0.850
51908W        W13197  21.166  34.577  13.799
51909W        W13198  12.704  21.594   2.369
51910W        W13199   3.372  18.172  13.889
51911W        W13200   9.276  10.864   0.316
51912W        W13201  43.468   7.850  13.004
51913W        W13202  32.603  30.928  12.029
51914W        W13203  15.706  22.697  14.317
51915W        W13204  11.841  32.132  14.310
51916W        W13205  14.720  19.719   3.691
51917W        W13206  25.211  39.415  14.865
51918W        W13207   6.695  17.247   1.826
51919W        W13208  23.196  14.810   4.767
51920W        W13209  14.179  28.056  11.049
51921W        W13210  15.104  40.468  14.429
51922W        W13211   3.948  24.524   4.714
51923W        W13212  14.746  20.082  14.896
51924W        W13213   7.849  20.641   4.597
51925W        W13214  32.096  10.295  13.520
51926W        W13215  16.076  22.601   5.289
51927W        W13216  14.168  34.488   0.936
51928W        W13217  28.101   1.821  10.949
51929W        W13218  39.477  44.383  12.036
51930W        W13219  27.102  20.639  13.957
51931W        W13220  21.644   4.702   2.775
51932W        W13221  18.621  38.405   1.397
51933W        W13222  43.366  37.400   0.732
51934W        W13223  40.887  32.525  10.582
51935W        W13224  19.094  26.973  14.908
51936W        W13225  14.135  37.865   0.814
51937W        W13226  39.331  28.634  13.958
51938W        W13227   7.856  21.616  14.283
51939W        W13228  33.111  22.044   2.228
51940W        W13229  33.079  28.470   4.276
51941W        W13230   0.907  11.816   1.751
51942W        W13231  39.039   8.751   0.756
51943W        W13232   4.316  32.127   0.811
51944W        W13233  25.627  40.854  12.942
51945W        W13234  27.557  29.121   2.742
51946W        W13235   6.323  37.903  13.818
51947W        W13236   5.215  40.518   0.840
51948W        W13237  29.441  22.222   4.277
51949W        W13238  25.549  13.613   4.773
51950W        W13239   9.657   0.487   4.639
51951W        W13240   2.266  11.188   4.747
51952W        W13241   6.296   6.742   2.883
51953W        W13242  21.599   7.887   2.189
51954W        W13243  26.174  42.843  13.012
51955W        W13244  20.633   4.311  11.476
51956W        W13245   5.380  12.779  14.023
51957W        W13246  35.582  12.736  11.476
51958W        W13247  37.478  22.104  10.013
51959W        W13248  21.141  27.084  12.023
51960W        W13249  35.871  28.085   4.669
51961W        W13250  15.709   9.202   0.938
51962W        W13251  14.705  39.546   2.750
51963W        W13252  34.927  11.823  13.831
51964W        W13253  42.461   8.808   3.638
51965W        W13254  17.093  18.591   4.200
51966W        W13255   6.893  27.548  12.085
51967W        W13256  34.074   1.422  13.437
51968W        W13257  24.975   0.989  12.454
51969W        W13258  32.125  41.933  10.464
51970W        W13259  35.909  18.691   4.351
51971W        W13260  42.418  16.659  14.503
51972W        W13261  10.247   3.452  14.448
51973W        W13262  40.033  19.596   4.621
51974W        W13263  33.006  42.954  14.909
51975W        W13264  19.568  35.358   0.408
51976W        W13265  10.669  18.696  12.345
51977W        W13266   5.724   9.266   0.943
51978W        W13267  26.583  37.555   2.408
51979W        W13268   6.736   8.776   4.747
51980W        W13269  25.091  38.362  14.475
51981W        W13270  23.623  21.070   3.281
51982W        W13271  10.183  30.512  13.964
51983W        W13272  19.757  28.636   1.917
51984W        W13273  20.538   1.411   1.308
51985W        W13274  29.662  11.290   2.198
51986W        W13275   7.733  16.277  10.498
51987W        W13276  27.613  40.527  11.547
51988W        W13277  40.399   0.958  12.022
51989W        W13278  36.072   8.751  13.546
51990W        W13279  28.134  18.210   1.378
51991W        W13280   6.856  16.666   0.865
51992W        W13281  38.839  33.929  10.161
51993W        W13282  10.813  34.869   9.596
51994W        W13283   2.363  27.494  13.879
51995W        W13284  40.009  33.125   4.668
51996W        W13285   3.891  24.681  13.373
51997W        W13286  42.331  23.689  13.034
51998W        W13287  25.208  38.437  11.070
51999W        W13288  28.592  21.170   1.752
52000W        W13289   9.838   0.344   2.367
52001W        W13290  21.142   5.250  13.891
52002W        W13291   6.884  38.918   4.775
52003W        W13292   1.287  27.180  10.497
52004W        W13293  15.756  10.253   4.140
52005W        W13294  39.462   6.242   3.694
52006W        W13295  30.037   3.781   3.748
52007W        W13296  21.563  26.467  12.515
52008W        W13297  44.941  27.001   0.407
52009W        W13298  28.068  17.652   3.686
52010W        W13299  44.791  37.478  13.312
52011W        W13300  21.664  29.135   4.157
52012W        W13301  23.000  34.110   2.871
52013W        W13302  41.874  34.497   0.244
52014W        W13303  36.508   2.735   3.681
52015W        W13304  15.809   7.185  11.004
52016W        W13305  37.927  16.763   1.697
52017W        W13306   5.793  22.022   1.355
52018W        W13307   6.705  42.381  14.382
52019W        W13308  41.508  25.550  10.571
52020W        W13309  36.005  24.115  10.551
52021W        W13310   6.288   4.387  10.496
52022W        W13311  43.767  39.366  14.474
52023W        W13312  35.036  23.527   1.929
52024W        W13313  12.756   1.429   1.867
52025W        W13314   5.747   1.320   0.815
52026W        W13315  14.108   9.242   0.795
52027W        W13316  19.699   6.389  12.392
52028W        W13317  34.510  12.841  14.802
52029W        W13318   9.741  29.585  13.349
52030W        W13319  42.022  29.051  14.970
52031W        W13320  11.195  36.388  10.993
52032W        W13321  11.772  38.884  12.858
52033W        W13322  22.729  38.557   0.964
52034W        W13323  23.192   5.235  10.463
52035W        W13324  38.357  27.981  11.091
52036W        W13325  39.410  15.295   3.147
52037W        W13326  38.923  10.186  14.781
52038W        W13327  34.113  22.017  12.946
52039W        W13328  28.956  25.098  12.395
52040W        W13329  16.721  20.142  11.422
52041W        W13330  16.164  20.065   3.321
52042W        W13331  17.689  22.609   2.205
52043W        W13332  19.216  36.451  11.576
52044W        W13333  15.151  23.732  11.005
52045W        W13334  41.949  43.978   0.318
52046W        W13335  32.046  17.307   2.268
52047W        W13336   3.280  23.724   4.202
52048W        W13337  33.071  16.259   1.250
52049W        W13338  28.937  27.131  11.017
52050W        W13339  38.830   9.675  11.385
52051W        W13340  41.842   6.801  14.779
52052W        W13341  15.151   9.827  11.474
52053W        W13342  43.282   2.881  11.908
52054W        W13343   1.810   5.917  13.361
52055W        W13344  25.635  34.072   4.172
52056W        W13345  43.986  28.596  11.475
52057W        W13346  43.938  18.635  12.494
52058W        W13347   2.780  12.809  10.921
52059W        W13348  37.001   7.887   1.415
52060W        W13349  33.380  41.473   0.889
52061W        W13350  34.043  39.875  13.474
52062W        W13351   0.844  13.314  11.856
52063W        W13352  41.440  18.712  14.978
52064W        W13353  29.126  23.603  14.406
52065W        W13354   6.741  31.911   3.798
52066W        W13355  30.039  40.943   3.227
52067W        W13356  42.792  38.500   1.349
52068W        W13357   7.307  36.390  10.410
52069W        W13358   4.715  34.988   2.188
52070W        W13359   8.658  16.612   0.816
52071W        W13360  19.615  13.635   1.393
52072W        W13361  16.599  40.399   1.849
52073W        W13362  15.175   2.875   0.867
52074W        W13363  43.279  26.037  11.402
52075W        W13364  29.164  31.565   3.253
52076W        W13365  33.616  19.145   1.285
52077W        W13366  22.023  39.821  12.012
52078W        W13367  41.831  37.346  10.020
52079W        W13368   5.870  17.733   3.179
52080W        W13369  44.845  40.963  10.547
52081W        W13370  43.366  26.559  14.287
52082W        W13371   9.182  13.173   0.815
52083W        W13372   8.694  14.179   1.296
52084W        W13373  37.848  41.491   1.848
52085W        W13374  43.904  42.879  14.360
52086W        W13375  36.007  26.582   4.776
52087W        W13376  37.381  15.733   3.186
52088W        W13377  41.794  29.172   9.987
52089W        W13378  26.036  27.025   4.246
52090W        W13379  12.738  27.039  14.360
52091W        W13380   8.676  11.185  10.479
52092W        W13381  42.008  38.365   2.379
52093W        W13382  23.578  40.966   0.956
52094W        W13383  44.822  21.629  14.853
52095W        W13384  19.552  15.144  11.381
52096W        W13385  24.150  43.310   3.700
52097W        W13386  25.195  38.452   2.414
52098W        W13387   5.851  18.167  14.455
52099W        W13388  11.649  41.857   0.278
52100W        W13389   0.279  43.337   0.781
52101W        W13390  22.646  15.584   3.183
52102W        W13391  27.962  15.796   3.376
52103W        W13392  43.982  39.009  12.457
52104W        W13393   2.953  24.480  13.937
52105W        W13394  42.993  28.664  12.512
52106W        W13395   6.742  30.158   4.633
52107W        W13396   8.249   8.728  12.386
52108W        W13397  35.887  40.039  13.418
52109W        W13398  42.495   9.724   3.217
52110W        W13399  38.926   3.819   3.308
52111W        W13400  28.112  38.926   5.142
52112W        W13401  17.687  22.114   5.307
52113W        W13402  30.642  19.776   4.718
52114W        W13403   8.377  30.055   0.848
52115W        W13404  30.613  35.933   4.224
52116W        W13405   9.329   4.717   1.805
52117W        W13406  35.107  34.088  14.501
52118W        W13407  44.351  34.392   0.261
52119W        W13408   0.792  35.854   3.325
52120W        W13409  32.562  43.923  10.501
52121W        W13410   2.842  20.233   0.841
52122W        W13411   1.837  20.528  12.007
52123W        W13412  41.300  15.115   0.831
52124W        W13413  35.532  33.600   3.293
52125W        W13414   3.328  26.471   3.350
52126W        W13415  38.826  37.339  12.455
52127W        W13416  19.742   5.778  13.949
52128W        W13417  15.686  20.164   4.260
52129W        W13418  22.150   6.732   0.922
52130W        W13419   1.895  34.386   3.806
52131W        W13420   4.942   8.711  12.887
52132W        W13421  30.581   3.881   5.119
52133W        W13422  18.222   0.837   2.682
52134W        W13423  39.958  30.990  10.889
52135W        W13424  32.492  27.097  14.470
52136W        W13425  44.274   4.834   0.311
52137W        W13426   1.283  30.435  13.971
52138W        W13427  32.904  17.790   2.685
52139W        W13428  27.611   6.691  12.385
52140W        W13429  44.323  22.110  12.866
52141W        W13430  34.377  43.850  12.872
52142W        W13431  30.418   3.895   0.465
52143W        W13432  29.567  27.124   2.766
52144W        W13433   1.296  30.556   1.860
52145W        W13434   1.973  11.761  12.084
52146W        W13435   7.721  22.674  13.433
52147W        W13436  15.108  38.887   4.347
52148W        W13437  43.446  39.431   3.375
52149W        W13438  44.489   1.955  13.030
52150W        W13439  25.655  16.292  10.527
52151W        W13440  40.805   9.213   5.250
52152W        W13441  20.257  35.936  10.974
52153W        W13442   4.882  21.625   3.747
52154W        W13443  36.023  43.428  13.341
52155W        W13444  35.066  41.492  11.462
52156W        W13445  32.573  11.202   3.230
52157W        W13446  28.169  32.040   1.800
52158W        W13447   6.720   2.472   4.132
52159W        W13448  31.948  15.091   4.701
52160W        W13449  24.724  25.151  14.325
52161W        W13450  11.142   4.846   1.424
52162W        W13451  26.143  26.057   3.303
52163W        W13452   5.834  30.093   0.865
52164W        W13453  12.336   2.916   5.133
52165W        W13454  27.019  14.120   0.960
52166W        W13455   4.754   8.713  13.381
52167W        W13456  25.139  22.209   1.906
52168W        W13457  19.051   5.867  14.823
52169W        W13458  37.475  40.407  12.915
52170W        W13459  44.439   0.881  11.500
52171W        W13460  30.116  25.148  11.481
52172W        W13461  11.632  37.031  13.037
52173W        W13462  29.929  19.183   0.470
52174W        W13463  19.154  44.937   1.280
52175W        W13464  41.797  32.933   2.336
52176W        W13465  44.370  12.229  13.386
52177W        W13466  44.968   4.768  10.576
52178W        W13467  24.078   0.933   1.807
52179W        W13468  19.709  18.066   0.391
52180W        W13469  13.165  22.613  11.972
52181W        W13470  32.408   4.882   5.141
52182W        W13471  22.681   3.910   4.177
52183W        W13472   2.893  32.122   5.171
52184W        W13473  24.664  13.146  11.079
52185W        W13474  16.150   6.301   1.806
52186W        W13475  11.724  42.305   1.817
52187W        W13476  40.392  23.037   0.259
52188W        W13477   8.230  19.077   2.806
52189W        W13478   6.388  11.320   0.884
52190W        W13479   6.706  35.467   0.927
52191W        W13480  12.274   8.194   2.252
52192W        W13481  14.605   5.841   3.380
52193W        W13482   9.740  11.184   4.748
52194W        W13483   7.795  32.472   3.818
52195W        W13484  34.065  17.638   0.818
52196W        W13485   8.284  43.791   0.265
52197W        W13486   2.279  18.614   2.790
52198W        W13487  11.164  27.965   4.617
52199W        W13488  10.284  14.274   2.702
52200W        W13489  28.573  14.279   0.815
52201W        W13490  24.613   0.809  11.551
52202W        W13491  24.016  30.608  10.566
52203W        W13492   2.896  38.475   1.312
52204W        W13493  28.026  22.186  12.451
52205W        W13494   9.782  35.981   2.278
52206W        W13495   8.343  14.724  14.021
52207W        W13496  32.600  31.451   1.911
52208W        W13497  15.727  17.741   4.293
52209W        W13498  31.052  23.587   4.779
52210W        W13499  20.233  37.517   4.334
52211W        W13500  37.513  15.228   3.754
52212W        W13501  21.059  22.104   1.376
52213W        W13502  20.210  23.008   1.917
52214W        W13503  29.131   7.741   1.914
52215W        W13504   4.289  36.457  11.106
52216W        W13505  42.414  21.168   4.824
52217W        W13506  37.377  21.741  12.412
52218W        W13507  39.539   4.898   2.326
52219W        W13508  30.076  20.615  11.535
52220W        W13509   7.680  38.405  12.464
52221W        W13510  30.530  30.437  12.994
52222W        W13511  28.030  37.470  13.019
52223W        W13512  35.592  30.469   0.925
52224W        W13513  38.393  26.062   3.828
52225W        W13514  18.754   2.938   3.701
52226W        W13515  38.395  22.075   0.388
52227W        W13516   5.439  35.062   0.780
52228W        W13517  23.057  39.543   3.641
52229W        W13518  25.568  35.093  10.043
52230W        W13519  18.614  28.537   4.630
52231W        W13520   6.233  11.191   3.326
52232W        W13521  42.404   8.239  11.444
52233W        W13522  12.206  27.587  12.851
52234W        W13523  40.997  18.133   2.671
52235W        W13524  29.445  44.369  12.525
52236W        W13525  37.028   4.279  11.936
52237W        W13526  11.317   9.318  12.548
52238W        W13527  30.162  20.033   0.381
52239W        W13528  32.954  11.764  14.311
52240W        W13529  35.891  12.798   0.256
52241W        W13530  37.017  42.781  11.519
52242W        W13531  40.950  27.093  11.082
52243W        W13532  13.316   3.799  13.398
52244W        W13533  37.075  14.324  13.874
52245W        W13534  38.047   0.765  12.071
52246W        W13535  31.955   9.311  13.995
52247W        W13536  30.146  13.772  12.466
52248W        W13537  13.831  21.674  11.888
52249W        W13538  33.057  30.589   1.717
52250W        W13539  13.756  16.778  12.571
52251W        W13540  31.136   7.180  12.408
52252W        W13541   4.316  22.629   1.820
52253W        W13542  11.135  24.534  12.471
52254W        W13543  15.156  37.412   1.250
52255W        W13544  10.166  34.064  11.973
52256W        W13545  27.180  34.920   0.917
52257W        W13546  44.488   5.420   0.823
52258W        W13547  43.340  30.601  11.049
52259W        W13548   1.429   9.667  14.908
52260W        W13549  41.969  18.638   2.690
52261W        W13550  34.095   0.805  13.045
52262W        W13551   4.842  12.632  13.966
52263W        W13552  13.694  29.075  11.974
52264W        W13553  29.443  23.667   2.895
52265W        W13554  31.116  23.116  13.323
52266W        W13555  30.060  29.588   0.469
52267W        W13556   6.844   3.337  14.012
52268W        W13557   4.798  18.062   0.776
52269W        W13558  40.053  22.210   4.295
52270W        W13559  31.024  30.656  13.847
52271W        W13560  18.702  32.522  11.454
52272W        W13561   8.264   1.785  12.053
52273W        W13562  10.697   0.333   3.356
52274W        W13563  34.879  22.142   3.167
52275W        W13564  29.524  31.078  11.396
52276W        W13565  22.607  26.459  13.499
52277W        W13566  31.429   9.747   3.730
52278W        W13567  28.442  29.948  11.535
52279W        W13568  35.064   1.902  10.520
52280W        W13569  33.489   2.404   1.791
52281W        W13570  26.509  17.305   2.178
52282W        W13571  19.154  31.486   0.909
52283W        W13572  24.205  35.919  11.439
52284W        W13573  15.116  16.310   0.415
52285W        W13574   8.195   6.399  14.885
52286W        W13575   2.231  11.796   3.327
52287W        W13576  32.105  25.564  12.021
52288W        W13577   4.277  17.118  14.438
52289W        W13578  34.520  36.063   3.325
52290W        W13579   2.889  14.607   0.762
52291W        W13580  39.949  30.600   2.777
52292W        W13581  40.006  33.609   2.315
52293W        W13582   8.262  30.125  10.541
52294W        W13583  15.166  15.757   0.395
52295W        W13584  25.213  35.931   3.636
52296W        W13585  36.506   6.873   2.238
52297W        W13586   1.962  43.969  10.580
52298W        W13587  14.332  10.247  11.965
52299W        W13588  44.376  44.880   2.853
52300W        W13589  18.120  20.549  10.089
52301W        W13590  24.062   8.818  13.906
52302W        W13591  30.093  16.576   3.763
52303W        W13592  28.004   5.301   2.706
52304W        W13593  20.739  10.690  14.014
52305W        W13594  12.121   9.311   3.251
52306W        W13595  10.763  21.092  13.882
52307W        W13596  17.102   8.381   2.211
52308W        W13597  19.178  19.665  13.924
52309W        W13598   5.796   8.824   3.638
52310W        W13599  11.149   3.893   1.891
52311W        W13600  10.226   5.419  10.642
52312W        W13601   0.378   7.904  11.991
52313W        W13602   2.266  39.988   4.305
52314W        W13603   2.940  44.328   2.687
52315W        W13604  18.598  25.101   1.385
52316W        W13605   8.848  20.239  11.463
52317W        W13606  25.181  30.100  13.022
52318W        W13607  23.615  18.734  10.956
52319W        W13608  36.891  32.929   2.264
52320W        W13609  17.664   3.940   2.895
52321W        W13610  31.507  33.901   0.303
52322W        W13611  22.176  39.835  12.968
52323W        W13612   9.262  11.244  13.482
52324W        W13613   9.705  24.011  12.832
52325W        W13614  16.698  39.507  12.575
52326W        W13615   9.659  17.172   1.380
52327W        W13616  20.222  23.686   3.182
52328W        W13617  33.456  34.409   3.259
52329W        W13618  35.573  16.808   0.305
52330W        W13619  39.033  13.736  13.912
52331W        W13620  23.551   8.793   3.330
52332W        W13621  12.653  12.759   1.345
52333W        W13622  44.758  28.090  14.309
52334W        W13623  33.017  32.499   0.449
52335W        W13624  35.890   4.438   2.682
52336W        W13625  16.207  28.156   3.268
52337W        W13626   4.234  36.407  14.815
52338W        W13627   9.305   3.876  14.794
52339W        W13628  29.116  33.088  11.390
52340W        W13629  21.660  17.297  11.917
52341W        W13630  42.945  42.420   1.247
52342W        W13631  34.945   9.326  12.932
52343W        W13632  12.168  31.619   1.790
52344W        W13633  34.471   5.437  10.407
52345W        W13634  22.567   0.931  13.894
52346W        W13635  43.493  10.216  12.382
52347W        W13636   4.340  17.303   4.801
52348W        W13637  42.303  23.121   2.894
52349W        W13638  22.221  39.320  13.932
52350W        W13639  37.363  31.980   1.876
52351W        W13640   9.692  40.874   1.875
52352W        W13641  39.371  26.076   2.296
52353W        W13642  12.195  15.198   0.892
52354W        W13643  14.754  11.627   3.346
52355W        W13644  26.002  37.442   4.828
52356W        W13645   9.302   6.236   4.140
52357W        W13646  14.158   1.848   3.172
52358W        W13647  13.796   2.319  13.503
52359W        W13648  18.107  21.166   5.280
52360W        W13649  12.348  25.988   2.809
52361W        W13650  40.827   5.828   3.675
52362W        W13651  39.378  29.531  13.809
52363W        W13652  34.120  17.686  12.957
52364W        W13653  12.183  23.205  11.876
52365W        W13654  15.146  27.665  13.441
52366W        W13655  34.007  20.251  14.513
52367W        W13656   5.693  25.022  12.085
52368W        W13657   1.973   0.780  12.956
52369W        W13658  28.098  26.581   4.326
52370W        W13659   9.178  18.593   1.342
52371W        W13660  33.960  16.807   4.256
52372W        W13661  42.782   6.230   2.356
52373W        W13662   8.277  41.460  11.961
52374W        W13663   5.208  42.512  13.459
52375W        W13664  21.586  17.155   3.653
52376W        W13665  32.998  10.144  10.528
52377W        W13666  32.617  25.613   4.785
52378W        W13667  36.979  14.674   4.197
52379W        W13668  18.123  26.171   2.867
52380W        W13669  21.741  12.272  11.997
52381W        W13670  13.644  44.407   3.352
52382W        W13671   1.369  22.707   2.218
52383W        W13672   2.426   2.246   4.267
52384W        W13673  22.647   4.753  14.785
52385W        W13674   5.825  43.481  14.376
52386W        W13675  32.588  20.618  10.486
52387W        W13676  16.279  33.007  12.054
52388W        W13677  40.415  28.963   4.339
52389W        W13678  23.004   9.686  12.935
52390W        W13679  25.635  37.366  11.461
52391W        W13680  23.224  36.079  11.497
52392W        W13681  34.073   8.203  12.394
52393W        W13682  28.462  14.604  13.983
52394W        W13683  38.927  15.678   3.716
52395W        W13684  37.504  43.488   0.284
52396W        W13685  38.392   0.390  12.951
52397W        W13686  37.841  22.654  13.873
52398W        W13687  32.892   7.276   0.319
52399W        W13688  19.717  10.157   2.695
52400W        W13689   1.417   9.283   3.655
52401W        W13690   8.267  24.579   1.419
52402W        W13691   2.871  10.201   0.947
52403W        W13692  13.309  28.554  13.531
52404W        W13693  12.657   6.357  13.449
52405W        W13694  37.852   3.844  10.955
52406W        W13695   4.704  39.530  10.970
52407W        W13696   8.853  18.090   3.632
52408W        W13697  21.599  21.658  14.891
52409W        W13698   6.817  28.049  14.862
52410W        W13699  23.159  31.542  10.579
52411W        W13700  42.431  33.437  14.480
52412W        W13701  28.576  18.181  14.514
52413W        W13702  20.114  40.470   4.681
52414W        W13703  25.525   7.800  14.979
52415W        W13704   0.981  44.261   3.746
52416W        W13705  39.835  39.525   2.415
52417W        W13706   7.180  40.517  13.817
52418W        W13707  12.151  14.115   1.902
52419W        W13708  17.277  27.586   0.867
52420W        W13709  12.293   6.845  14.807
52421W        W13710  36.944  14.126  12.390
52422W        W13711   1.836  36.552   0.841
52423W        W13712  42.459  26.576   0.794
52424W        W13713  44.811  33.003   2.352
52425W        W13714  36.011   7.318  11.969
52426W        W13715  34.567  19.170  11.583
52427W        W13716  13.301  35.377  14.398
52428W        W13717   4.235   7.326   2.883
52429W        W13718   4.239  27.598   1.398
52430W        W13719  30.542  14.220   3.245
52431W        W13720   5.739  28.941  11.389
52432W        W13721  19.536  20.678  13.891
52433W        W13722   4.921  41.978   4.251
52434W        W13723  14.660  25.647  10.600
52435W        W13724  14.279  27.072  12.027
52436W        W13725  20.110  30.033  13.026
52437W        W13726  19.064  38.461   2.299
52438W        W13727  20.108  14.614  12.930
52439W        W13728  12.621  23.012   2.356
52440W        W13729   4.920  19.765  13.433
52441W        W13730   5.328   4.284  11.387
52442W        W13731  17.765  23.728  10.543
52443W        W13732  33.032  38.490  12.420
52444W        W13733  30.008  37.564   0.280
52445W        W13734  42.977   1.761  12.922
52446W        W13735   1.793  12.213   0.273
52447W        W13736  21.563  10.228   3.323
52448W        W13737  41.942   3.251   4.262
52449W        W13738  24.551  19.050  14.863
52450W        W13739  11.716   5.404   0.361
52451W        W13740  44.968   9.339   0.734
52452W        W13741   7.295  42.000  12.935
52453W        W13742   5.363   4.851   4.756
52454W        W13743  35.492  20.760   4.231
52455W        W13744  31.945  28.565   2.249
52456W        W13745  25.603   7.219   3.274
52457W        W13746  36.424  38.067   4.144
52458W        W13747  20.076   1.326   0.863
52459W        W13748  32.026  13.134   1.816
52460W        W13749  27.545  19.544  10.634
52461W        W13750   9.181  18.738   0.447
52462W        W13751  43.397  17.596  13.893
52463W        W13752  26.482  26.176  10.952
52464W        W13753  13.777  10.357   4.172
52465W        W13754   0.794  32.526  13.518
52466W        W13755  24.601  43.441  12.350
52467W        W13756  44.841  10.824  14.909
52468W        W13757  25.102  26.523  14.004
52469W        W13758  19.062   2.248   1.372
52470W        W13759  27.126  32.029   4.330
52471W        W13760  23.089  43.438   4.813
52472W        W13761  23.724  41.296  12.916
52473W        W13762  38.067  36.973   0.921
52474W        W13763  23.695   2.346  11.373
52475W        W13764   3.921  44.909   1.303
52476W        W13765  31.066  28.091   2.204
52477W        W13766  38.569  25.683   0.439
52478W        W13767   2.741   2.844  12.553
52479W        W13768   8.848  37.576   3.298
52480W        W13769  13.206  31.636  13.434
52481W        W13770  27.651  35.364   0.459
52482W        W13771   3.339   4.739  13.455
52483W        W13772  24.079  25.057  10.095
52484W        W13773  33.039   8.746  12.916
52485W        W13774  40.800  18.225   0.889
52486W        W13775  34.565  36.443   2.714
52487W        W13776  15.717  32.513  10.596
52488W        W13777  41.444  24.502   1.912
52489W        W13778  15.087  30.534  13.532
52490W        W13779  29.508  23.566  10.518
52491W        W13780  37.949  37.377   1.435
52492W        W13781  18.550  29.579   1.834
52493W        W13782   4.763  40.839  10.032
52494W        W13783   8.668  12.842   0.853
52495W        W13784  40.927  13.336   0.334
52496W        W13785  15.267  44.827   0.417
52497W        W13786  31.956   6.817   0.244
52498W        W13787  20.036  11.255   0.269
52499W        W13788  37.392  39.002  12.986
52500W        W13789  17.751  23.498  13.425
52501W        W13790  31.422   4.703   4.327
52502W        W13791  27.485  35.595   4.281
52503W        W13792  33.548  12.321   1.852
52504W        W13793  34.602  17.151   3.669
52505W        W13794  40.011  31.522   4.314
52506W        W13795  44.945  39.055   1.741
52507W        W13796  20.581  34.093   3.645
52508W        W13797  44.301  36.876  13.468
52509W        W13798  20.046  14.225  11.396
52510W        W13799   6.921  18.124   3.230
52511W        W13800  21.082  20.217   3.365
52512W        W13801   6.345  12.667   2.342
52513W        W13802  41.917  27.163   4.692
52514W        W13803  23.669  33.089   3.195
52515W        W13804  15.764  21.675  11.373
52516W        W13805  36.981  22.512   2.361
52517W        W13806  38.021  10.295   2.681
52518W        W13807  17.691   3.414   4.168
52519W        W13808  24.225  20.145  11.441
52520W        W13809  22.586  13.731  10.074
52521W        W13810  39.531  22.732   3.775
52522W        W13811  33.383  42.975   0.920
52523W        W13812  41.317  18.779   3.850
52524W        W13813  33.963  44.993   4.238
52525W        W13814  12.670   8.704  11.900
52526W        W13815  26.983   4.336  11.058
52527W        W13816  24.189  43.403   2.269
52528W        W13817  14.727  44.844   4.340
52529W        W13818  36.842  17.668   1.873
52530W        W13819  15.088  41.840  12.972
52531W        W13820  32.971  15.755  13.806
52532W        W13821   6.816  17.203  10.577
52533W        W13822  17.798  28.050  14.947
52534W        W13823  38.460  36.037   1.697
52535W        W13824  17.200  25.555   0.924
52536W        W13825  43.794  25.977   1.348
52537W        W13826  37.996  43.340   1.694
52538W        W13827   4.721   8.712  10.579
52539W        W13828  40.335  14.692   4.205
52540W        W13829  29.116  16.272   2.777
52541W        W13830  44.969  31.055   0.926
52542W        W13831   3.857  22.207  13.890
52543W        W13832  38.901  10.707   3.314
52544W        W13833  11.851  44.899   0.322
52545W        W13834   6.327  29.509  13.510
52546W        W13835  42.489  24.506  12.001
52547W        W13836  20.190  10.825   1.808
52548W        W13837  10.222  12.337   4.747
52549W        W13838  12.689  25.050  14.856
52550W        W13839  29.097  11.651  13.055
52551W        W13840  24.155  39.949  13.388
52552W        W13841   9.309  18.726  14.515
52553W        W13842  37.381   0.253   1.413
52554W        W13843   7.709  37.031   2.402
52555W        W13844  28.035  15.773  13.941
52556W        W13845  19.124   0.316   4.277
52557W        W13846  32.117  39.552  13.320
52558W        W13847   0.430   3.428   1.909
52559W        W13848  26.152  16.089   0.386
52560W        W13849  17.659  26.019   2.683
52561W        W13850  15.632  44.873  14.327
52562W        W13851   0.408  15.286  12.000
52563W        W13852   1.429  33.621   3.374
52564W        W13853  36.411  20.269   4.632
52565W        W13854   0.481  32.975  14.906
52566W        W13855  18.129   3.804   1.300
52567W        W13856   6.718   6.264  14.305
52568W        W13857  40.974  38.983   3.815
52569W        W13858  43.358  17.264  13.533
52570W        W13859   8.752  10.336  12.853
52571W        W13860  23.183  40.950  11.074
52572W        W13861   5.303  23.092  14.931
52573W        W13862  15.703  34.087   9.996
52574W        W13863  35.970  35.546  12.093
52575W        W13864  37.535  10.821   0.436
52576W        W13865  35.603  17.093   3.330
52577W        W13866  29.923   5.217   5.265
52578W        W13867  21.056  24.153   2.267
52579W        W13868   1.267  14.099   2.335
52580W        W13869  24.069  16.183   0.367
52581W        W13870  44.890   5.403   1.443
52582W        W13871  11.797  23.179   2.326
52583W        W13872  27.043  10.877   2.762
52584W        W13873  23.165  25.661  10.079
52585W        W13874  43.511  20.236   1.429
52586W        W13875   2.842  36.008  12.025
52587W        W13876  13.325  15.759   3.345
52588W        W13877  15.089   0.375  10.086
52589W        W13878  19.217  36.497  12.561
52590W        W13879   9.681   7.747  12.543
52591W        W13880   3.828   5.793  14.779
52592W        W13881  19.238  14.665  12.442
52593W        W13882  28.982  42.961   1.422
52594W        W13883  38.483  19.712   1.904
52595W        W13884   3.215   3.824  13.466
52596W        W13885   8.788  10.726   3.221
52597W        W13886  16.606  14.824  10.509
52598W        W13887  33.556  21.632   0.456
52599W        W13888  37.368  12.141   3.230
52600W        W13889  17.278   8.402  10.462
52601W        W13890  18.259  31.599   0.857
52602W        W13891  14.690  21.103   1.823
52603W        W13892  18.060  24.636   2.835
52604W        W13893  12.638  14.111   0.383
52605W        W13894  15.160   4.280  12.995
52606W        W13895  12.292  24.610   0.465
52607W        W13896  44.468  31.061  12.013
52608W        W13897  42.956   6.826  12.355
52609W        W13898   6.864  22.151  10.546
52610W        W13899  38.411   6.306  14.474
52611W        W13900  16.281  20.215   5.321
52612W        W13901  42.986  29.473   3.664
52613W        W13902  15.084  19.547  12.877
52614W        W13903  12.319  36.916   2.672
52615W        W13904   1.768   9.868   3.207
52616W        W13905   6.685  26.544  10.475
52617W        W13906  21.593  26.994   1.336
52618W        W13907  12.208   5.810  14.837
52619W        W13908  26.026  31.434   3.153
52620W        W13909   7.711  11.626  14.768
52621W        W13910  41.493  34.438  10.449
52622W        W13911  29.048  34.909   1.230
52623W        W13912  28.055  28.546  14.823
52624W        W13913  37.985  19.072  11.456
52625W        W13914   8.834  39.921  12.360
52626W        W13915   8.242  13.165   4.614
52627W        W13916  42.439  16.792   5.580
52628W        W13917  27.142  28.457   3.372
52629W        W13918  42.887   3.756   2.821
52630W        W13919  27.129  26.514  11.598
52631W        W13920  25.968   3.773  14.953
52632W        W13921  26.159  41.839   2.406
52633W        W13922  12.627  34.510  13.987
52634W        W13923  24.100  15.112  12.076
52635W        W13924  43.902  25.525  11.973
52636W        W13925  18.629  13.184   4.236
52637W        W13926   9.313   7.804  10.554
52638W        W13927  17.283  39.343   2.200
52639W        W13928  44.420  24.554  11.378
52640W        W13929   4.853  36.534  12.384
52641W        W13930  24.083  16.723  14.352
52642W        W13931   2.803   3.382  13.042
52643W        W13932  37.501  44.453   0.245
52644W        W13933  30.050  29.522  10.508
52645W        W13934   6.830  18.193   4.270
52646W        W13935   3.794  35.529   4.604
52647W        W13936  42.777  13.684   4.201
52648W        W13937  21.679  16.785   0.383
52649W        W13938  18.276  13.242  12.823
52650W        W13939   8.395  44.823  13.834
52651W        W13940  36.533  30.639  12.044
52652W        W13941  10.161  29.459  14.416
52653W        W13942  12.621  20.031  13.910
52654W        W13943  33.909  19.605  13.948
52655W        W13944  24.018  16.203  13.487
52656W        W13945  26.548   7.896   5.188
52657W        W13946  10.863  19.655   2.199
52658W        W13947  30.588  31.908   4.330
52659W        W13948  31.142  42.493   1.824
52660W        W13949  35.433  25.707  13.879
52661W        W13950  15.158  41.505   0.838
52662W        W13951  26.959  14.728   1.762
52663W        W13952   6.415   5.809  11.558
52664W        W13953  36.053   2.856   1.797
52665W        W13954  34.886   9.359  11.504
52666W        W13955  40.039  34.043  12.376
52667W        W13956  34.870  22.587  10.130
52668W        W13957  41.318  15.802  12.560
52669W        W13958  28.612  33.983  10.570
52670W        W13959   9.231  18.280   4.768
52671W        W13960  10.197  25.129  11.389
52672W        W13961  14.805  14.795   0.733
52673W        W13962   4.849  10.768  14.444
52674W        W13963  12.838  15.248  13.032
52675W        W13964  17.684   1.297   3.715
52676W        W13965  28.542  35.440   2.705
52677W        W13966  24.118   7.781   0.730
52678W        W13967  37.007  32.924   3.328
52679W        W13968   1.811  19.266  11.480
52680W        W13969  34.031  22.146  12.070
52681W        W13970  12.356  34.868   0.483
52682W        W13971  30.445  11.838  12.561
52683W        W13972  11.694  20.045  14.940
52684W        W13973  26.672  15.237   2.745
52685W        W13974  14.713  43.830   2.402
52686W        W13975   4.433  21.631  10.917
52687W        W13976  29.650  21.592  12.576
52688W        W13977  33.005  34.373   2.713
52689W        W13978   5.862  27.542   1.886
52690W        W13979  34.017  43.430  13.933
52691W        W13980  43.327  20.231  13.817
52692W        W13981  28.594  38.909  10.890
52693W        W13982  26.042  21.605  13.829
52694W        W13983  19.197   8.761   0.418
52695W        W13984  39.023  13.235   0.959
52696W        W13985  12.630  32.098   0.818
52697W        W13986  28.639   2.946  11.077
52698W        W13987   4.722  32.533  10.431
52699W        W13988   2.926  12.745  13.513
52700W        W13989  27.601  40.885   2.345
52701W        W13990  22.578  32.617   2.201
52702W        W13991  43.308  10.165   0.285
52703W        W13992  43.445   7.860  11.398
52704W        W13993  27.609  26.167   2.356
52705W        W13994  28.579   0.965  12.011
52706W        W13995  29.035   2.881   2.784
52707W        W13996  33.399  41.508   2.866
52708W        W13997   9.687  24.026   3.304
52709W        W13998  30.947  13.782   0.372
52710W        W13999  27.504   4.764  11.485
52711W        W14000  20.262   1.735  14.024
52712W        W14001  43.482  33.880   4.166
52713W        W14002  39.050  35.109   3.356
52714W        W14003  35.097  13.610  10.929
52715W        W14004  20.041  30.562   3.635
52716W        W14005  16.228  42.801  11.425
52717W        W14006   8.378  43.835   4.336
52718W        W14007  14.734  34.465   5.277
52719W        W14008  27.549  18.169  13.315
52720W        W14009  14.267  43.397  12.087
52721W        W14010  32.930   1.895  13.046
52722W        W14011  34.102  36.526  11.404
52723W        W14012  32.039  27.596  13.321
52724W        W14013   7.798  16.736   3.238
52725W        W14014   0.319   0.319  12.902
52726W        W14015  29.924   1.960   3.834
52727W        W14016  25.531  12.180  10.900
52728W        W14017  40.881   1.780   2.280
52729W        W14018  42.337  25.090  13.450
52730W        W14019   8.759  44.388  12.512
52731W        W14020  22.508   4.308   2.276
52732W        W14021  30.591  11.794  12.026
52733W        W14022  27.576   2.779   0.818
52734W        W14023  32.914  34.606   3.200
52735W        W14024  24.600  27.128   1.327
52736W        W14025  17.260  11.139  13.823
52737W        W14026   1.920  29.956  12.089
52738W        W14027  44.843  40.360  12.828
52739W        W14028   0.412   2.844  12.964
52740W        W14029   4.854  41.970  12.450
52741W        W14030  19.088  17.147   0.894
52742W        W14031  10.801  34.516   0.781
52743W        W14032  28.171   0.285   2.349
52744W        W14033  17.151  43.965  14.852
52745W        W14034  23.995  44.397  13.833
52746W        W14035  17.290  29.439  12.339
52747W        W14036  17.210   5.426  13.895
52748W        W14037  23.695  35.431  13.883
52749W        W14038  36.956  34.428  12.046
52750W        W14039  30.067  43.019  11.006
52751W        W14040  16.605  16.712   2.214
52752W        W14041   3.743   2.347   0.850
52753W        W14042  14.196  27.096  14.829
52754W        W14043  17.646  37.088   1.883
52755W        W14044  15.193  33.429   4.289
52756W        W14045  43.327  27.141   2.824
52757W        W14046  42.775  18.774   3.284
52758W        W14047  30.571  32.993  11.074
52759W        W14048  44.316  18.675   0.321
52760W        W14049  13.780  31.054  13.983
52761W        W14050  44.998  36.484   0.784
52762W        W14051   0.416  20.522  14.279
52763W        W14052  35.467  12.852   3.824
52764W        W14053  22.511   5.204  11.990
52765W        W14054   4.909  17.699   3.202
52766W        W14055  17.218   0.462  12.345
52767W        W14056  19.619  33.498   1.910
52768W        W14057  29.124  35.861  14.857
52769W        W14058  42.375  44.853  11.882
52770W        W14059  23.509  31.990   3.311
52771W        W14060  10.250   3.913   4.672
52772W        W14061  35.926  39.967   3.705
52773W        W14062  39.549  38.922  12.514
52774W        W14063  19.238   7.368  12.427
52775W        W14064  37.912  21.178  12.560
52776W        W14065   8.254   4.876  13.792
52777W        W14066   5.405  16.246   4.231
52778W        W14067  22.505  19.223   2.225
52779W        W14068   1.481  33.527   2.864
52780W        W14069  41.949  24.063   0.365
52781W        W14070   9.762  26.590  11.419
52782W        W14071   2.826  35.996   4.815
52783W        W14072  16.627  13.259   2.414
52784W        W14073  33.104  24.120   4.603
52785W        W14074  12.780  31.994   0.366
52786W        W14075  28.960  41.349  13.541
52787W        W14076  35.026   7.300   2.240
52788W        W14077  19.737  14.303  10.910
52789W        W14078  22.136  40.541   1.797
52790W        W14079  18.634  36.051   5.254
52791W        W14080  35.873  16.610   1.317
52792W        W14081  18.082  44.981  11.097
52793W        W14082  39.052  39.519  11.442
52794W        W14083   6.692  34.555   4.736
52795W        W14084   8.792   9.721   0.920
52796W        W14085  35.056  12.317  14.454
52797W        W14086  10.644   4.279  11.513
52798W        W14087  42.912   3.410   5.166
52799W        W14088  29.577  20.713   4.794
52800W        W14089  43.341   6.219  14.320
52801W        W14090  17.070  20.074  12.968
52802W        W14091   2.321  13.601  11.390
52803W        W14092   5.310  12.165   3.771
52804W        W14093  13.305  40.994  13.000
52805W        W14094  13.727  44.841   1.380
52806W        W14095  44.279   9.882   2.205
52807W        W14096  35.393  28.646  11.000
52808W        W14097  19.778  34.611   2.871
52809W        W14098  36.013  23.533  12.416
52810W        W14099  25.992   7.763   5.195
52811W        W14100  25.216   9.204   2.233
52812W        W14101  41.922  36.049   2.757
52813W        W14102  11.301  39.402   4.223
52814W        W14103  17.700  26.998  11.378
52815W        W14104  42.326   8.172   4.257
52816W        W14105  19.072   6.730  13.052
52817W        W14106  29.999  14.830  13.010
52818W        W14107  16.195  33.487   3.225
52819W        W14108  37.856  31.584  13.964
52820W        W14109  17.782  30.644   0.448
52821W        W14110   8.757  16.252  12.893
52822W        W14111   0.438  32.493  10.486
52823W        W14112  21.058  23.040   0.271
52824W        W14113  21.752  18.273  11.483
52825W        W14114  28.648  21.642   3.193
52826W        W14115  27.664  17.138  11.104
52827W        W14116  43.997   9.304  13.914
52828W        W14117   2.799  44.317  11.008
52829W        W14118  18.107  28.982   1.270
52830W        W14119  15.095   0.777   2.782
52831W        W14120  18.715  27.954  13.930
52832W        W14121  16.259  15.607  13.487
52833W        W14122  43.384  23.094   3.363
52834W        W14123  28.660   9.739   5.100
52835W        W14124  13.216   7.279  14.287
52836W        W14125  27.156  15.807   1.712
52837W        W14126  10.810   5.782   2.220
52838W        W14127  37.885   5.310   2.293
52839W        W14128  12.291   1.792  12.508
52840W        W14129   4.249  12.741   1.709
52841W        W14130  32.053   2.802  13.924
52842W        W14131   8.314  15.113   3.299
52843W        W14132  39.477  20.762   3.723
52844W        W14133  19.252  32.973  13.940
52845W        W14134  44.929  12.279  14.295
52846W        W14135  25.186  14.265   1.305
52847W        W14136  11.721  33.990  14.946
52848W        W14137  42.827  41.925   4.799
52849W        W14138   5.405   2.228  13.470
52850W        W14139   8.231  10.800   1.378
52851W        W14140   2.347  28.660  12.010
52852W        W14141  36.930  27.446   0.253
52853W        W14142  10.310  17.223  11.932
52854W        W14143  16.779   8.274  12.879
52855W        W14144  37.855  17.103  11.596
52856W        W14145   0.867   7.335  14.360
52857W        W14146  26.014  38.486   4.190
52858W        W14147  23.667  28.534   1.852
52859W        W14148  36.026  41.847   0.266
52860W        W14149  43.405  11.369   2.317
52861W        W14150   2.895   3.368  13.349
52862W        W14151  39.451   6.307  12.366
52863W        W14152  43.300  22.045  14.838
52864W        W14153  41.799  40.490  14.338
52865W        W14154  26.965   0.743  12.842
52866W        W14155  25.596  29.528  14.867
52867W        W14156  16.760  16.710  14.503
52868W        W14157  29.103   1.782   2.877
52869W        W14158  42.456  15.121   0.438
52870W        W14159  29.614  44.806   3.262
52871W        W14160   1.275  11.322  14.795
52872W        W14161  12.134  34.531  14.442
52873W        W14162  27.035   0.386  12.096
52874W        W14163  41.955   7.888  13.999
52875W        W14164  34.472  35.099   4.671
52876W        W14165  35.597  13.161   3.305
52877W        W14166  20.665   7.904  10.553
52878W        W14167  19.737  42.939   4.698
52879W        W14168   8.676  39.360  14.432
52880W        W14169  39.808  40.992  14.836
52881W        W14170  20.549  32.465  12.487
52882W        W14171  10.757  20.169   2.246
52883W        W14172  31.551   7.297   2.743
52884W        W14173  19.622  26.102  11.518
52885W        W14174  27.131  11.222  14.854
52886W        W14175   3.363  22.212   1.321
52887W        W14176  21.179   8.705  12.843
52888W        W14177  14.325  38.023   1.858
52889W        W14178  20.237  16.620   4.624
52890W        W14179  19.621  26.477  11.008
52891W        W14180  11.280  10.342   2.785
52892W        W14181  15.806  15.182   0.730
52893W        W14182   8.347  27.635   4.668
52894W        W14183   1.788   4.735   2.310
52895W        W14184  35.595   3.350   1.744
52896W        W14185  42.453   6.755   9.598
52897W        W14186  30.649  36.032  13.496
52898W        W14187   7.725   2.347  12.033
52899W        W14188   4.943  20.169  12.343
52900W        W14189  16.216  34.016   1.277
52901W        W14190  31.610   6.288  12.482
52902W        W14191  37.552  38.505  13.424
52903W        W14192  22.229  40.494  13.376
52904W        W14193  27.069   0.804  13.829
52905W        W14194  22.628   2.392  11.081
52906W        W14195   3.790  18.666   0.355
52907W        W14196  25.597  32.896  11.884
52908W        W14197   3.422  23.086  10.092
52909W        W14198  28.999  44.823  12.366
52910W        W14199  30.597  28.957  14.934
52911W        W14200   4.871  14.210   5.171
52912W        W14201   1.365  23.159  11.567
52913W        W14202  14.124  25.663  10.644
52914W        W14203  30.031  25.975  11.473
52915W        W14204  15.121   1.309  10.619
52916W        W14205  28.948  40.976  14.873
52917W        W14206  40.874   1.452  11.117
52918W        W14207  35.470   3.233  14.411
52919W        W14208   5.343  28.145   2.832
52920W        W14209  41.009  12.323  10.473
52921W        W14210  36.566  26.524  12.536
52922W        W14211  19.259  20.182   4.152
52923W        W14212  27.971  38.947   3.267
52924W        W14213   6.320  23.166  12.009
52925W        W14214  26.023   1.435   3.837
52926W        W14215  10.784  12.210   4.820
52927W        W14216  13.793  28.975  11.084
52928W        W14217  36.414   1.316   4.270
52929W        W14218  21.618  34.380   2.217
52930W        W14219  24.489   9.806   4.688
52931W        W14220  34.410  26.557  12.377
52932W        W14221   5.320  20.112  14.824
52933W        W14222  18.152  40.978  13.014
52934W        W14223  29.140  32.079   4.624
52935W        W14224  16.111  24.148  13.512
52936W        W14225   1.835  28.521  11.612
52937W        W14226  40.883  24.149  11.881
52938W        W14227  25.964  33.019   1.414
52939W        W14228  39.031  30.982   0.728
52940W        W14229  28.598  13.201   1.787
52941W        W14230  39.960   4.727   4.344
52942W        W14231  29.432   1.763   1.286
52943W        W14232  21.750  40.399  12.547
52944W        W14233  23.641  11.736  14.983
52945W        W14234   8.401  43.983  11.377
52946W        W14235   8.376  23.705   1.777
52947W        W14236  15.271   3.356   0.256
52948W        W14237  34.026  16.188   4.228
52949W        W14238  14.594   0.875   4.618
52950W        W14239  22.738  17.763   1.747
52951W        W14240  26.109  40.818   3.198
52952W        W14241  16.667  12.634  13.870
52953W        W14242  44.391  34.377  11.428
52954W        W14243   1.432   9.259  11.045
52955W        W14244   8.852  38.508   4.742
52956W        W14245  41.811   0.805  12.957
52957W        W14246  24.989  18.250  12.092
52958W        W14247  26.965   0.811   2.689
52959W        W14248  35.053  33.597  13.362
52960W        W14249  38.328  35.604   1.257
52961W        W14250  29.444  25.570  14.985
52962W        W14251  27.113   3.740   4.166
52963W        W14252  32.622  39.898   3.766
52964W        W14253  16.078  31.936   4.277
52965W        W14254  19.561   9.873  10.436
52966W        W14255  12.779  35.484   4.134
52967W        W14256  10.358   5.399  12.843
52968W        W14257  27.616  20.095   4.783
52969W        W14258  35.957   9.647   4.283
52970W        W14259   3.316  30.440  11.999
52971W        W14260  15.177  15.087  11.931
52972W        W14261   6.897   0.858   4.335
52973W        W14262  37.934  32.412  10.570
52974W        W14263  33.052  29.426   3.642
52975W        W14264  12.852  38.031  13.525
52976W        W14265  33.103  37.365   1.746
52977W        W14266   6.229  20.066   3.709
52978W        W14267  41.033  16.152   4.602
52979W        W14268  32.398   5.252  13.005
52980W        W14269  33.948  35.553  12.396
52981W        W14270  42.957   1.308   3.843
52982W        W14271  24.647   7.177   4.170
52983W        W14272  32.903   4.810   9.459
52984W        W14273   4.398  39.892   4.339
52985W        W14274  21.609  18.154   2.231
52986W        W14275  41.975  13.646  12.451
52987W        W14276  24.084  29.984   3.369
52988W        W14277  21.653  30.126   3.167
52989W        W14278  16.573   2.880   2.801
52990W        W14279   4.920  11.359  12.543
52991W        W14280  33.003  34.377  13.392
52992W        W14281  29.136  39.361   2.203
52993W        W14282  44.319  19.172  13.374
52994W        W14283  36.505  15.773  13.528
52995W        W14284  14.665   3.372   2.297
52996W        W14285   9.732  31.151  13.917
52997W        W14286  17.231  35.027   3.739
52998W        W14287  19.057   9.812  11.570
52999W        W14288   5.735  22.523   2.230
53000W        W14289  28.158  40.356   1.364
53001W        W14290  10.824  26.076  14.313
53002W        W14291  13.706  44.937  12.349
53003W        W14292   6.357  13.609  11.427
53004W        W14293  27.455  19.763   0.416
53005W        W14294  13.810   4.205   2.754
53006W        W14295  35.010  24.201   0.734
53007W        W14296  40.476  16.585   0.483
53008W        W14297  12.205   5.435   3.160
53009W        W14298  11.142  22.076   4.671
53010W        W14299  24.979  35.475  12.055
53011W        W14300   2.932  28.577  11.047
53012W        W14301  24.983  10.323  14.905
53013W        W14302  24.587   9.751  12.479
53014W        W14303  18.289   2.733  11.051
53015W        W14304   8.797  14.742  12.935
53016W        W14305  22.721  35.094  11.999
53017W        W14306  16.090  37.848   3.308
53018W        W14307   4.445  24.023   3.854
53019W        W14308  28.647   9.324  11.439
53020W        W14309  38.415  37.893   1.915
53021W        W14310  28.526  16.187  10.977
53022W        W14311  35.564   3.898   3.681
53023W        W14312  34.907  11.307   2.236
53024W        W14313  18.670   1.901  12.349
53025W        W14314  14.792   3.792  11.866
53026W        W14315  22.631   3.321   1.775
53027W        W14316  26.538  22.137  13.930
53028W        W14317   8.232  20.130  11.122
53029W        W14318  38.362  36.889   1.299
53030W        W14319  29.054  23.646   0.414
53031W        W14320  15.187  33.877   0.942
53032W        W14321  26.000  38.955   3.846
53033W        W14322  14.738  27.548  14.774
53034W        W14323  30.615   2.737   3.774
53035W        W14324  44.797  31.599   3.203
53036W        W14325  43.971   3.437  14.361
53037W        W14326  28.538   4.769  11.432
53038W        W14327  28.974   4.812   0.414
53039W        W14328  31.111  36.505   3.231
53040W        W14329   3.275  20.571   1.708
53041W        W14330  43.404  42.323  10.909
53042W        W14331  26.026  17.743   3.198
53043W        W14332   9.785   0.459  11.867
53044W        W14333   5.869   5.393  13.397
53045W        W14334   7.343  17.764  11.919
53046W        W14335  21.142  35.861  13.338
53047W        W14336  41.356  38.539  14.318
53048W        W14337   2.243  17.194  11.976
53049W        W14338   5.691   6.249   4.249
53050W        W14339   9.669  11.722  13.378
53051W        W14340   6.890  33.036  11.092
53052W        W14341  39.531   9.297  12.550
53053W        W14342  13.198  27.035   4.657
53054W        W14343  34.932  28.953   2.361
53055W        W14344  32.000  40.845   2.406
53056W        W14345  41.802  29.549  11.386
53057W        W14346  44.475  19.660  14.483
53058W        W14347  44.817   1.474   2.764
53059W        W14348   4.430  24.136  14.298
53060W        W14349  10.644   5.226   2.345
53061W        W14350  34.086  15.791  13.891
53062W        W14351  44.358   7.171  11.517
53063W        W14352   0.797  17.288  11.605
53064W        W14353  41.017  17.100   4.691
53065W        W14354  22.564  40.353  11.877
53066W        W14355  10.695   1.371   3.178
53067W        W14356  22.666  37.386   4.134
53068W        W14357   5.786  10.846   3.151
53069W        W14358  23.736  35.399   1.232
53070W        W14359  40.379  30.606  10.000
53071W        W14360  34.502   4.740   0.244
53072W        W14361   1.248  25.984   3.704
53073W        W14362  36.025  10.858   4.708
53074W        W14363  20.689   0.412   0.266
53075W        W14364  34.997   9.196   0.931
53076W        W14365   8.863  17.639  11.438
53077W        W14366  15.665  40.908  12.357
53078W        W14367  29.457   5.298   1.218
53079W        W14368   6.397  33.956  11.459
53080W        W14369   8.297  33.882  12.076
53081W        W14370  23.103  10.773  13.053
53082W        W14371  34.964   0.463   5.260
53083W        W14372  34.377   6.191  10.060
53084W        W14373  12.272  30.956   5.241
53085W        W14374  41.393   7.810   2.725
53086W        W14375   3.954  29.425   0.773
53087W        W14376  33.994  40.532  12.971
53088W        W14377   0.925   7.308  13.882
53089W        W14378  31.421   7.344   0.830
53090W        W14379  25.141  32.620  10.491
53091W        W14380  28.009  13.735   4.278
53092W        W14381  40.993  19.148   1.758
53093W        W14382  21.240  10.660   3.161
53094W        W14383  35.065   0.358  11.093
53095W        W14384  20.159  38.409  10.542
53096W        W14385  12.671   7.347  10.591
53097W        W14386  35.907   1.881   0.305
53098W        W14387   8.366  35.896   0.750
53099W        W14388  21.112  23.527  12.890
53100W        W14389  17.066  26.528  13.361
53101W        W14390   8.899   2.730  11.379
53102W        W14391  16.096  31.500  14.475
53103W        W14392  32.972  11.273  14.917
53104W        W14393  16.139  44.376   3.335
53105W        W14394   4.284  15.172  13.387
53106W        W14395   0.817   7.374   5.219
53107W        W14396  37.405  20.267  12.500
53108W        W14397  16.735   4.407  10.463
53109W        W14398  15.225  11.362  14.506
53110W        W14399  10.328  12.688  12.910
53111W        W14400   2.907  19.750  12.417
53112W        W14401   6.420  34.392   2.208
53113W        W14402   9.858  22.091   2.784
53114W        W14403  22.510   7.891  12.069
53115W        W14404  24.209   3.941   3.631
53116W        W14405  13.332   7.685  12.496
53117W        W14406   7.734  11.669  11.380
53118W        W14407   4.220   8.184  12.473
53119W        W14408  10.247  24.133   5.109
53120W        W14409  40.985   3.715  13.481
53121W        W14410   5.399  35.047  10.550
53122W        W14411   1.435   4.282  12.430
53123W        W14412   9.680  34.083   1.431
53124W        W14413   0.972   5.762  14.309
53125W        W14414   3.448  30.478  12.943
53126W        W14415   9.822  34.468   9.937
53127W        W14416   0.469  23.094   0.413
53128W        W14417   9.680  32.907  11.428
53129W        W14418  39.525  43.010  14.806
53130W        W14419  25.980  25.973   0.398
53131W        W14420  14.316   4.344   1.285
53132W        W14421   0.960  11.269   0.362
53133W        W14422  43.339  22.576  14.462
53134W        W14423   7.399   8.373   4.807
53135W        W14424  21.580  39.875  12.954
53136W        W14425   7.350   7.796   0.849
53137W        W14426  12.253  30.063   0.399
53138W        W14427  13.694  44.407  11.010
53139W        W14428  39.422  44.814  10.604
53140W        W14429  20.096   5.203   3.266
53141W        W14430  20.270  39.343  14.320
53142W        W14431  39.332  22.523  10.544
53143W        W14432  30.611  33.912  12.446
53144W        W14433  36.075  43.877  11.033
53145W        W14434  29.174  40.480   4.155
53146W        W14435  26.200  28.181   4.279
53147W        W14436  40.467  17.620  13.978
53148W        W14437  13.204  36.368  11.028
53149W        W14438  12.351   4.828  12.342
53150W        W14439  16.776  21.044   0.898
53151W        W14440  23.235  30.020   2.878
53152W        W14441  14.325  39.508  10.633
53153W        W14442  38.076  10.293   1.719
53154W        W14443  28.961   1.424   2.231
53155W        W14444  39.516  13.205  10.440
53156W        W14445  16.749   3.944   1.321
53157W        W14446   2.421  28.036  11.906
53158W        W14447  10.264  31.029  13.476
53159W        W14448  11.318  23.055   2.185
53160W        W14449   6.690  33.077  11.926
53161W        W14450  31.139  21.213   3.370
53162W        W14451  27.628  37.940  13.387
53163W        W14452   1.974  16.650  13.831
53164W        W14453   8.345  26.586   0.265
53165W        W14454  21.106  21.230   2.252
53166W        W14455  38.325  34.094   2.840
53167W        W14456  39.999   4.318   3.240
53168W        W14457  17.180  32.986   1.914
53169W        W14458  27.683   1.784  11.591
53170W        W14459  15.614  37.865  13.401
53171W        W14460  42.466  40.394  13.993
53172W        W14461  26.501  28.997  10.578
53173W        W14462  36.921  19.736  13.972
53174W        W14463   7.811  14.705   1.697
53175W        W14464  38.514  41.349   0.926
53176W        W14465  15.654   0.781  11.007
53177W        W14466  10.366  35.524  11.919
53178W        W14467  29.120   2.756  11.597
53179W        W14468   9.170  36.348  11.969
53180W        W14469  14.821   8.709  12.831
53181W        W14470  14.785  28.986   2.702
53182W        W14471   0.854  19.738  13.370
53183W        W14472  42.795  35.563   0.339
53184W        W14473   5.777  26.623   0.832
53185W        W14474  20.743  23.572   4.243
53186W        W14475   0.493  37.482   1.247
53187W        W14476  22.133   8.161   2.664
53188W        W14477  30.478  34.577   0.246
53189W        W14478  11.137  41.800  11.921
53190W        W14479  12.651  17.079  12.939
53191W        W14480  22.650  22.245   3.286
53192W        W14481  19.646  23.629  13.812
53193W        W14482  24.075  33.560  11.554
53194W        W14483  41.022  21.647  12.891
53195W        W14484  39.982  40.404   0.858
53196W        W14485  33.987  35.449   1.931
53197W        W14486  13.232  13.276  11.506
53198W        W14487   4.858  28.157   3.716
53199W        W14488  16.144  35.070   3.720
53200W        W14489  15.241   9.353   4.189
53201W        W14490  14.126  21.029   3.209
53202W        W14491  32.541  17.773  14.929
53203W        W14492  28.054  23.568   0.416
53204W        W14493  36.413  29.553   2.767
53205W        W14494  32.072  42.297   3.277
53206W        W14495  39.932  17.756  13.948
53207W        W14496  13.265  40.460   0.752
53208W        W14497  21.744  15.785   2.665
53209W        W14498  41.534  16.652   1.240
53210W        W14499  12.291  40.826   4.314
53211W        W14500  39.861   3.238   9.965
53212W        W14501  26.457  40.962  14.806
53213W        W14502  39.416   7.326   4.271
53214W        W14503  19.221   3.319   2.413
53215W        W14504  37.507  13.834  14.981
53216W        W14505   5.888   0.983  10.461
53217W        W14506  29.014  32.588   4.349
53218W        W14507   2.415  13.817   0.367
53219W        W14508   4.374  18.068  12.964
53220W        W14509   6.678  28.042   5.131
53221W        W14510  22.582  12.832   3.181
53222W        W14511  30.006  44.369   4.353
53223W        W14512  38.411  25.184   4.637
53224W        W14513   0.787  15.239  10.534
53225W        W14514  20.125  38.325   3.745
53226W        W14515  29.016  42.406   0.753
53227W        W14516  37.561  41.382   4.608
53228W        W14517  41.418  10.642   0.774
53229W        W14518   9.701  26.075  14.364
53230W        W14519  28.505   2.425   1.907
53231W        W14520  44.279  11.673   0.878
53232W        W14521  25.685   7.244  11.950
53233W        W14522  42.892  34.385  13.526
53234W        W14523   7.811  40.993   0.765
53235W        W14524  14.121  15.263   3.380
53236W        W14525  31.444  40.933  10.453
53237W        W14526   7.299  20.605  14.375
53238W        W14527  19.566  38.451  10.983
53239W        W14528  37.468   9.393  12.371
53240W        W14529   3.404   4.931  10.631
53241W        W14530   0.850  38.332  11.913
53242W        W14531  42.460  27.017   2.874
53243W        W14532  38.441  44.434   0.260
53244W        W14533  37.984  21.105   4.296
53245W        W14534  35.957  19.624   0.305
53246W        W14535  27.171  36.074  10.405
53247W        W14536  12.674  33.584   0.403
53248W        W14537  16.149  12.120   3.794
53249W        W14538  28.438  42.939  13.417
53250W        W14539  30.120  23.161  11.478
53251W        W14540  30.153  36.876   3.744
53252W        W14541  10.787  37.471  13.974
53253W        W14542  12.317  41.319  13.383
53254W        W14543  27.516  30.639  10.584
53255W        W14544  21.664  19.085  12.860
53256W        W14545   2.398  28.668   0.750
53257W        W14546  13.264  34.468  10.530
53258W        W14547   2.389   3.399  12.893
53259W        W14548  34.010  39.921  13.055
53260W        W14549  41.786  14.664   4.771
53261W        W14550  15.184   5.858  11.406
53262W        W14551  34.518  39.817  11.907
53263W        W14552  19.564  31.125  11.048
53264W        W14553  18.610  39.825  12.866
53265W        W14554  24.074  24.623  13.511
53266W        W14555  15.300  10.379  11.531
53267W        W14556  18.181   2.244  14.466
53268W        W14557  23.077  29.576  12.009
53269W        W14558  12.650  31.032   3.750
53270W        W14559  11.354  26.582  13.988
53271W        W14560  12.686  38.055   2.899
53272W        W14561  29.089   4.874   4.243
53273W        W14562  44.415  35.372   0.907
53274W        W14563  34.917   5.338  14.967
53275W        W14564  37.547  26.469   1.447
53276W        W14565  16.603  34.429   1.279
53277W        W14566   1.336  30.487  12.983
53278W        W14567  29.133  34.911  11.437
53279W        W14568  34.106  41.921   4.692
53280W        W14569   2.798   0.406   2.182
53281W        W14570  10.307  29.449   3.776
53282W        W14571  16.283  36.368   2.418
53283W        W14572   9.319  15.678   3.849
53284W        W14573  20.722  38.002   1.395
53285W        W14574  13.327  36.385  12.943
53286W        W14575  24.032   0.799  11.459
53287W        W14576  21.017  40.546  12.834
53288W        W14577   2.366  13.648   2.664
53289W        W14578   9.363  37.481   4.155
53290W        W14579  35.910  43.863   2.211
53291W        W14580  39.537  11.256  11.604
53292W        W14581  43.790  20.678  10.597
53293W        W14582  18.125  40.887   4.800
53294W        W14583   3.388   6.892  12.455
53295W        W14584   9.720  28.494  10.442
53296W        W14585  23.649   1.447  14.516
53297W        W14586  39.457  32.585  10.472
53298W        W14587  44.984  15.236   3.238
53299W        W14588  37.527  44.330  13.477
53300W        W14589  24.116  37.034  14.953
53301W        W14590  38.532  43.796  14.798
53302W        W14591  19.739  44.504   3.650
53303W        W14592  14.138  31.942   4.224
53304W        W14593   7.676  29.118  14.782
53305W        W14594  39.503  43.506   3.290
53306W        W14595  14.815  19.584  14.281
53307W        W14596   4.743   0.879   1.313
53308W        W14597  43.897  27.150   3.201
53309W        W14598  19.259   1.845   1.394
53310W        W14599  19.642   5.243  13.432
53311W        W14600  33.118  26.498  11.531
53312W        W14601   7.245   6.791   0.802
53313W        W14602  32.979   2.815  14.367
53314W        W14603  42.363  18.165  12.354
53315W        W14604  36.868  39.334  13.431
53316W        W14605  37.042  16.813   5.157
53317W        W14606  30.552  38.058   3.707
53318W        W14607  24.713  21.179   2.404
53319W        W14608  44.940  15.299  12.994
53320W        W14609  28.647   4.857   0.442
53321W        W14610  32.537  24.021   1.345
53322W        W14611   5.885  22.647   1.756
53323W        W14612  40.958  38.821   2.700
53324W        W14613  30.113  18.248  11.942
53325W        W14614  15.275  17.725   3.814
53326W        W14615   3.348  11.169   1.277
53327W        W14616  30.515  44.762  12.568
53328W        W14617  40.397  44.373   5.222
53329W        W14618  34.048   4.889  11.394
53330W        W14619  16.748  18.203  10.958
53331W        W14620  27.542   8.282  12.891
53332W        W14621  42.868  41.528   0.759
53333W        W14622  32.430  43.018   0.849
53334W        W14623  22.054  42.972  11.483
53335W        W14624  20.693  24.982  10.897
53336W        W14625  10.635  20.710  14.888
53337W        W14626  40.921  12.354   2.368
53338W        W14627   6.820  32.112  14.764
53339W        W14628   0.808  42.891  13.947
53340W        W14629   0.962  12.248   1.352
53341W        W14630  21.546  17.217   2.242
53342W        W14631  24.022   9.759  13.797
53343W        W14632  29.596  37.462  12.076
53344W        W14633  12.337  41.035   0.811
53345W        W14634  21.098   1.435  10.573
53346W        W14635  41.882  40.824  14.913
53347W        W14636  24.102   4.821  11.919
53348W        W14637   0.425  28.514  12.930
53349W        W14638  31.624  41.454   4.122
53350W        W14639  21.757   8.874   2.222
53351W        W14640  42.441  23.573  12.079
53352W        W14641  39.053  15.767   0.266
53353W        W14642  40.031  39.555   4.324
53354W        W14643  36.504  20.181  13.921
53355W        W14644  11.247  33.910  14.766
53356W        W14645  20.693  27.103   3.707
53357W        W14646  30.122  15.644   4.180
53358W        W14647  19.138   6.205  13.934
53359W        W14648  20.221  41.925  12.490
53360W        W14649  29.541   8.858   3.658
53361W        W14650  36.407  14.187   0.869
53362W        W14651   2.451  10.241  11.127
53363W        W14652  29.082  36.372   2.274
53364W        W14653  35.371  28.558  13.908
53365W        W14654  37.539   1.451   3.834
53366W        W14655  34.377  36.496  13.877
53367W        W14656  37.954  43.503  12.867
53368W        W14657  26.615  30.058   2.336
53369W        W14658  30.519  40.359   0.873
53370W        W14659  36.924  18.634  14.315
53371W        W14660  24.207   5.857   1.745
53372W        W14661  11.159   3.851  12.957
53373W        W14662  22.126  10.372   0.948
53374W        W14663  36.057  28.996   3.145
53375W        W14664  15.227  33.411   4.734
53376W        W14665  20.743  14.701   4.741
53377W        W14666   0.376  12.721   1.857
53378W        W14667  14.299   1.787   2.332
53379W        W14668  31.497  25.008   2.884
53380W        W14669   0.759  37.911   0.332
53381W        W14670   1.861   9.335  14.998
53382W        W14671  27.579  28.538   0.317
53383W        W14672  17.763  13.239  10.641
53384W        W14673  43.293  38.943  13.330
53385W        W14674  35.965  43.450  11.540
53386W        W14675  21.136  15.582   3.274
53387W        W14676  44.467  36.570   4.128
53388W        W14677  14.316   4.920   3.333
53389W        W14678   6.824   6.797  13.832
53390W        W14679  42.032  20.204  12.576
53391W        W14680   3.876  21.088  10.986
53392W        W14681  22.708  34.906  10.469
53393W        W14682  35.858  13.697  12.377
53394W        W14683  29.132  28.947  13.855
53395W        W14684   1.468  28.022   3.661
53396W        W14685   3.236  19.234  14.414
53397W        W14686  29.924  31.520   2.769
53398W        W14687  33.019   1.756   2.899
53399W        W14688  16.632  29.495  12.506
53400W        W14689  36.534  25.525   1.914
53401W        W14690  38.878  14.139   4.340
53402W        W14691  39.360   3.252   4.271
53403W        W14692  13.147  32.924  14.896
53404W        W14693  32.986  40.876   1.358
53405W        W14694   8.162  36.085   1.735
53406W        W14695  27.950  13.251  12.354
53407W        W14696  39.371  11.737   3.763
53408W        W14697   0.953  20.131   4.779
53409W        W14698  21.172  38.511  11.019
53410W        W14699  35.869  31.054   2.224
53411W        W14700  11.132  29.104  12.478
53412W        W14701  24.590  38.336   1.812
53413W        W14702   9.249  23.120   2.876
53414W        W14703   0.842  25.182  14.977
53415W        W14704  24.041   0.350  13.014
53416W        W14705  19.553  21.091   3.827
53417W        W14706   6.887  43.308   4.183
53418W        W14707  26.130  38.016   3.769
53419W        W14708  44.426   4.219   0.953
53420W        W14709  24.638  14.301   5.099
53421W        W14710  17.148  27.074  12.448
53422W        W14711  21.568  21.724   4.701
53423W        W14712  26.658  43.950   0.314
53424W        W14713  31.622  26.044  12.442
53425W        W14714  22.538  24.652   3.682
53426W        W14715  27.608  15.822   3.252
53427W        W14716   9.185  13.333  14.857
53428W        W14717  19.249  18.058  14.835
53429W        W14718  20.528  32.469  13.803
53430W        W14719  15.106  21.214   1.243
53431W        W14720  28.435  23.637   3.343
53432W        W14721  17.145  20.625   5.298
53433W        W14722  34.008   0.793  14.285
53434W        W14723  17.774  23.217   4.319
53435W        W14724  42.852   9.809   4.353
53436W        W14725  18.099  30.519  14.948
53437W        W14726  40.974  37.467   3.656
53438W        W14727  35.875  24.724   1.259
53439W        W14728  43.775   2.305  11.384
53440W        W14729   9.788  40.047   2.349
53441W        W14730   9.164   3.830   2.801
53442W        W14731   4.818  31.571   1.806
53443W        W14732  39.001  15.210   0.453
53444W        W14733   4.389  11.205  13.865
53445W        W14734   0.258  26.196  11.119
53446W        W14735   7.366  40.415   1.292
53447W        W14736   1.890  34.551   2.386
53448W        W14737  33.390  19.625   0.926
53449W        W14738  22.709   1.253  13.888
53450W        W14739   2.387  33.540   0.394
53451W        W14740  41.941  27.691   3.295
53452W        W14741   9.673  25.063  11.452
53453W        W14742  39.809  38.389  12.507
53454W        W14743  14.312  44.378  10.998
53455W        W14744  29.462  27.085  12.006
53456W        W14745   4.267  19.240  13.869
53457W        W14746   6.420  44.380   2.814
53458W        W14747  26.006  36.998  12.036
53459W        W14748  30.950  26.140  14.019
53460W        W14749  15.242  41.510   2.373
53461W        W14750  43.887  41.940  13.543
53462W        W14751  32.960  38.988   4.222
53463W        W14752  35.491  37.559   4.307
53464W        W14753  37.460  34.086   2.702
53465W        W14754  21.064   3.728   2.309
53466W        W14755  26.630  13.799   4.169
53467W        W14756  26.600  34.113   4.821
53468W        W14757   5.213  26.105  14.023
53469W        W14758  16.244  35.985   4.196
53470W        W14759  10.205  16.220  14.826
53471W        W14760  42.863  28.613  10.962
53472W        W14761  18.646  39.393  11.940
53473W        W14762   6.829  17.668  10.551
53474W        W14763  39.912  43.493   1.243
53475W        W14764  28.162  12.713   1.848
53476W        W14765  26.544  12.233  11.507
53477W        W14766  16.785  40.394  12.052
53478W        W14767  10.222  10.224  11.879
53479W        W14768   8.755   4.246   1.250
53480W        W14769   6.222   5.919   2.265
53481W        W14770   1.918   9.308  13.047
53482W        W14771  33.578  13.622  11.090
53483W        W14772  26.072  18.187   2.704
53484W        W14773  36.481  26.611   5.303
53485W        W14774  31.540   9.251  12.061
53486W        W14775  25.475  12.709   3.262
53487W        W14776  29.040  37.411  11.016
53488W        W14777  19.650  37.907  11.374
53489W        W14778  17.722  32.479  11.526
53490W        W14779  44.989  36.395  10.568
53491W        W14780  39.555  37.873  12.850
53492W        W14781  23.002  32.951   0.955
53493W        W14782   9.348   3.799   1.422
53494W        W14783  40.400  14.339  12.858
53495W        W14784  31.637  38.531   4.259
53496W        W14785   6.754  44.417   4.794
53497W        W14786  33.967  29.481  11.100
53498W        W14787  22.520  17.281   0.744
53499W        W14788  30.017   1.879   1.843
53500W        W14789  25.974   7.668  12.556
53501W        W14790  41.840  30.650  13.412
53502W        W14791  10.234  41.470  13.931
53503W        W14792   7.770  33.533  11.890
53504W        W14793  41.503   9.647  12.572
53505W        W14794  34.499   3.839  11.038
53506W        W14795   1.313  41.957  10.472
53507W        W14796  15.679  43.377  12.841
53508W        W14797  21.697  44.425  14.018
53509W        W14798  24.615  40.484   2.787
53510W        W14799  18.674  38.954   3.771
53511W        W14800  21.524  12.293  14.427
53512W        W14801  44.294  10.203  13.339
53513W        W14802   2.338  44.475  10.598
53514W        W14803  43.928  43.772   2.708
53515W        W14804  34.980  39.035   2.719
53516W        W14805  41.819   7.781   2.257
53517W        W14806  15.230  29.633  13.308
53518W        W14807   6.278  15.148   4.252
53519W        W14808  25.649   8.713   1.883
53520W        W14809  10.167   5.890  11.901
53521W        W14810  33.422  12.193   5.260
53522W        W14811  22.544  29.560  12.982
53523W        W14812   4.857   2.463  11.001
53524W        W14813   8.362  25.214  13.060
53525W        W14814  14.676  37.534   2.222
53526W        W14815  12.786  26.486  10.515
53527W        W14816  35.899  28.640  13.941
53528W        W14817  42.356  32.895   1.733
53529W        W14818   7.226  35.089  11.600
53530W        W14819  36.362  11.346  13.324
53531W        W14820  24.042  10.733  11.075
53532W        W14821  18.709   9.305   3.159
53533W        W14822  24.479  23.629  11.076
53534W        W14823  22.611  13.721   2.191
53535W        W14824  39.480  33.996   4.171
53536W        W14825  19.587  21.038  14.444
53537W        W14826   2.773  35.860   1.930
53538W        W14827   0.340  36.967   0.401
53539W        W14828  42.431  24.627  14.381
53540W        W14829  37.983   3.858   2.308
53541W        W14830   0.471  21.639   1.908
53542W        W14831  26.123  31.435   4.705
53543W        W14832  18.746  30.036   4.119
53544W        W14833  42.822   3.883   3.842
53545W        W14834  33.563  28.073  11.538
53546W        W14835   6.905  43.869  14.509
53547W        W14836  15.149  35.402   1.926
53548W        W14837  16.783  23.209  13.509
53549W        W14838  31.080  29.011   0.356
53550W        W14839  27.011   2.369  13.861
53551W        W14840  10.204  34.097   1.906
53552W        W14841  18.199  22.660  13.984
53553W        W14842   2.234  19.779   4.193
53554W        W14843  18.581  10.766  11.373
53555W        W14844  14.774   6.284  14.451
53556W        W14845  10.174  44.288  11.484
53557W        W14846  23.032  37.958   3.867
53558W        W14847  39.873  19.663  13.343
53559W        W14848   0.911  17.677  11.425
53560W        W14849  42.446   8.765  11.542
53561W        W14850  41.991   1.795   1.836
53562W        W14851  17.193  21.128   9.633
53563W        W14852  29.147  41.894   2.784
53564W        W14853  28.095  34.922   2.876
53565W        W14854   6.425   6.843  13.869
53566W        W14855   8.262  36.065  10.416
53567W        W14856   3.926  35.871   2.803
53568W        W14857  32.576  14.643   0.781
53569W        W14858   7.397  39.467  11.874
53570W        W14859  18.604  27.101  11.478
53571W        W14860  23.629   9.295  11.094
53572W        W14861  13.261  33.886   5.743
53573W        W14862  36.994  36.972   2.860
53574W        W14863  32.961  35.004  14.513
53575W        W14864  35.399  19.055  11.984
53576W        W14865  26.957   3.352   4.729
53577W        W14866  36.390  29.918  13.540
53578W        W14867  36.985   0.289  10.513
53579W        W14868  16.771  24.104  11.857
53580W        W14869  28.160  24.226  11.096
53581W        W14870   5.245  43.783  13.004
53582W        W14871  27.575   1.339  12.823
53583W        W14872  27.537  44.904   3.710
53584W        W14873  43.337  19.660  11.394
53585W        W14874  29.567  25.681  12.364
53586W        W14875  32.934  20.710   2.757
53587W        W14876  24.520   3.249  13.326
53588W        W14877  20.115  26.107  12.992
53589W        W14878   3.302  21.132  12.387
53590W        W14879  14.298   2.779  11.533
53591W        W14880  30.912  23.005  11.443
53592W        W14881  14.128   3.242   2.192
53593W        W14882  26.609   0.481  13.029
53594W        W14883  15.798   5.730   1.811
53595W        W14884  19.764  14.150  14.295
53596W        W14885  42.387  37.006  14.852
53597W        W14886   3.339  27.187   1.420
53598W        W14887  27.979  14.661   3.855
53599W        W14888   7.858  44.458   9.944
53600W        W14889   8.857  36.926   4.828
53601W        W14890  10.743  21.102  12.393
53602W        W14891  25.504  31.991  11.557
53603W        W14892   0.878   7.708  14.355
53604W        W14893  17.066  21.646  14.318
53605W        W14894   2.798  27.087  10.526
53606W        W14895  23.071  15.593  10.580
53607W        W14896   3.799  19.726   3.677
53608W        W14897  42.861  12.643  13.946
53609W        W14898  28.635  42.410   2.726
53610W        W14899  30.045  10.228  11.407
53611W        W14900   0.464  26.637   9.953
53612W        W14901   6.878  43.011  13.308
53613W        W14902   9.307  28.147  14.403
53614W        W14903   7.176  10.322  14.854
53615W        W14904  39.978  43.360   0.965
53616W        W14905  26.085  18.666   1.249
53617W        W14906   5.914  34.419  10.589
53618W        W14907  39.916  17.708   1.874
53619W        W14908   2.874  14.286  11.106
53620W        W14909  34.087   6.270   4.814
53621W        W14910  21.255  36.013   1.254
53622W        W14911   1.949   9.383  10.569
53623W        W14912  39.937  11.183   4.758
53624W        W14913  36.978  29.490  14.413
53625W        W14914   1.908  25.513   4.336
53626W        W14915  22.682  27.470  14.993
53627W        W14916  15.615  13.142   3.166
53628W        W14917  19.233  15.688   1.277
53629W        W14918   0.448  44.941  13.476
53630W        W14919  10.664  29.020  14.876
53631W        W14920  41.402  34.502   0.480
53632W        W14921   0.357   3.403  11.561
53633W        W14922  42.442  33.969   3.770
53634W        W14923   2.770  25.675  14.356
53635W        W14924  28.479  14.240  14.774
53636W        W14925   1.914  23.645   4.142
53637W        W14926  17.788  23.597   2.258
53638W        W14927   9.359  35.491  14.760
53639W        W14928  12.670  27.187  12.881
53640W        W14929   0.902  13.142   3.689
53641W        W14930  28.081   6.766   4.188
53642W        W14931  14.333  44.842   3.743
53643W        W14932  13.155  44.404   0.252
53644W        W14933  40.959  23.489  10.470
53645W        W14934  22.045  37.487  11.972
53646W        W14935   6.731  36.460   0.453
53647W        W14936  30.426  41.325  12.015
53648W        W14937  27.949  17.801   0.326
53649W        W14938  36.954   1.978   3.800
53650W        W14939  37.382  16.693   5.115
53651W        W14940  20.070  25.693  10.897
53652W        W14941  32.929   4.438   5.121
53653W        W14942  44.955  44.873   4.190
53654W        W14943  22.185  42.285  14.013
53655W        W14944  42.030  22.250  13.382
53656W        W14945  26.061  16.679  12.013
53657W        W14946  23.232   0.295  12.839
53658W        W14947  13.705  22.201   3.718
53659W        W14948  33.004  10.259  10.968
53660W        W14949   2.741  10.356  13.019
53661W        W14950  17.689   2.296   4.326
53662W        W14951  29.152  16.657  12.346
53663W        W14952  25.529  21.093   9.932
53664W        W14953   0.949   3.785   3.861
53665W        W14954  30.442  27.475  12.869
53666W        W14955  19.538   8.810   1.699
53667W        W14956  24.510   9.157   9.926
53668W        W14957  15.170  33.479   3.203
53669W        W14958  29.536  38.453   2.753
53670W        W14959  42.472   0.938   3.179
53671W        W14960  34.084  18.283   2.193
53672W        W14961  42.488  42.396  14.348
53673W        W14962   0.338  43.897  12.415
53674W        W14963  39.410  44.311  13.943
53675W        W14964  28.123   3.416   4.144
53676W        W14965  34.386  10.863   0.800
53677W        W14966  14.246   8.787  10.031
53678W        W14967   0.258  24.986   0.330
53679W        W14968  38.348  31.643  13.794
53680W        W14969  18.290  37.378   4.159
53681W        W14970  11.798   7.179   3.658
53682W        W14971  26.098  17.222  12.433
53683W        W14972   9.343  38.378   0.894
53684W        W14973  11.686  38.989   3.812
53685W        W14974   4.909   6.326   4.347
53686W        W14975  43.271  20.221   1.802
53687W        W14976  40.516   9.283  10.143
53688W        W14977  41.942   2.377  13.808
53689W        W14978  36.488   6.836   0.467
53690W        W14979   0.388   8.821  11.863
53691W        W14980  17.139   8.847  11.053
53692W        W14981  30.505  34.103   2.347
53693W        W14982  25.044  30.414   2.239
53694W        W14983  35.866  42.471   2.775
53695W        W14984  35.989  20.566  13.944
53696W        W14985  32.557  41.964   4.192
53697W        W14986  39.872  26.481   2.180
53698W        W14987  26.561   5.743  12.476
53699W        W14988  29.083  35.858  13.982
53700W        W14989  43.769  34.087  13.323
53701W        W14990  44.867  32.413   0.395
53702W        W14991   1.416  41.472  12.025
53703W        W14992  21.733  18.693   2.679
53704W        W14993  41.836   8.194   1.919
53705W        W14994  20.162  39.383  10.447
53706W        W14995  17.255   5.341   9.985
53707W        W14996  39.857  22.205   1.403
53708W        W14997  26.207  16.610  13.012
53709W        W14998  10.178  33.418   4.617
53710W        W14999   9.338  15.195  14.761
53711W        W15000  44.450  34.046   0.346
53712W        W15001  22.093  27.452   2.738
53713W        W15002  26.029  20.560   0.890
53714W        W15003  34.503  15.723  12.482
53715W        W15004  21.137  28.650  13.845
53716W        W15005  10.722  22.094  11.419
53717W        W15006  34.550  32.959  12.877
53718W        W15007  21.104  43.887  11.447
53719W        W15008  12.224  10.287  11.414
53720W        W15009   4.237  32.134  11.563
53721W        W15010  27.171  20.550   2.193
53722W        W15011  25.696  38.054  13.807
53723W        W15012   2.765   3.428   5.292
53724W        W15013   0.955  43.274  12.449
53725W        W15014   9.764  18.161   3.721
53726W        W15015  15.776  27.959  13.064
53727W        W15016  37.060  16.159  11.449
53728W        W15017  38.823  21.742  14.918
53729W        W15018  24.594  31.519  11.084
53730W        W15019  18.285  42.975   1.285
53731W        W15020   0.835   4.363   1.419
53732W        W15021  20.650  26.547   3.815
53733W        W15022  19.228  31.002   1.265
53734W        W15023  21.116   3.724   3.280
53735W        W15024   7.737  24.990   9.943
53736W        W15025  27.517  32.949   2.230
53737W        W15026  11.160   2.303   0.749
53738W        W15027  38.374  39.933   0.877
53739W        W15028   4.841  39.349   0.770
53740W        W15029   1.321   9.299   1.826
53741W        W15030  14.272  27.586   2.858
53742W        W15031  31.054  22.021  11.089
53743W        W15032  19.221  32.123  13.899
53744W        W15033  23.126   3.869  13.986
53745W        W15034  44.794   9.881   1.327
53746W        W15035  20.545  27.532  11.540
53747W        W15036  41.363  13.656   2.792
53748W        W15037  44.308  38.921   4.632
53749W        W15038  33.555  13.218   0.286
53750W        W15039   1.378  33.558  14.467
53751W        W15040  44.367  12.267  14.929
53752W        W15041  38.552  41.460  11.104
53753W        W15042  24.672  33.070  12.930
53754W        W15043  16.221   3.248   5.311
53755W        W15044  18.099  10.256  11.502
53756W        W15045   1.280  26.546  10.415
53757W        W15046   7.868  23.136   1.903
53758W        W15047   5.836   5.255   1.364
53759W        W15048  17.709   8.655  14.854
53760W        W15049  13.349   1.461  12.861
53761W        W15050  29.111  24.661   1.814
53762W        W15051   7.406  19.765   3.678
53763W        W15052  40.036   7.759  13.972
53764W        W15053  37.016   8.166   3.729
53765W        W15054  20.067  26.522  14.284
53766W        W15055  30.097  24.109   3.722
53767W        W15056  13.232  41.515  10.108
53768W        W15057   7.696  13.618  12.849
53769W        W15058   2.924  42.779  14.025
53770W        W15059  43.461  39.056   3.696
53771W        W15060  40.803  13.769   4.232
53772W        W15061  10.261  38.998  13.027
53773W        W15062   6.781  37.923   1.708
53774W        W15063  37.028   6.313   3.784
53775W        W15064  24.977  22.699   4.120
53776W        W15065  38.494  32.425   2.412
53777W        W15066  38.519  18.674   3.363
53778W        W15067  12.727  33.921   9.467
53779W        W15068   0.824  20.195  10.915
53780W        W15069   4.704  28.167   4.708
53781W        W15070  22.508  29.648   2.871
53782W        W15071  31.112  26.036   1.794
53783W        W15072  32.958  18.246   4.768
53784W        W15073  35.043  37.361   0.794
53785W        W15074  24.163  37.573   4.677
53786W        W15075  43.974  13.697  11.904
53787W        W15076  26.676  11.320  11.917
53788W        W15077  31.514  37.531  10.418
53789W        W15078  39.905  27.452  11.018
53790W        W15079  36.356  14.117  12.532
53791W        W15080   1.452  28.525   2.835
53792W        W15081  36.537   3.446  10.081
53793W        W15082  27.690   4.251   1.341
53794W        W15083  44.828  28.077   2.413
53795W        W15084  37.432   1.448  13.909
53796W        W15085   2.452   1.478  14.860
53797W        W15086  24.204   6.796   2.696
53798W        W15087  34.527  33.068  11.873
53799W        W15088  18.740  11.192   2.226
53800W        W15089  16.155  20.211  12.845
53801W        W15090  31.620  32.458   0.750
53802W        W15091   8.895   0.772   4.693
53803W        W15092   7.896   2.363  11.593
53804W        W15093  10.696   2.949  11.411
53805W        W15094   5.900  33.060   4.185
53806W        W15095  13.675  14.206  12.404
53807W        W15096  23.495   4.768  12.398
53808W        W15097   4.228  20.733   4.730
53809W        W15098  15.759  34.594  12.390
53810W        W15099  30.149  23.022  14.852
53811W        W15100  33.890  39.833  10.431
53812W        W15101  15.207  11.856  13.324
53813W        W15102  27.055  28.058   4.679
53814W        W15103  22.630  16.568  12.874
53815W        W15104  28.602  33.978   3.743
53816W        W15105   5.884   3.753  13.371
53817W        W15106  14.100  25.133  14.402
53818W        W15107   9.735  42.421  11.076
53819W        W15108  25.033   0.856   0.376
53820W        W15109  13.768  34.116   4.318
53821W        W15110  13.235  39.543  13.495
53822W        W15111   0.398  28.011   4.626
53823W        W15112  31.510  44.383   1.369
53824W        W15113   8.824  28.954  14.284
53825W        W15114  30.412   6.375   2.805
53826W        W15115  11.234  38.350   0.788
53827W        W15116  37.830   5.338  12.491
53828W        W15117  32.587  24.715   1.364
53829W        W15118  38.992   1.899   4.203
53830W        W15119  35.426   2.900   4.820
53831W        W15120  43.979  13.324  12.919
53832W        W15121  24.607  13.702   2.239
53833W        W15122   4.287  43.873   3.303
53834W        W15123  29.109   0.481  10.420
53835W        W15124  10.875  23.681  11.612
53836W        W15125   5.873   2.768   2.832
53837W        W15126  38.539  11.788   3.165
53838W        W15127   3.256   5.418  13.930
53839W        W15128  41.340   5.762  12.936
53840W        W15129   8.251  33.970   0.322
53841W        W15130  32.443   5.269   1.311
53842W        W15131  36.968   6.783   2.304
53843W        W15132  19.580  26.501   1.423
53844W        W15133  16.628   3.325  12.539
53845W        W15134  21.612  15.109   3.187
53846W        W15135  32.602  10.176  14.915
53847W        W15136   7.809  25.962   4.278
53848W        W15137   2.915  28.993   2.182
53849W        W15138  34.923  38.969   0.924
53850W        W15139  25.967  21.020  14.369
53851W        W15140  30.953  16.100  10.612
53852W        W15141  25.027   6.329   2.201
53853W        W15142   6.903  41.297  13.348
53854W        W15143  12.642  35.078   1.815
53855W        W15144  20.064  37.396  12.070
53856W        W15145  37.536  23.602   2.786
53857W        W15146  39.441  13.222   3.772
53858W        W15147  12.752  34.374   2.349
53859W        W15148  30.150  16.664  11.596
53860W        W15149  27.178  11.676   3.828
53861W        W15150  21.691   3.822   4.805
53862W        W15151   5.778  21.043  14.476
53863W        W15152  39.421  12.831   4.602
53864W        W15153   2.882  28.491  13.850
53865W        W15154  43.958  11.187  12.005
53866W        W15155  22.163  33.125  13.009
53867W        W15156  11.793   5.266   1.372
53868W        W15157   1.299  25.711   1.425
53869W        W15158  17.259  30.101   3.865
53870W        W15159  44.282  26.186   2.899
53871W        W15160  43.850  10.796   3.220
53872W        W15161  27.192   7.784   3.703
53873W        W15162  35.924  26.107   1.355
53874W        W15163  14.204  39.830   2.319
53875W        W15164  27.971   7.743  14.404
53876W        W15165  11.864   2.463   3.683
53877W        W15166  25.060  44.471   4.321
53878W        W15167  41.993   8.759  11.433
53879W        W15168   5.206   3.728  13.904
53880W        W15169   4.784  28.458  13.436
53881W        W15170  33.979  33.415   3.222
53882W        W15171  24.112  11.156  13.328
53883W        W15172   4.905  42.288  12.004
53884W        W15173  42.852  25.126  11.563
53885W        W15174   9.238  37.532  11.604
53886W        W15175  31.916   1.333  10.917
53887W        W15176  19.655   3.413   3.764
53888W        W15177  36.542  33.994   4.203
53889W        W15178  13.813  11.843   0.852
53890W        W15179  16.684  28.085  11.488
53891W        W15180  13.747   0.754   1.840
53892W        W15181  31.142  32.087   0.349
53893W        W15182   2.809  14.109  12.512
53894W        W15183  22.091  26.515  10.943
53895W        W15184  24.031  38.398  11.913
53896W        W15185  43.851   5.704   2.418
53897W        W15186  22.680   3.366  14.316
53898W        W15187  43.841   0.298  12.906
53899W        W15188  39.559  26.473   0.408
53900W        W15189  37.910   8.818   1.760
53901W        W15190  12.796  35.034  11.017
53902W        W15191  36.027  43.968   3.680
53903W        W15192   8.314   7.171  13.791
53904W        W15193   9.297   6.779   1.399
53905W        W15194  22.070  26.080  12.512
53906W        W15195   8.673   2.910  12.436
53907W        W15196  34.961  42.413  14.314
53908W        W15197  35.105  14.749  10.967
53909W        W15198   0.951  14.824  10.108
53910W        W15199  38.481  11.823   4.804
53911W        W15200   4.446  20.670   3.841
53912W        W15201  22.217  43.493   2.665
53913W        W15202  40.823  31.531  12.905
53914W        W15203  33.072  44.365   3.696
53915W        W15204  22.240  15.155   2.771
53916W        W15205   1.417  18.600   1.726
53917W        W15206   3.349   6.808  11.498
53918W        W15207   6.245  27.690  10.578
53919W        W15208  19.080  15.226  12.527
53920W        W15209  43.505  10.180  13.928
53921W        W15210   1.969  23.605   3.238
53922W        W15211  23.667  41.961   4.192
53923W        W15212  37.024  15.604   0.828
53924W        W15213  34.996  20.108   1.388
53925W        W15214  44.932  17.178   2.790
53926W        W15215  32.435  19.722  13.402
53927W        W15216  15.303  44.939   1.756
53928W        W15217  44.267  22.672  14.453
53929W        W15218  20.074  42.324   4.304
53930W        W15219  26.170  28.444   1.294
53931W        W15220   8.253  31.552  11.407
53932W        W15221  35.098  26.691  11.430
53933W        W15222  16.088  38.075  11.534
53934W        W15223  43.995  13.125  13.335
53935W        W15224  21.187  21.611   2.873
53936W        W15225   7.798  40.986   0.342
53937W        W15226   4.788   1.815  14.873
53938W        W15227  12.735  35.504  10.414
53939W        W15228  28.032   7.667  12.340
53940W        W15229   9.764   4.328   0.419
53941W        W15230  25.192  32.037  10.944
53942W        W15231  44.834  32.114   1.393
53943W        W15232  20.057  22.726   4.669
53944W        W15233   6.724  11.735   2.754
53945W        W15234   4.786  27.035  10.488
53946W        W15235  22.609  18.601   3.170
53947W        W15236  34.043   9.301   3.380
53948W        W15237  13.181  12.267  11.540
53949W        W15238  42.385  31.480  11.987
53950W        W15239  40.967  28.122  14.770
53951W        W15240  14.754  32.414  13.874
53952W        W15241  21.035   5.410   3.346
53953W        W15242  31.052   4.344   1.784
53954W        W15243  11.680  18.700   2.374
53955W        W15244  34.863  23.570   0.371
53956W        W15245   6.254  14.293   3.761
53957W        W15246  15.777  28.551   0.463
53958W        W15247  24.048  12.631   5.227
53959W        W15248  17.679  41.947   0.468
53960W        W15249  42.946  25.043   1.295
53961W        W15250  36.439  44.949  14.970
53962W        W15251  17.061  13.348  10.014
53963W        W15252  10.844  41.978   0.465
53964W        W15253  20.181   0.429  10.544
53965W        W15254  17.784  32.893  11.390
53966W        W15255  36.378  19.120  11.914
53967W        W15256  35.906  28.029  14.420
53968W        W15257  11.308  21.078  10.624
53969W        W15258  37.495  15.131   5.151
53970W        W15259   2.723  37.459   2.836
53971W        W15260  26.582  16.731   1.852
53972W        W15261  31.136  41.844   4.664
53973W        W15262  21.529  13.675   0.757
53974W        W15263   6.724  32.552   3.771
53975W        W15264  24.210  32.065  12.849
53976W        W15265  14.765  27.473  13.537
53977W        W15266  15.277   9.290   3.862
53978W        W15267  38.898  37.582  13.990
53979W        W15268  22.617  10.774   0.316
53980W        W15269  37.499  11.821  13.858
53981W        W15270  31.125  21.139  13.799
53982W        W15271  42.435   3.413  11.909
53983W        W15272  21.111  29.030  13.447
53984W        W15273  39.421  28.532  13.306
53985W        W15274  40.382   3.350  14.974
53986W        W15275  25.655  12.134   1.444
53987W        W15276  26.629  12.153  14.000
53988W        W15277  24.564  35.424   0.311
53989W        W15278   8.796  21.553  13.533
53990W        W15279   4.319   4.848  12.083
53991W        W15280  13.348   7.805   2.757
53992W        W15281  24.220  23.509   0.298
53993W        W15282   0.342   7.410  14.387
53994W        W15283  22.733  33.908   2.374
53995W        W15284  26.474  26.601  12.537
53996W        W15285  28.469   9.650   3.192
53997W        W15286  17.157  38.030  14.422
53998W        W15287  27.940  33.436  12.479
53999W        W15288  18.090  33.412  13.535
54000W        W15289  23.701   5.422  12.463
54001W        W15290   7.750  41.958   1.823
54002W        W15291  17.129   6.885  13.317
54003W        W15292  19.136  41.838  10.456
54004W        W15293   5.873  13.703   0.417
54005W        W15294   7.401  19.657  11.032
54006W        W15295  36.894   9.759   1.388
54007W        W15296  22.746  11.834   4.835
54008W        W15297  17.290  42.314   2.818
54009W        W15298   0.894   8.767  13.490
54010W        W15299   8.693  12.250  12.868
54011W        W15300  41.879  32.976   0.315
54012W        W15301  40.306   5.796   3.663
54013W        W15302  22.089  34.065  14.921
54014W        W15303  12.843   3.386  10.146
54015W        W15304   9.253   5.859  14.337
54016W        W15305   7.218  18.067  14.792
54017W        W15306  33.098  12.791  13.491
54018W        W15307  37.527  13.150  13.870
54019W        W15308  23.669  26.028  13.518
54020W        W15309  37.393  23.589  14.369
54021W        W15310  27.120   1.763   1.802
54022W        W15311  22.733  35.480   2.700
54023W        W15312   7.770  19.101  13.954
54024W        W15313  22.152  41.005  11.005
54025W        W15314   4.851  37.336   3.215
54026W        W15315  44.780  24.156   0.421
54027W        W15316   2.763   6.717  12.386
54028W        W15317  16.156  30.603   4.608
54029W        W15318   3.901   5.367  14.901
54030W        W15319  13.136  20.646  10.429
54031W        W15320  27.994  18.117  13.347
54032W        W15321  38.049  28.994   3.649
54033W        W15322  31.517  31.540  10.640
54034W        W15323  12.346  16.287  13.933
54035W        W15324  16.094   0.921  12.920
54036W        W15325  31.445  21.140  11.564
54037W        W15326   2.799  32.414  12.395
54038W        W15327   5.880  39.925  11.055
54039W        W15328  16.749  20.143  12.992
54040W        W15329   1.838  36.989   3.150
54041W        W15330  28.657  34.402  12.475
54042W        W15331  35.859  32.894  12.535
54043W        W15332   6.896  35.940   3.848
54044W        W15333  26.151  18.766  14.423
54045W        W15334  19.139  34.430  14.939
54046W        W15335  40.369  14.794  14.842
54047W        W15336   9.781   9.358   0.808
54048W        W15337  29.924  11.147   1.933
54049W        W15338  28.151  35.089   4.159
54050W        W15339  13.677   9.328   3.322
54051W        W15340  41.464  22.187  14.903
54052W        W15341  16.807  16.109  13.809
54053W        W15342  10.759  16.578  10.947
54054W        W15343  25.020  39.872   1.865
54055W        W15344  15.811   9.680  12.962
54056W        W15345  11.636   2.333   0.465
54057W        W15346  18.098  34.601  10.542
54058W        W15347  30.439  14.739   4.628
54059W        W15348  28.022   2.929  11.927
54060W        W15349   4.356  36.015   2.356
54061W        W15350  32.558  16.207  14.890
54062W        W15351   9.258  41.807   1.401
54063W        W15352  23.561   5.899  12.436
54064W        W15353  26.186  24.204  12.019
54065W        W15354  34.455  23.161  12.850
54066W        W15355   9.153  19.127   1.413
54067W        W15356  36.349   6.900   1.794
54068W        W15357  28.936   0.787  11.099
54069W        W15358  36.524  11.338   3.678
54070W        W15359  44.447  16.719   1.875
54071W        W15360   9.695   9.167   3.777
54072W        W15361  23.227  44.315   1.782
54073W        W15362  15.250  40.903  13.378
54074W        W15363  33.586  13.792  10.565
54075W        W15364  36.519  36.990  11.486
54076W        W15365  17.165  42.015  12.391
54077W        W15366  30.626  27.163   0.302
54078W        W15367  41.919   7.850   1.391
54079W        W15368  20.091  26.116  11.896
54080W        W15369  27.558  28.127  14.303
54081W        W15370  13.342  40.503   0.427
54082W        W15371   4.316  34.957   2.206
54083W        W15372  37.078   4.757   1.879
54084W        W15373  35.495  25.083  12.069
54085W        W15374  19.230  34.936   4.807
54086W        W15375  44.316  35.386   3.675
54087W        W15376  27.940   4.843   2.792
54088W        W15377   9.249  13.218  12.357
54089W        W15378  12.153  34.056   1.748
54090W        W15379   7.413   7.178   4.648
54091W        W15380  18.568   2.936   2.822
54092W        W15381  22.651  30.598  13.448
54093W        W15382  29.921  16.157  10.643
54094W        W15383   3.215  36.512   5.190
54095W        W15384  16.245  17.659  10.448
54096W        W15385  37.484  14.292  11.907
54097W        W15386   1.875  12.816  12.580
54098W        W15387  35.544   3.313  11.486
54099W        W15388  38.027  44.409   9.960
54100W        W15389  36.875   3.955   4.720
54101W        W15390  30.915   9.220   2.681
54102W        W15391  16.806   0.869   2.791
54103W        W15392  43.418  31.108   1.718
54104W        W15393   3.827  27.193   3.856
54105W        W15394   8.341   5.323   1.338
54106W        W15395   9.161  23.613  13.040
54107W        W15396  42.301  30.164   3.280
54108W        W15397  17.598  19.086   4.246
54109W        W15398  22.135   4.300   2.225
54110W        W15399   1.739   4.218   1.276
54111W        W15400  31.921   0.831   5.602
54112W        W15401  31.108   3.874   0.890
54113W        W15402  17.107  11.818   3.343
54114W        W15403   6.692  42.941   4.193
54115W        W15404   1.251   3.772  11.889
54116W        W15405  36.536  29.037   0.763
54117W        W15406  25.522  17.726  10.584
54118W        W15407  40.802  31.611  13.362
54119W        W15408  29.112  24.478  11.930
54120W        W15409   2.764   9.693   0.422
54121W        W15410  15.774  14.637  11.499
54122W        W15411  20.559  26.535  10.016
54123W        W15412  19.725   9.211   3.308
54124W        W15413  18.248  30.078   3.832
54125W        W15414  22.528   2.467   0.412
54126W        W15415  31.032  36.065   3.165
54127W        W15416  26.520  10.636   1.836
54128W        W15417  24.649   0.774  13.548
54129W        W15418  27.164  38.473  14.320
54130W        W15419  35.915  21.743  10.966
54131W        W15420  17.203  18.604   1.889
54132W        W15421  33.533  25.212   0.960
54133W        W15422  10.797  34.541   2.841
54134W        W15423  36.415  10.771  12.451
54135W        W15424   5.876  14.181   4.714
54136W        W15425  25.992  42.841   0.870
54137W        W15426  44.905  17.259   1.340
54138W        W15427  43.380  30.073   2.346
54139W        W15428  37.543  31.619  11.563
54140W        W15429   7.242   8.827   4.176
54141W        W15430  31.069   3.395  14.491
54142W        W15431  33.973   2.874  11.924
54143W        W15432  34.120  14.183  13.543
54144W        W15433  44.498   1.929  11.969
54145W        W15434  27.680  27.522   4.327
54146W        W15435  14.798  29.519  10.501
54147W        W15436  27.013   1.881   2.669
54148W        W15437   1.258  10.717  11.453
54149W        W15438  19.682  17.607  10.628
54150W        W15439  35.872  21.089  10.481
54151W        W15440  22.108  34.070  10.929
54152W        W15441  24.663  38.047   2.860
54153W        W15442  44.850   8.716  12.454
54154W        W15443  27.526  32.941   4.244
54155W        W15444   3.331  36.070  14.462
54156W        W15445  16.097  30.993   1.876
54157W        W15446   3.438  10.265   1.279
54158W        W15447  38.017  43.929   3.720
54159W        W15448  40.826  40.520   1.747
54160W        W15449  26.583  39.536  13.011
54161W        W15450  13.321  39.426  12.917
54162W        W15451   7.727  35.390   0.354
54163W        W15452  27.614  38.338  14.453
54164W        W15453  35.415  21.133  14.482
54165W        W15454   3.232  26.041  10.950
54166W        W15455  20.730   9.279   0.927
54167W        W15456  22.614  13.677  14.938
54168W        W15457  16.695   2.800   1.917
54169W        W15458  35.542  44.830   1.772
54170W        W15459  30.067  20.590   2.398
54171W        W15460  25.621   3.357   1.446
54172W        W15461  14.327   6.388  12.851
54173W        W15462  19.062   4.283   1.826
54174W        W15463  15.147  33.878  13.011
54175W        W15464  21.643  10.170   3.687
54176W        W15465   4.739  23.214   0.482
54177W        W15466   2.934  38.027   2.870
54178W        W15467   0.465  42.912   2.741
54179W        W15468   7.714   1.869  12.963
54180W        W15469  17.273  20.569  13.490
54181W        W15470  23.063  38.378   2.406
54182W        W15471  22.237   3.263   1.402
54183W        W15472  18.096   9.357   4.332
54184W        W15473  18.220  16.109   1.816
54185W        W15474  26.513  31.032  13.375
54186W        W15475  40.415  21.095   1.847
54187W        W15476  22.690  29.974  14.937
54188W        W15477   2.302  14.765   2.729
54189W        W15478  10.145  25.078   2.372
54190W        W15479  17.237   5.700   1.428
54191W        W15480   3.320   4.262   2.185
54192W        W15481  21.735  42.476  11.029
54193W        W15482  15.622  37.976  11.937
54194W        W15483  39.325  16.183   0.962
54195W        W15484   2.419  24.151   5.252
54196W        W15485  36.448  11.809   2.829
54197W        W15486  17.775  17.084  10.968
54198W        W15487  18.672   6.855   3.172
54199W        W15488  28.006  43.283   4.141
54200W        W15489  15.212  36.525   2.776
54201W        W15490  23.133  39.521  14.375
54202W        W15491  27.111  43.889  12.994
54203W        W15492  35.086  12.797   0.333
54204W        W15493  15.755  11.698  11.102
54205W        W15494  20.584  36.413   1.847
54206W        W15495  27.534  39.469   4.188
54207W        W15496  29.967  22.216   1.410
54208W        W15497  22.567  18.263  12.061
54209W        W15498  12.770  30.034  12.377
54210W        W15499   1.443   7.305   2.265
54211W        W15500  25.174  17.667  13.849
54212W        W15501  24.088   5.786  11.988
54213W        W15502  18.128  39.846   9.930
54214W        W15503   0.749  29.936  10.892
54215W        W15504   9.700  33.036   2.403
54216W        W15505  43.433  18.723   3.255
54217W        W15506  18.175  12.167   3.771
54218W        W15507   8.168  28.070  14.991
54219W        W15508   2.918   9.257  10.473
54220W        W15509  19.626   0.965  14.387
54221W        W15510   6.307  29.635   4.638
54222W        W15511  15.811  23.492   4.307
54223W        W15512  21.253  37.435  13.414
54224W        W15513  42.473  29.010   1.703
54225W        W15514  29.541   0.960  12.022
54226W        W15515   9.706  34.936   5.098
54227W        W15516  37.003  39.854   4.173
54228W        W15517   2.939  11.225  12.955
54229W        W15518  33.060  22.677   3.635
54230W        W15519  37.051  43.972  13.000
54231W        W15520   9.865  30.583   4.133
54232W        W15521   4.429   8.257  13.544
54233W        W15522  11.835  13.713   0.935
54234W        W15523  21.726   7.345  10.899
54235W        W15524  11.239  19.273   3.231
54236W        W15525  41.962  19.583   2.406
54237W        W15526   8.345  12.211   2.269
54238W        W15527   8.335  28.959  14.492
54239W        W15528  28.130  35.599   1.735
54240W        W15529  36.045  38.325   1.377
54241W        W15530  28.501   6.882  14.499
54242W        W15531  37.558  15.654   2.894
54243W        W15532  11.303   5.765  14.949
54244W        W15533  33.523  14.104   3.150
54245W        W15534  38.340  42.485   2.288
54246W        W15535  14.338   3.848   1.317
54247W        W15536  11.200  26.115  11.957
54248W        W15537  41.350  41.039  13.440
54249W        W15538  36.058  31.081   1.330
54250W        W15539  37.044   6.283  10.965
54251W        W15540   4.362  16.082   0.243
54252W        W15541   2.295  24.642  11.918
54253W        W15542  29.461   5.798  14.439
54254W        W15543  32.623  30.519   0.250
54255W        W15544  43.355  37.992  11.478
54256W        W15545  38.915  16.279   4.606
54257W        W15546  33.406  38.076  10.470
54258W        W15547  37.570  44.362  14.504
54259W        W15548   9.703  18.634   1.807
54260W        W15549  20.717  17.288  12.026
54261W        W15550   6.185  43.861  10.531
54262W        W15551   0.346   1.826   0.409
54263W        W15552  32.602   8.750  14.890
54264W        W15553  39.438  44.960   3.834
54265W        W15554  35.025  32.392  14.358
54266W        W15555   7.754  32.963   1.902
54267W        W15556  20.600   8.684  11.996
54268W        W15557   0.905  13.128   2.798
54269W        W15558  44.997  40.857   2.272
54270W        W15559  15.090  22.513  11.433
54271W        W15560  40.019  38.979  12.838
54272W        W15561   9.248  38.071  11.944
54273W        W15562  17.690  21.224   2.343
54274W        W15563  37.845  21.089  10.641
54275W        W15564  26.013   3.442   2.666
54276W        W15565  42.328  33.477   3.369
54277W        W15566  27.515  11.711  10.905
54278W        W15567   2.320   1.869   3.313
54279W        W15568  38.401  42.833  12.858
54280W        W15569  25.665  42.860  12.942
54281W        W15570  43.782  27.009   0.844
54282W        W15571  44.314  24.229  14.290
54283W        W15572   1.470  38.043   0.445
54284W        W15573   7.823  21.529  13.542
54285W        W15574  15.132  27.163  13.846
54286W        W15575  38.993  25.020  11.076
54287W        W15576  31.997  38.565  12.839
54288W        W15577  14.093  38.960   5.289
54289W        W15578  39.387  43.362   0.822
54290W        W15579  28.504  41.378   0.354
54291W        W15580  16.653  38.904   1.830
54292W        W15581  41.002  28.447   1.825
54293W        W15582  39.957  12.756   1.269
54294W        W15583  27.540  35.096   3.707
54295W        W15584  17.181   9.886   2.326
54296W        W15585   0.918  40.350  12.343
54297W        W15586   0.920  17.563  11.099
54298W        W15587   8.785  27.459   2.868
54299W        W15588  16.668   1.375   0.326
54300W        W15589  28.934  36.417  13.032
54301W        W15590  31.407   6.744  10.462
54302W        W15591  40.433  27.654   1.904
54303W        W15592  18.117   1.403   4.671
54304W        W15593  44.878  22.143   2.391
54305W        W15594  40.539  44.796   2.372
54306W        W15595   1.975   2.726   4.249
54307W        W15596  44.769  43.014   1.210
54308W        W15597  35.980  37.544   1.248
54309W        W15598  21.222  20.084  14.821
54310W        W15599  14.612  36.892  13.063
54311W        W15600  24.990  15.599  12.863
54312W        W15601  19.583  12.651   2.249
54313W        W15602  13.742  16.272   0.766
54314W        W15603  24.677  26.077  12.556
54315W        W15604  26.074  42.904   4.809
54316W        W15605  21.148  18.764   0.360
54317W        W15606  21.017  42.964   4.621
54318W        W15607  23.021  28.182  11.594
54319W        W15608  19.091   7.686  14.489
54320W        W15609  32.118  18.083   0.396
54321W        W15610  28.642   5.223  14.981
54322W        W15611  23.538  14.674  13.840
54323W        W15612  13.218  30.939   2.743
54324W        W15613  26.495  19.575  11.061
54325W        W15614  18.649  32.495   0.383
54326W        W15615   6.307  18.713   3.274
54327W        W15616  13.201  37.483   1.221
54328W        W15617   6.321   7.801   0.317
54329W        W15618  14.632   9.243   4.298
54330W        W15619  31.567  37.567   1.906
54331W        W15620   9.243  31.590   5.210
54332W        W15621  13.128  26.661   0.452
54333W        W15622  40.885  22.502  11.597
54334W        W15623   0.794  27.170  14.409
54335W        W15624   6.786  15.255   4.771
54336W        W15625   9.717  24.569  13.975
54337W        W15626  21.711  13.681  14.763
54338W        W15627  15.248  44.808  10.921
54339W        W15628  33.934  22.149   1.273
54340W        W15629  14.784   1.372   0.814
54341W        W15630  27.992  26.968   3.838
54342W        W15631  27.593  21.636   2.760
54343W        W15632   2.749  19.746  10.525
54344W        W15633  28.145  29.439   9.949
54345W        W15634   4.445  12.268   4.802
54346W        W15635  23.183  19.100   0.478
54347W        W15636  39.823  40.383   3.292
54348W        W15637  37.897  23.042   2.289
54349W        W15638  10.825  27.597   4.616
54350W        W15639  14.819  30.111  13.873
54351W        W15640  37.080  44.410   2.705
54352W        W15641  14.804  34.957  11.390
54353W        W15642  43.489  22.508   1.321
54354W        W15643  27.066  11.825   3.301
54355W        W15644  28.029  37.435  14.811
54356W        W15645   4.370  22.622  10.078
54357W        W15646   4.314  31.534  13.363
54358W        W15647   6.735  41.456   4.124
54359W        W15648  38.476  10.752  13.987
54360W        W15649  17.073  34.578   4.184
54361W        W15650  37.849  30.551   2.325
54362W        W15651  27.120  21.744  11.471
54363W        W15652  43.439  10.361   1.742
54364W        W15653   8.841  35.009  11.581
54365W        W15654   3.272  33.465   4.136
54366W        W15655  27.080  18.125  11.422
54367W        W15656   9.820  31.126  14.989
54368W        W15657  25.499  20.640   3.848
54369W        W15658  35.977  32.085   0.743
54370W        W15659  22.162   2.802  11.604
54371W        W15660  34.008  38.460   3.299
54372W        W15661  17.708   1.886  14.029
54373W        W15662  29.451  14.110   2.263
54374W        W15663  33.457  16.653  11.448
54375W        W15664  27.540   4.711   2.290
54376W        W15665  26.580  12.300  11.894
54377W        W15666  14.603  13.268   0.401
54378W        W15667  22.691  16.773   1.321
54379W        W15668  25.690  33.401  14.843
54380W        W15669  30.143  13.334   0.244
54381W        W15670  12.736  18.634   3.803
54382W        W15671  20.226  29.582  13.387
54383W        W15672  27.104  10.378   0.340
54384W        W15673  27.978  16.664   2.221
54385W        W15674   5.392  40.521  13.797
54386W        W15675  22.653   4.355  13.967
54387W        W15676  16.311  16.625   2.280
54388W        W15677  37.010  13.110  12.036
54389W        W15678  34.416  34.012   2.292
54390W        W15679  14.699  18.606  13.543
54391W        W15680  33.423  28.023  10.445
54392W        W15681  15.773   0.480  13.402
54393W        W15682  27.546  24.122  11.061
54394W        W15683   6.892  31.039   4.122
54395W        W15684  33.034  25.179  14.487
54396W        W15685  27.485  40.345  13.901
54397W        W15686   0.286  24.062   0.421
54398W        W15687  10.692  11.196   4.822
54399W        W15688  14.742  40.336  11.076
54400W        W15689  26.989  32.933  12.955
54401W        W15690   6.902  26.514  11.951
54402W        W15691   1.327  25.156  13.874
54403W        W15692  36.950  28.124   4.599
54404W        W15693  39.937  24.182  12.394
54405W        W15694  43.411  20.646  11.486
54406W        W15695  38.944  15.119  10.996
54407W        W15696  41.366  35.591  10.975
54408W        W15697  43.442  11.660  13.061
54409W        W15698  29.935   1.919  10.623
54410W        W15699  43.419  18.210  13.431
54411W        W15700   6.284  24.665  13.325
54412W        W15701   0.987   3.733   2.761
54413W        W15702  32.126  40.420   1.390
54414W        W15703  37.417   6.815   0.787
54415W        W15704  28.549   8.901  13.045
54416W        W15705  13.265  33.992   2.665
54417W        W15706  41.855  15.663   2.878
54418W        W15707  28.566   6.187  13.031
54419W        W15708  27.960  23.576  10.423
54420W        W15709  40.860  38.408   0.276
54421W        W15710  32.483  12.303   0.465
54422W        W15711  12.314  10.286   4.196
54423W        W15712   2.867  20.645  14.764
54424W        W15713  43.949   7.214   0.363
54425W        W15714  20.737  38.391   2.361
54426W        W15715  30.507   7.211  11.953
54427W        W15716  14.590  27.504  11.013
54428W        W15717  15.756  40.841   3.343
54429W        W15718  28.477  32.614  12.835
54430W        W15719  40.518  21.086  13.325
54431W        W15720   8.397  14.128  12.571
54432W        W15721  28.136  31.115   3.146
54433W        W15722   2.264  16.301   4.772
54434W        W15723  10.165  21.080  10.095
54435W        W15724  15.587  17.754  13.335
54436W        W15725  17.116  36.912   0.263
54437W        W15726  19.633  23.735   0.419
54438W        W15727  17.088  17.654  13.547
54439W        W15728   6.813   7.712  12.948
54440W        W15729   5.839  33.499   4.231
54441W        W15730  36.905   1.420   2.265
54442W        W15731  35.585  15.138  11.032
54443W        W15732  34.885  23.174  12.362
54444W        W15733   3.945  43.939  14.917
54445W        W15734   3.860  11.316   2.783
54446W        W15735  41.023  17.087  14.950
54447W        W15736  12.687  18.734  11.883
54448W        W15737  10.822  40.335   4.599
54449W        W15738  39.500  36.091  10.988
54450W        W15739  17.612  15.616  11.944
54451W        W15740  17.697  18.120   4.616
54452W        W15741   1.341  23.600   4.624
54453W        W15742  40.991  39.553  11.428
54454W        W15743  18.781  17.652   1.267
54455W        W15744  26.601  33.934   2.679
54456W        W15745  37.884  12.327  12.005
54457W        W15746  38.959  24.558  10.921
54458W        W15747   9.365  29.923   0.333
54459W        W15748   4.788  10.164  13.419
54460W        W15749  41.857  12.806   0.922
54461W        W15750  11.830  32.081   1.382
54462W        W15751  13.314  32.564   1.824
54463W        W15752  11.363   7.771   1.225
54464W        W15753  12.754  39.036  14.758
54465W        W15754  22.629  32.583   1.772
54466W        W15755   0.267  15.810  13.333
54467W        W15756  37.040  44.500   4.754
54468W        W15757   1.937   0.267   4.789
54469W        W15758  20.175  37.509  11.009
54470W        W15759   4.312  20.621  14.290
54471W        W15760   2.314  31.455   2.900
54472W        W15761  30.132  42.312   2.791
54473W        W15762   5.363  21.692  10.550
54474W        W15763  27.997  19.606   2.269
54475W        W15764  43.444  29.510  14.278
54476W        W15765   0.778  37.013   0.293
54477W        W15766  26.033  15.179   3.702
54478W        W15767  32.099  18.224  13.336
54479W        W15768  40.329   5.405   0.890
54480W        W15769  42.476   5.928   0.784
54481W        W15770  15.817  25.000   4.663
54482W        W15771  13.306   2.847   1.317
54483W        W15772  32.408  11.222   2.203
54484W        W15773  26.177  34.432   2.220
54485W        W15774  29.060  22.064  11.536
54486W        W15775  10.260  37.042   4.675
54487W        W15776   7.752  22.061  14.909
54488W        W15777  30.567   0.972  13.927
54489W        W15778  15.733  42.825  11.587
54490W        W15779  22.085  33.402  11.498
54491W        W15780  41.848  35.467   1.335
54492W        W15781   6.324  42.995   3.225
54493W        W15782  14.681  25.660  13.828
54494W        W15783  33.440   0.273  11.891
54495W        W15784  38.068  31.474  11.411
54496W        W15785   9.693  20.252  12.872
54497W        W15786  32.451  36.411  13.940
54498W        W15787  43.420  33.904  12.418
54499W        W15788  27.132  16.693  10.553
54500W        W15789   5.421   4.902   3.795
54501W        W15790  44.317  32.116   5.128
54502W        W15791  32.894  15.728   1.356
54503W        W15792  24.707  42.499  11.975
54504W        W15793  30.528  12.200   3.174
54505W        W15794  17.721  25.600   1.781
54506W        W15795  28.671  25.205  13.534
54507W        W15796   7.276  16.644  11.893
54508W        W15797  44.926  43.925  10.577
54509W        W15798  17.255  22.143   3.154
54510W        W15799  15.168  32.582   0.930
54511W        W15800  33.976   3.395  12.434
54512W        W15801  25.163  18.133  12.352
54513W        W15802  24.599  29.631  10.518
54514W        W15803  41.986  34.564   3.276
54515W        W15804   2.868  33.557  11.941
54516W        W15805  26.160  15.734  12.462
54517W        W15806   4.737  11.246  11.541
54518W        W15807  39.503  10.706   2.329
54519W        W15808  38.364  41.344   0.459
54520W        W15809  36.558   3.877   1.923
54521W        W15810  20.531  40.430  12.928
54522W        W15811  19.537  10.371  10.428
54523W        W15812  33.000  27.039  12.482
54524W        W15813   3.278  43.488  13.036
54525W        W15814   4.205  21.195   0.306
54526W        W15815  28.481  35.548  10.941
54527W        W15816  39.428  31.130  13.412
54528W        W15817  36.524  16.595   2.706
54529W        W15818  17.616  25.474   2.879
54530W        W15819   9.810  14.143   3.788
54531W        W15820  34.894  20.554   3.795
54532W        W15821   2.299  31.947  11.862
54533W        W15822   8.803  21.646   0.373
54534W        W15823  19.616  37.356  10.477
54535W        W15824  33.945  44.914   1.440
54536W        W15825  34.521  32.464  14.499
54537W        W15826   7.876  31.041  13.831
54538W        W15827  29.050  32.431  14.463
54539W        W15828  15.186  19.569  14.897
54540W        W15829   2.825   3.338  11.601
54541W        W15830  43.304  31.413  12.397
54542W        W15831  24.067  22.573   1.822
54543W        W15832  44.460   7.332   4.334
54544W        W15833  41.949  25.522  11.524
54545W        W15834  32.962  26.470   4.656
54546W        W15835  13.177   7.324  11.969
54547W        W15836  42.523  44.004  13.889
54548W        W15837  37.976  20.185   1.425
54549W        W15838   9.240  23.033  13.054
54550W        W15839  16.283  12.247   1.302
54551W        W15840  37.026  12.759  12.082
54552W        W15841  23.594  16.803  13.436
54553W        W15842   4.757  37.961   4.142
54554W        W15843  38.488  27.192   0.871
54555W        W15844  39.479  12.310  12.525
54556W        W15845   9.209  27.492  12.485
54557W        W15846  32.506   2.348  13.487
54558W        W15847  19.265  13.153   3.653
54559W        W15848  36.455  43.297  14.435
54560W        W15849  44.890  31.080   1.797
54561W        W15850  20.227  35.527  14.314
54562W        W15851  11.334  32.139  10.958
54563W        W15852  28.084  39.367   1.802
54564W        W15853  38.446   1.382  12.524
54565W        W15854  18.758  18.698   2.208
54566W        W15855   2.314  40.348   0.773
54567W        W15856  27.988  11.371  10.614
54568W        W15857  26.565  20.725  12.924
54569W        W15858  24.709  26.595  11.049
54570W        W15859  10.332  21.224  13.822
54571W        W15860  14.179  27.140   1.213
54572W        W15861  14.631  14.775  11.079
54573W        W15862  20.180   8.862   5.238
54574W        W15863  12.234  28.651  10.578
54575W        W15864   4.832  43.358  12.403
54576W        W15865   9.696  24.207   1.403
54577W        W15866  10.382   4.702  10.909
54578W        W15867  15.262  27.044   1.833
54579W        W15868  27.052   5.363   4.803
54580W        W15869   1.968  33.130  14.275
54581W        W15870   8.822  20.653   2.740
54582W        W15871  25.470  29.507   2.682
54583W        W15872  32.979  14.660   4.779
54584W        W15873  41.810  44.392  13.548
54585W        W15874  14.589  20.082   3.840
54586W        W15875  15.588  33.048  14.797
54587W        W15876   1.300  16.190   2.293
54588W        W15877  10.755  10.721  11.020
54589W        W15878  33.915   3.846   1.320
54590W        W15879  34.478  22.687  12.342
54591W        W15880  13.269   7.814   4.318
54592W        W15881   0.461  17.648   3.351
54593W        W15882  13.203  12.277  12.968
54594W        W15883  11.761  41.304  12.506
54595W        W15884  33.100  26.020   4.633
54596W        W15885  13.626   7.244   0.341
54597W        W15886  14.659  17.215   1.919
54598W        W15887  27.008  40.917  14.293
54599W        W15888  42.026  18.761   0.833
54600W        W15889  25.483   3.824   0.354
54601W        W15890   6.817  27.085  11.970
54602W        W15891  36.863  36.577   4.178
54603W        W15892   3.921   6.878   4.220
54604W        W15893  40.855   6.715  11.864
54605W        W15894  28.678  39.918  13.907
54606W        W15895  40.045  11.269   0.876
54607W        W15896   2.265  14.747  13.800
54608W        W15897  23.637  21.179   3.652
54609W        W15898   1.321  15.245   0.834
54610W        W15899   7.208  20.687   3.308
54611W        W15900  25.613   3.259   9.945
54612W        W15901  40.515  44.391  14.809
54613W        W15902  32.088  30.969   3.797
54614W        W15903  12.690  10.349  14.870
54615W        W15904  33.541  27.084   5.318
54616W        W15905  16.150  43.984  14.339
54617W        W15906  21.638  31.081   4.716
54618W        W15907  23.581  18.134  10.933
54619W        W15908  13.298  33.518  10.620
54620W        W15909  42.361  35.496  13.404
54621W        W15910  23.206  37.557  11.127
54622W        W15911  19.052  40.957   2.232
54623W        W15912  32.446   9.663  12.512
54624W        W15913  18.784  12.793  12.934
54625W        W15914  16.264  32.009  10.510
54626W        W15915  35.003  17.080  10.061
54627W        W15916  28.569  26.147   0.470
54628W        W15917  42.869  31.139   2.267
54629W        W15918  26.172   8.286  11.894
54630W        W15919   7.246  21.733   3.727
54631W        W15920  14.117  20.113  11.531
54632W        W15921  40.336  43.365   2.760
54633W        W15922   6.361   7.852  10.953
54634W        W15923  29.484  19.679  13.811
54635W        W15924  12.634  12.771   4.791
54636W        W15925  41.386  21.193  11.866
54637W        W15926   4.775  12.642  10.140
54638W        W15927  34.467   5.837   0.341
54639W        W15928  44.870  24.631  11.521
54640W        W15929   2.393  22.579  14.391
54641W        W15930  27.996  44.452  10.944
54642W        W15931  31.923   5.907   3.640
54643W        W15932  23.689   8.281  13.844
54644W        W15933  41.464   7.371  12.518
54645W        W15934  14.283  26.507  11.890
54646W        W15935  10.737  41.379  14.386
54647W        W15936  10.332  38.925  12.519
54648W        W15937   9.856  13.748  12.452
54649W        W15938  32.548  35.858  12.876
54650W        W15939  21.757   5.848   4.759
54651W        W15940  20.556   9.721   0.378
54652W        W15941  27.975  14.717  10.534
54653W        W15942  15.637   3.742  12.852
54654W        W15943  44.477  22.236  10.938
54655W        W15944  31.104   2.878   3.184
54656W        W15945   5.731  26.092   0.281
54657W        W15946  38.965  14.785  12.464
54658W        W15947  34.864  42.370  14.812
54659W        W15948   6.700  42.003  14.505
54660W        W15949  33.484  18.690   2.242
54661W        W15950  26.028  33.560  13.542
54662W        W15951  43.927  11.780  14.005
54663W        W15952  28.678  20.040  12.492
54664W        W15953   7.859  13.176  14.287
54665W        W15954  16.151  33.101  14.439
54666W        W15955  23.682  36.537   3.635
54667W        W15956  35.102  24.081  11.089
54668W        W15957  43.817   4.256  10.610
54669W        W15958  24.034  43.831  13.472
54670W        W15959  25.589   6.312  14.504
54671W        W15960  25.712  36.931  10.471
54672W        W15961   7.249   9.289  13.829
54673W        W15962  43.844   4.794   4.710
54674W        W15963  20.553  14.717   2.269
54675W        W15964  11.356   4.861  12.943
54676W        W15965  24.697  10.759  10.561
54677W        W15966   0.854   0.291   4.207
54678W        W15967  22.162  11.634  12.494
54679W        W15968  43.962  32.141   3.199
54680W        W15969  43.994  18.716   2.350
54681W        W15970  20.680  36.014  13.331
54682W        W15971  17.119  40.358  12.387
54683W        W15972  35.020  16.224   1.220
54684W        W15973  20.234  20.089  12.997
54685W        W15974  20.168  37.029  12.498
54686W        W15975   6.742  29.506   4.176
54687W        W15976  42.469  25.567  10.979
54688W        W15977  14.819  26.556  12.494
54689W        W15978  17.206  15.758  13.403
54690W        W15979  10.875  30.432  11.886
54691W        W15980  38.561   8.371   3.840
54692W        W15981  34.467  16.312   4.793
54693W        W15982  41.992  38.944  14.415
54694W        W15983  16.752  20.106   9.965
54695W        W15984  35.472  44.419   1.386
54696W        W15985  30.590  32.575   3.827
54697W        W15986  35.466  22.088   2.392
54698W        W15987  15.724  21.544  11.938
54699W        W15988  40.470  25.669   1.339
54700W        W15989  30.022  25.163  14.882
54701W        W15990  25.062  14.212   3.203
54702W        W15991  33.494  40.313   3.672
54703W        W15992  20.714  20.692   2.682
54704W        W15993  27.009  26.203  14.384
54705W        W15994  28.623   4.781  12.984
54706W        W15995  15.626   8.388   2.709
54707W        W15996  42.285  43.511  10.896
54708W        W15997   2.774   6.798   1.326
54709W        W15998   4.807  43.398   3.841
54710W        W15999  36.533  15.689   9.952
54711W        W16000   7.364  26.088   0.947
54712W        W16001  31.139  36.374  14.915
54713W        W16002  44.327  28.594   3.712
54714W        W16003  11.308   2.341   0.337
54715W        W16004  14.124  35.589   1.882
54716W        W16005   7.225  23.225  12.570
54717W        W16006  41.931  41.946  14.284
54718W        W16007   8.370  29.080  11.887
54719W        W16008  31.094   0.757  10.455
54720W        W16009  26.174   7.839   0.826
54721W        W16010  37.392  32.497   2.303
54722W        W16011   8.373  33.429   3.197
54723W        W16012  10.722  40.419   0.292
54724W        W16013   5.317  26.997   4.175
54725W        W16014   2.827  43.365   2.750
54726W        W16015   4.224  16.614   4.613
54727W        W16016  16.641  15.578   1.394
54728W        W16017  20.635   0.485   3.217
54729W        W16018  17.283   4.324  11.581
54730W        W16019  26.573  42.386   2.701
54731W        W16020   2.863  36.423  13.860
54732W        W16021  34.434  37.984  11.433
54733W        W16022   3.731  15.196   2.369
54734W        W16023  28.490  37.491  14.803
54735W        W16024  14.223  31.018   5.151
54736W        W16025  41.895  38.941  14.885
54737W        W16026  10.667  14.099   4.671
54738W        W16027  40.861  31.068  14.411
54739W        W16028  25.485  19.085   1.440
54740W        W16029   8.247  40.431  14.432
54741W        W16030  32.572  37.489   1.756
54742W        W16031   0.265  31.446   1.298
54743W        W16032  21.091  37.873   2.223
54744W        W16033  29.585  35.516   4.132
54745W        W16034  22.706   1.432  10.895
54746W        W16035  17.258  37.956  14.794
54747W        W16036  34.446   9.675   0.453
54748W        W16037   4.432  38.030   0.770
54749W        W16038  11.172   6.722   3.276
54750W        W16039  37.349  36.004  12.840
54751W        W16040   5.749  28.481   0.282
54752W        W16041  41.797   4.898   3.286
54753W        W16042   2.906   3.392   0.379
54754W        W16043  23.592   2.867  12.836
54755W        W16044  41.871  27.498   1.256
54756W        W16045  24.023  37.879  14.765
54757W        W16046   2.810  18.712  12.093
54758W        W16047  12.333  32.592  11.857
54759W        W16048  21.172  12.834  12.955
54760W        W16049  44.992  39.554   4.692
54761W        W16050  14.108   6.765   3.252
54762W        W16051  34.011  16.202  13.018
54763W        W16052  33.896   7.774  11.069
54764W        W16053   4.778   9.394  12.880
54765W        W16054   0.911  25.605   2.809
54766W        W16055  13.716  37.480  11.912
54767W        W16056  39.015  18.223   3.255
54768W        W16057  26.175   1.765   4.254
54769W        W16058  35.089   7.904  11.550
54770W        W16059  28.452  19.231  14.847
54771W        W16060  25.037  24.008  14.378
54772W        W16061   1.891  17.297  14.980
54773W        W16062  44.843  19.059  10.919
54774W        W16063   0.359   8.253   4.811
54775W        W16064  42.922  16.182   1.871
54776W        W16065   2.749  11.238   1.777
54777W        W16066  30.627  23.588   3.721
54778W        W16067   1.779   8.763   1.450
54779W        W16068  38.511   9.795   0.266
54780W        W16069   9.244  23.678   5.160
54781W        W16070  20.094  21.649  14.983
54782W        W16071  12.760  12.770   0.734
54783W        W16072  39.016  27.016  12.387
54784W        W16073  30.154   4.933  11.406
54785W        W16074  44.266  32.414  13.531
54786W        W16075  10.754   6.724   0.887
54787W        W16076   0.438  11.683   4.218
54788W        W16077  35.912   7.320   0.786
54789W        W16078   3.820   7.230  11.569
54790W        W16079  42.903  12.133  10.992
54791W        W16080  10.643  17.268   1.770
54792W        W16081  40.423  27.452   2.238
54793W        W16082  39.390   6.370  14.482
54794W        W16083  28.448  34.571   2.772
54795W        W16084  19.606  21.563  13.947
54796W        W16085  35.478  34.063  12.341
54797W        W16086  11.667   2.468   2.689
54798W        W16087   2.843  38.429   0.751
54799W        W16088  35.996  20.671   0.963
54800W        W16089  21.576  13.667   2.663
54801W        W16090  19.553  34.075  11.035
54802W        W16091  15.679  26.533  11.067
54803W        W16092  42.414  39.860   4.802
54804W        W16093  21.108  39.373  11.007
54805W        W16094  28.182  31.962   0.433
54806W        W16095   4.448  20.175  10.495
54807W        W16096  18.605   7.258  14.867
54808W        W16097   3.770  35.434   0.270
54809W        W16098   1.460   0.787   3.265
54810W        W16099  29.973  39.979   1.252
54811W        W16100  41.337  16.204  13.421
54812W        W16101  44.871  30.444  10.909
54813W        W16102  43.993  30.421   2.852
54814W        W16103   8.756  44.753   2.225
54815W        W16104  32.476   8.686  10.903
54816W        W16105  12.797  35.463   2.763
54817W        W16106  30.054  35.880  14.401
54818W        W16107  40.831  22.197   1.866
54819W        W16108  32.417  29.664   1.753
54820W        W16109  25.129  24.117   5.132
54821W        W16110  39.957  36.022   3.753
54822W        W16111  33.990  12.162   0.940
54823W        W16112  10.293  26.997   3.696
54824W        W16113   6.791  25.066  10.605
54825W        W16114  22.191  13.605   4.272
54826W        W16115  39.483  41.455   2.782
54827W        W16116  19.085  41.984   0.272
54828W        W16117  24.205  36.575  14.309
54829W        W16118   0.290   6.758   3.814
54830W        W16119  10.721  16.134   2.766
54831W        W16120  33.070  24.181  13.050
54832W        W16121  20.179   9.825  10.472
54833W        W16122  13.297   3.758  10.070
54834W        W16123  38.882  22.703   2.410
54835W        W16124  36.961  37.009   2.271
54836W        W16125  28.184  13.325   2.269
54837W        W16126  22.669  10.783  14.842
54838W        W16127  24.510  44.436   2.830
54839W        W16128  26.963  19.216  13.522
54840W        W16129  40.331  20.768   2.359
54841W        W16130  28.435  27.074  10.643
54842W        W16131  27.980  27.063   9.920
54843W        W16132  34.939   0.982   4.692
54844W        W16133  22.240  40.984  11.371
54845W        W16134   0.924   8.705   1.821
54846W        W16135  16.293  36.455  12.439
54847W        W16136  38.512   3.378   0.409
54848W        W16137  15.745   1.258  11.119
54849W        W16138   6.405  42.978  12.048
54850W        W16139  32.936   6.855  11.084
54851W        W16140  32.550  29.470   3.268
54852W        W16141  38.887  22.660  11.532
54853W        W16142   8.790   3.893  13.973
54854W        W16143  39.850  10.769   2.409
54855W        W16144   7.873   5.334   3.658
54856W        W16145   5.321  32.454   2.864
54857W        W16146  18.705  39.818   2.795
54858W        W16147   9.870   9.199  12.952
54859W        W16148  37.990  10.213   3.304
54860W        W16149   2.868  32.610  14.766
54861W        W16150  23.493   3.838   3.334
54862W        W16151  22.638  22.188   1.839
54863W        W16152  29.979  38.876  14.365
54864W        W16153  16.729  39.428   2.888
54865W        W16154  43.455  23.021   4.215
54866W        W16155   9.229  23.627  10.981
54867W        W16156  36.513  19.095   2.331
54868W        W16157  36.959  26.142  10.530
54869W        W16158   5.795   0.853  13.907
54870W        W16159   3.357  17.154   3.146
54871W        W16160  17.151   4.235   4.785
54872W        W16161  20.269  40.377  13.375
54873W        W16162  36.916  20.639   4.231
54874W        W16163  43.336  28.485   0.891
54875W        W16164  13.145  39.461   4.241
54876W        W16165  34.097  14.762   4.289
54877W        W16166  17.074  34.933   4.754
54878W        W16167  19.746  42.357  13.859
54879W        W16168   6.748   4.921   0.428
54880W        W16169  21.194   8.356  10.939
54881W        W16170  38.007   4.326   1.287
54882W        W16171  27.995  11.340  12.451
54883W        W16172  41.009  40.943   3.697
54884W        W16173  40.904  25.593  14.775
54885W        W16174   2.951   1.845  14.939
54886W        W16175  13.182  40.961   4.740
54887W        W16176  38.339  34.385   2.331
54888W        W16177  27.000  14.189  12.064
54889W        W16178  26.098  10.657  13.902
54890W        W16179  32.536  44.784   4.120
54891W        W16180  27.003  31.110   3.817
54892W        W16181  16.088  18.082   2.347
54893W        W16182  31.968  14.148  10.002
54894W        W16183  26.956  30.433  10.895
54895W        W16184  16.275   0.408  12.504
54896W        W16185  11.200  24.694  11.076
54897W        W16186   2.354   8.717  12.850
54898W        W16187   3.369  16.682  14.466
54899W        W16188  36.058   4.284  14.335
54900W        W16189  22.130  17.077  10.454
54901W        W16190   7.326  24.212  13.499
54902W        W16191   4.374  24.629  12.449
54903W        W16192   0.813  37.049  10.542
54904W        W16193  38.355  40.028  14.820
54905W        W16194   1.876  30.976  10.486
54906W        W16195  26.598  11.778  12.082
54907W        W16196  43.767   0.909   0.917
54908W        W16197  44.457  14.272   2.877
54909W        W16198  33.963  18.562   1.696
54910W        W16199  26.018  38.339  10.552
54911W        W16200   4.367  12.137  13.933
54912W        W16201  26.174  33.394  14.020
54913W        W16202  34.076  34.896   2.808
54914W        W16203  31.115  21.089  14.409
54915W        W16204   2.720  40.506  13.828
54916W        W16205  18.723  21.628  10.448
54917W        W16206   7.252   5.859   0.731
54918W        W16207  12.210   5.768  10.528
54919W        W16208  11.166  17.305   3.262
54920W        W16209  13.762  32.101   5.198
54921W        W16210  13.842  23.017  14.395
54922W        W16211  34.489  11.179  12.953
54923W        W16212   6.804  13.114   4.651
54924W        W16213  11.224  32.037   2.885
54925W        W16214  34.957  14.691  11.418
54926W        W16215   0.398   1.736  10.417
54927W        W16216   6.346  32.046   5.121
54928W        W16217  40.532  40.916   4.291
54929W        W16218  39.362  30.149  13.056
54930W        W16219   2.785  10.166   1.273
54931W        W16220  18.275  26.668  10.887
54932W        W16221  24.706  28.538   1.806
54933W        W16222   9.714   2.814  11.108
54934W        W16223  12.615  12.647   2.670
54935W        W16224  26.204  14.680  14.375
54936W        W16225  17.721  40.396  13.483
54937W        W16226  19.268  21.024   4.182
54938W        W16227  26.988  38.540   4.282
54939W        W16228  15.304  32.084   3.668
54940W        W16229  41.912  14.633   3.173
54941W        W16230  32.418  34.916  13.439
54942W        W16231   5.341  14.683   4.222
54943W        W16232  25.998  20.639   2.235
54944W        W16233  20.590  42.507  11.083
54945W        W16234  33.576  18.643  12.421
54946W        W16235   8.357  13.299  11.954
54947W        W16236  26.006  20.675   1.252
54948W        W16237  26.678   6.786  10.409
54949W        W16238  29.974   3.812  11.999
54950W        W16239  28.491  23.153   0.966
54951W        W16240  31.467  24.544   2.212
54952W        W16241   3.890  36.506   1.912
54953W        W16242  38.992  11.213  11.888
54954W        W16243  36.092  23.557  11.920
54955W        W16244  16.110  29.040  13.509
54956W        W16245   6.223  21.263   1.271
54957W        W16246  44.930  18.182   2.761
54958W        W16247  19.255  23.616   3.722
54959W        W16248  29.438  42.025  13.340
54960W        W16249  43.492  32.073   4.298
54961W        W16250  24.082  38.479   1.449
54962W        W16251  17.106  32.041   3.367
54963W        W16252  27.192   8.874   4.338
54964W        W16253   8.860  34.470   5.138
54965W        W16254  35.491  21.573   0.387
54966W        W16255  17.279   6.427   4.641
54967W        W16256  41.466  25.683   4.654
54968W        W16257  12.327  25.165   0.825
54969W        W16258   7.342  31.563  13.440
54970W        W16259  17.744  17.571  13.831
54971W        W16260   0.775  29.060  12.986
54972W        W16261  35.486   1.373   3.151
54973W        W16262  33.458  36.032   1.785
54974W        W16263  19.284  12.707  14.501
54975W        W16264  31.067  25.529   2.221
54976W        W16265  41.413  10.725   2.266
54977W        W16266  37.335   6.198   4.227
54978W        W16267  28.114   9.361  13.528
54979W        W16268  34.971  43.412   3.703
54980W        W16269  39.490  24.587   0.405
54981W        W16270  23.671   0.892  13.324
54982W        W16271  20.235  33.524  11.999
54983W        W16272   5.358  42.815  10.632
54984W        W16273   1.918  26.064   1.347
54985W        W16274  15.794  31.588   2.228
54986W        W16275  12.280  10.684  13.799
54987W        W16276   3.920   9.212  14.930
54988W        W16277  33.882   7.722   2.695
54989W        W16278  10.383  11.175   5.126
54990W        W16279  26.047  16.194   4.705
54991W        W16280  31.552  16.589   2.270
54992W        W16281  25.018  41.877  12.400
54993W        W16282  21.145   2.302  10.469
54994W        W16283  41.963   8.281   4.747
54995W        W16284  11.828   2.302   0.753
54996W        W16285  20.225  17.264  10.448
54997W        W16286  44.967  13.189   4.637
54998W        W16287  15.802  11.201  13.879
54999W        W16288   4.207  12.343  12.909
55000W        W16289  37.037  21.247  10.554
55001W        W16290  16.794  14.246  11.113
55002W        W16291  28.018   3.307   3.658
55003W        W16292  25.587   3.840   4.699
55004W        W16293   2.862   2.462   3.203
55005W        W16294   1.843   9.297  12.349
55006W        W16295  44.887  16.699  12.093
55007W        W16296  20.221  31.447  13.956
55008W        W16297   4.238   9.214  12.952
55009W        W16298  16.790  28.050  12.569
55010W        W16299  43.824  43.319  14.838
55011W        W16300  39.916  11.805   3.188
55012W        W16301  44.469  29.126   3.254
55013W        W16302   1.318   8.889   5.683
55014W        W16303  14.811  16.303  10.927
55015W        W16304  24.209  17.144  14.487
55016W        W16305  28.587  41.873  10.575
55017W        W16306  32.980  13.648   4.295
55018W        W16307  44.977  30.964  12.498
55019W        W16308   6.368  13.115   2.736
55020W        W16309  32.398  27.572  13.887
55021W        W16310  12.847   2.930  10.105
55022W        W16311  33.621  22.707  13.952
55023W        W16312  27.687  29.071  14.359
55024W        W16313  43.843  33.118   4.308
55025W        W16314  13.331   6.290  12.042
55026W        W16315  24.534  11.810   4.248
55027W        W16316  40.957   6.782   3.673
55028W        W16317  15.794  38.014  10.908
55029W        W16318  14.714   3.430   1.774
55030W        W16319  16.729  37.873   0.412
55031W        W16320  22.221   5.878  10.470
55032W        W16321  20.118  16.081  10.594
55033W        W16322  24.690  27.096  10.997
55034W        W16323  12.768  26.171  13.999
55035W        W16324  44.010  43.363  11.880
55036W        W16325  32.620   3.221  14.291
55037W        W16326  44.852  38.420   2.856
55038W        W16327   8.850  30.149  10.092
55039W        W16328   3.926  42.950   0.261
55040W        W16329  17.084  12.220   3.299
55041W        W16330   7.365  30.131  11.120
55042W        W16331   4.431  27.538  14.013
55043W        W16332  17.634   2.776  13.802
55044W        W16333  14.666  38.864  11.510
55045W        W16334   2.963  27.554   4.134
55046W        W16335  39.884  39.865   3.180
55047W        W16336  17.685  34.913  13.420
55048W        W16337  21.665   0.342  10.007
55049W        W16338  31.443  32.945  11.397
55050W        W16339  23.575  18.114   1.916
55051W        W16340  27.169  40.508   4.781
55052W        W16341  26.663  32.404   2.401
55053W        W16342   1.951  18.231  14.867
55054W        W16343   9.832  10.339  10.150
55055W        W16344  33.125  44.932   2.197
55056W        W16345   1.411  23.665   2.188
55057W        W16346  19.706  10.347   3.237
55058W        W16347  35.542  15.778   3.728
55059W        W16348   6.233  18.147  10.922
55060W        W16349   8.280  15.800  12.985
55061W        W16350  38.935  42.821   0.885
55062W        W16351  35.093   8.221  14.311
55063W        W16352   8.373  35.592  11.994
55064W        W16353  27.675   8.221   0.730
55065W        W16354  18.145   9.247   1.751
55066W        W16355  43.346  35.524   4.783
55067W        W16356  23.591  27.958   1.694
55068W        W16357  35.953  18.186  12.944
55069W        W16358  24.671  42.440  12.561
55070W        W16359   8.741  20.235  14.501
55071W        W16360  21.205  37.370   3.810
55072W        W16361  15.089  26.170   1.811
55073W        W16362  11.138  10.138  14.391
55074W        W16363   0.314  31.574  12.917
55075W        W16364  38.030  14.293   3.816
55076W        W16365  18.554  41.876   1.859
55077W        W16366  30.517  11.202  10.940
55078W        W16367  24.487  24.196   3.302
55079W        W16368   2.862  30.534  11.900
55080W        W16369  28.654  14.660  14.855
55081W        W16370  42.291  43.486   4.699
55082W        W16371  27.502  44.502  14.789
55083W        W16372  12.764  41.976  14.477
55084W        W16373   4.716  25.100  14.018
55085W        W16374   8.740  40.929  12.556
55086W        W16375  12.243  27.011  10.971
55087W        W16376  43.924   5.827  12.516
55088W        W16377   5.201  37.544  10.908
55089W        W16378  38.916   1.279   0.273
55090W        W16379   7.175  18.294   0.405
55091W        W16380  25.128   7.669   1.281
55092W        W16381  33.927   8.808  13.383
55093W        W16382  16.135  28.442  11.888
55094W        W16383  18.065  25.619  14.495
55095W        W16384  31.962  13.158   0.839
55096W        W16385  42.403  29.156   0.929
55097W        W16386  32.637  16.794   2.224
55098W        W16387   7.224  33.083   2.746
55099W        W16388  29.963  30.476  12.486
55100W        W16389  13.321  19.075   5.190
55101W        W16390  19.115  21.129  10.931
55102W        W16391  36.458  20.676  14.955
55103W        W16392  16.752  30.065  10.623
55104W        W16393  42.376  24.000   2.358
55105W        W16394   3.460  16.762  10.425
55106W        W16395  43.947  24.518   0.892
55107W        W16396  11.318   6.239  12.826
55108W        W16397  36.589  31.098  12.348
55109W        W16398  15.727  30.524   9.932
55110W        W16399  24.188   4.313  12.831
55111W        W16400  39.511  13.303   0.925
55112W        W16401  41.941  43.441  13.035
55113W        W16402  17.158  18.689  13.326
55114W        W16403  22.187  14.635   1.264
55115W        W16404  17.558   5.388   0.813
55116W        W16405   1.444  28.571   4.145
55117W        W16406  34.866  16.754   3.350
55118W        W16407  32.909  23.723   1.214
55119W        W16408  44.795  13.606  11.922
55120W        W16409  10.720  19.641   3.780
55121W        W16410  39.463  39.367   0.886
55122W        W16411  28.120  38.049   0.792
55123W        W16412  26.981  38.556  13.064
55124W        W16413   3.283  40.818  14.496
55125W        W16414  11.714  29.099  13.900
55126W        W16415  28.032  44.268  14.492
55127W        W16416   3.877   0.800   1.227
55128W        W16417  13.608  36.033   4.201
55129W        W16418   4.220  24.625  10.034
55130W        W16419   0.817  11.196  12.879
55131W        W16420  24.631   7.832  13.433
55132W        W16421  30.946   4.357   2.840
55133W        W16422   1.379   5.772  13.385
55134W        W16423  11.147  15.755   2.887
55135W        W16424  13.161  11.193  14.406
55136W        W16425  29.098  35.860   4.276
55137W        W16426  29.497   4.748   2.687
55138W        W16427   3.782  34.023   3.373
55139W        W16428  23.112  32.131   2.383
55140W        W16429   3.401  35.386   1.918
55141W        W16430  35.980   0.277  10.512
55142W        W16431  24.071  38.835   4.271
55143W        W16432  37.526  35.054  11.418
55144W        W16433  18.116  35.007   1.846
55145W        W16434  37.057  43.382   4.725
55146W        W16435  36.422  44.276   3.758
55147W        W16436  43.477  12.118  13.923
55148W        W16437  27.456  27.525  12.540
55149W        W16438   8.865  13.189  14.315
55150W        W16439  43.394  39.031   4.197
55151W        W16440  33.039  33.548  12.019
55152W        W16441   4.887  32.446  11.492
55153W        W16442   5.859  11.841  11.403
55154W        W16443  44.003  21.219   3.338
55155W        W16444  38.034  19.576   3.161
55156W        W16445  11.332  37.984  10.597
55157W        W16446  42.978  18.594  11.059
55158W        W16447  14.258  29.632  12.946
55159W        W16448  27.054  30.651  11.407
55160W        W16449  27.557  11.861  12.452
55161W        W16450  18.109   9.863   3.809
55162W        W16451  17.558  19.631   0.957
55163W        W16452  22.726  14.279   2.898
55164W        W16453  19.120  28.156  12.562
55165W        W16454   3.328  12.743  13.987
55166W        W16455  21.579  27.522   0.342
55167W        W16456   3.272  20.531  10.444
55168W        W16457  30.602  44.909   1.373
55169W        W16458   5.261  35.445   1.875
55170W        W16459  36.983   8.276   2.710
55171W        W16460   5.239  38.962   2.882
55172W        W16461  41.345  25.629   4.254
55173W        W16462  18.693  11.747  12.895
55174W        W16463  19.227  32.995  10.981
55175W        W16464   8.349  28.135  10.417
55176W        W16465  26.963   0.359   4.144
55177W        W16466  44.874  11.163   1.856
55178W        W16467   7.845   6.787  14.396
55179W        W16468   7.795  28.106  10.438
55180W        W16469  24.722  27.945  11.406
55181W        W16470   3.282  23.073  12.933
55182W        W16471  14.670  43.773   0.871
55183W        W16472  35.365  39.815  11.961
55184W        W16473   8.194   4.922   3.158
55185W        W16474  14.681  11.803   2.411
55186W        W16475  20.554  30.471   4.801
55187W        W16476  40.878  16.308   0.875
55188W        W16477  43.333   3.737   0.938
55189W        W16478  21.053  17.714   3.676
55190W        W16479   1.464   7.300   0.758
55191W        W16480  22.010  12.195  13.048
55192W        W16481  41.826  30.580  13.982
55193W        W16482  19.560  11.812   2.725
55194W        W16483  28.596   5.811   2.874
55195W        W16484  32.088  33.425   0.916
55196W        W16485  39.912  23.607  12.939
55197W        W16486  43.505   5.262   0.940
55198W        W16487  23.686   0.378   3.384
55199W        W16488  24.553  33.986  14.436
55200W        W16489  24.567   2.962   1.779
55201W        W16490  26.199  17.576  13.063
55202W        W16491  32.447   4.857  11.403
55203W        W16492   3.289  33.064   1.847
55204W        W16493   2.858   4.916  11.877
55205W        W16494  34.867  31.504  13.325
55206W        W16495  13.341  40.347  11.986
55207W        W16496   7.192   8.769  11.471
55208W        W16497  30.119  43.292   1.393
55209W        W16498  41.460  25.985   0.858
55210W        W16499  21.025  41.364  13.869
55211W        W16500  33.400  11.788   4.731
55212W        W16501  28.639  42.322   3.365
55213W        W16502   2.454  26.173  12.452
55214W        W16503  15.818  13.693   0.754
55215W        W16504  21.067  14.794  11.117
55216W        W16505   8.204   5.756  13.477
55217W        W16506  16.168  36.398   1.377
55218W        W16507  27.012  23.637  13.824
55219W        W16508  44.433   7.321   3.367
55220W        W16509  32.015  22.727  14.357
55221W        W16510  42.008  42.016  10.641
55222W        W16511  29.557   9.299  14.942
55223W        W16512  30.935  33.439   4.287
55224W        W16513  21.557  43.284  11.554
55225W        W16514  24.988   0.876  10.974
55226W        W16515   5.907  29.584   1.870
55227W        W16516  28.435  16.167  12.871
55228W        W16517  38.448  39.989   1.846
55229W        W16518   9.258  27.618   3.767
55230W        W16519  20.142  40.044  11.608
55231W        W16520  24.128   8.666   3.160
55232W        W16521  18.617   6.321  13.316
55233W        W16522  40.364  21.087  11.963
55234W        W16523  44.325  41.927  11.891
55235W        W16524   3.450   8.706  11.990
55236W        W16525  26.639   3.843   1.429
55237W        W16526   8.674  22.024   1.922
55238W        W16527   1.406  18.182   2.389
55239W        W16528  39.434  14.157  13.472
55240W        W16529  31.976   6.294   1.873
55241W        W16530   0.435   3.769   1.255
55242W        W16531   1.800  41.819  10.438
55243W        W16532  14.597  22.519  13.352
55244W        W16533   9.785  15.792   0.394
55245W        W16534  26.605  34.097   1.708
55246W        W16535  38.071  28.581  11.436
55247W        W16536   3.396  37.024   0.954
55248W        W16537   7.309  16.715   4.184
55249W        W16538   5.347  33.559  12.056
55250W        W16539  14.337  13.322   0.800
55251W        W16540  30.152  31.121  14.963
55252W        W16541  31.074   3.840   3.774
55253W        W16542  26.614  30.151   3.857
55254W        W16543   5.910   4.379  13.796
55255W        W16544  15.285   6.289   4.753
55256W        W16545  22.540   6.298  13.335
55257W        W16546  29.542  20.534  12.988
55258W        W16547  17.770   7.316  14.348
55259W        W16548  39.959  11.861  14.986
55260W        W16549  36.848  43.980   0.362
55261W        W16550  42.326  42.819   5.177
55262W        W16551  16.631  37.397   2.839
55263W        W16552   7.212  28.931   3.763
55264W        W16553  44.284   9.301  14.498
55265W        W16554  42.939  14.160   2.346
55266W        W16555  12.810  17.216   3.865
55267W        W16556  19.637  25.975   2.875
55268W        W16557  35.488  12.239   0.952
55269W        W16558  44.817  18.268   4.633
55270W        W16559  28.554   0.365  13.881
55271W        W16560  22.139  41.957  12.950
55272W        W16561  15.701  29.655   2.281
55273W        W16562  12.775  35.974  10.533
55274W        W16563  44.351  17.294   1.224
55275W        W16564  17.164  37.073  13.334
55276W        W16565  42.396  41.344   3.847
55277W        W16566  19.201  24.216  11.388
55278W        W16567  27.672   2.467   3.218
55279W        W16568  24.077  10.338   0.305
55280W        W16569   3.423  36.555   2.179
55281W        W16570  29.434  33.052  11.037
55282W        W16571  31.108  20.168  11.560
55283W        W16572  30.439  22.588   1.791
55284W        W16573  36.479  14.681  13.310
55285W        W16574  12.686   4.345   2.808
55286W        W16575   6.276   7.276  10.961
55287W        W16576  15.791  17.175   1.879
55288W        W16577  18.193  36.586  11.863
55289W        W16578  28.502   3.353  12.535
55290W        W16579   8.862  16.604   3.642
55291W        W16580  36.529  25.067  11.433
55292W        W16581   9.340  41.301   3.734
55293W        W16582  18.750   6.253  13.846
55294W        W16583  35.447  16.629   0.928
55295W        W16584  28.031  13.333  12.838
55296W        W16585  28.067  17.166  12.568
55297W        W16586  26.674  17.677   3.766
55298W        W16587  32.122  37.988   4.251
55299W        W16588  12.213  29.560   3.654
55300W        W16589  10.237  15.296   3.362
55301W        W16590  35.509  30.566  14.804
55302W        W16591   0.967   0.320   5.218
55303W        W16592  37.896  16.608   9.574
55304W        W16593  20.747  34.476  14.808
55305W        W16594   5.762  35.068  11.012
55306W        W16595  37.968  22.692  10.147
55307W        W16596   7.757   9.239  11.507
55308W        W16597  18.598  40.319  13.389
55309W        W16598  10.668  40.494  11.548
55310W        W16599  23.052   3.842   4.176
55311W        W16600   4.237   6.353  14.825
55312W        W16601   6.324  19.623   5.106
55313W        W16602  43.811  38.409   1.297
55314W        W16603  30.979   2.898  11.530
55315W        W16604   4.912  28.658   0.910
55316W        W16605  44.409  15.248  14.836
55317W        W16606   1.871   8.185  13.511
55318W        W16607   2.232  39.036  14.799
55319W        W16608   7.285  36.502  14.004
55320W        W16609  10.729  22.523  12.421
55321W        W16610  20.626  32.113   1.233
55322W        W16611   7.832   0.900  11.546
55323W        W16612  43.994  11.216   4.696
55324W        W16613  37.010  11.799  13.468
55325W        W16614   1.393  38.546  10.938
55326W        W16615  34.437  44.928  10.992
55327W        W16616  35.990   1.430  13.469
55328W        W16617  30.000  35.536  13.417
55329W        W16618  36.427  17.067  11.053
55330W        W16619  35.956   6.397   4.354
55331W        W16620  16.660  24.138  14.279
55332W        W16621  34.534   9.362   0.788
55333W        W16622  26.526  20.228   1.417
55334W        W16623  28.972  18.055  12.081
55335W        W16624  28.454  19.704  13.832
55336W        W16625  23.078  39.903  11.091
55337W        W16626  13.638  35.509   2.266
55338W        W16627  30.156  24.637   0.470
55339W        W16628  42.481  38.020   1.884
55340W        W16629  42.418   6.692  13.527
55341W        W16630  41.007  18.754  14.369
55342W        W16631   4.352  19.230  14.493
55343W        W16632   5.806  27.449  13.054
55344W        W16633  21.704  18.151   2.694
55345W        W16634  13.253  44.467   4.789
55346W        W16635  41.369   6.870   4.772
55347W        W16636  41.487  13.313   2.722
55348W        W16637  11.659   1.758   2.278
55349W        W16638  38.328   2.434   3.708
55350W        W16639  19.252  43.852  14.858
55351W        W16640  32.454  11.626   3.746
55352W        W16641   6.709  32.003   3.232
55353W        W16642  17.597  19.050   9.604
55354W        W16643  40.024  43.428   1.802
55355W        W16644   5.816   0.318   1.843
55356W        W16645  44.465   4.793  10.549
55357W        W16646  13.149  43.422  14.026
55358W        W16647  16.289  24.611  14.855
55359W        W16648  33.077  42.858   2.259
55360W        W16649  28.121  32.436  14.775
55361W        W16650  20.589  16.654   3.782
55362W        W16651   0.799  40.813   4.819
55363W        W16652  10.264  40.508  12.028
55364W        W16653  36.964  14.268  10.548
55365W        W16654  22.131  28.934  12.978
55366W        W16655  33.906  26.043  12.083
55367W        W16656   4.291  14.133   2.799
55368W        W16657   0.248  25.604   3.667
55369W        W16658  39.837  18.228   9.609
55370W        W16659  10.828  12.765  13.429
55371W        W16660  17.300   3.772   4.622
55372W        W16661  27.521   2.321  12.403
55373W        W16662   6.896   6.865  11.916
55374W        W16663   6.723  28.946  10.429
55375W        W16664  27.514  35.583   2.225
55376W        W16665  37.366  36.396   4.603
55377W        W16666   4.771  12.619   5.234
55378W        W16667  33.552  38.510   4.175
55379W        W16668  29.438  28.663   4.230
55380W        W16669  20.767  41.479  11.960
55381W        W16670   1.934   2.324  10.405
55382W        W16671  11.298  35.875  11.584
55383W        W16672   8.244  23.092   2.688
55384W        W16673   3.933  40.894   1.925
55385W        W16674   1.755  25.173   2.895
55386W        W16675  37.379   6.866  11.091
55387W        W16676  23.122   1.926   1.232
55388W        W16677  13.233  16.713   4.792
55389W        W16678   7.789  41.879  11.055
55390W        W16679  26.470   4.757  10.900
55391W        W16680  23.088  38.968   0.844
55392W        W16681  15.731   8.354   1.435
55393W        W16682  20.559   2.864   1.876
55394W        W16683  13.335  40.325   4.834
55395W        W16684  12.651  25.683  11.011
55396W        W16685   4.785  27.192   0.378
55397W        W16686  44.932  39.005  14.488
55398W        W16687   9.253   0.294   0.916
55399W        W16688  25.477  42.931   9.982
55400W        W16689  33.448  20.235  11.960
55401W        W16690  40.492  27.494   3.686
55402W        W16691  12.204  32.600  10.602
55403W        W16692   1.813  26.668   5.293
55404W        W16693  31.612  24.479   3.814
55405W        W16694  30.499  17.680  10.926
55406W        W16695  39.828  37.572  10.955
55407W        W16696  42.417   4.309  12.872
55408W        W16697  17.717  26.470   4.198
55409W        W16698  28.452  24.614  14.481
55410W        W16699  41.020  42.871   3.157
55411W        W16700  33.127  18.743  13.879
55412W        W16701   8.784  42.420  13.380
55413W        W16702  17.575   8.711   1.356
55414W        W16703  40.051  26.702   0.950
55415W        W16704  36.429  41.808  11.444
55416W        W16705  12.821  10.351  13.456
55417W        W16706   0.253  10.294  11.086
55418W        W16707  35.889   7.342  14.420
55419W        W16708  25.049  28.645  13.925
55420W        W16709  33.560  24.226  10.449
55421W        W16710   8.404  34.588   0.416
55422W        W16711   7.178  34.379   0.381
55423W        W16712   8.856  24.596   3.381
55424W        W16713  34.377   4.435   9.992
55425W        W16714  27.018  44.964  13.510
55426W        W16715  32.613  22.541   4.282
55427W        W16716  10.325  43.489  11.375
55428W        W16717  16.751  36.356  12.539
55429W        W16718   4.327  41.349  12.082
55430W        W16719  12.678  20.134   1.396
55431W        W16720  31.065  27.138  13.889
55432W        W16721   0.492   3.302   2.792
55433W        W16722  16.787  36.448  10.583
55434W        W16723  30.586   5.759  11.932
55435W        W16724  21.640  15.735  10.465
55436W        W16725  21.215  30.151  10.492
55437W        W16726   2.387  12.710   1.758
55438W        W16727  18.589  16.724   0.285
55439W        W16728  29.561  37.899   3.693
55440W        W16729   6.737  28.630   4.712
55441W        W16730  15.676   0.420   1.412
55442W        W16731   8.788  17.761  14.840
55443W        W16732  37.411   2.860  10.960
55444W        W16733  25.073  34.519   0.450
55445W        W16734  40.002  42.011  13.840
55446W        W16735  20.750  11.730  10.548
55447W        W16736  27.492  10.668   4.686
55448W        W16737   0.906  39.030   1.422
55449W        W16738  31.097  24.096   1.441
55450W        W16739  24.592  32.005  14.851
55451W        W16740  24.162  22.595  14.914
55452W        W16741  43.426  15.767  12.032
55453W        W16742  42.354  15.116  10.592
55454W        W16743  17.685  29.642  13.519
55455W        W16744  38.488  37.880  10.903
55456W        W16745  14.313   2.233   3.687
55457W        W16746  37.859   6.189  11.377
55458W        W16747  41.438  35.419   2.770
55459W        W16748  35.861   3.808   0.327
55460W        W16749  29.030   7.273   0.906
55461W        W16750  30.416  39.016   2.250
55462W        W16751  11.706  25.065  12.845
55463W        W16752   8.255  24.166  11.054
55464W        W16753  17.601   2.841  13.459
55465W        W16754  41.335  16.690   3.191
55466W        W16755   7.255  22.032  13.341
55467W        W16756  20.639  29.449  12.377
55468W        W16757   1.850  33.126   3.153
55469W        W16758  39.933  42.827   3.385
55470W        W16759  18.753  19.654   5.304
55471W        W16760  32.574  43.362  11.499
55472W        W16761  32.106  39.855   4.778
55473W        W16762  26.967  33.463  13.819
55474W        W16763  27.592  23.581  12.970
55475W        W16764  38.428  36.500   1.341
55476W        W16765   8.780   3.418   2.832
55477W        W16766  13.203   3.782   2.231
55478W        W16767  26.522  37.058   4.291
55479W        W16768  17.279  19.052  11.888
55480W        W16769  40.502  12.139  14.499
55481W        W16770  12.142  41.328  11.399
55482W        W16771   2.257  29.975  14.399
55483W        W16772  39.371  44.884  12.394
55484W        W16773  40.867  15.273  12.983
55485W        W16774   4.933  27.647  14.869
55486W        W16775   8.742  11.780  13.513
55487W        W16776  34.947  33.561  10.562
55488W        W16777   6.878  17.594   0.417
55489W        W16778  14.304  33.957  14.876
55490W        W16779  25.049  26.586  10.966
55491W        W16780  34.942  37.865   1.769
55492W        W16781  22.638  15.736  11.914
55493W        W16782  43.441  19.754   3.760
55494W        W16783  16.218  11.271   0.293
55495W        W16784  36.860  25.123   3.365
55496W        W16785  17.225  19.060  11.375
55497W        W16786  40.987  16.643  11.567
55498W        W16787  19.646  15.326  11.887
55499W        W16788  17.180  30.004   0.265
55500W        W16789  31.623  26.064  14.345
55501W        W16790  11.279   0.957   1.891
55502W        W16791   9.320  27.452   1.815
55503W        W16792   6.269  35.440  14.875
55504W        W16793  36.090  43.818   1.319
55505W        W16794  27.635   7.417   9.495
55506W        W16795  28.460  17.627  13.345
55507W        W16796  35.418  29.613   0.940
55508W        W16797  33.453  24.712   4.658
55509W        W16798   7.190  14.612  13.352
55510W        W16799  13.200  42.824   1.423
55511W        W16800   4.241  22.557  12.057
55512W        W16801  26.184  16.748   2.697
55513W        W16802   7.761  35.944   4.114
55514W        W16803  27.992   2.796  10.408
55515W        W16804  31.926   9.331  14.841
55516W        W16805   3.756  11.800   0.295
55517W        W16806  42.006  39.365  11.887
55518W        W16807  24.097   9.847  11.939
55519W        W16808  43.788  44.787  11.984
55520W        W16809  21.600  17.577   3.768
55521W        W16810  42.525  38.521  12.893
55522W        W16811  41.310  31.647   3.146
55523W        W16812  31.130  28.460   2.688
55524W        W16813  27.017  34.974  11.473
55525W        W16814  38.916  23.682   2.210
55526W        W16815   6.406  37.342  11.514
55527W        W16816  36.495  15.245  11.974
55528W        W16817  32.623   3.264   4.161
55529W        W16818   3.847  34.923  14.363
55530W        W16819  26.633  19.544   1.409
55531W        W16820  26.488  43.873   0.748
55532W        W16821   2.280  21.528   3.736
55533W        W16822  16.252  28.620  10.628
55534W        W16823  39.364  32.445   4.234
55535W        W16824   3.434  22.168  14.908
55536W        W16825   0.254  28.064  14.310
55537W        W16826   1.389  37.567  13.897
55538W        W16827  36.508   8.853  12.511
55539W        W16828  44.335  16.088   2.310
55540W        W16829  23.163  14.237  12.549
55541W        W16830   9.247  11.862   4.323
55542W        W16831   6.816  25.976  14.439
55543W        W16832   2.233  29.928  13.952
55544W        W16833  27.656  38.374  10.945
55545W        W16834  10.696   1.913  14.989
55546W        W16835  17.289  37.359   3.702
55547W        W16836  26.654   6.310   0.317
55548W        W16837  24.018  22.665   3.832
55549W        W16838   2.371  18.597  13.495
55550W        W16839   4.800  41.922   4.628
55551W        W16840  28.166  20.030   0.828
55552W        W16841  18.765  42.356  14.884
55553W        W16842  13.760  16.636  12.950
55554W        W16843  26.115  39.855  14.438
55555W        W16844  42.002  26.554   4.189
55556W        W16845  43.437  41.359  12.411
55557W        W16846  11.155  14.598  11.501
55558W        W16847  19.050   9.232  11.102
55559W        W16848  22.165  16.721  12.028
55560W        W16849   2.348   1.956   1.404
55561W        W16850   8.874  41.390   2.715
55562W        W16851  21.259  25.030  12.845
55563W        W16852  43.388   9.151  14.302
55564W        W16853  43.954  35.403  11.939
55565W        W16854  15.233  37.914  12.056
55566W        W16855  43.009  29.974  14.808
55567W        W16856  41.373  44.286  13.402
55568W        W16857  29.522  35.050  14.283
55569W        W16858  33.598   8.357   2.694
55570W        W16859  25.474  17.611   4.123
55571W        W16860  13.819   0.288   2.186
55572W        W16861  14.606   0.757   2.414
55573W        W16862   9.211  20.715   1.858
55574W        W16863   6.406  25.975  11.978
55575W        W16864  31.632  38.957   0.298
55576W        W16865   0.825  32.960  14.405
55577W        W16866  34.051  10.769   1.358
55578W        W16867  15.267  15.236  10.605
55579W        W16868  40.038   1.830  12.022
55580W        W16869  20.607  10.161  13.365
55581W        W16870  30.961  17.576   4.615
55582W        W16871   3.276  19.096  13.988
55583W        W16872  39.362   8.857   4.836
55584W        W16873  22.086  39.883   0.329
55585W        W16874  39.062  33.058  13.039
55586W        W16875  15.632   8.740   1.268
55587W        W16876   1.888  39.014  12.446
55588W        W16877   2.792  30.502   2.214
55589W        W16878  15.581  36.096   0.802
55590W        W16879  42.913  36.453  14.364
55591W        W16880  10.320   1.776   0.933
55592W        W16881  12.320  39.864   4.605
55593W        W16882   9.308   0.325  12.509
55594W        W16883   7.678  32.975  13.470
55595W        W16884  20.077   0.793   3.676
55596W        W16885  13.833  19.736   4.658
55597W        W16886  43.008  43.887  14.951
55598W        W16887  31.441  16.660  13.489
55599W        W16888  42.479  21.755  12.565
55600W        W16889  18.662   1.421  11.403
55601W        W16890   6.280   2.924  14.934
55602W        W16891  28.606  17.588  11.900
55603W        W16892   9.246  18.217   3.813
55604W        W16893  39.876   4.315   3.658
55605W        W16894  24.006  25.551   0.458
55606W        W16895  41.840  27.968   0.445
55607W        W16896  20.605  24.486   1.349
55608W        W16897  16.794  16.280  14.870
55609W        W16898  34.552   8.232   1.839
55610W        W16899  32.014   8.846   4.704
55611W        W16900   0.328  13.627  12.990
55612W        W16901  29.993  24.022   1.227
55613W        W16902  20.225   4.786  11.989
55614W        W16903  33.908  31.477   2.407
55615W        W16904  41.352  18.243  10.968
55616W        W16905  31.406   5.289  12.876
55617W        W16906   3.799  23.619   0.276
55618W        W16907  21.086  22.212  10.960
55619W        W16908  19.607  41.029  11.891
55620W        W16909  20.583   3.333   4.716
55621W        W16910   6.853  17.134   4.797
55622W        W16911  41.787  11.307  11.429
55623W        W16912  33.418  12.781  11.006
55624W        W16913  43.404  13.721   4.283
55625W        W16914  19.759   9.700  14.980
55626W        W16915  23.622  21.661   9.485
55627W        W16916  22.719   9.316   3.667
55628W        W16917  19.535  23.675   3.649
55629W        W16918  39.409  14.646   1.375
55630W        W16919  18.274  43.374   3.813
55631W        W16920  11.860  39.849  13.461
55632W        W16921  22.736   5.849  13.053
55633W        W16922  38.821  16.659   5.139
55634W        W16923  13.844  16.624   3.668
55635W        W16924   7.304  43.493  13.431
55636W        W16925  17.664  33.389   4.279
55637W        W16926   8.251  23.641  11.034
55638W        W16927  22.158   9.249   3.800
55639W        W16928   3.329  44.352  14.456
55640W        W16929  14.668   3.345   3.279
55641W        W16930  23.610  13.616   1.278
55642W        W16931   7.699  34.045   3.771
55643W        W16932  15.273  20.676   1.322
55644W        W16933  28.521  37.433   4.306
55645W        W16934   0.487   7.814  14.437
55646W        W16935  28.644   5.875  12.835
55647W        W16936  31.904  22.657   4.811
55648W        W16937  33.969  26.589   5.240
55649W        W16938   4.931  15.641  11.059
55650W        W16939  22.102  33.907   2.327
55651W        W16940  44.296  10.275  14.310
55652W        W16941   1.273  17.682  11.068
55653W        W16942  14.629  23.080   2.272
55654W        W16943   7.284  35.365   1.339
55655W        W16944  41.796  35.510   1.843
55656W        W16945   4.220  27.529   2.226
55657W        W16946  44.293  44.754  13.362
55658W        W16947  18.601  33.616  12.380
55659W        W16948   5.282  21.595  14.953
55660W        W16949  10.309   0.760  12.351
55661W        W16950  32.404   8.896  13.879
55662W        W16951   9.311  22.598  13.363
55663W        W16952  44.989  34.056   2.792
55664W        W16953  32.947  38.925  14.968
55665W        W16954  43.445  43.786  14.510
55666W        W16955  38.335   0.817  12.903
55667W        W16956  14.816  39.910  12.005
55668W        W16957  10.720   7.268  12.520
55669W        W16958   5.288  19.099  11.505
55670W        W16959  18.248  22.008  12.851
55671W        W16960  33.928  18.276  12.917
55672W        W16961  39.355  32.033   1.854
55673W        W16962   2.298  38.458   4.200
55674W        W16963   6.814  27.055  13.059
55675W        W16964   0.747  19.563   0.888
55676W        W16965  35.030  44.463  11.938
55677W        W16966  31.055  19.766   0.368
55678W        W16967  18.086  36.580  12.410
55679W        W16968  13.778  15.202  11.447
55680W        W16969  22.667  12.328   3.386
55681W        W16970  22.632  31.404  11.000
55682W        W16971  21.598   7.766  13.010
55683W        W16972  15.186  22.604  11.990
55684W        W16973  12.327  27.544   3.311
55685W        W16974  20.130   8.248   4.601
55686W        W16975  19.651   1.785  11.427
55687W        W16976  28.067  31.104  11.587
55688W        W16977  38.545  43.779   4.306
55689W        W16978  33.027  39.986   0.246
55690W        W16979  37.344   1.467   2.237
55691W        W16980   1.856  25.127   0.755
55692W        W16981  34.381  29.032  11.000
55693W        W16982  12.675  33.424  11.990
55694W        W16983  43.857  30.543   4.273
55695W        W16984  38.979  24.225  10.622
55696W        W16985  36.524  30.918   1.237
55697W        W16986  27.095  42.890  12.993
55698W        W16987   0.310  25.088   4.652
55699W        W16988   5.310  25.159  14.889
55700W        W16989  20.744  44.458   4.676
55701W        W16990  15.258  36.878   3.222
55702W        W16991   1.955  13.686   2.707
55703W        W16992  44.861  33.098   1.900
55704W        W16993  40.983  28.013   2.248
55705W        W16994   6.690  28.163  11.909
55706W        W16995  24.021  43.855   0.389
55707W        W16996  39.906  23.220  10.516
55708W        W16997  13.246  43.479   0.379
55709W        W16998  16.249  30.591  11.408
55710W        W16999   4.218  14.682   1.272
55711W        W17000   1.808  33.121   3.845
55712W        W17001  18.261  19.138  14.992
55713W        W17002  23.078  26.001  14.306
55714W        W17003  44.009   3.216  12.431
55715W        W17004   5.735  33.095   0.322
55716W        W17005  26.154  22.547   3.371
55717W        W17006  36.556   7.718  10.927
55718W        W17007  33.405  14.201   3.773
55719W        W17008  24.188  44.336  10.637
55720W        W17009  17.066  38.463   3.818
55721W        W17010  41.429  42.850   4.633
55722W        W17011   3.430  40.402  13.498
55723W        W17012  37.996  16.643  13.457
55724W        W17013  41.489  31.017   0.294
55725W        W17014  24.492  31.090  14.904
55726W        W17015   6.249  15.198  11.511
55727W        W17016  18.680   0.914  13.314
55728W        W17017  32.471  42.424  13.547
55729W        W17018  44.387  34.870  13.339
55730W        W17019   0.308  27.175  11.534
55731W        W17020  32.888  14.650   3.640
55732W        W17021  28.636  21.571  11.554
55733W        W17022  17.757  15.137  11.466
55734W        W17023  18.649   7.390  12.049
55735W        W17024   7.848  12.755  10.136
55736W        W17025  12.704  35.879   4.301
55737W        W17026  12.119   3.840  11.061
55738W        W17027  32.967  28.513   1.751
55739W        W17028  33.552  29.168   2.224
55740W        W17029   6.376  16.604   4.299
55741W        W17030  40.829   6.319   0.878
55742W        W17031  21.101  18.066   9.939
55743W        W17032  11.160  44.778   9.554
55744W        W17033   5.401  28.512  11.971
55745W        W17034   9.348   6.766   4.338
55746W        W17035   2.829   5.270   2.708
55747W        W17036  30.653  33.966   1.872
55748W        W17037  22.181   3.352   0.465
55749W        W17038   5.787  17.621   3.681
55750W        W17039   9.667  34.121  13.488
55751W        W17040  24.683  35.867  11.873
55752W        W17041   1.800  13.191   3.379
55753W        W17042   5.287  10.804  12.351
55754W        W17043   9.220  25.979   1.851
55755W        W17044  35.083   9.367  14.929
55756W        W17045  26.189   1.352  13.506
55757W        W17046  35.591  24.620   3.278
55758W        W17047   0.941  36.968   2.373
55759W        W17048  10.669  33.939  12.885
55760W        W17049  14.138   9.689   3.312
55761W        W17050   1.974  32.463  12.562
55762W        W17051  39.546   3.364  14.295
55763W        W17052  11.660  14.681   4.734
55764W        W17053   3.243  30.506   1.910
55765W        W17054   7.308  19.062  12.072
55766W        W17055  26.012   5.251   3.294
55767W        W17056  40.903  38.538  12.896
55768W        W17057  32.976  15.603  10.964
55769W        W17058   6.362   0.341   1.429
55770W        W17059   5.778   1.320  11.128
55771W        W17060  19.590  33.108   3.186
55772W        W17061  17.154  25.701  11.934
55773W        W17062  19.181   0.986   2.388
55774W        W17063  11.280  31.076  11.856
55775W        W17064  42.314  43.491   0.291
55776W        W17065  28.527  41.365   0.862
55777W        W17066  30.449  15.720   2.273
55778W        W17067  41.364   1.270   2.220
55779W        W17068   9.863  24.665  10.926
55780W        W17069   2.284  38.970  11.909
55781W        W17070  30.509   7.841   3.353
55782W        W17071  23.683  32.630  13.374
55783W        W17072  42.330   7.191   9.981
55784W        W17073  37.021   3.430  10.499
55785W        W17074  12.744  26.026   2.731
55786W        W17075  38.397  38.348   4.234
55787W        W17076  39.510  27.579  10.432
55788W        W17077  11.140  31.947   5.573
55789W        W17078  11.144   3.855  11.476
55790W        W17079  31.074  24.118   3.824
55791W        W17080  20.583  12.759  10.545
55792W        W17081  36.073  30.527   1.432
55793W        W17082  27.631   3.900   4.155
55794W        W17083  24.064   6.234   0.466
55795W        W17084   8.846  25.484  11.460
55796W        W17085  21.178  19.093  12.392
55797W        W17086   7.817  20.598  13.855
55798W        W17087  27.638  33.877  12.993
55799W        W17088  40.833   5.708   4.785
55800W        W17089  34.074  29.665  10.411
55801W        W17090  27.041  20.721   1.322
55802W        W17091  14.655  42.510   1.292
55803W        W17092  26.065  23.134  12.440
55804W        W17093  35.094  12.281   1.738
55805W        W17094  20.267   3.782  13.987
55806W        W17095  16.639   4.934   1.343
55807W        W17096  25.558  21.649   1.334
55808W        W17097  33.910  27.469   3.794
55809W        W17098   5.831  15.647   2.221
55810W        W17099  35.380  13.739   4.138
55811W        W17100  43.281   4.263   0.824
55812W        W17101  38.471  13.198  11.861
55813W        W17102  13.777  21.675   0.313
55814W        W17103  36.999  26.066   3.285
55815W        W17104  32.475  11.635   4.337
55816W        W17105   3.829  22.196   0.313
55817W        W17106  12.327   8.844   4.212
55818W        W17107  21.194  44.965  11.444
55819W        W17108  32.095  34.545  14.946
55820W        W17109  30.493   1.369   0.945
55821W        W17110  26.628  13.775   3.169
55822W        W17111  12.303  43.471  14.926
55823W        W17112  21.536   3.217  13.441
55824W        W17113  34.486  21.210  13.882
55825W        W17114  30.654  27.035   3.332
55826W        W17115  30.951  34.863  11.417
55827W        W17116   1.731  25.027  12.468
55828W        W17117  15.681  34.096  14.363
55829W        W17118  32.053   7.397   4.614
55830W        W17119  42.318  30.934  12.938
55831W        W17120  27.590  31.136   4.838
55832W        W17121   3.883  28.170   3.665
55833W        W17122  38.826  37.341   2.387
55834W        W17123  32.495  42.336  10.519
55835W        W17124  22.100  32.028   5.189
55836W        W17125  35.946  44.914   1.892
55837W        W17126   7.781  14.212  12.518
55838W        W17127  39.547   6.739  11.391
55839W        W17128  38.369   4.303  10.918
55840W        W17129  12.248  40.808   3.843
55841W        W17130  37.910  44.951   4.673
55842W        W17131  26.002  19.764  11.517
55843W        W17132  44.821  39.054   2.330
55844W        W17133   9.786  35.092  11.097
55845W        W17134  32.910  14.336   2.306
55846W        W17135  36.076  13.707  11.973
55847W        W17136  17.632  14.801   4.765
55848W        W17137  17.079  26.987   4.805
55849W        W17138  20.592  23.522   1.270
55850W        W17139  40.503  20.682  12.562
55851W        W17140  26.493  10.138  10.523
55852W        W17141   1.747  15.285  12.006
55853W        W17142  34.939  43.916  10.542
55854W        W17143   6.261  43.784  13.992
55855W        W17144   6.920  29.012   0.267
55856W        W17145  37.884  12.207   0.399
55857W        W17146   9.247  10.810  13.049
55858W        W17147   9.359   4.361   4.195
55859W        W17148   7.899  15.635  10.978
55860W        W17149  28.588   5.206   3.197
55861W        W17150  25.106  38.559   3.636
55862W        W17151  28.066  22.713   5.322
55863W        W17152  24.195   9.302  11.994
55864W        W17153  33.012   1.295  14.275
55865W        W17154  17.202   1.479   0.317
55866W        W17155  38.032  38.568   4.332
55867W        W17156  26.056  19.260   3.671
55868W        W17157   4.248  34.488  14.024
55869W        W17158   5.722  28.450   2.823
55870W        W17159  43.953  32.478  13.854
55871W        W17160  30.455  36.380   1.778
55872W        W17161  28.533  37.364   0.463
55873W        W17162  34.579   3.412  14.772
55874W        W17163  44.374  26.151   0.914
55875W        W17164   4.394  14.605   2.847
55876W        W17165   2.364  28.992  14.502
55877W        W17166  38.005  31.644  10.560
55878W        W17167  39.388  26.195   3.342
55879W        W17168  19.178  22.688  11.603
55880W        W17169   0.474   4.351   4.341
55881W        W17170  22.522  24.123  10.501
55882W        W17171  25.214   9.232   1.852
55883W        W17172   3.893  15.225   4.219
55884W        W17173  43.352   8.713   2.203
55885W        W17174  28.656  30.551   3.830
55886W        W17175  32.897  17.299  13.018
55887W        W17176  41.854  15.670  11.423
55888W        W17177   1.885  34.950  14.935
55889W        W17178  36.542  35.004  10.033
55890W        W17179   6.191  32.553   4.672
55891W        W17180  43.902  12.770   4.184
55892W        W17181   4.357   8.797   1.896
55893W        W17182  30.963  29.001  13.947
55894W        W17183  12.258  36.354   0.935
55895W        W17184   7.707   6.799   3.825
55896W        W17185  37.513  30.511  14.353
55897W        W17186  25.670  20.600   1.756
55898W        W17187   6.920  18.216  13.500
55899W        W17188  19.171  35.048   3.753
55900W        W17189  39.025  26.142  10.939
55901W        W17190  20.111  16.696   3.154
55902W        W17191  22.550   9.766  12.559
55903W        W17192  38.843   6.250   3.699
55904W        W17193  43.865  21.543  13.320
55905W        W17194   9.652  18.679   0.870
55906W        W17195  26.140  39.942   3.270
55907W        W17196  32.546  30.995  13.994
55908W        W17197   4.847   9.816   4.119
55909W        W17198   7.807   4.932  11.550
55910W        W17199   5.912   2.787   2.244
55911W        W17200  38.007  16.285   0.767
55912W        W17201   6.817  14.611   0.457
55913W        W17202   9.252  42.941  13.934
55914W        W17203  15.782  31.493   1.398
55915W        W17204  23.641  44.896  12.976
55916W        W17205  33.895  42.799   0.854
55917W        W17206  37.015  29.504   2.334
55918W        W17207  10.753   9.198   4.790
55919W        W17208   0.482  21.635  13.867
55920W        W17209  35.484  16.740  10.969
55921W        W17210  44.774   5.862   0.842
55922W        W17211  32.126   0.435   2.888
55923W        W17212   1.284  11.168  12.354
55924W        W17213  32.037   2.374   1.725
55925W        W17214  42.985   7.178   0.890
55926W        W17215  29.493  16.088  13.516
55927W        W17216  37.019  29.933  10.575
55928W        W17217  30.611  13.649   1.926
55929W        W17218   1.772  27.125   3.728
55930W        W17219  19.276  35.368  11.028
55931W        W17220  11.138  33.939  14.382
55932W        W17221  24.645  42.514   1.236
55933W        W17222  27.691  22.196   1.711
55934W        W17223   8.371  25.018  13.846
55935W        W17224  44.885  31.470  14.433
55936W        W17225  28.144  12.294  10.154
55937W        W17226  36.358  24.004  13.519
55938W        W17227   9.730   9.851   2.326
55939W        W17228  18.075  14.748  11.497
55940W        W17229  28.002   9.207   1.906
55941W        W17230   1.251  35.047  14.997
55942W        W17231  42.029  42.285   1.902
55943W        W17232   0.449  14.151   1.814
55944W        W17233  12.332  12.620  11.065
55945W        W17234  17.656   3.725  11.442
55946W        W17235  40.822  28.099   0.365
55947W        W17236  34.428  35.052   1.255
55948W        W17237   4.919  15.711  11.602
55949W        W17238  24.684  33.409  13.541
55950W        W17239  12.137   5.233  14.461
55951W        W17240  19.045  39.845  13.971
55952W        W17241  28.060  17.761   1.275
55953W        W17242   7.821  30.547   1.747
55954W        W17243  12.128  14.137   2.216
55955W        W17244  38.348  26.679  13.419
55956W        W17245  23.136  13.166   3.733
55957W        W17246  15.719  22.677  14.871
55958W        W17247  27.982  22.618   0.966
55959W        W17248   4.399  33.618   1.894
55960W        W17249  26.557  12.842   4.123
55961W        W17250  29.633  27.027  14.783
55962W        W17251  35.533   8.280   0.904
55963W        W17252  28.040   3.267  13.061
55964W        W17253  34.109   6.241  14.014
55965W        W17254  13.748  39.456  13.995
55966W        W17255  29.452  14.659  14.907
55967W        W17256  39.427   1.849   3.690
55968W        W17257  26.173  21.070  14.015
55969W        W17258  39.011  29.550  13.917
55970W        W17259  35.416   4.738   2.852
55971W        W17260   2.846  13.196  14.505
55972W        W17261   5.867   4.914   1.415
55973W        W17262  25.096  36.390   2.413
55974W        W17263   0.376   7.264   3.804
55975W        W17264  34.084  27.039   0.862
55976W        W17265  11.299  34.027   1.861
55977W        W17266  12.645  12.333  11.909
55978W        W17267  43.317  30.610   4.799
55979W        W17268  15.206  28.674  13.836
55980W        W17269  34.030  12.618   1.795
55981W        W17270  44.758  40.939  11.952
55982W        W17271  13.152  17.297   0.816
55983W        W17272  39.873  42.874   1.759
55984W        W17273  14.613  42.426  13.444
55985W        W17274  43.332  38.931   1.850
55986W        W17275  33.579  36.854  13.459
55987W        W17276  43.875   3.423   0.477
55988W        W17277  44.492  43.847  10.582
55989W        W17278  18.662   5.873  10.972
55990W        W17279  41.402  29.979  12.477
55991W        W17280  23.209  25.199  12.843
55992W        W17281   7.899  18.086   5.273
55993W        W17282   8.222   3.924  10.540
55994W        W17283   5.234  14.625   1.813
55995W        W17284   1.864  21.095   1.895
55996W        W17285  14.141  39.536  11.431
55997W        W17286  33.053  41.520  11.535
55998W        W17287  42.344  11.709  12.531
55999W        W17288   9.243  38.353   4.161
56000W        W17289   2.347  39.830   2.753
56001W        W17290  41.345  12.613   3.356
56002W        W17291   6.799  32.033   9.629
56003W        W17292  18.736   8.684   0.889
56004W        W17293  39.853  38.964   1.879
56005W        W17294  13.635  16.600  13.473
56006W        W17295   3.224  32.120  10.060
56007W        W17296  12.824  27.544  11.033
56008W        W17297  27.109   3.879  11.081
56009W        W17298  19.614  44.262  14.274
56010W        W17299  20.270  29.158   3.654
56011W        W17300  16.643  44.448   2.294
56012W        W17301   7.757  30.591  14.904
56013W        W17302   1.353  20.038   0.827
56014W        W17303  30.532  30.442   2.246
56015W        W17304   9.320  41.498  11.398
56016W        W17305  24.512  21.234   0.789
56017W        W17306  13.121   0.965   0.461
56018W        W17307   3.291  29.468   0.780
56019W        W17308  19.086   0.798   0.745
56020W        W17309  38.855  30.625   3.288
56021W        W17310   4.767   0.766  12.911
56022W        W17311  17.692  20.613   5.317
56023W        W17312  23.132  33.034   3.363
56024W        W17313  18.230  36.004   2.770
56025W        W17314  41.298  16.111   1.256
56026W        W17315  25.663  30.032   3.179
56027W        W17316  44.349  12.323  11.120
56028W        W17317  21.022   0.362   0.286
56029W        W17318  44.886  17.721   4.774
56030W        W17319  13.169  38.911  12.560
56031W        W17320  24.625  17.307   1.864
56032W        W17321  17.722   2.344   3.249
56033W        W17322   5.736  34.531  12.893
56034W        W17323   8.810  40.016  12.911
56035W        W17324  10.322  38.970  13.979
56036W        W17325  32.636  37.046   4.135
56037W        W17326  34.040  12.270   1.844
56038W        W17327   5.434  39.040   1.364
56039W        W17328  31.917  14.289   5.282
56040W        W17329  10.744  13.301   2.862
56041W        W17330  12.727  11.862   1.783
56042W        W17331  27.502  36.381   3.740
56043W        W17332  13.743  23.997   2.398
56044W        W17333  30.655   2.346  14.974
56045W        W17334  19.286  15.122  13.905
56046W        W17335   2.348  19.084   4.290
56047W        W17336  11.206  13.235   0.281
56048W        W17337  13.634  15.147  12.532
56049W        W17338  15.691  32.609   0.791
56050W        W17339   0.381  41.534  10.930
56051W        W17340   3.341  36.985   1.772
56052W        W17341  39.461  29.618   4.281
56053W        W17342  30.045   3.828  13.317
56054W        W17343  20.684  24.030   2.326
56055W        W17344   9.710  18.755  12.399
56056W        W17345  31.553  26.572   4.220
56057W        W17346  40.875  23.185   2.815
56058W        W17347  29.424   6.794   3.346
56059W        W17348  15.619  34.979  12.850
56060W        W17349   1.808   8.834  14.815
56061W        W17350  26.644  33.524  13.393
56062W        W17351  18.211  26.600   2.896
56063W        W17352   9.772  33.480   3.629
56064W        W17353  17.579  22.081  10.061
56065W        W17354  43.392  40.545  13.877
56066W        W17355   9.254  23.631  10.486
56067W        W17356   9.150   3.720   3.700
56068W        W17357  35.487  43.863   1.913
56069W        W17358   3.239  38.827   3.643
56070W        W17359   0.795   9.780   2.193
56071W        W17360   4.380  41.446   2.676
56072W        W17361   0.319  21.588   3.263
56073W        W17362  21.212   1.749   2.732
56074W        W17363  41.389  22.210   3.325
56075W        W17364   8.240  35.363  14.361
56076W        W17365   6.845   8.819  13.354
56077W        W17366  11.195  41.312  13.025
56078W        W17367  12.731  39.951  13.023
56079W        W17368  33.971  41.295   2.221
56080W        W17369  25.506  30.042   1.427
56081W        W17370  25.172   7.896   2.253
56082W        W17371  10.820  42.893   2.788
56083W        W17372   1.947  38.840  11.078
56084W        W17373   8.210  43.433  13.040
56085W        W17374  36.094  10.662   2.327
56086W        W17375  13.197  14.108   0.278
56087W        W17376  42.822  38.558  12.360
56088W        W17377  25.585   3.308  12.954
56089W        W17378   1.879  37.980   0.923
56090W        W17379  41.863  22.652  13.871
56091W        W17380  39.054  25.627   5.129
56092W        W17381  25.629   1.441   3.682
56093W        W17382   5.403  38.974  11.449
56094W        W17383  19.561   9.769  13.331
56095W        W17384   4.270  15.664   0.780
56096W        W17385  11.758  16.597  11.470
56097W        W17386   0.910  33.876   1.285
56098W        W17387   5.729  30.414   1.359
56099W        W17388   4.316  26.047  11.028
56100W        W17389  14.591  42.788  10.476
56101W        W17390  39.318  41.828  13.469
56102W        W17391  39.862  22.086  12.486
56103W        W17392  10.295  36.002  13.533
56104W        W17393   6.187  33.538   1.916
56105W        W17394  30.913  15.696  13.805
56106W        W17395  41.474  16.282  14.766
56107W        W17396   6.759  23.666  13.351
56108W        W17397  34.885  10.339   3.208
56109W        W17398  42.434  23.038  10.643
56110W        W17399  42.356  31.131  12.078
56111W        W17400  26.184  23.221  13.417
56112W        W17401  28.143  34.600  13.353
56113W        W17402  25.067  42.904  11.440
56114W        W17403   2.430  16.140   0.337
56115W        W17404   8.757   5.218  10.898
56116W        W17405  14.729  21.207  12.432
56117W        W17406  33.396   8.264  13.874
56118W        W17407  28.975   1.299  13.003
56119W        W17408  26.462  12.355   4.686
56120W        W17409   8.815  20.670   1.280
56121W        W17410  10.665  23.717  14.802
56122W        W17411  38.427   9.790  11.957
56123W        W17412  43.996  19.766   1.797
56124W        W17413   5.814   9.769  14.275
56125W        W17414  28.479  41.830   0.342
56126W        W17415   9.772  22.521  11.579
56127W        W17416  35.383  30.114  10.915
56128W        W17417  11.832   2.759   4.737
56129W        W17418   9.249  32.082   9.540
56130W        W17419   3.767   1.324   1.340
56131W        W17420   2.427  34.063  12.351
56132W        W17421  44.865   8.267  13.830
56133W        W17422   8.699  42.870   3.301
56134W        W17423  36.900  26.085   1.896
56135W        W17424   3.724  12.698   3.870
56136W        W17425   7.278  15.823   1.930
56137W        W17426  14.698  35.938   0.763
56138W        W17427   6.711  19.108   0.400
56139W        W17428  25.480  16.192  10.904
56140W        W17429  44.288  31.910  11.900
56141W        W17430  40.512  38.890   5.280
56142W        W17431  13.741  25.712   2.714
56143W        W17432  42.937  21.063  13.346
56144W        W17433  44.846  13.749  14.328
56145W        W17434   0.949  41.993   4.688
56146W        W17435  15.115  37.839  12.955
56147W        W17436  28.608  21.654  14.378
56148W        W17437  15.102  33.489  13.535
56149W        W17438   5.292   4.349  13.052
56150W        W17439   7.190  26.992   1.218
56151W        W17440  17.626   9.183  13.013
56152W        W17441  12.683   2.818  13.063
56153W        W17442  42.992  18.130   2.268
56154W        W17443  13.224  28.115   2.880
56155W        W17444  43.500  27.480   4.828
56156W        W17445  41.009  11.365   2.190
56157W        W17446  39.855  13.737  13.983
56158W        W17447  12.781  31.073  11.466
56159W        W17448  11.255  11.729  10.589
56160W        W17449  35.924  30.486   3.153
56161W        W17450  27.592  19.588   3.679
56162W        W17451   9.333  42.934   4.350
56163W        W17452  10.334  33.526   9.518
56164W        W17453   3.840  43.918   3.650
56165W        W17454  42.787  15.706   2.233
56166W        W17455  16.168  29.669   4.249
56167W        W17456  43.327  32.618  14.028
56168W        W17457   1.337  22.172  11.066
56169W        W17458  25.608  42.879  10.436
56170W        W17459  11.705   0.824  13.826
56171W        W17460  33.529   2.877   1.302
56172W        W17461  29.973  29.024  14.393
56173W        W17462  28.168  21.095   4.326
56174W        W17463  41.004  21.646   4.688
56175W        W17464   4.313  38.382   4.237
56176W        W17465  33.940  35.360  13.545
56177W        W17466  27.581  41.495   1.296
56178W        W17467  23.002  20.204  12.458
56179W        W17468   6.882  18.675  11.545
56180W        W17469  23.615  19.597  11.429
56181W        W17470   3.881  28.064   0.319
56182W        W17471   2.761  28.135  13.404
56183W        W17472  14.676  34.936  11.065
56184W        W17473  31.022  25.163   3.165
56185W        W17474   8.897  30.448  11.404
56186W        W17475   2.957  18.639  11.491
56187W        W17476  25.553   7.758   1.807
56188W        W17477  29.124  39.973   1.918
56189W        W17478  19.071  32.582  13.052
56190W        W17479  21.212  39.035   5.129
56191W        W17480  29.490   6.267  11.602
56192W        W17481  32.001  40.973   0.289
56193W        W17482  30.079  40.359  11.982
56194W        W17483  41.528   4.247   2.847
56195W        W17484  27.594  34.084   3.366
56196W        W17485   7.205  21.254  13.924
56197W        W17486   2.723   4.431  13.842
56198W        W17487  33.574  21.146  14.765
56199W        W17488   2.858  20.200   4.319
56200W        W17489  24.587  15.786  11.034
56201W        W17490  18.646  10.650   3.214
56202W        W17491   8.860   8.275  11.010
56203W        W17492  25.140  40.839  13.923
56204W        W17493  28.019  11.242  12.093
56205W        W17494  39.470  30.018   2.337
56206W        W17495  21.172  38.526   1.398
56207W        W17496  16.749   6.260  13.889
56208W        W17497  28.003  12.125   9.461
56209W        W17498  17.766  24.637  14.898
56210W        W17499  28.958  32.448  11.933
56211W        W17500  24.149  17.266   3.678
56212W        W17501  28.038  19.665   4.301
56213W        W17502  41.873  23.632  10.044
56214W        W17503   8.395  11.639  13.970
56215W        W17504   8.368  28.147   0.825
56216W        W17505   7.365  26.568  12.052
56217W        W17506  13.329   2.310   1.276
56218W        W17507   3.881  43.928  10.415
56219W        W17508  26.561  23.194  13.388
56220W        W17509  14.606   3.417   2.813
56221W        W17510  28.534  30.523   4.224
56222W        W17511   5.396  43.455  10.999
56223W        W17512  42.935   7.233  14.380
56224W        W17513  24.521  33.024   3.190
56225W        W17514  41.871  38.884   0.451
56226W        W17515   7.681   3.804   0.854
56227W        W17516   8.232  15.254  10.623
56228W        W17517  35.990  23.549  11.482
56229W        W17518  43.471  33.082  14.363
56230W        W17519   4.770  37.086  10.486
56231W        W17520   1.922  37.934   3.228
56232W        W17521  12.191  44.961   9.957
56233W        W17522  36.974  27.148   3.240
56234W        W17523  14.616   5.250  14.997
56235W        W17524  22.686   0.834   3.781
56236W        W17525   7.400  32.995  14.879
56237W        W17526  30.473   5.815   3.807
56238W        W17527   5.370  21.028   0.400
56239W        W17528  10.688  42.289  12.941
56240W        W17529   6.231  12.789   1.234
56241W        W17530  21.654  30.645   3.363
56242W        W17531   2.302  35.528  12.081
56243W        W17532  41.024  36.890  11.446
56244W        W17533   5.811  26.981  10.477
56245W        W17534  24.622   3.328   2.256
56246W        W17535   2.901   6.891   4.116
56247W        W17536   2.962  36.514  14.818
56248W        W17537  26.020  35.063  11.997
56249W        W17538   6.305  19.721  14.820
56250W        W17539   9.302  25.704   4.271
56251W        W17540  37.033   4.864   4.250
56252W        W17541  31.601  24.198   3.809
56253W        W17542   2.323  41.997   3.870
56254W        W17543   3.768   2.892   3.279
56255W        W17544  44.432  30.071   1.254
56256W        W17545  12.338  25.061  10.482
56257W        W17546  29.146  38.949  14.902
56258W        W17547  36.863  12.813  15.000
56259W        W17548  20.529  12.166   1.910
56260W        W17549  17.299  34.461   2.749
56261W        W17550  40.531  12.621  14.030
56262W        W17551  20.712  32.018  10.952
56263W        W17552  38.360  22.526   0.466
56264W        W17553   6.301   3.784  13.950
56265W        W17554  38.066  11.194   0.267
56266W        W17555  33.973  27.461  11.425
56267W        W17556  13.205  38.359   2.216
56268W        W17557   0.936  31.967   4.731
56269W        W17558  13.273  25.173   5.160
56270W        W17559  23.041   7.687  11.479
56271W        W17560   5.913   4.837  10.939
56272W        W17561  39.527  40.391  13.493
56273W        W17562   4.745   8.346   1.876
56274W        W17563  35.042  26.155   3.733
56275W        W17564  36.995  28.061  11.542
56276W        W17565  44.278  39.058   3.167
56277W        W17566  11.730  20.232   4.740
56278W        W17567  40.936  11.242   0.342
56279W        W17568  23.162  29.472  11.525
56280W        W17569   8.806   4.353   2.702
56281W        W17570   7.384   9.301   4.257
56282W        W17571   1.477  24.697   3.845
56283W        W17572  25.583   3.907  11.998
56284W        W17573  35.389  21.696  14.017
56285W        W17574   4.811  27.651  14.289
56286W        W17575  36.041   8.689  12.989
56287W        W17576   4.778  11.745  11.894
56288W        W17577   7.797  14.639  12.521
56289W        W17578   1.903  34.416   0.335
56290W        W17579   4.318  29.605   2.764
56291W        W17580  39.505  23.626   0.363
56292W        W17581   9.149  41.527   0.862
56293W        W17582  43.011  32.464   3.696
56294W        W17583  38.858  43.780   0.955
56295W        W17584   3.432  40.029   2.902
56296W        W17585  37.984  17.677   2.665
56297W        W17586  21.205  25.690   3.659
56298W        W17587  32.929  15.806   4.248
56299W        W17588   9.822  29.468   0.377
56300W        W17589  36.582  34.045   0.920
56301W        W17590  18.703  44.386  13.494
56302W        W17591  41.968  31.577   3.780
56303W        W17592  22.524  33.125   1.386
56304W        W17593  25.062  35.862   2.859
56305W        W17594  18.153  38.063  13.846
56306W        W17595  23.643  24.216   4.300
56307W        W17596  41.949  28.617   1.812
56308W        W17597  13.644  27.139   4.758
56309W        W17598  42.471  39.462  12.073
56310W        W17599  42.888  25.554   0.247
56311W        W17600   1.889  15.272   1.714
56312W        W17601   4.710  25.205   5.152
56313W        W17602  23.625  28.130  13.353
56314W        W17603   0.293  43.811   0.926
56315W        W17604   3.316  34.409  14.400
56316W        W17605  24.482  44.274  14.286
56317W        W17606  33.463   6.290  12.057
56318W        W17607  18.722   3.296   4.251
56319W        W17608  29.582   0.483   4.691
56320W        W17609  17.189  22.598  11.407
56321W        W17610   7.854  14.194   4.747
56322W        W17611  21.667   9.879  10.491
56323W        W17612  31.446  38.454  12.892
56324W        W17613   1.732  13.810  13.001
56325W        W17614  39.392  25.571   2.368
56326W        W17615  14.268   7.378  13.880
56327W        W17616  35.529   1.312  14.385
56328W        W17617  14.783  15.121   2.880
56329W        W17618  32.575   7.201  14.854
56330W        W17619  13.220  16.800  14.391
56331W        W17620  33.508  31.473  14.865
56332W        W17621  15.586  25.029  12.413
56333W        W17622  21.129  10.837  12.084
56334W        W17623  18.602  23.657   4.151
56335W        W17624   9.840  21.548   1.867
56336W        W17625  30.595  12.741   0.736
56337W        W17626   5.696  13.231  10.458
56338W        W17627  22.234  33.887   3.321
56339W        W17628  27.692  39.490  12.359
56340W        W17629  39.813   9.270   1.405
56341W        W17630  34.923  34.471   2.741
56342W        W17631  15.086  20.549   0.285
56343W        W17632   0.293   0.270   0.944
56344W        W17633  42.415  18.195   4.720
56345W        W17634  33.016  32.478   0.814
56346W        W17635  39.023  19.714   2.190
56347W        W17636  16.602  35.422  13.988
56348W        W17637  44.380   3.430  12.862
56349W        W17638  24.602  30.474   1.896
56350W        W17639  21.176  33.458  14.772
56351W        W17640   0.258  11.291  10.506
56352W        W17641  31.904  29.026  13.457
56353W        W17642  33.071  31.965  12.031
56354W        W17643  26.205  20.760   4.232
56355W        W17644  41.983  41.350  13.928
56356W        W17645   0.355  37.086   2.399
56357W        W17646  26.180  17.704  14.967
56358W        W17647  40.395  21.512  12.926
56359W        W17648  42.380  26.131  12.535
56360W        W17649   2.829  11.681   0.760
56361W        W17650  13.313   3.292  11.055
56362W        W17651  14.212  35.869   1.285
56363W        W17652  34.116  32.398   0.894
56364W        W17653  39.342   2.930   0.459
56365W        W17654  25.648  25.636   3.720
56366W        W17655  16.240  17.303  10.634
56367W        W17656  24.598  31.532   1.412
56368W        W17657  44.790  23.650  10.455
56369W        W17658  40.458  37.558  11.374
56370W        W17659  11.770  14.266  14.030
56371W        W17660  32.621  23.000  13.000
56372W        W17661  24.225  43.474  14.325
56373W        W17662  24.043  14.751  11.122
56374W        W17663  10.878  44.505  12.945
56375W        W17664  43.865  42.474   1.254
56376W        W17665  18.746  22.532  14.775
56377W        W17666  38.850  11.237   1.235
56378W        W17667  44.804  25.134   0.466
56379W        W17668  42.841  25.067   4.120
56380W        W17669  28.166  16.236   2.667
56381W        W17670  42.902  38.383  14.515
56382W        W17671  16.295  14.121   2.893
56383W        W17672  12.203   9.725   1.237
56384W        W17673   3.319   7.682   2.841
56385W        W17674  18.736  15.089  14.420
56386W        W17675  10.874   7.377   4.118
56387W        W17676  22.711   1.874   0.319
56388W        W17677  24.652  11.752  10.412
56389W        W17678  21.123  41.838   0.452
56390W        W17679  24.201  27.959   3.662
56391W        W17680  22.617   4.927  13.338
56392W        W17681   7.207   0.940   3.241
56393W        W17682   4.903   4.852  14.000
56394W        W17683  36.397  44.000   0.864
56395W        W17684   1.868  18.550  13.848
56396W        W17685  36.511   4.416   2.880
56397W        W17686  18.235   6.716  10.576
56398W        W17687  23.665  22.699  11.490
56399W        W17688   5.865  15.098  11.546
56400W        W17689  12.347  27.500  14.822
56401W        W17690  27.479  34.371   1.811
56402W        W17691  38.829   4.240  12.341
56403W        W17692  33.430  14.834   3.725
56404W        W17693   7.205   1.854   2.275
56405W        W17694  44.338   4.344  10.490
56406W        W17695   1.852  23.101   3.757
56407W        W17696   0.904  13.241   4.335
56408W        W17697  35.948   6.358  10.497
56409W        W17698  30.045  39.876   4.792
56410W        W17699  18.554  19.230  11.400
56411W        W17700  41.396   2.244   4.263
56412W        W17701  16.152  18.190   2.670
56413W        W17702   3.327  26.186   1.450
56414W        W17703  13.653  22.190   0.848
56415W        W17704  44.853  16.093   2.839
56416W        W17705  16.655  21.590   1.821
56417W        W17706  18.614  38.958  13.504
56418W        W17707  36.990  18.184  13.840
56419W        W17708  22.587  30.628   2.879
56420W        W17709  29.469  32.056  13.496
56421W        W17710   3.392  10.263   3.777
56422W        W17711  31.554  13.780  11.998
56423W        W17712  42.472   8.294   9.569
56424W        W17713  26.686  10.788  10.898
56425W        W17714  16.709  41.808   1.742
56426W        W17715  41.446   8.313   2.215
56427W        W17716  26.628   7.312  12.062
56428W        W17717  15.744   7.866  10.478
56429W        W17718  25.071  41.384   1.217
56430W        W17719  43.471   4.849   2.729
56431W        W17720  16.093  14.185   2.255
56432W        W17721  32.128  11.674  12.559
56433W        W17722  10.871  25.018  11.958
56434W        W17723   2.930  18.082  13.995
56435W        W17724  28.973  29.538   2.835
56436W        W17725  32.476  38.946  11.036
56437W        W17726  14.820  18.202  10.951
56438W        W17727  31.440   7.880  14.469
56439W        W17728  41.528  11.335   3.269
56440W        W17729  32.390   4.849   1.390
56441W        W17730   9.669   4.761  10.507
56442W        W17731  19.673  14.115   4.299
56443W        W17732  29.533  12.838   4.646
56444W        W17733  14.328  38.549   2.814
56445W        W17734  17.567  39.431   3.375
56446W        W17735  24.499   3.240   9.928
56447W        W17736  11.747   0.343   3.767
56448W        W17737  14.119  36.439   3.159
56449W        W17738  27.452  43.778   0.729
56450W        W17739  36.026  38.838   2.356
56451W        W17740  22.104  10.864  12.912
56452W        W17741   9.353  30.921   2.214
56453W        W17742  24.603  29.995  13.808
56454W        W17743  43.451  14.658   0.738
56455W        W17744  26.969  36.354   1.368
56456W        W17745  27.573  39.556   1.230
56457W        W17746   8.179  33.538  12.368
56458W        W17747  13.250  32.448  12.863
56459W        W17748  44.475   8.786   5.121
56460W        W17749  44.939   1.351  11.995
56461W        W17750  39.941  22.078  13.483
56462W        W17751  31.082   3.744   0.274
56463W        W17752   0.257  14.776  13.813
56464W        W17753  14.731   2.249  14.418
56465W        W17754  18.575  37.929   2.346
56466W        W17755  41.983  10.809  11.490
56467W        W17756   3.822  12.633  12.557
56468W        W17757   1.252   8.792  11.125
56469W        W17758   0.328  43.368  13.481
56470W        W17759   6.191  22.524  13.985
56471W        W17760   0.925   5.274   2.396
56472W        W17761   5.213  39.841  14.990
56473W        W17762   9.371  39.478   1.312
56474W        W17763  43.787  10.804  14.323
56475W        W17764  37.433   5.415  13.810
56476W        W17765  12.685  19.719   1.811
56477W        W17766  11.733  12.740   1.761
56478W        W17767  33.877  38.548  14.796
56479W        W17768  16.676   4.883  12.441
56480W        W17769  34.886  11.741   0.451
56481W        W17770  21.129  25.981   4.781
56482W        W17771  14.179   9.663  13.966
56483W        W17772  23.634   9.159   3.174
56484W        W17773  27.620  29.044   4.299
56485W        W17774  12.691  15.089   4.693
56486W        W17775  43.886  14.113  14.787
56487W        W17776  44.922  38.382   4.171
56488W        W17777   8.661  24.083  11.105
56489W        W17778  37.375  12.676  14.903
56490W        W17779  31.964  30.996   5.140
56491W        W17780  11.243  31.623  13.923
56492W        W17781   2.755   4.788  12.856
56493W        W17782  11.662  19.064  11.982
56494W        W17783  33.561  37.888  11.993
56495W        W17784  10.385   4.881   2.719
56496W        W17785  21.708  15.128   3.761
56497W        W17786  35.879  32.595  13.063
56498W        W17787   5.927  39.853   0.265
56499W        W17788  28.083  14.127   5.197
56500W        W17789  43.429  25.490  10.905
56501W        W17790  35.502  40.417  10.509
56502W        W17791  40.420  14.191   2.416
56503W        W17792  18.178  15.281  12.415
56504W        W17793  22.588  37.399  10.122
56505W        W17794  32.627  43.875   2.721
56506W        W17795  16.097   5.304   1.330
56507W        W17796   2.782   0.843  12.045
56508W        W17797  40.361  39.832  12.439
56509W        W17798   4.256  42.934   1.353
56510W        W17799  27.467  24.594   0.428
56511W        W17800   0.880  14.617   1.719
56512W        W17801  32.546  35.469  11.517
56513W        W17802  17.206  17.758  11.947
56514W        W17803   2.389  40.967   1.817
56515W        W17804  22.554  33.979   4.610
56516W        W17805  28.971   3.235  13.346
56517W        W17806  23.565   4.435   4.736
56518W        W17807   7.403  28.672  11.570
56519W        W17808   1.460  11.314  11.002
56520W        W17809  39.990  35.577  11.487
56521W        W17810  37.484  23.071   0.382
56522W        W17811   8.797  22.212  10.916
56523W        W17812  26.523  44.313   0.784
56524W        W17813  37.941  41.478   2.353
56525W        W17814  15.812   6.298  14.378
56526W        W17815   8.210  37.365  13.528
56527W        W17816  26.527  35.447   2.762
56528W        W17817  24.539  36.060  14.816
56529W        W17818  29.019  11.175  12.904
56530W        W17819   5.395  18.170  13.840
56531W        W17820  12.345  40.908  11.943
56532W        W17821  11.174  38.537  10.628
56533W        W17822  44.871  28.068  13.903
56534W        W17823  19.700  31.418  10.147
56535W        W17824   0.358  44.453   1.884
56536W        W17825  17.104   5.206  14.513
56537W        W17826   8.180   7.283   0.757
56538W        W17827  29.503  14.255   1.442
56539W        W17828  27.076  24.590  10.980
56540W        W17829   9.689  42.509   0.861
56541W        W17830  34.531  11.263  14.822
56542W        W17831   8.330   6.248   3.865
56543W        W17832  28.666   6.425   1.403
56544W        W17833  10.734  16.678  10.555
56545W        W17834  29.925  36.535   1.230
56546W        W17835  12.729   6.827  14.454
56547W        W17836  34.535  16.573  13.363
56548W        W17837   7.837  27.967   0.953
56549W        W17838  39.937  15.093  12.546
56550W        W17839  19.693  30.438  11.047
56551W        W17840  12.738  38.970  12.056
56552W        W17841  37.935  25.617  10.964
56553W        W17842  16.285  33.008  10.452
56554W        W17843  24.977  19.206  10.450
56555W        W17844  44.907  18.278   5.184
56556W        W17845  40.862   0.265   0.922
56557W        W17846   6.217  31.138  11.076
56558W        W17847  36.849  33.950  11.564
56559W        W17848  18.259  24.040   2.352
56560W        W17849  42.831  14.810   2.287
56561W        W17850  27.631  34.883  12.363
56562W        W17851  17.668  22.578  11.962
56563W        W17852  44.495   8.164   2.255
56564W        W17853  36.858   3.720  12.431
56565W        W17854   9.206   8.725   5.169
56566W        W17855  21.521  41.864   2.676
56567W        W17856  36.523  41.338  12.514
56568W        W17857  41.357  19.144   4.178
56569W        W17858  35.546  10.377  13.909
56570W        W17859  16.703  43.932  10.481
56571W        W17860  16.160  18.580   4.130
56572W        W17861  44.448  39.490  14.968
56573W        W17862  38.960  16.733   5.739
56574W        W17863  44.915  42.789  12.909
56575W        W17864   8.202  17.564   1.736
56576W        W17865  28.540  35.081  11.604
56577W        W17866  13.814  39.057  13.407
56578W        W17867  21.083  39.506   1.881
56579W        W17868  21.098  33.619   5.117
56580W        W17869   7.309  15.644   2.297
56581W        W17870   2.238   2.262   2.334
56582W        W17871   7.225   3.937  13.963
56583W        W17872  24.685  35.488   2.419
56584W        W17873  34.460  35.987   0.773
56585W        W17874  23.110  38.023   3.318
56586W        W17875  25.047  26.198  11.073
56587W        W17876  18.285  42.816   3.651
56588W        W17877  39.961  24.042   2.214
56589W        W17878  38.329   4.737   2.743
56590W        W17879  43.446   5.225   1.447
56591W        W17880   8.367  34.909  12.913
56592W        W17881   9.701   4.276   3.238
56593W        W17882  33.061  29.586  14.284
56594W        W17883  39.318   5.810  12.369
56595W        W17884  18.768  14.717  12.065
56596W        W17885   0.858  21.537   3.797
56597W        W17886  27.067  33.995   0.266
56598W        W17887  26.575   1.322  12.975
56599W        W17888  36.413  36.867   0.377
56600W        W17889   3.947  15.267  13.057
56601W        W17890   6.808  16.579  14.916
56602W        W17891  29.593  12.630   1.311
56603W        W17892  11.690  35.866  13.432
56604W        W17893  12.278  21.553  11.592
56605W        W17894  41.405  14.793   2.736
56606W        W17895  23.230  37.003   0.309
56607W        W17896  26.493  10.747   2.356
56608W        W17897   1.382  29.986   2.233
56609W        W17898  36.942  40.003  12.945
56610W        W17899  33.894  32.088   0.868
56611W        W17900  33.874  13.825   0.440
56612W        W17901  41.817  38.447   4.612
56613W        W17902  41.031  44.377   4.612
56614W        W17903   9.286  44.858  11.540
56615W        W17904  33.618  22.506   0.736
56616W        W17905  10.787  36.520   4.808
56617W        W17906  20.256   6.350   1.439
56618W        W17907  41.345  40.963  11.872
56619W        W17908  27.988  39.399   0.251
56620W        W17909   6.682   9.369   2.301
56621W        W17910  36.483  31.957   3.858
56622W        W17911   4.275  11.728   2.273
56623W        W17912  25.697  20.600   2.378
56624W        W17913  19.590  20.085   0.796
56625W        W17914  38.430  26.133  10.606
56626W        W17915  35.954  33.995  13.035
56627W        W17916  17.102  36.036   1.371
56628W        W17917  36.918  29.149   0.864
56629W        W17918  41.950  22.546   4.772
56630W        W17919   7.740  24.614   3.350
56631W        W17920  43.949  10.836  12.934
56632W        W17921  28.171  44.372   3.379
56633W        W17922  12.187  32.131  11.918
56634W        W17923  34.986  30.418   1.825
56635W        W17924   2.908  23.675   4.726
56636W        W17925  40.526  31.116  12.466
56637W        W17926   3.813   5.920   4.755
56638W        W17927  36.898  10.753  13.408
56639W        W17928  34.062   3.936   1.754
56640W        W17929  18.789  26.629   2.305
56641W        W17930  19.739  13.652  12.402
56642W        W17931  43.441   3.777   4.619
56643W        W17932  14.224  10.235   4.637
56644W        W17933  29.936  37.371  12.457
56645W        W17934  44.491  19.735  12.953
56646W        W17935  37.503  10.639  11.372
56647W        W17936   7.264  20.756  12.908
56648W        W17937  13.287  11.192  11.105
56649W        W17938  21.025   1.808  10.148
56650W        W17939  20.769  43.951  14.909
56651W        W17940  19.060  26.169  12.055
56652W        W17941  26.590   9.199  14.823
56653W        W17942  15.244  39.420   5.142
56654W        W17943  14.111   6.421   4.790
56655W        W17944   2.241   1.767  14.422
56656W        W17945  15.186  28.144  13.395
56657W        W17946  37.985  37.935   1.922
56658W        W17947  17.677  21.124  12.946
56659W        W17948  42.967  36.567  13.816
56660W        W17949   6.746  10.708   3.304
56661W        W17950  15.752  31.001  14.022
56662W        W17951  21.573  36.935   3.338
56663W        W17952  35.460  36.846   3.836
56664W        W17953  34.527  11.174   2.184
56665W        W17954  16.766  15.202  11.004
56666W        W17955  26.510  11.214   2.203
56667W        W17956  35.106  44.838  11.969
56668W        W17957  15.701   6.749   4.600
56669W        W17958   2.259  17.800   1.416
56670W        W17959  38.458  13.137   3.191
56671W        W17960  42.898  28.502   2.385
56672W        W17961  12.826  28.010  10.909
56673W        W17962  17.156  34.085  13.052
56674W        W17963  31.048  25.589  14.761
56675W        W17964  29.482  15.689  14.799
56676W        W17965  24.529  13.303  13.812
56677W        W17966  17.086  42.951   3.279
56678W        W17967  31.034  31.620  10.513
56679W        W17968  39.432  26.594  14.863
56680W        W17969  43.272  18.209   4.675
56681W        W17970  35.055   4.920  14.818
56682W        W17971  14.678  19.674  11.471
56683W        W17972  17.138   1.843   1.859
56684W        W17973   5.928   9.378   2.243
56685W        W17974  22.138  16.668   2.325
56686W        W17975   6.786  19.225   3.295
56687W        W17976  33.391  42.445  13.019
56688W        W17977  24.649  16.116   1.840
56689W        W17978   7.813  17.762   2.782
56690W        W17979  19.593  44.979  14.893
56691W        W17980  30.626  11.662  13.325
56692W        W17981  22.647  32.612  10.428
56693W        W17982  42.867  33.398  14.861
56694W        W17983  16.196   7.800  14.369
56695W        W17984  24.668   4.733  14.319
56696W        W17985  10.203  32.119   5.146
56697W        W17986  26.058  10.290  14.448
56698W        W17987  16.731  12.185  13.881
56699W        W17988   8.173  38.978  13.470
56700W        W17989  14.111  43.881   1.414
56701W        W17990  35.925  23.606  14.883
56702W        W17991  36.032  24.546  13.527
56703W        W17992  29.532  23.152   0.307
56704W        W17993  36.485  29.984   0.873
56705W        W17994  36.910   3.925   0.387
56706W        W17995  23.235  25.973  11.998
56707W        W17996  16.748  42.429  12.547
56708W        W17997  21.546   8.297   1.768
56709W        W17998  34.427   4.825   4.206
56710W        W17999   8.267  28.186   2.662
56711W        W18000   5.300  41.813   3.333
56712W        W18001  15.668  30.575   3.691
56713W        W18002  30.618  13.163  11.513
56714W        W18003  38.826   0.947  10.637
56715W        W18004  13.800  42.970   2.771
56716W        W18005   0.476  20.242  11.606
56717W        W18006  14.177  21.597   0.298
56718W        W18007  37.422   0.346  12.544
56719W        W18008   1.291   0.406  10.580
56720W        W18009  33.125   7.309  13.372
56721W        W18010  21.250  13.310  12.372
56722W        W18011   5.813   3.824   0.883
56723W        W18012   0.382   3.379  12.010
56724W        W18013  11.148  21.186  10.009
56725W        W18014  16.122  22.741   3.710
56726W        W18015  43.912   5.833  10.429
56727W        W18016  36.065  31.138  11.376
56728W        W18017   5.922   0.927   3.710
56729W        W18018  19.596  30.540   2.750
56730W        W18019   9.644  28.150   4.637
56731W        W18020   9.379  20.128  11.944
56732W        W18021  28.572  25.660   2.281
56733W        W18022  13.327   3.346   2.718
56734W        W18023  26.035  37.857  11.903
56735W        W18024   7.721  38.858  10.431
56736W        W18025  23.570  26.962  10.974
56737W        W18026  28.124   6.329  10.508
56738W        W18027  12.699   3.831  10.980
56739W        W18028   3.283  16.801  12.067
56740W        W18029  29.038  26.503   2.883
56741W        W18030  16.655  19.771  14.902
56742W        W18031  13.616  33.588   4.313
56743W        W18032  17.765  36.537  13.497
56744W        W18033  39.446   2.363   4.808
56745W        W18034   0.932  18.567  12.058
56746W        W18035  40.988  39.889  13.985
56747W        W18036  17.180  16.607   0.473
56748W        W18037   8.353  27.682  14.884
56749W        W18038  19.115  11.274   2.223
56750W        W18039  32.121   5.876   0.329
56751W        W18040  11.681  33.053  11.420
56752W        W18041   1.842  21.709  13.930
56753W        W18042  30.132   5.304  14.818
56754W        W18043  20.614  24.063  12.958
56755W        W18044  31.546  37.942   3.266
56756W        W18045  38.384   0.894   4.803
56757W        W18046  12.705  15.799  11.985
56758W        W18047  31.105  22.609  10.949
56759W        W18048  41.526  33.945  13.852
56760W        W18049  33.892  33.389  13.544
56761W        W18050   4.308  19.159   3.148
56762W        W18051   5.309  41.329  13.423
56763W        W18052  15.762  40.996   2.391
56764W        W18053  14.135   5.725   3.285
56765W        W18054  44.338  17.610   0.734
56766W        W18055  27.158  30.967   0.456
56767W        W18056   5.707  34.991  10.499
56768W        W18057   8.326  22.604  11.047
56769W        W18058  27.016   0.839   2.402
56770W        W18059   2.334  33.496   2.290
56771W        W18060  44.883   8.814   5.246
56772W        W18061  20.541   7.376   0.803
56773W        W18062  28.148  42.996   0.471
56774W        W18063  15.136  32.102  11.032
56775W        W18064  15.582  42.385   3.174
56776W        W18065   6.821  11.195  10.953
56777W        W18066  33.546   2.785  11.429
56778W        W18067  28.564  10.174   1.843
56779W        W18068   1.859   0.937  10.995
56780W        W18069  43.843  37.919   1.392
56781W        W18070  14.675  34.062  12.463
56782W        W18071  33.506  13.644   0.881
56783W        W18072   9.319  26.483   3.184
56784W        W18073  40.339  11.271   0.903
56785W        W18074  21.744  21.018   3.245
56786W        W18075  23.145  33.476  14.996
56787W        W18076   2.948  28.149   4.739
56788W        W18077   1.421  30.142  12.558
56789W        W18078  43.794  29.563  11.499
56790W        W18079  24.183  25.101  10.594
56791W        W18080   1.873  44.856   0.779
56792W        W18081  24.197  27.470  13.442
56793W        W18082  15.737  18.669   0.433
56794W        W18083   9.355  39.006   4.710
56795W        W18084  23.121  23.517  14.313
56796W        W18085  10.642  27.120  12.420
56797W        W18086  35.946  26.502   3.236
56798W        W18087  18.081  40.444  12.944
56799W        W18088  29.570  42.324   0.275
56800W        W18089   1.746  26.984  12.958
56801W        W18090  32.494  23.997  12.852
56802W        W18091  11.842  34.867  14.989
56803W        W18092  39.029  27.472   2.754
56804W        W18093  16.253   4.838  13.833
56805W        W18094  19.249  10.287  13.843
56806W        W18095  15.238  36.041   0.392
56807W        W18096  40.400   4.447   1.861
56808W        W18097  32.411   2.902  14.357
56809W        W18098  42.516  23.635   1.893
56810W        W18099  43.859  40.923   1.317
56811W        W18100  16.746   6.372  11.484
56812W        W18101  25.637  40.331   2.281
56813W        W18102  40.960  34.024  13.965
56814W        W18103  23.590  40.872   2.754
56815W        W18104  17.130   3.257   2.409
56816W        W18105  17.570  43.495   0.412
56817W        W18106  19.175  18.225   2.792
56818W        W18107   7.876  11.284  13.796
56819W        W18108  32.550  28.152   9.957
56820W        W18109  16.766  28.661  14.373
56821W        W18110  29.557  16.247   4.832
56822W        W18111  20.246   2.852  14.016
56823W        W18112  33.033  31.578   1.403
56824W        W18113  16.205  21.737   0.352
56825W        W18114  33.097   8.390  13.309
56826W        W18115   6.307  31.630   2.178
56827W        W18116  44.943  41.536   0.745
56828W        W18117   9.361  35.936   5.284
56829W        W18118  42.907  17.718   1.833
56830W        W18119  43.865  10.874   0.828
56831W        W18120   8.387  12.265   4.757
56832W        W18121  36.075   0.362  12.852
56833W        W18122  39.817  22.216   2.708
56834W        W18123   0.311  35.026  11.862
56835W        W18124  29.078  27.987  14.808
56836W        W18125  24.995  35.442   0.445
56837W        W18126  39.450  37.839   4.339
56838W        W18127  17.207  14.779   1.436
56839W        W18128  36.925   5.764   3.161
56840W        W18129  39.845  18.613   0.433
56841W        W18130  20.257  32.141  13.407
56842W        W18131  12.669  36.992  13.386
56843W        W18132   1.395  12.634  12.997
56844W        W18133  25.963  42.989   1.340
56845W        W18134  43.324  21.708  10.501
56846W        W18135  41.926  35.546   2.263
56847W        W18136  26.467  31.445   3.845
56848W        W18137  10.379  38.355  14.309
56849W        W18138   3.745  30.968  11.420
56850W        W18139  18.116   7.284  11.079
56851W        W18140   7.416  13.676   0.849
56852W        W18141   5.756  13.834  10.470
56853W        W18142  27.585  12.159   0.375
56854W        W18143  11.236  10.722   3.851
56855W        W18144  16.092   8.664  11.029
56856W        W18145   9.176  13.137   4.280
56857W        W18146  26.089  17.714   1.313
56858W        W18147  34.369  38.832   1.419
56859W        W18148  37.011  38.952  11.587
56860W        W18149   3.885  31.133   3.378
56861W        W18150  21.122  12.750  14.379
56862W        W18151   0.322  15.258  14.303
56863W        W18152   9.873  25.206  12.396
56864W        W18153   9.870  34.995  11.996
56865W        W18154  27.659  26.692   0.301
56866W        W18155  36.389  11.339  14.362
56867W        W18156   4.919   3.307  11.514
56868W        W18157   6.679  26.517   3.309
56869W        W18158  40.962  21.169  11.912
56870W        W18159  18.100  29.528   2.412
56871W        W18160  27.491   5.906   1.854
56872W        W18161  20.243  16.235  14.973
56873W        W18162  25.996  28.962  13.403
56874W        W18163   9.182  36.501   4.201
56875W        W18164  41.904   2.772  13.310
56876W        W18165  14.798  43.490  12.343
56877W        W18166   3.367  37.063  14.023
56878W        W18167  21.138  28.435  10.586
56879W        W18168   6.359  39.014  10.001
56880W        W18169   6.389  11.203   4.833
56881W        W18170   0.375  30.447   2.292
56882W        W18171  33.414  43.875   0.787
56883W        W18172  21.693  16.761  11.494
56884W        W18173  23.232  18.558  14.026
56885W        W18174  37.983  22.519   3.305
56886W        W18175  26.178  20.151  13.824
56887W        W18176  32.464  31.536   4.682
56888W        W18177  15.293   5.895   3.729
56889W        W18178  22.185   2.757  11.900
56890W        W18179  22.122  21.131   4.277
56891W        W18180  18.780  17.306   3.827
56892W        W18181  38.067  38.548  11.088
56893W        W18182   3.314  31.450  11.401
56894W        W18183  24.102  11.162   4.261
56895W        W18184  23.077  40.872   1.848
56896W        W18185  30.621  39.476   2.676
56897W        W18186  19.754  11.208   4.308
56898W        W18187  25.101  36.435  12.898
56899W        W18188  14.172   2.233  13.840
56900W        W18189  26.058  16.214  13.312
56901W        W18190   2.417  30.983   2.338
56902W        W18191  26.552  10.200  13.316
56903W        W18192  11.354   7.299  13.854
56904W        W18193  31.474  31.958   3.778
56905W        W18194  10.795  43.852  11.492
56906W        W18195  25.661  14.797   0.400
56907W        W18196  37.410  39.062   2.769
56908W        W18197  21.733  13.106  13.510
56909W        W18198  38.845  35.562  11.049
56910W        W18199  23.506  21.557   0.451
56911W        W18200   2.919  34.104   2.256
56912W        W18201  39.065  27.626   4.688
56913W        W18202   9.365  37.491   0.378
56914W        W18203  39.387  15.273   3.870
56915W        W18204  14.669  16.097   3.700
56916W        W18205  26.499  10.736   3.824
56917W        W18206  33.943   8.857  13.910
56918W        W18207  22.075  31.437  11.024
56919W        W18208  14.767  34.379  12.024
56920W        W18209  42.966  23.052  10.931
56921W        W18210  13.348  15.824   2.746
56922W        W18211  22.208  17.249   4.137
56923W        W18212  37.396  15.657  12.948
56924W        W18213  17.150  40.929  14.018
56925W        W18214  41.355  30.542  14.454
56926W        W18215   1.940  42.376   4.680
56927W        W18216  36.578   7.815   2.198
56928W        W18217  32.068  35.916  13.961
56929W        W18218   2.938  17.702  10.911
56930W        W18219  11.707  34.404  13.997
56931W        W18220  19.604  31.132   0.827
56932W        W18221  23.518  38.076  14.512
56933W        W18222  21.700  36.393  13.997
56934W        W18223  30.935  43.479   2.280
56935W        W18224  37.356  14.798  13.338
56936W        W18225  26.043  41.026  13.347
56937W        W18226   2.903  29.519   1.361
56938W        W18227  30.931  13.611   1.285
56939W        W18228  15.665  41.502  10.513
56940W        W18229  36.531   3.753   2.203
56941W        W18230  11.247   9.884   0.903
56942W        W18231   4.255  34.012   3.368
56943W        W18232   5.335  42.466   4.132
56944W        W18233   3.340  38.847  12.464
56945W        W18234   3.300  30.928   5.208
56946W        W18235  13.349  43.938   0.742
56947W        W18236  42.783  39.360  12.905
56948W        W18237  12.772   2.794   5.712
56949W        W18238  37.574  33.898   3.356
56950W        W18239  33.380   1.400  11.450
56951W        W18240  10.167  23.150   2.202
56952W        W18241  11.258  23.576  13.399
56953W        W18242  38.412  21.540   2.298
56954W        W18243  12.142  40.367   1.368
56955W        W18244  11.316  17.192  13.397
56956W        W18245   1.904   0.274   1.730
56957W        W18246  37.384  35.430   1.713
56958W        W18247  18.715   7.396   0.773
56959W        W18248  34.378   1.863  14.777
56960W        W18249   6.828  23.719   2.785
56961W        W18250  20.243  12.741   0.915
56962W        W18251   7.255  33.066  11.035
56963W        W18252  37.834  29.992   2.321
56964W        W18253  33.889  43.458   3.780
56965W        W18254  39.355  28.026   4.631
56966W        W18255  34.432  27.048   1.902
56967W        W18256  24.122   4.405  13.345
56968W        W18257  12.724  10.327  13.936
56969W        W18258   2.836   9.201   2.862
56970W        W18259  10.864  14.301  14.853
56971W        W18260   5.367  11.234   3.773
56972W        W18261   5.896  16.218   2.357
56973W        W18262  12.341   6.821   2.204
56974W        W18263  17.092  14.329  13.927
56975W        W18264  17.205  10.360  14.958
56976W        W18265  21.593  27.453  11.954
56977W        W18266  37.411  15.090  12.831
56978W        W18267   1.313   7.208  13.458
56979W        W18268   8.220  10.296  11.500
56980W        W18269  24.550   0.387   3.657
56981W        W18270  28.093  24.061  10.531
56982W        W18271  43.773  35.515   4.146
56983W        W18272  20.590  17.751   0.322
56984W        W18273   6.259  23.687  10.560
56985W        W18274  31.989  42.284  14.499
56986W        W18275   9.206  43.305   1.400
56987W        W18276  40.353  23.490  11.007
56988W        W18277   9.344   9.160  12.839
56989W        W18278  25.686   7.252  10.439
56990W        W18279  44.501  22.125   4.326
56991W        W18280  22.518  43.479   4.725
56992W        W18281  21.595  13.840  13.977
56993W        W18282  21.668  29.934  10.475
56994W        W18283  13.710   7.171  10.576
56995W        W18284  22.153  17.113   2.269
56996W        W18285  33.383   4.821   0.951
56997W        W18286  34.873  23.211  14.963
56998W        W18287  34.578   3.381   2.346
56999W        W18288  10.843  33.619  12.885
57000W        W18289  38.017  39.015  10.012
57001W        W18290  16.255  24.110   5.178
57002W        W18291  43.273  33.956  13.393
57003W        W18292   7.394  38.891  12.093
57004W        W18293  39.939  41.496   0.275
57005W        W18294  44.962  20.651   0.368
57006W        W18295   5.719   4.326   0.749
57007W        W18296  32.078  39.862  14.795
57008W        W18297  31.901   7.196  13.944
57009W        W18298  40.878  29.120   3.823
57010W        W18299  16.764  41.031   0.409
57011W        W18300  24.043  21.616   3.234
57012W        W18301   1.267  27.055  14.779
57013W        W18302  21.745   6.787   3.257
57014W        W18303  12.236  38.516   2.697
57015W        W18304   2.748  28.030   1.425
57016W        W18305  20.555  20.582   3.229
57017W        W18306  23.994  25.501  13.356
57018W        W18307  20.210  26.077  13.974
57019W        W18308  24.055  37.404  10.592
57020W        W18309  18.638  41.399  12.872
57021W        W18310  39.439  43.840  14.796
57022W        W18311  21.045  34.605   1.811
57023W        W18312  31.070  17.265  13.995
57024W        W18313  33.947  27.584  10.566
57025W        W18314  40.811  18.648  11.959
57026W        W18315  33.891   0.348   0.257
57027W        W18316   1.418  31.575   3.340
57028W        W18317  25.993  20.761  13.899
57029W        W18318   2.755   7.755  10.949
57030W        W18319  13.195   4.382   5.198
57031W        W18320  23.161  40.942  12.890
57032W        W18321   7.298  24.097  12.519
57033W        W18322  13.241  31.552  12.088
57034W        W18323  43.499  36.421   0.776
57035W        W18324  32.001  41.293   1.250
57036W        W18325  43.851  25.571   0.252
57037W        W18326  32.585  11.127  13.492
57038W        W18327  11.290  38.543  13.525
57039W        W18328  35.915  35.007  11.445
57040W        W18329  14.107  41.469   2.766
57041W        W18330  41.892  28.528   4.252
57042W        W18331  41.475   4.897  12.362
57043W        W18332  35.089  18.088   2.801
57044W        W18333  36.589  36.909  13.035
57045W        W18334  36.551  19.674   4.299
57046W        W18335  34.501  32.113   3.726
57047W        W18336  27.003  13.638   3.211
57048W        W18337  22.695  18.752  11.027
57049W        W18338  16.314   9.877  14.325
57050W        W18339  33.615  25.547  10.017
57051W        W18340  19.769   2.910   0.740
57052W        W18341  20.147  17.176  13.871
57053W        W18342  39.490  31.427   2.819
57054W        W18343  16.276  18.722   0.270
57055W        W18344  11.787  30.124  14.301
57056W        W18345   4.945  10.161  14.937
57057W        W18346  32.415  30.630  10.630
57058W        W18347  30.525  43.924  10.891
57059W        W18348  16.080  15.660   3.250
57060W        W18349  41.025  10.825   1.339
57061W        W18350   1.332   9.835   0.778
57062W        W18351  33.623  19.248  13.458
57063W        W18352  29.652  10.261  11.559
57064W        W18353  42.458  41.417  11.428
57065W        W18354   9.381  21.571   4.741
57066W        W18355  15.657  23.117   2.898
57067W        W18356   1.778  12.241   4.198
57068W        W18357  34.971  28.624   4.597
57069W        W18358  22.996  32.042  12.449
57070W        W18359   8.237   2.279   3.271
57071W        W18360  13.774  15.666   3.771
57072W        W18361   6.758  42.009   4.198
57073W        W18362  41.397  43.984   4.807
57074W        W18363  22.711  33.112   2.713
57075W        W18364  22.682  20.623  14.443
57076W        W18365   8.717  29.940   1.438
57077W        W18366  32.445  37.894  14.375
57078W        W18367  23.660  22.125   3.195
57079W        W18368   0.396   7.843  13.479
57080W        W18369  30.971  43.450  12.395
57081W        W18370  31.917  10.284   0.375
57082W        W18371  14.652  26.701   5.122
57083W        W18372  12.121  31.419  12.864
57084W        W18373   3.386   3.265  14.432
57085W        W18374  21.129  22.550  10.512
57086W        W18375  27.974  13.655   1.362
57087W        W18376  38.481  35.376   1.731
57088W        W18377  28.642  22.522   2.667
57089W        W18378  43.378  22.739  14.029
57090W        W18379  42.460  36.874  10.508
57091W        W18380  15.702   9.652   0.931
57092W        W18381  44.906  43.918   3.697
57093W        W18382   0.960  33.564  10.500
57094W        W18383  13.139  19.592   2.885
57095W        W18384   5.418  16.785  13.944
57096W        W18385  36.958   0.981  14.444
57097W        W18386  18.226  43.388   1.701
57098W        W18387  35.090  12.202   2.874
57099W        W18388   6.791  21.021   0.255
57100W        W18389  18.210   7.912  11.459
57101W        W18390   2.732  31.033   3.314
57102W        W18391  25.024  39.407   0.287
57103W        W18392  30.495  20.119  10.933
57104W        W18393  14.744   4.741   3.671
57105W        W18394  35.886  19.172  13.414
57106W        W18395  25.558   9.680   5.149
57107W        W18396  39.810   3.764  14.335
57108W        W18397  20.586  13.705   1.800
57109W        W18398  30.087  24.128   0.801
57110W        W18399   8.854  31.430   4.173
57111W        W18400  39.350   0.423   4.316
57112W        W18401  34.029   3.715  12.420
57113W        W18402   0.339  17.779   3.839
57114W        W18403  21.094  29.052   4.138
57115W        W18404  40.375  40.967   2.315
57116W        W18405  18.584  37.884   1.809
57117W        W18406   1.881  26.204   1.802
57118W        W18407  41.952  21.571  10.504
57119W        W18408  39.868  15.774  10.531
57120W        W18409  17.081  41.478   1.757
57121W        W18410  10.718   8.815  12.827
57122W        W18411  11.133  28.081   3.752
57123W        W18412  11.254  38.524   3.794
57124W        W18413  21.263  41.440  11.535
57125W        W18414  31.639  16.105   2.401
57126W        W18415   7.745  29.144   4.328
57127W        W18416  11.750   7.310   9.991
57128W        W18417  13.205   9.217  14.801
57129W        W18418  20.639  29.165   2.406
57130W        W18419   9.232  29.122  11.901
57131W        W18420  20.191  20.655  14.483
57132W        W18421  39.871  13.192   4.694
57133W        W18422   5.398  24.614  14.478
57134W        W18423  38.522  42.342  10.557
57135W        W18424  30.976  42.452  11.967
57136W        W18425  36.432  25.062  13.952
57137W        W18426  16.163  13.175   3.755
57138W        W18427  36.420  29.102  11.608
57139W        W18428  17.612  13.318   1.764
57140W        W18429  27.160  26.146   4.231
57141W        W18430   6.353  15.694   5.213
57142W        W18431  33.103  31.436   2.755
57143W        W18432  42.931  42.919  11.039
57144W        W18433  38.845  18.626  12.532
57145W        W18434  19.578  40.431   2.871
57146W        W18435  17.208  29.446   0.960
57147W        W18436  35.092  17.156   2.240
57148W        W18437  38.005  36.023   3.371
57149W        W18438  44.882   8.266   4.137
57150W        W18439  37.946  41.510  14.784
57151W        W18440  17.709  11.627  14.986
57152W        W18441  44.444  44.850  12.059
57153W        W18442  40.524  29.638  11.032
57154W        W18443  16.698   3.766  10.533
57155W        W18444  10.236   0.413   1.904
57156W        W18445  21.259   4.445   0.789
57157W        W18446  36.570   3.751   2.732
57158W        W18447  21.187   9.737  12.972
57159W        W18448   3.353  11.140  10.495
57160W        W18449  38.069  14.759   1.702
57161W        W18450  12.296  43.292  12.372
57162W        W18451  23.515  12.786  11.875
57163W        W18452  25.218  31.427   0.948
57164W        W18453  40.978  28.929  13.959
57165W        W18454  15.264  28.548  13.512
57166W        W18455  36.524  35.421   1.295
57167W        W18456   1.913   5.309   0.821
57168W        W18457   0.816   0.285  11.403
57169W        W18458  11.858  23.495  12.346
57170W        W18459  37.560  34.063   0.484
57171W        W18460  44.879   2.374  14.376
57172W        W18461  28.625  10.651   2.315
57173W        W18462  15.586   9.769   2.886
57174W        W18463  30.949  43.002   3.646
57175W        W18464  12.271  26.150   2.185
57176W        W18465  20.269  12.344   2.398
57177W        W18466  28.573  41.294  11.066
57178W        W18467  26.129  29.040   4.209
57179W        W18468  31.648   9.764   3.201
57180W        W18469   0.952  11.276  12.022
57181W        W18470  14.770  30.510  11.451
57182W        W18471  34.063   0.451   3.239
57183W        W18472  22.114  42.973  14.424
57184W        W18473  23.721  30.047  11.490
57185W        W18474  35.095   3.282   5.145
57186W        W18475  15.600  43.397   3.219
57187W        W18476  32.004  36.405   0.945
57188W        W18477  33.079  12.271  11.496
57189W        W18478  19.111  25.122  14.850
57190W        W18479  33.956  38.911  10.495
57191W        W18480   3.768  31.584   1.372
57192W        W18481   9.240  11.229  14.336
57193W        W18482   3.367   3.342   4.227
57194W        W18483   9.212  40.003   0.811
57195W        W18484  44.977  41.811   2.311
57196W        W18485  22.605  32.102   0.272
57197W        W18486  19.087   9.279  14.860
57198W        W18487   2.356   2.259  11.570
57199W        W18488   3.216  22.685   3.324
57200W        W18489   3.244   8.794   2.729
57201W        W18490  39.030  44.756   4.782
57202W        W18491   9.839  27.012   2.388
57203W        W18492  39.378  34.050  14.286
57204W        W18493  20.653  43.495   0.745
57205W        W18494   1.816  13.735  10.620
57206W        W18495  39.395  17.126  13.839
57207W        W18496  15.290  30.645  11.394
57208W        W18497  12.218  28.450   3.292
57209W        W18498  13.708  35.481  14.892
57210W        W18499  31.526  17.123   0.728
57211W        W18500  22.512  24.106   0.731
57212W        W18501  33.503  37.571  11.999
57213W        W18502   7.905  43.859   1.263
57214W        W18503   1.812  39.900   2.734
57215W        W18504  37.451   1.943  13.489
57216W        W18505  18.142  11.793  10.542
57217W        W18506   9.831  35.059   2.899
57218W        W18507  29.557  13.295   4.183
57219W        W18508  13.238  39.987  14.817
57220W        W18509  38.529  21.159  10.030
57221W        W18510  24.017  13.699   1.785
57222W        W18511   8.300   6.915   4.154
57223W        W18512  40.954   4.432  14.006
57224W        W18513  16.269  21.699   3.336
57225W        W18514  21.720  34.406  12.952
57226W        W18515  26.524  12.827  12.078
57227W        W18516  13.679   9.864  14.353
57228W        W18517  41.967   5.259   4.155
57229W        W18518  32.620   3.785   3.829
57230W        W18519  42.335   5.264  12.869
57231W        W18520  26.628  42.405  13.417
57232W        W18521  36.495  38.481  12.948
57233W        W18522  40.453   7.815   0.243
57234W        W18523  29.652  19.073  10.593
57235W        W18524  20.080  35.100  10.519
57236W        W18525  19.103   1.942  13.498
57237W        W18526   6.338  10.719   2.416
57238W        W18527  13.703  43.362   1.259
57239W        W18528  27.458  23.562   0.418
57240W        W18529  32.425  32.926   2.228
57241W        W18530  23.729   0.260  11.375
57242W        W18531  27.666  42.840  13.520
57243W        W18532  13.267  43.366  13.486
57244W        W18533  10.230   9.758   3.187
57245W        W18534  24.129  36.029   3.336
57246W        W18535  40.008   1.921   2.824
57247W        W18536  24.608  36.487   0.858
57248W        W18537  44.309  17.270   2.293
57249W        W18538  44.759  12.332  14.963
57250W        W18539  23.116  24.545  14.950
57251W        W18540   3.234  24.720   2.352
57252W        W18541   7.269  13.298   2.868
57253W        W18542   6.295  34.565   0.810
57254W        W18543  14.714  18.132   5.164
57255W        W18544  18.742   4.922  13.316
57256W        W18545  39.005  12.767  14.954
57257W        W18546   7.745  42.439  12.856
57258W        W18547  14.180  14.828   4.769
57259W        W18548  42.841  11.839   4.340
57260W        W18549  19.602  10.207  14.321
57261W        W18550  42.383  32.101   2.674
57262W        W18551  17.160  38.995  12.025
57263W        W18552   7.332   0.977  13.996
57264W        W18553  31.064   0.467   2.392
57265W        W18554  42.978   6.307   2.758
57266W        W18555  44.777  10.863   3.711
57267W        W18556   6.182  11.128  10.464
57268W        W18557  11.735  22.606   2.359
57269W        W18558  42.900  11.668  14.990
57270W        W18559   1.335  21.563  12.908
57271W        W18560  24.098  10.190   3.793
57272W        W18561  31.042  20.043   1.291
57273W        W18562  18.125   7.755  14.963
57274W        W18563  36.367  24.214  13.855
57275W        W18564   5.257  16.688  12.984
57276W        W18565   6.349  23.038   5.635
57277W        W18566  22.506  27.045  14.509
57278W        W18567  25.187  23.110  14.479
57279W        W18568   0.829  29.971  11.860
57280W        W18569  34.470   4.785   3.299
57281W        W18570  40.440  28.974  11.384
57282W        W18571  19.194  39.490   2.730
57283W        W18572   1.358  23.065  12.490
57284W        W18573  38.372  12.762   1.841
57285W        W18574  39.961  22.183   4.713
57286W        W18575   2.799  11.285   0.967
57287W        W18576  36.846  31.472   0.826
57288W        W18577  17.646  17.204  14.971
57289W        W18578  38.515  42.320  14.306
57290W        W18579  32.428  34.371  10.602
57291W        W18580  40.926   8.205  13.365
57292W        W18581  27.194  44.497  11.469
57293W        W18582  22.535   9.349  12.875
57294W        W18583  10.715  35.521   4.808
57295W        W18584   8.900  36.569  12.070
57296W        W18585  11.746   1.317   2.189
57297W        W18586  43.012  26.665  10.605
57298W        W18587  20.558  33.494  12.578
57299W        W18588  43.843   5.422  14.987
57300W        W18589  14.635  22.045  13.485
57301W        W18590  43.409  31.074  13.963
57302W        W18591  40.986  44.823   3.283
57303W        W18592  40.375  22.526   3.237
57304W        W18593  15.750  16.241   0.394
57305W        W18594  15.611  10.871   4.217
57306W        W18595  32.406  33.083   0.269
57307W        W18596  32.996  11.810   3.743
57308W        W18597  29.425  13.308   1.907
57309W        W18598  15.269   3.344   3.854
57310W        W18599  17.790  16.195   2.413
57311W        W18600  14.175  21.672  11.978
57312W        W18601  25.068  32.066  12.986
57313W        W18602  23.051  16.644  11.112
57314W        W18603  18.710  26.632  11.941
57315W        W18604  38.505  30.970   1.324
57316W        W18605  31.940  32.420  12.535
57317W        W18606  36.386  10.379  14.515
57318W        W18607  25.191  11.698  10.078
57319W        W18608  26.099  11.265  13.795
57320W        W18609  40.425   2.349   3.655
57321W        W18610  13.632   5.711   3.233
57322W        W18611  35.368  13.723   1.775
57323W        W18612   8.668   1.764  13.858
57324W        W18613   8.857  11.835   5.103
57325W        W18614  22.550  16.313   4.764
57326W        W18615  20.733  14.176  10.988
57327W        W18616  35.489  33.584  13.498
57328W        W18617  42.345   1.243   0.480
57329W        W18618   9.763  15.791   2.375
57330W        W18619  21.649  35.100   1.286
57331W        W18620  34.092  17.772   1.272
57332W        W18621  32.540  35.505   1.221
57333W        W18622  22.606  43.842   2.792
57334W        W18623  24.167  18.634   1.907
57335W        W18624   6.886  33.578   4.293
57336W        W18625  26.613  42.864  12.480
57337W        W18626  35.950  16.580   2.889
57338W        W18627  19.642  42.375   4.829
57339W        W18628  31.612   1.963   1.932
57340W        W18629   8.187  31.921  13.020
57341W        W18630  38.507  41.793   3.641
57342W        W18631  40.490  27.983   5.286
57343W        W18632  32.531  27.571  12.432
57344W        W18633  17.736   2.385  10.502
57345W        W18634   2.241  35.897   3.759
57346W        W18635  41.853  42.503  11.494
57347W        W18636   1.265   6.276   0.921
57348W        W18637  31.512  40.028  13.496
57349W        W18638  44.300  11.247   0.246
57350W        W18639  32.113   6.243  13.936
57351W        W18640  39.370   6.423   0.362
57352W        W18641  14.824  35.975  12.539
57353W        W18642  31.005  36.052   0.279
57354W        W18643   5.771  38.424  13.512
57355W        W18644  34.564   1.783   2.794
57356W        W18645   2.366   3.412   4.671
57357W        W18646   7.717  19.720   3.639
57358W        W18647  40.842  22.110   0.469
57359W        W18648  25.618   3.798   3.161
57360W        W18649  33.911   9.770   2.792
57361W        W18650   0.249  15.303   3.742
57362W        W18651  41.946  16.301  13.439
57363W        W18652   6.415   3.788   0.742
57364W        W18653   7.371  44.408  14.989
57365W        W18654  22.582  17.220  12.362
57366W        W18655  14.747  27.006   3.167
57367W        W18656   2.335  44.926  14.998
57368W        W18657  15.700   4.303  11.955
57369W        W18658  30.933  29.159  14.918
57370W        W18659  20.125  13.154  11.447
57371W        W18660  17.744   3.359   1.697
57372W        W18661   7.800   5.238  14.275
57373W        W18662   6.702  41.836  14.861
57374W        W18663  24.593  35.384   3.688
57375W        W18664  36.478  35.966  10.435
57376W        W18665  25.492  13.800  12.981
57377W        W18666  32.445  19.618  12.901
57378W        W18667  37.530  27.461   3.315
57379W        W18668  16.089  32.393  14.007
57380W        W18669   2.233  39.367  14.334
57381W        W18670  26.150  34.547   4.662
57382W        W18671   5.860  28.974  12.988
57383W        W18672  44.351  34.560  13.987
57384W        W18673  35.532  28.445  11.596
57385W        W18674  10.846  31.524   1.442
57386W        W18675  19.075  35.955   4.609
57387W        W18676   7.718   1.445  13.547
57388W        W18677   9.888  39.020  12.518
57389W        W18678   7.386  25.610   3.862
57390W        W18679  15.735  19.655   0.264
57391W        W18680  10.658   4.416   4.188
57392W        W18681  35.051  43.335   0.283
57393W        W18682  30.002   7.705  13.535
57394W        W18683  38.460   6.232   2.765
57395W        W18684  16.149  35.014  12.531
57396W        W18685   1.964   7.863  12.940
57397W        W18686  38.010  40.406   1.711
57398W        W18687   7.239  29.026  10.452
57399W        W18688   6.287  22.685   1.763
57400W        W18689  18.563   9.327  10.990
57401W        W18690  34.931  31.638   4.675
57402W        W18691  44.408  29.488  14.404
57403W        W18692   2.290   8.274   3.727
57404W        W18693  12.345  13.265   4.155
57405W        W18694  26.053  29.939  12.347
57406W        W18695  43.310  37.531  11.931
57407W        W18696   3.798  14.145  14.512
57408W        W18697  36.887  33.915  12.544
57409W        W18698  44.401  19.144  11.482
57410W        W18699   2.254   6.251  10.613
57411W        W18700  13.131  26.094   4.611
57412W        W18701  11.250  32.895   2.320
57413W        W18702  16.280  24.039   1.357
57414W        W18703  10.639  29.991  12.433
57415W        W18704  34.509  30.037  14.504
57416W        W18705  26.063  17.189   3.715
57417W        W18706  43.812  32.602   0.351
57418W        W18707  23.984  29.586   2.360
57419W        W18708  26.649  11.264   4.315
57420W        W18709   0.488  38.021   1.890
57421W        W18710  13.242   5.744  14.310
57422W        W18711   8.851   0.248   4.273
57423W        W18712   3.816  15.778   2.840
57424W        W18713   8.726  27.152  12.014
57425W        W18714  16.712  34.460   0.855
57426W        W18715  21.202   1.775  12.087
57427W        W18716  24.577  36.346  12.881
57428W        W18717  16.266  29.944  14.983
57429W        W18718   8.894  31.627   3.828
57430W        W18719  44.940  32.899  13.376
57431W        W18720  35.365  36.428  12.984
57432W        W18721   8.769  28.993  14.997
57433W        W18722  10.203  13.678   2.663
57434W        W18723   8.843   4.713   2.862
57435W        W18724  29.434  19.148   0.292
57436W        W18725  41.832  27.014   0.947
57437W        W18726  22.151  39.498   4.811
57438W        W18727  22.582  28.022  14.847
57439W        W18728  31.564  40.477   0.404
57440W        W18729  27.033   8.353  10.415
57441W        W18730   5.786  10.726   3.633
57442W        W18731  18.267  19.777   0.242
57443W        W18732  28.552  13.753   1.301
57444W        W18733  29.966  29.005   2.702
57445W        W18734  17.135  20.668   0.932
57446W        W18735   0.775  23.228  14.871
57447W        W18736  25.610  16.084  12.540
57448W        W18737  18.753  37.410   0.758
57449W        W18738  34.047   4.856  10.921
57450W        W18739  32.633   3.351   1.452
57451W        W18740  43.814   2.296  10.410
57452W        W18741  24.640  18.625   4.615
57453W        W18742  17.157  14.242  12.841
57454W        W18743   5.261  20.742  12.010
57455W        W18744  32.922  21.749  12.008
57456W        W18745   7.306  31.906   2.419
57457W        W18746  17.087  42.863   0.386
57458W        W18747  32.929  36.475  11.484
57459W        W18748   8.836   1.927  14.335
57460W        W18749  40.436   8.276   1.269
57461W        W18750  30.656  40.474  12.078
57462W        W18751  19.266   2.835   3.147
57463W        W18752  14.211  30.143   2.665
57464W        W18753  16.705   0.460  14.488
57465W        W18754  29.973  22.725   3.639
57466W        W18755  27.452  38.517   4.698
57467W        W18756  40.483  39.344  13.391
57468W        W18757  37.565  34.525  14.870
57469W        W18758   4.232   1.411   1.868
57470W        W18759  43.425   7.805   5.310
57471W        W18760  42.379  18.604  11.547
57472W        W18761  41.406  32.406   3.869
57473W        W18762  12.798  24.517   3.360
57474W        W18763  23.188  32.885  14.495
57475W        W18764  10.280  10.814   0.465
57476W        W18765   6.865  11.709   0.755
57477W        W18766  31.463  13.734   0.349
57478W        W18767  30.953  40.966   4.272
57479W        W18768  32.898  29.649   4.331
57480W        W18769  35.447  41.315   4.244
57481W        W18770  25.650  41.323   2.770
57482W        W18771   9.653  20.753  11.072
57483W        W18772   4.752  23.204  14.765
57484W        W18773   2.369  30.565  13.439
57485W        W18774  17.127   8.309   1.368
57486W        W18775  23.688  21.625   2.219
57487W        W18776  15.226  19.698  14.426
57488W        W18777  36.040  28.442   2.220
57489W        W18778  23.098  22.154   2.279
57490W        W18779  29.606  41.912  11.389
57491W        W18780  30.585  35.487  10.562
57492W        W18781  18.176  38.334  13.965
57493W        W18782  17.195  43.325  12.062
57494W        W18783  30.093  32.461  13.968
57495W        W18784  12.787  25.123   0.457
57496W        W18785  28.127   9.163  11.033
57497W        W18786  24.710   1.309   3.709
57498W        W18787  17.772  21.559  14.771
57499W        W18788  36.846  32.431  10.933
57500W        W18789  38.544  15.175   5.129
57501W        W18790   7.837   7.741  14.342
57502W        W18791  24.708  20.604  10.015
57503W        W18792  10.822  35.573  14.415
57504W        W18793  39.443  10.787  10.602
57505W        W18794  37.540  19.069   0.876
57506W        W18795  23.611  28.080   4.146
57507W        W18796   3.445   1.853   2.185
57508W        W18797  16.623   6.320  13.392
57509W        W18798   5.370  14.691  13.442
57510W        W18799  16.696  35.106   3.819
57511W        W18800  43.390  21.627  11.916
57512W        W18801  28.137  20.654  13.953
57513W        W18802  10.195  40.855   4.740
57514W        W18803  43.298  10.760   5.278
57515W        W18804  12.729  13.645  11.548
57516W        W18805   7.794   6.311  13.484
57517W        W18806  37.054   3.364   0.295
57518W        W18807  23.110  32.901  12.389
57519W        W18808  25.160  20.175  12.910
57520W        W18809  18.582  35.048  14.345
57521W        W18810  10.677  33.434  13.900
57522W        W18811  14.588   1.426   0.250
57523W        W18812  16.762  36.888   0.787
57524W        W18813  36.387  19.193  14.295
57525W        W18814  27.611  19.209  11.529
57526W        W18815  15.265  35.028  14.316
57527W        W18816   8.240  27.611   1.804
57528W        W18817  15.654   2.729  14.786
57529W        W18818  36.958  12.165  14.331
57530W        W18819  15.733   4.442   2.761
57531W        W18820  17.613  21.547   1.421
57532W        W18821  23.609  16.779   1.921
57533W        W18822  41.974  41.987  13.390
57534W        W18823  21.614  38.036   1.436
57535W        W18824  27.644  23.006   1.700
57536W        W18825   0.899  25.077  12.505
57537W        W18826  36.926  42.378   4.285
57538W        W18827  27.145  40.820  12.503
57539W        W18828  33.038  44.833  14.804
57540W        W18829  27.564  17.616   4.600
57541W        W18830  26.078  29.659  13.967
57542W        W18831   9.204  10.334  14.342
57543W        W18832  21.115  26.500   3.326
57544W        W18833  23.634   1.958   4.342
57545W        W18834  13.708  28.609  11.092
57546W        W18835  42.033  13.215   4.292
57547W        W18836   7.799  33.590   5.141
57548W        W18837  15.178  34.980  10.597
57549W        W18838  29.009  32.572  11.013
57550W        W18839  24.067  15.628  11.479
57551W        W18840  12.650   4.209  10.924
57552W        W18841  30.059  32.060  11.540
57553W        W18842   5.883  32.947   3.301
57554W        W18843  10.733  30.420  12.874
57555W        W18844   4.911  33.461  12.390
57556W        W18845  12.719  26.024   4.228
57557W        W18846  44.777   7.208   2.758
57558W        W18847   8.876  13.273  11.450
57559W        W18848  37.877  44.425  14.954
57560W        W18849   8.251  41.916   2.255
57561W        W18850  24.199   9.712  13.424
57562W        W18851  38.865  30.533   3.750
57563W        W18852  32.481   8.223   2.672
57564W        W18853   5.770   0.375   1.307
57565W        W18854   8.354  24.015   1.853
57566W        W18855   6.420  28.996   1.265
57567W        W18856   2.228  38.058  14.862
57568W        W18857  16.685   6.880  12.066
57569W        W18858  13.319   4.439  13.824
57570W        W18859   5.209   7.760  13.864
57571W        W18860  22.660  19.079  13.423
57572W        W18861  43.865  13.323   0.950
57573W        W18862  23.694  39.500   1.357
57574W        W18863   6.900  39.357   2.797
57575W        W18864  34.075  31.590   0.883
57576W        W18865  44.813  20.554  14.869
57577W        W18866   5.885  44.767  13.938
57578W        W18867  21.085  17.712  11.442
57579W        W18868   1.906  19.540   2.187
57580W        W18869   7.213  11.337  13.006
57581W        W18870  24.208  36.917   2.760
57582W        W18871  26.461   4.286  14.864
57583W        W18872  11.726  31.966  10.889
57584W        W18873   6.747  16.139  12.054
57585W        W18874  44.814   1.827   3.834
57586W        W18875   0.345  23.083  11.059
57587W        W18876  24.525  19.080   0.305
57588W        W18877  17.591  43.305  14.925
57589W        W18878  33.478   0.377  13.993
57590W        W18879  23.495  29.588  13.522
57591W        W18880  15.270  14.241   1.723
57592W        W18881  21.035  28.653   4.246
57593W        W18882   5.304  18.672   4.156
57594W        W18883  21.733  16.198  13.890
57595W        W18884  35.595   2.368   2.272
57596W        W18885  12.310  44.285   5.149
57597W        W18886  34.089  23.096   1.732
57598W        W18887  37.343  31.553   0.770
57599W        W18888   5.724   6.780   0.937
57600W        W18889  18.278  22.204   4.233
57601W        W18890  38.987   0.806  12.901
57602W        W18891  22.500  35.499  10.928
57603W        W18892  31.640  36.568   1.340
57604W        W18893  22.240  33.100  13.926
57605W        W18894  24.482   1.354   3.268
57606W        W18895  18.199  26.147   2.312
57607W        W18896  35.960  27.972  13.937
57608W        W18897  37.004  23.059  14.922
57609W        W18898  14.602  16.246  11.965
57610W        W18899  44.430  34.983   3.710
57611W        W18900   4.827  25.582  12.406
57612W        W18901  12.301  21.719   2.278
57613W        W18902   5.714  29.066   2.391
57614W        W18903  23.003   9.860  14.354
57615W        W18904  24.069  14.732   4.146
57616W        W18905  44.354  44.829   2.241
57617W        W18906  15.741  17.108   3.165
57618W        W18907  33.000  21.144  12.961
57619W        W18908  19.696   3.853  11.976
57620W        W18909  11.683  12.787   0.304
57621W        W18910   5.303  44.932  11.532
57622W        W18911  38.351   5.808   0.341
57623W        W18912  21.051  38.964  14.425
57624W        W18913  27.668   6.319   1.242
57625W        W18914  34.507   1.948   2.213
57626W        W18915  25.064   5.425   0.355
57627W        W18916   1.477  43.805  10.438
57628W        W18917  15.769   1.761  10.642
57629W        W18918  14.660  19.046   5.658
57630W        W18919  15.085  25.142  14.277
57631W        W18920  39.917  17.280  13.323
57632W        W18921  25.626  39.486  12.494
57633W        W18922   9.871  11.659  12.874
57634W        W18923  13.799   6.795   1.365
57635W        W18924  14.651  29.432   3.797
57636W        W18925  41.426  27.641  13.056
57637W        W18926  11.141  41.968  13.031
57638W        W18927  38.925  12.670   2.346
57639W        W18928  19.569  26.125   0.952
57640W        W18929   3.306   0.345  14.003
57641W        W18930   6.741  44.935  14.467
57642W        W18931  35.568  26.612   4.640
57643W        W18932   4.440  25.135  10.111
57644W        W18933  12.664  19.137  14.287
57645W        W18934   5.726  27.659   4.249
57646W        W18935  28.157  23.046  14.852
57647W        W18936  37.528   4.703   4.695
57648W        W18937  34.925  39.001   0.272
57649W        W18938  17.675  39.885   1.878
57650W        W18939   5.723  17.676   2.678
57651W        W18940   6.767  26.482   5.182
57652W        W18941  17.605  27.452   2.744
57653W        W18942  23.718  15.137  10.992
57654W        W18943  24.480  20.579  12.534
57655W        W18944  16.262  40.344   3.683
57656W        W18945   8.763  17.602   4.718
57657W        W18946  24.539  16.292   0.755
57658W        W18947  12.619  13.268  10.909
57659W        W18948  12.682  12.817  12.827
57660W        W18949   3.711  29.633  11.033
57661W        W18950   2.754  35.599  14.845
57662W        W18951  31.972  43.298  12.074
57663W        W18952  38.018   9.679  12.092
57664W        W18953  36.055  27.617  13.027
57665W        W18954  24.008  34.945  13.342
57666W        W18955  44.288  14.286  14.884
57667W        W18956  20.055   6.834   1.273
57668W        W18957   1.843   0.418  12.579
57669W        W18958  36.925  34.459   1.703
57670W        W18959   8.327   0.333  10.006
57671W        W18960  23.539   9.181   2.778
57672W        W18961  26.484  25.514   1.714
57673W        W18962  18.168   9.213   3.279
57674W        W18963  31.615  40.419  14.870
57675W        W18964  12.290  35.565  14.477
57676W        W18965   3.922  11.823   3.377
57677W        W18966  29.112  25.547  12.471
57678W        W18967  21.123  22.112  10.574
57679W        W18968  11.821  19.596   2.756
57680W        W18969  11.364  34.527   1.739
57681W        W18970  12.647   9.739   3.236
57682W        W18971   0.276   0.879   0.915
57683W        W18972   6.730  35.992   0.833
57684W        W18973  19.622  16.187   3.768
57685W        W18974  23.625  15.709  13.356
57686W        W18975  31.584  29.112  14.909
57687W        W18976  41.026  20.174   3.295
57688W        W18977  35.981  21.625   0.868
57689W        W18978  17.210  27.979  11.888
57690W        W18979  24.642   6.380  12.842
57691W        W18980  37.380   1.243  12.428
57692W        W18981  25.179  30.632   2.850
57693W        W18982  39.883  30.604   2.292
57694W        W18983  31.554   5.709   1.902
57695W        W18984  22.719  41.356  13.987
57696W        W18985  12.610  29.146   4.201
57697W        W18986  30.533  41.803   1.286
57698W        W18987  32.971  41.362   0.802
57699W        W18988  23.169  35.012   0.800
57700W        W18989   8.706  34.548   1.350
57701W        W18990  20.721   4.399   4.226
57702W        W18991  30.099  38.561   3.241
57703W        W18992  29.613  12.621   3.203
57704W        W18993  41.490  31.594   1.935
57705W        W18994  29.450  30.620  10.420
57706W        W18995   8.376  36.891  11.079
57707W        W18996   0.257  33.038   1.740
57708W        W18997   3.356   3.938   3.355
57709W        W18998  33.960  21.544   4.720
57710W        W18999  12.282  16.785   3.148
57711W        W19000  31.554  15.793  11.075
57712W        W19001  33.937  14.228   1.911
57713W        W19002  39.028  21.698  12.066
57714W        W19003   2.436  38.457  14.800
57715W        W19004  13.323  31.930  12.442
57716W        W19005  17.252  15.648  10.459
57717W        W19006  30.105  40.491   3.195
57718W        W19007   0.957  24.604  14.872
57719W        W19008  10.691  18.625   1.931
57720W        W19009  16.212   6.322   0.833
57721W        W19010   0.259  42.498   0.934
57722W        W19011  19.205  38.422   3.172
57723W        W19012   0.786  26.080   0.320
57724W        W19013  41.422  30.564   3.174
57725W        W19014   5.234  19.732  10.605
57726W        W19015  34.420  33.623  13.811
57727W        W19016  10.680  23.205  10.428
57728W        W19017  43.783   9.186   1.332
57729W        W19018  40.469  32.040   4.672
57730W        W19019  43.999   4.364  10.977
57731W        W19020  27.576  23.694   1.729
57732W        W19021  34.422  33.430   0.790
57733W        W19022  39.947   7.212   1.740
57734W        W19023  13.182  19.269   1.870
57735W        W19024  14.746  39.951  10.972
57736W        W19025   3.953  17.107  12.878
57737W        W19026  44.763   0.372  10.980
57738W        W19027  21.095  33.388   3.826
57739W        W19028  23.987   4.814  14.339
57740W        W19029  15.743  39.863   3.173
57741W        W19030  31.079  31.920   4.310
57742W        W19031  23.675  16.750   1.421
57743W        W19032   6.909  13.658   1.826
57744W        W19033  35.528  26.621  13.509
57745W        W19034  22.193  23.989   5.100
57746W        W19035  23.631  27.472  13.359
57747W        W19036  44.448  20.237   3.179
57748W        W19037  16.248  29.449   0.417
57749W        W19038  31.508  36.981  14.956
57750W        W19039  25.167   7.212  14.315
57751W        W19040   3.284  33.059  14.387
57752W        W19041  13.126  26.054   4.147
57753W        W19042  13.805  10.682  13.866
57754W        W19043  31.622   8.234   1.332
57755W        W19044  31.033  32.999   4.258
57756W        W19045  35.913  12.710  10.565
57757W        W19046  12.209  15.754  11.609
57758W        W19047   8.892  35.078   1.874
57759W        W19048  25.046  26.569   1.275
57760W        W19049  21.591  39.345  12.501
57761W        W19050   6.791  43.880   0.833
57762W        W19051   2.283   0.478   4.248
57763W        W19052  43.426   2.387   4.683
57764W        W19053   4.706  17.171   4.628
57765W        W19054  23.096   0.843  11.452
57766W        W19055  14.724   1.957   0.784
57767W        W19056  41.525  24.050  13.522
57768W        W19057  12.255   4.440  13.971
57769W        W19058  15.644  16.723  14.762
57770W        W19059   7.194  11.313   0.278
57771W        W19060  38.385   0.848  13.315
57772W        W19061  44.379   4.803  12.090
57773W        W19062  42.867   4.720  12.351
57774W        W19063  29.467   5.426   4.129
57775W        W19064  35.105   3.906  10.913
57776W        W19065   9.345  26.073  14.446
57777W        W19066  26.525  23.029   9.451
57778W        W19067  12.741   8.752   4.193
57779W        W19068  43.973  10.349  12.465
57780W        W19069  30.413   6.246   4.259
57781W        W19070   3.934  11.659  10.060
57782W        W19071  25.980   2.838  11.979
57783W        W19072  42.795  21.051  12.533
57784W        W19073  36.564  26.199  13.520
57785W        W19074   5.413  21.703   4.330
57786W        W19075  31.434   8.688   0.457
57787W        W19076   1.418   9.342   9.466
57788W        W19077   5.698  19.167  11.013
57789W        W19078   8.738  34.870  12.460
57790W        W19079  36.441  17.292   4.733
57791W        W19080  30.142  38.339  11.078
57792W        W19081  35.391   9.659   4.631
57793W        W19082  27.177  37.907  10.990
57794W        W19083   7.677  36.069  10.922
57795W        W19084  25.545  33.443  13.808
57796W        W19085  27.569  15.102   1.422
57797W        W19086   6.282  16.649  14.934
57798W        W19087  41.441  23.524   1.241
57799W        W19088  30.645  29.004   1.389
57800W        W19089  15.134   1.835  10.465
57801W        W19090  35.566  42.961   2.386
57802W        W19091  29.154   8.390   2.239
57803W        W19092  17.576  20.598   0.274
57804W        W19093  39.866  39.919  13.543
57805W        W19094  36.919  25.584   0.820
57806W        W19095  12.253   1.430  10.066
57807W        W19096  34.583  25.014   2.670
57808W        W19097  32.486  35.938   0.772
57809W        W19098  31.596  24.701   4.675
57810W        W19099  21.603  42.948   1.403
57811W        W19100  44.465  27.186   1.386
57812W        W19101  44.330  10.234   0.916
57813W        W19102  43.937  15.143   2.885
57814W        W19103  12.626  21.094  13.893
57815W        W19104   3.293  10.342  12.540
57816W        W19105  21.182   3.436  13.470
57817W        W19106   7.387  41.309   2.253
57818W        W19107  40.021  25.021  10.935
57819W        W19108  20.661  28.567  11.859
57820W        W19109  38.998  17.161  13.018
57821W        W19110  10.692   2.862   3.366
57822W        W19111  15.630  17.203  12.973
57823W        W19112  31.538   6.372   0.399
57824W        W19113  41.003   8.186  14.461
57825W        W19114  28.007  30.578   3.764
57826W        W19115  42.995  27.060   4.267
57827W        W19116  11.686  44.903   4.755
57828W        W19117  34.571   4.296   4.244
57829W        W19118  28.665   7.752   5.732
57830W        W19119  22.055   4.406  12.523
57831W        W19120  34.375   4.792   1.253
57832W        W19121  21.702  25.069   3.785
57833W        W19122  18.774  36.069  14.851
57834W        W19123  35.929  20.561  11.515
57835W        W19124   9.240   3.397   2.706
57836W        W19125  13.728  32.095   2.670
57837W        W19126  18.285   5.344  13.960
57838W        W19127  35.104   3.943   0.933
57839W        W19128  31.976  29.933   2.879
57840W        W19129  19.671  12.768  13.828
57841W        W19130  11.346  31.486  13.412
57842W        W19131  29.175  42.457  12.572
57843W        W19132  30.150  42.918  14.391
57844W        W19133  29.147  35.941   3.257
57845W        W19134   4.339  32.437   0.814
57846W        W19135  29.475   9.325   4.142
57847W        W19136  36.483  14.222   3.807
57848W        W19137  24.029  20.148  14.826
57849W        W19138  30.504  29.442  14.969
57850W        W19139  38.901   1.296  14.284
57851W        W19140  36.508  24.489  12.559
57852W        W19141   3.812  34.548   3.339
57853W        W19142  21.692   0.386  10.947
57854W        W19143  35.062  21.745   4.611
57855W        W19144  23.505  18.130  13.968
57856W        W19145  42.366  37.937  10.502
57857W        W19146   8.690  26.179   3.221
57858W        W19147  38.019  42.515  13.449
57859W        W19148  34.013  30.488  13.875
57860W        W19149  34.427  28.014  14.416
57861W        W19150   7.211  33.455  11.054
57862W        W19151  40.830  35.362   0.393
57863W        W19152  14.337  10.145   2.272
57864W        W19153  20.032  19.739   2.257
57865W        W19154   8.276  24.209   3.663
57866W        W19155  37.362  42.474  13.374
57867W        W19156  43.916  24.187   3.378
57868W        W19157  40.394  36.427   1.812
57869W        W19158  43.280  43.991   3.293
57870W        W19159  11.681  16.289  12.531
57871W        W19160  23.140   6.810  10.436
57872W        W19161  39.539  40.846   0.935
57873W        W19162  43.847  39.366   4.178
57874W        W19163  42.365  11.700   0.767
57875W        W19164   1.305   9.354  12.408
57876W        W19165  25.192   2.942  11.885
57877W        W19166  33.489   7.330  11.412
57878W        W19167   9.785  29.627  10.546
57879W        W19168  33.119  13.752   3.816
57880W        W19169  11.233  43.795   1.277
57881W        W19170  31.003  16.117  14.965
57882W        W19171  37.072  21.753  11.034
57883W        W19172  24.213  25.656   4.669
57884W        W19173  32.505   6.723  11.069
57885W        W19174   0.754  32.037   0.473
57886W        W19175  36.441  11.153  12.451
57887W        W19176  26.556  34.482   1.805
57888W        W19177  28.186  19.684   5.312
57889W        W19178  41.850  38.821   5.227
57890W        W19179   1.453   6.323  12.062
57891W        W19180  27.193  44.867  11.444
57892W        W19181  11.749  16.700  13.932
57893W        W19182   1.363  39.324   4.778
57894W        W19183  19.172  25.616   0.916
57895W        W19184  43.513  20.736  13.940
57896W        W19185   7.252  27.093   3.151
57897W        W19186  32.562  12.710   2.824
57898W        W19187   8.706  36.509   4.163
57899W        W19188  41.407  25.580  12.858
57900W        W19189  31.519  33.072   3.382
57901W        W19190  20.592  19.184  10.990
57902W        W19191  29.661  18.626  10.609
57903W        W19192   8.391  43.359   0.256
57904W        W19193   8.315  24.505   0.331
57905W        W19194  19.737  31.943   0.887
57906W        W19195  21.532  39.350  12.082
57907W        W19196  11.284  10.704  10.532
57908W        W19197  25.679  39.505   1.845
57909W        W19198  31.405  20.051   1.318
57910W        W19199  26.508  25.156  13.965
57911W        W19200  41.513  21.022   4.299
57912W        W19201  12.745   8.198  14.398
57913W        W19202  26.107  39.503  14.944
57914W        W19203  13.816   9.253   1.451
57915W        W19204  23.031  38.981  12.897
57916W        W19205   9.386  32.992  12.548
57917W        W19206   2.818  34.934   1.365
57918W        W19207  29.589   7.783   1.397
57919W        W19208  19.184   6.802  14.515
57920W        W19209  28.118  18.187  13.832
57921W        W19210  12.846  18.079  11.385
57922W        W19211  34.615  26.669   1.862
57923W        W19212  34.917  22.155  14.789
57924W        W19213   6.263   7.852  12.580
57925W        W19214  25.597   8.230   0.404
57926W        W19215  27.676   4.273  13.028
57927W        W19216   6.707  43.324  12.463
57928W        W19217  16.173  17.134   2.292
57929W        W19218  16.681  38.527  13.509
57930W        W19219  17.172  27.624  10.898
57931W        W19220   7.714  21.541  14.841
57932W        W19221  11.339   9.207   0.346
57933W        W19222   8.858  16.274   0.410
57934W        W19223  12.287  28.039   1.282
57935W        W19224  17.663   6.380  14.360
57936W        W19225  18.719  18.196  14.887
57937W        W19226  13.621  14.778  11.531
57938W        W19227  38.338  41.380  14.788
57939W        W19228  43.423  28.509  11.582
57940W        W19229   4.780   5.318   2.698
57941W        W19230  19.689   5.771  14.395
57942W        W19231  23.719  13.677  11.419
57943W        W19232  32.459  10.752   0.409
57944W        W19233  11.234  36.078  10.919
57945W        W19234  23.526  43.805  13.420
57946W        W19235  43.806   8.367  14.777
57947W        W19236  35.888  25.557  11.991
57948W        W19237  26.001  11.360  14.490
57949W        W19238  42.013  20.232  14.326
57950W        W19239  22.185   3.340   3.176
57951W        W19240  25.498  33.062  10.546
57952W        W19241  37.462  21.679   3.709
57953W        W19242   4.820  36.523   5.290
57954W        W19243  39.041  32.631   0.363
57955W        W19244  24.628  29.175   0.862
57956W        W19245  19.604  30.567  12.976
57957W        W19246  41.328  10.691   1.746
57958W        W19247  35.042  12.687   3.387
57959W        W19248  30.529   1.968  12.824
57960W        W19249   4.252  14.661   3.256
57961W        W19250  44.381  42.011  14.484
57962W        W19251  13.160  18.728  14.021
57963W        W19252  35.022   5.352  10.039
57964W        W19253   1.933  12.673  10.418
57965W        W19254  11.668  21.654  11.604
57966W        W19255  28.062  17.697  11.484
57967W        W19256  36.964  10.671  14.016
57968W        W19257  23.144   4.734   2.685
57969W        W19258   9.190   1.355  11.441
57970W        W19259  37.982   1.375  10.605
57971W        W19260  32.135  12.664   1.424
57972W        W19261  11.866  39.550   1.216
57973W        W19262   4.421  38.974  13.062
57974W        W19263  35.471  44.958   3.668
57975W        W19264  24.191  36.557  12.412
57976W        W19265  12.726   7.712   2.204
57977W        W19266  40.981  22.540   1.357
57978W        W19267   6.284  14.177   3.164
57979W        W19268  11.632  43.368  10.410
57980W        W19269  35.395  41.960   3.852
57981W        W19270  18.201  29.060  11.004
57982W        W19271  31.060   1.878  12.382
57983W        W19272  39.532  18.564  14.792
57984W        W19273   0.794  12.633  10.568
57985W        W19274  27.981   7.826   1.783
57986W        W19275  13.811  23.500   0.760
57987W        W19276   3.276  35.039   2.222
57988W        W19277  23.088  42.007   3.777
57989W        W19278  31.026  43.005  13.004
57990W        W19279  37.481   6.911  13.460
57991W        W19280  39.992  22.556   4.601
57992W        W19281  37.874   5.869  13.546
57993W        W19282   7.910  37.010  13.795
57994W        W19283   0.791  15.676  13.521
57995W        W19284   9.374   2.269  10.889
57996W        W19285  16.263  11.833   0.896
57997W        W19286  34.992  19.283  14.302
57998W        W19287   0.364  12.807   4.180
57999W        W19288  34.387   1.834  13.829
58000W        W19289  32.580   0.866  12.966
58001W        W19290   8.371  25.695   1.309
58002W        W19291  11.141  26.960   4.152
58003W        W19292  35.964  21.194  13.891
58004W        W19293  25.108  25.539  14.282
58005W        W19294  20.266  11.709   1.875
58006W        W19295  26.623  43.973  12.988
58007W        W19296  21.149  19.146  11.376
58008W        W19297  12.285  44.957   9.564
58009W        W19298   6.850  14.681  12.903
58010W        W19299  21.138   9.336  10.964
58011W        W19300  41.827  27.110  12.935
58012W        W19301   8.802  40.882   1.392
58013W        W19302  37.413  18.131   4.308
58014W        W19303  42.330  18.262   1.812
58015W        W19304   2.379   1.305   1.397
58016W        W19305  25.491   1.341  14.868
58017W        W19306   1.373  36.458   3.689
58018W        W19307  36.541  40.018   2.317
58019W        W19308  17.777   8.656   2.301
58020W        W19309   0.478  12.238   2.204
58021W        W19310  33.056  29.976   3.176
58022W        W19311  16.652  29.958  14.299
58023W        W19312   7.269  38.896   4.182
58024W        W19313  43.353   8.321  10.139
58025W        W19314  19.229  22.686  12.361
58026W        W19315   9.874  42.481   4.838
58027W        W19316  44.931   0.822  11.117
58028W        W19317  14.258  44.919  12.008
58029W        W19318  10.746   1.460  13.439
58030W        W19319  13.716  28.441   0.394
58031W        W19320  27.089  29.103  13.397
58032W        W19321  19.542   7.904   3.803
58033W        W19322  32.090  41.506   4.163
58034W        W19323   1.341  34.530  10.587
58035W        W19324  17.567  35.536   1.381
58036W        W19325  41.826   3.784   2.661
58037W        W19326  18.665  40.952  12.855
58038W        W19327   7.795   2.427   1.434
58039W        W19328  29.653  38.356   3.708
58040W        W19329  14.109  24.666   4.136
58041W        W19330  34.482  33.963   0.921
58042W        W19331  30.910  16.639   4.349
58043W        W19332  21.226  28.534   1.754
58044W        W19333   4.246  35.977  11.969
58045W        W19334  35.364  28.128  14.893
58046W        W19335  39.953  28.437   1.399
58047W        W19336  10.308  30.907  13.956
58048W        W19337  20.600  12.753   1.895
58049W        W19338  42.880   0.807   4.753
58050W        W19339   5.738  29.013  10.475
58051W        W19340  13.730   9.206  12.973
58052W        W19341  33.032  39.045   2.683
58053W        W19342  34.419  15.591  14.916
58054W        W19343  34.994  21.171  11.027
58055W        W19344   3.878   5.696  11.059
58056W        W19345  21.757  28.101   1.415
58057W        W19346  35.540  14.803   3.266
58058W        W19347  42.009  18.657   9.589
58059W        W19348   5.243   4.832   1.695
58060W        W19349   4.445  31.963  14.825
58061W        W19350  42.363  40.375   1.878
58062W        W19351   9.835  13.124   0.462
58063W        W19352  11.625  33.948  11.118
58064W        W19353  15.705  15.605  12.573
58065W        W19354  43.785   0.426  12.453
58066W        W19355   2.742  14.653   1.788
58067W        W19356  43.341  43.494  12.856
58068W        W19357  42.339  39.323  10.561
58069W        W19358  30.117  34.424   3.254
58070W        W19359  42.825  25.021   2.815
58071W        W19360   0.764  40.917  11.473
58072W        W19361   8.208  36.485  11.411
58073W        W19362  26.042   7.834   1.316
58074W        W19363  31.008  25.154  10.906
58075W        W19364  10.667  27.107  13.045
58076W        W19365  29.585  24.677  10.466
58077W        W19366   9.800   5.246   3.746
58078W        W19367  39.374  42.896  13.527
58079W        W19368  30.415  11.152   1.322
58080W        W19369   4.388  27.686  14.410
58081W        W19370   9.662  37.375  12.959
58082W        W19371  41.454  26.636  13.796
58083W        W19372  24.631  29.538  13.536
58084W        W19373   5.417   3.267   4.802
58085W        W19374  39.954  44.287   1.914
58086W        W19375   9.354  26.984  10.960
58087W        W19376  20.157  31.042  12.095
58088W        W19377  43.961   8.404  11.505
58089W        W19378  32.628  21.054  13.958
58090W        W19379  25.996  24.488  14.892
58091W        W19380  25.132  22.088   4.190
58092W        W19381  37.910   7.258  10.973
58093W        W19382   4.382  29.604  12.921
58094W        W19383  31.568  41.871   0.801
58095W        W19384   2.755  10.633  14.865
58096W        W19385   0.272  12.690   3.869
58097W        W19386  42.369   4.907   1.927
58098W        W19387   3.260  11.688   3.825
58099W        W19388   6.273  25.523  13.354
58100W        W19389  13.796   0.977  13.938
58101W        W19390  18.116  34.934  14.275
58102W        W19391  38.377  25.112  10.603
58103W        W19392  22.235  35.584   4.332
58104W        W19393   9.281  36.579   4.693
58105W        W19394   8.895  20.172   0.446
58106W        W19395  39.917  16.293  10.522
58107W        W19396  41.915  26.649   1.233
58108W        W19397  34.963   3.802   3.377
58109W        W19398  36.369  21.529  10.902
58110W        W19399  16.778  13.687   1.389
58111W        W19400   5.786  11.714   2.189
58112W        W19401  41.376  20.524   0.835
58113W        W19402  31.475  20.251   4.271
58114W        W19403  37.351   8.808  11.112
58115W        W19404  16.079  42.008   4.735
58116W        W19405  19.171   3.824   2.345
58117W        W19406  36.592   7.238   0.378
58118W        W19407  11.262   1.304  13.307
58119W        W19408   1.895  10.375   2.665
58120W        W19409   5.435   1.458  13.440
58121W        W19410  43.336  37.862  11.065
58122W        W19411  28.107  19.168   4.768
58123W        W19412  30.039  16.600  12.484
58124W        W19413  34.868  24.190   2.872
58125W        W19414  44.846  22.725  14.813
58126W        W19415  11.857  29.596  10.917
58127W        W19416  20.726   4.243  11.022
58128W        W19417  21.156  17.792   4.148
58129W        W19418  35.966   4.390   1.890
58130W        W19419  34.932  12.259  13.010
58131W        W19420  33.497  23.521  12.397
58132W        W19421  36.957  17.593  12.506
58133W        W19422  26.157  14.729   2.257
58134W        W19423  43.770  30.139  13.458
58135W        W19424   9.723  12.784   0.294
58136W        W19425  16.126  23.682   3.313
58137W        W19426  41.857  26.659   3.822
58138W        W19427   5.933  30.545  12.091
58139W        W19428   6.392  44.791  10.637
58140W        W19429  41.963  27.553  13.993
58141W        W19430  38.897  35.090  13.930
58142W        W19431  26.637   2.298   0.279
58143W        W19432  26.521  22.094  12.083
58144W        W19433  11.335  37.580   0.361
58145W        W19434  18.790  39.939  10.078
58146W        W19435  22.057  43.980   3.172
58147W        W19436  34.997  31.614  13.976
58148W        W19437  25.021   6.838   1.738
58149W        W19438  41.364  18.723  10.428
58150W        W19439   2.374  12.271  14.865
58151W        W19440  30.112  17.173  13.487
58152W        W19441  22.104   7.686   1.708
58153W        W19442   8.843  15.814   3.359
58154W        W19443  20.617  43.861  11.124
58155W        W19444  26.161  23.671  12.957
58156W        W19445  20.127  11.233  13.354
58157W        W19446  20.074  30.964   3.380
58158W        W19447  15.712  32.049  11.935
58159W        W19448   7.334  24.072   1.886
58160W        W19449  26.662  10.823  13.984
58161W        W19450  18.605   3.436  14.021
58162W        W19451  37.976   3.277  10.489
58163W        W19452  22.091   2.464   1.775
58164W        W19453  42.861  37.935  10.407
58165W        W19454  16.782   3.317   4.266
58166W        W19455   7.788   3.720  14.029
58167W        W19456  31.553  41.988   2.353
58168W        W19457  23.017   8.311  13.506
58169W        W19458   9.200  19.739  14.875
58170W        W19459   2.353  43.477  14.284
58171W        W19460  41.509  32.044  11.922
58172W        W19461  20.080  18.127  12.523
58173W        W19462  22.576  18.064   3.316
58174W        W19463  40.308  41.966   3.772
58175W        W19464   6.880  37.831  14.953
58176W        W19465   5.815  40.961  14.434
58177W        W19466  14.755  26.608  13.532
58178W        W19467  35.105   1.240   3.313
58179W        W19468  31.501  40.860  14.856
58180W        W19469  10.195  40.394  12.932
58181W        W19470  14.726  11.862  13.397
58182W        W19471   0.781   3.415  11.412
58183W        W19472  30.908  37.927   0.352
58184W        W19473  29.569  36.889  14.943
58185W        W19474  37.516  37.440   2.260
58186W        W19475  14.760  41.835   4.255
58187W        W19476   6.331  28.068   4.349
58188W        W19477  25.630   1.936   1.704
58189W        W19478  41.028  36.018  13.398
58190W        W19479   8.863   1.825  10.051
58191W        W19480  44.910  20.591   3.169
58192W        W19481   0.263  31.555   3.794
58193W        W19482   2.841  44.010  10.467
58194W        W19483  37.436  39.383   2.206
58195W        W19484  42.387  26.139  13.028
58196W        W19485  26.601  40.414   4.223
58197W        W19486  14.817  35.086  12.380
58198W        W19487  37.060  36.024   0.895
58199W        W19488  20.587  34.546  14.494
58200W        W19489  14.689  10.803   4.719
58201W        W19490   2.290  26.991  11.986
58202W        W19491  16.076  28.983  12.080
58203W        W19492  23.094   0.310   3.341
58204W        W19493  31.969  25.072   2.340
58205W        W19494  10.355  34.471   0.807
58206W        W19495   2.374  44.841  13.394
58207W        W19496  28.638  37.516   4.658
58208W        W19497  13.347  10.279  14.955
58209W        W19498   6.831  38.405   2.404
58210W        W19499  15.628  29.129  11.383
58211W        W19500  20.244  28.998  10.974
58212W        W19501  28.136  32.141  12.490
58213W        W19502  33.917  39.453   2.353
58214W        W19503  43.825   8.259  11.063
58215W        W19504  23.516   5.808  13.054
58216W        W19505   8.379  12.175  13.421
58217W        W19506  16.658  29.169  12.391
58218W        W19507  40.412  39.325  10.620
58219W        W19508  10.632  23.005  11.128
58220W        W19509  11.666  43.488  12.883
58221W        W19510   5.750  26.674   4.804
58222W        W19511   3.830  33.465  10.056
58223W        W19512  25.996   5.219   2.694
58224W        W19513  43.436  31.623  11.069
58225W        W19514  10.669   0.266   0.354
58226W        W19515  23.240  24.680   2.383
58227W        W19516  42.512  23.001  11.423
58228W        W19517  34.609  31.076  11.490
58229W        W19518  22.104   0.748   0.342
58230W        W19519  15.606  39.374   4.801
58231W        W19520   3.910  19.620  14.380
58232W        W19521  44.333   5.333  12.850
58233W        W19522  26.071  23.053  12.990
58234W        W19523  17.257  30.526   0.948
58235W        W19524   0.339   3.336   1.413
58236W        W19525   9.386   9.257   4.309
58237W        W19526  34.960  36.569   1.852
58238W        W19527   4.884  31.501   3.201
58239W        W19528  31.536   9.677  10.613
58240W        W19529  28.489  43.348  14.310
58241W        W19530  37.984   4.707  11.604
58242W        W19531  39.945  16.261   2.267
58243W        W19532   9.176   3.342  14.410
58244W        W19533  36.843  41.332   4.663
58245W        W19534  16.139  19.693  12.912
58246W        W19535   5.306  14.168   4.309
58247W        W19536   1.327  22.518   3.785
58248W        W19537  23.070  32.629  12.876
58249W        W19538   1.946   5.737  10.485
58250W        W19539  20.043   7.200  11.590
58251W        W19540  41.304   7.225   2.215
58252W        W19541  18.130  10.270  10.558
58253W        W19542  39.926  41.991   2.388
58254W        W19543  31.524   6.188  13.978
58255W        W19544   6.252   1.937   2.409
58256W        W19545   9.691   3.247  10.574
58257W        W19546  40.957  30.028   1.369
58258W        W19547  42.312   6.807   2.752
58259W        W19548  18.647   0.754  14.393
58260W        W19549   8.827  32.570   3.359
58261W        W19550  16.236  44.457   3.704
58262W        W19551   6.271  18.187  13.502
58263W        W19552  29.670  25.028   3.357
58264W        W19553  12.808  11.830   0.730
58265W        W19554  13.639  31.555   3.795
58266W        W19555  44.419  32.122  11.455
58267W        W19556   0.393  10.175  10.016
58268W        W19557  43.893   5.709  14.920
58269W        W19558  11.841  20.116   3.337
58270W        W19559  14.673   1.975   9.533
58271W        W19560  42.471  36.001   2.368
58272W        W19561  11.233  18.207  10.619
58273W        W19562  27.998   9.704  12.394
58274W        W19563   2.263  14.322   1.401
58275W        W19564  22.016   3.735  12.535
58276W        W19565  18.781  37.899   4.190
58277W        W19566   5.212   6.201  13.539
58278W        W19567  36.500  32.973  10.971
58279W        W19568   2.442  18.665  14.949
58280W        W19569  15.320  32.468   0.374
58281W        W19570   1.271  33.393  11.036
58282W        W19571   1.907  30.578  12.350
58283W        W19572  10.315  16.576   5.283
58284W        W19573  17.093  24.203   3.169
58285W        W19574  20.731  23.111  11.082
58286W        W19575   1.342  37.579   1.445
58287W        W19576  41.992   6.362  11.021
58288W        W19577  26.198  16.741  14.307
58289W        W19578  43.307  17.187   0.339
58290W        W19579  19.563  27.660   0.457
58291W        W19580  40.986   1.842   3.356
58292W        W19581  32.444  28.497   3.725
58293W        W19582  26.701  20.674   1.243
58294W        W19583   8.749   7.728   1.781
58295W        W19584  40.539   3.306   0.404
58296W        W19585  26.130  27.069  12.002
58297W        W19586  19.563   4.877   3.324
58298W        W19587   5.262  23.092   0.922
58299W        W19588  20.076  37.550  11.506
58300W        W19589  33.120   6.823   1.375
58301W        W19590  43.886   1.782  14.347
58302W        W19591   4.436  35.369  14.968
58303W        W19592  11.347   1.891  14.772
58304W        W19593  18.592  25.696  12.917
58305W        W19594  29.044   3.830   2.323
58306W        W19595  32.475  22.562  13.934
58307W        W19596  16.640  24.140   0.469
58308W        W19597  42.846  11.280  12.097
58309W        W19598  26.675  31.089   2.717
58310W        W19599  37.854  13.257  10.937
58311W        W19600  28.968  15.583   0.768
58312W        W19601   9.700  14.235  11.416
58313W        W19602  10.346  37.919   0.789
58314W        W19603  17.117  12.127  13.339
58315W        W19604  23.599  13.800   3.688
58316W        W19605  13.180   0.865   1.345
58317W        W19606  16.809  11.721   1.377
58318W        W19607  18.715   9.776   1.265
58319W        W19608  23.211  17.182   3.203
58320W        W19609  39.037  10.150   3.272
58321W        W19610  39.481   8.197  12.558
58322W        W19611  21.249  12.281  11.955
58323W        W19612  40.419  26.039  11.470
58324W        W19613  21.064   3.242   4.263
58325W        W19614  26.626  10.800   0.334
58326W        W19615   7.203   6.763  11.911
58327W        W19616  28.456  26.990   1.232
58328W        W19617  17.157  25.980  14.412
58329W        W19618  30.039  21.165  11.530
58330W        W19619  35.919  11.233  14.830
58331W        W19620  32.067   6.865  12.003
58332W        W19621  24.542   9.885   2.706
58333W        W19622  40.536  14.332  12.569
58334W        W19623  31.484  25.710   0.250
58335W        W19624   2.453  22.684  12.004
58336W        W19625  42.504  20.671   3.304
58337W        W19626  35.424  12.321  13.011
58338W        W19627   7.823  28.624   3.634
58339W        W19628  12.646  14.158   1.421
58340W        W19629  21.728   1.964  13.464
58341W        W19630   3.233  34.039   1.831
58342W        W19631  25.563  43.908   0.831
58343W        W19632  21.734  17.219   0.850
58344W        W19633  31.919  37.550  12.448
58345W        W19634   6.206  34.408   3.188
58346W        W19635  21.220  17.163   4.117
58347W        W19636  35.972  19.243  10.028
58348W        W19637  20.050  44.996  14.434
58349W        W19638   3.402   7.740  10.515
58350W        W19639  40.548  18.243   9.460
58351W        W19640  38.933   5.907   1.763
58352W        W19641  37.921  26.700   1.886
58353W        W19642  32.407   6.246  14.872
58354W        W19643  20.104  20.214  14.926
58355W        W19644  21.141  11.687  11.460
58356W        W19645   8.721  38.025  10.959
58357W        W19646  15.645  29.635   0.371
58358W        W19647   4.421   2.463  12.941
58359W        W19648   9.676  13.290  11.457
58360W        W19649  28.635  44.413   0.376
58361W        W19650  28.932   0.783  14.818
58362W        W19651  28.497  42.431   0.379
58363W        W19652  19.761  37.394   0.799
58364W        W19653   1.736   0.820  12.349
58365W        W19654  15.666  26.051   2.833
58366W        W19655  18.555  33.580  13.507
58367W        W19656  24.710   1.468   1.425
58368W        W19657   6.859  41.369  14.422
58369W        W19658   7.779  19.777   4.816
58370W        W19659  29.542  11.181   0.261
58371W        W19660  39.012   3.318   3.784
58372W        W19661   0.958  24.149  11.612
58373W        W19662   8.726   6.899  11.523
58374W        W19663  39.548  32.631   4.647
58375W        W19664  39.530  11.866  12.008
58376W        W19665  22.091  15.745  12.351
58377W        W19666   1.368  19.039   2.700
58378W        W19667  33.973   2.783  11.418
58379W        W19668   9.674  30.070   4.679
58380W        W19669  34.908   7.411  13.983
58381W        W19670   2.747  33.880  14.981
58382W        W19671  22.024  11.680   0.894
58383W        W19672  35.547  22.672   0.871
58384W        W19673   8.830  19.055   3.688
58385W        W19674  34.005  25.674  10.511
58386W        W19675  39.333  15.093  13.926
58387W        W19676  36.427  13.625   0.350
58388W        W19677  19.270   4.389  12.435
58389W        W19678  23.186   3.310  11.914
58390W        W19679   6.421  31.481  12.466
58391W        W19680  41.933  41.383   4.312
58392W        W19681   0.368  12.627  10.642
58393W        W19682   4.386   7.810   2.784
58394W        W19683  17.161  30.534   4.653
58395W        W19684  30.416  28.680   0.251
58396W        W19685  21.678   5.231   3.268
58397W        W19686   3.236  43.938  12.516
58398W        W19687  14.650  18.242  13.029
58399W        W19688  12.277  34.472   3.716
58400W        W19689  25.621  43.870  14.461
58401W        W19690  25.137  41.532   2.827
58402W        W19691  39.977  28.996   3.742
58403W        W19692  29.158  41.333   4.617
58404W        W19693  34.977   9.179  13.918
58405W        W19694  11.836  21.141   4.124
58406W        W19695  24.045  12.269  12.482
58407W        W19696  13.346  31.595   3.194
58408W        W19697  29.064  11.301  10.971
58409W        W19698  37.342  22.507   3.287
58410W        W19699  28.005  26.104   0.266
58411W        W19700  22.132  26.136  12.982
58412W        W19701  31.600  23.207  14.403
58413W        W19702  30.499  32.062  14.281
58414W        W19703  14.705  38.868   9.989
58415W        W19704  19.705  43.985  13.909
58416W        W19705  42.522  35.862  11.061
58417W        W19706  17.699  35.533  11.052
58418W        W19707  24.072  22.532  13.317
58419W        W19708  15.138  20.217   9.952
58420W        W19709  40.446  33.426   2.250
58421W        W19710  19.139  44.920   3.162
58422W        W19711  42.888  23.699  10.466
58423W        W19712  27.671  44.889  12.356
58424W        W19713  40.816  14.341   3.661
58425W        W19714   3.934   4.839   1.244
58426W        W19715   5.811   8.752  10.907
58427W        W19716  17.563  14.094   4.756
58428W        W19717  39.014  10.768  14.767
58429W        W19718  18.273  37.455  11.071
58430W        W19719  42.839  42.364  14.900
58431W        W19720   5.281  39.500  14.759
58432W        W19721  16.294  14.614   1.425
58433W        W19722  32.967  33.584  14.016
58434W        W19723  26.151  22.222   0.462
58435W        W19724  41.464  30.628   4.295
58436W        W19725   1.267  19.259  13.978
58437W        W19726  36.501  31.935  10.540
58438W        W19727  23.162  31.643   0.396
58439W        W19728  34.120  15.644  14.411
58440W        W19729  31.122  26.567   5.294
58441W        W19730  37.450  35.497   4.733
58442W        W19731  22.732  14.318   3.195
58443W        W19732  16.626  20.669   4.708
58444W        W19733  36.382  20.721  14.411
58445W        W19734  34.111  28.129   1.724
58446W        W19735  38.539  20.064  13.520
58447W        W19736  39.361   9.767   4.737
58448W        W19737  11.684  34.047   1.852
58449W        W19738  32.453  18.214   3.748
58450W        W19739  29.472  14.809   4.715
58451W        W19740   7.671  19.548   2.268
58452W        W19741   2.934  42.010   2.192
58453W        W19742  39.506  25.065   4.666
58454W        W19743   8.802  27.182   2.244
58455W        W19744  16.629  13.646   4.352
58456W        W19745  12.298  36.376  14.990
58457W        W19746  30.942  31.899  14.027
58458W        W19747   3.918   4.339  10.623
58459W        W19748  20.223  16.086   3.217
58460W        W19749  37.572  30.534  12.351
58461W        W19750   1.407   9.156  12.885
58462W        W19751  21.701  25.107   4.787
58463W        W19752   2.811  35.482   2.184
58464W        W19753  18.741  33.053   2.687
58465W        W19754  44.909  11.656  12.073
58466W        W19755  42.030  11.794   0.292
58467W        W19756   3.272  25.209   0.311
58468W        W19757  37.055   4.847   0.469
58469W        W19758  31.490   7.864   3.156
58470W        W19759  35.013  31.470   1.401
58471W        W19760  17.226  42.297   1.788
58472W        W19761  42.021  19.647   5.170
58473W        W19762  43.873  40.018   4.813
58474W        W19763   9.167  22.245   3.148
58475W        W19764  14.117   5.220   3.805
58476W        W19765  31.110  13.701   2.359
58477W        W19766  14.605  32.097   3.357
58478W        W19767   9.668  18.087  13.847
58479W        W19768   6.812   7.268   4.247
58480W        W19769  42.436   0.477  10.897
58481W        W19770   6.851   6.302  13.442
58482W        W19771  33.080  36.901  12.372
58483W        W19772  28.009  14.340  13.319
58484W        W19773  32.501   3.816   0.420
58485W        W19774   0.920  13.819  12.029
58486W        W19775   5.840  37.545  10.996
58487W        W19776  27.551  37.996   3.793
58488W        W19777  31.532  13.229   1.225
58489W        W19778  29.171  21.129   0.425
58490W        W19779  27.015  37.855   4.268
58491W        W19780  16.251  18.597  13.925
58492W        W19781  11.724  36.073  11.077
58493W        W19782  31.066  34.549  11.009
58494W        W19783   5.902  20.174   4.160
58495W        W19784   9.286  34.531   3.312
58496W        W19785  11.699  26.457  12.524
58497W        W19786  26.527  36.929  11.010
58498W        W19787  43.461  28.624   2.184
58499W        W19788  24.513  28.933   0.448
58500W        W19789   6.361   6.764  12.904
58501W        W19790  38.985   7.324   0.484
58502W        W19791   7.673   3.811  10.520
58503W        W19792   0.898  29.989   4.129
58504W        W19793   0.355  26.517   2.763
58505W        W19794  13.684  11.331  14.437
58506W        W19795  16.659  14.206   1.853
58507W        W19796  13.322   2.388   3.224
58508W        W19797  41.966  12.736   2.787
58509W        W19798  25.014  30.505  13.390
58510W        W19799  25.537  17.062   1.853
58511W        W19800  12.201  30.428   5.307
58512W        W19801  28.563  23.682  13.043
58513W        W19802  28.084   5.889  12.559
58514W        W19803   9.791   7.868   0.432
58515W        W19804  32.962  20.099   1.336
58516W        W19805  28.026  18.153  13.051
58517W        W19806  17.231  27.568   0.354
58518W        W19807  25.471  25.210  12.885
58519W        W19808  43.491  40.335  12.878
58520W        W19809  18.789  17.270   1.330
58521W        W19810  28.128  18.720   5.301
58522W        W19811  41.859  43.941  11.475
58523W        W19812   6.910  40.823   3.777
58524W        W19813  19.757  27.560  14.428
58525W        W19814  15.611  21.623   9.981
58526W        W19815   1.277  20.042   4.712
58527W        W19816  25.519  40.968  11.524
58528W        W19817  34.509   7.354   2.770
58529W        W19818  26.182  13.839  12.370
58530W        W19819   9.650   0.841  11.085
58531W        W19820  28.533  43.874   4.150
58532W        W19821  37.492  10.312   5.250
58533W        W19822  39.916  43.399   4.315
58534W        W19823  29.030  40.351   2.802
58535W        W19824  16.089  33.993   4.829
58536W        W19825  36.405  43.795  12.832
58537W        W19826  20.622  34.421  11.387
58538W        W19827  37.469   5.703   3.685
58539W        W19828  14.168  18.635  13.311
58540W        W19829   5.423   6.229  13.942
58541W        W19830  12.852  14.710  13.839
58542W        W19831  30.609  21.631   0.834
58543W        W19832  13.251  10.202  10.033
58544W        W19833  26.052  29.970  12.905
58545W        W19834  10.345  16.705   2.379
58546W        W19835   4.811  14.329   1.876
58547W        W19836  29.159  18.095  11.422
58548W        W19837  37.363  26.516  12.039
58549W        W19838   1.875   7.709  11.422
58550W        W19839  37.510   9.392  11.489
58551W        W19840  36.031  42.986   3.847
58552W        W19841  17.687  38.822   4.630
58553W        W19842   3.215   8.721   2.325
58554W        W19843   9.301   4.327  12.492
58555W        W19844   2.788  35.562  11.610
58556W        W19845   1.319  14.287   3.151
58557W        W19846  26.575  37.470   4.640
58558W        W19847  27.455  13.804  12.030
58559W        W19848  32.406   0.962  13.935
58560W        W19849  37.843  20.246  14.903
58561W        W19850   6.719  27.485   1.332
58562W        W19851  37.961  28.183   4.682
58563W        W19852  12.721  19.696   2.710
58564W        W19853  39.468   1.371  13.870
58565W        W19854  28.065   8.656  14.441
58566W        W19855  44.383  20.172  10.954
58567W        W19856   3.301  39.508   2.775
58568W        W19857  37.996  40.901   4.339
58569W        W19858   0.452  42.851   1.821
58570W        W19859  18.247  28.668   1.251
58571W        W19860  15.169  10.827   0.436
58572W        W19861  13.213  30.949   2.285
58573W        W19862  17.292   8.802   3.867
58574W        W19863   3.295  37.006  14.458
58575W        W19864   2.451  38.523   2.780
58576W        W19865  26.014  34.900  10.633
58577W        W19866  43.462  29.972  12.560
58578W        W19867  33.039  19.537  10.975
58579W        W19868  14.638  23.586   4.240
58580W        W19869  35.444  22.588   1.325
58581W        W19870  33.459  24.676  14.392
58582W        W19871  40.472   9.267  11.015
58583W        W19872  44.845  28.978   1.238
58584W        W19873  41.853  35.555  13.521
58585W        W19874  33.897  35.924  13.898
58586W        W19875  43.876  29.576  12.996
58587W        W19876  28.999  42.828  12.050
58588W        W19877   8.895  23.049  10.558
58589W        W19878   7.673  41.445   1.730
58590W        W19879  39.845   9.382   3.235
58591W        W19880  37.030   2.254  13.389
58592W        W19881  35.415  29.010   3.701
58593W        W19882  11.843   4.376  13.403
58594W        W19883  32.452  32.588  11.612
58595W        W19884  35.970  30.138  11.007
58596W        W19885  40.837  29.514   3.331
58597W        W19886   6.724   8.841  11.085
58598W        W19887  44.834   8.855  11.083
58599W        W19888  16.151  30.121   0.731
58600W        W19889  34.528   5.711  12.922
58601W        W19890  14.318  27.481   4.129
58602W        W19891  22.059   4.354  12.823
58603W        W19892  30.638  35.595   1.842
58604W        W19893  15.296  12.638   0.849
58605W        W19894  23.564  28.092   1.443
58606W        W19895   1.906  23.595  11.596
58607W        W19896   2.874  32.055   1.819
58608W        W19897  33.535  11.162   1.398
58609W        W19898  38.326   2.344   2.305
58610W        W19899   8.255  43.315  11.470
58611W        W19900  23.157  11.634   3.147
58612W        W19901  35.905  36.492   5.104
58613W        W19902   6.678   1.772  13.352
58614W        W19903  24.720  22.043   1.854
58615W        W19904  15.259  29.084   3.746
58616W        W19905   5.281  43.925   2.712
58617W        W19906  32.431  33.972   1.318
58618W        W19907   2.840   9.803  14.876
58619W        W19908  33.505   7.765  14.815
58620W        W19909  42.401  27.672   3.359
58621W        W19910  43.999  28.072  11.497
58622W        W19911  15.312  24.580   4.680
58623W        W19912  16.750  14.246   1.290
58624W        W19913  27.483  18.694   3.640
58625W        W19914  25.082  33.416   2.673
58626W        W19915  44.491  23.094  13.440
58627W        W19916   1.762   8.724  13.921
58628W        W19917   8.714  36.430  13.035
58629W        W19918  29.492   4.413   2.782
58630W        W19919  42.428   3.898   4.833
58631W        W19920  22.719  29.507  13.379
58632W        W19921  37.023  23.011   1.756
58633W        W19922  13.130  10.220  13.546
58634W        W19923  37.458   8.394   1.837
58635W        W19924  32.521   1.814   5.152
58636W        W19925  19.273  27.608   0.313
58637W        W19926  30.610  40.872   2.339
58638W        W19927  30.130  26.658   4.610
58639W        W19928  37.061  41.837  14.444
58640W        W19929  17.078   2.819  11.563
58641W        W19930  40.542  43.935   1.353
58642W        W19931   6.849  15.115  14.976
58643W        W19932  40.365  24.032  14.511
58644W        W19933  11.205  17.796  12.540
58645W        W19934  39.436   1.812   0.303
58646W        W19935   2.742  39.373   4.831
58647W        W19936  27.977   7.785  10.435
58648W        W19937  16.781   9.673   1.442
58649W        W19938  41.458  37.431   2.412
58650W        W19939   1.965  19.665  11.437
58651W        W19940  40.359  14.679   3.153
58652W        W19941  29.563   5.760   3.639
58653W        W19942  21.243   9.746  11.419
58654W        W19943  42.487  43.913   4.828
58655W        W19944  27.129  12.658  11.530
58656W        W19945  28.446   3.818  13.453
58657W        W19946   0.802  27.648  14.803
58658W        W19947  15.266   8.809  10.492
58659W        W19948  27.508  15.596  13.847
58660W        W19949  37.515  28.055  12.344
58661W        W19950  15.285  15.229  14.848
58662W        W19951  30.418   4.763   4.763
58663W        W19952  27.634   2.282   0.925
58664W        W19953   9.676  37.342  11.387
58665W        W19954  37.944  25.080  10.513
58666W        W19955  31.154  28.093   3.796
58667W        W19956  39.331  23.161   0.390
58668W        W19957  27.197   1.271  13.918
58669W        W19958  19.568  31.640   3.760
58670W        W19959  33.474   1.777  13.873
58671W        W19960  11.213  26.146  12.573
58672W        W19961  37.530  41.942  10.459
58673W        W19962  10.283  38.062   3.311
58674W        W19963  29.521  44.850   2.188
58675W        W19964   1.933  14.713   4.248
58676W        W19965  37.995  14.308   0.345
58677W        W19966  20.232  41.297   5.313
58678W        W19967  36.347  31.622   1.430
58679W        W19968  18.552  17.736  12.404
58680W        W19969  26.031  15.157  13.347
58681W        W19970  19.211  35.545   4.813
58682W        W19971  44.813  30.595  14.508
58683W        W19972  14.633  29.642  14.368
58684W        W19973  36.932   5.777  12.085
58685W        W19974  44.330  22.621   4.309
58686W        W19975  25.130   9.834   0.740
58687W        W19976  38.005  19.115  13.516
58688W        W19977  28.469  24.137  11.966
58689W        W19978  26.112  20.175   3.663
58690W        W19979   7.696  15.207  11.383
58691W        W19980  31.406  20.580   1.903
58692W        W19981  42.027  39.989  14.796
58693W        W19982  28.048  36.461   3.865
58694W        W19983  36.421  36.864   2.794
58695W        W19984   9.291  38.419  11.908
58696W        W19985   3.859  15.708  10.619
58697W        W19986  26.639  11.796  10.937
58698W        W19987  24.666  25.141  13.345
58699W        W19988  42.318  27.636   4.753
58700W        W19989  35.414   4.706   0.460
58701W        W19990  41.820  33.479  14.784
58702W        W19991  32.445  35.498   0.360
58703W        W19992  17.182  17.138   2.399
58704W        W19993  15.227  21.693   1.828
58705W        W19994  17.214   8.178  14.468
58706W        W19995   1.458  26.058  14.483
58707W        W19996  37.085  43.872   3.790
58708W        W19997  44.332  32.079   2.794
58709W        W19998  20.675   5.419  12.936
58710W        W19999  24.057   8.203  12.362
58711W        W20000  10.200   4.213   2.229
58712W        W20001  25.539   4.383  12.497
58713W        W20002  22.054   8.731  14.767
58714W        W20003  37.357  37.961  11.489
58715W        W20004   8.844  41.391  14.323
58716W        W20005  12.816  29.591  14.009
58717W        W20006  18.613   7.785   4.144
58718W        W20007  11.228  28.556   4.190
58719W        W20008  41.318   4.843   1.437
58720W        W20009  33.460  30.001  10.509
58721W        W20010  10.268  33.417  11.393
58722W        W20011  29.631  39.544  13.433
58723W        W20012  13.648  24.497  13.856
58724W        W20013  39.878  10.256  12.076
58725W        W20014  32.117  43.001  10.898
58726W        W20015   9.653  42.490   0.472
58727W        W20016   2.799  29.151  13.972
58728W        W20017   4.377  37.448  12.553
58729W        W20018  13.688   8.783   1.439
58730W        W20019  13.608  41.839  13.432
58731W        W20020  16.294  13.315   4.734
58732W        W20021  37.017  28.078  11.867
58733W        W20022  39.317  40.311  14.027
58734W        W20023  32.437  13.627  12.950
58735W        W20024  29.459   9.719  11.432
58736W        W20025  41.391  38.884   2.879
58737W        W20026  22.705  35.601  12.435
58738W        W20027  27.015  26.672   3.173
58739W        W20028  32.397   0.921   1.802
58740W        W20029  33.400  25.515  11.433
58741W        W20030   1.415  35.430  12.946
58742W        W20031  12.820   4.349  11.594
58743W        W20032   5.724  10.146   0.324
58744W        W20033  31.620  17.620   4.698
58745W        W20034  15.726  44.339   3.281
58746W        W20035  14.692   0.304   5.744
58747W        W20036   8.860   3.216  13.791
58748W        W20037  42.978  18.727  14.010
58749W        W20038  42.864   7.216  14.770
58750W        W20039  34.479  10.642   4.148
58751W        W20040   9.234  39.833  10.074
58752W        W20041  18.572  20.711  12.823
58753W        W20042  29.458  33.579  11.570
58754W        W20043  33.397   1.415  12.951
58755W        W20044  31.504  22.191  13.911
58756W        W20045  32.081   2.307   0.962
58757W        W20046  23.586  30.612   2.875
58758W        W20047   0.930  11.213  10.583
58759W        W20048  15.192   4.728  14.963
58760W        W20049   2.235   9.666  12.049
58761W        W20050  39.027  24.653  12.060
58762W        W20051  37.551  37.416  14.916
58763W        W20052   3.317  30.993   2.296
58764W        W20053  31.068  26.646  13.543
58765W        W20054  22.101  16.617   1.918
58766W        W20055  28.470  13.291   2.860
58767W        W20056  44.498  38.064  11.559
58768W        W20057  35.038  15.652   1.217
58769W        W20058  26.478  43.975  12.478
58770W        W20059  24.083  10.738   2.356
58771W        W20060  38.992  33.007  14.334
58772W        W20061  30.655  13.613   0.840
58773W        W20062  30.469  26.527  12.455
58774W        W20063  20.141  17.253   1.728
58775W        W20064   1.346  27.659  11.499
58776W        W20065   4.891  43.478   1.701
58777W        W20066  12.679  42.013  13.849
58778W        W20067  18.291  26.470   3.366
58779W        W20068   4.278  26.138   1.910
58780W        W20069   6.216  17.591  11.087
58781W        W20070  18.111  34.409  13.875
58782W        W20071   2.297   1.249   2.809
58783W        W20072  39.316  31.083   0.482
58784W        W20073  32.600   8.263  10.981
58785W        W20074  36.863  24.521   0.403
58786W        W20075  37.559  36.393   0.929
58787W        W20076  10.741  44.999  14.452
58788W        W20077   5.337   5.711   4.350
58789W        W20078  17.704  24.108  10.644
58790W        W20079  25.567  30.015  11.012
58791W        W20080  29.538   0.979  14.877
58792W        W20081  39.925  23.627   1.713
58793W        W20082  34.410   6.870   3.256
58794W        W20083  19.745  11.848  13.348
58795W        W20084  25.202   0.446   1.239
58796W        W20085  13.294  12.214  14.309
58797W        W20086   1.738  31.980   0.834
58798W        W20087  13.190  33.504   1.362
58799W        W20088  31.514   0.392  14.968
58800W        W20089   9.874  17.129  10.522
58801W        W20090  16.298  20.761  12.849
58802W        W20091  20.161  39.912   2.197
58803W        W20092  41.988  11.222  12.057
58804W        W20093  41.016  20.100  12.419
58805W        W20094  35.391  43.432  12.062
58806W        W20095  25.592  11.356  13.431
58807W        W20096  37.524  10.364  11.386
58808W        W20097   0.847   8.173   0.747
58809W        W20098   0.801   1.368  12.841
58810W        W20099   8.343  31.986  12.511
58811W        W20100  24.646  32.532  11.419
58812W        W20101  33.541  41.293  13.033
58813W        W20102   8.241  41.410   4.285
58814W        W20103   7.837  32.048  12.043
58815W        W20104  23.044  25.479  13.352
58816W        W20105  42.351  26.508  14.508
58817W        W20106   5.253   0.749  12.462
58818W        W20107   6.329  20.739   3.664
58819W        W20108  29.618  43.383   0.445
58820W        W20109  34.051  11.845   3.728
58821W        W20110   5.279   2.250   3.326
58822W        W20111  43.384   7.330  14.778
58823W        W20112  10.198  35.480  12.484
58824W        W20113   2.330  29.661  13.057
58825W        W20114  15.655  17.802   0.827
58826W        W20115  30.526   4.353  13.850
58827W        W20116  43.461  30.585  13.020
58828W        W20117  16.668   5.822  11.968
58829W        W20118   7.835  38.345  13.536
58830W        W20119  25.508  42.399  13.491
58831W        W20120  17.592  27.692  13.422
58832W        W20121  11.798  37.847  11.939
58833W        W20122  39.996  33.924  11.407
58834W        W20123  31.504   2.382  11.963
58835W        W20124  20.572   6.878  14.791
58836W        W20125  13.279  20.667  12.466
58837W        W20126  21.128  33.040   3.166
58838W        W20127   7.297  21.662  11.890
58839W        W20128  31.561   9.757   1.840
58840W        W20129  28.042  41.910   3.154
58841W        W20130   9.178  19.625   5.310
58842W        W20131   9.667  15.607   0.827
58843W        W20132  27.484  13.132  13.835
58844W        W20133  40.835  36.488  14.876
58845W        W20134  33.452   6.310   3.787
58846W        W20135  36.535   8.323  13.984
58847W        W20136   3.774   1.816  14.811
58848W        W20137  35.100  30.657   0.891
58849W        W20138   4.347  39.322  13.055
58850W        W20139  20.095  41.016   1.797
58851W        W20140  19.762  24.701  10.896
58852W        W20141   9.684  12.353   1.925
58853W        W20142  18.587  15.588  13.402
58854W        W20143  32.625  14.741   0.355
58855W        W20144  38.452   6.359   3.811
58856W        W20145   2.257  17.709  13.991
58857W        W20146  13.262  40.942   5.312
58858W        W20147  10.176  13.215  10.621
58859W        W20148   7.819   8.681  12.404
58860W        W20149  19.246  31.936  11.418
58861W        W20150   3.224  16.108   1.223
58862W        W20151  28.986  43.410  12.875
58863W        W20152  44.801  35.034  11.383
58864W        W20153  42.444   3.898  13.508
58865W        W20154  30.574  21.529   2.684
58866W        W20155  18.294   8.329   3.346
58867W        W20156  10.692  29.565   4.227
58868W        W20157  15.734  39.833   5.209
58869W        W20158  13.838  14.607  13.317
58870W        W20159   0.395  20.552   1.230
58871W        W20160   3.785  18.263   3.735
58872W        W20161   5.318   0.876  11.551
58873W        W20162  11.738   7.875   0.330
58874W        W20163  17.246   4.249  14.899
58875W        W20164  25.657  42.907   1.426
58876W        W20165   2.345  34.372  12.911
58877W        W20166  10.278  18.274   3.201
58878W        W20167  24.716  29.553   2.343
58879W        W20168  11.206  42.458   3.380
58880W        W20169  39.363  32.932   2.295
58881W        W20170  28.452  34.588  13.939
58882W        W20171  38.527  31.086   2.693
58883W        W20172  22.035  30.112  14.899
58884W        W20173  16.241  20.615   1.319
58885W        W20174  41.037  15.734   2.340
58886W        W20175  32.504  26.200  12.550
58887W        W20176  43.926  28.556  14.895
58888W        W20177  40.447  30.977  14.422
58889W        W20178  44.810  16.711  13.870
58890W        W20179   1.853  31.940  11.881
58891W        W20180  14.173  40.969  10.926
58892W        W20181  11.208  41.970  11.092
58893W        W20182  17.680  35.476   3.737
58894W        W20183  10.347  37.880  12.014
58895W        W20184  44.781  23.656  10.930
58896W        W20185  39.991  38.541  12.028
58897W        W20186  44.769  25.710   4.726
58898W        W20187  15.788   3.905   0.879
58899W        W20188  44.990  14.608  11.386
58900W        W20189  14.097  25.090   3.667
58901W        W20190  28.480  17.625  12.341
58902W        W20191  29.073  28.489  14.338
58903W        W20192  41.352  24.524  14.943
58904W        W20193  28.649  35.035   2.334
58905W        W20194  12.264  35.911  12.038
58906W        W20195  28.019  34.877  12.846
58907W        W20196  18.217  21.206   2.328
58908W        W20197   4.413  11.673  13.503
58909W        W20198  33.589  26.125   3.769
58910W        W20199  34.511  13.636  10.570
58911W        W20200  44.439  26.563  10.537
58912W        W20201  43.500  31.488   4.778
58913W        W20202   6.261  11.783  10.949
58914W        W20203  39.056  21.538  11.512
58915W        W20204  27.057   4.776  13.985
58916W        W20205   6.188  26.126   1.777
58917W        W20206  29.632  36.953  10.924
58918W        W20207  34.913  10.632   4.300
58919W        W20208  26.202   6.710  11.876
58920W        W20209  42.444  41.864  10.900
58921W        W20210  11.624  27.631  12.350
58922W        W20211  17.093  17.702   1.346
58923W        W20212  44.347  22.553  14.883
58924W        W20213  41.517   2.444   2.844
58925W        W20214  22.161   6.396   3.645
58926W        W20215  23.507  31.055   2.384
58927W        W20216  38.413  21.245  14.287
58928W        W20217   5.872   4.749   4.272
58929W        W20218  11.251  36.391  11.391
58930W        W20219  34.538  33.021  10.613
58931W        W20220  28.090  41.525  14.992
58932W        W20221  18.217  44.418   3.150
58933W        W20222  22.590  41.311   3.199
58934W        W20223  12.735  26.196   1.813
58935W        W20224  35.464  40.017   4.617
58936W        W20225  20.549   4.432   2.381
58937W        W20226  29.096  26.959   0.244
58938W        W20227  42.410  40.018   4.136
58939W        W20228   2.427   6.916  10.954
58940W        W20229  24.998  34.609  13.402
58941W        W20230   2.904   7.871  14.869
58942W        W20231  27.195  13.651   4.273
58943W        W20232  18.110   2.266   3.293
58944W        W20233  11.297  16.783   0.879
58945W        W20234   0.829  19.715  11.448
58946W        W20235  10.326  22.125   0.957
58947W        W20236  31.999   9.356  14.287
58948W        W20237  15.670  30.575  11.933
58949W        W20238  27.629   0.330   3.280
58950W        W20239  26.695  42.495  14.009
58951W        W20240  19.760   2.813   0.264
58952W        W20241  23.563  36.554  13.833
58953W        W20242  20.028  16.306   4.302
58954W        W20243   5.214  10.300  11.990
58955W        W20244  21.192  43.835  10.558
58956W        W20245  23.211  16.287  13.394
58957W        W20246   2.364  42.453  12.355
58958W        W20247  24.193  34.966  11.465
58959W        W20248  15.735   0.850  14.001
58960W        W20249  29.946  34.491   0.748
58961W        W20250  27.054  28.969  12.368
58962W        W20251  17.276  34.415  12.526
58963W        W20252  39.363  19.605  12.010
58964W        W20253  36.014  18.669  12.037
58965W        W20254  15.586   3.339   4.644
58966W        W20255  12.718  21.528  11.954
58967W        W20256  20.235  10.824   1.332
58968W        W20257   5.737  24.126   2.826
58969W        W20258  36.983  21.138  12.399
58970W        W20259  20.699  36.844  13.514
58971W        W20260  22.038   5.262  11.026
58972W        W20261  30.017  20.735   1.292
58973W        W20262  13.776  33.380   1.275
58974W        W20263  41.381  44.912   0.727
58975W        W20264  40.027  27.980  14.864
58976W        W20265  20.207  18.761  11.406
58977W        W20266  31.424  39.521  13.980
58978W        W20267   3.863   3.850  11.479
58979W        W20268   4.813  28.590   3.164
58980W        W20269  16.628   5.394   4.201
58981W        W20270  13.670   3.945  10.895
58982W        W20271  30.598   5.405  10.580
58983W        W20272  34.114  27.951  11.944
58984W        W20273  15.124   7.692  10.959
58985W        W20274   7.171  34.904   4.784
58986W        W20275  12.332   4.324  11.911
58987W        W20276  23.181   7.677   2.743
58988W        W20277  12.690  36.536  11.586
58989W        W20278  25.048  18.584  14.812
58990W        W20279  33.615  14.122   0.297
58991W        W20280   0.806  22.252  12.082
58992W        W20281  43.865  43.312   1.227
58993W        W20282  41.984  25.089  11.889
58994W        W20283   0.327  22.648   3.761
58995W        W20284  39.315  10.225  11.572
58996W        W20285  42.284   3.894  11.508
58997W        W20286   6.678  42.293   0.850
58998W        W20287  22.564  32.590   4.348
58999W        W20288  23.583  39.059   0.297
59000W        W20289  42.523  26.589   3.170
59001W        W20290  30.008  29.970  11.087
59002W        W20291  20.592  44.460   0.819
59003W        W20292   9.732  34.093   0.393
59004W        W20293  17.558  16.291   1.927
59005W        W20294  40.836   1.937  10.901
59006W        W20295   8.283  32.082  11.420
59007W        W20296  16.579   2.368  14.829
59008W        W20297  36.387  39.322  12.960
59009W        W20298   5.720  33.520  13.490
59010W        W20299   0.976  23.235   3.699
59011W        W20300  16.681   3.855   4.338
59012W        W20301  31.529  27.165   2.829
59013W        W20302  42.890  35.887   4.303
59014W        W20303  34.016  43.854   2.763
59015W        W20304  33.448  43.879   2.788
59016W        W20305  35.578  13.108   1.725
59017W        W20306  43.855   1.865   1.301
59018W        W20307  29.525  12.259   4.247
59019W        W20308  33.387  25.213   1.822
59020W        W20309   3.390  40.866   4.723
59021W        W20310  16.138  36.860   5.750
59022W        W20311   4.775   6.822  11.106
59023W        W20312  35.371  14.760   4.726
59024W        W20313  12.175  12.696   1.375
59025W        W20314  36.039  35.429   3.847
59026W        W20315  20.692  21.612   4.701
59027W        W20316  27.682   6.369  14.496
59028W        W20317   7.282   2.229  13.016
59029W        W20318  41.456  44.883   2.355
59030W        W20319  19.260  11.831  13.878
59031W        W20320  24.084  16.076   2.711
59032W        W20321  19.701  11.277  13.327
59033W        W20322  13.249  31.620   0.909
59034W        W20323   1.316   6.700  10.594
59035W        W20324   0.269  39.819  12.855
59036W        W20325  37.830  36.366  13.960
59037W        W20326  19.184   5.302   3.377
59038W        W20327  32.954  14.166   1.771
59039W        W20328  42.519  41.014  14.984
59040W        W20329  12.802  17.643  14.887
59041W        W20330  35.533   9.300   2.358
59042W        W20331  25.692  13.124  11.043
59043W        W20332  15.801   9.260   3.808
59044W        W20333  10.745  44.428   3.685
59045W        W20334  23.559  38.338   4.769
59046W        W20335  28.033  15.323   2.309
59047W        W20336   0.956  43.288  14.307
59048W        W20337  19.700   0.285  12.967
59049W        W20338   4.815  24.022   3.718
59050W        W20339  26.540  32.437   1.851
59051W        W20340  20.051  39.862  13.883
59052W        W20341  21.518  26.651   0.327
59053W        W20342  28.978  43.317   2.670
59054W        W20343  34.887  30.435  12.393
59055W        W20344  21.108  37.968  14.995
59056W        W20345  41.394  14.233   2.262
59057W        W20346  24.487  24.487  14.339
59058W        W20347   4.308  39.511  11.974
59059W        W20348  41.794   8.223   2.747
59060W        W20349   1.813  27.188   0.332
59061W        W20350  44.874  26.685   2.354
59062W        W20351  19.163  21.163  10.016
59063W        W20352  32.631   9.326  14.419
59064W        W20353  12.237   3.846   2.281
59065W        W20354  34.593  31.546  10.446
59066W        W20355  26.954  44.756   0.870
59067W        W20356  28.592  30.467  11.558
59068W        W20357  42.814  40.858  13.976
59069W        W20358   9.346  44.776  13.823
59070W        W20359  25.099  33.544  12.364
59071W        W20360  42.477  17.071  10.432
59072W        W20361  41.790   1.452  14.481
59073W        W20362   5.762  29.104   1.895
59074W        W20363  38.873   3.788   2.217
59075W        W20364  27.027  14.709   4.115
59076W        W20365   1.792  25.054  12.097
59077W        W20366  28.495  11.693  10.081
59078W        W20367  16.666  33.590   3.354
59079W        W20368   9.266   4.794  11.561
59080W        W20369  28.018   8.329   3.193
59081W        W20370  28.995   8.382   4.164
59082W        W20371  17.194  44.404   2.664
59083W        W20372  15.609  36.084  13.802
59084W        W20373  12.125  26.970   4.161
59085W        W20374  35.895   6.757   2.680
59086W        W20375  14.732  21.036   2.203
59087W        W20376  10.827  26.183  13.794
59088W        W20377  27.102   2.884  11.566
59089W        W20378  14.643  15.280  10.537
59090W        W20379  11.760  38.035  14.871
59091W        W20380  39.428   0.769   2.745
59092W        W20381  17.790  39.389  13.467
59093W        W20382  24.171   3.744   2.382
59094W        W20383  25.032  31.083   3.812
59095W        W20384  33.508  39.550  13.878
59096W        W20385  23.184  43.945  13.523
59097W        W20386   6.683  31.915  13.840
59098W        W20387  38.376  41.806   2.315
59099W        W20388  25.148   8.817   5.714
59100W        W20389   6.242  11.671  14.824
59101W        W20390  43.884   5.415   1.406
59102W        W20391  31.401   8.321  12.005
59103W        W20392  12.153  21.032   4.339
59104W        W20393  24.547  23.213  13.433
59105W        W20394  32.932  37.379  12.862
59106W        W20395  33.593  37.433   0.883
59107W        W20396   3.879   7.400   2.294
59108W        W20397  36.375  39.538  11.869
59109W        W20398  11.273   8.798   4.669
59110W        W20399  14.180   9.327  12.516
59111W        W20400  18.771  15.309   4.836
59112W        W20401  12.852  42.844   0.440
59113W        W20402   2.281   7.904   4.675
59114W        W20403  36.987  10.310  12.943
59115W        W20404  22.524  43.462  13.545
59116W        W20405   9.763  14.763  13.467
59117W        W20406  43.901  40.425  12.958
59118W        W20407  18.744  31.950   0.777
59119W        W20408  21.715  40.921   2.208
59120W        W20409  18.713  11.291  14.784
59121W        W20410  34.894  10.796  13.873
59122W        W20411   1.238  10.216  11.948
59123W        W20412  33.979  12.855   3.692
59124W        W20413  21.030  24.564   0.286
59125W        W20414  24.490  34.490   4.274
59126W        W20415  14.722  11.727  13.047
59127W        W20416   2.240  39.381   4.315
59128W        W20417  14.699   6.209   4.352
59129W        W20418   4.241  38.072   3.689
59130W        W20419  18.174   1.292   3.818
59131W        W20420  35.987   3.900   4.782
59132W        W20421  20.156  31.026   3.717
59133W        W20422  18.596  33.002   2.203
59134W        W20423  28.506   8.880  14.896
59135W        W20424  39.907  26.036  13.938
59136W        W20425  30.499  18.116  11.009
59137W        W20426  30.427  27.611   1.217
59138W        W20427  40.517   8.698   3.793
59139W        W20428   6.356   4.248   0.260
59140W        W20429  10.284  44.432   4.327
59141W        W20430  15.822  12.342   3.635
59142W        W20431  14.273   3.410  14.990
59143W        W20432  26.199  39.339  14.284
59144W        W20433  31.996  39.373  13.892
59145W        W20434  38.526  43.946  11.009
59146W        W20435  10.652  42.858   1.236
59147W        W20436  16.250  17.752  11.906
59148W        W20437  26.975   2.391  12.481
59149W        W20438   3.818  38.051  14.880
59150W        W20439  32.462  36.516   2.808
59151W        W20440  20.644  21.552  14.409
59152W        W20441  35.552  14.137   2.879
59153W        W20442  32.540  33.878   0.312
59154W        W20443   7.251  36.876  12.437
59155W        W20444  29.009  26.546  14.801
59156W        W20445  39.913  12.314   3.259
59157W        W20446  30.133  14.772   2.321
59158W        W20447   7.703  25.188  11.520
59159W        W20448  35.921   2.331  13.324
59160W        W20449  11.226   4.257  11.450
59161W        W20450  12.166  31.140   2.278
59162W        W20451  10.728  14.804   2.692
59163W        W20452  20.237  33.452   2.671
59164W        W20453  25.965   1.435  11.575
59165W        W20454  25.104   8.661  13.454
59166W        W20455  21.043   2.324   0.783
59167W        W20456  29.089   9.257  12.557
59168W        W20457  29.483  19.664   5.240
59169W        W20458   0.984   3.413  10.070
59170W        W20459  33.015  22.507   2.667
59171W        W20460  33.962  19.718   3.245
59172W        W20461  33.887  44.950  13.527
59173W        W20462  11.745  35.538  12.071
59174W        W20463  18.559  23.235  14.022
59175W        W20464  25.502   2.371  13.803
59176W        W20465   9.889  39.929   4.838
59177W        W20466  14.158  37.966  12.434
59178W        W20467   9.820  27.997  12.438
59179W        W20468  42.814  14.228  10.422
59180W        W20469  40.818  27.140   2.246
59181W        W20470  44.955  12.793  12.939
59182W        W20471  22.707  43.297   1.826
59183W        W20472   9.207  11.812  13.047
59184W        W20473   7.694   6.341  12.965
59185W        W20474   4.745  44.966   1.903
59186W        W20475  38.942  40.036  10.431
59187W        W20476  17.719   2.737   3.859
59188W        W20477  21.242  12.116   1.700
59189W        W20478   1.917  31.149  13.836
59190W        W20479  31.019  31.638  13.507
59191W        W20480  29.524  39.835   0.888
59192W        W20481  32.130  25.149   1.721
59193W        W20482  17.146  38.842   2.184
59194W        W20483  29.661   9.879   1.758
59195W        W20484  33.595  30.029  10.896
59196W        W20485  31.075   4.841  12.023
59197W        W20486   4.754  16.705  14.835
59198W        W20487  38.991  23.007  10.433
59199W        W20488  36.062  43.823  11.930
59200W        W20489  29.966  25.523  11.532
59201W        W20490   1.872  36.052  13.996
59202W        W20491  43.507  27.170  10.947
59203W        W20492   9.645   4.291  13.882
59204W        W20493  24.704  39.964   4.192
59205W        W20494  10.327   1.410   0.254
59206W        W20495  29.655  11.670   2.277
59207W        W20496  11.697  32.464  13.987
59208W        W20497  41.804   8.278  10.453
59209W        W20498   5.437  13.266   3.182
59210W        W20499  16.288  27.521   4.705
59211W        W20500  39.489   3.882  10.530
59212W        W20501  39.467  23.112  10.994
59213W        W20502   0.272  43.842   0.419
59214W        W20503  28.463  27.555   2.711
59215W        W20504  20.747  12.842   3.704
59216W        W20505   5.746   2.765  12.456
59217W        W20506  12.325  13.795  14.856
59218W        W20507  27.504  13.715   0.409
59219W        W20508  28.142  14.260   2.874
59220W        W20509  36.378  30.001   1.287
59221W        W20510  21.220   0.944  10.960
59222W        W20511   3.324  41.366  14.786
59223W        W20512   5.299   8.780  10.559
59224W        W20513  21.068  11.328   0.770
59225W        W20514  34.983   8.885  14.282
59226W        W20515  21.723  17.201  14.338
59227W        W20516   8.725  32.526  14.782
59228W        W20517   6.390  28.543  10.992
59229W        W20518  14.139   3.315  13.424
59230W        W20519  30.948  22.125   1.749
59231W        W20520  19.672   6.721   2.181
59232W        W20521  15.089  34.042   3.169
59233W        W20522  39.412  38.534   2.735
59234W        W20523   5.723  38.056  10.492
59235W        W20524  25.696   4.716  13.400
59236W        W20525  11.842  31.412   2.290
59237W        W20526   0.484  28.645   1.407
59238W        W20527  21.630   1.823  12.831
59239W        W20528  24.666  21.209   0.470
59240W        W20529  33.385  44.901   3.847
59241W        W20530  29.447   9.707   2.864
59242W        W20531  19.774  34.902  10.441
59243W        W20532  39.057  44.973  14.922
59244W        W20533   3.254  25.575  12.062
59245W        W20534  40.946  19.169   0.265
59246W        W20535  12.362  23.699   1.306
59247W        W20536  15.222   2.913  14.954
59248W        W20537   2.924  14.274  12.943
59249W        W20538   2.340  42.903   1.378
59250W        W20539  17.555   1.810  13.510
59251W        W20540  44.334  22.599  13.488
59252W        W20541  21.602  34.392   0.896
59253W        W20542   7.878  31.145  10.927
59254W        W20543  31.448  36.897  10.960
59255W        W20544  15.585   2.293  11.001
59256W        W20545   2.731   6.878   1.844
59257W        W20546   4.742  29.492  11.889
59258W        W20547  40.907   8.299   0.355
59259W        W20548  44.359   0.432   3.371
59260W        W20549  35.383   4.207   4.661
59261W        W20550  21.599  39.374  11.501
59262W        W20551  22.083  22.571  14.856
59263W        W20552  42.946  25.606  10.424
59264W        W20553  26.200   0.872   2.735
59265W        W20554  44.413  36.524  13.823
59266W        W20555  28.573   5.924  14.787
59267W        W20556   6.387  27.526  14.974
59268W        W20557  21.091   6.794   0.254
59269W        W20558  24.504   8.754   0.315
59270W        W20559  19.573  43.331  12.483
59271W        W20560  26.576  37.083  11.908
59272W        W20561  23.192  39.356  11.517
59273W        W20562  27.946  41.505  11.612
59274W        W20563  18.759  15.665  14.295
59275W        W20564  44.773  26.461   2.808
59276W        W20565  32.934  34.533  12.937
59277W        W20566  30.501  28.083  13.032
59278W        W20567  24.654  12.821  11.471
59279W        W20568   5.330  28.609   3.192
59280W        W20569  16.237  31.959   3.664
59281W        W20570   0.255   4.412   1.729
59282W        W20571  26.200   3.774   3.268
59283W        W20572   4.391  14.135   1.396
59284W        W20573  41.893  15.631   4.816
59285W        W20574  15.680   2.252   0.300
59286W        W20575  35.994  12.772   2.376
59287W        W20576  26.595   2.848   4.779
59288W        W20577  13.243   9.165  11.925
59289W        W20578  33.414  35.379   2.857
59290W        W20579  43.901   9.815  10.034
59291W        W20580  14.736  39.316  10.001
59292W        W20581   9.830  34.881  13.816
59293W        W20582   4.736  16.763  10.623
59294W        W20583  33.935  36.462  14.377
59295W        W20584  42.028   3.432  14.911
59296W        W20585   8.235  37.922  13.400
59297W        W20586  15.722  29.980   0.460
59298W        W20587  23.713  11.363   2.315
59299W        W20588  44.260  18.704   1.715
59300W        W20589   2.798  10.331  12.453
59301W        W20590  29.522   2.398   3.682
59302W        W20591  27.619  26.460   1.745
59303W        W20592  32.431  44.345  11.887
59304W        W20593  12.349  27.596   2.289
59305W        W20594  31.123  28.185  11.898
59306W        W20595  12.351  41.802  14.812
59307W        W20596  28.015  36.512   4.778
59308W        W20597  15.324  32.091   0.255
59309W        W20598  33.537  31.420   2.798
59310W        W20599  25.595   3.363  12.050
59311W        W20600  41.876  43.306  14.506
59312W        W20601  34.551  22.039   3.809
59313W        W20602  13.777  39.377   3.171
59314W        W20603  33.116  30.909  12.931
59315W        W20604  21.709   5.720  14.866
59316W        W20605  27.559  28.040  14.019
59317W        W20606  28.618  30.915  11.433
59318W        W20607  34.062  37.450   2.283
59319W        W20608  37.032  33.963   3.307
59320W        W20609   0.846  11.371  14.861
59321W        W20610  21.549  23.643   1.881
59322W        W20611   0.429  10.168  13.884
59323W        W20612  33.391  36.365  13.852
59324W        W20613  20.682  24.096  12.068
59325W        W20614  42.824   6.385  10.947
59326W        W20615  31.488  20.597  13.949
59327W        W20616  37.396  22.116   1.766
59328W        W20617  26.538  27.533  10.520
59329W        W20618  33.902  13.773  14.427
59330W        W20619  23.121  31.061  13.920
59331W        W20620  12.727   3.790  11.511
59332W        W20621  37.038  20.263  14.855
59333W        W20622  10.681  34.936  10.088
59334W        W20623  43.014  39.374   3.828
59335W        W20624  31.544  12.714  12.934
59336W        W20625  24.064  17.743  14.978
59337W        W20626  41.000   4.723   3.224
59338W        W20627   6.211   9.813   2.662
59339W        W20628   4.342   6.394  10.450
59340W        W20629  40.935   3.747   2.736
59341W        W20630  18.181  41.895  12.976
59342W        W20631  17.687  44.291   4.620
59343W        W20632  27.489  29.466   0.430
59344W        W20633   5.222  28.088  12.444
59345W        W20634   6.825   5.254  12.932
59346W        W20635  23.183  26.503   2.811
59347W        W20636  12.176   8.294  11.112
59348W        W20637  23.106   6.195   2.384
59349W        W20638  37.418  17.579   0.277
59350W        W20639  22.147  35.937   3.789
59351W        W20640  14.712  36.378   3.370
59352W        W20641  15.225  32.885  13.978
59353W        W20642  12.826  28.079  13.408
59354W        W20643   4.797  39.560   1.321
59355W        W20644  27.038  17.166  13.400
59356W        W20645  14.834  38.916  12.872
59357W        W20646  11.762  23.701  11.858
59358W        W20647  32.573  10.141   3.694
59359W        W20648  34.890  31.422   1.729
59360W        W20649  10.242  25.971   4.719
59361W        W20650  15.690  29.603  12.495
59362W        W20651   3.268   5.349  14.287
59363W        W20652  14.178  41.960   3.778
59364W        W20653  23.565   4.396   2.209
59365W        W20654  12.667   3.933   1.285
59366W        W20655  25.171  33.954   2.734
59367W        W20656  21.229  33.105  14.996
59368W        W20657   5.798   2.414  11.030
59369W        W20658  26.697   3.736   0.275
59370W        W20659  17.598  39.391   1.867
59371W        W20660  44.336  33.539  10.939
59372W        W20661  32.530  27.490  10.961
59373W        W20662  16.187  29.993  13.423
59374W        W20663  31.997  44.504  13.985
59375W        W20664  40.852  11.660   3.315
59376W        W20665  17.705  31.480  11.551
59377W        W20666  21.073  33.415  13.404
59378W        W20667  26.054  25.060   5.788
59379W        W20668  32.407  43.420   3.223
59380W        W20669  28.497  27.547   2.388
59381W        W20670  36.590   5.412  11.905
59382W        W20671  14.774   8.777  12.370
59383W        W20672  27.103   9.387   0.392
59384W        W20673  22.552  41.032  11.591
59385W        W20674   0.804  12.234  14.877
59386W        W20675   8.714  37.002  14.323
59387W        W20676   3.818   6.806   3.781
59388W        W20677  20.638  21.517  13.805
59389W        W20678  32.424  44.450   2.412
59390W        W20679  13.612  31.109  11.429
59391W        W20680  15.746  28.681   3.330
59392W        W20681  42.829   4.742  13.836
59393W        W20682  36.492  20.162   2.399
59394W        W20683   2.919  25.652  11.582
59395W        W20684   3.244  23.551  13.924
59396W        W20685   9.769  24.629  10.642
59397W        W20686  38.374  36.074  11.603
59398W        W20687  27.617  29.425  10.607
59399W        W20688   8.815  38.350   1.438
59400W        W20689  14.116   7.730   0.324
59401W        W20690  31.579  10.311  13.804
59402W        W20691  15.239  34.514   2.827
59403W        W20692  36.410   8.833  14.429
59404W        W20693  38.343  32.944   3.361
59405W        W20694   1.817  30.136  11.401
59406W        W20695  29.668  42.393  14.786
59407W        W20696  38.370  34.983   4.315
59408W        W20697   7.275  35.399  10.093
59409W        W20698  16.669  31.433  12.014
59410W        W20699  44.769  31.540  12.969
59411W        W20700   3.936  37.544  10.601
59412W        W20701  15.579  11.182  10.593
59413W        W20702  37.973  19.145   1.305
59414W        W20703  24.514  37.494  13.898
59415W        W20704  17.709  29.432   4.234
59416W        W20705  12.194  41.960   2.214
59417W        W20706  18.183  17.667   4.291
59418W        W20707   8.396  23.569  10.594
59419W        W20708  36.561  40.034  11.867
59420W        W20709  27.951  39.439  14.842
59421W        W20710   8.658  38.381   4.250
59422W        W20711  40.396   1.247  12.385
59423W        W20712  37.581   4.301  14.943
59424W        W20713  35.010  16.641  14.422
59425W        W20714  27.650  43.774   3.680
59426W        W20715  29.529  41.901   2.299
59427W        W20716  15.103   2.461   4.320
59428W        W20717  38.059  38.008  14.421
59429W        W20718  25.145  43.388  13.893
59430W        W20719  21.241   3.853   0.360
59431W        W20720  17.262  44.845  11.403
59432W        W20721  14.713  43.890  14.894
59433W        W20722  22.193  35.085   0.786
59434W        W20723  37.347  36.001  13.429
59435W        W20724   5.427   8.171   3.252
59436W        W20725  35.420  28.153   3.863
59437W        W20726  11.782   2.464  10.482
59438W        W20727  27.005  43.467   0.917
59439W        W20728  31.973  13.821   1.766
59440W        W20729  38.961   4.921  10.500
59441W        W20730  10.358  26.999   2.339
59442W        W20731  17.281  28.654  13.343
59443W        W20732  24.582  25.080   5.204
59444W        W20733  13.681   8.767   4.674
59445W        W20734  23.701   3.336   2.793
59446W        W20735  30.655  38.541  10.643
59447W        W20736  40.004  38.020  13.058
59448W        W20737  42.294   0.920  14.509
59449W        W20738  14.268  12.208  12.948
59450W        W20739  41.448   8.844   3.730
59451W        W20740  23.032  28.034   2.717
59452W        W20741  18.067  28.143  10.423
59453W        W20742  21.181   6.182   4.666
59454W        W20743  39.490  35.364  11.577
59455W        W20744  22.101   1.261   4.710
59456W        W20745  15.267  41.889   2.821
59457W        W20746   9.715  35.371   5.229
59458W        W20747  16.651  36.875   2.897
59459W        W20748  31.621   1.404   1.437
59460W        W20749  35.085  20.251   4.669
59461W        W20750  27.131  37.899   1.312
59462W        W20751  43.766  13.185   5.200
59463W        W20752  40.992   0.836  14.338
59464W        W20753  24.659  28.094  11.934
59465W        W20754  42.969   9.665  13.837
59466W        W20755   6.332  20.253  13.886
59467W        W20756  43.908  44.824   2.785
59468W        W20757  35.862  29.564  12.083
59469W        W20758  31.981  14.656   0.282
59470W        W20759   3.422  26.511   5.086
59471W        W20760   5.430  43.966  12.444
59472W        W20761  42.314  33.551   4.739
59473W        W20762   6.782   0.485   0.917
59474W        W20763  15.117  23.131  11.898
59475W        W20764  16.083   6.793  11.395
59476W        W20765  20.033  41.338  10.141
59477W        W20766  25.019  27.089  13.506
59478W        W20767   7.850   4.934  10.617
59479W        W20768   8.681  30.516   1.803
59480W        W20769  13.224  32.015  13.354
59481W        W20770  29.588  42.460  11.892
59482W        W20771   1.402  13.186  12.960
59483W        W20772  27.097  43.801  14.935
59484W        W20773   7.256  10.193   2.885
59485W        W20774  40.534  43.452  13.534
59486W        W20775  30.986   4.838   0.739
59487W        W20776  28.129  17.271   2.685
59488W        W20777  26.475  30.629  13.378
59489W        W20778   3.435  33.611   2.739
59490W        W20779  40.425  18.174  14.501
59491W        W20780  32.475  15.275   1.834
59492W        W20781   9.357  27.445   3.362
59493W        W20782  31.041  30.982  11.435
59494W        W20783  25.675  23.019  11.924
59495W        W20784   2.890  39.952   4.620
59496W        W20785  24.206  24.627  13.798
59497W        W20786  15.327  31.556  14.335
59498W        W20787  11.169   6.270   1.842
59499W        W20788   4.233   5.211   1.876
59500W        W20789  23.178  18.726   2.732
59501W        W20790  21.595  37.032   1.434
59502W        W20791  13.349   8.312  11.890
59503W        W20792  34.872   5.929  12.476
59504W        W20793  29.569  18.137   4.764
59505W        W20794  39.522  19.074  13.394
59506W        W20795  38.995   6.217   5.254
59507W        W20796  42.526  39.964  11.083
59508W        W20797  26.564   3.773   1.824
59509W        W20798  12.128  29.591  14.964
59510W        W20799  28.120  20.225   3.862
59511W        W20800  15.747  10.844  12.495
59512W        W20801  31.129  30.118   3.695
59513W        W20802  24.159   0.438   1.449
59514W        W20803  17.762  17.758   0.397
59515W        W20804  12.757  13.112  14.004
59516W        W20805  37.380   2.230   3.737
59517W        W20806  44.375  20.747   3.288
59518W        W20807  11.716   3.795  14.390
59519W        W20808   0.286   5.254   1.253
59520W        W20809  44.474   5.810   1.258
59521W        W20810   8.900   4.866  14.436
59522W        W20811  35.030  34.079  11.045
59523W        W20812  27.545  21.598   9.609
59524W        W20813   3.377   7.311  11.526
59525W        W20814  28.581   3.891  13.045
59526W        W20815  34.911  34.964   4.236
59527W        W20816  12.856  16.727  11.027
59528W        W20817   4.241  25.491   0.936
59529W        W20818  13.250  21.619   0.468
59530W        W20819   6.731  31.644  10.058
59531W        W20820   9.209  33.459   1.873
59532W        W20821  14.641   5.384  12.035
59533W        W20822  15.654  34.528  14.475
59534W        W20823  24.014  30.083  14.492
59535W        W20824  22.575  22.679   0.366
59536W        W20825  22.569   5.821   2.842
59537W        W20826   6.206  13.717  14.771
59538W        W20827  21.057  23.107  12.406
59539W        W20828   4.773  38.965   3.191
59540W        W20829  22.094  27.039  14.823
59541W        W20830  21.139  22.688   0.819
59542W        W20831  24.497  36.031  14.341
59543W        W20832  26.546  16.297  13.902
59544W        W20833  17.225  20.681   1.706
59545W        W20834  22.746  28.523   2.238
59546W        W20835  15.581   6.399   3.349
59547W        W20836  18.108  34.505   4.319
59548W        W20837  28.003  24.052  14.352
59549W        W20838  10.772  36.875   0.410
59550W        W20839  41.356  13.812   3.707
59551W        W20840  31.510  23.193  10.459
59552W        W20841   9.841   4.729  11.483
59553W        W20842  26.966   0.307   1.402
59554W        W20843  36.032  10.374   4.794
59555W        W20844   9.287   7.186   4.814
59556W        W20845  29.058  16.283  11.500
59557W        W20846  33.483   3.832   3.269
59558W        W20847  34.006  22.661   4.794
59559W        W20848  20.196  39.448   4.749
59560W        W20849   4.308  21.604  12.454
59561W        W20850   8.761  34.063   2.366
59562W        W20851  10.336  36.015   4.245
59563W        W20852   8.898   0.978  14.297
59564W        W20853  20.037   5.773  10.925
59565W        W20854   4.723  20.753   0.935
59566W        W20855  33.573   4.914   1.901
59567W        W20856  23.027  42.862  13.049
59568W        W20857   0.847  30.442  10.574
59569W        W20858  28.606  33.087   3.691
59570W        W20859  17.097  43.904  11.023
59571W        W20860  29.080  15.797  14.452
59572W        W20861  36.908   2.855  10.543
59573W        W20862  28.134  39.997  14.383
59574W        W20863  12.200   5.756   4.336
59575W        W20864  41.458  18.651   2.198
59576W        W20865  21.035   7.355  13.832
59577W        W20866  30.059  29.993  14.467
59578W        W20867  40.928  33.620  10.458
59579W        W20868  40.397  29.016  12.405
59580W        W20869  12.802   9.815  11.993
59581W        W20870  18.698  32.128   4.133
59582W        W20871  32.455   2.259   2.409
59583W        W20872  33.928  32.093   4.763
59584W        W20873  27.491  12.852  11.537
59585W        W20874   9.685  27.511  11.399
59586W        W20875  12.790  31.962   3.320
59587W        W20876  13.217  36.929   0.373
59588W        W20877  22.575  27.129   4.313
59589W        W20878   5.912   9.651   3.258
59590W        W20879   1.331  15.095  11.008
59591W        W20880  26.061   0.952   1.304
59592W        W20881   8.311  24.670  13.943
59593W        W20882  17.167   8.808  12.876
59594W        W20883  35.008  11.626  14.802
59595W        W20884  44.977  43.401   0.458
59596W        W20885   7.679   5.317  11.565
59597W        W20886  26.645  17.765  11.939
59598W        W20887  16.317  39.872  14.803
59599W        W20888  25.684   2.410   4.722
59600W        W20889  44.486  34.091  10.606
59601W        W20890   0.867  16.153   2.238
59602W        W20891  31.458  38.847  11.950
59603W        W20892  15.597   7.333   2.343
59604W        W20893  25.708  13.789  10.596
59605W        W20894  28.601  44.486  10.449
59606W        W20895  10.281  28.989  10.520
59607W        W20896  31.992  43.943   1.702
59608W        W20897  24.206  28.178  12.077
59609W        W20898  21.132  20.696  12.383
59610W        W20899  14.125  39.817   1.732
59611W        W20900   5.924  21.546   3.300
59612W        W20901  16.618  44.411  13.017
59613W        W20902  42.311  15.665  11.124
59614W        W20903   7.794  18.094  11.909
59615W        W20904   4.315   5.795   2.309
59616W        W20905  12.279  42.819   3.332
59617W        W20906  12.638  41.032   0.456
59618W        W20907   5.842  19.646  11.477
59619W        W20908   8.320  37.476  11.928
59620W        W20909  12.352  43.457   3.364
59621W        W20910  18.155   6.902  12.831
59622W        W20911  35.357   3.300   4.129
59623W        W20912  31.969  26.044  13.498
59624W        W20913  33.069  27.031  12.056
59625W        W20914  27.571  14.179  14.001
59626W        W20915   4.760  26.534  13.042
59627W        W20916  18.207  37.499  14.801
59628W        W20917   8.801  24.045  11.962
59629W        W20918  19.707  36.074   4.264
59630W        W20919  29.970  16.809  11.941
59631W        W20920  33.104   9.652   4.282
59632W        W20921   7.791  29.964   1.353
59633W        W20922   6.805  17.281   2.407
59634W        W20923  26.031  21.198   2.326
59635W        W20924   9.259  25.161   5.116
59636W        W20925  33.035   5.220   2.229
59637W        W20926   3.424  43.960  14.496
59638W        W20927  14.236   3.251  12.830
59639W        W20928  30.592  17.701   1.341
59640W        W20929   7.800  15.759   3.216
59641W        W20930  16.686  12.251   0.393
59642W        W20931  16.712   7.304  14.296
59643W        W20932  11.300   1.381  12.941
59644W        W20933   0.266  27.096   2.418
59645W        W20934   8.817  12.778  12.018
59646W        W20935  37.488  37.070  10.435
59647W        W20936   0.894  17.735   1.360
59648W        W20937  19.138  22.206  10.417
59649W        W20938   7.406  15.311  10.564
59650W        W20939   7.694   6.404   0.886
59651W        W20940  36.535   6.255   1.337
59652W        W20941   2.360  18.177  14.494
59653W        W20942  10.335   7.737   5.086
59654W        W20943  17.604   4.871   0.311
59655W        W20944  21.095  11.317  12.068
59656W        W20945  42.309  19.101   4.762
59657W        W20946  13.759  35.103   3.294
59658W        W20947  36.912  19.272  11.462
59659W        W20948   6.376  10.316   3.793
59660W        W20949   9.855  28.976  14.383
59661W        W20950   4.257  14.618   0.828
59662W        W20951   3.452  33.380  14.882
59663W        W20952  27.536  27.198  12.986
59664W        W20953   3.299  43.934  11.124
59665W        W20954   1.923  43.843   4.835
59666W        W20955  38.461  27.148  10.511
59667W        W20956   9.235  10.382  12.874
59668W        W20957  23.033  34.599   4.815
59669W        W20958   3.898  16.235   1.247
59670W        W20959  43.378  17.173   2.902
59671W        W20960  30.074  11.311  12.343
59672W        W20961  35.087   7.283   0.345
59673W        W20962  10.858  14.808  14.888
59674W        W20963  42.480  30.157   4.155
59675W        W20964  13.773  27.107  12.564
59676W        W20965  11.283   2.356   2.777
59677W        W20966   1.809  31.515   1.309
59678W        W20967   4.376  21.119   2.898
59679W        W20968  26.156  36.945   4.787
59680W        W20969  26.693  38.396   3.707
59681W        W20970   8.783  44.946   4.738
59682W        W20971  44.913  44.263   2.352
59683W        W20972  19.064  32.404   4.145
59684W        W20973   6.401  28.443   1.736
59685W        W20974  23.551  44.438  10.994
59686W        W20975  21.734  35.971  10.468
59687W        W20976  22.577  36.066  12.031
59688W        W20977  22.219  11.242   3.188
59689W        W20978  21.228  24.079   0.907
59690W        W20979   7.812   3.358   5.106
59691W        W20980  15.180  14.257  13.899
59692W        W20981  32.896  34.591  14.461
59693W        W20982  25.128  29.585   4.807
59694W        W20983  21.513  16.760   3.636
59695W        W20984  37.448   0.406   4.179
59696W        W20985  27.176  34.901   1.338
59697W        W20986   6.246  21.198  10.545
59698W        W20987  37.980   0.860   1.406
59699W        W20988   4.220  30.512  11.118
59700W        W20989   1.852   5.901   4.773
59701W        W20990  28.498   7.893  10.009
59702W        W20991  42.436  16.750   0.264
59703W        W20992  14.788  17.185   4.790
59704W        W20993  12.737   9.280   2.727
59705W        W20994  42.831  14.664  10.415
59706W        W20995  25.109  23.682   3.238
59707W        W20996  25.583  20.602  12.852
59708W        W20997  42.392  39.426   0.360
59709W        W20998  20.736  41.424  11.044
59710W        W20999  44.006  30.543   1.216
59711W        W21000   8.841   7.171  13.955
59712W        W21001  29.079  11.659   3.232
59713W        W21002  32.139  31.928  12.422
59714W        W21003  36.888  23.610  13.547
59715W        W21004  25.208  44.002  12.341
59716W        W21005  39.369  39.428   1.782
59717W        W21006   7.413  42.785  13.894
59718W        W21007   8.791  21.601   1.241
59719W        W21008  12.729  38.045   0.790
59720W        W21009  42.296   5.389  10.487
59721W        W21010  40.544  32.469  13.961
59722W        W21011   8.269  18.084  12.436
59723W        W21012   8.376  24.193   0.470
59724W        W21013  40.504   9.662   1.404
59725W        W21014   6.711  30.591  14.434
59726W        W21015  31.147  18.648  10.987
59727W        W21016  43.847  43.944   1.801
59728W        W21017  41.350  11.753  13.044
59729W        W21018   9.211  39.537  10.486
59730W        W21019  29.976   8.306   1.242
59731W        W21020  28.635  37.545  11.979
59732W        W21021  38.976  12.653  12.959
59733W        W21022  37.543  24.125   1.872
59734W        W21023  30.656  26.674  14.312
59735W        W21024  44.483   3.220   1.298
59736W        W21025  42.313  16.253   1.402
59737W        W21026  34.584  36.027  11.927
59738W        W21027  31.077   4.289  10.443
59739W        W21028  42.800  40.830   2.215
59740W        W21029   2.880   0.794   0.303
59741W        W21030  17.087  27.632  14.025
59742W        W21031  19.766  33.621  12.468
59743W        W21032   2.732  44.860  14.890
59744W        W21033  33.960   2.302  10.109
59745W        W21034   9.687  11.719   3.673
59746W        W21035  32.091  13.248   4.301
59747W        W21036   4.284  41.344   0.860
59748W        W21037  15.120  33.465   2.886
59749W        W21038   5.291  10.333   4.599
59750W        W21039   8.778  25.479  13.319
59751W        W21040  30.084  36.959  12.513
59752W        W21041  17.103  29.071  12.082
59753W        W21042  37.008  33.011  11.467
59754W        W21043  26.055  44.259   0.302
59755W        W21044   9.162  12.636   1.859
59756W        W21045   6.695  14.642  11.916
59757W        W21046  36.956  14.115   5.298
59758W        W21047  13.162   4.875  11.113
59759W        W21048  10.250  38.987  11.466
59760W        W21049  14.229  10.176  10.003
59761W        W21050  20.608   1.942   2.314
59762W        W21051  22.090  23.534   0.340
59763W        W21052  20.271   2.884   2.675
59764W        W21053   9.654  22.666  14.990
59765W        W21054  24.060  42.323   0.737
59766W        W21055  34.997   1.270   3.714
59767W        W21056   9.164  16.148   2.346
59768W        W21057  11.671  41.916   1.388
59769W        W21058  13.776   4.227  14.281
59770W        W21059  40.864  12.701   3.181
59771W        W21060  44.327  33.441  12.887
59772W        W21061   3.226  16.088   2.875
59773W        W21062  12.130  20.722  10.072
59774W        W21063   1.870  36.083   1.237
59775W        W21064  40.495  21.187  14.844
59776W        W21065   3.252   6.425   0.802
59777W        W21066   5.745  31.467   2.349
59778W        W21067  22.243  34.548   1.398
59779W        W21068  39.949  44.010  14.427
59780W        W21069  43.909  36.874   2.229
59781W        W21070  32.141  26.477   1.841
59782W        W21071  16.696  36.059  14.910
59783W        W21072  26.109  31.617  11.980
59784W        W21073  23.052  28.538   2.241
59785W        W21074   6.863  37.459   4.709
59786W        W21075  26.586  26.678   2.374
59787W        W21076  31.045  21.222   3.705
59788W        W21077  40.361  36.476  11.876
59789W        W21078  26.169  10.189  12.026
59790W        W21079  32.130  19.264  10.936
59791W        W21080  35.496  44.449  10.404
59792W        W21081   6.320   0.977   1.788
59793W        W21082  43.500  36.019   0.863
59794W        W21083  15.256  40.935   4.815
59795W        W21084   0.964  43.381  13.933
59796W        W21085  35.430  37.879  10.596
59797W        W21086  17.561  41.832   4.808
59798W        W21087   3.835  10.201  14.875
59799W        W21088  26.072  27.514  14.941
59800W        W21089  36.531  22.537   0.342
59801W        W21090  11.845  29.469   0.263
59802W        W21091  36.929  18.696   4.337
59803W        W21092  36.952  32.451   2.215
59804W        W21093  24.615  14.798   2.279
59805W        W21094  30.414  23.633   2.238
59806W        W21095  40.492  30.978   2.185
59807W        W21096  44.825  30.025   3.756
59808W        W21097  42.287  42.891  11.538
59809W        W21098  34.954  42.922  10.094
59810W        W21099   3.713  41.523  11.005
59811W        W21100  44.497  42.523  13.383
59812W        W21101  31.127  13.206   1.328
59813W        W21102   1.799   0.986   2.291
59814W        W21103   8.763  44.894  11.938
59815W        W21104  39.870  28.447  13.312
59816W        W21105  38.389   1.863   4.797
59817W        W21106   1.847  25.515   3.178
59818W        W21107  12.329  39.503   2.890
59819W        W21108  40.518   6.269   2.895
59820W        W21109  29.044  35.876  13.344
59821W        W21110  44.973   2.848  11.062
59822W        W21111   5.920   9.795  13.929
59823W        W21112  10.830   6.767  11.590
59824W        W21113   1.773  29.945   4.745
59825W        W21114   7.799  11.768  10.605
59826W        W21115  31.548  42.288  14.411
59827W        W21116  20.653   4.895   0.259
59828W        W21117  31.422  27.044   4.128
59829W        W21118   4.876  16.138   4.196
59830W        W21119  34.098  19.114  11.551
59831W        W21120  37.373  10.362   2.893
59832W        W21121  18.283  19.194   4.179
59833W        W21122  19.557   5.350   4.310
59834W        W21123  20.616  22.524   1.216
59835W        W21124  16.186   3.736   1.421
59836W        W21125  14.809  31.075   3.702
59837W        W21126  12.807  29.574   1.908
59838W        W21127  16.157   0.293  12.001
59839W        W21128  19.213  31.586   3.242
59840W        W21129   3.786  33.545  14.894
59841W        W21130  21.538  17.085  13.889
59842W        W21131  10.184   6.343   0.880
59843W        W21132  16.076  30.050   4.230
59844W        W21133  24.623   5.260   0.926
59845W        W21134   9.346  40.860  13.355
59846W        W21135   2.739  23.552  12.385
59847W        W21136  38.397  36.947  13.014
59848W        W21137  18.071  31.148  12.479
59849W        W21138  44.465  32.574  13.890
59850W        W21139  25.521  41.383   5.112
59851W        W21140   4.256   5.701   3.711
59852W        W21141   5.199   3.946  11.008
59853W        W21142  39.465   6.734  12.412
59854W        W21143  10.358  33.972   3.704
59855W        W21144  38.067  30.097  11.568
59856W        W21145  39.476  12.821  11.107
59857W        W21146  25.676   7.694   5.707
59858W        W21147  40.030  21.164   2.820
59859W        W21148  30.943  20.763   2.232
59860W        W21149  30.065  18.162   2.272
59861W        W21150  17.792  17.226  11.426
59862W        W21151  28.997   4.439   4.217
59863W        W21152  40.976   6.757  14.857
59864W        W21153   0.953   8.209   3.637
59865W        W21154  35.576   3.346   1.321
59866W        W21155  37.493  43.848  12.877
59867W        W21156  23.061  10.180   4.315
59868W        W21157   3.854  39.892  10.925
59869W        W21158  15.295  28.441  11.876
59870W        W21159  33.917  31.917   4.340
59871W        W21160  29.592  40.444  11.926
59872W        W21161  28.655  26.001  13.899
59873W        W21162  19.584  18.742  13.792
59874W        W21163  36.397  36.969  12.352
59875W        W21164  24.639  29.939   1.731
59876W        W21165   9.664  38.547  14.890
59877W        W21166  19.778  33.093   0.762
59878W        W21167   9.706   2.844   2.678
59879W        W21168   9.854  15.744  11.515
59880W        W21169  36.497  21.060   0.946
59881W        W21170  23.177  21.555   2.383
59882W        W21171  35.450  26.548   2.825
59883W        W21172  16.572  31.433   0.805
59884W        W21173  18.780  33.045   4.814
59885W        W21174   5.813  27.033  12.049
59886W        W21175  33.539  12.825   0.897
59887W        W21176   9.275  41.017   0.287
59888W        W21177   2.309  31.482  11.983
59889W        W21178  35.583  22.123  10.971
59890W        W21179  31.496  42.287  11.062
59891W        W21180  39.018   8.258  10.901
59892W        W21181   6.835  16.241  11.030
59893W        W21182  23.506  43.503  12.531
59894W        W21183  28.679  16.306  13.336
59895W        W21184  12.278  36.393   4.678
59896W        W21185  15.101  19.115  11.436
59897W        W21186  19.144  15.817   4.791
59898W        W21187  39.055  33.085   0.467
59899W        W21188  19.087  37.453   5.125
59900W        W21189   9.645  40.395  11.067
59901W        W21190   6.832  29.126   4.644
59902W        W21191  31.081   5.437   3.777
59903W        W21192  39.962  38.967   2.877
59904W        W21193  33.118   1.957   1.290
59905W        W21194  38.000  20.190  13.309
59906W        W21195  44.841  29.570   4.148
59907W        W21196   9.739  35.093   0.276
59908W        W21197  26.673   9.286   0.253
59909W        W21198  30.462   0.421  14.908
59910W        W21199   7.722  26.052  14.329
59911W        W21200  19.083  44.921  13.489
59912W        W21201  39.473  32.633  14.884
59913W        W21202  31.024  37.078  11.407
59914W        W21203  35.892  12.336   1.772
59915W        W21204  39.387  26.146  11.009
59916W        W21205  11.307  35.983  10.473
59917W        W21206  22.083  24.122   9.674
59918W        W21207  41.394  24.665   1.429
59919W        W21208  37.423  43.891  13.864
59920W        W21209  20.691  32.964  11.864
59921W        W21210  25.697   2.790   3.291
59922W        W21211   0.757  34.103  10.899
59923W        W21212  20.148  38.937   0.364
59924W        W21213  20.624  17.612   1.857
59925W        W21214   5.735  41.361   4.763
59926W        W21215  27.509  29.623   4.123
59927W        W21216   5.749  14.768   3.198
59928W        W21217  28.663  13.836   0.482
59929W        W21218  26.494  20.221   2.366
59930W        W21219  44.348  42.993   3.280
59931W        W21220  22.545  39.420  12.926
59932W        W21221   4.341   9.786   4.210
59933W        W21222  44.781  41.446  13.030
59934W        W21223   2.819   1.848   1.250
59935W        W21224  14.169  41.320  14.937
59936W        W21225  20.738  25.002   4.791
59937W        W21226  15.133   0.273   1.283
59938W        W21227  43.449  29.587   3.280
59939W        W21228  18.781  12.355  10.993
59940W        W21229  30.114   5.778   1.239
59941W        W21230   3.327   0.848  13.874
59942W        W21231  22.212  11.256   1.254
59943W        W21232  41.431   8.871  13.826
59944W        W21233  30.001  15.746  12.990
59945W        W21234  28.521  23.054   3.769
59946W        W21235   1.474  26.474  14.504
59947W        W21236  31.907  11.786   2.896
59948W        W21237  14.209  41.787   2.871
59949W        W21238  24.229  20.231   1.447
59950W        W21239  39.455   1.262   0.376
59951W        W21240  11.663  26.618   1.894
59952W        W21241   8.774  43.774   2.188
59953W        W21242   9.329  35.022  13.901
59954W        W21243  11.312   5.204  13.033
59955W        W21244  23.161  20.580   3.866
59956W        W21245  20.181  17.159   2.707
59957W        W21246   8.663  43.356   4.654
59958W        W21247  24.521  11.690  13.470
59959W        W21248  13.338  34.409  12.998
59960W        W21249  37.419  31.501   3.742
59961W        W21250  22.554  18.239   2.880
59962W        W21251  11.787  24.483   4.213
59963W        W21252  34.459  13.115   4.292
59964W        W21253  44.482  18.597  10.603
59965W        W21254  41.008  20.142   0.811
59966W        W21255  35.982  43.958  13.446
59967W        W21256   1.478  14.149   0.428
59968W        W21257  37.973  17.087  14.826
59969W        W21258  44.924  44.803  13.981
59970W        W21259  17.755  34.031   2.219
59971W        W21260  29.426  27.625  14.287
59972W        W21261   2.253   5.258  14.894
59973W        W21262  38.349  38.986   1.421
59974W        W21263  29.957  18.624   3.713
59975W        W21264   6.330  17.176  12.844
59976W        W21265  27.146  24.648   1.356
59977W        W21266  22.682  26.570   1.709
59978W        W21267   9.238  39.994  11.063
59979W        W21268  24.193  28.974  11.482
59980W        W21269  31.429  42.336   1.375
59981W        W21270  35.078  40.528  14.837
59982W        W21271   3.925  19.601   5.212
59983W        W21272  33.514   4.359   4.788
59984W        W21273  27.507  19.134  14.300
59985W        W21274   3.299  13.290   1.785
59986W        W21275  31.494  23.143  13.450
59987W        W21276   6.787   0.483  11.408
59988W        W21277  42.847  18.558  13.000
59989W        W21278  18.614  25.040   0.855
59990W        W21279  43.006   0.789  12.434
59991W        W21280  30.922  37.412  11.060
59992W        W21281  28.027  44.317  13.502
59993W        W21282   5.688  11.137  12.360
59994W        W21283  33.130  34.959   3.774
59995W        W21284  41.793   7.402  12.919
59996W        W21285  21.164  10.231   5.300
59997W        W21286  27.591  29.995  14.336
59998W        W21287  17.140  26.687  14.778
59999W        W21288   8.783  36.946  11.539
60000W        W21289  12.172  35.933  13.927
60001W        W21290  26.479   0.858  11.879
60002W        W21291  25.076  35.577  14.446
60003W        W21292   3.446  22.207  10.485
60004W        W21293  18.549  14.597  14.292
60005W        W21294  14.225   3.785  12.470
60006W        W21295   4.893  29.110   9.943
60007W        W21296   8.685  33.954  12.957
60008W        W21297  27.188   1.864  13.448
60009W        W21298  41.944  19.188  12.521
60010W        W21299  17.573  43.896  11.095
60011W        W21300  26.586  17.745  14.866
60012W        W21301  36.928  38.824   2.393
60013W        W21302   5.193   8.360  11.976
60014W        W21303  34.598   2.309  10.093
60015W        W21304  43.485  15.206  10.575
60016W        W21305   0.881  34.967   1.451
60017W        W21306  23.577   8.341   1.394
60018W        W21307   8.697  27.628  13.404
60019W        W21308  17.556   0.756   2.801
60020W        W21309  26.107  28.141  12.939
60021W        W21310  34.462  33.028   0.800
60022W        W21311  38.967  19.677   1.286
60023W        W21312  35.546  28.598  14.887
60024W        W21313  14.641  39.884   2.903
60025W        W21314  30.610  24.187   0.955
60026W        W21315  44.345   4.925  11.052
60027W        W21316  28.151  29.527   1.902
60028W        W21317  16.782  32.463   4.643
60029W        W21318  30.079  23.068   2.697
60030W        W21319  41.870  34.593  13.795
60031W        W21320  16.119  27.569   3.718
60032W        W21321  36.973  20.736  12.004
60033W        W21322  21.075  38.505  10.421
60034W        W21323  44.958  28.119   0.381
60035W        W21324  34.392   3.345  13.867
60036W        W21325  24.647  42.491   1.701
60037W        W21326  32.579  10.176   2.864
60038W        W21327  12.222   9.777   3.848
60039W        W21328  39.492   1.432  10.514
60040W        W21329  42.963  10.332   2.418
60041W        W21330  43.350  39.974   3.268
60042W        W21331  12.728  10.663  11.608
60043W        W21332  44.387   2.451   0.361
60044W        W21333  24.587   9.780   4.256
60045W        W21334  28.573  34.937   3.266
60046W        W21335   5.729  40.906   2.262
60047W        W21336  23.720  28.032  12.482
60048W        W21337   7.816  26.967  12.508
60049W        W21338  21.715  24.581  13.962
60050W        W21339  31.971   1.454   9.606
60051W        W21340  34.113   4.425  10.494
60052W        W21341  41.457  11.695  13.373
60053W        W21342  13.139  17.103  12.001
60054W        W21343  20.598   7.878   3.285
60055W        W21344  15.201   8.693   9.983
60056W        W21345  22.129  38.910   3.652
60057W        W21346   7.881   6.710  13.461
60058W        W21347  40.503   4.769  10.506
60059W        W21348  13.617  22.080   5.296
60060W        W21349  29.616  27.640   1.889
60061W        W21350   3.272  36.415   1.335
60062W        W21351  22.222  44.877   4.152
60063W        W21352  28.635  28.656   2.345
60064W        W21353  14.100  44.365  12.083
60065W        W21354  20.609  33.936  12.382
60066W        W21355  28.571  28.073  13.332
60067W        W21356  24.086   0.255   4.695
60068W        W21357  35.413  38.462   2.722
60069W        W21358  24.194  12.771  12.456
60070W        W21359  35.512   9.199  14.348
60071W        W21360  30.035  27.099   2.350
60072W        W21361  16.094  36.533  12.953
60073W        W21362   9.746  30.453   3.314
60074W        W21363   1.354   8.292   5.085
60075W        W21364  19.163  43.291   2.327
60076W        W21365  19.544  32.106   3.773
60077W        W21366  24.145  11.354   3.338
60078W        W21367  12.328  42.372  10.476
60079W        W21368  34.011  20.218  11.020
60080W        W21369  44.796  33.034   2.860
60081W        W21370  19.258  37.928   3.167
60082W        W21371  21.046  36.021  12.441
60083W        W21372  39.022  17.142   4.790
60084W        W21373  40.469  21.232   2.797
60085W        W21374  13.287  21.589   3.199
60086W        W21375  44.834  20.062   1.915
60087W        W21376  28.154  44.260   2.266
60088W        W21377  23.493   6.321   0.418
60089W        W21378   2.941   2.364  14.007
60090W        W21379  16.181   9.246  12.568
60091W        W21380  12.820   2.242   1.837
60092W        W21381  14.828  38.820   5.130
60093W        W21382  29.669  20.250   2.316
60094W        W21383   7.751  24.002  14.868
60095W        W21384  19.571   9.825   4.173
60096W        W21385  24.220  32.891   1.360
60097W        W21386  29.620  44.346   4.262
60098W        W21387  23.038  30.435   3.149
60099W        W21388   0.366  31.639  11.052
60100W        W21389  22.650   2.352  10.559
60101W        W21390  14.688  19.277   4.605
60102W        W21391  34.398  40.475  13.429
60103W        W21392  20.190  25.054  13.317
60104W        W21393  11.647  31.529  14.838
60105W        W21394  29.037  37.080  14.346
60106W        W21395   9.885  37.084   1.753
60107W        W21396  21.725  44.975  14.425
60108W        W21397  22.112   4.897  10.627
60109W        W21398  42.408  40.417   1.406
60110W        W21399  11.777  10.783  14.773
60111W        W21400  23.735   5.786   4.704
60112W        W21401  32.015  26.180  14.767
60113W        W21402  36.584  23.241   2.777
60114W        W21403   5.281  16.576  10.570
60115W        W21404   7.391  19.136  13.870
60116W        W21405  20.211  31.576   4.646
60117W        W21406  14.722  20.707   2.883
60118W        W21407  30.566   6.181   3.293
60119W        W21408  20.229  39.896  13.322
60120W        W21409   7.810  20.050  10.631
60121W        W21410  27.157  31.005   2.413
60122W        W21411   9.663  32.438  14.792
60123W        W21412  21.585  25.641   0.876
60124W        W21413  30.091  30.930   3.270
60125W        W21414  32.008  14.750   2.316
60126W        W21415  14.109  35.943  14.803
60127W        W21416  21.204  35.464   0.857
60128W        W21417  38.978   4.359  13.046
60129W        W21418  31.492   8.313   3.716
60130W        W21419  33.494  33.586  13.535
60131W        W21420  26.581  42.359   4.223
60132W        W21421  37.453   9.315   2.769
60133W        W21422  22.080  20.229   1.698
60134W        W21423  22.539  13.221   9.923
60135W        W21424  35.360  37.429   2.395
60136W        W21425  15.151   0.842   9.997
60137W        W21426  26.700  38.957  11.979
60138W        W21427  43.908  11.138  12.891
60139W        W21428  18.657  36.919   0.317
60140W        W21429  40.798  42.937   2.322
60141W        W21430  37.520  25.493   0.481
60142W        W21431  31.561  18.199  10.613
60143W        W21432  27.642  40.979  14.332
60144W        W21433  34.027   3.267   3.360
60145W        W21434  20.069  21.123   1.300
60146W        W21435  13.214  43.286   1.876
60147W        W21436  18.206  36.939   0.358
60148W        W21437  15.225  28.504  11.457
60149W        W21438  14.282  24.217  10.978
60150W        W21439  22.715  18.193  12.549
60151W        W21440  38.025  44.968  11.912
60152W        W21441  32.627  39.064   4.288
60153W        W21442  24.484  34.553  11.995
60154W        W21443   8.816   6.189   3.193
60155W        W21444  44.359  23.123  13.821
60156W        W21445  21.757  14.715  10.977
60157W        W21446  31.482  27.998  11.534
60158W        W21447  17.694  25.500   4.289
60159W        W21448   9.376  21.087   1.881
60160W        W21449  15.236  33.006   0.776
60161W        W21450  11.741  16.173   3.338
60162W        W21451  17.733  25.570  11.118
60163W        W21452  23.234   8.399   4.131
60164W        W21453  22.042  25.182   3.170
60165W        W21454  19.225  38.570  13.027
60166W        W21455  37.971  37.354   3.843
60167W        W21456  28.627  39.858  10.531
60168W        W21457  38.380   5.323  11.966
60169W        W21458  23.633  33.495   4.144
60170W        W21459  30.634  24.554   3.679
60171W        W21460  41.311  11.301   1.306
60172W        W21461  37.059  21.673  11.513
60173W        W21462  13.230  23.139   0.765
60174W        W21463  23.596  24.988  11.961
60175W        W21464  15.225  43.327  11.580
60176W        W21465   9.857   4.861  12.908
60177W        W21466  40.853  43.453  13.862
60178W        W21467  35.898  26.170  13.322
60179W        W21468  35.861  20.678  13.417
60180W        W21469   6.261  14.762  10.586
60181W        W21470  21.021  30.590  12.555
60182W        W21471  25.471  12.190   4.188
60183W        W21472  22.544  18.182  14.820
60184W        W21473  28.499   7.318  10.922
60185W        W21474   2.439  10.826  14.768
60186W        W21475   0.470   0.475  13.825
60187W        W21476  34.615  41.003   3.284
60188W        W21477  10.676  30.599   0.809
60189W        W21478  25.684  24.051   3.303
60190W        W21479  27.008   3.916  13.527
60191W        W21480  29.995   5.889   3.858
60192W        W21481  13.108  12.315   3.712
60193W        W21482  13.796  27.096   2.373
60194W        W21483  44.470  37.844  14.421
60195W        W21484  27.484  21.706   0.388
60196W        W21485  31.105  26.124   2.299
60197W        W21486  35.553   7.775  14.879
60198W        W21487   9.794  33.587  13.366
60199W        W21488   4.777  27.105  12.949
60200W        W21489  40.390  26.490  13.038
60201W        W21490   1.432  19.227   3.356
60202W        W21491  36.046  21.084  11.064
60203W        W21492  21.688  34.910  12.394
60204W        W21493   5.819  34.438  11.076
60205W        W21494   0.871  16.298  10.899
60206W        W21495  16.197  20.635   0.828
60207W        W21496  19.579  28.595  11.433
60208W        W21497  26.185  39.900  12.974
60209W        W21498  25.631  43.372  10.470
60210W        W21499  32.555  38.488  12.483
60211W        W21500   0.935  39.341  13.385
60212W        W21501   9.858  14.829  14.387
60213W        W21502  36.486  17.706   9.507
60214W        W21503  28.962   6.684   4.262
60215W        W21504   9.316  32.518   2.682
60216W        W21505  42.849   8.846   3.749
60217W        W21506  13.680  21.558  13.943
60218W        W21507  40.420  25.180   1.790
60219W        W21508  27.658  32.596   3.844
60220W        W21509  31.411  39.873   0.267
60221W        W21510   1.783  42.516  10.988
60222W        W21511  17.676  36.409  11.090
60223W        W21512   1.929  44.454   2.813
60224W        W21513   8.292  21.089   4.175
60225W        W21514  13.193  13.136  12.834
60226W        W21515  29.591  27.511  12.087
60227W        W21516  37.539   7.764  10.913
60228W        W21517  14.834  39.935   2.393
60229W        W21518  16.574   7.863  14.966
60230W        W21519  36.362  26.102  12.044
60231W        W21520  36.390  34.119   4.597
60232W        W21521  20.099  34.091   1.857
60233W        W21522  13.204  30.591   5.306
60234W        W21523  25.066  22.573   1.817
60235W        W21524  34.094  14.123  12.461
60236W        W21525  35.396   5.854  14.962
60237W        W21526  15.744   1.464   0.313
60238W        W21527  43.322  23.567  11.976
60239W        W21528  15.113  38.938  13.425
60240W        W21529  23.629  21.554   1.304
60241W        W21530  40.508  20.621  10.909
60242W        W21531  21.607  23.559  12.036
60243W        W21532   9.159  14.306  12.832
60244W        W21533   6.904  42.311  12.341
60245W        W21534  15.780  22.722   5.238
60246W        W21535  12.735   9.225   4.162
60247W        W21536  32.554  30.009   0.798
60248W        W21537  39.005   4.825   3.666
60249W        W21538   4.395  35.973   3.831
60250W        W21539   6.265   0.879  12.510
60251W        W21540  42.835   1.796  14.498
60252W        W21541  36.955   8.248   0.792
60253W        W21542   8.672  14.588   0.950
60254W        W21543  25.563   3.736   1.760
60255W        W21544   6.739  31.419   2.734
60256W        W21545  24.091  40.003   1.831
60257W        W21546  33.480  11.652  13.342
60258W        W21547  28.180  39.912  12.339
60259W        W21548  14.629   7.228  14.022
60260W        W21549  21.603  43.387   2.751
60261W        W21550  14.738  41.978  13.792
60262W        W21551  22.228  30.123  10.534
60263W        W21552  15.740  12.662  12.075
60264W        W21553   2.463   1.843  10.639
60265W        W21554  21.262   5.733   1.431
60266W        W21555  37.025  37.444  11.922
60267W        W21556  24.050  34.976   1.368
60268W        W21557  20.271  26.072   3.183
60269W        W21558  23.152  29.007  12.053
60270W        W21559   5.326  11.139  12.517
60271W        W21560  44.904  42.401  11.951
60272W        W21561  35.539  26.635   4.349
60273W        W21562   8.170   3.265   4.154
60274W        W21563  28.155  16.220  14.804
60275W        W21564   0.386  19.731  10.483
60276W        W21565   5.214  18.714   4.777
60277W        W21566  29.981  28.951  11.611
60278W        W21567   2.472  32.395   2.245
60279W        W21568  29.924  43.333   3.697
60280W        W21569  26.556  29.021   1.705
60281W        W21570  42.915   3.883  11.988
60282W        W21571  27.677  30.009  11.869
60283W        W21572  23.013  32.064  13.962
60284W        W21573   4.772  23.593  10.564
60285W        W21574   2.380  34.496  10.496
60286W        W21575  15.656  40.996   4.693
60287W        W21576  30.601  36.043   1.738
60288W        W21577  21.124  16.246   0.260
60289W        W21578  44.831  27.147   1.398
60290W        W21579  32.039   0.972  13.897
60291W        W21580   2.380  20.179   3.271
60292W        W21581  12.229  13.723   3.215
60293W        W21582   2.350  44.381  12.897
60294W        W21583  36.915   9.356   1.422
60295W        W21584   4.401  31.981   2.695
60296W        W21585  42.794  28.958  11.105
60297W        W21586  10.261   1.476  14.919
60298W        W21587  17.094   9.388  13.810
60299W        W21588  38.347  21.215   5.167
60300W        W21589  31.564  12.288  12.050
60301W        W21590  33.939  41.378   4.229
60302W        W21591  12.663  19.219   4.697
60303W        W21592  21.091  37.840   4.128
60304W        W21593  42.329   6.313  10.445
60305W        W21594   9.757  18.662   0.481
60306W        W21595  36.927   3.740   0.824
60307W        W21596  19.652  14.293   0.886
60308W        W21597  42.795   8.806  11.386
60309W        W21598   3.899  25.016  14.773
60310W        W21599  42.478  39.423  11.374
60311W        W21600  29.616  32.095  10.562
60312W        W21601  18.238  34.439   2.370
60313W        W21602   9.355  16.297   4.748
60314W        W21603  30.491  17.238   4.229
60315W        W21604  28.513  25.491  11.551
60316W        W21605   4.863  44.424  13.852
60317W        W21606  42.992  13.321   2.759
60318W        W21607  23.037   0.450  11.032
60319W        W21608   2.934  38.009   4.337
60320W        W21609  11.710  40.882   1.332
60321W        W21610  12.318  30.053  14.941
60322W        W21611  25.202   3.936   2.809
60323W        W21612   4.249   0.345  14.386
60324W        W21613  33.073   9.754  11.093
60325W        W21614  11.368   8.276  13.982
60326W        W21615   2.295  39.973   2.272
60327W        W21616   2.840  20.107  10.534
60328W        W21617  39.996   0.489  14.812
60329W        W21618   0.437  39.356  12.941
60330W        W21619  20.222   4.918   4.149
60331W        W21620   4.414  29.036   1.859
60332W        W21621  24.227  19.705   3.813
60333W        W21622  43.919  28.670   1.865
60334W        W21623  29.951  15.800  14.777
60335W        W21624  21.527  25.645   0.371
60336W        W21625  22.682   3.717   2.740
60337W        W21626  22.149  13.684  14.902
60338W        W21627   0.324  19.178  12.041
60339W        W21628  29.147  22.687   0.427
60340W        W21629   1.416  13.165   0.346
60341W        W21630   1.299  25.704  12.878
60342W        W21631  25.636  23.685   4.300
60343W        W21632   1.457  36.922  12.997
60344W        W21633   9.334  25.490  14.327
60345W        W21634  14.684  16.258   4.690
60346W        W21635   5.379  44.758   2.317
60347W        W21636  11.171  24.045   1.815
60348W        W21637   1.456  20.638   1.726
60349W        W21638   2.775  32.114  10.574
60350W        W21639  27.028  33.017  10.418
60351W        W21640  29.603  42.389   2.881
60352W        W21641  11.717  29.625  11.856
60353W        W21642  20.745   7.890   1.846
60354W        W21643   6.698  44.948  11.117
60355W        W21644  27.050  14.139   2.268
60356W        W21645  41.821  33.080   4.764
60357W        W21646  31.999  39.906   2.367
60358W        W21647  33.521  29.652   0.461
60359W        W21648  17.772  22.705  12.990
60360W        W21649  27.618  18.739  13.039
60361W        W21650   0.343   5.924  11.568
60362W        W21651  40.885   3.907  14.905
60363W        W21652  31.957  23.647   3.780
60364W        W21653  20.056  31.441   1.421
60365W        W21654   4.367   5.208  14.480
60366W        W21655  42.357  30.652  13.324
60367W        W21656  33.056  35.859  12.873
60368W        W21657  44.409  30.430  11.112
60369W        W21658  42.879  16.735   3.324
60370W        W21659  23.523  23.210  10.935
60371W        W21660  24.165  24.648   0.430
60372W        W21661  32.110  16.679  14.812
60373W        W21662  40.318  13.680   3.830
60374W        W21663  31.097  11.631  14.899
60375W        W21664   6.340  23.547   3.773
60376W        W21665  15.301  20.192  11.387
60377W        W21666   7.814  41.982   3.714
60378W        W21667  28.498   7.222  11.962
60379W        W21668   9.883  40.425   4.717
60380W        W21669  42.335  32.108  14.815
60381W        W21670  27.137   7.304   2.863
60382W        W21671   6.799  30.124   3.207
60383W        W21672  13.212  38.432   0.358
60384W        W21673  13.654  13.181  12.977
60385W        W21674  23.011  44.815  11.600
60386W        W21675  32.510   5.744   2.339
60387W        W21676   4.858  20.190  12.004
60388W        W21677  12.199  17.687   2.407
60389W        W21678  39.991   2.825  12.898
60390W        W21679  15.731  21.176   2.249
60391W        W21680  37.508  19.210  14.277
60392W        W21681   5.405   0.863  10.644
60393W        W21682   7.767  39.838  11.485
60394W        W21683  36.439  14.595   2.328
60395W        W21684   1.754  28.485   2.824
60396W        W21685  23.199  13.678  14.929
60397W        W21686  30.493  19.226   1.337
60398W        W21687  37.462  11.653  12.340
60399W        W21688  30.022  11.321   2.716
60400W        W21689   3.421  37.087  11.066
60401W        W21690  16.786  26.074  11.908
60402W        W21691  32.997  16.174  13.839
60403W        W21692  32.437  28.473  14.019
60404W        W21693  27.023  22.693  12.545
60405W        W21694  22.175  12.635   3.324
60406W        W21695  14.312  30.957   1.316
60407W        W21696  18.114  38.411   4.753
60408W        W21697  14.663  37.485   1.773
60409W        W21698  10.209  26.482  14.484
60410W        W21699  19.605   1.949  10.949
60411W        W21700  28.663  30.431   1.829
60412W        W21701  36.382  10.343   0.330
60413W        W21702  17.171  37.988  11.559
60414W        W21703  31.017   8.686  14.500
60415W        W21704  15.611   0.481  12.916
60416W        W21705  14.123   6.333   1.697
60417W        W21706  41.363  44.454   0.813
60418W        W21707  14.718  32.592   0.283
60419W        W21708  22.020  32.575  14.352
60420W        W21709  31.942  23.671  10.590
60421W        W21710  21.562  41.951  10.501
60422W        W21711  34.918  21.182   5.144
60423W        W21712  35.943  33.097   3.254
60424W        W21713  12.797  21.689  14.810
60425W        W21714  11.646  35.521   2.400
60426W        W21715  29.989  18.268  14.473
60427W        W21716  41.444  43.771  14.279
60428W        W21717  44.796  36.513   1.444
60429W        W21718  20.210   8.723  10.558
60430W        W21719  36.888  14.313   4.633
60431W        W21720  27.146  35.006  10.889
60432W        W21721  24.654  33.130   1.895
60433W        W21722  33.012  33.491   1.834
60434W        W21723  17.147  42.409  14.509
60435W        W21724  22.594  44.425   1.433
60436W        W21725  27.656  30.454  13.404
60437W        W21726   1.888  19.753  13.940
60438W        W21727  23.239  38.034  12.387
60439W        W21728  14.725  25.517   4.764
60440W        W21729  44.450   6.775  13.410
60441W        W21730   0.744  11.343   3.167
60442W        W21731   5.286  33.613   0.374
60443W        W21732  10.372  15.324  11.051
60444W        W21733   7.224  37.497   3.808
60445W        W21734   3.322   4.231   3.246
60446W        W21735  13.260  44.908   1.391
60447W        W21736  42.316   4.771  12.010
60448W        W21737  38.554  17.597   4.225
60449W        W21738   1.945  36.523  13.887
60450W        W21739  17.068  43.985  10.040
60451W        W21740  24.046   7.389   0.288
60452W        W21741  42.347  10.299  14.323
60453W        W21742  24.584  19.270   2.731
60454W        W21743  27.192  40.817  10.432
60455W        W21744  38.008   7.862   1.448
60456W        W21745  23.077  43.285  14.826
60457W        W21746  17.583  32.033  11.917
60458W        W21747  31.481   1.932   1.427
60459W        W21748  21.645  14.225  14.316
60460W        W21749   2.813   1.758  12.960
60461W        W21750  33.997  17.190  11.115
60462W        W21751  10.659  15.297   4.352
60463W        W21752  39.927  12.646   0.961
60464W        W21753  14.147   8.864   1.830
60465W        W21754  29.624  17.606   0.967
60466W        W21755  12.309   9.268  13.457
60467W        W21756   8.338   8.702  12.967
60468W        W21757   9.707   8.348  14.966
60469W        W21758   3.236  39.933   4.157
60470W        W21759  44.419  29.139   0.850
60471W        W21760  32.141  36.553   2.843
60472W        W21761  12.350  42.032   3.841
60473W        W21762  13.662  33.970   3.336
60474W        W21763  29.998   3.372  10.587
60475W        W21764   9.723  11.857  10.554
60476W        W21765  17.597   7.387   1.403
60477W        W21766  21.706   6.877   2.873
60478W        W21767  41.884  22.712  12.934
60479W        W21768  12.732   0.787   1.820
60480W        W21769  29.105  35.971   0.841
60481W        W21770  41.505  18.650   1.442
60482W        W21771   5.352  44.863  11.125
60483W        W21772  21.054   1.459  12.867
60484W        W21773  21.741  28.598   3.226
60485W        W21774  15.754  19.171  10.556
60486W        W21775   8.242   8.670   1.413
60487W        W21776   1.836  32.895  13.438
60488W        W21777  26.197  20.222   1.927
60489W        W21778  34.508  27.989  10.535
60490W        W21779  43.825  39.854   4.319
60491W        W21780   8.383  36.541  12.895
60492W        W21781   7.190  11.838   1.326
60493W        W21782  32.397  23.630  11.936
60494W        W21783  20.187   8.810  12.381
60495W        W21784  19.758  37.459   2.332
60496W        W21785  16.226  16.268  14.343
60497W        W21786  20.200  15.590  12.864
60498W        W21787  15.769  44.865  10.046
60499W        W21788  20.204  18.265  11.908
60500W        W21789  42.358  16.626   4.238
60501W        W21790  10.336  40.535   2.899
60502W        W21791   3.254   6.683   1.840
60503W        W21792   7.189  38.451   2.395
60504W        W21793  42.366  35.067  11.069
60505W        W21794  28.477  24.090   1.245
60506W        W21795   6.206  34.960   0.914
60507W        W21796   9.663   3.437   3.812
60508W        W21797   2.842  15.161  11.517
60509W        W21798  28.118  25.543  14.312
60510W        W21799   4.427  40.797  12.422
60511W        W21800  41.457   2.351   4.796
60512W        W21801  14.679   0.344   2.677
60513W        W21802  16.599   2.412   2.710
60514W        W21803  22.201  12.136   4.634
60515W        W21804  17.132  32.047   2.881
60516W        W21805  13.658  42.476  12.546
60517W        W21806   4.759  41.792  14.993
60518W        W21807  16.609  33.072   2.335
60519W        W21808  38.047  36.953  12.994
60520W        W21809  13.193  36.951  11.461
60521W        W21810  14.158  17.142  11.037
60522W        W21811  36.945  43.282   2.412
60523W        W21812  22.710  37.045  10.462
60524W        W21813  32.554  24.613  13.052
60525W        W21814  38.972  15.759  10.536
60526W        W21815  13.600   0.294   3.232
60527W        W21816   5.689  44.986   3.733
60528W        W21817  19.227  39.399  10.518
60529W        W21818   0.293   9.661   0.900
60530W        W21819  12.624  29.641   4.140
60531W        W21820   3.753   3.309  14.965
60532W        W21821  34.487  15.181  14.430
60533W        W21822  40.997  17.740  14.006
60534W        W21823  11.790   0.760  11.506
60535W        W21824  26.534  42.003  13.347
60536W        W21825  18.575  20.241   4.749
60537W        W21826  44.815   4.714  13.929
60538W        W21827  10.733  26.101   0.439
60539W        W21828   2.449  30.124   1.780
60540W        W21829  26.628  23.021   2.258
60541W        W21830  35.974   9.355  14.955
60542W        W21831  19.078  39.887  11.884
60543W        W21832   8.830  14.196   4.299
60544W        W21833   3.267  15.652  12.503
60545W        W21834  44.280   8.760   2.894
60546W        W21835  21.718  24.202   2.729
60547W        W21836  29.095   9.723   1.328
60548W        W21837  24.506  42.866   2.811
60549W        W21838   0.288  38.858   1.742
60550W        W21839  17.117   5.858   0.770
60551W        W21840   1.268  13.734   4.806
60552W        W21841  36.585  28.550  11.011
60553W        W21842  44.281  32.550   3.823
60554W        W21843  32.591  20.555  12.555
60555W        W21844  39.924  43.353   3.344
60556W        W21845  33.468  16.168   1.897
60557W        W21846  44.372  37.072   0.400
60558W        W21847  19.592  25.513   3.322
60559W        W21848  41.361  43.982  14.924
60560W        W21849  23.016  29.945  14.863
60561W        W21850  35.067  12.203   2.239
60562W        W21851  26.026   7.256  11.919
60563W        W21852  39.442  15.111  10.611
60564W        W21853  20.765  26.053   4.323
60565W        W21854   1.921  14.765  11.453
60566W        W21855  35.033   4.747  12.460
60567W        W21856  36.473  28.013  14.967
60568W        W21857  41.315   5.749   2.224
60569W        W21858   4.900  33.959   2.791
60570W        W21859  35.590  36.001  14.325
60571W        W21860  18.070  17.612   3.345
60572W        W21861  29.998  17.793   1.319
60573W        W21862   0.382  34.076   2.263
60574W        W21863  11.203  10.826   1.780
60575W        W21864  43.328  32.511   0.903
60576W        W21865  21.593  32.111   3.261
60577W        W21866   2.447  34.968  10.966
60578W        W21867  42.369   3.836   2.278
60579W        W21868   7.906  44.783   1.325
60580W        W21869   1.253  35.421   0.431
60581W        W21870   2.786  22.245  14.761
60582W        W21871   5.724  21.196   2.411
60583W        W21872  27.579  11.191  12.947
60584W        W21873   3.748  31.100   0.929
60585W        W21874  30.019  15.167  11.911
60586W        W21875  20.042  35.445  10.503
60587W        W21876  40.849   2.310   1.848
60588W        W21877  32.619  39.854  12.917
60589W        W21878  31.994  42.930   0.384
60590W        W21879  20.546  44.426  10.113
60591W        W21880  25.053  31.475  12.436
60592W        W21881  42.417  37.884  12.473
60593W        W21882  12.769  16.304  11.449
60594W        W21883  10.297   6.200  14.804
60595W        W21884  11.311  26.149  11.533
60596W        W21885  14.204  14.319  13.793
60597W        W21886   0.265  11.269   0.283
60598W        W21887  11.636  43.776   5.109
60599W        W21888  28.061  35.477  10.138
60600W        W21889  22.132   9.162   3.272
60601W        W21890  42.375  13.693  11.003
60602W        W21891  35.556  13.210   3.847
60603W        W21892   7.908  16.300   2.390
60604W        W21893   0.764  28.060   4.132
60605W        W21894  44.900   1.374   1.764
60606W        W21895  24.137  39.914  13.791
60607W        W21896  10.143  20.151   3.155
60608W        W21897  42.455  27.965  13.954
60609W        W21898   2.334  17.760   3.272
60610W        W21899   4.377   3.390  13.016
60611W        W21900  20.201  37.415   0.754
60612W        W21901   9.237  28.486   1.340
60613W        W21902  29.646   6.362  12.439
60614W        W21903   6.323   6.390   3.633
60615W        W21904  35.527  22.538  13.406
60616W        W21905  33.514   9.332  11.036
60617W        W21906   2.315   3.346   5.269
60618W        W21907  30.654   9.824  11.015
60619W        W21908  44.484  26.492   3.241
60620W        W21909  24.072  40.943   0.845
60621W        W21910  18.691  11.844   5.242
60622W        W21911  36.882  21.710  14.773
60623W        W21912  31.012  41.509   0.848
60624W        W21913  20.626  21.120   2.417
60625W        W21914  24.484   6.409   0.248
60626W        W21915  21.242  17.728  13.833
60627W        W21916   7.795  32.894  12.976
60628W        W21917  18.748   2.867  13.976
60629W        W21918  40.519  40.025   4.696
60630W        W21919   3.236   7.319  12.383
60631W        W21920  42.798  36.578  13.424
60632W        W21921  22.730  33.119   4.336
60633W        W21922  15.244   9.283  11.560
60634W        W21923  34.955   5.902  10.087
60635W        W21924  44.424  20.551  11.405
60636W        W21925  16.163  11.218  12.347
60637W        W21926  32.048  25.109  10.997
60638W        W21927  32.917   8.752   1.281
60639W        W21928   9.776  31.148  14.431
60640W        W21929  32.127  37.406   1.432
60641W        W21930  31.531  13.808  12.841
60642W        W21931   3.942  19.103   1.732
60643W        W21932  16.277   2.459   0.733
60644W        W21933  30.053  30.165  12.501
60645W        W21934  41.923   8.168  11.982
60646W        W21935  18.721  27.168  13.792
60647W        W21936  25.582  41.882   3.630
60648W        W21937   8.391  28.590   2.323
60649W        W21938  23.730   7.806   1.793
60650W        W21939  19.560   4.310   3.258
60651W        W21940  11.302  18.577   0.954
60652W        W21941  38.943  26.160   4.712
60653W        W21942   0.906  26.645  12.913
60654W        W21943   4.442  25.500  14.474
60655W        W21944   2.421  26.619   4.322
60656W        W21945  24.165  32.123  14.990
60657W        W21946  22.606  10.351   3.766
60658W        W21947  27.153  36.423  11.083
60659W        W21948  18.088  33.594  10.512
60660W        W21949  14.156  40.321   3.316
60661W        W21950  32.622   1.908   0.301
60662W        W21951   2.366  44.368   1.322
60663W        W21952  20.679  38.489  13.337
60664W        W21953  13.818  26.052   2.399
60665W        W21954  27.948  10.228   5.141
60666W        W21955  41.343  42.330   0.272
60667W        W21956  13.764  15.760   1.322
60668W        W21957   0.794  19.198   0.733
60669W        W21958  28.620  12.710  11.122
60670W        W21959  38.391  41.312  14.390
60671W        W21960  19.092  22.635   3.255
60672W        W21961   6.343   9.174  14.889
60673W        W21962  10.143  20.725   2.398
60674W        W21963  20.750  19.193   3.642
60675W        W21964  30.550  38.048   1.732
60676W        W21965   3.909  10.207  12.978
60677W        W21966  26.700   4.275   4.292
60678W        W21967  10.327  36.411   3.692
60679W        W21968  42.949  32.921   2.900
60680W        W21969  21.592  19.177  12.008
60681W        W21970  42.518  18.079  13.309
60682W        W21971  36.442  13.132   4.809
60683W        W21972  16.179  40.980   2.891
60684W        W21973  19.588  16.696  11.500
60685W        W21974   0.303   9.833  13.519
60686W        W21975  41.828  39.409   4.660
60687W        W21976  10.781   2.884  14.936
60688W        W21977   0.784  26.692  12.448
60689W        W21978  33.019  18.070  10.443
60690W        W21979  18.769   7.804   2.865
60691W        W21980  20.767  33.982  10.601
60692W        W21981  34.931  31.973  12.988
60693W        W21982  11.313  11.849  11.957
60694W        W21983  31.946  18.578   0.892
60695W        W21984  42.356   6.804   1.277
60696W        W21985  26.577  11.184  11.471
60697W        W21986  15.743   9.303   1.418
60698W        W21987  40.882  44.414   2.280
60699W        W21988  28.567  10.860  13.983
60700W        W21989  29.488  27.091  11.021
60701W        W21990  22.025  26.962   3.814
60702W        W21991   0.774  17.262  10.126
60703W        W21992  21.757  12.744  11.915
60704W        W21993  10.693   2.748  13.907
60705W        W21994  13.193  29.549  11.991
60706W        W21995   2.761  34.510  12.340
60707W        W21996  27.558  36.969   4.223
60708W        W21997  39.468  31.111  14.911
60709W        W21998  28.630  22.733   3.196
60710W        W21999  14.112  28.018   1.873
60711W        W22000  39.969  25.551  13.030
60712W        W22001  15.210  10.195  13.048
60713W        W22002  42.941  32.042  13.408
60714W        W22003  43.847   4.312   0.482
60715W        W22004  12.819  20.660   5.320
60716W        W22005   7.801   0.354   9.964
60717W        W22006  39.451  42.525  13.492
60718W        W22007  42.962  37.081  14.858
60719W        W22008  41.015  26.014  12.366
60720W        W22009  36.863  44.969  14.007
60721W        W22010   4.294  40.373   4.817
60722W        W22011   1.869  41.021   1.866
60723W        W22012  27.543  38.450  13.354
60724W        W22013  44.365   7.278  13.833
60725W        W22014  29.971  30.104  11.972
60726W        W22015  20.703  34.454   0.959
60727W        W22016  35.595   5.776  10.975
60728W        W22017  14.231  36.936   1.882
60729W        W22018  25.965  15.823   3.156
60730W        W22019   1.831  38.438  10.508
60731W        W22020  24.097  11.706  11.469
60732W        W22021  44.996  11.788   0.810
60733W        W22022   8.739  20.674  12.347
60734W        W22023  38.372   2.814   2.390
60735W        W22024  25.063   7.824   2.784
60736W        W22025  12.132   7.718   2.356
60737W        W22026  16.168   0.443   4.167
60738W        W22027  23.592  43.865   0.852
60739W        W22028  28.136  38.397   1.811
60740W        W22029  34.398  11.192  12.369
60741W        W22030   1.408  40.441   2.252
60742W        W22031  24.169  21.179   3.168
60743W        W22032  23.699  33.988  13.961
60744W        W22033  40.473  40.493   2.882
60745W        W22034  34.479   1.372   2.388
60746W        W22035  38.358  21.040   1.897
60747W        W22036  31.969  44.770  11.856
60748W        W22037   9.715  41.486   0.361
60749W        W22038  39.553  42.840  10.641
60750W        W22039  16.808  29.048  12.088
60751W        W22040  33.050  23.199  12.973
60752W        W22041  15.696  16.633  14.397
60753W        W22042  39.531  17.288  11.972
60754W        W22043  21.208  44.009   4.229
60755W        W22044  12.361   8.796  10.890
60756W        W22045  42.896  13.210  12.009
60757W        W22046  29.029  11.648   4.284
60758W        W22047  31.118  37.398  14.937
60759W        W22048  41.993   6.714  14.500
60760W        W22049  12.280  14.756  10.502
60761W        W22050  31.549  28.478   4.801
60762W        W22051  41.944   1.900  13.843
60763W        W22052  40.383   0.857  11.111
60764W        W22053  37.881  40.876  10.454
60765W        W22054  39.473  17.663   0.294
60766W        W22055   5.729   5.437  12.910
60767W        W22056  44.427   2.740   2.805
60768W        W22057  25.531   2.258  13.458
60769W        W22058  17.301  40.496   3.166
60770W        W22059  37.048   1.872   1.702
60771W        W22060  24.203  25.218   4.682
60772W        W22061  42.315  18.236   2.242
60773W        W22062  20.082   6.738   4.739
60774W        W22063  26.616   0.947  13.975
60775W        W22064  10.691  40.304   4.279
60776W        W22065   9.700   1.310  12.340
60777W        W22066   7.889  21.536  11.985
60778W        W22067  38.416  38.863   1.769
60779W        W22068  44.960  17.637   0.355
60780W        W22069  34.518  44.998   1.351
60781W        W22070  17.244  14.787  10.486
60782W        W22071  35.875  31.519   2.209
60783W        W22072  30.927  17.625   2.870
60784W        W22073  20.137   5.795  10.494
60785W        W22074   5.722  26.567   1.791
60786W        W22075  28.045  20.732  12.477
60787W        W22076  16.574  30.582  14.839
60788W        W22077  44.831  13.801  11.378
60789W        W22078  17.228  17.575  12.388
60790W        W22079  36.995  42.362  11.451
60791W        W22080  32.487  15.233  10.417
60792W        W22081   0.297  29.942  13.859
60793W        W22082  27.150   0.462  10.547
60794W        W22083  32.406  12.136   4.120
60795W        W22084  23.729   7.836   0.906
60796W        W22085  33.425  43.322   3.354
60797W        W22086  37.368  11.353   0.733
60798W        W22087  29.026  34.404   4.319
60799W        W22088   9.661   3.220   0.953
60800W        W22089   2.831   8.737  12.467
60801W        W22090  32.904  16.172  10.514
60802W        W22091  13.320  32.044   4.764
60803W        W22092   1.802  25.024  12.857
60804W        W22093   2.780  38.055  12.052
60805W        W22094  11.212  25.623   0.426
60806W        W22095  17.767  16.085   0.443
60807W        W22096  37.876  42.883  12.910
60808W        W22097   6.271  29.102  11.390
60809W        W22098  34.919  17.207  12.892
60810W        W22099   5.925   7.689  14.394
60811W        W22100  31.468  25.052   2.391
60812W        W22101   6.858   0.827   1.289
60813W        W22102  17.616  33.952   1.373
60814W        W22103  14.627   3.362  10.945
60815W        W22104  43.852  38.334  13.949
60816W        W22105  19.703  34.446  12.577
60817W        W22106  34.109   2.946   1.271
60818W        W22107  34.863  22.511   4.748
60819W        W22108  10.770  44.826   3.155
60820W        W22109  32.036  38.835  13.517
60821W        W22110  11.274   7.352   3.694
60822W        W22111  38.378   1.780   0.376
60823W        W22112  21.598   8.396   4.744
60824W        W22113  20.098  19.133   3.199
60825W        W22114  26.560  15.658   2.676
60826W        W22115  39.965  33.533   0.278
60827W        W22116   0.779  36.895  11.581
60828W        W22117  18.759   6.313   3.638
60829W        W22118  12.219  38.839   0.261
60830W        W22119  35.034  10.878   0.939
60831W        W22120  39.338   0.395   3.351
60832W        W22121  19.540  30.999  12.402
60833W        W22122  40.369  32.082  10.893
60834W        W22123   5.733  31.535  11.547
60835W        W22124  13.780  39.338   4.732
60836W        W22125  21.541   9.745  14.331
60837W        W22126   5.434   0.366   3.281
60838W        W22127   5.699  43.948   4.610
60839W        W22128  23.024   7.343  13.492
60840W        W22129  21.128  30.132   3.313
60841W        W22130   2.917   1.843  10.892
60842W        W22131   7.375  14.783   3.722
60843W        W22132   5.882   4.273  10.605
60844W        W22133  42.825  23.673   4.307
60845W        W22134  22.680   4.724   2.322
60846W        W22135  14.273  25.626   2.784
60847W        W22136  30.491   9.219  10.939
60848W        W22137  43.367  29.618  14.837
60849W        W22138  28.451  23.150   4.277
60850W        W22139  37.577  28.457   0.909
60851W        W22140   8.394  40.390   0.372
60852W        W22141  27.479  26.197  14.503
60853W        W22142  20.626  28.459  10.461
60854W        W22143  32.985   3.718   1.836
60855W        W22144  23.220  31.095   0.251
60856W        W22145  26.087  16.164  14.779
60857W        W22146  13.192  18.208  14.507
60858W        W22147  35.562  27.547   4.298
60859W        W22148  21.192   5.831   2.242
60860W        W22149   5.265  42.877   2.305
60861W        W22150  33.977  31.443   4.606
60862W        W22151  19.278  25.578   2.373
60863W        W22152  43.282  33.425   3.818
60864W        W22153   0.785  41.847   0.474
60865W        W22154   5.207  16.729  12.565
60866W        W22155  19.272  30.605  10.641
60867W        W22156  10.180   2.323  14.900
60868W        W22157   3.450  19.664  11.412
60869W        W22158  38.439  40.330  11.991
60870W        W22159  24.128  26.185  13.508
60871W        W22160  12.714  39.324  13.911
60872W        W22161  22.217  18.140   2.743
60873W        W22162  33.457   1.961  10.501
60874W        W22163  42.926   5.420   4.775
60875W        W22164  14.218   5.336   0.371
60876W        W22165  14.791  37.944  11.589
60877W        W22166  39.429   0.869   3.761
60878W        W22167  35.970  36.347  12.999
60879W        W22168  29.955   1.304   2.808
60880W        W22169  26.055  39.816  13.940
60881W        W22170  13.191  34.381   0.888
60882W        W22171   7.334  24.132  14.322
60883W        W22172   0.271  25.526   0.266
60884W        W22173  29.169  37.370   3.257
60885W        W22174  29.956  21.215   4.158
60886W        W22175   8.353   0.312   4.121
60887W        W22176  30.987  37.384   1.319
60888W        W22177   8.366  44.812  13.411
60889W        W22178  25.561   5.338  11.908
60890W        W22179  35.089  26.496   0.483
60891W        W22180  44.860  32.960  13.901
60892W        W22181  25.656   0.967   3.676
60893W        W22182  42.319  23.067  12.463
60894W        W22183  44.990   7.876   4.701
60895W        W22184  17.146  31.428  11.086
60896W        W22185  12.162  19.572  11.018
60897W        W22186  26.121  34.017  10.480
60898W        W22187  35.061  24.179  11.450
60899W        W22188   9.768  25.976  13.846
60900W        W22189   6.338  13.740  14.399
60901W        W22190  33.025   6.727   3.365
60902W        W22191  21.087  39.929   3.864
60903W        W22192  31.909   4.728   1.232
60904W        W22193   6.205  39.817  12.350
60905W        W22194   9.188   1.387  10.973
60906W        W22195  37.902  43.924   1.708
60907W        W22196  44.918  18.125   3.666
60908W        W22197  11.865  28.480   0.822
60909W        W22198   2.840  41.382   1.742
60910W        W22199  30.945  10.279  12.375
60911W        W22200  38.883   5.914   3.217
60912W        W22201  42.010  18.579   1.227
60913W        W22202   4.246  17.697   4.779
60914W        W22203  37.558  42.853   2.780
60915W        W22204  44.457   0.490  10.627
60916W        W22205  18.102   5.409  10.532
60917W        W22206   5.827  28.597   9.948
60918W        W22207  35.452  27.121   1.448
60919W        W22208   3.382   2.801  13.883
60920W        W22209  43.276  18.064  14.902
60921W        W22210   9.247   4.928   3.182
60922W        W22211  34.950  13.699   3.204
60923W        W22212  27.464  10.845  12.827
60924W        W22213  25.534  19.617   0.732
60925W        W22214   6.717  16.731  11.081
60926W        W22215  16.592   9.795   0.394
60927W        W22216  18.790  40.977   3.161
60928W        W22217  34.075   7.406   2.771
60929W        W22218  44.806   2.289   1.729
60930W        W22219   5.406   3.880   2.801
60931W        W22220  25.107  12.733  10.603
60932W        W22221  25.214  26.123   3.774
60933W        W22222  40.918  43.817   4.787
60934W        W22223  34.937  17.295   0.469
60935W        W22224  28.590  12.283  12.835
60936W        W22225   8.363  16.652   0.863
60937W        W22226  17.789  26.182   2.376
60938W        W22227  41.024  20.575  14.956
60939W        W22228   4.886  40.822   0.771
60940W        W22229  43.814  18.763  10.572
60941W        W22230   1.957   4.258  13.063
60942W        W22231  24.988  11.238  13.353
60943W        W22232  18.106  18.050   0.824
60944W        W22233  37.384  38.935   0.745
60945W        W22234  10.657  30.602   9.989
60946W        W22235  42.380  41.512  10.973
60947W        W22236  20.703  32.606   4.826
60948W        W22237   2.461  15.759  13.316
60949W        W22238  10.355  31.981   5.604
60950W        W22239  38.997  29.041  10.476
60951W        W22240  23.180  40.974  13.914
60952W        W22241  12.333  19.217  13.528
60953W        W22242  29.091  18.572  11.612
60954W        W22243  42.853  22.682  14.349
60955W        W22244  23.559  37.358   1.279
60956W        W22245  13.194  18.130  11.377
60957W        W22246  37.514  42.498   2.202
60958W        W22247  26.102  33.028  12.560
60959W        W22248  33.990  38.857  10.032
60960W        W22249   9.886   3.278   4.794
60961W        W22250   8.405   7.239  12.034
60962W        W22251  36.936   9.339  14.978
60963W        W22252  33.929  18.746  12.093
60964W        W22253  21.206  22.618   4.809
60965W        W22254  15.638  17.622   2.183
60966W        W22255  41.505  22.635  11.553
60967W        W22256  35.938  10.771  11.412
60968W        W22257  17.747  11.265  11.066
60969W        W22258  26.982  24.524  13.360
60970W        W22259  20.710   4.737  12.880
60971W        W22260   9.333  30.417   4.805
60972W        W22261  43.319  44.960  10.440
60973W        W22262  26.481   5.787   0.315
60974W        W22263   4.895   8.878   0.394
60975W        W22264  24.501   3.284  10.978
60976W        W22265  29.139  19.139   2.304
60977W        W22266   3.896  26.619   2.772
60978W        W22267  34.944   6.309  12.987
60979W        W22268  16.277  14.319  12.531
60980W        W22269  39.544   5.317  10.606
60981W        W22270  32.550   7.335  13.326
60982W        W22271  22.096  24.707   4.724
60983W        W22272  36.007  11.154   4.817
60984W        W22273  12.842  31.011   4.650
60985W        W22274   4.939   3.808   2.829
60986W        W22275  43.450   4.846   1.446
60987W        W22276  34.561  43.292   4.717
60988W        W22277   4.857  41.855   3.861
60989W        W22278   3.840  39.530  13.929
60990W        W22279  28.543  44.409  10.894
60991W        W22280   7.704  17.618  12.480
60992W        W22281  34.109  16.156  14.896
60993W        W22282  14.668  10.198  10.007
60994W        W22283  38.518  31.915  11.053
60995W        W22284  13.623  43.006  12.552
60996W        W22285  43.423  33.439   2.864
60997W        W22286   3.295   5.313   1.713
60998W        W22287  19.541  22.530  10.529
60999W        W22288  12.723  41.008   2.795
61000W        W22289   2.323  20.193   0.394
61001W        W22290   2.898  38.522  11.458
61002W        W22291  18.234  33.065   1.296
61003W        W22292  21.197  37.876  11.968
61004W        W22293  13.251  16.605   3.765
61005W        W22294   9.651  44.465   3.764
61006W        W22295  41.871  35.974   3.196
61007W        W22296  25.621  10.734   1.731
61008W        W22297  23.648  21.556   2.841
61009W        W22298  12.356  29.455  12.907
61010W        W22299  38.852   3.928  11.875
61011W        W22300  27.170  30.518   1.702
61012W        W22301  30.028  25.631   1.383
61013W        W22302  10.685  43.864  13.956
61014W        W22303  12.151  26.113   4.601
61015W        W22304  36.573  27.957   3.855
61016W        W22305  12.834  35.544  11.856
61017W        W22306  31.430  16.695  10.514
61018W        W22307  36.582  42.921  13.911
61019W        W22308  19.078   2.434   4.598
61020W        W22309  26.532   4.699  13.474
61021W        W22310  37.978  43.352  10.470
61022W        W22311   7.240   2.844  11.525
61023W        W22312  31.518  37.413   3.813
61024W        W22313  36.012  26.164  14.843
61025W        W22314   6.758   7.837   0.890
61026W        W22315  36.927   7.693  11.557
61027W        W22316  31.510  28.133  14.871
61028W        W22317  18.564   8.328  11.499
61029W        W22318  41.010  20.648  10.503
61030W        W22319  25.206  23.107  14.842
61031W        W22320  23.675   7.389  14.466
61032W        W22321   2.455   2.760  13.461
61033W        W22322  21.223  24.004   2.823
61034W        W22323  16.643   2.846  13.992
61035W        W22324   2.908  21.040  10.425
61036W        W22325  15.320  22.526   9.941
61037W        W22326  33.085  28.660  11.453
61038W        W22327  42.355  29.488   2.802
61039W        W22328  12.710   4.755   1.307
61040W        W22329   5.390   5.703   2.307
61041W        W22330  32.912  39.533   0.344
61042W        W22331   6.264  32.513  14.467
61043W        W22332   1.452  11.223   3.198
61044W        W22333   9.281   9.295  14.327
61045W        W22334  12.735   5.211  14.029
61046W        W22335  38.420   9.672  14.782
61047W        W22336  21.674  33.037   0.939
61048W        W22337   0.787  40.362   3.246
61049W        W22338  18.084  22.645   1.370
61050W        W22339  27.515  37.437   3.660
61051W        W22340  17.118  31.940  11.395
61052W        W22341   8.357   5.753   2.868
61053W        W22342   6.195  35.104  11.909
61054W        W22343   2.723  25.607  13.806
61055W        W22344  40.866  11.746   4.648
61056W        W22345   1.410  12.166  12.416
61057W        W22346   9.207  40.933   4.172
61058W        W22347   5.765  30.158   0.341
61059W        W22348   8.398   5.278  11.503
61060W        W22349  38.840  40.433  10.977
61061W        W22350   7.181  30.491  12.539
61062W        W22351  36.054   4.942   4.779
61063W        W22352  18.612  22.510  11.077
61064W        W22353  29.602   4.218  11.416
61065W        W22354  40.948  39.062   2.220
61066W        W22355  31.946   8.783  11.612
61067W        W22356  10.273  20.088  11.452
61068W        W22357   1.388  15.761   4.832
61069W        W22358  36.995  30.942  12.839
61070W        W22359  41.916  42.322   3.151
61071W        W22360  22.690  37.517  14.455
61072W        W22361  40.882   1.733  10.566
61073W        W22362  36.503  30.959  13.420
61074W        W22363   7.893  27.589  11.054
61075W        W22364  16.138  30.642  14.778
61076W        W22365  28.065  14.240  12.093
61077W        W22366   7.211   8.819  12.067
61078W        W22367  10.753  31.098   2.830
61079W        W22368   1.289   2.431  13.826
61080W        W22369   8.285  31.425   4.814
61081W        W22370  26.505  27.113  13.043
61082W        W22371  32.022  33.090  14.436
61083W        W22372  13.796  36.864   3.669
61084W        W22373  33.511  24.115  14.324
61085W        W22374  23.183  15.241   2.768
61086W        W22375  30.030  29.639   3.348
61087W        W22376   8.241  29.496   2.677
61088W        W22377  42.446  39.445   1.907
61089W        W22378  39.004  28.062  12.018
61090W        W22379  38.344  15.603  11.950
61091W        W22380  42.360  36.066   0.840
61092W        W22381  34.396  38.864  13.007
61093W        W22382  30.134  23.212  12.920
61094W        W22383  30.605  14.259   1.889
61095W        W22384   1.860   8.247  14.399
61096W        W22385   3.850  41.431  11.451
61097W        W22386  22.742  15.799   1.285
61098W        W22387  26.488  29.501   5.319
61099W        W22388  19.097  25.125  11.479
61100W        W22389  44.822  40.529  13.316
61101W        W22390  33.582  30.928  12.931
61102W        W22391   7.253  28.157   2.888
61103W        W22392  11.210  41.949   4.147
61104W        W22393  11.204  14.774  11.932
61105W        W22394   0.284  17.609   4.751
61106W        W22395  19.690   7.777   0.961
61107W        W22396   1.970  30.133  14.915
61108W        W22397  18.207   8.318  13.973
61109W        W22398  30.079  25.109   2.309
61110W        W22399  27.016  19.771  13.835
61111W        W22400  33.397  44.921   1.720
61112W        W22401  37.905  24.205  12.410
61113W        W22402  37.543  10.330   0.260
61114W        W22403  29.563  29.932  14.393
61115W        W22404   6.819  44.881  13.427
61116W        W22405  16.647  26.073  11.465
61117W        W22406  27.989   8.797  13.061
61118W        W22407  15.811  20.152  14.834
61119W        W22408   3.860  15.674  13.989
61120W        W22409  35.424  31.487  14.851
61121W        W22410   3.441   4.256  14.916
61122W        W22411  20.231  38.355  11.858
61123W        W22412  22.140  16.807  14.021
61124W        W22413  19.679  32.062   0.318
61125W        W22414  36.920  36.045  11.127
61126W        W22415  42.353   3.849   0.414
61127W        W22416  24.112   3.364   2.781
61128W        W22417  36.940   0.407  11.419
61129W        W22418  31.457  13.161   4.804
61130W        W22419  18.702  13.326  13.064
61131W        W22420  19.245  40.324   2.260
61132W        W22421  22.119  28.051  13.816
61133W        W22422   4.755   9.743   4.649
61134W        W22423  42.424  39.810  14.407
61135W        W22424  27.991  32.476   1.875
61136W        W22425  24.636  42.324  14.388
61137W        W22426  33.923  38.403  14.297
61138W        W22427  39.890  38.014  10.621
61139W        W22428  42.019  21.078  14.419
61140W        W22429  11.824  37.009  11.892
61141W        W22430  28.145  28.032  10.506
61142W        W22431   0.797   9.375   0.894
61143W        W22432  44.411   4.290   2.410
61144W        W22433  32.551   7.724   1.344
61145W        W22434  36.533  25.531   2.405
61146W        W22435  34.439  33.429  14.992
61147W        W22436  27.554  33.921   2.389
61148W        W22437   3.779  10.346   4.701
61149W        W22438  36.559  29.649   2.353
61150W        W22439   3.950  27.159  13.445
61151W        W22440   5.803  12.211   0.461
61152W        W22441  33.936   9.856  12.988
61153W        W22442  22.530  39.947   3.285
61154W        W22443   9.211  24.492  13.994
61155W        W22444  19.248  24.000  10.412
61156W        W22445  15.173  16.788   3.203
61157W        W22446  25.009  28.129   4.208
61158W        W22447  30.915  11.262  13.820
61159W        W22448  13.835  41.359  12.058
61160W        W22449  37.996   9.726  12.863
61161W        W22450  36.375   3.852  11.554
61162W        W22451  44.828  16.673   3.797
61163W        W22452  44.818   6.399   9.980
61164W        W22453  44.431  10.633  12.358
61165W        W22454  37.401  26.144   0.249
61166W        W22455  26.683  16.750   3.736
61167W        W22456  31.064   1.413  10.575
61168W        W22457  30.915  24.699   3.314
61169W        W22458  23.628  36.559  13.335
61170W        W22459   4.306   4.365   3.735
61171W        W22460  43.484   5.789   3.224
61172W        W22461   2.887  34.070   4.630
61173W        W22462   1.348  40.903   1.777
61174W        W22463  32.609  39.501   1.344
61175W        W22464  11.142  43.452   9.592
61176W        W22465  34.103   6.199  11.493
61177W        W22466  23.590   5.316   4.636
61178W        W22467  27.061  21.111   1.926
61179W        W22468  27.156  15.091  14.356
61180W        W22469   1.432  16.114   0.803
61181W        W22470  36.048   2.775   0.385
61182W        W22471   3.238  21.667  11.576
61183W        W22472   7.225   6.775  14.352
61184W        W22473  26.533  18.289  14.317
61185W        W22474  10.159  43.269   1.727
61186W        W22475   7.865   3.404   1.930
61187W        W22476   4.422  42.811  14.504
61188W        W22477  25.507  18.546   0.302
61189W        W22478  20.684  38.949  13.406
61190W        W22479  25.683  16.585   0.467
61191W        W22480  12.346  24.496   2.349
61192W        W22481   7.851   3.274  10.564
61193W        W22482  12.623  33.966   1.930
61194W        W22483  15.239  23.515   2.235
61195W        W22484  43.477  18.672   1.742
61196W        W22485  35.389  38.945  13.454
61197W        W22486  29.114  26.124  10.464
61198W        W22487  28.671   2.471   1.426
61199W        W22488   3.858  41.477  14.303
61200W        W22489  18.704  36.918   1.404
61201W        W22490  30.574  26.522   4.835
61202W        W22491  44.463  40.443   3.845
61203W        W22492  34.476  27.108  13.974
61204W        W22493  34.921  42.448   2.779
61205W        W22494  37.844  22.542   2.683
61206W        W22495  29.156  35.571   3.149
61207W        W22496  36.586  17.113   0.375
61208W        W22497  18.162  27.077   4.827
61209W        W22498   5.282  24.570  11.886
61210W        W22499  40.469  42.004  12.910
61211W        W22500  16.631  25.648   3.713
61212W        W22501  16.741  41.793  11.097
61213W        W22502  38.073  41.943   3.243
61214W        W22503  41.426   3.432   4.119
61215W        W22504  10.305  10.166   1.413
61216W        W22505   2.451   8.226   4.289
61217W        W22506  11.698   0.979   4.638
61218W        W22507   1.377  38.398   2.825
61219W        W22508  13.305   1.792   3.689
61220W        W22509  14.277  20.749   0.817
61221W        W22510  10.655  37.451  11.116
61222W        W22511  43.990   5.408  13.468
61223W        W22512  19.070  19.131  14.391
61224W        W22513   6.815  14.211   1.398
61225W        W22514  31.092  11.713   1.705
61226W        W22515  25.543   9.230  14.397
61227W        W22516   6.696  17.628  13.989
61228W        W22517  12.200  17.250  11.536
61229W        W22518   6.415  20.647   0.343
61230W        W22519  20.086   8.255  11.001
61231W        W22520  28.059  12.758  13.880
61232W        W22521  24.098  27.470  14.342
61233W        W22522  21.249  29.002   1.326
61234W        W22523  38.022  36.454  10.469
61235W        W22524   7.276  26.997   9.953
61236W        W22525  38.967  30.131   4.297
61237W        W22526   1.250  34.067  10.638
61238W        W22527  43.914  10.787   5.143
61239W        W22528   0.350  35.945  12.923
61240W        W22529   2.434  26.562  14.486
61241W        W22530  42.915  21.109   1.710
61242W        W22531   7.396  39.052   3.371
61243W        W22532   7.683   1.875   0.826
61244W        W22533  40.007   0.259   3.313
61245W        W22534  43.955  31.423   4.653
61246W        W22535  35.481  34.091  10.408
61247W        W22536  38.535   5.701  11.002
61248W        W22537   1.328  39.927  14.797
61249W        W22538   8.743  28.152  13.507
61250W        W22539  14.709  26.475   2.363
61251W        W22540  37.060  18.660   1.264
61252W        W22541  43.924   4.214   0.943
61253W        W22542  18.608  31.491   3.825
61254W        W22543  39.855  44.361   9.921
61255W        W22544  30.427  36.421  14.509
61256W        W22545   0.908  14.273  13.375
61257W        W22546  33.943  33.031  11.528
61258W        W22547  28.498  14.214   2.341
61259W        W22548  41.910   5.223  14.830
61260W        W22549  43.891  42.360  12.492
61261W        W22550   3.315  17.743   3.753
61262W        W22551   9.288   6.916   1.785
61263W        W22552   6.737  32.032  13.337
61264W        W22553  37.438  10.637   3.293
61265W        W22554  32.982  28.028   3.752
61266W        W22555  21.730  30.149  12.536
61267W        W22556  12.307  43.957   0.814
61268W        W22557  36.458  23.709  13.982
61269W        W22558  10.642  43.021   3.863
61270W        W22559  19.662  18.607   1.910
61271W        W22560  25.069   0.904   1.222
61272W        W22561  42.823  42.944   0.482
61273W        W22562  16.280  41.034   9.615
61274W        W22563  33.530   8.358   1.703
61275W        W22564   2.439  43.439   4.788
61276W        W22565  30.034  15.690  10.409
61277W        W22566  33.543  11.305   3.196
61278W        W22567  18.198   6.913  13.840
61279W        W22568   5.848  29.484  10.968
61280W        W22569  22.532  35.367   4.278
61281W        W22570  32.594  16.095  10.608
61282W        W22571   2.797  22.085  12.372
61283W        W22572   4.799  26.161   0.842
61284W        W22573   4.408  16.160  12.354
61285W        W22574   6.886  25.494   4.779
61286W        W22575  31.904  20.250   3.718
61287W        W22576   7.791  27.163   3.305
61288W        W22577  26.208  18.058   2.300
61289W        W22578   7.733  24.652  13.046
61290W        W22579  39.371  42.864   3.794
61291W        W22580  10.666  28.547   3.818
61292W        W22581  27.457   5.794   2.740
61293W        W22582  15.609  35.986  14.816
61294W        W22583  26.994   9.714  13.051
61295W        W22584  34.572  39.908   0.877
61296W        W22585   9.754   3.874  10.524
61297W        W22586  30.112  41.842  14.905
61298W        W22587  17.155  43.004   1.781
61299W        W22588   5.373  38.332   4.201
61300W        W22589  40.498  22.570  11.389
61301W        W22590  33.058   4.235   1.765
61302W        W22591  38.447   1.259   0.279
61303W        W22592  18.715   1.908   1.321
61304W        W22593  35.042   7.277  12.892
61305W        W22594  39.506   1.397  13.014
61306W        W22595   0.750  27.192  14.993
61307W        W22596  42.909  41.943  12.079
61308W        W22597  31.052  16.705   4.664
61309W        W22598   8.308  20.262   3.365
61310W        W22599   0.885  23.002  13.019
61311W        W22600  11.792  41.517  10.025
61312W        W22601   6.336  21.020   2.787
61313W        W22602   1.405   4.937   4.832
61314W        W22603  41.988  30.562   3.353
61315W        W22604  27.599  43.400  12.471
61316W        W22605  41.398  16.125   4.635
61317W        W22606   1.418   5.333   2.721
61318W        W22607  37.015  41.331   2.367
61319W        W22608  19.268  13.637  13.375
61320W        W22609  38.409  10.694  11.929
61321W        W22610  30.076  23.066  13.417
61322W        W22611   6.677   4.214   2.192
61323W        W22612  35.013  24.683  10.625
61324W        W22613  15.688   2.441   5.115
61325W        W22614  44.375   5.916  11.123
61326W        W22615   0.940  42.923   1.413
61327W        W22616   0.884  13.229  11.450
61328W        W22617   1.468  32.122  10.587
61329W        W22618  22.626   8.887  14.357
61330W        W22619  27.193  34.474   3.808
61331W        W22620  31.906  19.714  14.805
61332W        W22621  30.988  24.535  11.946
61333W        W22622   1.800  17.572  12.042
61334W        W22623  33.588  20.133   4.252
61335W        W22624  21.147  41.450   4.275
61336W        W22625  21.729  16.273  12.944
61337W        W22626  26.503   2.846   0.345
61338W        W22627  43.848  39.481  11.413
61339W        W22628  10.836  42.790   4.629
61340W        W22629  15.170   9.699   1.222
61341W        W22630  35.099   5.235  12.452
61342W        W22631  25.649  32.929   4.811
61343W        W22632  43.306  12.359   9.950
61344W        W22633  30.579  18.701   2.823
61345W        W22634   3.931  22.165   3.642
61346W        W22635  39.004  29.576   3.792
61347W        W22636  12.740   6.688   3.805
61348W        W22637  33.410   9.856  13.940
61349W        W22638  21.512  38.054  14.440
61350W        W22639  42.296  19.181  14.863
61351W        W22640   7.871  34.484  10.926
61352W        W22641  42.302   7.275   3.311
61353W        W22642  44.315   2.772   2.187
61354W        W22643  39.425  18.050  12.423
61355W        W22644  41.896  27.514   4.609
61356W        W22645  35.586  23.143  11.073
61357W        W22646  32.979   4.818   4.336
61358W        W22647   4.928   4.342   1.935
61359W        W22648   0.454   8.674   0.907
61360W        W22649  42.784  16.658  12.374
61361W        W22650  32.970   4.810   2.231
61362W        W22651  37.398  16.717   0.294
61363W        W22652  21.702   3.922  12.034
61364W        W22653   7.322  16.579   3.342
61365W        W22654  15.090   2.853   1.247
61366W        W22655  27.673  17.178   2.785
61367W        W22656  22.222  24.011  10.089
61368W        W22657  24.487  10.243  12.360
61369W        W22658   1.835   8.396   3.791
61370W        W22659  28.628  35.400  13.048
61371W        W22660   7.666  34.894  13.841
61372W        W22661  44.464  17.561   0.474
61373W        W22662  20.196  18.184  12.845
61374W        W22663  19.615  11.291  14.915
61375W        W22664  24.123  13.201  10.443
61376W        W22665  26.624  24.508   2.875
61377W        W22666  23.033  34.876  12.834
61378W        W22667  13.680  36.005  14.379
61379W        W22668   6.875   8.224   1.715
61380W        W22669  44.344  38.505   3.294
61381W        W22670  42.454   3.818   1.402
61382W        W22671  23.207  22.663  14.434
61383W        W22672   9.868  12.250   2.671
61384W        W22673  37.437  11.834   2.754
61385W        W22674  26.549  36.429  10.946
61386W        W22675   4.335   8.781   3.341
61387W        W22676   8.289  37.054  13.916
61388W        W22677  15.175  16.312  13.031
61389W        W22678  28.998  44.309  14.325
61390W        W22679   5.827  41.941  10.967
61391W        W22680  35.479  19.256   3.855
61392W        W22681  10.264  39.415   0.310
61393W        W22682  38.413   0.393   3.863
61394W        W22683   7.845  13.169  11.479
61395W        W22684  44.379   1.819  10.595
61396W        W22685  23.569  35.006   1.885
61397W        W22686  12.714   3.315   2.827
61398W        W22687   1.846   6.706   2.850
61399W        W22688  12.830  20.139   4.666
61400W        W22689  26.531  34.435  10.988
61401W        W22690  29.657  41.497   9.948
61402W        W22691  26.493  36.936   3.700
61403W        W22692   6.809  16.657  12.936
61404W        W22693  33.972  12.663  14.421
61405W        W22694  30.453   9.212  13.407
61406W        W22695  24.651  29.168  13.481
61407W        W22696   4.387  22.643  14.415
61408W        W22697  37.347  19.648   0.385
61409W        W22698   3.282  38.337  11.906
61410W        W22699  11.668  14.122   0.287
61411W        W22700  28.996   4.383   0.339
61412W        W22701   4.310  30.951  11.087
61413W        W22702  12.166  39.040  14.890
61414W        W22703  24.022  19.126  13.478
61415W        W22704  11.291  23.178   2.816
61416W        W22705  35.907  32.563  11.002
61417W        W22706  14.682  22.688  13.819
61418W        W22707  20.574  17.210   4.149
61419W        W22708  36.874   1.467   1.352
61420W        W22709  37.883  24.160   9.938
61421W        W22710  16.309  15.173  10.495
61422W        W22711  16.182  19.236  14.354
61423W        W22712  34.577  25.989   3.243
61424W        W22713  17.104  30.424   1.321
61425W        W22714  16.732  15.805  14.921
61426W        W22715  28.507  38.402   2.742
61427W        W22716  30.612  35.525   1.350
61428W        W22717  19.594  30.581  10.597
61429W        W22718   4.293  10.373  12.080
61430W        W22719  12.678  25.598  13.941
61431W        W22720  42.304  36.017   2.895
61432W        W22721  21.078  31.430  14.816
61433W        W22722   9.650  36.051   0.911
61434W        W22723   5.843   6.204  13.530
61435W        W22724  21.675  40.045  14.898
61436W        W22725  40.429  33.579   4.139
61437W        W22726  36.540  44.983   2.858
61438W        W22727  19.568  35.577   4.165
61439W        W22728   7.189  18.617   2.836
61440W        W22729  18.261  13.134  13.867
61441W        W22730   5.796   9.156   3.281
61442W        W22731  29.020  41.417  14.326
61443W        W22732   8.847  26.661   0.284
61444W        W22733   9.861  13.776  11.031
61445W        W22734  38.976  13.155  11.535
61446W        W22735  29.633   1.942   3.336
61447W        W22736   7.676   1.459  11.383
61448W        W22737  34.579  20.131   2.345
61449W        W22738  40.018  22.086   0.948
61450W        W22739  10.297  25.552  14.911
61451W        W22740  21.026  30.522   0.262
61452W        W22741  26.642  38.865   3.715
61453W        W22742  35.064  31.421  13.006
61454W        W22743  15.148  41.848   0.258
61455W        W22744  24.579  36.976  11.011
61456W        W22745   5.787  22.060   4.308
61457W        W22746   7.775  38.444  11.558
61458W        W22747  20.601  10.647  14.972
61459W        W22748   2.775  40.504  13.060
61460W        W22749  27.012  36.464  14.321
61461W        W22750  33.947   6.314  14.453
61462W        W22751  35.007  27.111   4.132
61463W        W22752   8.323  27.147   3.757
61464W        W22753   2.727  38.527  14.461
61465W        W22754  24.661   3.947   0.369
61466W        W22755   5.218   2.860   3.219
61467W        W22756  37.972  17.726  13.468
61468W        W22757  15.665  36.442   4.761
61469W        W22758   1.790  12.255  11.895
61470W        W22759  16.311   8.274   2.770
61471W        W22760  16.646   9.232  13.808
61472W        W22761   4.417  17.684   2.808
61473W        W22762  24.221  27.956  13.057
61474W        W22763  23.647  19.722   1.419
61475W        W22764  43.339   6.891  11.082
61476W        W22765  33.517  44.010   3.177
61477W        W22766  35.385   0.310  11.599
61478W        W22767  22.735  11.367   1.916
61479W        W22768  40.341   4.257  13.031
61480W        W22769   0.290   2.948  12.070
61481W        W22770  15.596  13.299  14.444
61482W        W22771   9.821  19.224  10.487
61483W        W22772  24.620   7.723  12.459
61484W        W22773  33.085   0.866   5.601
61485W        W22774  29.504  29.601  13.547
61486W        W22775  20.115   8.308  14.876
61487W        W22776  13.240  38.527   4.347
61488W        W22777  15.701  41.312  14.469
61489W        W22778  12.124  12.314  12.412
61490W        W22779  33.382  42.802  13.818
61491W        W22780   1.393  44.804   4.797
61492W        W22781  27.454  36.855  10.531
61493W        W22782   2.753  38.041  11.435
61494W        W22783  29.575  23.677   1.753
61495W        W22784  22.566  13.114  11.936
61496W        W22785  26.110  10.245  10.621
61497W        W22786  38.376  29.990   2.705
61498W        W22787  37.037   4.351   4.624
61499W        W22788   1.826  40.385   3.309
61500W        W22789  14.103  14.148  10.953
61501W        W22790   9.274  18.669   0.732
61502W        W22791  21.617  36.984  14.377
61503W        W22792  42.791   2.246   1.736
61504W        W22793  14.164   6.317   5.161
61505W        W22794  37.853  30.099   3.154
61506W        W22795  13.628  36.462  12.451
61507W        W22796  27.445   5.837  13.880
61508W        W22797  31.007  38.007  14.872
61509W        W22798  20.719  37.978  14.358
61510W        W22799  14.719  25.152  14.773
61511W        W22800  13.760  29.023   4.650
61512W        W22801  13.600  12.680   2.187
61513W        W22802  38.067  30.427  10.037
61514W        W22803  22.541  42.335  14.778
61515W        W22804   8.668  39.412   0.961
61516W        W22805  14.672  21.055  11.389
61517W        W22806   2.918  30.636  12.544
61518W        W22807   3.861  44.311   3.702
61519W        W22808  39.453  37.079   0.326
61520W        W22809  27.645   9.330   9.568
61521W        W22810  19.692   5.338   1.830
61522W        W22811  32.945  18.133   4.341
61523W        W22812  30.074  10.217   3.786
61524W        W22813  16.238   2.268   1.312
61525W        W22814  14.784  44.450   3.176
61526W        W22815  28.491   8.895  11.484
61527W        W22816  25.506  18.687  13.044
61528W        W22817  43.775  24.609   2.224
61529W        W22818  15.638  10.814   3.230
61530W        W22819  12.630  28.145   1.377
61531W        W22820  30.060  30.054   1.444
61532W        W22821  23.195  26.663   4.616
61533W        W22822   3.367  14.607  14.026
61534W        W22823  11.348  32.394  14.903
61535W        W22824  13.789  15.666   4.632
61536W        W22825   1.814  16.252  10.405
61537W        W22826  22.103  20.049  14.279
61538W        W22827  41.029  26.201   4.249
61539W        W22828  31.533   2.902   0.407
61540W        W22829  41.931  37.430  14.292
61541W        W22830  23.668  42.473  14.866
61542W        W22831  25.184  11.251  13.013
61543W        W22832  40.815  35.542   3.285
61544W        W22833  18.575  19.143  10.975
61545W        W22834  27.159  36.073  14.312
61546W        W22835  13.143  19.670   1.267
61547W        W22836  44.847  43.979   4.630
61548W        W22837   8.746  17.195  14.341
61549W        W22838   4.785   2.345  13.964
61550W        W22839  26.116  36.557   0.323
61551W        W22840  29.920   7.699   4.197
61552W        W22841  33.623  37.345   4.720
61553W        W22842  33.999  26.660   0.314
61554W        W22843   9.672  21.516   3.198
61555W        W22844  12.205  14.298   2.672
61556W        W22845  22.228  40.509  14.487
61557W        W22846  19.580  19.234  12.375
61558W        W22847  20.623  18.071  12.045
61559W        W22848  22.995  21.096  13.343
61560W        W22849  25.194  29.613   0.458
61561W        W22850  25.558   7.699   2.847
61562W        W22851  25.524  27.952  12.939
61563W        W22852   3.246   8.332  11.103
61564W        W22853  23.524  19.264  10.471
61565W        W22854   9.854  11.645  11.114
61566W        W22855   9.735   5.330  13.009
61567W        W22856   5.774  17.136  14.371
61568W        W22857  24.493  29.546  13.908
61569W        W22858  37.455  23.215  11.942
61570W        W22859  40.429  33.091   1.420
61571W        W22860  29.437   8.239   4.228
61572W        W22861  22.196  39.514  11.434
61573W        W22862  27.962   9.869   5.111
61574W        W22863  40.476  18.642  12.474
61575W        W22864  25.084  25.545  12.003
61576W        W22865  41.967   9.766  14.909
61577W        W22866  20.768  13.682   4.147
61578W        W22867  31.502  20.684  11.900
61579W        W22868  23.065  21.522  14.474
61580W        W22869  42.798  17.746   1.356
61581W        W22870   3.803   4.869  12.959
61582W        W22871  20.089  11.826   9.978
61583W        W22872  22.218   9.170  13.813
61584W        W22873   7.288  28.661  14.955
61585W        W22874  17.252  27.001  14.309
61586W        W22875  16.631   2.360   4.187
61587W        W22876  41.958  15.296  14.835
61588W        W22877  29.436  38.004  14.907
61589W        W22878  14.729  30.045  12.846
61590W        W22879  17.740  16.784   2.299
61591W        W22880  34.398   0.434  12.899
61592W        W22881  34.994  13.326  11.953
61593W        W22882  38.030   8.679   3.244
61594W        W22883  25.572   0.927   4.820
61595W        W22884  34.095  20.261  13.443
61596W        W22885  12.270  39.997   0.823
61597W        W22886  33.976  15.676  11.588
61598W        W22887  35.037  18.734  12.458
61599W        W22888   6.183  17.645  12.046
61600W        W22889  20.066   6.248  11.989
61601W        W22890  18.587  35.958   2.219
61602W        W22891   9.669  29.174  13.448
61603W        W22892   7.253   9.261   0.327
61604W        W22893  26.154  35.603   1.221
61605W        W22894  44.988  35.916   1.915
61606W        W22895  44.504  12.347  10.017
61607W        W22896  43.974  35.929   2.263
61608W        W22897  32.983  11.203   3.722
61609W        W22898  34.422  32.942  14.480
61610W        W22899  36.375  26.498   3.349
61611W        W22900  19.066  39.361   4.740
61612W        W22901  28.119  24.103  13.436
61613W        W22902  38.556  41.523   3.767
61614W        W22903  14.339  31.597  12.452
61615W        W22904  19.233  37.968   2.208
61616W        W22905  25.603  30.924  13.016
61617W        W22906  23.578  23.520  13.012
61618W        W22907   2.319  25.526  14.795
61619W        W22908  29.652  15.761   4.812
61620W        W22909  33.979  30.440   5.117
61621W        W22910   6.296   3.244   1.233
61622W        W22911   7.207   0.362   1.749
61623W        W22912   4.724  31.128   2.311
61624W        W22913  32.471  39.894  11.053
61625W        W22914   6.834  15.626  11.520
61626W        W22915  29.950  31.971   2.351
61627W        W22916  20.664   2.408   4.623
61628W        W22917  37.999  37.863   0.856
61629W        W22918   3.216   9.342  13.873
61630W        W22919   2.737  40.847  11.954
61631W        W22920  25.049  22.608  12.943
61632W        W22921  24.130  43.981  13.849
61633W        W22922  28.482  28.646   3.377
61634W        W22923  31.466   8.383   0.357
61635W        W22924   3.942  21.175   0.745
61636W        W22925   2.230  20.041   1.253
61637W        W22926   4.820  44.000   2.896
61638W        W22927  25.024  39.985   0.923
61639W        W22928  25.544  11.365  12.909
61640W        W22929   2.890   4.757   2.898
61641W        W22930  39.496  16.317   1.309
61642W        W22931  28.534  23.056   9.611
61643W        W22932  11.845  44.753   3.379
61644W        W22933   5.329  37.426   4.179
61645W        W22934  13.132   3.297  13.915
61646W        W22935  36.522   8.282   0.375
61647W        W22936  30.618  24.485  14.863
61648W        W22937  44.461  35.362  10.907
61649W        W22938   1.366  26.672  11.493
61650W        W22939  29.086   5.824  13.445
61651W        W22940  22.052  33.942   1.735
61652W        W22941   8.743   1.827   4.159
61653W        W22942   4.817  38.053  10.517
61654W        W22943  38.918   7.900   3.868
61655W        W22944  34.107  13.647   3.672
61656W        W22945  44.898  43.304   0.756
61657W        W22946   8.210  14.184   4.306
61658W        W22947   2.927   0.382   3.200
61659W        W22948  20.056  24.661  13.464
61660W        W22949  37.361  33.024  12.538
61661W        W22950  15.750  44.475  13.478
61662W        W22951  28.132  29.981   3.373
61663W        W22952  11.694   5.241   3.261
61664W        W22953   9.708  17.161   3.686
61665W        W22954  39.483  30.583   1.694
61666W        W22955  14.199  35.892   3.299
61667W        W22956  12.642   7.190  12.553
61668W        W22957   8.738  14.152  13.895
61669W        W22958   0.411   0.956   4.263
61670W        W22959  40.521  35.006  13.360
61671W        W22960  11.207   5.780  12.918
61672W        W22961  34.909  33.910   3.793
61673W        W22962  26.109  36.399  12.086
61674W        W22963  27.634  20.136   3.862
61675W        W22964  40.342  24.052   5.181
61676W        W22965   7.780  29.539   4.826
61677W        W22966  24.660  24.575  14.881
61678W        W22967  20.168  40.036   1.812
61679W        W22968   2.906  41.882   1.893
61680W        W22969  19.280  28.988   3.845
61681W        W22970  28.630  21.202  14.890
61682W        W22971   4.919  30.519  11.419
61683W        W22972  37.385  11.320   1.345
61684W        W22973  38.497  44.392  12.519
61685W        W22974  24.571  22.036  14.348
61686W        W22975  32.510  21.527  13.390
61687W        W22976  20.670   4.779   2.231
61688W        W22977  18.746  10.807   2.271
61689W        W22978  26.697  41.486   0.873
61690W        W22979  36.010  33.090  12.022
61691W        W22980  14.829  39.972   0.469
61692W        W22981  27.637  18.737   1.373
61693W        W22982  12.184   3.397  12.026
61694W        W22983   9.799  24.553  13.425
61695W        W22984  31.562   6.914   0.258
61696W        W22985  38.499  37.074   3.690
61697W        W22986  36.438   9.171   0.787
61698W        W22987  15.706  18.254  11.948
61699W        W22988  30.083  18.620   4.353
61700W        W22989   4.925  43.377   0.815
61701W        W22990  17.601   3.772   3.231
61702W        W22991  36.950  30.104  14.371
61703W        W22992  29.169   7.204   2.726
61704W        W22993   8.273  40.549   1.275
61705W        W22994  12.713  40.375  14.925
61706W        W22995  19.638  28.499   2.787
61707W        W22996  18.100  37.072   1.223
61708W        W22997  39.850  43.987  12.492
61709W        W22998  29.512  14.731  10.497
61710W        W22999  35.104   4.910   4.336
61711W        W23000   5.331   7.283   1.733
61712W        W23001  11.795  11.286  13.511
61713W        W23002   8.822  13.757  13.880
61714W        W23003  42.330   9.647   1.364
61715W        W23004  23.127  35.466  13.455
61716W        W23005  15.212  23.211  14.494
61717W        W23006  12.243  31.566   0.775
61718W        W23007  30.592  17.754  14.393
61719W        W23008   9.381  44.331   4.761
61720W        W23009  16.730  44.477   0.399
61721W        W23010  12.326  34.050   4.727
61722W        W23011  38.982  38.975  11.395
61723W        W23012  23.078  44.315   4.336
61724W        W23013  21.068  37.029  14.461
61725W        W23014   9.846  17.113  11.889
61726W        W23015  35.362  23.508  12.463
61727W        W23016  17.107   8.711  14.477
61728W        W23017  44.304   4.249  14.858
61729W        W23018  10.781  33.890  12.003
61730W        W23019  14.123   5.292   0.887
61731W        W23020  17.064  31.953  13.009
61732W        W23021  34.612  39.347  11.579
61733W        W23022  24.591  34.119   0.474
61734W        W23023  30.443  15.682   3.759
61735W        W23024  23.675  25.619  10.935
61736W        W23025  44.796  29.645   4.815
61737W        W23026  28.020  19.222   0.948
61738W        W23027  35.033  20.094  12.384
61739W        W23028  42.967   2.966   0.734
61740W        W23029  33.070  11.292   2.208
61741W        W23030   1.916  13.822   1.818
61742W        W23031  44.938  12.789   3.774
61743W        W23032  12.686  20.183  11.983
61744W        W23033   8.182   2.270  13.332
61745W        W23034  33.386  23.594   1.869
61746W        W23035  30.936  33.397  12.015
61747W        W23036   1.886   1.462  12.356
61748W        W23037  24.588  26.505   4.624
61749W        W23038  15.223  44.362   1.390
61750W        W23039   2.736  35.104  12.050
61751W        W23040  30.508   1.905   2.185
61752W        W23041  40.548   4.713   5.185
61753W        W23042  17.170  11.357   4.602
61754W        W23043  24.208   6.873  12.442
61755W        W23044  27.044  11.130   3.171
61756W        W23045   2.301  37.886   4.341
61757W        W23046  38.401   0.470   4.224
61758W        W23047   3.867  11.806   3.671
61759W        W23048  44.942   2.450  11.411
61760W        W23049  11.185   4.351   4.670
61761W        W23050  40.532  19.671  14.506
61762W        W23051  32.055  35.444   0.818
61763W        W23052   3.886  12.716  13.976
61764W        W23053  17.734  27.100  13.546
61765W        W23054  35.384  20.654  13.488
61766W        W23055  38.065  34.558  12.885
61767W        W23056  39.355  27.098   0.862
61768W        W23057  21.514   1.887   3.313
61769W        W23058  13.245  18.283   2.272
61770W        W23059  27.085   5.814   9.997
61771W        W23060  11.667  16.305   4.808
61772W        W23061  13.795  44.304  12.405
61773W        W23062  12.730  17.104  14.893
61774W        W23063  44.360  40.950   1.341
61775W        W23064   8.194  39.979  11.550
61776W        W23065  38.004  24.158   3.301
61777W        W23066  38.383   4.859  14.771
61778W        W23067  28.943  37.433   4.341
61779W        W23068  22.071   6.720  14.497
61780W        W23069  31.054  34.873   1.276
61781W        W23070  10.185  37.974  10.620
61782W        W23071  37.903  18.743  14.006
61783W        W23072   0.969  13.239  10.143
61784W        W23073  36.376  29.635   4.231
61785W        W23074   9.865   6.811  13.319
61786W        W23075  15.641  40.350   0.912
61787W        W23076  16.271   3.452   1.762
61788W        W23077   9.754  43.337  10.492
61789W        W23078  28.146  14.274   4.645
61790W        W23079  33.620  22.517  14.333
61791W        W23080   0.770  11.844  13.372
61792W        W23081  32.072   3.918   1.909
61793W        W23082   4.817  28.931  11.518
61794W        W23083  20.152  39.825   3.651
61795W        W23084   0.985  28.439  11.453
61796W        W23085  21.259  30.990   1.220
61797W        W23086  12.165  30.995   2.864
61798W        W23087   6.318  14.171   0.342
61799W        W23088  36.577  44.759  12.092
61800W        W23089   0.353  19.640   2.842
61801W        W23090  37.059  33.964  13.912
61802W        W23091  19.646  44.841  14.317
61803W        W23092   1.249  44.423  13.364
61804W        W23093   6.217   7.833   1.781
61805W        W23094   7.229  33.479  12.455
61806W        W23095   1.282  42.441   0.909
61807W        W23096   3.763  14.779   0.401
61808W        W23097  32.889  41.936  10.528
61809W        W23098  37.433   3.225   4.618
61810W        W23099  18.707  38.357  13.921
61811W        W23100  42.522  40.485  14.497
61812W        W23101   0.929   6.285   0.921
61813W        W23102  15.693   4.366  10.927
61814W        W23103  37.958  29.614   2.290
61815W        W23104  10.672   1.450  12.364
61816W        W23105  22.715   2.461  12.869
61817W        W23106  38.921  30.590   4.238
61818W        W23107  29.656  20.085  10.610
61819W        W23108  19.171  27.526   3.301
61820W        W23109  27.080  21.648  14.385
61821W        W23110   2.390  18.094  12.341
61822W        W23111  34.470   3.321  13.458
61823W        W23112  21.118  18.237   4.716
61824W        W23113   0.750   8.772   0.917
61825W        W23114  24.633  24.577   1.777
61826W        W23115  38.070  41.841   1.781
61827W        W23116  29.609   5.285   1.812
61828W        W23117   9.223  22.711   2.848
61829W        W23118  12.816  33.007  14.384
61830W        W23119  28.123  10.210   2.390
61831W        W23120  17.236  18.577   0.332
61832W        W23121  35.455  14.302   3.337
61833W        W23122  44.372  37.484  13.514
61834W        W23123  34.511  14.292  11.012
61835W        W23124  35.872  10.803  11.089
61836W        W23125   9.889  11.678   0.445
61837W        W23126   5.711   5.713   0.443
61838W        W23127   1.916   8.658   5.187
61839W        W23128   6.887   5.206   0.392
61840W        W23129  40.417   3.424   4.836
61841W        W23130   9.867  35.931   5.128
61842W        W23131   1.446  37.861  11.501
61843W        W23132   4.822  20.732   3.304
61844W        W23133  40.408  26.977  11.385
61845W        W23134   0.403   8.897   1.863
61846W        W23135  30.009  17.562   4.190
61847W        W23136   3.326  20.246   1.836
61848W        W23137   3.433  21.122  14.887
61849W        W23138  32.636  22.736   1.237
61850W        W23139   2.305   7.260   0.277
61851W        W23140  41.886  31.553  10.461
61852W        W23141  25.137  26.151  14.340
61853W        W23142  17.561  22.211  14.792
61854W        W23143  40.445   9.151  14.498
61855W        W23144  40.460  32.472  14.284
61856W        W23145  24.487  16.201  11.952
61857W        W23146  35.949  10.830  14.419
61858W        W23147  36.524  32.921  13.525
61859W        W23148  29.990  38.548  14.767
61860W        W23149   1.255   3.406   5.088
61861W        W23150  43.339  28.090   0.967
61862W        W23151   9.245   1.839  13.378
61863W        W23152  32.091  11.746   0.357
61864W        W23153  44.326   2.326  14.911
61865W        W23154  36.085  39.957   1.393
61866W        W23155  44.933  15.812   9.920
61867W        W23156  42.853  11.248  12.526
61868W        W23157   9.751  14.109   0.426
61869W        W23158  29.662  33.382  14.994
61870W        W23159   6.789  38.413  10.993
61871W        W23160   5.813  30.081  11.509
61872W        W23161   6.744  12.728   0.461
61873W        W23162  42.407  37.897   2.781
61874W        W23163   9.862  28.006  11.001
61875W        W23164  38.824  31.459   4.644
61876W        W23165   2.308  16.600  13.421
61877W        W23166  27.011  16.659   2.800
61878W        W23167  16.628  18.715  10.494
61879W        W23168   4.229  41.468  14.848
61880W        W23169  30.149  29.141  12.033
61881W        W23170  44.863   5.878   4.633
61882W        W23171  42.012  18.786  14.368
61883W        W23172  15.587   3.760   1.858
61884W        W23173  40.428  11.827   4.135
61885W        W23174  35.057  31.077  13.464
61886W        W23175  22.009  14.656   2.218
61887W        W23176  19.674   2.911  12.893
61888W        W23177  40.883  20.175  14.994
61889W        W23178   7.211  35.863  12.521
61890W        W23179  12.317  36.880   1.829
61891W        W23180  25.683  13.831   0.344
61892W        W23181  22.509  17.585  11.570
61893W        W23182  25.191  21.644   2.257
61894W        W23183  36.901  42.835   1.779
61895W        W23184  28.578  28.622   4.243
61896W        W23185  22.696  18.112  14.312
61897W        W23186  43.345  26.470  12.405
61898W        W23187   7.405  11.794   0.943
61899W        W23188   8.814  40.483  11.896
61900W        W23189  18.141  25.182   1.738
61901W        W23190  20.679  15.125  14.424
61902W        W23191  44.925   5.764  12.540
61903W        W23192  34.883  38.043  12.029
61904W        W23193  35.357  18.545  13.970
61905W        W23194  14.219   4.311  14.482
61906W        W23195  21.630   6.261  12.506
61907W        W23196  13.212  24.491   2.338
61908W        W23197  39.825  42.003  11.925
61909W        W23198  37.037  34.376  14.459
61910W        W23199  44.427  18.125   3.684
61911W        W23200  35.062  17.248  10.630
61912W        W23201  11.142   7.890  13.496
61913W        W23202  13.332   8.844  13.013
61914W        W23203   6.842  34.444   2.212
61915W        W23204   0.789  23.117  13.900
61916W        W23205  26.163  29.925   2.186
61917W        W23206   8.342  41.321  14.363
61918W        W23207  12.333  11.256   3.754
61919W        W23208   0.446  35.596   3.253
61920W        W23209  12.613   4.708   3.190
61921W        W23210  27.498   1.791   4.803
61922W        W23211   5.359  18.613   1.343
61923W        W23212  12.718   1.779   1.861
61924W        W23213  20.638   9.718  11.448
61925W        W23214  30.424  22.009   4.303
61926W        W23215   8.299  14.176  14.305
61927W        W23216  36.540  23.139   4.646
61928W        W23217  23.489  42.407  11.590
61929W        W23218  40.352  41.479  10.895
61930W        W23219  31.453   8.782  13.825
61931W        W23220  42.447  43.443  12.510
61932W        W23221   2.937  20.591  11.094
61933W        W23222   8.251   2.470  13.882
61934W        W23223  38.000   2.893   4.294
61935W        W23224   8.373  19.733  10.581
61936W        W23225  23.616   7.207   0.310
61937W        W23226  19.574  16.099   2.770
61938W        W23227  24.985   9.769   1.379
61939W        W23228  31.630   4.900   0.923
61940W        W23229  40.981  44.911   4.210
61941W        W23230   9.366  34.921   3.302
61942W        W23231  24.021  31.478  12.987
61943W        W23232  34.530  26.976  11.585
61944W        W23233   6.384  12.832   5.301
61945W        W23234  40.851   9.245  11.933
61946W        W23235  14.793  31.406  10.467
61947W        W23236  34.879  29.604  11.963
61948W        W23237  40.826  36.023  10.639
61949W        W23238  43.467  40.983  14.948
61950W        W23239  32.503  18.060   0.464
61951W        W23240   4.797  41.312   4.284
61952W        W23241  10.849   7.274   4.732
61953W        W23242  37.512  11.298   0.257
61954W        W23243  19.076  36.000  10.894
61955W        W23244  10.357   7.723   2.214
61956W        W23245  30.444  35.375   2.695
61957W        W23246  42.800  43.385   2.893
61958W        W23247  19.042  28.479   0.932
61959W        W23248   6.194  36.480  14.278
61960W        W23249   5.895  19.165   4.159
61961W        W23250   7.857  41.466  13.842
61962W        W23251  26.192  31.594  10.637
61963W        W23252  32.552   6.248  12.565
61964W        W23253  30.566  18.236  10.432
61965W        W23254  39.417  16.116   2.760
61966W        W23255  38.997  44.497   2.737
61967W        W23256  43.276  27.516  12.421
61968W        W23257  28.436  34.052   4.178
61969W        W23258  39.345  12.351   3.870
61970W        W23259   2.826   3.846  11.963
61971W        W23260   9.694  16.290  12.390
61972W        W23261   6.914   1.366  13.458
61973W        W23262   5.912  24.652   2.244
61974W        W23263   8.348   0.867  13.804
61975W        W23264  43.481   6.288   1.331
61976W        W23265  37.023  28.468  13.342
61977W        W23266  29.504  19.724   3.869
61978W        W23267  37.965  15.099  11.093
61979W        W23268  42.358   6.230  13.378
61980W        W23269   3.312  33.514  12.411
61981W        W23270  16.278  28.996  11.038
61982W        W23271  23.120  34.868   1.299
61983W        W23272  17.150   9.200   3.824
61984W        W23273  18.252  40.484   4.268
61985W        W23274  31.974  30.630  13.963
61986W        W23275  31.006  33.607  11.079
61987W        W23276   6.848  22.529  14.429
61988W        W23277  18.283   3.736  12.043
61989W        W23278   1.276  27.981  11.932
61990W        W23279  27.448  23.225  11.609
61991W        W23280   3.838  37.473  13.015
61992W        W23281   2.818  44.387   4.324
61993W        W23282  16.729  12.789   4.116
61994W        W23283  11.664  26.610   0.254
61995W        W23284  22.128  30.570  11.379
61996W        W23285  36.582  30.974   3.762
61997W        W23286  38.361   2.314  14.284
61998W        W23287   4.749  23.537  13.391
61999W        W23288  10.637  43.848  12.945
62000W        W23289   4.833   1.307   2.262
62001W        W23290  18.698  35.975  10.601
62002W        W23291  24.696  28.547  11.025
62003W        W23292   1.311  36.430  12.908
62004W        W23293  11.358  28.033  12.445
62005W        W23294   1.822  11.287   3.151
62006W        W23295  22.683  25.053  12.982
62007W        W23296   6.891  22.641  13.426
62008W        W23297  36.843  11.765   4.664
62009W        W23298  11.687   2.908  11.425
62010W        W23299  14.178  14.187  14.304
62011W        W23300  30.096  12.131   4.318
62012W        W23301  43.801  44.483   0.865
62013W        W23302  10.864   0.349   3.641
62014W        W23303  28.517  16.655  10.556
62015W        W23304  17.691   0.369  13.950
62016W        W23305  41.923  24.583   3.358
62017W        W23306   1.317  16.237  12.422
62018W        W23307  43.986   6.691   9.667
62019W        W23308  23.214  26.989  11.415
62020W        W23309  29.918   9.666   4.314
62021W        W23310   3.316  20.523   2.292
62022W        W23311  23.670   5.381   3.335
62023W        W23312  10.783   6.881  10.535
62024W        W23313  16.618  19.730   0.448
62025W        W23314   5.896  13.149  13.406
62026W        W23315  37.005   6.293   0.889
62027W        W23316  38.553  24.628   4.715
62028W        W23317  11.810   2.764   0.813
62029W        W23318  26.046   7.269  12.557
62030W        W23319   3.922   5.258   1.860
62031W        W23320   1.383  28.640  10.434
62032W        W23321  35.498  39.043  14.882
62033W        W23322  29.151   1.944   4.246
62034W        W23323  41.858  25.683  10.539
62035W        W23324   5.735  22.737  14.792
62036W        W23325  26.166  10.277  14.993
62037W        W23326  21.745  33.917  10.466
62038W        W23327  25.660  20.762  11.950
62039W        W23328  18.648  23.558   0.883
62040W        W23329   5.751  27.626   3.319
62041W        W23330  33.463  31.142   0.742
62042W        W23331  33.510   3.773   1.721
62043W        W23332  27.100  28.615  14.481
62044W        W23333   9.699   7.360  12.835
62045W        W23334  10.378  33.523   2.296
62046W        W23335  18.190  17.111  12.860
62047W        W23336  30.935  33.385   1.778
62048W        W23337   9.819  38.940   2.894
62049W        W23338   1.431  20.578   2.407
62050W        W23339  27.486   5.223  13.945
62051W        W23340  25.970   4.250   2.382
62052W        W23341   3.228  10.347   5.166
62053W        W23342  29.987  27.129   1.863
62054W        W23343  35.481   1.931   9.952
62055W        W23344   8.190  40.349  13.340
62056W        W23345  24.662  33.618  14.892
62057W        W23346  11.337   1.961   1.933
62058W        W23347  33.125  17.677   1.428
62059W        W23348  20.192  23.498   4.698
62060W        W23349   9.354  34.076  12.497
62061W        W23350  12.185   3.747  11.493
62062W        W23351  35.458  18.779   2.335
62063W        W23352  35.906   5.788  13.909
62064W        W23353  38.979  44.812  13.961
62065W        W23354  14.164   4.251  12.927
62066W        W23355  17.108  41.891  13.405
62067W        W23356  44.947  20.691  13.332
62068W        W23357  13.685  38.474   2.786
62069W        W23358   4.265  31.095  10.435
62070W        W23359  34.428   0.982  11.417
62071W        W23360  22.616  18.584  14.825
62072W        W23361  10.877  28.536   2.224
62073W        W23362  35.509   6.803  14.801
62074W        W23363  43.881  27.089  10.598
62075W        W23364  32.537  10.308  10.109
62076W        W23365  28.623  25.144   4.700
62077W        W23366  15.595  18.678   1.378
62078W        W23367   7.876   4.303   2.709
62079W        W23368  38.498  35.914   4.172
62080W        W23369  43.857  19.127   3.320
62081W        W23370  11.625  16.700   3.786
62082W        W23371  21.641  41.472   0.441
62083W        W23372   7.884  25.599   4.717
62084W        W23373  21.567  41.002   2.835
62085W        W23374  37.902  24.145  12.006
62086W        W23375  14.228   3.392   1.424
62087W        W23376  24.115  40.915   2.353
62088W        W23377  33.403  28.091   4.134
62089W        W23378   1.784  31.907  11.020
62090W        W23379  15.787   6.886  14.902
62091W        W23380  18.259   8.357   1.422
62092W        W23381  11.658  22.202   3.221
62093W        W23382  28.616  30.913   4.132
62094W        W23383  10.164  15.209  14.401
62095W        W23384   8.747  37.446   1.365
62096W        W23385  39.443  31.422   4.276
62097W        W23386  13.272  30.959  10.491
62098W        W23387  42.473  37.871   0.318
62099W        W23388  30.108  22.079   3.833
62100W        W23389  44.928  16.685   2.412
62101W        W23390   7.328  35.535   0.951
62102W        W23391  13.110  14.152  14.294
62103W        W23392  23.127   2.302  12.391
62104W        W23393  38.866   7.219   2.378
62105W        W23394  38.905  31.066  10.538
62106W        W23395  42.371  21.695   1.729
62107W        W23396  13.734  15.615   2.241
62108W        W23397  33.929  39.353   4.138
62109W        W23398   2.759  19.767  13.487
62110W        W23399   6.227  33.491   1.408
62111W        W23400  41.970   8.278   3.850
62112W        W23401  12.786  16.657   0.290
62113W        W23402  19.779  19.268  11.980
62114W        W23403  27.607   1.779  10.520
62115W        W23404  33.876  35.904  10.497
62116W        W23405  30.430   9.806  11.544
62117W        W23406  25.666  39.943   0.748
62118W        W23407  36.586  14.145  11.469
62119W        W23408  37.438  36.909  12.969
62120W        W23409  38.952   9.201  14.371
62121W        W23410  40.918  11.842  11.054
62122W        W23411  30.035  28.011  12.937
62123W        W23412  36.991  28.440  11.019
62124W        W23413  17.574  29.010   3.337
62125W        W23414   9.249  11.675   3.363
62126W        W23415  12.189  36.964  14.886
62127W        W23416  23.686   8.198  12.855
62128W        W23417  12.821  19.740   3.387
62129W        W23418  31.899  22.132   2.212
62130W        W23419   1.287  19.177  13.309
62131W        W23420  42.324  14.753  11.932
62132W        W23421   1.739  12.235   3.214
62133W        W23422  37.981  22.093  10.436
62134W        W23423   2.383  16.662  12.928
62135W        W23424  37.570   9.391  14.833
62136W        W23425  18.256   8.707   0.799
62137W        W23426  30.148   6.882   2.301
62138W        W23427   0.824  33.516   4.627
62139W        W23428  32.524  13.309  13.851
62140W        W23429  44.375  25.072  10.939
62141W        W23430  27.671   9.166   2.351
62142W        W23431  33.399   6.761  10.923
62143W        W23432  35.542  22.587   1.811
62144W        W23433   0.374  18.294   0.942
62145W        W23434  37.996   1.283  10.957
62146W        W23435  33.118  12.796  12.841
62147W        W23436  21.569  11.162   3.713
62148W        W23437  42.367  25.666  12.072
62149W        W23438  32.953  20.667  12.528
62150W        W23439  37.395  11.755  14.378
62151W        W23440  17.626  14.207  11.120
62152W        W23441  11.666  17.722   2.886
62153W        W23442   7.750  33.908  12.888
62154W        W23443   9.779  38.849  14.911
62155W        W23444  40.842  44.284  13.439
62156W        W23445  20.062  31.081   4.731
62157W        W23446  22.227  21.658  10.533
62158W        W23447  14.800  28.578   0.250
62159W        W23448  38.441   7.351   0.422
62160W        W23449  12.703  11.191  12.445
62161W        W23450  34.888  11.361  11.059
62162W        W23451  14.763  36.853  10.438
62163W        W23452  39.485  37.561   3.665
62164W        W23453  42.947   0.845   4.136
62165W        W23454  22.565  38.009   3.249
62166W        W23455  17.099  43.960   2.786
62167W        W23456  17.288   6.402   1.304
62168W        W23457  31.013  18.653   3.684
62169W        W23458  37.948  43.950   2.820
62170W        W23459   8.162  42.287   3.857
62171W        W23460   4.275   9.741   3.676
62172W        W23461  32.551  35.366   3.277
62173W        W23462  18.788   9.211   0.815
62174W        W23463  30.146   5.903  10.643
62175W        W23464  26.541   6.428   3.371
62176W        W23465   4.741  11.783   0.362
62177W        W23466   7.240   5.242  13.357
62178W        W23467  22.173  11.775   4.162
62179W        W23468  18.777   2.232   0.828
62180W        W23469   6.813  37.582  13.478
62181W        W23470  10.188   1.804   3.253
62182W        W23471  17.155  13.733   3.658
62183W        W23472  19.606   7.336   3.855
62184W        W23473   1.480  26.598  13.480
62185W        W23474  42.829  32.011  12.962
62186W        W23475  41.856   8.386  13.817
62187W        W23476  23.532   4.813   0.367
62188W        W23477   1.783   3.366   0.898
62189W        W23478  39.064  43.939  12.387
62190W        W23479  20.070  33.063  13.937
62191W        W23480  42.810   6.902  14.759
62192W        W23481  10.811  38.485  13.009
62193W        W23482   5.281  10.709   2.186
62194W        W23483  35.361   0.961   2.296
62195W        W23484   6.291  43.810  13.428
62196W        W23485   8.284  20.234   4.748
62197W        W23486  30.613  39.469  14.321
62198W        W23487  18.718  11.238  10.466
62199W        W23488  29.137  41.504  12.965
62200W        W23489  18.293  18.580   4.172
62201W        W23490   0.830  34.957  13.845
62202W        W23491  12.658  33.005  10.945
62203W        W23492   9.786   4.425   0.836
62204W        W23493  25.111  14.185   2.243
62205W        W23494  34.492   2.258   5.680
62206W        W23495   7.749  35.550   1.343
62207W        W23496   8.378  29.101  11.527
62208W        W23497  29.500  39.876  12.986
62209W        W23498  12.358  12.332  13.328
62210W        W23499  18.294  37.967   2.378
62211W        W23500  41.839  36.587   1.770
62212W        W23501  24.061  39.819  11.993
62213W        W23502  21.032  39.440  11.982
62214W        W23503  24.545  25.570  13.825
62215W        W23504  38.544  29.144  12.420
62216W        W23505   0.758  25.206   4.282
62217W        W23506   9.834  25.128   2.714
62218W        W23507  22.545  15.308   4.273
62219W        W23508   9.281  26.599   4.256
62220W        W23509   2.912   9.714   1.338
62221W        W23510  22.511  31.412  14.495
62222W        W23511  16.249  34.609  12.511
62223W        W23512  33.112  25.672  13.419
62224W        W23513  20.620  12.130   4.711
62225W        W23514   4.727  22.596   1.254
62226W        W23515   4.918  12.690  10.975
62227W        W23516  40.419  23.536   2.225
62228W        W23517  23.052  22.539   2.235
62229W        W23518  22.026  31.050  11.467
62230W        W23519  39.050  24.992  10.518
62231W        W23520   4.794  26.079   4.221
62232W        W23521  40.473   5.356  14.467
62233W        W23522   5.410   7.234   3.367
62234W        W23523   6.278   0.490   1.830
62235W        W23524  39.414  37.881   4.792
62236W        W23525   4.871   6.376  12.408
62237W        W23526  43.295  44.960  13.060
62238W        W23527  37.078  25.033  14.325
62239W        W23528  19.542   4.337   3.725
62240W        W23529  28.659   0.292   4.796
62241W        W23530  14.804  30.074  10.505
62242W        W23531  39.875   6.404  11.969
62243W        W23532  18.289  28.995  13.535
62244W        W23533  39.432  41.012  13.418
62245W        W23534  26.152  24.220  13.935
62246W        W23535  14.181   1.477   5.164
62247W        W23536   6.903  36.504   3.330
62248W        W23537  27.535  21.665   5.114
62249W        W23538  30.012  25.662   4.202
62250W        W23539  15.662   1.416   2.383
62251W        W23540  33.509  24.121   0.378
62252W        W23541   4.433  30.560  14.959
62253W        W23542  23.736  11.841  14.308
62254W        W23543   6.880  11.165  13.450
62255W        W23544  41.920   5.699   4.345
62256W        W23545   1.793  26.994  14.501
62257W        W23546  32.436  41.888  13.467
62258W        W23547  14.213   5.247  11.015
62259W        W23548  21.703  44.821   1.833
62260W        W23549   3.883  35.994  12.019
62261W        W23550  28.630   7.763  13.034
62262W        W23551   3.731  38.914  14.851
62263W        W23552  17.768   7.342   3.225
62264W        W23553  16.203   1.314  13.006
62265W        W23554  41.455  42.476  14.895
62266W        W23555  12.856  33.931  11.544
62267W        W23556  36.440  13.181  12.465
62268W        W23557  35.061  35.416   3.719
62269W        W23558  38.860  29.569   4.255
62270W        W23559  14.311  29.016   1.892
62271W        W23560  11.259  33.469   1.229
62272W        W23561   0.297   1.439   4.728
62273W        W23562   4.792  40.886  12.560
62274W        W23563  44.762  27.026   1.699
62275W        W23564  19.191  42.434   0.758
62276W        W23565  26.062  13.674  13.953
62277W        W23566  13.139  12.852  11.540
62278W        W23567  19.713  44.951  10.941
62279W        W23568  42.409  14.598   4.293
62280W        W23569  36.015  39.001   3.361
62281W        W23570  19.721  41.907   3.630
62282W        W23571  27.552  19.244   0.323
62283W        W23572  37.019  29.443   4.694
62284W        W23573  22.068  39.018   4.753
62285W        W23574  43.009  28.071  11.126
62286W        W23575  15.222  19.156  12.952
62287W        W23576  20.749  12.847   4.725
62288W        W23577  24.148  14.149  14.885
62289W        W23578  21.662   1.851   0.860
62290W        W23579   0.346   2.877   1.336
62291W        W23580  12.826  13.170  14.504
62292W        W23581  25.514  33.128  14.932
62293W        W23582  16.597  37.922  13.361
62294W        W23583  39.810  13.758  10.549
62295W        W23584  17.094  28.949  10.120
62296W        W23585  43.812  43.781   3.800
62297W        W23586  32.933  37.578   0.783
62298W        W23587  24.506  37.374   4.339
62299W        W23588  22.027  41.992   2.338
62300W        W23589  28.089  36.484  12.347
62301W        W23590  40.869  18.199  10.984
62302W        W23591  25.209  39.364  11.087
62303W        W23592   1.744  25.546   2.883
62304W        W23593   0.935  37.387  14.767
62305W        W23594   6.826  16.295   3.385
62306W        W23595  27.473  43.785  11.053
62307W        W23596  19.244  43.935  10.470
62308W        W23597  41.909  38.439  12.032
62309W        W23598   2.894  40.488  10.439
62310W        W23599   3.232  10.314   4.199
62311W        W23600  28.038  28.487   3.767
62312W        W23601  34.925   4.700  13.010
62313W        W23602  31.490  21.061  14.014
62314W        W23603  38.364   6.907  13.520
62315W        W23604  33.505  10.286   3.688
62316W        W23605  11.309  42.885   4.218
62317W        W23606  16.750  26.604   0.376
62318W        W23607  43.012   2.755  11.558
62319W        W23608  30.530   2.358  14.364
62320W        W23609  27.087  28.641   0.795
62321W        W23610   4.383  27.476  11.434
62322W        W23611  28.673  21.628   4.634
62323W        W23612   9.319  23.138   4.135
62324W        W23613  30.113  14.099   2.334
62325W        W23614  20.056  41.042  13.343
62326W        W23615  34.028   7.219   4.261
62327W        W23616  12.310   0.865  14.822
62328W        W23617  37.523  11.211   4.714
62329W        W23618  12.635  30.540   4.329
62330W        W23619   3.903  23.579   1.309
62331W        W23620   6.351  44.384   3.306
62332W        W23621  15.085  23.147  12.363
62333W        W23622  42.392  17.580  12.408
62334W        W23623   6.265   4.893  14.496
62335W        W23624  44.479  22.023  14.986
62336W        W23625   0.318  34.887  12.835
62337W        W23626   4.333  34.868  14.943
62338W        W23627   7.709  35.374  10.098
62339W        W23628  20.613  30.151  13.003
62340W        W23629  17.651   0.968  11.044
62341W        W23630  26.105  36.929   4.246
62342W        W23631  44.370  42.416   4.771
62343W        W23632  18.066  33.446   3.675
62344W        W23633  36.881  12.799   4.648
62345W        W23634  23.151   1.306   3.291
62346W        W23635  32.066  36.066   2.797
62347W        W23636   0.777   1.967   4.285
62348W        W23637  40.528   6.209  14.988
62349W        W23638   8.334  33.461  14.451
62350W        W23639   8.176  17.061  10.501
62351W        W23640  42.520   2.798  12.533
62352W        W23641  32.077  12.748   0.463
62353W        W23642   9.785  25.623  12.486
62354W        W23643  31.532  26.185   1.748
62355W        W23644  27.102  34.385  11.977
62356W        W23645  18.092   0.283  14.276
62357W        W23646  36.912  15.126  13.433
62358W        W23647  32.520  13.756  11.934
62359W        W23648  12.303  26.104  12.853
62360W        W23649   3.927   1.440  13.827
62361W        W23650  30.943  40.020   2.768
62362W        W23651  31.073   9.372   3.819
62363W        W23652  36.542  11.230  11.483
62364W        W23653  10.641  35.463   4.145
62365W        W23654  28.499   5.225  13.358
62366W        W23655  33.486   8.165  13.444
62367W        W23656  18.695  44.456   1.864
62368W        W23657  12.723  18.063  13.792
62369W        W23658   8.774  22.645  11.907
62370W        W23659  12.668   5.194   1.287
62371W        W23660  28.503  14.165   3.810
62372W        W23661  12.319  34.047  11.531
62373W        W23662  14.164   4.866   4.207
62374W        W23663  28.004   5.265  10.509
62375W        W23664  38.886  25.651  13.823
62376W        W23665  43.432  11.726   2.684
62377W        W23666  31.436  42.433  10.520
62378W        W23667  28.116  21.637   2.845
62379W        W23668  25.616  17.756  12.440
62380W        W23669  11.144  44.940   0.729
62381W        W23670   9.206  12.154  12.354
62382W        W23671   6.864  36.412   3.664
62383W        W23672   2.280  28.570  11.441
62384W        W23673  10.381   4.370  14.766
62385W        W23674   0.359  16.623   0.370
62386W        W23675  13.197  17.190  11.393
62387W        W23676  29.105  26.041   1.227
62388W        W23677  31.039  43.503   4.237
62389W        W23678  31.534  25.648  12.472
62390W        W23679  43.862  30.580  12.496
62391W        W23680   0.821   1.785  10.597
62392W        W23681   4.832  26.047   2.800
62393W        W23682  14.736  39.355   0.820
62394W        W23683  18.073  30.542  10.413
62395W        W23684  33.567  27.088  10.504
62396W        W23685  42.378  41.329   0.787
62397W        W23686  17.654   8.673   0.832
62398W        W23687   7.368  36.479   3.300
62399W        W23688  25.018  23.696  14.284
62400W        W23689  35.440   7.308  13.323
62401W        W23690  26.077   7.313   3.667
62402W        W23691   8.249  36.430   1.235
62403W        W23692  14.199  22.156   3.222
62404W        W23693  25.589   7.321   2.837
62405W        W23694   8.331   2.884  14.824
62406W        W23695   5.828  30.609   2.777
62407W        W23696  29.109  13.249  13.956
62408W        W23697   5.884  38.878   4.765
62409W        W23698  10.713   5.248  13.461
62410W        W23699  29.599  24.157  12.440
62411W        W23700  18.273  32.405  12.487
62412W        W23701  10.783  21.586   2.662
62413W        W23702  10.380  23.520   2.391
62414W        W23703   5.781   7.729   4.210
62415W        W23704  27.532   2.249   4.141
62416W        W23705  33.010  41.409  14.294
62417W        W23706  23.049   8.203  11.372
62418W        W23707  13.824  26.122  14.003
62419W        W23708  35.428  23.131   1.316
62420W        W23709  11.820  42.858   1.895
62421W        W23710  26.660  30.502  12.467
62422W        W23711   6.797   9.785   0.299
62423W        W23712  25.069  28.518   2.338
62424W        W23713  12.217  18.123  12.855
62425W        W23714  24.483  21.063   5.646
62426W        W23715  31.941  30.514   2.875
62427W        W23716  38.974  25.472  14.783
62428W        W23717   9.879  30.989   2.689
62429W        W23718  21.193  26.488  11.127
62430W        W23719  22.248  37.955   0.362
62431W        W23720   3.721  19.267  13.030
62432W        W23721  37.344  30.525   1.744
62433W        W23722  32.393  12.140   2.271
62434W        W23723  27.472  19.533  13.020
62435W        W23724   3.944  29.000  13.908
62436W        W23725  14.260  18.276   1.213
62437W        W23726  13.112   5.264   2.290
62438W        W23727  11.657  12.631   0.820
62439W        W23728  21.685  41.535   3.863
62440W        W23729  18.665  43.486  11.510
62441W        W23730   5.745  12.248   2.198
62442W        W23731   2.267  31.116   2.857
62443W        W23732   5.918   4.863   2.268
62444W        W23733  22.019  41.812  14.887
62445W        W23734  35.600  29.471  12.506
62446W        W23735  10.855   7.384  14.851
62447W        W23736  42.506  22.653  13.046
62448W        W23737  30.602  37.414   3.364
62449W        W23738  41.468  12.213   0.837
62450W        W23739  17.279  25.623  12.874
62451W        W23740  23.646  31.623  10.637
62452W        W23741  19.228  26.153   4.239
62453W        W23742  13.802   6.816  13.428
62454W        W23743  32.430   9.775  13.383
62455W        W23744  30.063  27.082  12.001
62456W        W23745  42.348  26.972   0.955
62457W        W23746  27.565  27.009  10.965
62458W        W23747  11.176  17.759  13.052
62459W        W23748   1.731  37.499   5.203
62460W        W23749  29.523  21.175   5.105
62461W        W23750  16.258   5.864  11.086
62462W        W23751  31.992  29.108  12.015
62463W        W23752  41.444  40.965   0.407
62464W        W23753   8.692  30.600   0.841
62465W        W23754  27.164  35.492   2.801
62466W        W23755  28.092  13.634   2.804
62467W        W23756  39.969  25.516   0.328
62468W        W23757  36.996  35.547  12.499
62469W        W23758  18.182  39.923   3.248
62470W        W23759  24.018  11.765   0.260
62471W        W23760  17.287  12.707  12.574
62472W        W23761  21.148  21.031   2.807
62473W        W23762  40.424  14.687  10.500
62474W        W23763   5.787  33.968   4.623
62475W        W23764  17.761  25.073   4.128
62476W        W23765   5.206  16.807  14.300
62477W        W23766  37.501   2.456  11.055
62478W        W23767   1.383   7.176  10.972
62479W        W23768  32.007  40.511   0.968
62480W        W23769  12.144  28.147   2.316
62481W        W23770  22.595  32.397  12.493
62482W        W23771  41.516  23.712   4.747
62483W        W23772  24.485  13.106  14.365
62484W        W23773  28.030  18.650  11.016
62485W        W23774  31.635  20.262  11.455
62486W        W23775  40.880   9.716  11.982
62487W        W23776  26.107  36.993  14.933
62488W        W23777  42.321   5.714   4.262
62489W        W23778  36.035  13.809   1.212
62490W        W23779   6.279  19.566   3.262
62491W        W23780  27.496  14.662   1.876
62492W        W23781  32.580   7.213  12.573
62493W        W23782  44.491  13.194   4.135
62494W        W23783  11.196  15.804   3.375
62495W        W23784  27.133   9.855  14.286
62496W        W23785  16.794  31.147  13.832
62497W        W23786  12.814   6.830  11.115
62498W        W23787   1.818  13.209   1.913
62499W        W23788  43.897   2.253   3.786
62500W        W23789   9.278  21.056   2.690
62501W        W23790   0.488  12.677  11.121
62502W        W23791  43.457  16.775   3.635
62503W        W23792  37.568   9.887   0.477
62504W        W23793  29.529  24.038   0.343
62505W        W23794  19.616  21.019  10.419
62506W        W23795  15.232   2.298   9.649
62507W        W23796  26.052   5.216  12.955
62508W        W23797   3.361  36.923  12.352
62509W        W23798  14.835  22.057  12.011
62510W        W23799  16.255  13.351   2.687
62511W        W23800  40.312  27.153   1.299
62512W        W23801  41.987  35.945   4.687
62513W        W23802  12.226  31.009   0.850
62514W        W23803  20.766  25.661   4.778
62515W        W23804  14.225  24.670  11.525
62516W        W23805  16.698  15.774   2.338
62517W        W23806  32.579  38.037   3.853
62518W        W23807  16.621  17.639  11.879
62519W        W23808  13.621  14.130  14.799
62520W        W23809  31.620  29.520  12.520
62521W        W23810   2.915  43.815  13.391
62522W        W23811  40.360  16.609  14.428
62523W        W23812  41.032   4.873  14.807
62524W        W23813  15.677  20.672  12.571
62525W        W23814  42.446   0.838   1.296
62526W        W23815   0.840  35.596   4.810
62527W        W23816  17.605  39.534   1.451
62528W        W23817  38.909  11.808   1.761
62529W        W23818  44.317  16.688   9.967
62530W        W23819  31.934  26.507   5.164
62531W        W23820  17.678  33.014   2.303
62532W        W23821  26.550  27.045  13.496
62533W        W23822   1.269   8.293  14.441
62534W        W23823  27.159   4.805   4.674
62535W        W23824  24.650  42.431   0.262
62536W        W23825  35.011  18.565   1.756
62537W        W23826  10.748  12.752   1.341
62538W        W23827  38.016  20.622   4.184
62539W        W23828  18.756  39.334  12.377
62540W        W23829   1.274  16.151   2.690
62541W        W23830  32.431  34.947   2.726
62542W        W23831   5.368  37.994  12.389
62543W        W23832  20.624  40.887   2.787
62544W        W23833  23.497  32.995   1.721
62545W        W23834  34.105  20.740   3.642
62546W        W23835   4.767   3.837  10.474
62547W        W23836  39.478   0.318  13.406
62548W        W23837  40.459   5.354   4.738
62549W        W23838  16.715   4.875   4.340
62550W        W23839  31.963  18.609  11.446
62551W        W23840  10.772  37.975  14.778
62552W        W23841  39.323   4.450  10.489
62553W        W23842  12.288  34.515   2.820
62554W        W23843  21.164  33.428  14.386
62555W        W23844   7.233  42.422  11.436
62556W        W23845  38.972  28.567  12.088
62557W        W23846  39.977   3.889  13.876
62558W        W23847  19.110  42.350   2.194
62559W        W23848   8.686  27.142   3.284
62560W        W23849  33.937   9.317   1.727
62561W        W23850  21.623  24.147   5.173
62562W        W23851  20.618  23.132  10.634
62563W        W23852  10.262  32.543   3.168
62564W        W23853   8.229  29.602   3.311
62565W        W23854  15.821   5.732   0.471
62566W        W23855  25.481  41.347   3.293
62567W        W23856  26.584  29.172  11.949
62568W        W23857  14.774  24.676  14.858
62569W        W23858  12.826  13.636   4.338
62570W        W23859  14.639   5.828  10.553
62571W        W23860   1.341  43.907   1.834
62572W        W23861  28.016  31.478  13.353
62573W        W23862  37.949  39.445  10.598
62574W        W23863  24.556  41.412   2.258
62575W        W23864   5.334  23.710  11.886
62576W        W23865  42.281   2.844   0.880
62577W        W23866   1.429  27.561   3.661
62578W        W23867  27.078   1.428  14.976
62579W        W23868  44.890  34.914   3.756
62580W        W23869  20.537   7.366  13.344
62581W        W23870  21.551   1.758   2.314
62582W        W23871  13.639  38.839   0.372
62583W        W23872  33.996  40.996   1.900
62584W        W23873   7.869  31.545  11.971
62585W        W23874  35.031  17.652  13.880
62586W        W23875  32.077  41.378  12.038
62587W        W23876  37.483  40.902   2.220
62588W        W23877   5.862   0.416  11.877
62589W        W23878  10.733   3.935  12.509
62590W        W23879  13.271   7.411   4.753
62591W        W23880  14.300   2.783  12.094
62592W        W23881  12.170   4.781   4.253
62593W        W23882  26.199  15.704  11.428
62594W        W23883   5.883  16.781   4.654
62595W        W23884  19.212  18.660   1.255
62596W        W23885   1.454  36.951  11.403
62597W        W23886  13.177   9.654  13.824
62598W        W23887  10.155   7.210  10.122
62599W        W23888  29.167   5.764  12.018
62600W        W23889   2.464   0.799   2.676
62601W        W23890  23.024  44.771  12.010
62602W        W23891  27.139   7.252  11.019
62603W        W23892  30.612   0.891  10.985
62604W        W23893   3.336  11.359   4.259
62605W        W23894   3.459   0.329   0.906
62606W        W23895  32.618  40.828  12.837
62607W        W23896  25.701  30.638   0.728
62608W        W23897  41.954  37.564   3.676
62609W        W23898  29.957  27.065  10.459
62610W        W23899  31.527  37.482   4.338
62611W        W23900   5.258  34.080  13.369
62612W        W23901  13.720  29.983  14.318
62613W        W23902  41.993   8.179   0.395
62614W        W23903  33.468  21.135  14.492
62615W        W23904  24.571   9.271   1.822
62616W        W23905  39.489  31.516  14.859
62617W        W23906  22.151  19.667  13.040
62618W        W23907  34.880  32.501   0.904
62619W        W23908  23.659  15.292  12.458
62620W        W23909  11.176  32.903  12.528
62621W        W23910  38.380  12.357   4.733
62622W        W23911  19.634  25.604  13.966
62623W        W23912  16.171  41.389   9.596
62624W        W23913  34.900  38.368   3.843
62625W        W23914  16.287  29.073   1.707
62626W        W23915   6.345   8.896   2.407
62627W        W23916  13.833  10.243   3.656
62628W        W23917  17.700   0.813   1.259
62629W        W23918  23.149  33.994  11.075
62630W        W23919  21.682  30.957  12.514
62631W        W23920  31.153  41.922  10.918
62632W        W23921  43.772  34.961  14.285
62633W        W23922  34.915  44.918   0.442
62634W        W23923  15.647  44.420  10.554
62635W        W23924  39.041  35.895  10.472
62636W        W23925  39.940  32.626   0.323
62637W        W23926  31.413   5.696  12.418
62638W        W23927  30.151  28.089   3.792
62639W        W23928  11.843   8.216   1.422
62640W        W23929  23.610   8.793  12.840
62641W        W23930  37.019  32.963  12.556
62642W        W23931  35.073  15.678  13.530
62643W        W23932  38.364  23.602   4.165
62644W        W23933   0.757  19.715   2.796
62645W        W23934   9.776   7.372  13.853
62646W        W23935  26.498  40.376  11.945
62647W        W23936  16.170  25.695   1.261
62648W        W23937  39.955  14.761  14.427
62649W        W23938  25.525  38.494  13.818
62650W        W23939  18.666  21.666  11.556
62651W        W23940  25.474  20.200  11.110
62652W        W23941  31.936   2.751   3.325
62653W        W23942  30.546  20.102  13.877
62654W        W23943  17.281   4.741   3.805
62655W        W23944  10.689  34.415  14.952
62656W        W23945  21.186  22.087   4.207
62657W        W23946   6.317  44.443   5.118
62658W        W23947  41.456  24.628  12.407
62659W        W23948   3.260  29.663  13.870
62660W        W23949  40.050  25.636   1.312
62661W        W23950   1.849  19.628   5.226
62662W        W23951  23.229  28.678   2.699
62663W        W23952   4.942  11.164  14.994
62664W        W23953   4.881  42.027  13.817
62665W        W23954  19.645  43.409   2.728
62666W        W23955  31.510  41.837  13.892
62667W        W23956  30.105  36.385  10.555
62668W        W23957   2.279  22.674   2.715
62669W        W23958  27.052  11.635   2.219
62670W        W23959  36.931  29.612  14.996
62671W        W23960  26.006  14.108   0.815
62672W        W23961  26.675  40.304   1.372
62673W        W23962  21.174   9.279   2.819
62674W        W23963  27.546   7.739   1.829
62675W        W23964  10.637  27.031   2.257
62676W        W23965   6.222  20.066   3.375
62677W        W23966  23.561   8.338  11.924
62678W        W23967   4.927  21.035   4.217
62679W        W23968  20.714  32.481   3.345
62680W        W23969  35.463  41.847   3.361
62681W        W23970  38.354  26.695   1.379
62682W        W23971  15.796  31.928  12.537
62683W        W23972  10.639  12.741  11.903
62684W        W23973  23.218  43.815  10.511
62685W        W23974  36.045  16.141  14.013
62686W        W23975  10.380  25.997   0.789
62687W        W23976  13.837   1.898   2.863
62688W        W23977   8.243   9.352  11.892
62689W        W23978  44.836  36.358  12.571
62690W        W23979  34.932  22.661  12.482
62691W        W23980   8.364  16.316  12.556
62692W        W23981  26.117  19.270   1.820
62693W        W23982   4.233  27.619   0.397
62694W        W23983   8.826  19.250  10.906
62695W        W23984   4.939  14.754   2.803
62696W        W23985  41.812   5.753  12.944
62697W        W23986  23.084  30.546  14.320
62698W        W23987  10.670  36.438   2.404
62699W        W23988  28.108  30.130   2.208
62700W        W23989  13.737   4.425   3.271
62701W        W23990   0.352   5.788   2.799
62702W        W23991  28.048   6.837  11.514
62703W        W23992  27.988  33.556   2.337
62704W        W23993  17.090   6.419  11.607
62705W        W23994  13.618   9.223   3.837
62706W        W23995  30.457  16.148  13.503
62707W        W23996  36.086  37.015   4.212
62708W        W23997  29.625   4.931   9.672
62709W        W23998  21.535   2.285  11.022
62710W        W23999  33.515  23.690  11.865
62711W        W24000  35.392  40.803   4.199
62712W        W24001  41.920   7.173  13.841
62713W        W24002  42.519  30.133   2.693
62714W        W24003   1.778  36.493  13.536
62715W        W24004  24.509  39.032   1.809
62716W        W24005  27.496  38.828  11.584
62717W        W24006  11.202  21.722  11.968
62718W        W24007  33.539  38.489   3.668
62719W        W24008  12.350  29.652   4.749
62720W        W24009  18.591  19.160   4.745
62721W        W24010  22.062  26.985  11.579
62722W        W24011  43.421   2.744   0.728
62723W        W24012   3.388   2.823  11.007
62724W        W24013  43.487  35.900  10.550
62725W        W24014  19.775  24.690   2.890
62726W        W24015  13.710   6.216  11.568
62727W        W24016  16.147  34.018  14.465
62728W        W24017  34.377  18.267  12.940
62729W        W24018   9.888  31.939  12.901
62730W        W24019   9.772   5.730  14.827
62731W        W24020  21.594  10.709   4.322
62732W        W24021   3.860  13.729  13.795
62733W        W24022  37.473   6.232  13.402
62734W        W24023  32.516  28.099   0.911
62735W        W24024  40.448   6.799  10.945
62736W        W24025  23.191  19.572  13.824
62737W        W24026  17.233  15.267   3.728
62738W        W24027   0.297  23.036   2.234
62739W        W24028  30.006  37.927   0.421
62740W        W24029  30.450  36.982  14.328
62741W        W24030   5.749  32.608  11.064
62742W        W24031  10.820   2.322   1.432
62743W        W24032  29.110  14.218   1.265
62744W        W24033  14.191  19.711  12.551
62745W        W24034  38.820  40.940   3.272
62746W        W24035  24.585  33.985  12.392
62747W        W24036  41.419  35.393   2.274
62748W        W24037  42.932  18.140  13.505
62749W        W24038  23.182   7.289  12.414
62750W        W24039  42.813  22.518   4.659
62751W        W24040   1.378  18.615  13.850
62752W        W24041  37.343  28.164   3.662
62753W        W24042   1.444   4.908  12.889
62754W        W24043  16.109  38.840  11.956
62755W        W24044  12.329  11.211  13.864
62756W        W24045   7.302   9.749   3.696
62757W        W24046   4.275   5.833  14.861
62758W        W24047   2.231  18.770   0.730
62759W        W24048  27.658  17.567   1.784
62760W        W24049   4.710  33.531  11.984
62761W        W24050  24.190   0.874   2.811
62762W        W24051  24.975  32.083   9.976
62763W        W24052  11.664  36.867   1.298
62764W        W24053  43.969  18.729  14.451
62765W        W24054  38.482  18.682  13.428
62766W        W24055  13.266  44.435  13.413
62767W        W24056   4.390   0.912  13.479
62768W        W24057   5.303  30.016  12.394
62769W        W24058  22.086  24.708  11.058
62770W        W24059   6.302  13.223  14.409
62771W        W24060   3.865  33.987   3.807
62772W        W24061   9.691   1.429   2.710
62773W        W24062  11.749   8.681   2.662
62774W        W24063  27.536  30.918   3.858
62775W        W24064  32.918  42.989   3.322
62776W        W24065  33.875  38.447  11.482
62777W        W24066  18.164  27.087   1.367
62778W        W24067   8.828  37.510  14.903
62779W        W24068   5.775  35.940   1.892
62780W        W24069  16.791  37.392   3.743
62781W        W24070  14.651  38.906  13.346
62782W        W24071  44.505   2.778  13.338
62783W        W24072  37.954  31.568   2.899
62784W        W24073  23.157  29.460   4.227
62785W        W24074  31.006  15.751   4.620
62786W        W24075  10.762  40.392   2.257
62787W        W24076  37.361  27.097   2.339
62788W        W24077   1.933  26.545  11.981
62789W        W24078  32.121  21.709  13.547
62790W        W24079  23.653  34.112  14.838
62791W        W24080  12.264  22.670  12.572
62792W        W24081  22.107  11.348  14.015
62793W        W24082  33.546  24.587   3.317
62794W        W24083  28.601  26.667   1.406
62795W        W24084  11.724   6.807  12.435
62796W        W24085  43.286  42.333  14.995
62797W        W24086  28.460  24.061   0.416
62798W        W24087  39.422  32.057  10.500
62799W        W24088  31.426   9.670   0.947
62800W        W24089  13.630  28.950   4.232
62801W        W24090  33.918  28.672  12.038
62802W        W24091  17.110  13.606   4.292
62803W        W24092  26.108   2.327  12.431
62804W        W24093  24.046   8.376  14.433
62805W        W24094  43.372   1.795   0.895
62806W        W24095  35.905  38.414   3.716
62807W        W24096   7.237  35.948  11.428
62808W        W24097  35.864   4.291  12.534
62809W        W24098  41.995  44.903  10.963
62810W        W24099  33.395  20.757   2.285
62811W        W24100  12.796  35.955  14.309
62812W        W24101  21.670   4.262  11.070
62813W        W24102  25.030  41.996   3.654
62814W        W24103  25.567  38.505   3.300
62815W        W24104   4.938  36.084   9.968
62816W        W24105  15.329  34.036  10.977
62817W        W24106  29.670  20.071  11.909
62818W        W24107  19.115  41.893  12.535
62819W        W24108  18.647  43.915   2.688
62820W        W24109   9.366  30.017   1.785
62821W        W24110   2.471   4.326  10.995
62822W        W24111  38.553  22.534  14.868
62823W        W24112  11.169  40.854   1.806
62824W        W24113  36.585  28.060   5.274
62825W        W24114   2.828  28.516  13.432
62826W        W24115  35.488  30.934   4.205
62827W        W24116  32.973   3.787  13.424
62828W        W24117  37.926  38.905  11.007
62829W        W24118   7.810  24.713  13.975
62830W        W24119  10.725  42.408   3.384
62831W        W24120  16.290  42.990  14.441
62832W        W24121   0.909  25.580   3.715
62833W        W24122  25.583   3.359   5.246
62834W        W24123  37.887  11.303  10.434
62835W        W24124  32.616  28.465   3.190
62836W        W24125  30.457   9.296   4.688
62837W        W24126  20.753  44.279   2.670
62838W        W24127  23.618   0.830  12.446
62839W        W24128  21.235  19.049  13.040
62840W        W24129  24.548  33.012  14.916
62841W        W24130  22.099  28.659  12.438
62842W        W24131  13.250  34.543  12.420
62843W        W24132  22.138  35.969   1.348
62844W        W24133  33.077  40.846  11.979
62845W        W24134   0.896  24.646  12.567
62846W        W24135  20.721   8.256  13.446
62847W        W24136  20.569  22.150  11.059
62848W        W24137  30.037  34.944  11.499
62849W        W24138   8.736  14.207  14.295
62850W        W24139  39.040  10.725  11.566
62851W        W24140  21.649  15.194  11.539
62852W        W24141  18.555  18.254  12.545
62853W        W24142  32.959  24.501   3.857
62854W        W24143   3.807  19.658   2.332
62855W        W24144  44.785  19.114   4.217
62856W        W24145   4.874  27.161  11.934
62857W        W24146  31.916  16.184   1.308
62858W        W24147   0.988   8.305   4.171
62859W        W24148  31.590  26.981   1.787
62860W        W24149   1.411  34.470   4.206
62861W        W24150  34.583   2.799   3.165
62862W        W24151   3.230  26.977   3.764
62863W        W24152   1.390  16.674  14.977
62864W        W24153  11.793  18.292  14.355
62865W        W24154  21.155  12.351  12.835
62866W        W24155  17.601  29.962   3.792
62867W        W24156  35.555  18.672  10.924
62868W        W24157  10.279   4.214  13.869
62869W        W24158   5.272  27.196  13.462
62870W        W24159  31.019  13.651  14.026
62871W        W24160   8.358  40.911   1.907
62872W        W24161  16.287  15.757  10.100
62873W        W24162  12.821  19.772  10.081
62874W        W24163  13.713  17.721   1.256
62875W        W24164  22.695  29.982   3.794
62876W        W24165  43.889   5.420  12.000
62877W        W24166  34.929  27.548  12.853
62878W        W24167  42.283  12.241   1.708
62879W        W24168  40.006  30.951  10.411
62880W        W24169  39.043  18.257   0.805
62881W        W24170  40.989  34.030   2.896
62882W        W24171  35.537  22.610   3.789
62883W        W24172  19.552  41.305   0.253
62884W        W24173  31.080  25.067  14.494
62885W        W24174  40.437  21.168  10.904
62886W        W24175  34.865  38.480   1.934
62887W        W24176  43.470  30.418   4.243
62888W        W24177   3.244  20.270  10.504
62889W        W24178  30.512  27.154  13.314
62890W        W24179  31.550  13.199  14.822
62891W        W24180  35.496  38.058   3.817
62892W        W24181  21.205  43.397  13.432
62893W        W24182  13.676  27.573   1.313
62894W        W24183   2.731  19.605   2.342
62895W        W24184  21.034   3.749   4.757
62896W        W24185  39.008  43.295  12.916
62897W        W24186  37.378  32.561  12.560
62898W        W24187  12.796  16.689   4.168
62899W        W24188  17.259  42.856  12.847
62900W        W24189   5.316  41.789   4.176
62901W        W24190  35.017  24.132  13.962
62902W        W24191  40.963  29.024  11.052
62903W        W24192  19.112  16.242  14.966
62904W        W24193  11.160  20.533   2.706
62905W        W24194  32.526  22.195   3.186
62906W        W24195  31.441  34.983  11.041
62907W        W24196  35.103  43.977   0.319
62908W        W24197  30.566   6.276  12.533
62909W        W24198  32.116  15.619  11.600
62910W        W24199   4.255   5.905  12.071
62911W        W24200  12.782  42.410  11.864
62912W        W24201  16.726  38.423  11.498
62913W        W24202  24.638  33.566   0.890
62914W        W24203  14.263   1.403  14.008
62915W        W24204  40.527  42.944  14.479
62916W        W24205  44.414  32.078   0.462
62917W        W24206  11.780   8.886   2.178
62918W        W24207  42.905  22.127  12.383
62919W        W24208  21.588  27.108  11.954
62920W        W24209  13.689  19.619   0.351
62921W        W24210  30.589  43.309  14.496
62922W        W24211  14.656   2.759  14.834
62923W        W24212  24.208  37.374   1.810
62924W        W24213  17.672  37.366   1.432
62925W        W24214  20.158  29.076   2.680
62926W        W24215  26.064  36.422   2.344
62927W        W24216   3.266  35.396  13.005
62928W        W24217   7.327  36.456   1.929
62929W        W24218  17.563  25.196  12.968
62930W        W24219  36.416  34.388   1.825
62931W        W24220  23.664  25.631  14.930
62932W        W24221  17.172  13.723   2.691
62933W        W24222   0.348   3.937   4.323
62934W        W24223   6.703  44.826  13.906
62935W        W24224  37.505  33.625   3.270
62936W        W24225  41.806   2.345   2.862
62937W        W24226   3.734  11.251  14.875
62938W        W24227   0.895  15.090   4.819
62939W        W24228  12.328   9.325   1.831
62940W        W24229  39.330   8.289  11.862
62941W        W24230  24.183  32.005  14.311
62942W        W24231  31.139  33.550  13.059
62943W        W24232  38.384  30.143  14.424
62944W        W24233   3.884  24.546  13.045
62945W        W24234  39.970  38.405   0.868
62946W        W24235  25.611  36.587   0.842
62947W        W24236  32.433  23.679   1.739
62948W        W24237   4.358  19.247   2.796
62949W        W24238  30.571   1.956  11.003
62950W        W24239  38.011   5.716   3.383
62951W        W24240  34.922  25.617   1.831
62952W        W24241  17.109   0.283   1.846
62953W        W24242   9.703  44.912  11.540
62954W        W24243  42.827  15.746  13.481
62955W        W24244  16.210  34.924   2.206
62956W        W24245  16.610  13.826   0.828
62957W        W24246  42.806  19.623  11.084
62958W        W24247  11.867  16.292   2.804
62959W        W24248  28.977  34.588  10.487
62960W        W24249  41.501  30.058   0.449
62961W        W24250  32.022  37.400  10.466
62962W        W24251   0.483  30.002  11.007
62963W        W24252  29.944  44.808   4.609
62964W        W24253   4.231  31.899   4.245
62965W        W24254   4.263  43.765  10.596
62966W        W24255  13.654  17.200   4.771
62967W        W24256  27.094  16.281   4.796
62968W        W24257  30.020  18.594  13.423
62969W        W24258  11.697  29.051   4.341
62970W        W24259  34.388  17.650   3.191
62971W        W24260  37.387  18.173  12.444
62972W        W24261   8.317  18.666  10.915
62973W        W24262  19.556  11.691   3.729
62974W        W24263  22.513   8.336   2.762
62975W        W24264  35.014  41.996  12.424
62976W        W24265  13.119   4.334   3.194
62977W        W24266  42.008  43.986   4.709
62978W        W24267  35.585  33.961   0.741
62979W        W24268   2.962  14.801  13.529
62980W        W24269   5.762  33.058   4.811
62981W        W24270  33.579  16.617   4.125
62982W        W24271  24.117  34.542   2.735
62983W        W24272  25.097  33.570  13.972
62984W        W24273  14.266  24.075   0.316
62985W        W24274   1.301  23.986   1.842
62986W        W24275  43.002  14.799  14.787
62987W        W24276  30.049  40.901  14.841
62988W        W24277  34.929  15.255  11.126
62989W        W24278   0.380  11.667  11.453
62990W        W24279  19.629  11.729   3.262
62991W        W24280  25.489  33.481   2.335
62992W        W24281  39.428  41.298  12.470
62993W        W24282  19.150  18.294  11.895
62994W        W24283  25.669  29.076   3.164
62995W        W24284  44.499  21.096   0.387
62996W        W24285  17.205  10.854  14.885
62997W        W24286  25.199   2.320  14.466
62998W        W24287   3.789  27.680  12.950
62999W        W24288  21.122  38.059  11.552
63000W        W24289   5.371  10.801   4.157
63001W        W24290  41.837  17.626  13.912
63002W        W24291  29.623   5.321  14.365
63003W        W24292   5.913  37.019  12.986
63004W        W24293  40.039   9.679   4.344
63005W        W24294  30.934  25.973  11.068
63006W        W24295   4.830  34.913  12.417
63007W        W24296  36.421  26.107  14.925
63008W        W24297  33.905  21.541  10.625
63009W        W24298  30.964  32.551  12.022
63010W        W24299  10.742  29.978  14.354
63011W        W24300  28.962  12.643  10.898
63012W        W24301   8.894   3.909  10.578
63013W        W24302  20.164  28.436   4.639
63014W        W24303  40.810  33.889   1.343
63015W        W24304  39.403  38.930   0.398
63016W        W24305   2.254  15.156  12.494
63017W        W24306  30.591   5.345   3.660
63018W        W24307  20.768  25.644  14.802
63019W        W24308  28.656  31.001  14.919
63020W        W24309   5.299   4.891   0.430
63021W        W24310   0.842  39.524  11.388
63022W        W24311  29.946   3.400  12.510
63023W        W24312  12.293  14.781  13.519
63024W        W24313   1.918  39.379   4.732
63025W        W24314  20.079  20.742  10.417
63026W        W24315  37.835  37.059  11.878
63027W        W24316  20.124  22.163  12.942
63028W        W24317  24.482  32.546   3.718
63029W        W24318  29.157  19.218   0.283
63030W        W24319  33.613  20.742  10.605
63031W        W24320   7.388  10.724  12.049
63032W        W24321  43.004  11.812  11.597
63033W        W24322  10.325  14.729   2.713
63034W        W24323  18.219  39.959  13.979
63035W        W24324   2.349   9.185   2.810
63036W        W24325   2.965  25.079  13.815
63037W        W24326   0.365  32.065  14.308
63038W        W24327  32.560  35.888   0.431
63039W        W24328   9.298  43.772   3.371
63040W        W24329  12.810  18.073   0.862
63041W        W24330  29.972  37.036   0.822
63042W        W24331  25.648  28.651  13.359
63043W        W24332  16.217  29.979  12.956
63044W        W24333  24.174   8.820   0.925
63045W        W24334  31.508   9.152   1.749
63046W        W24335  17.075   1.816   9.936
63047W        W24336  10.348   9.656  13.987
63048W        W24337  42.026   0.260   0.909
63049W        W24338   7.808  33.972  10.528
63050W        W24339   9.319  37.015   2.822
63051W        W24340  30.058  17.104   0.450
63052W        W24341   9.348   1.429  12.559
63053W        W24342  21.566  33.483  10.477
63054W        W24343  37.053  43.297  10.467
63055W        W24344  34.462   0.450   1.331
63056W        W24345  24.112  20.068  13.338
63057W        W24346  33.601  38.368  14.023
63058W        W24347  43.338  30.556  14.938
63059W        W24348   4.888  20.577  11.053
63060W        W24349  28.588  15.124  11.010
63061W        W24350  40.353  40.326  13.413
63062W        W24351  28.073   8.398  14.916
63063W        W24352   1.966  23.547   1.764
63064W        W24353   7.339  36.367  12.548
63065W        W24354  26.086  37.383   4.224
63066W        W24355  30.982   0.856  10.915
63067W        W24356   4.928  41.807  12.037
63068W        W24357  25.218  16.213   3.799
63069W        W24358  15.098   8.660   1.229
63070W        W24359  37.988  15.089   3.853
63071W        W24360  17.649  39.383   0.299
63072W        W24361  38.872  43.900  11.401
63073W        W24362  44.275  35.442  13.853
63074W        W24363   4.418   9.275  14.006
63075W        W24364   6.267  18.261   5.230
63076W        W24365   3.776   2.387  12.360
63077W        W24366  22.609   0.813  12.852
63078W        W24367  19.780  37.888  11.865
63079W        W24368  30.082   0.917   1.741
63080W        W24369   1.350   1.871  14.987
63081W        W24370  37.579  12.611   0.338
63082W        W24371   2.929  38.343  10.893
63083W        W24372  42.443  12.676  11.895
63084W        W24373  17.558  34.866  14.762
63085W        W24374  30.039  19.624  14.961
63086W        W24375  10.231  39.844   2.790
63087W        W24376  37.886   9.820   3.194
63088W        W24377  33.434  22.072   2.378
63089W        W24378  21.691  38.459  13.929
63090W        W24379  34.991  27.462  10.409
63091W        W24380  41.422  11.781  11.024
63092W        W24381   3.805  38.334  12.387
63093W        W24382  24.151  18.070  11.025
63094W        W24383  29.566   2.760   1.921
63095W        W24384  28.134   3.902   2.181
63096W        W24385  25.034  12.669   3.354
63097W        W24386  23.023  33.079   4.617
63098W        W24387  25.176  10.190  11.028
63099W        W24388   3.825  39.997   3.356
63100W        W24389  43.805  22.142  11.901
63101W        W24390  36.908  22.696   1.400
63102W        W24391   3.421  11.843  10.545
63103W        W24392  18.188  35.908   1.222
63104W        W24393  10.672  29.457  14.893
63105W        W24394   6.237  31.140   1.695
63106W        W24395  19.178  29.463  11.469
63107W        W24396  42.861  33.004   3.198
63108W        W24397  32.004  38.885  12.342
63109W        W24398  22.078  25.595  14.963
63110W        W24399  29.977  12.620  12.874
63111W        W24400  22.185   9.352  14.363
63112W        W24401  15.756  34.029  11.486
63113W        W24402  37.522  39.850  12.862
63114W        W24403  16.174  19.162  10.531
63115W        W24404  20.255  41.941   1.905
63116W        W24405  28.001  43.774   4.639
63117W        W24406  37.379  15.239   9.958
63118W        W24407  31.505  40.950  14.333
63119W        W24408  28.622  40.308  13.366
63120W        W24409  20.172  39.528  10.907
63121W        W24410  14.150  14.763  12.883
63122W        W24411  34.487   2.400   3.302
63123W        W24412  37.938  31.944   1.293
63124W        W24413  44.482  28.459   4.119
63125W        W24414   7.179  36.545   4.347
63126W        W24415  35.597   4.765   4.833
63127W        W24416  37.491  33.569  12.891
63128W        W24417  16.743  10.671   4.771
63129W        W24418  24.021  24.715  12.846
63130W        W24419  42.323  19.771  11.885
63131W        W24420   3.900   1.289   0.845
63132W        W24421  16.674  11.778  13.062
63133W        W24422  35.058   1.897   2.823
63134W        W24423  30.515  21.586   4.333
63135W        W24424  20.654   5.196   0.454
63136W        W24425  43.485  40.832  11.887
63137W        W24426  13.201  41.496   1.870
63138W        W24427  15.635  13.209  11.478
63139W        W24428   6.843  18.744   1.699
63140W        W24429  42.805   3.857  13.517
63141W        W24430  16.225   5.867  10.604
63142W        W24431  40.417   3.353  11.394
63143W        W24432   1.947   9.353  13.472
63144W        W24433   1.475  32.107  14.366
63145W        W24434  20.102  43.335  11.472
63146W        W24435  34.414  25.087  13.023
63147W        W24436  18.725  22.528   1.359
63148W        W24437  42.845   0.293   3.221
63149W        W24438  13.246  37.979   1.390
63150W        W24439  19.126  44.763   4.266
63151W        W24440   4.904  35.084   2.690
63152W        W24441  28.648  19.587  14.891
63153W        W24442  29.941   1.454  10.535
63154W        W24443   7.190  39.989   2.784
63155W        W24444  11.727   5.201  10.959
63156W        W24445  12.686  25.590   3.720
63157W        W24446   4.897  10.149  12.081
63158W        W24447  29.126   2.858  10.094
63159W        W24448  26.620  19.620   2.222
63160W        W24449  36.848  35.373   1.318
63161W        W24450  38.543  19.078  11.088
63162W        W24451  35.868  39.335  11.477
63163W        W24452  12.233  38.473   2.213
63164W        W24453  25.710  37.027   0.929
63165W        W24454   3.309  38.331   1.263
63166W        W24455  37.531  33.096   4.121
63167W        W24456  40.814  19.123  12.833
63168W        W24457  10.318  13.248  12.505
63169W        W24458  11.704  42.941  10.468
63170W        W24459  37.079  21.147  13.039
63171W        W24460   5.318  41.951  13.322
63172W        W24461   7.891  31.993  14.994
63173W        W24462  23.088  16.698   2.832
63174W        W24463  15.766  15.615   3.848
63175W        W24464  38.374  43.997  11.420
63176W        W24465  33.094  43.278  10.464
63177W        W24466  31.077  44.909   2.817
63178W        W24467  15.108  29.021  12.055
63179W        W24468  36.589  39.506   0.828
63180W        W24469  27.465   5.858  14.892
63181W        W24470  10.285  11.782  13.953
63182W        W24471  44.810  27.614  11.990
63183W        W24472  40.413  41.374  10.160
63184W        W24473   7.886  40.808  12.565
63185W        W24474   5.826  28.966  12.056
63186W        W24475  11.190  32.462  12.937
63187W        W24476  33.395  31.601   0.782
63188W        W24477  38.394   5.383   2.380
63189W        W24478  24.487   4.392   4.680
63190W        W24479  30.988  31.436  13.992
63191W        W24480  36.348  21.627   0.811
63192W        W24481   7.365  33.907   3.741
63193W        W24482  32.020  13.177   2.777
63194W        W24483  26.085  24.543   3.715
63195W        W24484   5.870  39.547   0.821
63196W        W24485  26.669  25.111   2.897
63197W        W24486  11.695   8.772  10.644
63198W        W24487  35.538  44.337   2.811
63199W        W24488  13.144  22.067   5.647
63200W        W24489  30.524  19.623  13.911
63201W        W24490   4.310  11.660   0.330
63202W        W24491  14.290  23.985  11.557
63203W        W24492  34.550  43.840   1.715
63204W        W24493  21.594  37.849   2.236
63205W        W24494  22.538  14.138  14.934
63206W        W24495   7.195   8.285  11.945
63207W        W24496  25.021  36.995  12.021
63208W        W24497  32.394  28.091   3.676
63209W        W24498  17.628  11.823  10.556
63210W        W24499  44.410  29.087  11.383
63211W        W24500  39.827  35.007   2.305
63212W        W24501  17.717  35.384  10.635
63213W        W24502  26.992  33.024   4.288
63214W        W24503  27.606  38.456  13.926
63215W        W24504  34.456  42.410  11.936
63216W        W24505  14.656  31.439  14.908
63217W        W24506  20.670  44.885   4.679
63218W        W24507   1.891  16.131  12.897
63219W        W24508  41.486  43.927   0.881
63220W        W24509   9.325  25.987   3.273
63221W        W24510  25.481  27.019  14.852
63222W        W24511  42.811   6.850  12.046
63223W        W24512  39.870  43.886   2.768
63224W        W24513  29.664   6.339   2.687
63225W        W24514  37.015   2.853  14.967
63226W        W24515  39.412  26.956   1.730
63227W        W24516  11.142   2.849  14.383
63228W        W24517  26.198  31.151  14.972
63229W        W24518  36.852   1.267   0.814
63230W        W24519  20.137  12.700  13.368
63231W        W24520  12.139  27.464   0.314
63232W        W24521  28.519   4.329  11.476
63233W        W24522  43.936  14.285   0.395
63234W        W24523  42.017  34.608   4.633
63235W        W24524   4.943  34.064   3.345
63236W        W24525   5.240  24.016   3.855
63237W        W24526   7.817  35.362  12.971
63238W        W24527   3.772  43.331  11.951
63239W        W24528  16.225  41.389   4.763
63240W        W24529  38.446  33.397   1.761
63241W        W24530  22.549  12.791   2.357
63242W        W24531  18.683  34.979   1.319
63243W        W24532  41.406   8.888   3.308
63244W        W24533   3.426  13.110  12.555
63245W        W24534  19.235  41.376  14.844
63246W        W24535  37.520  17.241   2.288
63247W        W24536  23.534  37.395   0.800
63248W        W24537   2.771  36.566   4.138
63249W        W24538  28.081   5.366  13.796
63250W        W24539   0.349  24.124  13.494
63251W        W24540  14.659  20.047  10.035
63252W        W24541   9.166   5.791  12.354
63253W        W24542  41.410  32.073  10.074
63254W        W24543   0.916  36.468  14.277
63255W        W24544  17.137   0.456   4.222
63256W        W24545   3.839  35.051   1.309
63257W        W24546  16.101   9.261  11.934
63258W        W24547  38.946  10.869  14.296
63259W        W24548  43.270  41.365  14.416
63260W        W24549  20.582   5.731   3.264
63261W        W24550   2.901  43.791  12.952
63262W        W24551  14.126   0.371   5.269
63263W        W24552  19.263   5.807   3.838
63264W        W24553  10.232  12.784   4.636
63265W        W24554  23.536   3.834   1.834
63266W        W24555  24.082  13.117  13.969
63267W        W24556  32.590   0.970  10.573
63268W        W24557  12.338  34.444  14.944
63269W        W24558  21.719  28.964  14.475
63270W        W24559  24.543   1.383  11.033
63271W        W24560  18.692  44.762  13.433
63272W        W24561  29.073  42.954   1.882
63273W        W24562  14.790  35.573  13.462
63274W        W24563  15.141  29.523  11.543
63275W        W24564   8.704  10.184  10.932
63276W        W24565  44.756  18.605  13.979
63277W        W24566  16.172  37.078   1.382
63278W        W24567  17.564   9.746  12.461
63279W        W24568   0.461  39.019   2.834
63280W        W24569   8.168  32.009   1.929
63281W        W24570   0.979  44.317   4.177
63282W        W24571  14.156  16.293   3.768
63283W        W24572  14.615   1.944  10.626
63284W        W24573   1.471  42.338  14.914
63285W        W24574  38.351   5.232  13.310
63286W        W24575  24.115  30.129  10.623
63287W        W24576  37.881  22.242   3.770
63288W        W24577   9.770  23.124  13.949
63289W        W24578  19.236  24.718   0.775
63290W        W24579   7.729  42.383   2.689
63291W        W24580  34.119  11.714  11.507
63292W        W24581  18.620  12.765  10.113
63293W        W24582  25.142  14.672   3.753
63294W        W24583  43.876  25.646  10.442
63295W        W24584   1.753  18.285   0.800
63296W        W24585   4.335  32.483   4.151
63297W        W24586  42.011  17.702   0.809
63298W        W24587  25.650   1.260  13.938
63299W        W24588  35.110   5.696  10.480
63300W        W24589  11.831  34.882  13.311
63301W        W24590  32.071   1.391  13.889
63302W        W24591  32.933   0.449  11.537
63303W        W24592   5.850  35.011  13.815
63304W        W24593   3.888  34.614   0.339
63305W        W24594  38.439  30.088   1.368
63306W        W24595  12.753  21.256  10.150
63307W        W24596   6.223   0.422  14.786
63308W        W24597  14.303  20.566   3.674
63309W        W24598   4.818  12.202   2.818
63310W        W24599  37.456  13.727   0.321
63311W        W24600  44.462  21.730  13.823
63312W        W24601  26.107   2.454  12.954
63313W        W24602  16.089  31.581   3.364
63314W        W24603  38.357  35.007  12.073
63315W        W24604  28.126  34.082   3.831
63316W        W24605  37.838  35.968   3.649
63317W        W24606  42.020  12.680  10.135
63318W        W24607  18.611  13.170  11.437
63319W        W24608   2.270  36.896  13.011
63320W        W24609  19.267  35.922  13.853
63321W        W24610  11.650  19.226   0.428
63322W        W24611  24.003  38.849  14.791
63323W        W24612   8.322   1.323   2.233
63324W        W24613  12.226  32.637  12.414
63325W        W24614  11.813  25.653  11.522
63326W        W24615  41.367   3.383   0.316
63327W        W24616   4.744  20.270  10.416
63328W        W24617   2.726  24.094  13.466
63329W        W24618  33.059  38.556   0.393
63330W        W24619  13.218  24.573   4.612
63331W        W24620  11.261  39.017   0.453
63332W        W24621  43.983   1.731  13.356
63333W        W24622  38.880  12.274   1.839
63334W        W24623  33.990  16.105  13.465
63335W        W24624  20.259  34.467  13.008
63336W        W24625  21.573  17.801  13.983
63337W        W24626  22.100  20.647   3.646
63338W        W24627  43.294  23.540  13.870
63339W        W24628  30.649  23.547  11.574
63340W        W24629  41.453  40.963   3.262
63341W        W24630   0.763  40.546   0.738
63342W        W24631  42.954  27.047   1.350
63343W        W24632   5.213  16.648   0.384
63344W        W24633  24.169   3.310   4.199
63345W        W24634   6.740  23.538   0.466
63346W        W24635  44.414  39.482   2.777
63347W        W24636  21.524  22.118  14.996
63348W        W24637   7.310  11.346  14.327
63349W        W24638  44.980   8.845  13.822
63350W        W24639  21.023  20.648   3.362
63351W        W24640   4.418  28.059   5.122
63352W        W24641  37.927  28.453   3.318
63353W        W24642  27.069  27.110   1.353
63354W        W24643  10.749   2.770  12.038
63355W        W24644  34.397  39.413  11.896
63356W        W24645  30.920  23.990   1.782
63357W        W24646  28.013  11.633  14.391
63358W        W24647  41.959  12.856  12.450
63359W        W24648   0.349   4.917   2.181
63360W        W24649  24.718  35.956  10.577
63361W        W24650  43.387  34.929  13.021
63362W        W24651  40.997   1.453  14.494
63363W        W24652  41.924   9.298   3.706
63364W        W24653  37.511  40.455   2.379
63365W        W24654   6.335  19.602   4.615
63366W        W24655   0.318  32.066   0.884
63367W        W24656   3.863  11.202   1.244
63368W        W24657  24.724   5.790  14.786
63369W        W24658  21.679  23.190   2.809
63370W        W24659   3.457  11.727   0.415
63371W        W24660  16.260  13.729   3.218
63372W        W24661  26.672   3.415  10.405
63373W        W24662  41.802  37.067   3.338
63374W        W24663  17.752   0.475   4.139
63375W        W24664  16.127  10.871  11.093
63376W        W24665  44.788  29.056  11.965
63377W        W24666  23.497  23.116   4.749
63378W        W24667   5.789  29.610   4.811
63379W        W24668  15.303  36.351  11.978
63380W        W24669  14.618   2.298  14.802
63381W        W24670  25.213  38.337   2.675
63382W        W24671  19.565   4.897   4.753
63383W        W24672   2.448  12.773  11.933
63384W        W24673  28.461  25.976   3.182
63385W        W24674  30.983  20.756   0.773
63386W        W24675  12.629   8.811   3.850
63387W        W24676  14.785  33.973  12.046
63388W        W24677   3.429  25.189  14.862
63389W        W24678  41.804   5.783  12.567
63390W        W24679  26.590  19.180  10.950
63391W        W24680  21.031  32.054   0.308
63392W        W24681  21.216  14.801  11.421
63393W        W24682  21.254  30.116   0.852
63394W        W24683  33.948  18.066  10.960
63395W        W24684  38.051  41.039  14.280
63396W        W24685  12.265  30.055   1.764
63397W        W24686  37.960   0.846   2.831
63398W        W24687  41.339  43.288   0.298
63399W        W24688  16.663  18.079   2.885
63400W        W24689  28.603   2.250  10.443
63401W        W24690  21.077  25.631  12.012
63402W        W24691   3.400  33.385  12.069
63403W        W24692  40.001  14.299  12.853
63404W        W24693  15.107   5.405   1.405
63405W        W24694  19.537  15.675  11.581
63406W        W24695  34.468  33.901  13.872
63407W        W24696   8.324  30.925   3.789
63408W        W24697  17.739  27.985  13.335
63409W        W24698  31.980  34.368  10.143
63410W        W24699  32.123   2.960  11.516
63411W        W24700  44.324  14.775   0.842
63412W        W24701  24.663  13.654  12.952
63413W        W24702   7.305  40.989   1.786
63414W        W24703  17.560  37.396   0.921
63415W        W24704  25.601  19.112   4.775
63416W        W24705  22.238  38.451  12.459
63417W        W24706  34.914  17.643  12.940
63418W        W24707  32.516  33.001   4.817
63419W        W24708  41.527   3.359  13.426
63420W        W24709  44.382  33.875   1.431
63421W        W24710  26.135  29.448  10.489
63422W        W24711  28.681  32.071  10.988
63423W        W24712  44.813  43.969   1.212
63424W        W24713  10.668  39.468  11.027
63425W        W24714  30.419   6.285  11.881
63426W        W24715  24.999   9.256  10.063
63427W        W24716  39.328  16.204  12.054
63428W        W24717   7.332  13.229   4.316
63429W        W24718  26.571  16.629  11.405
63430W        W24719  30.031  14.622   3.661
63431W        W24720  32.505   7.816  13.828
63432W        W24721  42.329  31.414  11.527
63433W        W24722  19.620   3.736  14.401
63434W        W24723   1.435  39.866   3.381
63435W        W24724  44.761  19.132   2.714
63436W        W24725   7.762  29.068  10.126
63437W        W24726  22.046  27.508  10.513
63438W        W24727  34.969  10.703  12.064
63439W        W24728  23.650  11.651   4.285
63440W        W24729  22.746  21.558  10.046
63441W        W24730  43.016  33.111  12.009
63442W        W24731  42.026  30.533  14.313
63443W        W24732  18.596   3.301   5.136
63444W        W24733  15.089  35.095  11.936
63445W        W24734   4.796   3.262   0.376
63446W        W24735  44.900  14.127   1.780
63447W        W24736  16.267  31.493  12.029
63448W        W24737  28.536  43.957  11.528
63449W        W24738   7.241  15.720  13.895
63450W        W24739   7.754  20.097  12.425
63451W        W24740   4.227  25.128  13.356
63452W        W24741  42.793  42.306  12.058
63453W        W24742  18.583   1.971   5.250
63454W        W24743   8.187  17.691   0.401
63455W        W24744   9.794  43.495  13.838
63456W        W24745  37.355  10.160   4.137
63457W        W24746  41.891  23.225   2.282
63458W        W24747  36.888   9.746   0.268
63459W        W24748  22.746   6.845   2.705
63460W        W24749   6.418   3.292  13.349
63461W        W24750  39.042  32.484  12.948
63462W        W24751  40.447   0.455  14.429
63463W        W24752  22.138  35.379   4.682
63464W        W24753  11.188  44.920  10.103
63465W        W24754  17.676   3.237   3.860
63466W        W24755   5.908   7.787   3.682
63467W        W24756   3.826  21.561   0.930
63468W        W24757  24.591  28.168   0.830
63469W        W24758  44.472  21.070   4.240
63470W        W24759  26.600  25.069  14.317
63471W        W24760   9.287  44.297   0.245
63472W        W24761  31.938  11.674  12.881
63473W        W24762   2.447  28.942  14.993
63474W        W24763   7.173   6.721   4.777
63475W        W24764  15.199  18.185   1.822
63476W        W24765  32.570  34.919   3.730
63477W        W24766  38.537  44.395   3.661
63478W        W24767   3.895   3.721  14.500
63479W        W24768   8.373  25.200   2.752
63480W        W24769  35.579   5.830   1.898
63481W        W24770   4.886  43.386  13.810
63482W        W24771   2.872  22.119  13.340
63483W        W24772  13.744  22.016  10.988
63484W        W24773   7.207  26.465  10.526
63485W        W24774  42.502   7.839   4.287
63486W        W24775  20.156  23.155  13.058
63487W        W24776  10.185  38.333   1.445
63488W        W24777  37.041   8.250  10.434
63489W        W24778  26.049  38.918  10.537
63490W        W24779  44.851  20.032   1.308
63491W        W24780  32.556  23.173   4.336
63492W        W24781  11.733  29.084   1.917
63493W        W24782  13.147   3.412   1.337
63494W        W24783  33.934  18.692   4.675
63495W        W24784  18.135   4.737  11.463
63496W        W24785  34.437  37.866  13.427
63497W        W24786  18.075  40.495   0.436
63498W        W24787  36.564  24.008  10.907
63499W        W24788  17.673  30.972  14.357
63500W        W24789  17.602  30.963   0.467
63501W        W24790   0.953  31.413   3.275
63502W        W24791   2.433  15.688   4.319
63503W        W24792  29.594  42.391   0.812
63504W        W24793  16.310  18.145  11.100
63505W        W24794   6.923  21.259  14.445
63506W        W24795   2.398  41.915   3.378
63507W        W24796   4.698  34.523  13.316
63508W        W24797  14.212   9.853  12.970
63509W        W24798  17.707  43.835   3.183
63510W        W24799   3.461   3.395  12.879
63511W        W24800   6.889  33.079  14.802
63512W        W24801   8.818   9.843  12.405
63513W        W24802  30.016  39.404  12.494
63514W        W24803  32.964   8.769   0.851
63515W        W24804  32.612  10.690  12.025
63516W        W24805  20.153   2.294  13.954
63517W        W24806  30.464  31.522   0.796
63518W        W24807  33.605  33.402  11.974
63519W        W24808  12.700  40.961  13.448
63520W        W24809  38.530  23.196  10.907
63521W        W24810  24.157  32.568   2.407
63522W        W24811  13.613  36.982  14.442
63523W        W24812  24.983  37.373   0.457
63524W        W24813  44.967  30.610  12.467
63525W        W24814  16.231  44.821  10.633
63526W        W24815   6.821  16.797   2.734
63527W        W24816  33.432  11.795   5.157
63528W        W24817   8.753  29.011   1.876
63529W        W24818  10.647  19.697   0.777
63530W        W24819  10.663  41.473   3.762
63531W        W24820  23.059  22.702   5.665
63532W        W24821   7.754  18.141  12.945
63533W        W24822   4.233  23.200  11.093
63534W        W24823  42.921  18.779  11.921
63535W        W24824  12.795  35.081  10.622
63536W        W24825  25.164   9.871  12.375
63537W        W24826  23.205  34.519   2.830
63538W        W24827  34.447  44.794  11.434
63539W        W24828  30.643  44.381   1.857
63540W        W24829  24.486  36.083   3.297
63541W        W24830  16.684  13.282   3.640
63542W        W24831  43.492   5.403  13.307
63543W        W24832  21.546  27.156  13.543
63544W        W24833  13.113  18.271   1.876
63545W        W24834  25.577  20.533   4.174
63546W        W24835  28.044  38.890  11.389
63547W        W24836  14.272   7.304   1.935
63548W        W24837  35.009   0.456   3.739
63549W        W24838  14.620  23.999  13.891
63550W        W24839   9.197  43.915   4.174
63551W        W24840  31.017  24.997  10.539
63552W        W24841  35.062   3.439  10.526
63553W        W24842  27.954  29.432  14.422
63554W        W24843  14.221  30.583  12.999
63555W        W24844  31.145   2.783  13.034
63556W        W24845   3.442  40.921  12.362
63557W        W24846  37.847  30.486  11.034
63558W        W24847  12.213  10.296   0.428
63559W        W24848   0.452   9.707  14.815
63560W        W24849  17.673  29.494  10.528
63561W        W24850  27.686   6.212   4.154
63562W        W24851  17.092  31.489  11.463
63563W        W24852   2.273  15.817   1.852
63564W        W24853   7.275   7.745  14.965
63565W        W24854   0.393  12.829  14.431
63566W        W24855  31.138  25.015  12.932
63567W        W24856  23.504   8.657   0.759
63568W        W24857  22.554  28.631   1.321
63569W        W24858  44.884  11.328   4.123
63570W        W24859  23.072  42.884  11.114
63571W        W24860  25.604   9.779  11.568
63572W        W24861  14.713   3.417  13.415
63573W        W24862  42.353  44.502  13.359
63574W        W24863  23.231  38.364  14.464
63575W        W24864  19.610   6.864  10.929
63576W        W24865   5.720  26.979   3.340
63577W        W24866  28.087  23.036   1.401
63578W        W24867  28.509  35.405  11.571
63579W        W24868  17.071  10.726  12.567
63580W        W24869  43.459  13.248  11.881
63581W        W24870   9.175  43.908  11.591
63582W        W24871   2.933  29.427   2.758
63583W        W24872  37.422  28.124  13.866
63584W        W24873  38.866  29.446   4.676
63585W        W24874  27.629  30.566  14.358
63586W        W24875   6.266  32.886   2.186
63587W        W24876  29.153  39.057   2.768
63588W        W24877  20.240   3.356   0.910
63589W        W24878  29.666  17.563  12.959
63590W        W24879  20.139   9.388  13.315
63591W        W24880  35.560   3.364   5.125
63592W        W24881  21.704   9.830  12.918
63593W        W24882  40.035  26.995   0.476
63594W        W24883   9.245  33.094  11.471
63595W        W24884   1.262  35.571  12.359
63596W        W24885   4.828  36.397   3.684
63597W        W24886  39.988  30.110   0.273
63598W        W24887  26.187  19.655   3.373
63599W        W24888  35.476  24.693  11.455
63600W        W24889   2.437  16.653  13.966
63601W        W24890  34.526  17.584   4.200
63602W        W24891  44.904  23.017   1.762
63603W        W24892   6.206   1.969  12.543
63604W        W24893  44.757   7.908   0.431
63605W        W24894  36.531  43.979  10.551
63606W        W24895   0.488  29.142  11.488
63607W        W24896  12.281   6.367  12.400
63608W        W24897  28.963  16.740  11.052
63609W        W24898  22.104  29.159   4.228
63610W        W24899  21.158   7.778   3.240
63611W        W24900  38.543  38.566   1.281
63612W        W24901  18.729   0.965  10.562
63613W        W24902  41.954  23.600   1.712
63614W        W24903  19.226  35.966  12.995
63615W        W24904  43.857  38.889  12.933
63616W        W24905  39.487  36.498  11.609
63617W        W24906  37.850  35.027  13.492
63618W        W24907  21.260  41.991   0.762
63619W        W24908   3.405   9.837  13.056
63620W        W24909  39.023  17.686   3.222
63621W        W24910  14.785  31.939   1.750
63622W        W24911  28.670  44.835  14.512
63623W        W24912  16.153   3.790   2.249
63624W        W24913  34.525  27.048  14.917
63625W        W24914  28.640  33.506   4.733
63626W        W24915   6.868  14.270   0.785
63627W        W24916   4.792  44.896   3.150
63628W        W24917  26.540  18.206  10.120
63629W        W24918  33.450  12.690  14.360
63630W        W24919   3.734  36.085  12.530
63631W        W24920  27.164   5.280   0.775
63632W        W24921  27.088  40.951   3.386
63633W        W24922  31.627  13.342  10.485
63634W        W24923   3.891  35.472   0.746
63635W        W24924  33.522  28.538  13.931
63636W        W24925  23.525  14.169   3.160
63637W        W24926  36.479  17.727  10.453
63638W        W24927  44.468  12.216  13.861
63639W        W24928  30.455  10.278  12.065
63640W        W24929  19.616  12.712   0.360
63641W        W24930  16.298   2.801   4.115
63642W        W24931   2.405   9.200   0.814
63643W        W24932  31.488  26.144  10.487
63644W        W24933  39.376  24.630  12.855
63645W        W24934  12.715   5.269   3.699
63646W        W24935  14.722   8.403   4.759
63647W        W24936   3.310   1.935   1.929
63648W        W24937  14.156  33.934   4.261
63649W        W24938  12.823  14.627   4.669
63650W        W24939  30.527  35.572   3.229
63651W        W24940  17.069  29.050  14.854
63652W        W24941   1.880   6.862   2.217
63653W        W24942  32.611   0.482   1.221
63654W        W24943  23.056  32.525   1.436
63655W        W24944  18.225  11.294  13.039
63656W        W24945  22.163  41.337  13.027
63657W        W24946  25.117   5.732   0.948
63658W        W24947  42.794  33.104   4.751
63659W        W24948  28.560  12.332  14.995
63660W        W24949  21.573   4.259  12.983
63661W        W24950  32.586   9.394  10.984
63662W        W24951  25.962  22.118  14.018
63663W        W24952   7.805  31.139  10.428
63664W        W24953  21.720  14.129  11.910
63665W        W24954  23.140  28.462   0.338
63666W        W24955  21.052  41.936  11.504
63667W        W24956  33.079  35.892   2.410
63668W        W24957  11.630   1.880  12.009
63669W        W24958   7.778  34.446  12.953
63670W        W24959  43.431  41.347   5.305
63671W        W24960  35.378   9.658  10.449
63672W        W24961   3.335   6.382   0.398
63673W        W24962  40.911  35.404  12.383
63674W        W24963  13.340  17.153  14.947
63675W        W24964  12.638   6.241   0.925
63676W        W24965  14.654  30.445  10.509
63677W        W24966   1.797  26.082   0.949
63678W        W24967   3.231   6.822  13.337
63679W        W24968  32.420  15.226  14.388
63680W        W24969  31.026   9.793  14.808
63681W        W24970  38.938  26.608   2.215
63682W        W24971  17.194   6.810   4.625
63683W        W24972  27.498   5.387  11.936
63684W        W24973  13.659   0.339   5.745
63685W        W24974   4.234   3.427   0.900
63686W        W24975  20.108  39.436  14.804
63687W        W24976  12.284  11.250  11.114
63688W        W24977  12.714   8.677   3.201
63689W        W24978  22.589   9.848   0.313
63690W        W24979  16.812  43.907   3.217
63691W        W24980  16.641  18.637  12.350
63692W        W24981  30.549  38.873   0.856
63693W        W24982  26.029  10.382   0.311
63694W        W24983   9.305   9.742  14.900
63695W        W24984  31.912  31.589   4.304
63696W        W24985  24.635  32.076  11.002
63697W        W24986  43.377  32.107   2.682
63698W        W24987   7.224   3.917   4.132
63699W        W24988  38.432  37.003  12.441
63700W        W24989  29.036   6.243   1.294
63701W        W24990  32.046  32.964  12.044
63702W        W24991  21.142  21.233   3.765
63703W        W24992  30.960  29.018   2.222
63704W        W24993   3.759  44.994   0.342
63705W        W24994  22.105  44.304   1.446
63706W        W24995  36.391   8.324  10.982
63707W        W24996  35.501  14.622  14.887
63708W        W24997  28.080  22.743   3.294
63709W        W24998  28.989  22.238  14.348
63710W        W24999  41.937  31.109   1.342
63711W        W25000  38.054  12.270  10.643
63712W        W25001   2.921  37.835   2.379
63713W        W25002  23.172  36.540   2.780
63714W        W25003  43.345  42.330  13.964
63715W        W25004  19.055  28.667  13.484
63716W        W25005  31.037  14.737   3.723
63717W        W25006  37.484   1.428   4.751
63718W        W25007  12.789   8.683  10.917
63719W        W25008  28.956  34.419   0.357
63720W        W25009  11.165  39.456  13.342
63721W        W25010  15.725  34.444   4.613
63722W        W25011  20.578  33.123   1.732
63723W        W25012  22.653   1.931  10.636
63724W        W25013  40.399   9.741  11.118
63725W        W25014  33.068  14.683   2.726
63726W        W25015  42.913  23.589  13.046
63727W        W25016   9.694  29.470  11.882
63728W        W25017  10.366  39.938  14.430
63729W        W25018  10.875   3.889   0.849
63730W        W25019   0.425  33.924   0.782
63731W        W25020  35.548  12.333   1.255
63732W        W25021  20.698  20.534  14.771
63733W        W25022  25.541  23.582  11.607
63734W        W25023   8.345  15.118  13.984
63735W        W25024  12.313   7.868  10.920
63736W        W25025  21.673  30.522  12.850
63737W        W25026  38.910  24.524  14.974
63738W        W25027  14.621  35.957   2.818
63739W        W25028   4.424  43.501   2.661
63740W        W25029  32.132   6.338  11.462
63741W        W25030   2.394  34.089  12.916
63742W        W25031  43.774  13.755   1.731
63743W        W25032   9.720  41.795   0.885
63744W        W25033  14.768  13.174  10.543
63745W        W25034   9.294   9.149  10.893
63746W        W25035   0.916  15.797   5.279
63747W        W25036  34.877   1.849   1.307
63748W        W25037  30.111  11.708   2.373
63749W        W25038  13.330  15.723   1.266
63750W        W25039  34.067  17.589   4.636
63751W        W25040  44.369  18.218   1.246
63752W        W25041  26.569  38.426  13.020
63753W        W25042  25.970  37.889   2.273
63754W        W25043  33.058  14.194  13.399
63755W        W25044   3.865  38.004   4.735
63756W        W25045  21.260   6.370  14.927
63757W        W25046  31.428  43.447  11.074
63758W        W25047  19.656  37.581  11.078
63759W        W25048   5.261   6.906   3.661
63760W        W25049   3.868  38.450   3.171
63761W        W25050  22.665   5.800   3.209
63762W        W25051  23.597  13.153   2.836
63763W        W25052  38.553  39.041  10.909
63764W        W25053   7.773  22.017   0.250
63765W        W25054  23.093   3.750  10.598
63766W        W25055  32.539   0.309  10.544
63767W        W25056  20.582  41.321   0.350
63768W        W25057  43.797   3.859  12.070
63769W        W25058  40.009   1.900  11.119
63770W        W25059  33.013  29.957  12.979
63771W        W25060  38.410   9.723   2.768
63772W        W25061  33.896  21.044  14.894
63773W        W25062  44.828  30.645   3.276
63774W        W25063  14.168  41.846  12.910
63775W        W25064  21.559  20.573  13.834
63776W        W25065  12.265  13.148   0.266
63777W        W25066  19.085   7.278  11.386
63778W        W25067  10.310  26.486   1.388
63779W        W25068  23.118   5.930   2.841
63780W        W25069  15.744  23.630   1.444
63781W        W25070  28.660  44.436  14.954
63782W        W25071  32.939  42.291   1.903
63783W        W25072  28.446  35.097   1.325
63784W        W25073   8.192  41.414  14.862
63785W        W25074  14.340  13.747   3.167
63786W        W25075  41.006   6.752  10.993
63787W        W25076  13.108  29.130  10.957
63788W        W25077  22.066  38.467  11.546
63789W        W25078  23.560  36.990   2.201
63790W        W25079  10.840  10.274   3.297
63791W        W25080  10.872   4.910  11.380
63792W        W25081   2.327  17.607   4.167
63793W        W25082   9.704  11.366  10.508
63794W        W25083  13.691  38.976   1.333
63795W        W25084  26.145  16.639   1.854
63796W        W25085   4.234  38.057   1.260
63797W        W25086  36.357  28.074   9.924
63798W        W25087  24.655   4.440   1.933
63799W        W25088  26.196  38.523  13.860
63800W        W25089  36.043  24.188  14.349
63801W        W25090  39.809  42.997   4.162
63802W        W25091   1.835  13.280   4.326
63803W        W25092  32.960  42.949   1.888
63804W        W25093  30.493  32.042   1.298
63805W        W25094  33.616  37.049  12.053
63806W        W25095   3.713  34.912   4.299
63807W        W25096  32.021  27.495   1.878
63808W        W25097  19.042  35.485  14.276
63809W        W25098  26.995  41.936   2.367
63810W        W25099  40.394   5.726   4.308
63811W        W25100  31.648  16.780  11.001
63812W        W25101  11.197  12.241   4.116
63813W        W25102   8.673  40.377   5.151
63814W        W25103  26.615  42.808  12.940
63815W        W25104   2.456  25.125   2.411
63816W        W25105  10.354  38.560   4.669
63817W        W25106  16.627   8.205   1.888
63818W        W25107   5.931  21.550   4.215
63819W        W25108  12.684  12.783   3.726
63820W        W25109   2.913   1.236   2.190
63821W        W25110  18.161  28.071   3.239
63822W        W25111   6.278   2.942  13.006
63823W        W25112  14.142  42.389   1.753
63824W        W25113  10.851  34.420   0.265
63825W        W25114  18.624  18.669  14.315
63826W        W25115  28.166  17.634   2.891
63827W        W25116  37.921  35.060   3.693
63828W        W25117   9.885  44.261  10.980
63829W        W25118  39.883  33.437  13.918
63830W        W25119  35.543  37.838  12.026
63831W        W25120  30.105  22.665   2.275
63832W        W25121  36.534  27.986   4.777
63833W        W25122   1.972  22.142  13.459
63834W        W25123  15.824  18.701   4.829
63835W        W25124  22.665   7.802  14.765
63836W        W25125  13.834  13.827  14.945
63837W        W25126   2.283  28.569   1.932
63838W        W25127  18.271   2.767   2.281
63839W        W25128  30.994  16.641  10.609
63840W        W25129  10.318   4.437   4.737
63841W        W25130  12.345  28.039   4.169
63842W        W25131   9.304  26.462  13.391
63843W        W25132  31.918  38.884  12.969
63844W        W25133  34.518  17.695   0.293
63845W        W25134   2.837  41.363  12.976
63846W        W25135  41.802   5.705   2.754
63847W        W25136  34.988  22.202   4.771
63848W        W25137  39.469  28.959  10.546
63849W        W25138  26.158  30.477   3.261
63850W        W25139   3.433   9.867   2.379
63851W        W25140   7.695  26.186   0.312
63852W        W25141  33.993  33.063  11.098
63853W        W25142  33.916   2.942   0.305
63854W        W25143   3.405  40.955  11.562
63855W        W25144   7.687   7.215   1.414
63856W        W25145   3.249  29.088  10.953
63857W        W25146  41.409  27.494  13.841
63858W        W25147  33.942  35.371   3.632
63859W        W25148  21.039   7.812   2.887
63860W        W25149  20.583  20.212   4.317
63861W        W25150  26.608  30.421  14.331
63862W        W25151  28.120  28.983   3.763
63863W        W25152  26.473  27.136  10.562
63864W        W25153  10.840  13.236  11.129
63865W        W25154  35.902  14.323   4.322
63866W        W25155  33.910  29.055  10.465
63867W        W25156  35.554   0.330  14.454
63868W        W25157  17.774  41.909   4.294
63869W        W25158   9.159   6.406   1.383
63870W        W25159   6.699  29.652  10.599
63871W        W25160  13.225  10.819   3.755
63872W        W25161  28.511  19.710   0.259
63873W        W25162  15.712  20.533  11.925
63874W        W25163   1.322   5.752   4.297
63875W        W25164   6.359  39.320   1.400
63876W        W25165  29.008  27.559   1.210
63877W        W25166  36.550  17.276   2.291
63878W        W25167  16.669  33.932  11.032
63879W        W25168   5.924  22.729   2.858
63880W        W25169  13.692  33.390   0.937
63881W        W25170  36.537  33.579  13.498
63882W        W25171  37.918  18.160   3.344
63883W        W25172  13.620  38.955  14.862
63884W        W25173   6.825  39.931  13.869
63885W        W25174  32.073  30.125  13.913
63886W        W25175   1.466  36.368  10.963
63887W        W25176  35.575   5.402   0.391
63888W        W25177  39.980  15.189   1.918
63889W        W25178   0.354  39.323   0.757
63890W        W25179  40.395  42.468   4.602
63891W        W25180  42.332  13.327   1.445
63892W        W25181  41.444  24.981   0.890
63893W        W25182  17.081  43.411   0.744
63894W        W25183   4.396  21.117  11.045
63895W        W25184  42.812   5.341  10.630
63896W        W25185  13.168  15.617  14.304
63897W        W25186  29.080   5.873   3.265
63898W        W25187  39.453  34.953   3.209
63899W        W25188  33.536  14.125  10.466
63900W        W25189  17.613  26.091  10.480
63901W        W25190  18.203  32.070   0.275
63902W        W25191  36.072   3.736   2.211
63903W        W25192  30.122  27.126   3.190
63904W        W25193  39.404   1.967   0.774
63905W        W25194  19.608   3.933  11.480
63906W        W25195  29.510  27.565  11.129
63907W        W25196  22.093  26.169   2.885
63908W        W25197  27.137  10.671   9.958
63909W        W25198   3.813  25.004   1.730
63910W        W25199  41.374  12.210  11.052
63911W        W25200  21.693  38.543   2.414
63912W        W25201  42.439   2.782   4.669
63913W        W25202  12.796  44.376   4.137
63914W        W25203  25.980  26.175  13.328
63915W        W25204  10.160  13.828   0.951
63916W        W25205   7.851  44.912   4.147
63917W        W25206  30.652  35.062  14.015
63918W        W25207  26.645  18.680  14.802
63919W        W25208  40.464  31.597  14.381
63920W        W25209  15.607  43.313   0.894
63921W        W25210  21.046  13.137  14.320
63922W        W25211  12.356  35.514  14.960
63923W        W25212  40.908  31.602   4.185
63924W        W25213  32.911   6.822   0.857
63925W        W25214   2.831  16.123  13.035
63926W        W25215  25.507   6.856  11.609
63927W        W25216   4.314  13.342   1.414
63928W        W25217  28.979  12.670   1.758
63929W        W25218  10.317  37.402   3.683
63930W        W25219  31.934  30.155   1.805
63931W        W25220  34.102   3.391   0.921
63932W        W25221  23.644  18.647  14.844
63933W        W25222  10.848   9.320  12.073
63934W        W25223  34.493  13.176  12.065
63935W        W25224  15.646  27.027  11.946
63936W        W25225  21.642  23.074  12.440
63937W        W25226  33.059  26.136   0.809
63938W        W25227  32.632  18.150   1.932
63939W        W25228  11.868  39.811   1.911
63940W        W25229  35.022  18.570   4.679
63941W        W25230  36.873  25.063   2.866
63942W        W25231  21.607   1.354  14.840
63943W        W25232  16.236  35.045  10.531
63944W        W25233   2.773  19.612  13.900
63945W        W25234  12.140  36.523  11.079
63946W        W25235   1.305   7.378   9.922
63947W        W25236   6.713  39.523   4.250
63948W        W25237  21.552  41.386  11.102
63949W        W25238  23.529   6.709   1.338
63950W        W25239  14.796  20.606   2.206
63951W        W25240  36.950  10.745   0.347
63952W        W25241  12.688  11.318  10.965
63953W        W25242   8.308   1.250  10.998
63954W        W25243   5.432  33.523   3.642
63955W        W25244   4.335  31.426  11.501
63956W        W25245  23.587   4.363  13.048
63957W        W25246  10.766  33.415  10.410
63958W        W25247  35.410  24.088  10.543
63959W        W25248  18.670  36.065   1.703
63960W        W25249  16.274  23.717  13.933
63961W        W25250  29.145  38.990   4.637
63962W        W25251  21.241  11.186  14.284
63963W        W25252  37.555  30.420   0.380
63964W        W25253  41.005  33.447   1.405
63965W        W25254  39.494   5.318   2.836
63966W        W25255  13.624  18.670   4.160
63967W        W25256  18.086   5.292  11.382
63968W        W25257   0.753  16.587  11.048
63969W        W25258  39.382  25.619  12.465
63970W        W25259   3.423   6.921   2.749
63971W        W25260   5.386  25.972   2.732
63972W        W25261  17.248  16.611  13.051
63973W        W25262  14.763  29.591  11.371
63974W        W25263  23.703   7.292  13.402
63975W        W25264   3.396  30.093   0.355
63976W        W25265  38.004   1.412  13.334
63977W        W25266  40.349  29.008  12.054
63978W        W25267  40.843  11.762  12.549
63979W        W25268   3.852  17.577  14.988
63980W        W25269   1.296  21.516  11.947
63981W        W25270  11.814  36.901   5.320
63982W        W25271   9.351  41.010  12.452
63983W        W25272  44.345  11.218  13.332
63984W        W25273  41.942  30.995   0.451
63985W        W25274   4.283  24.014  10.098
63986W        W25275  40.425  38.491   0.731
63987W        W25276  28.107  40.957  12.394
63988W        W25277  40.490  28.082  13.354
63989W        W25278  18.078   2.236   0.913
63990W        W25279   2.289  37.049   4.648
63991W        W25280  36.370  27.076  12.899
63992W        W25281  33.588  31.021   1.708
63993W        W25282   4.914  10.365   4.267
63994W        W25283  34.967  15.724   9.939
63995W        W25284   6.842  16.292  10.608
63996W        W25285  40.009  36.865  14.930
63997W        W25286  33.061   7.391  14.768
63998W        W25287  22.082  30.644   4.320
63999W        W25288  28.038  36.018   0.942
64000W        W25289   1.355  13.275   3.719
64001W        W25290  24.666  18.205  12.457
64002W        W25291  28.450  11.668   0.931
64003W        W25292  15.716  27.105   1.818
64004W        W25293   0.370  24.118  12.856
64005W        W25294  30.063  36.052   0.821
64006W        W25295  30.435  42.979   0.346
64007W        W25296  27.976  15.665  14.333
64008W        W25297  23.661  32.134   1.806
64009W        W25298  30.043  39.353  11.424
64010W        W25299  30.422  37.539   4.124
64011W        W25300  36.402   0.392   4.342
64012W        W25301  36.098  28.999   1.726
64013W        W25302  40.886  41.363  11.070
64014W        W25303   5.239  26.033  10.969
64015W        W25304  25.216  14.157   2.774
64016W        W25305  11.686  30.474  11.962
64017W        W25306  25.499  12.752  11.999
64018W        W25307  22.139   6.189  13.320
64019W        W25308  22.018  24.532   9.510
64020W        W25309  33.580   3.763   0.438
64021W        W25310  40.376  24.102   0.411
64022W        W25311  16.677  44.454  11.378
64023W        W25312  22.653   0.923  14.441
64024W        W25313  38.930  16.666   4.296
64025W        W25314  40.867   6.293  10.901
64026W        W25315   6.789  42.845   3.281
64027W        W25316  16.785  23.089  10.418
64028W        W25317  43.455   2.448  13.313
64029W        W25318  32.552   4.911   0.476
64030W        W25319  34.417  24.606   0.451
64031W        W25320  34.944  22.650   4.210
64032W        W25321  43.414   4.823   3.835
64033W        W25322  37.050  23.129   4.638
64034W        W25323  44.479  17.578  12.833
64035W        W25324  25.707  30.507   5.256
64036W        W25325  34.430  40.820  13.478
64037W        W25326  30.993  40.390   4.268
64038W        W25327  18.651  24.539   0.727
64039W        W25328  25.103  36.462   3.865
64040W        W25329   6.269   0.843   3.310
64041W        W25330  24.095  43.890   2.266
64042W        W25331  16.805   7.778  12.015
64043W        W25332  31.534  32.081   1.834
64044W        W25333  17.693  36.992   5.690
64045W        W25334  42.373  12.244  14.836
64046W        W25335   6.322  41.893  12.433
64047W        W25336  36.393  18.743   3.689
64048W        W25337  18.725  21.261  10.617
64049W        W25338  30.968  36.479   0.888
64050W        W25339  39.997  33.979   3.326
64051W        W25340  40.314  20.185   0.797
64052W        W25341  22.598  16.161   4.127
64053W        W25342  38.004  22.202  14.373
64054W        W25343  38.908  18.148  10.990
64055W        W25344  31.126  10.766  12.096
64056W        W25345  24.566  31.994  14.426
64057W        W25346  38.409   8.803   1.421
64058W        W25347  41.919  40.894  12.864
64059W        W25348  33.090   0.357  12.521
64060W        W25349  36.414  42.943  13.494
64061W        W25350  20.157   7.396   1.781
64062W        W25351   2.811  37.934  13.850
64063W        W25352  16.654  40.403   2.812
64064W        W25353   7.246  36.564   2.186
64065W        W25354  38.937  41.971  11.127
64066W        W25355  43.870  43.005   4.153
64067W        W25356  17.626  12.775  12.081
64068W        W25357  32.138  41.344  12.369
64069W        W25358   6.685   6.710  11.523
64070W        W25359  36.903  42.337   1.449
64071W        W25360   8.229   9.190   4.768
64072W        W25361  33.397  26.140   2.759
64073W        W25362  26.630  19.546   1.774
64074W        W25363  35.948  12.199  13.451
64075W        W25364  17.659  38.866  11.016
64076W        W25365  21.253  21.548  13.941
64077W        W25366   3.830  11.757   2.758
64078W        W25367  35.364  21.052   3.756
64079W        W25368  43.859  31.094   2.859
64080W        W25369  19.680  14.661  12.477
64081W        W25370  17.126   2.259   1.353
64082W        W25371  34.497   3.273   0.755
64083W        W25372  24.561  41.899   3.274
64084W        W25373  19.539  21.663  11.610
64085W        W25374  11.357   3.378   2.728
64086W        W25375  18.568  39.859  12.083
64087W        W25376  19.648   0.787   5.247
64088W        W25377  29.479  15.672   3.237
64089W        W25378  44.343  38.836   1.713
64090W        W25379  11.665  28.955   3.323
64091W        W25380   1.752   5.820   1.358
64092W        W25381  36.447  17.782   4.640
64093W        W25382  24.576  32.932   2.237
64094W        W25383  18.705   3.900   4.208
64095W        W25384  38.455  14.158  14.808
64096W        W25385   0.909  12.345  13.367
64097W        W25386  19.688  24.506  13.448
64098W        W25387  16.712   2.337  10.982
64099W        W25388  22.709  12.126  12.402
64100W        W25389  29.606  10.187  13.351
64101W        W25390   8.390  19.195  11.499
64102W        W25391   0.813  26.460   5.149
64103W        W25392  36.503  26.579   0.852
64104W        W25393  12.290  40.531   4.782
64105W        W25394  22.555  15.268  10.988
64106W        W25395  35.429   8.687  12.960
64107W        W25396   7.289  18.100  13.948
64108W        W25397   0.901  22.667  14.372
64109W        W25398  14.245   8.207   1.916
64110W        W25399   7.358  10.149   1.914
64111W        W25400  32.416  41.833  12.366
64112W        W25401  42.300  11.832  11.425
64113W        W25402   8.201  11.245   1.336
64114W        W25403  36.058  31.982  11.556
64115W        W25404   5.732  28.654   4.211
64116W        W25405  24.485  43.951   1.417
64117W        W25406   2.337   7.866   0.909
64118W        W25407   6.288  15.110   0.266
64119W        W25408  35.384  22.194   1.822
64120W        W25409  33.874  11.227  12.930
64121W        W25410   5.323  40.318   2.684
64122W        W25411  10.700  40.980  14.007
64123W        W25412  16.751   9.850  10.487
64124W        W25413  13.166  29.172   4.207
64125W        W25414  24.148  36.495  11.533
64126W        W25415   9.664   4.823  11.105
64127W        W25416  34.955  43.898   2.881
64128W        W25417  27.154  33.061  12.368
64129W        W25418  39.048  27.540   0.446
64130W        W25419  30.143   8.296   5.099
64131W        W25420   0.942  28.554  14.819
64132W        W25421   0.862  28.444  14.423
64133W        W25422  42.462  10.316  13.944
64134W        W25423  15.594  34.052  11.935
64135W        W25424  27.553   3.431   2.248
64136W        W25425  24.209  28.547   4.250
64137W        W25426   7.688   0.485  13.362
64138W        W25427  34.067  35.950   5.140
64139W        W25428  12.278  16.159   0.260
64140W        W25429  43.766  18.785  10.944
64141W        W25430  31.116  16.616  13.951
64142W        W25431   8.842  21.173   5.270
64143W        W25432  38.918   8.850  12.904
64144W        W25433  31.998  42.994   3.865
64145W        W25434  44.882  23.194  11.975
64146W        W25435   1.405  11.756  12.837
64147W        W25436  12.792  44.777   2.864
64148W        W25437  44.774  41.438  12.574
64149W        W25438   4.391  11.261  14.806
64150W        W25439   7.666  15.603  13.430
64151W        W25440  27.134  31.490  11.039
64152W        W25441  29.561  35.909  14.000
64153W        W25442  15.228  41.525  10.572
64154W        W25443   6.907   1.302   1.431
64155W        W25444  12.611  25.148  13.342
64156W        W25445  10.144  36.070  11.950
64157W        W25446  32.510  37.564  10.610
64158W        W25447   4.906  18.181  14.845
64159W        W25448  26.610   4.401  14.439
64160W        W25449   1.326   7.347   2.692
64161W        W25450  16.150  27.627   2.697
64162W        W25451  28.479  20.721   4.256
64163W        W25452   9.317  13.622  12.474
64164W        W25453  15.250   5.306  11.918
64165W        W25454  29.104   6.183  13.480
64166W        W25455  37.007   4.374   3.824
64167W        W25456  39.399  30.618   3.653
64168W        W25457   4.770  36.078   3.835
64169W        W25458  43.923  10.750   4.798
64170W        W25459  15.733  20.722   1.348
64171W        W25460  15.100  34.024   4.696
64172W        W25461   1.364  39.486  14.766
64173W        W25462  34.881  12.852   1.417
64174W        W25463  37.943  27.475   2.686
64175W        W25464  32.592  26.514   0.767
64176W        W25465  11.856  28.004   4.162
64177W        W25466  19.049  10.751   0.786
64178W        W25467  25.643  13.173  14.439
64179W        W25468  20.254  43.284  14.454
64180W        W25469  38.422  23.510  14.812
64181W        W25470  16.633  22.644  14.413
64182W        W25471   3.903  29.045  11.444
64183W        W25472  24.987  36.500  13.933
64184W        W25473  29.602   2.824  13.527
64185W        W25474  35.573  18.665   3.820
64186W        W25475  14.288  36.952  12.971
64187W        W25476  32.106  25.974   4.212
64188W        W25477  27.493  12.787  13.318
64189W        W25478   4.361  33.939   4.346
64190W        W25479  31.075  12.680   4.125
64191W        W25480  35.885  27.475  13.441
64192W        W25481  41.369  20.764  11.452
64193W        W25482  21.662  23.029  10.958
64194W        W25483   7.280  17.577  13.019
64195W        W25484  32.074  30.489   0.812
64196W        W25485  37.876  31.083  14.898
64197W        W25486   3.755  44.981  11.489
64198W        W25487  23.191  40.475   0.819
64199W        W25488   7.873  42.875  14.281
64200W        W25489   7.259  19.698  11.379
64201W        W25490  11.787   0.792   1.869
64202W        W25491  25.693  33.409   0.373
64203W        W25492  23.712  37.005  12.077
64204W        W25493  23.526  29.036  13.352
64205W        W25494   5.743  23.152  12.369
64206W        W25495   9.675  17.262  13.933
64207W        W25496   3.358   1.812   3.826
64208W        W25497   8.358  41.488  12.909
64209W        W25498  33.898  16.568   1.406
64210W        W25499  24.509  10.173   1.871
64211W        W25500  35.527  29.150   4.603
64212W        W25501  41.319  34.550  14.944
64213W        W25502  36.453  32.468  13.442
64214W        W25503  11.809  12.730  11.534
64215W        W25504  11.761   4.219   3.840
64216W        W25505  22.224  17.668  11.567
64217W        W25506  17.621  22.140   4.665
64218W        W25507  19.264  31.620  10.951
64219W        W25508  31.107  22.082   4.343
64220W        W25509  32.123  20.170  10.947
64221W        W25510   1.407  15.685   0.732
64222W        W25511  40.965  21.618  12.530
64223W        W25512   9.839  40.835  12.520
64224W        W25513   2.384   3.378  12.568
64225W        W25514  41.502  20.263  11.017
64226W        W25515   4.216   0.880  11.912
64227W        W25516  34.955  28.148  11.958
64228W        W25517  10.221   4.356  14.323
64229W        W25518   0.399  36.997  12.448
64230W        W25519  26.652  38.981  14.924
64231W        W25520   0.744  33.911   2.693
64232W        W25521  17.661   3.916  11.006
64233W        W25522   9.835  23.666   5.284
64234W        W25523  43.903   3.450  11.984
64235W        W25524  25.129  27.995   4.729
64236W        W25525  22.133  29.555   3.662
64237W        W25526  30.604   0.946  12.483
64238W        W25527  20.675   2.876   2.832
64239W        W25528  29.586  10.813   3.206
64240W        W25529   2.342  30.454   0.288
64241W        W25530  20.225  24.146   2.266
64242W        W25531  12.677   2.745  10.413
64243W        W25532  11.702   8.198   4.600
64244W        W25533  12.658  38.473  10.127
64245W        W25534  43.435  15.109   1.435
64246W        W25535  26.687  30.640   2.201
64247W        W25536   0.402  18.220   3.777
64248W        W25537  30.526  41.357   4.137
64249W        W25538  10.301  31.142  12.858
64250W        W25539   5.279  43.275  11.980
64251W        W25540  19.647  36.050   1.317
64252W        W25541  28.155   1.296   1.379
64253W        W25542  43.919   4.369  13.856
64254W        W25543  22.086  31.444  14.839
64255W        W25544  21.752  27.445   4.322
64256W        W25545   1.742  11.223   2.231
64257W        W25546  11.362   5.264   2.196
64258W        W25547  25.098  22.692  13.942
64259W        W25548   3.371  26.701  13.981
64260W        W25549   6.216  22.046   0.806
64261W        W25550  34.116  37.345  10.965
64262W        W25551  42.945  18.643   2.272
64263W        W25552  24.099  19.686  13.836
64264W        W25553  25.024  24.218  10.156
64265W        W25554   3.408  26.967  12.537
64266W        W25555  18.245   1.815   0.952
64267W        W25556  20.074  18.629  11.892
64268W        W25557  22.674  13.693   4.123
64269W        W25558   4.749  42.850  14.795
64270W        W25559  31.110  17.647  11.108
64271W        W25560   2.750   5.219  10.427
64272W        W25561  20.172  44.988   0.882
64273W        W25562  41.882  12.188   2.403
64274W        W25563   3.401  35.076   4.691
64275W        W25564   9.217  12.683   4.208
64276W        W25565  22.689  34.498   4.600
64277W        W25566  37.064  10.800   0.789
64278W        W25567  23.092  18.279  13.539
64279W        W25568   7.708  29.514  10.556
64280W        W25569  24.561  33.408   3.717
64281W        W25570  19.164  23.561  13.423
64282W        W25571  21.146   2.413  11.564
64283W        W25572  35.594  18.102   0.798
64284W        W25573  29.108  20.645  12.854
64285W        W25574  40.931   9.316   2.346
64286W        W25575  38.050  32.924   2.729
64287W        W25576  35.487  39.018   3.345
64288W        W25577  33.517  25.096  12.823
64289W        W25578   9.299  32.462   0.890
64290W        W25579  38.526  13.154   1.765
64291W        W25580  32.551  40.322   2.284
64292W        W25581  43.951   5.245   3.332
64293W        W25582  26.159  43.854   4.114
64294W        W25583  28.957   4.797   3.235
64295W        W25584   6.736  42.310   4.257
64296W        W25585  35.427  12.642  12.830
64297W        W25586  23.147  41.361  13.990
64298W        W25587  18.120  34.470  13.048
64299W        W25588   7.761  38.446   3.717
64300W        W25589  19.554  43.501  13.417
64301W        W25590  17.303   1.783  11.877
64302W        W25591   1.907  17.773  10.540
64303W        W25592  30.960   3.934  13.039
64304W        W25593   6.721   6.267  12.936
64305W        W25594  12.834  22.708  11.999
64306W        W25595   6.897  28.029  14.401
64307W        W25596  40.933   4.368   1.336
64308W        W25597   2.881   9.355  12.490
64309W        W25598  12.640  26.491  13.970
64310W        W25599   9.159   8.257   0.822
64311W        W25600   5.812  25.618   5.189
64312W        W25601  36.356  27.126   0.349
64313W        W25602  11.368  21.243   0.794
64314W        W25603  20.545  36.425   3.731
64315W        W25604   8.740  10.374   0.263
64316W        W25605   9.368  14.736  10.467
64317W        W25606   5.277   3.243  13.540
64318W        W25607   8.199   8.697  11.470
64319W        W25608  42.983  10.240  12.964
64320W        W25609  12.144  27.085  10.485
64321W        W25610  34.090  14.242   0.891
64322W        W25611  11.295  40.385   1.830
64323W        W25612  35.026  23.664  14.843
64324W        W25613  10.203   2.455   0.939
64325W        W25614  15.626  17.626   4.797
64326W        W25615  13.735  43.835  14.948
64327W        W25616  24.620  26.628   2.851
64328W        W25617  14.719  23.025   4.628
64329W        W25618  24.664  14.096  13.326
64330W        W25619  24.514   0.966   0.729
64331W        W25620  34.514   0.477   5.702
64332W        W25621  22.623  34.069   3.843
64333W        W25622  41.292  30.043  13.888
64334W        W25623  10.771  15.765  13.311
64335W        W25624  35.958  21.666   2.717
64336W        W25625  10.142  33.083  12.083
64337W        W25626  25.542  40.521   3.728
64338W        W25627  39.531  30.072  14.370
64339W        W25628  12.705  44.891  10.012
64340W        W25629  20.608  24.688  13.447
64341W        W25630  27.021  32.479   4.324
64342W        W25631  22.188   8.385   0.890
64343W        W25632  28.150  25.631   4.191
64344W        W25633  41.400   1.850   2.331
64345W        W25634  18.183  44.373   2.293
64346W        W25635  22.048  33.499   3.638
64347W        W25636   6.384  23.689  14.853
64348W        W25637   1.857  40.370   2.844
64349W        W25638  18.617  28.498  14.989
64350W        W25639  17.217  12.361  14.826
64351W        W25640  20.563  22.589  11.011
64352W        W25641  29.473  11.144  11.485
64353W        W25642  34.101   5.821   2.775
64354W        W25643  38.964  34.108  14.464
64355W        W25644  38.890  39.557   4.811
64356W        W25645  23.669  19.107  13.948
64357W        W25646   2.947  26.470  14.920
64358W        W25647  44.838  26.971  11.376
64359W        W25648  35.510  28.527  12.448
64360W        W25649  12.359  22.718  13.954
64361W        W25650  16.282   4.326  12.053
64362W        W25651  34.400   7.358   0.831
64363W        W25652  29.562   7.779  12.990
64364W        W25653  13.316   7.241  10.556
64365W        W25654  17.779  36.023  11.549
64366W        W25655  13.155  29.651   0.873
64367W        W25656  34.519  23.627   0.260
64368W        W25657   3.864  40.322  13.920
64369W        W25658  22.688  32.035   5.091
64370W        W25659   2.305  13.665   4.810
64371W        W25660  24.022  16.805   1.451
64372W        W25661   6.381   5.705  13.380
64373W        W25662  26.048   5.874  12.012
64374W        W25663  36.978  16.780   4.758
64375W        W25664  15.750   0.912  14.787
64376W        W25665  36.483  19.266  10.531
64377W        W25666   9.686  14.174   4.706
64378W        W25667   1.474  31.439   2.194
64379W        W25668   4.704  41.795   2.302
64380W        W25669  20.267  17.087  11.858
64381W        W25670  34.536  14.822   0.453
64382W        W25671   4.862  15.681  14.419
64383W        W25672  22.546  29.008  10.888
64384W        W25673  12.344   6.203  11.454
64385W        W25674  35.579  23.038  13.832
64386W        W25675  40.925  29.151  13.375
64387W        W25676   6.250  39.415   4.836
64388W        W25677  11.688  15.704   4.312
64389W        W25678  39.452  28.025  10.417
64390W        W25679  18.293   9.882   2.771
64391W        W25680  37.423  10.762   1.730
64392W        W25681  30.071  23.119   3.315
64393W        W25682  33.412  18.287   0.761
64394W        W25683   2.843  33.515  14.995
64395W        W25684  43.914  38.886  14.021
64396W        W25685  35.415  42.791   0.245
64397W        W25686  16.084  34.559  13.899
64398W        W25687  34.512   1.310  13.973
64399W        W25688  26.099  24.150   3.784
64400W        W25689  19.079  11.791  10.558
64401W        W25690  43.929  17.742   0.802
64402W        W25691   1.929   1.252   3.717
64403W        W25692  37.374  11.697   0.399
64404W        W25693  32.465   1.949  11.085
64405W        W25694  39.513  12.211  14.498
64406W        W25695  13.832   0.455   9.439
64407W        W25696   0.847   3.366  12.532
64408W        W25697  12.809  18.788  12.877
64409W        W25698  40.529  33.556   4.838
64410W        W25699   1.743  28.989   4.730
64411W        W25700   6.743  28.966  10.969
64412W        W25701  29.023   5.923   3.809
64413W        W25702  22.060  37.471  14.513
64414W        W25703  31.989  29.516  12.555
64415W        W25704   2.844  19.139   1.313
64416W        W25705  38.377   2.400   0.952
64417W        W25706  12.189   7.174  10.975
64418W        W25707  35.890  21.154  13.343
64419W        W25708  12.782  33.598   3.719
64420W        W25709  26.530  43.011   4.239
64421W        W25710  37.975  14.701   0.479
64422W        W25711  43.271   9.356   1.717
64423W        W25712   2.892  40.494   3.325
64424W        W25713  24.553  38.355  12.520
64425W        W25714   4.233   0.863  14.331
64426W        W25715  24.642  39.532  11.902
64427W        W25716  36.576  23.541  11.950
64428W        W25717  34.554  29.039   3.759
64429W        W25718  37.000  44.790   2.405
64430W        W25719  11.251   1.422   0.284
64431W        W25720   0.805  16.086   3.240
64432W        W25721  24.068  28.174  11.420
64433W        W25722  15.617   9.172   1.877
64434W        W25723  19.759  14.220  10.624
64435W        W25724  31.984  12.127   3.187
64436W        W25725  23.494  31.529   2.205
64437W        W25726   1.291  29.647   1.910
64438W        W25727  24.056   0.326  14.779
64439W        W25728  20.036  15.697  10.564
64440W        W25729  23.717  31.460   0.482
64441W        W25730  13.284   5.216   3.277
64442W        W25731  27.188  40.310  14.317
64443W        W25732  18.668  39.038  14.394
64444W        W25733   2.777  24.176   1.853
64445W        W25734  36.479  23.519   4.315
64446W        W25735  13.341  44.895  14.421
64447W        W25736  33.600   9.820   3.660
64448W        W25737  39.061  41.826   2.234
64449W        W25738  29.595   6.692   3.756
64450W        W25739  17.734   4.840   0.868
64451W        W25740  38.333  34.414  14.997
64452W        W25741   4.435  25.605   3.744
64453W        W25742  38.920  22.077  13.880
64454W        W25743  15.603  37.444  11.974
64455W        W25744   8.899  29.046   3.310
64456W        W25745  31.616   6.225   2.798
64457W        W25746  44.910  36.372  13.871
64458W        W25747  37.041  27.012  14.003
64459W        W25748  17.297  22.083  12.452
64460W        W25749  43.336  11.228   0.469
64461W        W25750  43.001  32.449  14.958
64462W        W25751   1.925  41.788  11.078
64463W        W25752  44.492   7.377  10.898
64464W        W25753  25.041   6.861   3.767
64465W        W25754  26.656   9.695  13.976
64466W        W25755   0.923  16.755   1.232
64467W        W25756  27.512   7.831  11.611
64468W        W25757   5.302  28.114   3.636
64469W        W25758   5.346  32.547  11.880
64470W        W25759   7.828  11.865   5.186
64471W        W25760  34.417   7.195  12.445
64472W        W25761   0.282   1.790  11.423
64473W        W25762   6.373   3.265  14.807
64474W        W25763  22.051  40.937   2.220
64475W        W25764  25.656  13.119  12.042
64476W        W25765  17.702   8.744  14.425
64477W        W25766   5.258  39.540  13.892
64478W        W25767  27.160   4.231  14.395
64479W        W25768  16.587  20.112   5.158
64480W        W25769   1.400  16.115  13.543
64481W        W25770   2.923  35.927  13.927
64482W        W25771  15.261  21.233   4.646
64483W        W25772  30.038  14.656   0.365
64484W        W25773  11.373  39.488   0.844
64485W        W25774  14.821  13.625  13.816
64486W        W25775  36.573  43.296  11.552
64487W        W25776  36.869  22.711   3.382
64488W        W25777   3.715  28.141   1.776
64489W        W25778   0.418   4.206   0.821
64490W        W25779  24.010   1.773   3.167
64491W        W25780  23.988   0.298  10.595
64492W        W25781  15.298  36.462  10.461
64493W        W25782  38.353  16.313   2.870
64494W        W25783  25.107  42.373  10.967
64495W        W25784  32.123  24.692   3.287
64496W        W25785  28.504  35.904  13.526
64497W        W25786  44.375  23.729  13.403
64498W        W25787  39.899  42.336  14.410
64499W        W25788   6.361  25.556  10.633
64500W        W25789  36.565  17.573   0.857
64501W        W25790  17.093   8.324  13.906
64502W        W25791  42.453  35.544   2.287
64503W        W25792   2.456  19.689  14.780
64504W        W25793  26.671  32.594  13.961
64505W        W25794   9.664  15.592  12.976
64506W        W25795   5.759  23.051   1.299
64507W        W25796   4.429  38.441   0.807
64508W        W25797  44.982   1.264   3.250
64509W        W25798  27.103   5.728   1.214
64510W        W25799  38.064  23.546   4.191
64511W        W25800  30.650  35.000   4.239
64512W        W25801  22.016   7.249   0.370
64513W        W25802  32.396  34.888  13.031
64514W        W25803  30.113   1.411   4.174
64515W        W25804  30.976  32.919   2.266
64516W        W25805  37.396  29.923  13.052
64517W        W25806  37.946  21.748  14.814
64518W        W25807  22.701   6.410   1.787
64519W        W25808   1.885  20.729   1.385
64520W        W25809  26.197   2.763  10.416
64521W        W25810   1.949  23.618   2.276
64522W        W25811  37.565  13.184   1.823
64523W        W25812  31.621  22.227   4.700
64524W        W25813  17.788  33.546  12.361
64525W        W25814  10.298  33.899  13.336
64526W        W25815   6.336   2.900   1.841
64527W        W25816   1.431  41.300   4.286
64528W        W25817  21.084   5.712   3.864
64529W        W25818  34.604  24.223  11.104
64530W        W25819  35.403   6.892   3.174
64531W        W25820  26.041  38.918  11.898
64532W        W25821  24.504   7.773  14.515
64533W        W25822  38.451  19.264   1.312
64534W        W25823  39.493   1.938  11.868
64535W        W25824  23.045  14.757   1.217
64536W        W25825  35.536   3.894   0.872
64537W        W25826  34.543  34.461  11.986
64538W        W25827   9.338  39.039  11.067
64539W        W25828  28.973  23.735   2.373
64540W        W25829  16.302   6.407  12.431
64541W        W25830  42.303  31.974   0.472
64542W        W25831  40.302  42.413   2.350
64543W        W25832  29.090  36.383   3.775
64544W        W25833   3.867  28.634  13.916
64545W        W25834  14.313  35.445   2.835
64546W        W25835  39.884  40.829  12.477
64547W        W25836  37.470   8.395  12.953
64548W        W25837  37.027  21.240  13.501
64549W        W25838  37.432  17.096   3.676
64550W        W25839  29.957   2.950  10.988
64551W        W25840  34.063  18.064   0.377
64552W        W25841  40.390  30.427   4.346
64553W        W25842  13.218  30.590   4.279
64554W        W25843   1.816  26.951  13.320
64555W        W25844  32.911  35.586   4.640
64556W        W25845   7.686  28.016   3.278
64557W        W25846  43.817  20.709   2.788
64558W        W25847  19.178  34.479  12.385
64559W        W25848  40.868   9.236  12.422
64560W        W25849  30.077   4.238  11.057
64561W        W25850  18.245  34.028   0.343
64562W        W25851  25.607  35.535  12.000
64563W        W25852  14.602  38.048  13.876
64564W        W25853   5.711  13.216   3.815
64565W        W25854  27.657  36.063   2.269
64566W        W25855   2.735  31.033  14.907
64567W        W25856  15.673  14.214  13.877
64568W        W25857   1.422   7.193   4.344
64569W        W25858  34.533  24.547  13.993
64570W        W25859  25.072  44.766   2.353
64571W        W25860  10.757  12.295  10.970
64572W        W25861  44.952  15.163  10.424
64573W        W25862  13.178  25.707  11.059
64574W        W25863  24.511  44.886   1.789
64575W        W25864  10.843   9.887   4.117
64576W        W25865  19.676  17.790  12.575
64577W        W25866  28.077   5.361   1.385
64578W        W25867  38.537  10.260  14.301
64579W        W25868  24.155  15.770  13.053
64580W        W25869  43.331  38.880  12.906
64581W        W25870   2.796  42.835   4.821
64582W        W25871  26.523  25.144   1.266
64583W        W25872  33.409  33.573   3.315
64584W        W25873  17.643  25.161  10.518
64585W        W25874  33.603  18.787  14.839
64586W        W25875  19.248  27.075   2.276
64587W        W25876  26.631  13.339  11.098
64588W        W25877  30.118  32.912   1.397
64589W        W25878  25.001  21.056  11.505
64590W        W25879   4.304   8.680  14.402
64591W        W25880  22.553  43.460  10.968
64592W        W25881  37.998  15.654  14.278
64593W        W25882  31.613  30.086   3.850
64594W        W25883   8.223  13.210  14.462
64595W        W25884   7.184   4.417   4.705
64596W        W25885   2.871  28.491   2.725
64597W        W25886  30.614  43.486  12.502
64598W        W25887  22.202  21.749   4.785
64599W        W25888  32.067  40.405  14.830
64600W        W25889  33.012  29.920   4.325
64601W        W25890  23.153  18.215  11.891
64602W        W25891  34.580  44.483   0.403
64603W        W25892  18.098  33.125   3.652
64604W        W25893  21.597  29.027   0.897
64605W        W25894  26.630  29.626  13.329
64606W        W25895  14.152  21.234   0.819
64607W        W25896  40.394  26.956   3.631
64608W        W25897   0.954   9.307   4.239
64609W        W25898  43.331  35.910  14.021
64610W        W25899  22.535   4.413   0.442
64611W        W25900  18.746  25.176   1.878
64612W        W25901  39.374  33.043   4.341
64613W        W25902   9.302  10.346  13.886
64614W        W25903  20.209  35.505   4.685
64615W        W25904   8.265  43.927   1.376
64616W        W25905   6.870  36.948  12.876
64617W        W25906  16.696   7.198   0.832
64618W        W25907  22.085  18.686  11.600
64619W        W25908  29.604  14.691  10.973
64620W        W25909   5.722   3.450   4.798
64621W        W25910  12.709  31.117   0.266
64622W        W25911  35.533   9.813   0.937
64623W        W25912   7.810  27.681   5.169
64624W        W25913  16.143   0.779  13.871
64625W        W25914   6.322  12.780  12.562
64626W        W25915  36.863  16.788  11.978
64627W        W25916   9.728  44.825  14.425
64628W        W25917  40.317  35.922  11.938
64629W        W25918   0.893   0.943  13.818
64630W        W25919   4.394  34.580   4.657
64631W        W25920  10.871  22.211  12.057
64632W        W25921  32.446  43.300  13.979
64633W        W25922  17.610  15.327   4.269
64634W        W25923  41.839  10.819  13.831
64635W        W25924  20.576   4.852  13.308
64636W        W25925  43.873  31.634  13.348
64637W        W25926  10.764  27.187   0.269
64638W        W25927   8.803  23.004  12.359
64639W        W25928  38.488  21.242   4.339
64640W        W25929  35.385  41.954  13.060
64641W        W25930  19.189  10.293   4.135
64642W        W25931  38.516  18.760  11.541
64643W        W25932   9.284   5.834  12.998
64644W        W25933  18.780  24.507   3.679
64645W        W25934   9.735  40.868  12.064
64646W        W25935  27.081  26.520   1.292
64647W        W25936   5.860  44.864   1.320
64648W        W25937  20.114  10.362   4.117
64649W        W25938  17.231  29.089  10.561
64650W        W25939  30.458  35.552  13.342
64651W        W25940  23.171  16.109   2.801
64652W        W25941  18.187  22.222  11.067
64653W        W25942  32.046  32.103  13.944
64654W        W25943  44.819   8.726   0.323
64655W        W25944  18.052  16.169  13.902
64656W        W25945   0.370  32.893   2.326
64657W        W25946  17.266  38.955  13.464
64658W        W25947  22.547  39.038   1.448
64659W        W25948  41.799  39.528  10.508
64660W        W25949  40.816  11.623   2.332
64661W        W25950  14.150  18.150   2.246
64662W        W25951  10.817   5.884   3.744
64663W        W25952  33.007   7.831   4.717
64664W        W25953   6.742  27.133  14.882
64665W        W25954  31.606   4.364  13.813
64666W        W25955  41.787  36.874   2.849
64667W        W25956   6.707  20.043   2.291
64668W        W25957  10.181  19.761  10.078
64669W        W25958   1.738  42.359   4.313
64670W        W25959  17.671  38.476   0.758
64671W        W25960  42.366  40.437   2.234
64672W        W25961  37.514   5.343   4.699
64673W        W25962  15.292   8.233   3.696
64674W        W25963  13.213  27.680   0.866
64675W        W25964  35.587  27.504   1.748
64676W        W25965  20.625   2.325  14.440
64677W        W25966  10.720  10.230   4.646
64678W        W25967  34.907  11.330  13.341
64679W        W25968  27.189  35.472  12.552
64680W        W25969  37.854  18.599  10.119
64681W        W25970  29.486  39.528  12.556
64682W        W25971  19.173  36.867  12.980
64683W        W25972  40.475  24.052  13.518
64684W        W25973  38.529  16.701   1.878
64685W        W25974   5.367  35.079  10.983
64686W        W25975  40.452  44.395   3.381
64687W        W25976   1.442  40.328   1.917
64688W        W25977  17.226  12.699   0.426
64689W        W25978  36.442  44.931  12.902
64690W        W25979  15.260   7.878  11.437
64691W        W25980  15.652  41.495   1.744
64692W        W25981  31.484   4.343  12.012
64693W        W25982  39.001  19.683   3.267
64694W        W25983  23.989  30.096   2.754
64695W        W25984  37.930  39.339   3.832
64696W        W25985   8.315   6.321   2.802
64697W        W25986   0.979  18.254   4.672
64698W        W25987   8.264  23.037   3.692
64699W        W25988  30.454   1.255  11.415
64700W        W25989  21.705  35.943   1.819
64701W        W25990  12.185  19.150   4.300
64702W        W25991  29.458   0.468  12.542
64703W        W25992  19.128  20.052  10.540
64704W        W25993  31.409  43.816  10.565
64705W        W25994   1.390  43.996   2.809
64706W        W25995  35.003  37.539   4.739
64707W        W25996  24.536  33.583  11.560
64708W        W25997  32.533  18.701  12.900
64709W        W25998  36.068  13.830  12.956
64710W        W25999  18.123  10.692   4.345
64711W        W26000   9.265  42.868  10.537
64712W        W26001  25.546  36.885   4.158
64713W        W26002  38.848  26.088  14.414
64714W        W26003   1.796  24.008   1.357
64715W        W26004  27.157  28.004  11.565
64716W        W26005  12.251  28.035  10.556
64717W        W26006  14.236  17.070   4.735
64718W        W26007   0.284  41.411  14.984
64719W        W26008  44.332  40.392  14.848
64720W        W26009   7.848  18.262   0.799
64721W        W26010  39.920   0.486   2.811
64722W        W26011  25.097  19.670   3.728
64723W        W26012  23.502  26.037   4.179
64724W        W26013   1.802  34.562   4.771
64725W        W26014  31.428  41.865   4.621
64726W        W26015  13.800  28.134   3.372
64727W        W26016  29.493  31.975  11.568
64728W        W26017  13.319  39.843  12.409
64729W        W26018  20.680  15.703   1.239
64730W        W26019  15.617  40.514  10.019
64731W        W26020  39.048  39.970   1.370
64732W        W26021  14.597  24.213   3.332
64733W        W26022  16.794  29.963   1.907
64734W        W26023   8.403  14.155   0.397
64735W        W26024  26.036  44.264  10.504
64736W        W26025  32.630  29.480   0.730
64737W        W26026   7.862   6.897   0.289
64738W        W26027  19.539  32.113  12.955
64739W        W26028  21.071  39.845  11.860
64740W        W26029  28.999  28.176  13.960
64741W        W26030  28.604  25.196   0.440
64742W        W26031   2.275  23.722  10.988
64743W        W26032   9.210   6.191  10.917
64744W        W26033  34.960  14.197   5.202
64745W        W26034   7.185  14.697  14.022
64746W        W26035   7.412   8.347  10.527
64747W        W26036  32.945  23.061  11.470
64748W        W26037  27.516   3.841   3.844
64749W        W26038   6.729  13.777  11.599
64750W        W26039  13.307  21.740  13.041
64751W        W26040  28.508   6.385   1.811
64752W        W26041  33.883  39.011   1.392
64753W        W26042  31.110  39.362   1.323
64754W        W26043  15.189  23.161   4.653
64755W        W26044   1.446  25.116  10.937
64756W        W26045   4.250  14.716  10.480
64757W        W26046  43.999  28.502  14.403
64758W        W26047   7.382  34.035  14.827
64759W        W26048  38.422  15.799  12.953
64760W        W26049   7.311  39.017   2.396
64761W        W26050  12.133   7.355  14.032
64762W        W26051  28.518  22.048   3.654
64763W        W26052  31.925   6.706  12.908
64764W        W26053  42.968  18.057   4.642
64765W        W26054   4.257  34.017   0.915
64766W        W26055   2.916  23.999  12.971
64767W        W26056  42.431  42.865  14.015
64768W        W26057  42.934   6.359   4.188
64769W        W26058  28.073   4.293   3.763
64770W        W26059   8.188  31.490   2.178
64771W        W26060   6.286  29.493   0.879
64772W        W26061  38.940  36.463   3.347
64773W        W26062  25.131  12.344  12.914
64774W        W26063  39.332   5.865  11.979
64775W        W26064  33.588   8.312  12.994
64776W        W26065  18.154  28.176   3.739
64777W        W26066  27.495  13.135  12.859
64778W        W26067  20.253  29.648  14.822
64779W        W26068  25.577   5.764   3.717
64780W        W26069  18.622  44.769   3.174
64781W        W26070  17.706   9.313   4.284
64782W        W26071  27.450  35.862  13.983
64783W        W26072  35.500   3.865   3.384
64784W        W26073  44.460  27.967   4.242
64785W        W26074  26.601  23.718   2.731
64786W        W26075  37.870  21.258  13.379
64787W        W26076  19.232  43.509  13.518
64788W        W26077  33.553  39.366  14.813
64789W        W26078  14.098  16.782   3.209
64790W        W26079  33.403  41.026  10.968
64791W        W26080  39.417  35.968  14.021
64792W        W26081  20.230  17.166   4.754
64793W        W26082  33.971  35.963   2.831
64794W        W26083  28.666  26.959  12.864
64795W        W26084   5.896  28.957  11.088
64796W        W26085  43.475  42.951  12.423
64797W        W26086  29.628  35.419  11.123
64798W        W26087  20.562  35.994   1.405
64799W        W26088  14.114  12.644   4.202
64800W        W26089   9.200  34.110  12.018
64801W        W26090  41.958  19.755   9.929
64802W        W26091  13.696  27.598  11.379
64803W        W26092   7.216  23.044  14.912
64804W        W26093  16.109  21.251   2.323
64805W        W26094  11.701  23.503   4.759
64806W        W26095  44.842  42.997   3.719
64807W        W26096   4.290  11.336   3.709
64808W        W26097   7.729  27.169   4.718
64809W        W26098  37.544  15.086  14.852
64810W        W26099  26.511  34.045   0.298
64811W        W26100   5.375  44.982  14.967
64812W        W26101  35.009  21.717  13.900
64813W        W26102  36.956   4.904   0.956
64814W        W26103  38.565   7.347   3.838
64815W        W26104  15.293  22.016   3.671
64816W        W26105   3.801  28.935   4.832
64817W        W26106  40.350  13.760  14.977
64818W        W26107  24.138   5.753   1.230
64819W        W26108  21.066  18.268  14.479
64820W        W26109  34.529  16.771   0.295
64821W        W26110  37.853  27.583  14.320
64822W        W26111  37.859  44.394   3.682
64823W        W26112  17.687  10.333  14.934
64824W        W26113  20.236  23.649   0.965
64825W        W26114  34.073  14.703   3.759
64826W        W26115  12.798  44.872  14.029
64827W        W26116   4.804  13.675   4.760
64828W        W26117  12.169  29.973  12.442
64829W        W26118   1.434  40.971   2.284
64830W        W26119   3.712   1.955   5.100
64831W        W26120  15.810  12.217  13.419
64832W        W26121  11.262   5.314  11.483
64833W        W26122  11.239  41.472   3.798
64834W        W26123  40.309   9.859  10.465
64835W        W26124  33.550   4.919  11.915
64836W        W26125  27.997  23.509  11.030
64837W        W26126   3.904  41.859   2.746
64838W        W26127  23.526  18.634   4.281
64839W        W26128  37.905  16.124  13.359
64840W        W26129   8.695  38.506   2.289
64841W        W26130   1.960  28.528  14.854
64842W        W26131  41.424  23.568   4.195
64843W        W26132  10.215  17.635   2.793
64844W        W26133  29.511  18.198   0.310
64845W        W26134   2.373  12.118   2.822
64846W        W26135  42.922  12.760  12.364
64847W        W26136   5.923  39.530  12.858
64848W        W26137   1.970  18.571  14.863
64849W        W26138  16.572   4.867  10.597
64850W        W26139  20.588  24.117   0.461
64851W        W26140  29.603   4.355  10.599
64852W        W26141  39.910  10.368  10.642
64853W        W26142  23.098   7.897  14.469
64854W        W26143  25.211  26.068  12.972
64855W        W26144  40.362   8.892  12.959
64856W        W26145  35.089  28.529   1.231
64857W        W26146   1.916   4.219   4.737
64858W        W26147  39.418  26.693  11.095
64859W        W26148  16.612  29.645   1.742
64860W        W26149  36.957   9.710  14.934
64861W        W26150  38.418   6.899   2.224
64862W        W26151  33.039  18.622  13.400
64863W        W26152  22.197   6.721   2.269
64864W        W26153  35.555  14.289  10.569
64865W        W26154  33.552  26.184  13.938
64866W        W26155  23.236   8.717   0.419
64867W        W26156  29.504  16.091   3.662
64868W        W26157   9.372  20.062   0.390
64869W        W26158  15.772   3.361   2.385
64870W        W26159  44.368   4.393  14.421
64871W        W26160  40.530  22.515   1.926
64872W        W26161  15.305  27.483  11.006
64873W        W26162  31.613  12.705  12.009
64874W        W26163  35.596   6.306  11.543
64875W        W26164  19.545  12.734   0.938
64876W        W26165  25.644   9.796   0.425
64877W        W26166  20.064  12.297   1.829
64878W        W26167   6.320  30.926   3.282
64879W        W26168  10.303   2.915  10.936
64880W        W26169  41.024  39.912   0.387
64881W        W26170  22.028  40.386  10.924
64882W        W26171  44.274  17.696  11.509
64883W        W26172  10.204  29.114  14.354
64884W        W26173  14.652   7.273   0.866
64885W        W26174  21.037  20.639   4.306
64886W        W26175   5.435   3.439   3.733
64887W        W26176  23.036  34.090  14.482
64888W        W26177   1.897  28.644  12.847
64889W        W26178  42.970  35.365   2.693
64890W        W26179  21.727   2.919  13.900
64891W        W26180   8.787  37.499  10.511
64892W        W26181  31.059  41.387  10.143
64893W        W26182  32.623  18.669  11.481
64894W        W26183  26.673   2.386   1.256
64895W        W26184   3.853   7.760  10.462
64896W        W26185   8.714  13.619   0.822
64897W        W26186   4.366  16.691   2.415
64898W        W26187  10.656  43.481   2.179
64899W        W26188  37.908  21.570   0.775
64900W        W26189  21.065   5.425  10.611
64901W        W26190   5.337  29.523  10.603
64902W        W26191  32.099  33.537   2.354
64903W        W26192  39.832  15.243   2.309
64904W        W26193  32.955   3.818   1.320
64905W        W26194  32.940  25.120   2.266
64906W        W26195  30.913   1.880   9.962
64907W        W26196  42.481   0.406  13.040
64908W        W26197   6.198  26.627  12.005
64909W        W26198  28.593  11.702   1.230
64910W        W26199  13.846   5.216  10.633
64911W        W26200  15.684  19.737   3.345
64912W        W26201  25.636  30.657   0.331
64913W        W26202  13.722  43.359  12.073
64914W        W26203  22.171  36.528  11.497
64915W        W26204  38.896  14.225  11.911
64916W        W26205   4.388  34.957   2.877
64917W        W26206  13.807  20.073  10.525
64918W        W26207  26.034  40.936   1.847
64919W        W26208  20.581  37.876   2.717
64920W        W26209  30.941  16.588   3.189
64921W        W26210   7.835  24.503  11.517
64922W        W26211  36.855  15.777  14.768
64923W        W26212  30.997   7.756   1.268
64924W        W26213  26.639  37.402   3.754
64925W        W26214   9.196  19.155   4.718
64926W        W26215  41.008  29.594   2.403
64927W        W26216  14.666   7.319  12.558
64928W        W26217  40.339  14.127  11.113
64929W        W26218   1.829  34.525  14.481
64930W        W26219  15.314  39.055  10.607
64931W        W26220  34.101   2.399  14.905
64932W        W26221  31.468  15.709  11.381
64933W        W26222  36.068   9.148   3.707
64934W        W26223  24.050  15.274   1.267
64935W        W26224  35.494  13.760  10.511
64936W        W26225  35.497  44.813  11.577
64937W        W26226   0.427   1.386   4.351
64938W        W26227  26.104  11.806  11.002
64939W        W26228  15.787  33.939  10.979
64940W        W26229  15.327  24.198   1.748
64941W        W26230  44.974   7.839  13.909
64942W        W26231  38.407   1.357  11.490
64943W        W26232  18.188  42.442  14.845
64944W        W26233   2.812   2.244   2.819
64945W        W26234   7.242  36.884   1.821
64946W        W26235  33.919  37.367   3.701
64947W        W26236  42.882  15.647  11.855
64948W        W26237  40.935  31.504   1.418
64949W        W26238  43.351  21.515   4.255
64950W        W26239  34.002  36.349   0.913
64951W        W26240  22.251  20.531   4.329
64952W        W26241  41.996   5.334   4.605
64953W        W26242   6.230  31.628   1.762
64954W        W26243  42.950   6.364  14.463
64955W        W26244  12.693  13.641   1.930
64956W        W26245  12.235  20.562  14.779
64957W        W26246  23.735  37.351  10.634
64958W        W26247  35.901   9.283   0.908
64959W        W26248  15.815  30.093   3.820
64960W        W26249  14.198  29.609   1.279
64961W        W26250  32.100   7.865   4.836
64962W        W26251  18.734  38.357  12.002
64963W        W26252  22.573  35.869   1.745
64964W        W26253  28.615  38.391  13.342
64965W        W26254  26.473   7.747   1.365
64966W        W26255  32.968  30.470  14.999
64967W        W26256  37.030  27.046  10.500
64968W        W26257  35.957  39.487  13.349
64969W        W26258   6.906  32.622  10.564
64970W        W26259  14.833  18.766  11.492
64971W        W26260  16.306  16.104   4.831
64972W        W26261  31.542  28.581  14.419
64973W        W26262   5.393   7.304  11.452
64974W        W26263  13.300  24.042  10.456
64975W        W26264  42.868  32.075  13.968
64976W        W26265  12.227  24.674   4.598
64977W        W26266  24.659   3.892   3.659
64978W        W26267  34.033  15.295  11.951
64979W        W26268  23.166  18.564  11.393
64980W        W26269  11.636  27.164  11.057
64981W        W26270  30.090  28.578   2.232
64982W        W26271   2.444   1.304  13.902
64983W        W26272  36.516  19.701   4.755
64984W        W26273  29.128   3.452  10.901
64985W        W26274   1.966   6.704   0.799
64986W        W26275  28.672  16.751  13.433
64987W        W26276   3.253  39.939  11.078
64988W        W26277  25.998   8.899  12.960
64989W        W26278   8.813   3.899   0.920
64990W        W26279  42.473  43.352   2.722
64991W        W26280  27.476  44.794   0.310
64992W        W26281  20.071  21.700   1.733
64993W        W26282  13.785  34.047   2.310
64994W        W26283  10.148  26.141   1.837
64995W        W26284   5.762  21.059   3.156
64996W        W26285  26.570  13.304   0.854
64997W        W26286  31.594  31.551   2.728
64998W        W26287  27.513  40.013  12.060
64999W        W26288  35.531  23.214   0.437
65000W        W26289   4.838   5.341   3.337
65001W        W26290  30.025  42.370   4.328
65002W        W26291  19.717  35.536  14.277
65003W        W26292  31.965  43.321   3.843
65004W        W26293  25.611  17.210  13.922
65005W        W26294   9.651  24.213  10.895
65006W        W26295   1.811  25.562  14.847
65007W        W26296  34.539  11.215  13.504
65008W        W26297  21.718   0.317  14.818
65009W        W26298  12.718  41.928   3.634
65010W        W26299  15.131  35.066   2.683
65011W        W26300  34.043  17.152  11.943
65012W        W26301  36.962  36.034  12.382
65013W        W26302  23.563  18.082   1.446
65014W        W26303  22.621  26.204  13.316
65015W        W26304  38.487   5.917   1.858
65016W        W26305  27.687   4.278  10.614
65017W        W26306  40.949  17.244  10.478
65018W        W26307  27.071  22.714  10.129
65019W        W26308  42.310  29.568  11.885
65020W        W26309   4.216  29.061  12.511
65021W        W26310   5.319  40.467   3.719
65022W        W26311  38.536  43.776  10.595
65023W        W26312  15.745  32.607  10.907
65024W        W26313  27.681  16.670   1.246
65025W        W26314  16.755  43.004   4.649
65026W        W26315  34.965   6.199   1.746
65027W        W26316   1.917  38.070  13.327
65028W        W26317  31.119  28.007   4.136
65029W        W26318  13.750  20.052   4.742
65030W        W26319   1.972  10.656   3.273
65031W        W26320   7.900  15.669  13.937
65032W        W26321  33.491   7.330   3.231
65033W        W26322   0.915  41.928  12.904
65034W        W26323  38.560  21.671  13.330
65035W        W26324  10.192  12.194   0.378
65036W        W26325  38.970   8.166  11.410
65037W        W26326   3.917  28.611  12.506
65038W        W26327   5.249  29.102   3.273
65039W        W26328  26.011  15.281   2.260
65040W        W26329  11.260   4.855  13.473
65041W        W26330   7.416  39.928   3.377
65042W        W26331  17.096  25.967  12.537
65043W        W26332  28.646   9.281   1.306
65044W        W26333  34.931  19.613  12.094
65045W        W26334  31.610  28.126   3.672
65046W        W26335  44.890  26.529   1.232
65047W        W26336   4.838  11.825   3.256
65048W        W26337  36.945  36.043   4.343
65049W        W26338  41.353   1.810  11.966
65050W        W26339  33.916   9.319   1.246
65051W        W26340  30.078  30.948  10.644
65052W        W26341  11.845  30.619   4.319
65053W        W26342  20.658   3.722   2.738
65054W        W26343   0.766  43.502   2.244
65055W        W26344  43.314  43.947   1.334
65056W        W26345   2.890  27.567  10.405
65057W        W26346  21.663   0.864   4.114
65058W        W26347  29.666  34.985  13.337
65059W        W26348  39.905  42.435  12.963
65060W        W26349  37.453  39.422   2.682
65061W        W26350  37.337  25.525   4.783
65062W        W26351  33.899  18.686  11.035
65063W        W26352  31.611  27.476   3.859
65064W        W26353  42.455  32.427   0.427
65065W        W26354  14.612  21.632   1.789
65066W        W26355   4.742  27.632   4.136
65067W        W26356  13.215  21.129   0.808
65068W        W26357   4.895   3.924   2.191
65069W        W26358  21.126  35.507  10.642
65070W        W26359  15.659  25.566  12.868
65071W        W26360  22.108  35.603   0.347
65072W        W26361  35.561  23.686   2.261
65073W        W26362  17.747  31.457  10.990
65074W        W26363  21.101  16.690   2.824
65075W        W26364  39.979   8.315  14.340
65076W        W26365  28.145  18.067   1.838
65077W        W26366   2.732   8.329   4.124
65078W        W26367  24.985  26.652   1.798
65079W        W26368  13.170  24.097   5.110
65080W        W26369  40.945  32.134   1.736
65081W        W26370  12.154  22.616  10.522
65082W        W26371  17.192  12.347  13.934
65083W        W26372  30.060  10.162  10.951
65084W        W26373  30.082  25.703  14.454
65085W        W26374  24.186  37.344   5.291
65086W        W26375  37.444   1.766   1.875
65087W        W26376  44.867  13.651   3.193
65088W        W26377  14.326   6.779  10.967
65089W        W26378  28.149  11.723  11.105
65090W        W26379  27.060  27.047  14.016
65091W        W26380  14.711   4.835  13.315
65092W        W26381  39.390  43.766  14.442
65093W        W26382  37.376   5.260  13.331
65094W        W26383  37.400  23.585  10.979
65095W        W26384  35.485  38.390  12.983
65096W        W26385   3.338  39.482  11.001
65097W        W26386  11.351  33.549  14.396
65098W        W26387  19.712  32.093   2.897
65099W        W26388  14.094  37.415   0.878
65100W        W26389  40.955   2.903   0.900
65101W        W26390  10.300  25.526   3.741
65102W        W26391   3.815   3.457  13.903
65103W        W26392   8.752  22.999   0.276
65104W        W26393   7.236  15.683   4.762
65105W        W26394   9.321  28.970  11.609
65106W        W26395  34.486  12.292   4.221
65107W        W26396  39.548  12.805   1.872
65108W        W26397   3.345   7.694   1.754
65109W        W26398  33.571  10.685  12.497
65110W        W26399  13.224  10.354  11.117
65111W        W26400  10.748   2.419   0.255
65112W        W26401   1.394  19.245  14.825
65113W        W26402  22.073  22.038   0.321
65114W        W26403  23.682  36.958  14.903
65115W        W26404  36.999  11.735  13.035
65116W        W26405   6.729  22.682   3.347
65117W        W26406  33.999  14.628  14.960
65118W        W26407  32.450  14.186   4.710
65119W        W26408  19.156  26.122   2.245
65120W        W26409  13.328  43.510   3.847
65121W        W26410  12.691   4.885   5.276
65122W        W26411  13.830  18.255   1.820
65123W        W26412  39.808  16.600   3.659
65124W        W26413  19.224   3.269   9.982
65125W        W26414  36.057  15.180   2.316
65126W        W26415  28.434  17.574   1.331
65127W        W26416  11.276  41.977   3.635
65128W        W26417  39.357  15.199   0.833
65129W        W26418  19.602  39.325  10.938
65130W        W26419  14.230  19.546  11.098
65131W        W26420  28.934  42.032  11.968
65132W        W26421  36.444  15.636  10.632
65133W        W26422  18.588  15.133   1.269
65134W        W26423  25.019  24.078   5.595
65135W        W26424  36.545  29.945   2.883
65136W        W26425   5.832  42.428   2.765
65137W        W26426  33.555  21.735   3.805
65138W        W26427  34.515  13.107  10.523
65139W        W26428  24.478   6.806  11.571
65140W        W26429  23.621  42.926  10.020
65141W        W26430  14.804  38.934   0.736
65142W        W26431   8.864   9.187  12.488
65143W        W26432  40.371  13.780  10.917
65144W        W26433  27.657  40.021  13.436
65145W        W26434   4.771  11.625  11.413
65146W        W26435   0.383  22.081  14.008
65147W        W26436   7.730   7.410  12.950
65148W        W26437  32.927  40.498  14.452
65149W        W26438  13.132   4.794  11.401
65150W        W26439  41.983  41.312  10.068
65151W        W26440  26.605  44.485  12.541
65152W        W26441   5.902  38.509  12.087
65153W        W26442  23.498  17.209  11.872
65154W        W26443  44.790  24.626  12.432
65155W        W26444   5.307  36.018   1.362
65156W        W26445  10.362  21.611   2.826
65157W        W26446   3.758   4.731  14.883
65158W        W26447  37.924   1.375   1.290
65159W        W26448  25.994  15.210  13.945
65160W        W26449  22.175  12.238  11.102
65161W        W26450  26.674  20.562   2.828
65162W        W26451   3.447   8.799  14.433
65163W        W26452  19.139   0.468   1.897
65164W        W26453  36.379  38.002   1.917
65165W        W26454  24.662  18.673  13.953
65166W        W26455   1.291  13.325  11.541
65167W        W26456   9.794  20.048   2.345
65168W        W26457  12.619  14.189  14.013
65169W        W26458   8.785  12.834  11.471
65170W        W26459  41.975  27.033  12.061
65171W        W26460  38.874  10.303  12.475
65172W        W26461  40.470  29.072  13.445
65173W        W26462  31.037  22.112  14.428
65174W        W26463  30.026  13.343   0.965
65175W        W26464   2.783  38.858   2.870
65176W        W26465  10.216   7.191   2.356
65177W        W26466   3.719  10.648  14.799
65178W        W26467   2.414   0.877   5.243
65179W        W26468  38.437  16.668   3.684
65180W        W26469  25.074  21.237  12.996
65181W        W26470  10.194  30.570  11.585
65182W        W26471  24.708  30.436   0.850
65183W        W26472  34.525  21.021  14.357
65184W        W26473   2.753  44.356  13.034
65185W        W26474   8.346   6.223  13.806
65186W        W26475  39.533   5.327   0.903
65187W        W26476  35.492  31.897  10.980
65188W        W26477  42.797   7.893  13.019
65189W        W26478  21.697  42.976   3.771
65190W        W26479  15.780   8.891  14.319
65191W        W26480  27.516  28.955   3.195
65192W        W26481  34.115  44.857  13.944
65193W        W26482   4.906   9.764  10.069
65194W        W26483  13.773  35.375   3.831
65195W        W26484  43.367  10.330   4.778
65196W        W26485  18.210  26.978  14.844
65197W        W26486  34.918  19.109   2.838
65198W        W26487  23.659  25.133   0.744
65199W        W26488  13.230  34.458  10.050
65200W        W26489  19.193  44.423   2.892
65201W        W26490   1.857  37.487  11.075
65202W        W26491   0.931  42.800  12.019
65203W        W26492  11.837  35.929   1.834
65204W        W26493   5.266  23.658   4.747
65205W        W26494  14.118  33.465  13.828
65206W        W26495  13.246  20.542   4.325
65207W        W26496  20.028  20.271   4.694
65208W        W26497  12.358  30.118   4.134
65209W        W26498  15.243  34.502  10.556
65210W        W26499  20.154   1.854   4.267
65211W        W26500  13.295   7.737  13.860
65212W        W26501  12.818  18.254  13.011
65213W        W26502  27.645  30.971  11.401
65214W        W26503  35.485  31.052   1.786
65215W        W26504  34.387  31.059  10.440
65216W        W26505  11.327  11.294   4.799
65217W        W26506  40.484  10.813  11.425
65218W        W26507   6.208  19.233   4.723
65219W        W26508  41.476   0.252   2.282
65220W        W26509  30.930  44.847  10.947
65221W        W26510  23.009  38.820  14.429
65222W        W26511   1.800  11.727  13.521
65223W        W26512  27.004  11.809  14.835
65224W        W26513  12.775  42.291   3.738
65225W        W26514  21.067  22.571   1.868
65226W        W26515  38.332  21.114   3.229
65227W        W26516  14.828  19.699  10.004
65228W        W26517  11.812  21.673   1.740
65229W        W26518  26.045  43.776  13.309
65230W        W26519   5.241  30.630   3.385
65231W        W26520   4.840  37.382  10.543
65232W        W26521  42.432   5.817   2.348
65233W        W26522   3.400   7.912   1.354
65234W        W26523  27.645  34.539   2.663
65235W        W26524   3.751  40.386  10.455
65236W        W26525  22.135  15.109   4.671
65237W        W26526   6.707  31.083  10.576
65238W        W26527  40.433  31.544  14.888
65239W        W26528   5.776  38.937  12.935
65240W        W26529  30.459  44.803  10.991
65241W        W26530   9.323  30.109  11.939
65242W        W26531  35.911  23.520   0.347
65243W        W26532  43.985   5.760  11.887
65244W        W26533  41.985  23.175   3.805
65245W        W26534  15.713  11.853   0.368
65246W        W26535  26.496  30.549  10.620
65247W        W26536  33.399   6.792  10.553
65248W        W26537   4.847  26.065  12.901
65249W        W26538  42.466  22.561  11.884
65250W        W26539  18.682  18.570  10.601
65251W        W26540  11.333  22.699   0.455
65252W        W26541  35.453   4.748   1.271
65253W        W26542  33.954  10.260  13.799
65254W        W26543  25.220  26.976   0.342
65255W        W26544  32.046  13.739   3.782
65256W        W26545  30.481  13.625   4.336
65257W        W26546  36.028  37.035   3.836
65258W        W26547   1.374  11.657  10.406
65259W        W26548  14.202  35.456   0.962
65260W        W26549  22.119  20.638  12.369
65261W        W26550   6.773  36.083   1.290
65262W        W26551  10.370   4.922   3.199
65263W        W26552  36.021  13.157   3.371
65264W        W26553  21.047  30.109  12.968
65265W        W26554   1.324  21.715   1.812
65266W        W26555  20.698  13.129   1.446
65267W        W26556  40.451   5.856  12.520
65268W        W26557  30.069  25.564  12.509
65269W        W26558  13.695  32.423  13.318
65270W        W26559  40.535  19.638  13.399
65271W        W26560  19.066  39.494   0.280
65272W        W26561  44.481  14.300  14.371
65273W        W26562  34.075  22.068  12.472
65274W        W26563   2.345  26.167  12.889
65275W        W26564  13.750  19.715   0.771
65276W        W26565  10.230  22.164   3.829
65277W        W26566  34.885  12.752  13.329
65278W        W26567  25.087  27.642  13.800
65279W        W26568  33.080  30.628   4.284
65280W        W26569  38.436  43.315   2.298
65281W        W26570  35.997  39.522   4.615
65282W        W26571  31.153  41.989   0.292
65283W        W26572  16.207  43.389   1.307
65284W        W26573  16.276  30.643  12.428
65285W        W26574  22.020  43.998  13.928
65286W        W26575  42.283  27.501  11.974
65287W        W26576  28.491  20.057  10.455
65288W        W26577   2.753   3.711   0.424
65289W        W26578  42.906  28.049  12.981
65290W        W26579   6.861  13.298   0.808
65291W        W26580  36.933  32.059   0.412
65292W        W26581  25.084   6.785  14.423
65293W        W26582  33.036  21.674  12.947
65294W        W26583  26.953  25.619  11.091
65295W        W26584  26.584   2.961  11.483
65296W        W26585  19.601   3.262   5.147
65297W        W26586  18.634  41.904  10.434
65298W        W26587  34.418   9.882   2.380
65299W        W26588   3.732   1.847  11.566
65300W        W26589   6.215  20.765  12.359
65301W        W26590   6.903  36.521   2.332
65302W        W26591  32.450  24.003  13.525
65303W        W26592  41.440  28.624   0.772
65304W        W26593  21.536  25.477   4.662
65305W        W26594   5.872  13.235  11.954
65306W        W26595  11.301   0.335  11.881
65307W        W26596  19.055   4.367  10.442
65308W        W26597  43.962  32.052   3.692
65309W        W26598  37.956  25.602   0.855
65310W        W26599   4.760  40.002  12.361
65311W        W26600  24.512   3.324  14.826
65312W        W26601  28.640  22.681   1.361
65313W        W26602  16.636  10.254  11.010
65314W        W26603   6.793  19.109   2.735
65315W        W26604   3.886  19.551  11.550
65316W        W26605   5.800  21.021  14.876
65317W        W26606   4.229  39.892  14.847
65318W        W26607   1.738  12.637  14.817
65319W        W26608   1.754  27.165  10.503
65320W        W26609  38.362  14.661   2.686
65321W        W26610  36.945  44.925  11.089
65322W        W26611   9.162  14.164   4.125
65323W        W26612  12.739  40.022  13.461
65324W        W26613  38.359   8.235   0.908
65325W        W26614   5.800  27.527  12.061
65326W        W26615  38.839   2.403   2.321
65327W        W26616  20.033  34.498   2.317
65328W        W26617  30.606  38.839  13.969
65329W        W26618   9.304  34.476  11.102
65330W        W26619   2.330  20.075   0.839
65331W        W26620  23.544  41.531  11.522
65332W        W26621  43.472   9.352  10.493
65333W        W26622   9.770  18.287   4.182
65334W        W26623  43.954  44.297   3.805
65335W        W26624   9.174  17.098   0.893
65336W        W26625  11.209  23.579  12.059
65337W        W26626  36.093  11.286  12.578
65338W        W26627  35.092  17.182  13.915
65339W        W26628  10.644  39.539  13.329
65340W        W26629  30.484  22.653   3.744
65341W        W26630  43.515   8.661  14.025
65342W        W26631  21.657  42.858  12.426
65343W        W26632  18.641  27.506  14.354
65344W        W26633  17.677  28.096  10.421
65345W        W26634   1.468  12.150   0.967
65346W        W26635  26.148  20.562  12.440
65347W        W26636  31.550  35.453   4.311
65348W        W26637  18.131  44.982   2.858
65349W        W26638  10.138   5.363   4.729
65350W        W26639  33.033  15.669  14.394
65351W        W26640  16.675   4.427  12.827
65352W        W26641  10.226  22.680  11.898
65353W        W26642  25.970  16.797  11.024
65354W        W26643  21.595  27.460  12.443
65355W        W26644  34.513   0.858   0.282
65356W        W26645  14.719  40.846   2.250
65357W        W26646  34.893  13.686  12.480
65358W        W26647  12.856  21.625   1.432
65359W        W26648  39.358  32.903  14.905
65360W        W26649  19.552   7.197   4.784
65361W        W26650  13.200   0.401   3.858
65362W        W26651  17.709  22.087   0.818
65363W        W26652  11.371  44.401   3.189
65364W        W26653  10.309  13.254  14.497
65365W        W26654  19.541  27.182   1.799
65366W        W26655  44.995  36.998   4.285
65367W        W26656  31.077  16.126   1.219
65368W        W26657  11.223  23.549   3.251
65369W        W26658   0.271   6.415   4.212
65370W        W26659  15.768  18.656   3.720
65371W        W26660  14.672   1.309  12.983
65372W        W26661  19.147  19.280   1.869
65373W        W26662   0.335  26.571  12.528
65374W        W26663  42.783  26.473  11.972
65375W        W26664   5.860   7.779   0.740
65376W        W26665  33.026  26.526   1.827
65377W        W26666  22.098  40.421  13.816
65378W        W26667  24.984  16.113   1.804
65379W        W26668  36.875  30.647   4.198
65380W        W26669  33.488  43.363  13.895
65381W        W26670  29.948  13.239   3.755
65382W        W26671   2.407  24.495   3.321
65383W        W26672  25.191  40.489   0.820
65384W        W26673  34.600  10.688  12.044
65385W        W26674  25.575  18.199   4.760
65386W        W26675  27.486   8.863   2.374
65387W        W26676  43.393  32.121  12.444
65388W        W26677  22.735  41.369  11.081
65389W        W26678  12.673   9.198   0.318
65390W        W26679  18.757  31.484  14.877
65391W        W26680   0.885  28.675  13.857
65392W        W26681  41.859  33.431   4.242
65393W        W26682  39.991  27.667   2.181
65394W        W26683  39.424  13.720   0.471
65395W        W26684  31.973   7.887  12.353
65396W        W26685  10.705  15.299   4.780
65397W        W26686   3.433   6.374   4.314
65398W        W26687  17.138  16.694  10.504
65399W        W26688  19.075  32.520  11.951
65400W        W26689  44.979  35.867  12.058
65401W        W26690  22.115  28.669   3.165
65402W        W26691   4.813  17.713   2.226
65403W        W26692  11.703  23.627   0.289
65404W        W26693  34.116  15.289   3.686
65405W        W26694   2.739  41.994   4.716
65406W        W26695  22.696   7.251   4.258
65407W        W26696   0.798  33.105   3.758
65408W        W26697   3.744   1.963   3.686
65409W        W26698  21.032   4.254   3.775
65410W        W26699   6.777  21.170  11.121
65411W        W26700  27.041  33.103   3.732
65412W        W26701  40.360  24.980  13.486
65413W        W26702  32.608  19.123  10.620
65414W        W26703  34.049  33.974   4.189
65415W        W26704  19.657  41.955  12.096
65416W        W26705  10.874   5.273  12.021
65417W        W26706  19.729  23.005  13.502
65418W        W26707  20.650   6.203   1.837
65419W        W26708  37.029  40.821  10.507
65420W        W26709  21.033   5.206   1.921
65421W        W26710   4.712  36.524  13.518
65422W        W26711  43.804  20.236   2.215
65423W        W26712  15.718  14.828   4.210
65424W        W26713  38.862  14.262  11.528
65425W        W26714  10.756  24.536   4.706
65426W        W26715   3.894  10.772   1.273
65427W        W26716   0.875  24.028  13.819
65428W        W26717  14.751  11.747  12.505
65429W        W26718  35.570  27.676  11.883
65430W        W26719  15.271  31.136  11.868
65431W        W26720   9.292  40.434   3.313
65432W        W26721  32.976   0.963   1.333
65433W        W26722  16.197  26.512  11.048
65434W        W26723   6.905  24.078  14.410
65435W        W26724  42.488  42.983  12.980
65436W        W26725  42.342   8.799   1.305
65437W        W26726  19.668  27.971  12.515
65438W        W26727   0.254   7.320   2.379
65439W        W26728  18.110  10.681  12.000
65440W        W26729  42.829  27.952  14.878
65441W        W26730  21.032  34.053   2.316
65442W        W26731   3.424  32.597  10.621
65443W        W26732   0.296  31.475   4.609
65444W        W26733  31.551  44.339   2.404
65445W        W26734   3.798  40.471   2.791
65446W        W26735  34.031  31.081   2.307
65447W        W26736   8.786   5.893   2.730
65448W        W26737  17.702  38.434   3.345
65449W        W26738  22.553  27.593  12.960
65450W        W26739  30.637  15.684  13.049
65451W        W26740  42.032  28.463   2.844
65452W        W26741  24.516  23.719   0.942
65453W        W26742  18.614  35.064  11.609
65454W        W26743  44.830  21.662   2.888
65455W        W26744  43.785  30.497   0.749
65456W        W26745  31.505  27.118   3.324
65457W        W26746  33.505  26.647  14.389
65458W        W26747  27.192  26.184  13.970
65459W        W26748  13.756  16.742  13.924
65460W        W26749  39.358  39.912   4.743
65461W        W26750  36.952  38.945  11.959
65462W        W26751  42.937  36.377   2.720
65463W        W26752  27.682  20.756   3.779
65464W        W26753  27.677  22.672  10.915
65465W        W26754   0.853  35.975  11.463
65466W        W26755  25.574  12.753  13.967
65467W        W26756  27.681   3.293   2.889
65468W        W26757   0.914   8.719   3.178
65469W        W26758  40.905  32.558   1.260
65470W        W26759  29.556   7.398   0.818
65471W        W26760  34.605  30.987   4.759
65472W        W26761  22.711   1.370  11.432
65473W        W26762  28.089  26.036  11.971
65474W        W26763   6.365  38.847  10.990
65475W        W26764  29.054  39.943  12.362
65476W        W26765  26.638  25.086  12.497
65477W        W26766  34.917   4.277   4.345
65478W        W26767   8.268   3.332   3.652
65479W        W26768   1.243   2.459   3.181
65480W        W26769  39.011   7.408   4.825
65481W        W26770  42.442  16.577   3.677
65482W        W26771  34.876  16.763   0.879
65483W        W26772  33.944  40.454   4.632
65484W        W26773  44.457  27.032   1.928
65485W        W26774  28.447  24.702   3.871
65486W        W26775  32.614  43.938  13.517
65487W        W26776  43.806  33.973  11.978
65488W        W26777  33.015   5.721   3.676
65489W        W26778  28.132  31.508   2.777
65490W        W26779  10.765  36.048  14.412
65491W        W26780  17.232  29.624   4.801
65492W        W26781   6.837  43.491   2.719
65493W        W26782  35.558   5.818   2.236
65494W        W26783  26.613  41.983   0.457
65495W        W26784  16.767  38.394  12.885
65496W        W26785  13.135  17.158   3.334
65497W        W26786  39.821  42.955  13.023
65498W        W26787  31.601   5.423  12.080
65499W        W26788  23.031  24.636  13.973
65500W        W26789  30.010  17.169  11.489
65501W        W26790  21.129  28.579   1.226
65502W        W26791   6.919  41.399  12.550
65503W        W26792   4.801  36.423  13.913
65504W        W26793  18.158   4.702   4.322
65505W        W26794  27.634  33.594   3.843
65506W        W26795   7.347   3.272  12.891
65507W        W26796  26.956  36.024   0.760
65508W        W26797  21.579   7.207  13.395
65509W        W26798  11.678  35.592   0.338
65510W        W26799  34.505  32.607   1.719
65511W        W26800  36.097   3.316   3.705
65512W        W26801  43.355  22.188   4.607
65513W        W26802   0.366  27.525   0.893
65514W        W26803  20.529  32.608  12.887
65515W        W26804  37.386   6.273  14.320
65516W        W26805  40.853  14.138  14.322
65517W        W26806   1.311  44.334  11.020
65518W        W26807   2.765   3.245   2.826
65519W        W26808  28.488  36.993   3.364
65520W        W26809  11.680   5.358  14.303
65521W        W26810  20.040  23.633  12.543
65522W        W26811  19.763  26.473  14.805
65523W        W26812   6.737   3.405   1.837
65524W        W26813  37.945  42.799   2.685
65525W        W26814   2.351  40.836  12.481
65526W        W26815   8.376  24.004  11.564
65527W        W26816  22.117  18.677  12.554
65528W        W26817   0.269  21.063   3.694
65529W        W26818  43.978  17.281   1.273
65530W        W26819  19.176   0.984   2.698
65531W        W26820  22.694  32.523   4.820
65532W        W26821  24.051  35.497  14.327
65533W        W26822  27.014   6.381  13.355
65534W        W26823  13.635  29.013   1.233
65535W        W26824  36.538   5.376  13.509
65536W        W26825  44.269  20.593  13.849
65537W        W26826  20.064  38.339  11.010
65538W        W26827  13.842  37.476   1.781
65539W        W26828  41.373  35.079  14.388
65540W        W26829  26.545  20.060  14.319
65541W        W26830   9.645  36.870   3.788
65542W        W26831   9.357  40.400   1.719
65543W        W26832   5.775  38.877  11.380
65544W        W26833   7.351  19.224   0.473
65545W        W26834  15.303  18.743   0.268
65546W        W26835  37.945  16.244  10.011
65547W        W26836  30.020  42.919   2.191
65548W        W26837  25.191  18.195  11.442
65549W        W26838  15.198  16.136   4.277
65550W        W26839  30.566  40.821  13.058
65551W        W26840  31.503  33.926  14.876
65552W        W26841  13.176  22.697  12.370
65553W        W26842  27.194   5.235  10.435
65554W        W26843  36.846  29.653  13.052
65555W        W26844  30.977  35.076   3.655
65556W        W26845  39.529  22.721   2.332
65557W        W26846  30.158   8.218  13.360
65558W        W26847  30.604  18.680   1.391
65559W        W26848   3.711  19.609  14.849
65560W        W26849   4.351  38.850   2.394
65561W        W26850  29.453  42.301  13.836
65562W        W26851  32.031  32.453   4.796
65563W        W26852  34.466  27.579   1.789
65564W        W26853  35.020  31.000  11.071
65565W        W26854   2.746   9.857  13.420
65566W        W26855  21.729  33.885   0.826
65567W        W26856   3.396  26.590   9.929
65568W        W26857  40.371  31.073  10.554
65569W        W26858  30.023   5.794   0.829
65570W        W26859  39.875  35.971  11.601
65571W        W26860   0.840  26.495   0.889
65572W        W26861   0.475  23.582  12.413
65573W        W26862  22.136   0.437   0.918
65574W        W26863  25.690  25.213  10.968
65575W        W26864   5.840   1.268   2.684
65576W        W26865  22.168  19.263  13.051
65577W        W26866  14.247   1.904  11.373
65578W        W26867   7.265  25.164  11.968
65579W        W26868   3.288   4.822   3.150
65580W        W26869  27.131   3.221   3.852
65581W        W26870  31.411   3.326  13.442
65582W        W26871  39.906  21.579  12.382
65583W        W26872  35.414  11.332  11.544
65584W        W26873  17.622  34.973   4.706
65585W        W26874  36.039  32.480   3.787
65586W        W26875  34.974   1.285   0.873
65587W        W26876   1.256  17.129   0.945
65588W        W26877  16.662  36.035   2.794
65589W        W26878  32.114  36.571   1.723
65590W        W26879   9.258  43.812   0.358
65591W        W26880  35.934  41.427   3.366
65592W        W26881   2.916   0.463   0.243
65593W        W26882  37.383   6.824  12.429
65594W        W26883  13.209  19.733   0.731
65595W        W26884  25.481  30.013  11.416
65596W        W26885  21.099  10.841  13.462
65597W        W26886  19.728  24.584   3.330
65598W        W26887  40.308  32.136   5.244
65599W        W26888  34.456   1.413   9.929
65600W        W26889   8.165  28.622   3.704
65601W        W26890  31.488  44.009   3.760
65602W        W26891  32.051  41.411   3.360
65603W        W26892  37.342  33.946   2.368
65604W        W26893  20.712  40.826   1.891
65605W        W26894  37.572  14.160   4.202
65606W        W26895  32.393  34.025  13.955
65607W        W26896  33.039   6.242  13.987
65608W        W26897   7.245  40.415  10.939
65609W        W26898  27.469   5.320   4.834
65610W        W26899  12.271  26.655  14.013
65611W        W26900   0.941  21.606   1.342
65612W        W26901  24.651  43.380   3.810
65613W        W26902   8.740  26.100   1.448
65614W        W26903  37.533  44.434  13.910
65615W        W26904  44.817  18.695  11.874
65616W        W26905  36.575   8.397  11.393
65617W        W26906  32.086  27.073   3.341
65618W        W26907   6.256  21.541   3.838
65619W        W26908  21.038  25.591  11.128
65620W        W26909  22.193  16.724   3.776
65621W        W26910  12.195  22.113   3.230
65622W        W26911   8.735  28.980  11.888
65623W        W26912  22.707   0.370   1.866
65624W        W26913  33.062   1.898  11.372
65625W        W26914   2.234  41.840   0.301
65626W        W26915  26.135   3.890   4.321
65627W        W26916  33.923  20.688  13.048
65628W        W26917   7.776  18.108  11.385
65629W        W26918   4.294  26.638   1.233
65630W        W26919  35.872  27.551   3.655
65631W        W26920   2.231  24.182   2.779
65632W        W26921  28.568  40.385   2.800
65633W        W26922   0.844  30.960  14.409
65634W        W26923  38.912  31.531   1.413
65635W        W26924  29.044  27.084  11.580
65636W        W26925  26.174  35.380   4.787
65637W        W26926  41.379  25.653   3.671
65638W        W26927  29.973   2.250   2.743
65639W        W26928  42.884  22.739   0.794
65640W        W26929  12.700  42.927  14.970
65641W        W26930   5.889  10.667  12.562
65642W        W26931  41.033  37.527   1.369
65643W        W26932  24.624  36.408   4.604
65644W        W26933   6.313  24.083  14.361
65645W        W26934  11.718   0.385  12.852
65646W        W26935  40.813  38.898  14.421
65647W        W26936  38.365  15.253  11.612
65648W        W26937  23.038  22.741  12.343
65649W        W26938  33.432  38.445   1.293
65650W        W26939  42.460  41.996  11.894
65651W        W26940  40.358  21.757   4.343
65652W        W26941   6.262   3.381   3.192
65653W        W26942  18.268  37.501   0.350
65654W        W26943  22.545  34.933   1.846
65655W        W26944  24.997   8.367  11.008
65656W        W26945  17.128  37.937   1.868
65657W        W26946  22.222  37.009  13.399
65658W        W26947  28.141   8.695  12.005
65659W        W26948  19.712  10.845   2.307
65660W        W26949  22.530  31.914   2.710
65661W        W26950  25.675  31.403  10.985
65662W        W26951   6.745  40.801  12.499
65663W        W26952  36.909  18.712  11.466
65664W        W26953   1.326   8.277   2.312
65665W        W26954  11.282  42.907   2.675
65666W        W26955  10.635   6.738  14.360
65667W        W26956  12.811  25.048   2.687
65668W        W26957  17.148  34.505  12.014
65669W        W26958  10.672  10.827  14.810
65670W        W26959  38.535  42.857  11.077
65671W        W26960  28.581  34.969  10.634
65672W        W26961   7.720  44.916   2.239
65673W        W26962   6.823  36.998   1.914
65674W        W26963  30.119  35.904   3.333
65675W        W26964  14.707  33.037  11.484
65676W        W26965  32.510  23.030   2.898
65677W        W26966   3.296  29.461   4.310
65678W        W26967  24.127   4.932  13.401
65679W        W26968  15.182  38.455   1.703
65680W        W26969  25.561  29.478   1.442
65681W        W26970   3.949   3.937  12.504
65682W        W26971   6.350  24.170   1.279
65683W        W26972  36.856  20.539  10.953
65684W        W26973  39.937  21.233   3.756
65685W        W26974  20.133   8.374  13.493
65686W        W26975  37.009  32.116  14.352
65687W        W26976  34.897  16.317  12.460
65688W        W26977  33.106  22.074  10.629
65689W        W26978  21.017   4.371   1.247
65690W        W26979  12.316  17.217  13.415
65691W        W26980  34.034  26.663   1.774
65692W        W26981  19.217   2.845  12.067
65693W        W26982  33.415  21.191  13.814
65694W        W26983  17.569  22.014   4.179
65695W        W26984  20.153   8.824  14.830
65696W        W26985  36.014  31.428  14.371
65697W        W26986   4.847  22.533  11.430
65698W        W26987   5.211   5.731  14.772
65699W        W26988  40.916  37.946   0.794
65700W        W26989  44.938  20.568  11.968
65701W        W26990  12.737   9.185  10.415
65702W        W26991  35.382   2.242  13.831
65703W        W26992  37.406   8.344   0.902
65704W        W26993  13.123  41.455   4.234
65705W        W26994  15.227  38.004   3.293
65706W        W26995   2.813   0.256  11.940
65707W        W26996  21.542   3.369   0.385
65708W        W26997  21.169  41.843   2.279
65709W        W26998  10.812  38.443   1.813
65710W        W26999   0.345  17.738   0.376
65711W        W27000   3.376  11.348  11.985
65712W        W27001  26.694   7.334   0.831
65713W        W27002   1.317   7.714  11.947
65714W        W27003  24.588  20.619   3.342
65715W        W27004   2.779   3.825  14.872
65716W        W27005  26.698  15.594   1.244
65717W        W27006  11.268  42.346   0.400
65718W        W27007  16.270  33.920   3.299
65719W        W27008  32.456  24.064  13.858
65720W        W27009  14.329  31.563  10.604
65721W        W27010  44.405  16.792   5.092
65722W        W27011  12.835   2.946   2.690
65723W        W27012  14.236  29.658   3.725
65724W        W27013  22.744  22.130   3.756
65725W        W27014   6.192   4.917   1.297
65726W        W27015  27.981  33.524   0.903
65727W        W27016   4.254   7.680   3.236
65728W        W27017   3.910  38.340  11.390
65729W        W27018  19.733  21.643   1.791
65730W        W27019  30.467  42.447   3.183
65731W        W27020   4.240   3.820  12.441
65732W        W27021   4.410  36.018  12.867
65733W        W27022  42.896   6.364   0.277
65734W        W27023   6.756  21.029   2.283
65735W        W27024   0.749  17.595   0.437
65736W        W27025  39.339  37.512   2.861
65737W        W27026  35.390   6.423   1.249
65738W        W27027  12.144  26.526   2.351
65739W        W27028   5.776  16.230   1.788
65740W        W27029  31.055  42.418  14.819
65741W        W27030   3.824  37.365  14.847
65742W        W27031   1.791  37.853  11.890
65743W        W27032  14.191  24.187   3.681
65744W        W27033  21.255  28.675   3.358
65745W        W27034   6.366  20.146  14.424
65746W        W27035   7.803  27.090   3.662
65747W        W27036  37.059   9.871  14.514
65748W        W27037  44.848  42.808  12.522
65749W        W27038  30.116  20.131  11.529
65750W        W27039  10.226   0.942  12.024
65751W        W27040  33.626  42.471  14.368
65752W        W27041   7.767  33.423   3.817
65753W        W27042  34.036  36.891   3.323
65754W        W27043  29.987  23.659  10.616
65755W        W27044  31.006  43.485   1.744
65756W        W27045  24.160  12.618  13.811
65757W        W27046  12.362  39.974  14.293
65758W        W27047   0.828  25.088  12.883
65759W        W27048  20.050  36.463  13.924
65760W        W27049  19.165   2.730  12.521
65761W        W27050  27.159  21.225   2.828
65762W        W27051   9.798  35.449   3.724
65763W        W27052  36.561  34.441  11.592
65764W        W27053   0.448  40.985   3.793
65765W        W27054  10.140  20.606  10.502
65766W        W27055  15.225  25.539  10.633
65767W        W27056  44.917   8.677   4.610
65768W        W27057  18.159  28.543   4.140
65769W        W27058  26.511  22.712   3.867
65770W        W27059  35.555  16.309  10.416
65771W        W27060  43.357  20.674  12.863
65772W        W27061  44.901  34.588  10.555
65773W        W27062   2.874  24.525  12.857
65774W        W27063  40.891  23.519  12.903
65775W        W27064  26.127   7.371  12.961
65776W        W27065  19.109   4.333  13.999
65777W        W27066  27.450  21.566  14.452
65778W        W27067  16.295  21.133   0.772
65779W        W27068  20.033   4.808  14.964
65780W        W27069   7.274  32.938   0.957
65781W        W27070  10.747  36.921   5.132
65782W        W27071   7.235  36.907  12.870
65783W        W27072  39.486  43.831  12.832
65784W        W27073  22.017  34.995   1.917
65785W        W27074  10.637  17.211   2.819
65786W        W27075  11.759   2.815   4.170
65787W        W27076  36.553  30.027  13.916
65788W        W27077  17.150  42.836   5.321
65789W        W27078   9.278  20.038  10.578
65790W        W27079  39.863  27.062  12.899
65791W        W27080  37.579  25.155   3.331
65792W        W27081  15.725  18.156   3.274
65793W        W27082  39.979   5.264  14.308
65794W        W27083  21.739  20.571   1.760
65795W        W27084  28.946  24.088  14.842
65796W        W27085  41.023  18.197  12.897
65797W        W27086   0.818  38.976  10.096
65798W        W27087   2.862  15.263   3.190
65799W        W27088  38.369  13.735   4.313
65800W        W27089  18.058   1.257   1.249
65801W        W27090  32.537   4.821   9.486
65802W        W27091  28.600  31.016  13.506
65803W        W27092   4.240  21.654   3.658
65804W        W27093  38.063  41.861   3.811
65805W        W27094  23.497  29.086   1.833
65806W        W27095   8.405   8.330  11.023
65807W        W27096  44.941  22.122  13.904
65808W        W27097   2.760  29.060  14.937
65809W        W27098  24.487   5.879   0.768
65810W        W27099  18.725  39.383  14.992
65811W        W27100  27.449  21.542  14.816
65812W        W27101  40.007  44.879   3.282
65813W        W27102  16.238  28.133  10.592
65814W        W27103  32.579  25.027  10.896
65815W        W27104  24.698  40.421  11.102
65816W        W27105  26.183  19.146  13.907
65817W        W27106  21.540  12.245   3.688
65818W        W27107  37.350  37.348   0.410
65819W        W27108  41.380  39.941  12.874
65820W        W27109  29.112   0.349   1.887
65821W        W27110  30.938   7.873  10.512
65822W        W27111   5.322  27.961   0.923
65823W        W27112  20.706  26.564  13.368
65824W        W27113  36.030  11.849  12.576
65825W        W27114   0.936  13.785   4.230
65826W        W27115  14.596  34.900  13.492
65827W        W27116  37.056  10.289   3.735
65828W        W27117  20.083  43.392   0.930
65829W        W27118  19.160  23.655  14.912
65830W        W27119  13.662  26.634   1.698
65831W        W27120  30.423  43.796  12.463
65832W        W27121  18.202  22.124   9.639
65833W        W27122  23.514   4.371  12.490
65834W        W27123  16.660  40.996  10.587
65835W        W27124  39.065  32.617   3.695
65836W        W27125  17.694  22.652   3.839
65837W        W27126  23.620  17.637   4.227
65838W        W27127   7.715  35.015   0.846
65839W        W27128  26.954   8.317  11.601
65840W        W27129  20.233  41.042   4.693
65841W        W27130  39.822  15.308  14.949
65842W        W27131  42.849  12.289   0.855
65843W        W27132  41.407  26.182   0.411
65844W        W27133   2.385  14.653  14.954
65845W        W27134  38.962  20.594  14.319
65846W        W27135   3.841  11.724   0.832
65847W        W27136   9.337  16.681   2.666
65848W        W27137  41.324  42.345  10.902
65849W        W27138  11.297  11.254  10.568
65850W        W27139   1.276  31.462   1.831
65851W        W27140  36.483  20.194   3.146
65852W        W27141  32.485  30.639   5.270
65853W        W27142  34.536  12.819  12.464
65854W        W27143  20.649  16.183   3.163
65855W        W27144   7.860  39.367   0.253
65856W        W27145  32.886  44.471  11.076
65857W        W27146  40.025   5.800   1.703
65858W        W27147  22.742  12.318  13.358
65859W        W27148   9.699  19.607  11.889
65860W        W27149  14.741  23.501   1.420
65861W        W27150  17.118  36.503  11.002
65862W        W27151  19.280  20.609  13.063
65863W        W27152  14.745  33.522   3.766
65864W        W27153  26.506  24.132  12.998
65865W        W27154   0.290  14.656  11.898
65866W        W27155  36.369  10.870  10.440
65867W        W27156  31.065  14.244  14.445
65868W        W27157  13.818  14.818   4.223
65869W        W27158  44.810   8.704   3.644
65870W        W27159  43.393  44.992  12.575
65871W        W27160  20.041  14.245  12.380
65872W        W27161   6.794   6.860   3.839
65873W        W27162  34.019   4.881   3.165
65874W        W27163  37.541  38.434   3.723
65875W        W27164  33.412  34.869   4.252
65876W        W27165  35.976  25.695   3.716
65877W        W27166  31.973   5.425  10.551
65878W        W27167  17.594  44.407   4.142
65879W        W27168  40.321  30.063  11.124
65880W        W27169  11.342  11.718   1.435
65881W        W27170  26.104  43.868   4.675
65882W        W27171  37.905  28.069   1.330
65883W        W27172   4.212  40.878   2.294
65884W        W27173  14.094  17.620  11.126
65885W        W27174  25.587  40.508  12.500
65886W        W27175  17.569  25.515  12.861
65887W        W27176   3.451  42.498   4.263
65888W        W27177  20.168  36.484  12.452
65889W        W27178  10.720   9.380  11.545
65890W        W27179  20.109   5.707  14.456
65891W        W27180   0.917  24.143  10.446
65892W        W27181  20.733  37.057  11.435
65893W        W27182   9.875  10.207  10.619
65894W        W27183  15.642  43.372   1.333
65895W        W27184  26.615  17.637  10.905
65896W        W27185  22.024  18.195   3.359
65897W        W27186   9.654   7.908   3.745
65898W        W27187  40.957  41.437  12.436
65899W        W27188   3.277  29.586   1.302
65900W        W27189  21.218   4.351   2.728
65901W        W27190  16.275  25.082  13.058
65902W        W27191   2.953  15.223  14.491
65903W        W27192   2.265  22.172   4.771
65904W        W27193   2.323  42.898   0.482
65905W        W27194   5.912  39.370  12.373
65906W        W27195  27.556   4.781  14.458
65907W        W27196  43.788  28.643  10.914
65908W        W27197   3.434   2.282   2.696
65909W        W27198   4.736  16.215  12.372
65910W        W27199   5.327   4.750  11.929
65911W        W27200  17.106  30.151  10.537
65912W        W27201  10.658   1.734  13.053
65913W        W27202  24.997  20.271   2.404
65914W        W27203  24.029  37.938   2.223
65915W        W27204   3.874  15.180   3.775
65916W        W27205  10.248  36.469  12.407
65917W        W27206   0.873   3.357   4.160
65918W        W27207  38.530  35.403  14.959
65919W        W27208  12.846  29.616   2.341
65920W        W27209   0.396   4.217   2.259
65921W        W27210  23.138   3.865   1.814
65922W        W27211  11.299   2.936  13.055
65923W        W27212  27.115  37.527  12.942
65924W        W27213  20.145  24.091  14.944
65925W        W27214   2.376  16.570   4.789
65926W        W27215   7.367  11.846  11.375
65927W        W27216  29.085  37.849   4.251
65928W        W27217  35.540  42.016  11.903
65929W        W27218  36.413  19.655  12.873
65930W        W27219   5.326  39.380   0.343
65931W        W27220  44.886  23.220   0.311
65932W        W27221  24.230  29.937  12.875
65933W        W27222  40.939  30.159   2.383
65934W        W27223  32.629  20.589  14.341
65935W        W27224  40.357  32.047  10.452
65936W        W27225   0.318  24.687   0.440
65937W        W27226  14.189   7.353  14.317
65938W        W27227   9.790  41.356  12.416
65939W        W27228  10.675  16.639  13.545
65940W        W27229  28.565  34.110  14.320
65941W        W27230  30.948  25.129  11.528
65942W        W27231  43.927  35.579   1.746
65943W        W27232  11.735  17.294  11.389
65944W        W27233   3.304   1.853  10.146
65945W        W27234  12.636  23.118   0.756
65946W        W27235  28.085  36.395  11.530
65947W        W27236  17.684   1.471  11.864
65948W        W27237  34.578   0.439   1.818
65949W        W27238  39.501  37.897  12.516
65950W        W27239  43.293  27.476   1.712
65951W        W27240  33.920  40.993   2.226
65952W        W27241   6.806  38.424  14.404
65953W        W27242   7.693  39.371   3.378
65954W        W27243  17.690  37.487   5.279
65955W        W27244  40.536  39.897   2.346
65956W        W27245  17.633  18.706  11.417
65957W        W27246  13.608  30.108  12.881
65958W        W27247  18.667  42.986  11.960
65959W        W27248  11.708   9.674   1.410
65960W        W27249   3.242  34.069  11.030
65961W        W27250   5.902  44.910  13.051
65962W        W27251  17.134  30.480   2.391
65963W        W27252  34.486   0.938   2.862
65964W        W27253  40.042  33.405  14.502
65965W        W27254  25.687   0.818  13.028
65966W        W27255  14.286   8.681   3.632
65967W        W27256  32.103  26.545   2.292
65968W        W27257  18.581  29.652   0.763
65969W        W27258  41.823  35.088  11.944
65970W        W27259   5.232   5.692  14.426
65971W        W27260  20.157  17.574   2.813
65972W        W27261   9.687  16.671  14.894
65973W        W27262  37.463  31.906   1.445
65974W        W27263  26.179  14.181   1.309
65975W        W27264  13.188  42.870   0.891
65976W        W27265  28.057   7.213   3.202
65977W        W27266  19.586  15.737   5.085
65978W        W27267  12.324  18.111   1.231
65979W        W27268   0.755  33.578   0.305
65980W        W27269  26.594  30.489   0.248
65981W        W27270  36.975  43.400  14.838
65982W        W27271  37.087  18.633  12.340
65983W        W27272  23.605   9.386  10.486
65984W        W27273  32.066   7.272   4.201
65985W        W27274  30.585  39.814  11.607
65986W        W27275  32.556   1.285   2.879
65987W        W27276  43.796   7.214  13.471
65988W        W27277   9.822  22.132  10.436
65989W        W27278  39.476  37.975  11.913
65990W        W27279  21.662  39.833  12.443
65991W        W27280  20.580  36.998   4.730
65992W        W27281  36.406   8.235   4.704
65993W        W27282   2.797  39.962  14.775
65994W        W27283  35.042  10.223  14.942
65995W        W27284   8.180  24.074  12.042
65996W        W27285  19.546   7.752  13.541
65997W        W27286  33.443  31.915   1.802
65998W        W27287   6.896  41.504   0.952
65999W        W27288  32.081  35.534  10.895
66000W        W27289  26.130  25.124  12.967
66001W        W27290  12.199   0.764   4.237
66002W        W27291  35.409   4.907   9.604
66003W        W27292  14.823  41.879  14.960
66004W        W27293  12.737  12.635  10.618
66005W        W27294  31.607  37.546   4.747
66006W        W27295  17.798  13.741  12.426
66007W        W27296  43.298  12.118   2.234
66008W        W27297  27.190  38.902   0.956
66009W        W27298  27.193  35.981   2.662
66010W        W27299  16.616  39.894   0.398
66011W        W27300   2.262  44.351   1.814
66012W        W27301   1.324  44.981   1.718
66013W        W27302  33.042  36.095  13.939
66014W        W27303   9.886  24.675   1.377
66015W        W27304  40.961  24.525   1.239
66016W        W27305  26.621  17.177   4.613
66017W        W27306  22.670  15.802   4.829
66018W        W27307  11.184  27.676  12.034
66019W        W27308  19.717  44.800  14.032
66020W        W27309  28.016  37.484  10.611
66021W        W27310  16.676   5.819   0.918
66022W        W27311  14.212  39.521   3.183
66023W        W27312   6.703  11.185   4.212
66024W        W27313   1.797  26.965  14.994
66025W        W27314  39.451  22.205   4.696
66026W        W27315  35.921  13.704  14.999
66027W        W27316  10.226   2.733   2.221
66028W        W27317   8.356  23.061  10.547
66029W        W27318  26.623  42.023   5.308
66030W        W27319   8.711  22.018   9.976
66031W        W27320  22.721  33.517  11.937
66032W        W27321  39.869  42.494  11.511
66033W        W27322   1.406  39.959  13.377
66034W        W27323  40.351  31.410  13.888
66035W        W27324  18.781  35.983  12.927
66036W        W27325  10.150  37.440   4.274
66037W        W27326  28.117   2.310   3.214
66038W        W27327  25.622  30.026  13.826
66039W        W27328  34.487  29.108  12.092
66040W        W27329  23.181  13.304  11.914
66041W        W27330  14.749  35.095   5.208
66042W        W27331  29.586  22.547  13.452
66043W        W27332  41.322  20.132   2.884
66044W        W27333   7.388   2.926   3.184
66045W        W27334  14.730  23.546  11.547
66046W        W27335  44.464  38.890  10.066
66047W        W27336   9.213  15.210   4.695
66048W        W27337  29.029  35.399  14.307
66049W        W27338  12.259  29.133   1.236
66050W        W27339  24.143  33.453  10.913
66051W        W27340  10.383  39.320   0.817
66052W        W27341  36.525  31.973  13.485
66053W        W27342  12.789  38.369   3.713
66054W        W27343  38.984  13.790  10.587
66055W        W27344  37.877   4.216   3.752
66056W        W27345  16.149  15.261   1.402
66057W        W27346  23.127  25.046   2.845
66058W        W27347  31.918  38.914  13.970
66059W        W27348  20.598  27.494   1.910
66060W        W27349  10.760  35.546  14.014
66061W        W27350  20.115   7.769   4.709
66062W        W27351  38.999   2.281  12.546
66063W        W27352  18.165  37.973  11.535
66064W        W27353  34.511  15.661  11.021
66065W        W27354  21.251   4.717   0.403
66066W        W27355  35.553  25.198   0.266
66067W        W27356   5.898  41.901  13.354
66068W        W27357  32.496  33.965   1.928
66069W        W27358  14.200  44.991  12.435
66070W        W27359  30.118  44.281  11.967
66071W        W27360  44.384   8.896   0.328
66072W        W27361  28.967  20.222   2.838
66073W        W27362  12.645  35.992   1.337
66074W        W27363   8.896  32.623   1.228
66075W        W27364  32.024  10.356  13.982
66076W        W27365  37.413  17.769  14.342
66077W        W27366  35.588  25.562  10.528
66078W        W27367  41.808   0.480  11.868
66079W        W27368  20.100  31.115   1.256
66080W        W27369  38.425   2.836   3.821
66081W        W27370   3.721  12.175  13.531
66082W        W27371  16.749  30.091  14.016
66083W        W27372   9.801  37.440  13.858
66084W        W27373  33.918   7.850  13.043
66085W        W27374  26.119  25.142   4.807
66086W        W27375  41.043  41.492  14.353
66087W        W27376  24.667  32.612   2.249
66088W        W27377  21.581  18.091   3.789
66089W        W27378  33.579  34.953   3.307
66090W        W27379   9.299  21.636  12.934
66091W        W27380  27.988  13.648  10.136
66092W        W27381  43.464  36.923   4.773
66093W        W27382  37.014   1.378  14.504
66094W        W27383  23.592  26.539  11.429
66095W        W27384  23.079  30.041  11.379
66096W        W27385  12.271  26.623  12.398
66097W        W27386   9.386  40.047  11.866
66098W        W27387  24.128  21.535   3.750
66099W        W27388  16.657  10.656  13.899
66100W        W27389  44.283  16.194   0.378
66101W        W27390   6.378  25.103   3.638
66102W        W27391  22.525  29.942   1.427
66103W        W27392  12.857  32.582   9.576
66104W        W27393  23.110  22.203   3.757
66105W        W27394  27.057  29.429   0.469
66106W        W27395  20.605  35.996  10.929
66107W        W27396  14.201   8.777  13.811
66108W        W27397  36.009  22.582   1.299
66109W        W27398   6.861  13.166   3.721
66110W        W27399  33.129  20.551   4.207
66111W        W27400  43.453  44.875  11.860
66112W        W27401  38.059  23.017  13.396
66113W        W27402   9.860  33.113  14.369
66114W        W27403  33.058  38.023   2.746
66115W        W27404  16.288  32.602   2.845
66116W        W27405  34.879  41.527   5.182
66117W        W27406  43.441  36.407  13.916
66118W        W27407  41.920  25.540  13.536
66119W        W27408   1.428  26.572   2.231
66120W        W27409  11.665  33.578   2.331
66121W        W27410  40.453  25.685  11.444
66122W        W27411  40.354   6.821   4.167
66123W        W27412  11.326   3.298  12.365
66124W        W27413  10.845  44.798   4.677
66125W        W27414  27.093   0.743   4.781
66126W        W27415  42.991  31.977   3.758
66127W        W27416   3.308  24.095   5.257
66128W        W27417  16.745  35.434   1.902
66129W        W27418  43.305  35.460   2.280
66130W        W27419  11.739  30.527   2.419
66131W        W27420  31.073   7.692  12.988
66132W        W27421  42.333  34.868   4.162
66133W        W27422   3.926  33.402  13.436
66134W        W27423   6.737  35.595  10.523
66135W        W27424  32.924  42.503  13.385
66136W        W27425  35.030  25.698  13.441
66137W        W27426  31.965  18.747  11.008
66138W        W27427  27.482   1.775   2.278
66139W        W27428  14.758  34.018  13.408
66140W        W27429  19.671  42.908  14.955
66141W        W27430  32.010   0.850  10.051
66142W        W27431  42.485   4.789   0.847
66143W        W27432  36.388  29.970   2.283
66144W        W27433  11.359  30.069   0.898
66145W        W27434  30.938  19.614  13.951
66146W        W27435  23.571  38.046   0.468
66147W        W27436  28.137  34.436   3.840
66148W        W27437  20.677  35.043   0.931
66149W        W27438  21.736  16.286  11.491
66150W        W27439  44.297   0.326   0.931
66151W        W27440  24.090   6.728   2.203
66152W        W27441  36.948  39.020  10.997
66153W        W27442  25.573   0.841  10.552
66154W        W27443   1.864  36.949  14.802
66155W        W27444  29.456   6.791   4.169
66156W        W27445  27.050  28.999   1.920
66157W        W27446  10.232   0.475  10.628
66158W        W27447  30.558  17.632   3.203
66159W        W27448  16.673  22.061   1.344
66160W        W27449  25.709  21.714  13.942
66161W        W27450   8.744  24.685   1.275
66162W        W27451  26.186  31.462   4.351
66163W        W27452  10.304  11.317   1.284
66164W        W27453   9.300  29.939  13.812
66165W        W27454   0.455   8.361   0.920
66166W        W27455  20.075   9.257   0.381
66167W        W27456  35.057  28.440   4.258
66168W        W27457  17.670  31.490  12.029
66169W        W27458  35.083   8.253   2.841
66170W        W27459   9.337  17.196  14.503
66171W        W27460  27.587  27.057   4.773
66172W        W27461  36.916  15.121  14.995
66173W        W27462   3.267   2.369   1.356
66174W        W27463  19.693  21.196  11.585
66175W        W27464  28.156  43.387  13.834
66176W        W27465  23.116  27.668  11.076
66177W        W27466  32.961   4.839  10.056
66178W        W27467  41.016  41.025  12.828
66179W        W27468  29.436  41.024  10.897
66180W        W27469  18.690  40.372  12.929
66181W        W27470  35.501  33.971  11.031
66182W        W27471  20.617  37.919  11.860
66183W        W27472   4.700  22.073  12.528
66184W        W27473  22.724  24.977   1.851
66185W        W27474  44.818  19.056   1.753
66186W        W27475  27.535  27.617   3.180
66187W        W27476  39.976  16.185   0.870
66188W        W27477  22.724   4.439  11.099
66189W        W27478  34.372  40.008   2.728
66190W        W27479  28.113   0.289  11.950
66191W        W27480  39.887  12.695  14.025
66192W        W27481  34.957  28.970   1.885
66193W        W27482  18.595  42.410   1.791
66194W        W27483   1.786   0.768   1.418
66195W        W27484  26.457   4.436   2.317
66196W        W27485  42.793  27.579  11.461
66197W        W27486   4.213  29.951   2.415
66198W        W27487   2.313  31.511   4.701
66199W        W27488  32.020  15.136  11.882
66200W        W27489  32.481  33.441  14.854
66201W        W27490  15.682  17.663  12.054
66202W        W27491  30.035  19.173   2.669
66203W        W27492  20.587  12.840  14.848
66204W        W27493  41.012  32.885  13.820
66205W        W27494  13.155  44.457   2.683
66206W        W27495   5.903  32.427  14.332
66207W        W27496  42.467  40.003   2.809
66208W        W27497  40.897  21.627   1.220
66209W        W27498  35.554  16.729  12.855
66210W        W27499  34.567  26.092   4.150
66211W        W27500  31.634  20.702  11.066
66212W        W27501  42.903  21.047  11.938
66213W        W27502  11.631  41.813   4.301
66214W        W27503  40.896  14.187   2.210
66215W        W27504   4.279  18.262   1.795
66216W        W27505  16.637  17.663   2.896
66217W        W27506  15.226  22.659  13.052
66218W        W27507  44.365   2.741  14.838
66219W        W27508   1.758  20.274  13.842
66220W        W27509   5.817  21.081   4.663
66221W        W27510  13.622  40.896   2.669
66222W        W27511  36.555  18.058  12.566
66223W        W27512  20.251  19.559  14.501
66224W        W27513  18.555  40.416   4.778
66225W        W27514  35.926  17.156  13.981
66226W        W27515  10.801  14.204   3.215
66227W        W27516  32.558  29.531  14.895
66228W        W27517  39.417   8.820  10.434
66229W        W27518  18.684  40.033   3.774
66230W        W27519   6.783   5.365  14.476
66231W        W27520   8.315  27.496  13.947
66232W        W27521  38.909  38.066  11.958
66233W        W27522  35.523   5.754  11.926
66234W        W27523  13.813  16.182  11.071
66235W        W27524  31.137   5.294  12.561
66236W        W27525  26.612  10.878  10.509
66237W        W27526  42.783   2.296   4.353
66238W        W27527  19.276   7.899  11.937
66239W        W27528  38.412  23.106   3.150
66240W        W27529   6.789  32.000   1.797
66241W        W27530  24.207  16.775  13.470
66242W        W27531  16.201   5.234  11.892
66243W        W27532  30.000  14.251  10.567
66244W        W27533   7.673  13.710   4.754
66245W        W27534  30.596  41.912  13.931
66246W        W27535  43.404  27.545  14.333
66247W        W27536  40.003  44.969   0.418
66248W        W27537   1.933  26.158   4.199
66249W        W27538   5.369  20.539  13.961
66250W        W27539  43.402  25.122   5.127
66251W        W27540  31.108  31.633  14.900
66252W        W27541  34.452  12.214   3.377
66253W        W27542  15.748  15.254   4.716
66254W        W27543  40.825  41.990  12.378
66255W        W27544  15.598  30.477  13.892
66256W        W27545  11.836   7.840   0.868
66257W        W27546  12.636  43.878  10.565
66258W        W27547   6.853  35.499   1.346
66259W        W27548  36.538  17.717  12.408
66260W        W27549   4.303  39.052   3.290
66261W        W27550  25.065   9.256   0.474
66262W        W27551  26.673   4.721   4.149
66263W        W27552   7.409  22.098   1.227
66264W        W27553   6.742  18.684  14.448
66265W        W27554   8.775  27.184  12.523
66266W        W27555  20.270  37.034  13.823
66267W        W27556  35.082   3.844  14.795
66268W        W27557  15.793  26.057  13.813
66269W        W27558  33.580  11.345  11.920
66270W        W27559  30.077   3.446   3.666
66271W        W27560  24.552  43.308  11.599
66272W        W27561  43.336  25.468   3.338
66273W        W27562  24.482   0.947  13.886
66274W        W27563  19.122  28.012   0.456
66275W        W27564   1.779  26.034  13.858
66276W        W27565  31.975  24.480  14.996
66277W        W27566  40.354  43.801   0.842
66278W        W27567  33.874  17.201   3.629
66279W        W27568  36.927   5.297   3.731
66280W        W27569  11.697   6.264   2.339
66281W        W27570  17.707  43.385   1.857
66282W        W27571   2.471  21.131   2.264
66283W        W27572  39.473  13.116  12.945
66284W        W27573  20.078  30.640  14.791
66285W        W27574  28.032  42.010  10.405
66286W        W27575   6.393  38.402  14.410
66287W        W27576  34.085   0.396   3.795
66288W        W27577  32.601  41.379   4.214
66289W        W27578   1.814  11.652  14.794
66290W        W27579  28.594   5.313   1.286
66291W        W27580  33.974  18.056   2.692
66292W        W27581   2.913  11.841   1.880
66293W        W27582  21.101  37.844  13.854
66294W        W27583  19.547  42.981  11.026
66295W        W27584   9.270  10.207   4.342
66296W        W27585  23.220  31.472   4.698
66297W        W27586   7.368   0.929   3.639
66298W        W27587  28.174  33.609  10.073
66299W        W27588  12.310  36.022   1.412
66300W        W27589   4.212  25.713  13.019
66301W        W27590  11.141  15.794   4.774
66302W        W27591   0.334  27.941  11.526
66303W        W27592   2.453  10.739   3.714
66304W        W27593  39.810  31.409  14.851
66305W        W27594  34.586  29.628  14.021
66306W        W27595  34.893  37.874   3.245
66307W        W27596  11.336  13.285   2.276
66308W        W27597  11.277   4.839  14.402
66309W        W27598   6.398  34.500   4.715
66310W        W27599  16.630  43.826  13.014
66311W        W27600  35.938   6.800   1.852
66312W        W27601   3.835  44.862   0.954
66313W        W27602   4.387   0.810  12.823
66314W        W27603  29.023  43.020  13.857
66315W        W27604   7.178  21.655  14.770
66316W        W27605  19.220  21.583   0.781
66317W        W27606   3.880   1.913  13.016
66318W        W27607  19.207  26.087  14.370
66319W        W27608  14.154  15.218  12.548
66320W        W27609  26.567  44.995   4.607
66321W        W27610  43.798  21.063  14.422
66322W        W27611  13.613  36.529   0.275
66323W        W27612  29.553  35.515   2.310
66324W        W27613  24.180   5.253   2.823
66325W        W27614  24.716  44.827  12.008
66326W        W27615  31.998  34.912   3.688
66327W        W27616  17.771  21.599   2.867
66328W        W27617  44.375  32.981  10.518
66329W        W27618   8.718  37.538  12.439
66330W        W27619  24.098  35.967  10.590
66331W        W27620  23.009  27.575   3.367
66332W        W27621  26.055  38.057  12.435
66333W        W27622  15.197  14.821   1.346
66334W        W27623   0.781  22.142   1.236
66335W        W27624  12.730  44.309  11.582
66336W        W27625  14.242   6.369  10.437
66337W        W27626   5.703  28.665   4.703
66338W        W27627  44.264  26.197   4.147
66339W        W27628   0.339  44.797   0.729
66340W        W27629  30.417  27.028   3.830
66341W        W27630  22.084  36.054   2.221
66342W        W27631  40.464  16.141   3.631
66343W        W27632   7.335  25.169   0.398
66344W        W27633  39.012  25.580   1.910
66345W        W27634  37.067  41.861  11.530
66346W        W27635  44.434  39.062  14.781
66347W        W27636  23.495  23.672   9.960
66348W        W27637  20.750  29.082  10.968
66349W        W27638  31.099  22.175   0.433
66350W        W27639  13.790  43.315   0.396
66351W        W27640  43.351   0.368   2.777
66352W        W27641  21.152  39.405   1.297
66353W        W27642   5.905   3.279   2.809
66354W        W27643  18.279  14.670   1.309
66355W        W27644  18.562  32.564   0.964
66356W        W27645  12.134   7.250   4.726
66357W        W27646  40.374  34.872   2.247
66358W        W27647  18.169  11.813  14.004
66359W        W27648  29.983  18.672  10.920
66360W        W27649  31.620  10.825  10.931
66361W        W27650   9.656  22.577  13.862
66362W        W27651  28.521   6.340   0.402
66363W        W27652   5.728  12.273  13.011
66364W        W27653  33.394  41.384   1.800
66365W        W27654  16.096  33.402  10.510
66366W        W27655  22.636  11.129   3.251
66367W        W27656  36.461  39.330  10.950
66368W        W27657   3.281  38.853   3.171
66369W        W27658  40.401  32.134   1.918
66370W        W27659  13.647  29.555  14.501
66371W        W27660   8.177  38.569   4.144
66372W        W27661  28.574  22.738  13.961
66373W        W27662  18.147   1.278  12.965
66374W        W27663  15.801  17.629  14.431
66375W        W27664  41.808  32.082  10.005
66376W        W27665  36.994  34.030  11.079
66377W        W27666  26.650  26.112  14.293
66378W        W27667  10.819  36.391  14.407
66379W        W27668  39.881  20.246   4.731
66380W        W27669   2.899  21.696  14.004
66381W        W27670  19.773   4.765   1.729
66382W        W27671   6.426  12.743   4.672
66383W        W27672  43.445   9.697  14.428
66384W        W27673  35.579  22.722  11.490
66385W        W27674  33.387   3.867  13.982
66386W        W27675   6.334  24.561  14.874
66387W        W27676  21.097  15.248  12.890
66388W        W27677   5.910  12.735  14.279
66389W        W27678   5.400  19.720   0.394
66390W        W27679   0.388  32.032   3.286
66391W        W27680  19.097   8.344   0.897
66392W        W27681   0.955  25.977  11.531
66393W        W27682  43.940   4.895   1.414
66394W        W27683  27.579  21.598  10.968
66395W        W27684  33.119  17.716  14.781
66396W        W27685  42.350  14.111  10.978
66397W        W27686  17.184  12.338  12.878
66398W        W27687  23.583   3.923  14.421
66399W        W27688  20.618  22.061   2.796
66400W        W27689  10.662  16.291  13.532
66401W        W27690  11.673  19.679   5.242
66402W        W27691  26.514  39.428  14.911
66403W        W27692  23.709  44.995  13.465
66404W        W27693   8.657   8.800   2.188
66405W        W27694   7.911  26.093  11.550
66406W        W27695  44.969  25.097  12.037
66407W        W27696  41.001  31.910   5.238
66408W        W27697  18.195  14.315  10.988
66409W        W27698  42.343  24.032   2.808
66410W        W27699   1.906  27.467  10.599
66411W        W27700   9.323  19.078   2.192
66412W        W27701  40.522  36.053   2.341
66413W        W27702  13.150   0.351   2.200
66414W        W27703  18.080  14.096  13.834
66415W        W27704  31.547  31.026   3.708
66416W        W27705   3.713   1.260  11.126
66417W        W27706  23.619  24.552  11.001
66418W        W27707  15.754  13.204   0.306
66419W        W27708   8.758  30.055  10.898
66420W        W27709  24.478  18.731  10.895
66421W        W27710  24.983  27.158  12.441
66422W        W27711  40.967  31.511  12.055
66423W        W27712   6.208   2.364   3.755
66424W        W27713  10.231   7.718   3.245
66425W        W27714  33.483   1.455   2.770
66426W        W27715  22.735   2.469  14.023
66427W        W27716  25.656   5.791   3.159
66428W        W27717  10.687  12.618   2.727
66429W        W27718  12.681  14.825   1.255
66430W        W27719   1.894   6.246  12.997
66431W        W27720  30.584   4.939   2.377
66432W        W27721  40.531  23.722  13.991
66433W        W27722  27.564   0.358  14.864
66434W        W27723   9.182  43.021  12.949
66435W        W27724  38.982   7.701   4.787
66436W        W27725  34.955  43.903  10.895
66437W        W27726  10.297   8.402  12.027
66438W        W27727   4.917  42.426   3.310
66439W        W27728  15.720  18.648   5.106
66440W        W27729  33.050  28.963  10.586
66441W        W27730   7.903  30.534   3.756
66442W        W27731  32.929  23.099   3.380
66443W        W27732  31.904  26.676  10.415
66444W        W27733  16.138   9.253   0.819
66445W        W27734  39.364  22.655   0.851
66446W        W27735  43.440  25.599   1.321
66447W        W27736  22.627  41.922  12.998
66448W        W27737  16.187  25.493  10.630
66449W        W27738  29.067  23.108  11.923
66450W        W27739  40.326  15.322   3.299
66451W        W27740  33.415   7.858  10.531
66452W        W27741   5.319   1.896  13.920
66453W        W27742  26.128  15.179  12.986
66454W        W27743  22.035  23.048  14.319
66455W        W27744  21.128   4.294  12.576
66456W        W27745  40.333  20.696  10.498
66457W        W27746  17.623  40.812  12.520
66458W        W27747  23.702  27.191  14.760
66459W        W27748  15.287  22.667  12.520
66460W        W27749  36.543   3.733   1.314
66461W        W27750  14.678  14.796  14.844
66462W        W27751  27.686  21.027  13.824
66463W        W27752  17.784  15.189   0.738
66464W        W27753  43.428   1.792   1.262
66465W        W27754  41.030   8.779  10.905
66466W        W27755  42.294   8.667  12.528
66467W        W27756  40.820  14.338   0.769
66468W        W27757  11.800  19.263   4.311
66469W        W27758   2.308  10.752   2.730
66470W        W27759  34.391   7.305  11.961
66471W        W27760   6.314   5.797  11.995
66472W        W27761  23.518  22.684   1.794
66473W        W27762  25.565  22.640   2.244
66474W        W27763  33.055  41.512   3.334
66475W        W27764  17.596   1.293   2.724
66476W        W27765  23.668  40.960  11.927
66477W        W27766  28.940  35.492  11.935
66478W        W27767  12.218  21.091  13.374
66479W        W27768  40.481   3.320   1.851
66480W        W27769  17.567   6.381  11.856
66481W        W27770  28.077  21.071  11.915
66482W        W27771  15.234  23.239  11.522
66483W        W27772  37.900   4.714  14.324
66484W        W27773  26.173  26.059   4.659
66485W        W27774  42.810  11.680   1.883
66486W        W27775  29.619  36.577   2.248
66487W        W27776   2.742   7.774  13.381
66488W        W27777   9.283  32.478   3.835
66489W        W27778  20.583  23.053   1.211
66490W        W27779  43.507  24.504   3.307
66491W        W27780  21.608  33.998  11.049
66492W        W27781   5.931  37.015  14.880
66493W        W27782   7.265  39.885   1.750
66494W        W27783   5.764  19.228   4.674
66495W        W27784  29.479  35.910  12.036
66496W        W27785  39.816   2.287  14.776
66497W        W27786  42.028  36.094   0.789
66498W        W27787   3.921  40.520  14.303
66499W        W27788   9.806  29.610   3.230
66500W        W27789   6.323  25.624   3.335
66501W        W27790  23.073   4.711  14.332
66502W        W27791  10.870  28.064  11.514
66503W        W27792  37.571   2.837   4.175
66504W        W27793  26.102  11.839  10.637
66505W        W27794   1.434  39.944   0.380
66506W        W27795  34.018  24.565  14.493
66507W        W27796  26.663  33.536  11.563
66508W        W27797   8.203  12.686  13.819
66509W        W27798  30.430  40.814  14.894
66510W        W27799  22.221  15.279   3.761
66511W        W27800  34.413   5.882  11.907
66512W        W27801  40.334   7.686  13.444
66513W        W27802   0.337   3.377  14.938
66514W        W27803  34.598  36.083  12.472
66515W        W27804   1.841  14.599  13.448
66516W        W27805  17.091  27.526   2.695
66517W        W27806  24.035   1.325   4.680
66518W        W27807  44.279  28.096   1.350
66519W        W27808  14.705  26.137   3.672
66520W        W27809  37.013  10.703  14.500
66521W        W27810   2.736  17.166  12.511
66522W        W27811  16.699  14.806   2.339
66523W        W27812  24.491  19.535  14.014
66524W        W27813   7.876  42.512  10.950
66525W        W27814  30.085  43.984   2.351
66526W        W27815  37.443  23.538  10.128
66527W        W27816   8.348  19.256  14.934
66528W        W27817  44.974  17.645   1.304
66529W        W27818  44.946   2.454   2.398
66530W        W27819  14.594  41.000  14.301
66531W        W27820  38.962  15.220   5.300
66532W        W27821   2.766   6.814   0.889
66533W        W27822  22.502  15.640   1.799
66534W        W27823  33.433   3.264   1.211
66535W        W27824  27.961  18.608   4.224
66536W        W27825   9.711  21.742   1.273
66537W        W27826  44.369   3.731  14.499
66538W        W27827  26.480  16.220   1.780
66539W        W27828   4.216  13.275   1.807
66540W        W27829  36.482  26.494   2.860
66541W        W27830  31.479  31.595   2.290
66542W        W27831   2.389  15.320   0.425
66543W        W27832  39.928  26.982  14.318
66544W        W27833   6.205  44.753  12.833
66545W        W27834  26.123  13.108  14.864
66546W        W27835   3.291  15.227   3.377
66547W        W27836  36.856  15.816   4.781
66548W        W27837  12.207  24.179   4.292
66549W        W27838  42.874  19.104  12.532
66550W        W27839  35.058  36.081   4.263
66551W        W27840  25.642  22.151  11.587
66552W        W27841   0.414  18.185   4.242
66553W        W27842  28.941   5.928   1.793
66554W        W27843  11.361  43.286  13.517
66555W        W27844  44.828  11.698   3.817
66556W        W27845  41.043  21.256   2.277
66557W        W27846   5.213  31.489   4.618
66558W        W27847  37.460   9.752  10.526
66559W        W27848  37.849  10.224  13.336
66560W        W27849  40.927  26.039  14.396
66561W        W27850   8.168  13.167   3.692
66562W        W27851  34.091  27.185  12.002
66563W        W27852   8.195  25.044  14.859
66564W        W27853  12.262  41.498   4.144
66565W        W27854  11.198   8.201   3.766
66566W        W27855  42.332  22.629   3.294
66567W        W27856   0.798   2.789  13.361
66568W        W27857  12.249  11.194  14.507
66569W        W27858  12.694   9.749   4.694
66570W        W27859  24.008  39.533  11.940
66571W        W27860  15.132  41.519  12.359
66572W        W27861  10.846  11.261  12.058
66573W        W27862   2.393  42.897   3.355
66574W        W27863  28.661   7.188   2.840
66575W        W27864  29.063   6.373   2.271
66576W        W27865   8.714  29.996  12.521
66577W        W27866  42.424  36.084   3.818
66578W        W27867  12.174  34.063   4.319
66579W        W27868   2.374  13.155  13.966
66580W        W27869  40.830  44.282   0.814
66581W        W27870  17.122  23.593   2.718
66582W        W27871  23.229  12.179   1.735
66583W        W27872  41.352  19.144   1.244
66584W        W27873   4.899  29.162   2.222
66585W        W27874  29.049  27.556   2.353
66586W        W27875  29.633  13.625  12.039
66587W        W27876  31.407  44.887  13.321
66588W        W27877  39.924  21.677  11.960
66589W        W27878  27.582   3.429  14.984
66590W        W27879   9.828   4.254  10.603
66591W        W27880  30.424  28.063   0.747
66592W        W27881  14.153  37.980  12.828
66593W        W27882   5.929  23.070   5.779
66594W        W27883  42.998  10.769  10.942
66595W        W27884  27.174  11.699   2.784
66596W        W27885   1.246  20.061   4.139
66597W        W27886   4.413  30.414   4.707
66598W        W27887  22.732  39.898  11.934
66599W        W27888   6.241  20.114  12.467
66600W        W27889  18.779  27.573   3.788
66601W        W27890  25.627  22.736  13.007
66602W        W27891  30.628   1.249  10.943
66603W        W27892   3.346  17.282  11.116
66604W        W27893  22.039  42.887   4.261
66605W        W27894  35.924   9.660   3.778
66606W        W27895   9.782  12.737   2.804
66607W        W27896  28.186  27.634   4.156
66608W        W27897  17.080  17.134  14.918
66609W        W27898  44.010  20.588  13.026
66610W        W27899  26.647  36.507   4.800
66611W        W27900   0.274   1.388  10.491
66612W        W27901  13.627  29.004  12.386
66613W        W27902  23.642  23.637   0.455
66614W        W27903  18.700  30.036  13.416
66615W        W27904   0.345  15.592   1.726
66616W        W27905  44.373  40.970  14.508
66617W        W27906  41.877  27.678   3.867
66618W        W27907  26.137  16.107   1.750
66619W        W27908  30.641  40.865  14.354
66620W        W27909  12.671  33.020   1.890
66621W        W27910  18.633  15.098   3.850
66622W        W27911   4.764  25.595  13.358
66623W        W27912   8.831  40.005   2.206
66624W        W27913   2.817   8.228  14.888
66625W        W27914  13.131  29.568  10.616
66626W        W27915   9.360   0.889  13.853
66627W        W27916  12.777  35.476  14.810
66628W        W27917  31.050  15.747   0.457
66629W        W27918  22.582  15.602   2.775
66630W        W27919   2.394  31.102  12.454
66631W        W27920   1.385  34.058   0.825
66632W        W27921  13.838  16.260  13.514
66633W        W27922  18.244  30.478   2.768
66634W        W27923  13.760  17.711  12.085
66635W        W27924  41.934  35.472   0.935
66636W        W27925  17.774   4.233   1.769
66637W        W27926  38.561  17.133   1.781
66638W        W27927  37.455   3.758   0.458
66639W        W27928  15.112  34.957   5.192
66640W        W27929   0.256   6.816   2.327
66641W        W27930  12.212  20.632  13.428
66642W        W27931  31.467  31.141   0.902
66643W        W27932  13.629   2.957   4.260
66644W        W27933  34.107  17.164   2.277
66645W        W27934  42.455   7.244   3.701
66646W        W27935  38.435  18.588  14.895
66647W        W27936  37.405  39.010   0.425
66648W        W27937  37.953   2.831  11.933
66649W        W27938  40.940   9.805   2.711
66650W        W27939  23.219  43.300   3.792
66651W        W27940  41.865  38.879  11.086
66652W        W27941  31.109   0.321  12.076
66653W        W27942  44.405  32.394  11.555
66654W        W27943  21.240  10.162   3.250
66655W        W27944  37.461  18.615  14.358
66656W        W27945  27.487  35.971  12.560
66657W        W27946   2.411   1.939   0.269
66658W        W27947  12.286  30.049   3.267
66659W        W27948  20.226   1.451  10.456
66660W        W27949  38.427   3.848  11.525
66661W        W27950  27.517  31.541   4.665
66662W        W27951  30.057  19.130   1.365
66663W        W27952  37.424   3.322   2.392
66664W        W27953  44.293  43.513   0.316
66665W        W27954  23.665  42.894  11.893
66666W        W27955  16.726   5.698  12.954
66667W        W27956   3.788  43.012  10.533
66668W        W27957  43.769  16.279  14.890
66669W        W27958  29.060  28.132   2.827
66670W        W27959   2.231   2.312   0.827
66671W        W27960  18.221   4.816   0.914
66672W        W27961   9.350  34.561  14.500
66673W        W27962   0.251   1.423   0.819
66674W        W27963   2.278   2.237   0.459
66675W        W27964  20.097  14.174  11.110
66676W        W27965  41.968  19.779  11.466
66677W        W27966  19.194  44.426  13.057
66678W        W27967  35.941  36.504   0.389
66679W        W27968  22.145  11.202  11.925
66680W        W27969  14.773  38.446   2.698
66681W        W27970  21.623  32.030  11.535
66682W        W27971  15.648  18.172  12.580
66683W        W27972  15.222  37.431  13.364
66684W        W27973   5.333  33.543   1.281
66685W        W27974  32.010  13.158   0.348
66686W        W27975  25.034  31.026  14.412
66687W        W27976   4.364  16.717   1.435
66688W        W27977  19.766  40.547  12.932
66689W        W27978  43.293  20.607   4.346
66690W        W27979  27.964  14.589   2.245
66691W        W27980  16.630  39.366  10.936
66692W        W27981  15.721  37.438  13.418
66693W        W27982  34.873  19.164   2.204
66694W        W27983  41.311  10.642  14.289
66695W        W27984  22.626  16.784  14.780
66696W        W27985  26.515  34.879  10.543
66697W        W27986   5.307  28.652   3.806
66698W        W27987  32.048  11.370  13.878
66699W        W27988   6.839  24.665   4.766
66700W        W27989   3.261  29.970   2.845
66701W        W27990  34.422  33.955  13.386
66702W        W27991  40.442  33.919   1.421
66703W        W27992  25.655  15.182   4.837
66704W        W27993  25.198  30.016  10.473
66705W        W27994  19.039  36.959  14.953
66706W        W27995  10.254  23.531  10.642
66707W        W27996   6.270  20.062   0.812
66708W        W27997  39.543  16.161   2.306
66709W        W27998   7.260  13.635   4.835
66710W        W27999  29.140  19.624   2.224
66711W        W28000  37.985   7.716  14.373
66712W        W28001   0.313  43.302  12.518
66713W        W28002  17.296  42.829  14.308
66714W        W28003   6.835  21.687   0.368
66715W        W28004  43.818   7.881  12.391
66716W        W28005  18.680  12.296  11.601
66717W        W28006  34.880   2.841  12.941
66718W        W28007  41.789  10.180  14.317
66719W        W28008  22.096  31.642  12.447
66720W        W28009  31.626  19.693   2.267
66721W        W28010  31.520   4.324  13.348
66722W        W28011   7.670  22.033  11.468
66723W        W28012  18.579   2.420  11.607
66724W        W28013  17.796  27.586   0.946
66725W        W28014  31.526   8.300   2.264
66726W        W28015  30.944  39.968  12.853
66727W        W28016  19.231  28.528   1.234
66728W        W28017  35.066   9.645  14.409
66729W        W28018  40.324  15.745  10.917
66730W        W28019  10.366  32.616  10.505
66731W        W28020   6.299  20.658  10.432
66732W        W28021  29.011  11.788   5.240
66733W        W28022   6.910  41.864  14.013
66734W        W28023   4.888  31.043  12.566
66735W        W28024  38.418  16.089  13.379
66736W        W28025   9.835   1.935  12.960
66737W        W28026   9.253   5.767  13.927
66738W        W28027  14.674  44.265   1.813
66739W        W28028  17.199   5.194  12.044
66740W        W28029  19.106   8.658   2.257
66741W        W28030  35.977  38.858   0.872
66742W        W28031  21.542  19.657   3.276
66743W        W28032  28.657  13.180  12.038
66744W        W28033  12.146   3.282  14.294
66745W        W28034  10.175   5.227   3.756
66746W        W28035  40.901  41.461   4.281
66747W        W28036  12.212  22.695  13.313
66748W        W28037  34.517  19.728   3.746
66749W        W28038  41.903  25.141  14.889
66750W        W28039   7.731   7.329   1.854
66751W        W28040  37.967  11.676   2.770
66752W        W28041  37.544  35.515   3.800
66753W        W28042  11.732  22.637   1.934
66754W        W28043  16.757   3.351   2.270
66755W        W28044   0.785  33.119  13.974
66756W        W28045  13.660   1.901  13.894
66757W        W28046  17.102  40.345   9.928
66758W        W28047  30.930  18.160  13.917
66759W        W28048   6.239  24.601   1.694
66760W        W28049  25.511  32.049  11.089
66761W        W28050  13.224  38.448   0.792
66762W        W28051  20.042   0.324   4.160
66763W        W28052  22.047   1.393   3.696
66764W        W28053  18.080  17.201   3.184
66765W        W28054  25.097   8.167  12.445
66766W        W28055   2.370  39.921  10.433
66767W        W28056  29.176  17.564   3.805
66768W        W28057   9.215  43.790  14.289
66769W        W28058  29.945  31.951   4.209
66770W        W28059  13.705  17.770   1.854
66771W        W28060  33.892  22.562  12.351
66772W        W28061   0.288  28.038   1.356
66773W        W28062  34.101  12.266  14.321
66774W        W28063   9.169  20.530   3.817
66775W        W28064  24.078  20.179  13.849
66776W        W28065  32.097   2.357   0.308
66777W        W28066   5.208  43.488   2.894
66778W        W28067  39.956  28.560   2.842
66779W        W28068  17.799  41.487   2.395
66780W        W28069  29.013  41.911  10.912
66781W        W28070   5.918  25.689   3.668
66782W        W28071  43.298  20.253   3.253
66783W        W28072  36.903  19.102  12.973
66784W        W28073  38.070  44.322  13.363
66785W        W28074  40.980  32.097  10.986
66786W        W28075  37.916  41.340   4.767
66787W        W28076   8.254   0.429   1.704
66788W        W28077  12.630  42.996  12.554
66789W        W28078  42.867  28.126  10.413
66790W        W28079  21.227  13.278  11.495
66791W        W28080  31.585  17.150  11.416
66792W        W28081  31.043  39.480   2.807
66793W        W28082  36.983  10.854   2.772
66794W        W28083  16.108   3.938  10.952
66795W        W28084   8.392  39.000   3.786
66796W        W28085   4.867  19.713  13.795
66797W        W28086  32.395  41.359  12.345
66798W        W28087  16.164   9.842  13.543
66799W        W28088   4.919  44.756   4.114
66800W        W28089   0.865  37.345   1.855
66801W        W28090   1.382  44.861  12.948
66802W        W28091  39.981  11.779  12.462
66803W        W28092  38.448  41.948  12.936
66804W        W28093  42.459  21.025   2.240
66805W        W28094  27.196  43.975   2.727
66806W        W28095  28.125  34.044  13.899
66807W        W28096  16.591  28.501  13.525
66808W        W28097  40.837  13.181   3.815
66809W        W28098  34.864  31.063  14.950
66810W        W28099   2.919  27.128   1.716
66811W        W28100  28.542  17.063   4.345
66812W        W28101  13.199  11.363  14.004
66813W        W28102  16.575  38.033   0.832
66814W        W28103  43.805  32.625  10.975
66815W        W28104  28.081   9.651   0.743
66816W        W28105   3.776  31.492   1.859
66817W        W28106  18.279  17.138   2.216
66818W        W28107  22.729   8.858  14.935
66819W        W28108   4.440   7.853   1.739
66820W        W28109  29.651  40.450   1.731
66821W        W28110   4.251  43.806   1.919
66822W        W28111  16.763   1.844  13.928
66823W        W28112  25.498   2.919   0.269
66824W        W28113  43.973  32.395   3.787
66825W        W28114  19.117  11.137   0.476
66826W        W28115   5.717  30.506  11.420
66827W        W28116  12.805  20.546   2.396
66828W        W28117  31.005  44.474  14.953
66829W        W28118  37.008  43.770   2.841
66830W        W28119  37.423  28.997  10.601
66831W        W28120  10.162  17.178   2.844
66832W        W28121  40.977  10.275  14.002
66833W        W28122  25.521  26.073   0.374
66834W        W28123  25.002   3.362   2.360
66835W        W28124  28.141  39.371  12.878
66836W        W28125  39.056   4.435  14.931
66837W        W28126   7.301  34.531   2.858
66838W        W28127  33.400   6.346   2.709
66839W        W28128   4.765  18.723  11.555
66840W        W28129   8.698  20.590   0.262
66841W        W28130  14.134  17.646  14.769
66842W        W28131  18.072   9.763  10.539
66843W        W28132  14.783   7.878  14.983
66844W        W28133  31.406  41.295  13.453
66845W        W28134   7.396   9.716   1.298
66846W        W28135  21.661   4.864   0.746
66847W        W28136  34.899  14.622  14.814
66848W        W28137  42.926   6.864   9.988
66849W        W28138  30.012  10.860   4.791
66850W        W28139   9.262   5.331   2.844
66851W        W28140  13.304  41.798  10.929
66852W        W28141  35.966  17.212  12.980
66853W        W28142  29.020  28.557  13.917
66854W        W28143  13.733  27.177   2.798
66855W        W28144  33.581  38.892  14.892
66856W        W28145  22.579  23.506  13.395
66857W        W28146  30.983  44.398  10.544
66858W        W28147  28.657  22.558  12.943
66859W        W28148  38.041   7.790  14.961
66860W        W28149  38.391  25.601   2.752
66861W        W28150  38.038  12.121   3.367
66862W        W28151   0.492  30.095   4.779
66863W        W28152   7.315  15.743  13.507
66864W        W28153  30.588   9.668  12.085
66865W        W28154  15.663  39.943  14.822
66866W        W28155  32.436  31.451   3.706
66867W        W28156  33.123  31.058   0.358
66868W        W28157  19.243   9.830   3.864
66869W        W28158  32.063  17.111   0.385
66870W        W28159  35.997  27.493  11.918
66871W        W28160   8.718   9.682   0.245
66872W        W28161  26.010  43.318  12.399
66873W        W28162  35.400  36.551   2.796
66874W        W28163  39.065  37.389  12.973
66875W        W28164  20.705  15.226   1.792
66876W        W28165  17.085   2.784   1.925
66877W        W28166  14.776  32.026   3.795
66878W        W28167   1.289  24.109   4.748
66879W        W28168  40.441  21.613  11.968
66880W        W28169  36.545   4.752   2.382
66881W        W28170  14.811  16.655  14.025
66882W        W28171   9.857  27.554   3.258
66883W        W28172  16.078  15.816   1.285
66884W        W28173  34.937  32.487   1.924
66885W        W28174  43.370   1.448  14.406
66886W        W28175  27.653  12.627   1.391
66887W        W28176   0.274   7.899  11.491
66888W        W28177  38.501  35.401  10.513
66889W        W28178  41.806  37.476   4.637
66890W        W28179  29.595   0.348   4.264
66891W        W28180  37.001  40.837   2.418
66892W        W28181  28.086  24.144   0.396
66893W        W28182  10.332   6.296  14.491
66894W        W28183  26.098  29.923   4.693
66895W        W28184  40.422  23.049   3.672
66896W        W28185   4.256  23.674  12.832
66897W        W28186  14.238   0.447  12.524
66898W        W28187  42.785  39.997   3.332
66899W        W28188  23.195  11.370   2.725
66900W        W28189  35.062  34.118  12.541
66901W        W28190  10.641   2.278  14.281
66902W        W28191  17.144   8.797   2.895
66903W        W28192  34.089  36.364  12.921
66904W        W28193  15.243  12.153   0.750
66905W        W28194  12.621   7.221   1.444
66906W        W28195  25.218  29.502   1.437
66907W        W28196  25.019  14.724  12.021
66908W        W28197   4.831  27.564  13.911
66909W        W28198   3.309  44.774   2.365
66910W        W28199  44.473   9.219   3.801
66911W        W28200  31.529  37.084   0.757
66912W        W28201  39.061  31.596   0.245
66913W        W28202  14.791  23.213  11.863
66914W        W28203  39.414  11.667   1.369
66915W        W28204  18.585  41.835   4.693
66916W        W28205   4.210   0.743   4.306
66917W        W28206  44.989  20.752  14.443
66918W        W28207  32.917   1.380  11.068
66919W        W28208  41.410  39.021  11.403
66920W        W28209  27.464  10.829   0.907
66921W        W28210  24.591  12.801  10.963
66922W        W28211  42.027   6.753  14.023
66923W        W28212  29.052  21.653   4.735
66924W        W28213  26.506  27.456   1.801
66925W        W28214  12.176  29.160   3.267
66926W        W28215  27.186  17.258  14.766
66927W        W28216   7.206  29.463  14.854
66928W        W28217   8.233  27.045  13.833
66929W        W28218  13.127  44.272   3.290
66930W        W28219  35.509   2.233  10.892
66931W        W28220   3.268  13.800   1.411
66932W        W28221  25.511   9.716   0.872
66933W        W28222  38.906  14.785   4.616
66934W        W28223   2.269  16.254   4.347
66935W        W28224  26.681  27.001   4.715
66936W        W28225   6.393  44.918  14.795
66937W        W28226  19.673  39.549   3.740
66938W        W28227   4.912   0.756   3.796
66939W        W28228   7.674  41.833  13.016
66940W        W28229  20.262   1.406   1.855
66941W        W28230   4.701   2.742   0.864
66942W        W28231  24.975   2.911  14.350
66943W        W28232  16.700  33.068  10.444
66944W        W28233   4.742  43.419  10.084
66945W        W28234  37.574   1.415   1.232
66946W        W28235  36.371  17.752   4.146
66947W        W28236  21.055  37.078  11.465
66948W        W28237  26.485  36.019   1.231
66949W        W28238  33.511  22.134   2.705
66950W        W28239   9.817   3.769  14.457
66951W        W28240   4.343   5.717  13.407
66952W        W28241  27.148  28.930  14.400
66953W        W28242  20.635  13.605   0.741
66954W        W28243  18.619  17.786  14.396
66955W        W28244  26.549  41.500  13.421
66956W        W28245  22.600   7.286  14.407
66957W        W28246   0.777  36.514   2.880
66958W        W28247  42.436  39.958  12.557
66959W        W28248   2.883  42.457   2.209
66960W        W28249  21.551  11.623  11.010
66961W        W28250  25.206  21.244   0.295
66962W        W28251  31.584  17.790  14.312
66963W        W28252  29.972   1.898  14.454
66964W        W28253  13.177   5.687   3.194
66965W        W28254  18.601  23.157  14.301
66966W        W28255  13.156  42.298   2.824
66967W        W28256   1.766   1.425   4.265
66968W        W28257  12.331  14.824   2.416
66969W        W28258  43.357   7.261   2.876
66970W        W28259  40.818  34.607   0.907
66971W        W28260  16.304  39.514  13.860
66972W        W28261   8.394  20.068  12.449
66973W        W28262  17.654  17.662  11.509
66974W        W28263  18.701  43.305   1.348
66975W        W28264   8.256  11.315   0.246
66976W        W28265  13.237  15.317  13.345
66977W        W28266  21.690   5.256   2.784
66978W        W28267   3.407  43.460  14.354
66979W        W28268  29.459  13.684   0.340
66980W        W28269   2.815  42.918  11.010
66981W        W28270  21.108   4.926  12.369
66982W        W28271  41.894  35.384  14.332
66983W        W28272  13.646  20.529   4.157
66984W        W28273  17.712   8.357  12.553
66985W        W28274  22.724  39.416   1.731
66986W        W28275  17.655  12.261  11.600
66987W        W28276  13.776  31.142   1.409
66988W        W28277   7.353  10.826   1.759
66989W        W28278   5.762   9.272   4.231
66990W        W28279   7.856  42.867   3.270
66991W        W28280   3.234   8.306  12.365
66992W        W28281  19.585  30.433   3.644
66993W        W28282  33.087   1.264   3.178
66994W        W28283  44.411  25.039   2.797
66995W        W28284  42.795  14.728  14.319
66996W        W28285  36.576  22.546   2.847
66997W        W28286  31.991   4.293  10.007
66998W        W28287  19.193  17.072   1.832
66999W        W28288   2.865  23.569   4.250
67000W        W28289  36.900  18.263   2.720
67001W        W28290  25.566  37.996   4.308
67002W        W28291  13.615  12.771  14.382
67003W        W28292   3.931  37.933  14.462
67004W        W28293   7.814  38.500  11.932
67005W        W28294  16.771   9.846   0.751
67006W        W28295   8.361   3.248   0.452
67007W        W28296  11.370  24.607  14.468
67008W        W28297   2.291  30.489   3.232
67009W        W28298  43.428  24.637  11.553
67010W        W28299  26.975   3.294   0.419
67011W        W28300  12.726   2.738  12.381
67012W        W28301  40.392  31.626  11.122
67013W        W28302  26.059  11.805   0.767
67014W        W28303  11.364  35.053   4.611
67015W        W28304  42.424  18.686  10.143
67016W        W28305  29.094  39.834  10.477
67017W        W28306  33.511  10.751   2.233
67018W        W28307  24.698  23.585   1.882
67019W        W28308   3.905  27.944  13.930
67020W        W28309  34.078  42.970   3.731
67021W        W28310  44.011   6.365   0.340
67022W        W28311  27.961  27.451   4.729
67023W        W28312  39.053  43.802  13.874
67024W        W28313  13.652  26.677  12.825
67025W        W28314   8.278   8.690  12.061
67026W        W28315  17.594  31.590  10.619
67027W        W28316  23.607   5.203   1.873
67028W        W28317  19.193  40.036   1.297
67029W        W28318  35.358  35.563  10.435
67030W        W28319   6.259  22.098  12.052
67031W        W28320   4.248  43.474   3.641
67032W        W28321   9.351   3.364  14.783
67033W        W28322  13.776   8.761   0.247
67034W        W28323  31.034  15.593   1.774
67035W        W28324  32.081  31.949  14.354
67036W        W28325  17.129  28.585  14.919
67037W        W28326  28.949  26.044  12.561
67038W        W28327  25.991  29.085   4.821
67039W        W28328  32.019   1.286  12.474
67040W        W28329  42.823  23.185   2.810
67041W        W28330   8.706   6.910  13.913
67042W        W28331  18.769  16.595  13.809
67043W        W28332  23.624  25.092   2.868
67044W        W28333   0.787  38.034   2.705
67045W        W28334  44.939  40.492  10.077
67046W        W28335   5.856  27.630  12.529
67047W        W28336  37.858   3.297  10.005
67048W        W28337  16.133  14.801   0.821
67049W        W28338  13.143   3.273   1.921
67050W        W28339  32.431  15.643   0.760
67051W        W28340  33.531   2.936  13.509
67052W        W28341  27.962  35.871  10.928
67053W        W28342  37.073   0.942  11.047
67054W        W28343  13.330  11.190   3.662
67055W        W28344  24.214   5.289  12.409
67056W        W28345  16.696  39.975  14.803
67057W        W28346   5.373  15.165  14.355
67058W        W28347  36.464  27.547   3.336
67059W        W28348  22.500  41.406   2.390
67060W        W28349   3.852  27.173  10.609
67061W        W28350  35.458  18.165  13.960
67062W        W28351  26.060   2.831  13.548
67063W        W28352  28.666   9.395   3.739
67064W        W28353  25.079  39.810  10.509
67065W        W28354   7.223  27.658   0.353
67066W        W28355  18.671  42.831   3.361
67067W        W28356  36.971  22.727  11.557
67068W        W28357  21.230  24.162   4.298
67069W        W28358  35.587  34.017   0.323
67070W        W28359  26.044   8.330   3.245
67071W        W28360  28.985  10.706   1.408
67072W        W28361  36.578  31.940   4.664
67073W        W28362  44.856  28.566   3.734
67074W        W28363  17.678  37.060   4.120
67075W        W28364   2.741  34.548  13.547
67076W        W28365  21.160  30.522  14.972
67077W        W28366   8.387  34.884   4.679
67078W        W28367  17.074  26.673   4.809
67079W        W28368   8.197   9.736  13.477
67080W        W28369  19.773  42.501   4.209
67081W        W28370  40.526  30.012   4.132
67082W        W28371  14.694  31.947  11.603
67083W        W28372  36.050  30.494   3.823
67084W        W28373  38.339  32.016  11.471
67085W        W28374  43.892  39.995   0.826
67086W        W28375  23.639  16.098  11.946
67087W        W28376  40.920  41.910  14.956
67088W        W28377  38.424  19.108  14.444
67089W        W28378   4.905  20.745   2.829
67090W        W28379  13.302  30.427  13.486
67091W        W28380  33.985  25.202  13.358
67092W        W28381  33.518  21.538   4.148
67093W        W28382   4.256   4.865   4.272
67094W        W28383  44.433   4.760  14.005
67095W        W28384  28.963  41.339  11.552
67096W        W28385   0.355  36.502  10.586
67097W        W28386  31.634  27.189  14.760
67098W        W28387  19.151  13.259  14.809
67099W        W28388  41.383  42.793   1.841
67100W        W28389   2.280  28.174  14.911
67101W        W28390  28.143  12.648  10.484
67102W        W28391  37.021  15.726  14.282
67103W        W28392   1.735  24.026   0.959
67104W        W28393  14.304  44.812   1.889
67105W        W28394  39.424   1.793   3.294
67106W        W28395   8.836   3.731   4.231
67107W        W28396  38.959  22.240  14.812
67108W        W28397   7.293  30.911   2.706
67109W        W28398   3.233  11.162   3.866
67110W        W28399  30.484  14.783  14.914
67111W        W28400   6.320  32.464   0.944
67112W        W28401  32.479  32.045   1.910
67113W        W28402  10.749   8.893  12.546
67114W        W28403  18.106  10.149   5.186
67115W        W28404  11.866  13.138  11.116
67116W        W28405   1.894  39.481   2.745
67117W        W28406  37.038  15.311   0.242
67118W        W28407  42.931  41.942  10.542
67119W        W28408  32.576   0.946  14.505
67120W        W28409  42.962  18.055  12.919
67121W        W28410  19.743  37.880  11.106
67122W        W28411  10.241  21.117   3.655
67123W        W28412  15.631  16.108  11.417
67124W        W28413   1.856   1.268   0.758
67125W        W28414  21.528  35.472  12.420
67126W        W28415  33.933  11.676  13.311
67127W        W28416  17.724  22.095  14.309
67128W        W28417   0.417   0.879  11.512
67129W        W28418  31.943  43.499   2.850
67130W        W28419  17.162  26.458  10.927
67131W        W28420  16.087  12.165  14.426
67132W        W28421  40.846   4.210  13.345
67133W        W28422  14.098  41.471  13.307
67134W        W28423  37.424  32.533   0.801
67135W        W28424  11.143  18.789   3.854
67136W        W28425  14.333  40.338   4.190
67137W        W28426  11.177   1.818  12.084
67138W        W28427   9.245   5.413   4.603
67139W        W28428  38.341  39.473   2.748
67140W        W28429   0.451  44.790   0.367
67141W        W28430  30.989   4.274  14.857
67142W        W28431   2.758   8.377   0.762
67143W        W28432   2.759  13.603   2.720
67144W        W28433  11.741  25.573  13.977
67145W        W28434  44.934  13.252  13.428
67146W        W28435   8.800  39.382   2.304
67147W        W28436  27.609  26.585  14.781
67148W        W28437  13.168  15.722   3.787
67149W        W28438  43.473  37.386   0.408
67150W        W28439   5.888  11.264  13.837
67151W        W28440  39.024  15.670   2.334
67152W        W28441  20.236   0.819   3.288
67153W        W28442  38.444  30.165   1.746
67154W        W28443  34.976  41.467   2.787
67155W        W28444   1.937  34.369   2.728
67156W        W28445  43.283  15.305   2.332
67157W        W28446  10.841  18.113  10.451
67158W        W28447  39.515  19.735  10.943
67159W        W28448  37.425  34.511  14.485
67160W        W28449   3.797  18.255  11.860
67161W        W28450  22.520  25.027   0.763
67162W        W28451  11.653  44.491   1.757
67163W        W28452  41.513  44.410   2.671
67164W        W28453  28.183  34.479  13.945
67165W        W28454  18.722  43.942   4.322
67166W        W28455   9.175  30.654   0.431
67167W        W28456  35.461   6.217  14.781
67168W        W28457   8.756   8.727  12.935
67169W        W28458  32.128  36.435  10.918
67170W        W28459  27.961   1.451  11.053
67171W        W28460  30.980   6.190   0.739
67172W        W28461  35.960  22.054  12.396
67173W        W28462  42.335  25.059   2.681
67174W        W28463   6.216  37.522  12.023
67175W        W28464  28.935  40.024  14.293
67176W        W28465   0.825  34.606  12.466
67177W        W28466  38.992  11.859  14.889
67178W        W28467   6.791  39.338   1.308
67179W        W28468  32.061  24.228  13.964
67180W        W28469  29.473  36.405  11.971
67181W        W28470   5.895  22.700   4.657
67182W        W28471  32.424  37.517   4.617
67183W        W28472  36.492   8.771   3.328
67184W        W28473   6.249  30.158  12.555
67185W        W28474  18.732  29.924  11.877
67186W        W28475  24.615   4.324   2.318
67187W        W28476   6.236  37.405  12.576
67188W        W28477   3.338   2.831   4.138
67189W        W28478  18.184  16.617   3.275
67190W        W28479  22.655  27.175  12.459
67191W        W28480  14.819   4.709  14.954
67192W        W28481  37.885  35.035   0.824
67193W        W28482  22.220  15.309  12.513
67194W        W28483  10.690  32.455  11.388
67195W        W28484  25.560  22.077  14.833
67196W        W28485   3.285  21.686   3.243
67197W        W28486  38.363  28.505   3.264
67198W        W28487  32.936  30.066  10.558
67199W        W28488   9.205  21.706  14.955
67200W        W28489   8.361  17.585   0.806
67201W        W28490  40.843  25.677  12.350
67202W        W28491  44.850   6.717   1.426
67203W        W28492  22.577  41.025   0.786
67204W        W28493  32.625  39.980  11.469
67205W        W28494   8.892   6.856   4.204
67206W        W28495   5.885  29.943   3.300
67207W        W28496  14.263  11.169   2.222
67208W        W28497  24.090   2.957  10.923
67209W        W28498  10.270  31.961  12.896
67210W        W28499  25.539  17.079   3.764
67211W        W28500  12.641  14.109   2.271
67212W        W28501   4.282  10.698  11.004
67213W        W28502  22.046  20.141   3.251
67214W        W28503  35.929  15.275  13.435
67215W        W28504  41.882  32.106  12.992
67216W        W28505  19.763  32.483   3.214
67217W        W28506   4.753  23.551  12.496
67218W        W28507  42.521  12.804   3.678
67219W        W28508  18.628  10.653   1.401
67220W        W28509  20.716   1.808   0.401
67221W        W28510   7.278   8.307  13.926
67222W        W28511  22.170   0.379  11.980
67223W        W28512  16.080  18.766  11.986
67224W        W28513  41.420  36.554   4.314
67225W        W28514  28.614   6.699  13.324
67226W        W28515   4.780  10.828   4.727
67227W        W28516   4.240   9.307  14.419
67228W        W28517   3.425   2.468  11.400
67229W        W28518  32.029   5.833  10.150
67230W        W28519  28.136  35.433  11.892
67231W        W28520   9.728  41.932  14.800
67232W        W28521  19.081  30.654   1.746
67233W        W28522   7.854  22.686   4.226
67234W        W28523  38.918  14.719  11.447
67235W        W28524  20.646  27.009  12.869
67236W        W28525   6.820  22.502  13.032
67237W        W28526  35.503  26.973  14.924
67238W        W28527  29.532  16.617   2.217
67239W        W28528  24.555  16.707   3.350
67240W        W28529  29.957   3.291   1.445
67241W        W28530  35.527   9.755  12.922
67242W        W28531  17.661   3.450   2.778
67243W        W28532   9.256  15.179  12.501
67244W        W28533  39.977  21.217   0.460
67245W        W28534  31.476  36.084   1.774
67246W        W28535   7.892  17.598   2.343
67247W        W28536   2.817  24.707   0.780
67248W        W28537  42.371  32.420  13.426
67249W        W28538  11.745  38.923   0.871
67250W        W28539  10.700  43.436   3.384
67251W        W28540   8.360  23.575   0.825
67252W        W28541   3.863  22.692   0.880
67253W        W28542  19.121  41.016  12.979
67254W        W28543  18.212  39.993   3.865
67255W        W28544  35.463   8.298   4.629
67256W        W28545  22.572  38.568   2.179
67257W        W28546  26.624  20.042   0.447
67258W        W28547  20.140  17.765   2.253
67259W        W28548  34.120  14.713   1.849
67260W        W28549  19.740  32.529   0.803
67261W        W28550  36.504  10.836   1.364
67262W        W28551  42.437  44.361   4.159
67263W        W28552  12.765  39.384   0.480
67264W        W28553  25.529  41.918   1.211
67265W        W28554  43.397  23.516   2.317
67266W        W28555  36.019  44.907  12.949
67267W        W28556  25.587  41.364   3.726
67268W        W28557   2.442  22.237  11.580
67269W        W28558   2.756  31.002  12.355
67270W        W28559  37.853  18.748   3.359
67271W        W28560  22.701  31.466   2.879
67272W        W28561  14.134  30.627   1.379
67273W        W28562  26.035  16.764   2.207
67274W        W28563  15.736  44.348   0.729
67275W        W28564   0.919  40.876  11.865
67276W        W28565   4.863  10.692   1.811
67277W        W28566  41.497  25.002   4.236
67278W        W28567  16.116  37.386   2.250
67279W        W28568  31.077  21.541  13.963
67280W        W28569  29.019   9.755  11.970
67281W        W28570  40.313  32.082  14.965
67282W        W28571  41.339  29.132   2.204
67283W        W28572  15.086  44.965  12.437
67284W        W28573  43.940  30.569  14.482
67285W        W28574  17.093  25.473   2.400
67286W        W28575  18.148   2.233  11.542
67287W        W28576   9.341  31.424  14.928
67288W        W28577  36.933  44.316  14.810
67289W        W28578  12.831   8.230  11.371
67290W        W28579  15.795  41.348   0.334
67291W        W28580  13.789  44.921   0.833
67292W        W28581  44.943  36.984  13.807
67293W        W28582  18.579  36.587  13.348
67294W        W28583  33.438  32.064  10.159
67295W        W28584   4.943  34.018  13.935
67296W        W28585  22.116   2.888  14.951
67297W        W28586  24.543  11.679  11.399
67298W        W28587  24.688  28.955  10.475
67299W        W28588  41.417  42.019   4.736
67300W        W28589  18.647  29.998  14.443
67301W        W28590  13.341  11.666   4.619
67302W        W28591  24.485  13.169  10.557
67303W        W28592  13.230  32.980   1.312
67304W        W28593  41.859  25.561  13.936
67305W        W28594  13.832  26.107  11.518
67306W        W28595  12.266  19.157   2.877
67307W        W28596  41.315  16.698   4.306
67308W        W28597  30.535  23.548   0.871
67309W        W28598   0.392   2.849  11.566
67310W        W28599  18.200  31.030   3.812
67311W        W28600  16.787  44.785  14.402
67312W        W28601  32.423   8.174   0.418
67313W        W28602  11.367  19.599   4.128
67314W        W28603  15.189  25.637  14.290
67315W        W28604  38.014  33.538   0.806
67316W        W28605  11.295  32.005  14.401
67317W        W28606   9.856  16.649   4.779
67318W        W28607  29.430  41.014  12.394
67319W        W28608   8.899  12.142   3.854
67320W        W28609   5.912  29.442  12.040
67321W        W28610  44.475  16.731   4.151
67322W        W28611  22.727  22.047   5.191
67323W        W28612  10.340  36.556   0.348
67324W        W28613  43.446  32.966  10.557
67325W        W28614   7.757  34.406  11.992
67326W        W28615  32.391   1.428  12.002
67327W        W28616  16.691  12.150   3.258
67328W        W28617  33.055  27.465   3.778
67329W        W28618  22.552   2.841  11.559
67330W        W28619   0.484  26.125  11.864
67331W        W28620  23.605  32.479   2.409
67332W        W28621  30.964  11.779  14.360
67333W        W28622  23.722  36.982   3.339
67334W        W28623  43.824  23.220   1.782
67335W        W28624  40.813  23.147  10.556
67336W        W28625  43.991   1.399   2.776
67337W        W28626  30.112  25.996   3.633
67338W        W28627  43.816  24.567   1.708
67339W        W28628  25.508   4.298  10.990
67340W        W28629  20.666  43.822   3.645
67341W        W28630   9.698   2.864  14.477
67342W        W28631  14.197  11.800   2.276
67343W        W28632  34.411   0.789   3.218
67344W        W28633  35.453   0.943  12.370
67345W        W28634  44.307  40.398   1.288
67346W        W28635  19.152  42.847   0.336
67347W        W28636  15.083  14.334   4.250
67348W        W28637  34.056  13.153   4.741
67349W        W28638  18.562  42.318   4.202
67350W        W28639  24.556   3.287   3.748
67351W        W28640   8.231  37.068  14.393
67352W        W28641  25.638  27.482  12.015
67353W        W28642  25.065  41.954  13.008
67354W        W28643  17.238  10.715   3.770
67355W        W28644   6.192  13.763   4.663
67356W        W28645   0.785   4.744   2.669
67357W        W28646  30.451  25.063  12.861
67358W        W28647   1.351  21.140  11.941
67359W        W28648  30.095  31.957   4.781
67360W        W28649   9.691   1.772  11.874
67361W        W28650  44.943  28.611  14.917
67362W        W28651  14.322  41.034  12.993
67363W        W28652  22.087  29.999   3.640
67364W        W28653  40.848   5.850   0.752
67365W        W28654  39.383  39.914  13.873
67366W        W28655  18.125  35.904   3.227
67367W        W28656  32.975  27.958  11.422
67368W        W28657   2.797  43.943  11.867
67369W        W28658   1.474  29.510  13.486
67370W        W28659   8.855  13.295   2.848
67371W        W28660  24.157  10.741   4.281
67372W        W28661  15.272  17.799   2.711
67373W        W28662  16.627   4.915  12.838
67374W        W28663  14.151   1.936  12.456
67375W        W28664  42.483   6.256  14.936
67376W        W28665   4.347  13.732   2.699
67377W        W28666  13.686  42.898  13.400
67378W        W28667  21.200  30.090   1.381
67379W        W28668  31.070   0.962   1.368
67380W        W28669   6.392  40.799   4.679
67381W        W28670  25.484  38.567   2.747
67382W        W28671  33.949  24.496   1.788
67383W        W28672  23.654  41.352  10.569
67384W        W28673  22.034  15.817  10.895
67385W        W28674   8.700  41.527   4.657
67386W        W28675  11.356  24.158   4.207
67387W        W28676  26.996  44.003   1.276
67388W        W28677  26.530  21.664  12.055
67389W        W28678  17.697  27.519  14.395
67390W        W28679  42.338   8.861  13.405
67391W        W28680  16.743  13.144   1.389
67392W        W28681  19.753   3.914   2.888
67393W        W28682  44.364  10.382  11.913
67394W        W28683  35.108  12.808  12.543
67395W        W28684   8.855  31.408  13.844
67396W        W28685  30.128  32.467   3.641
67397W        W28686  30.964  16.235   2.316
67398W        W28687   5.360  42.501  10.450
67399W        W28688  29.582  35.552   1.755
67400W        W28689   7.779  41.951   0.822
67401W        W28690  41.009   8.382  11.543
67402W        W28691  25.576   7.839   4.307
67403W        W28692  26.141  24.196   0.305
67404W        W28693  19.627  44.959   0.295
67405W        W28694  30.583  28.539  13.048
67406W        W28695  15.615  42.403  13.524
67407W        W28696  34.504  33.432  12.386
67408W        W28697  40.512  31.089  12.059
67409W        W28698  42.420  19.081  11.047
67410W        W28699  26.504  31.424   4.214
67411W        W28700  25.595  14.749   4.762
67412W        W28701   2.399  35.545  13.364
67413W        W28702  12.133   7.246  14.468
67414W        W28703  27.157  32.626   2.204
67415W        W28704   3.807  11.840  11.018
67416W        W28705  29.978  31.505   0.434
67417W        W28706   3.412  31.900  10.609
67418W        W28707  18.560  44.914  14.377
67419W        W28708  28.180  13.209  14.986
67420W        W28709  10.228  30.541   9.936
67421W        W28710  17.123  36.060   2.829
67422W        W28711  30.443  20.524   0.358
67423W        W28712  36.538  44.800  10.497
67424W        W28713  30.986  27.667  10.597
67425W        W28714   5.810  37.557  10.604
67426W        W28715  40.861  11.820  14.780
67427W        W28716  41.833  39.988   5.185
67428W        W28717  18.270  19.682   4.128
67429W        W28718  34.556  37.952   1.788
67430W        W28719   4.840  18.665   2.817
67431W        W28720  19.724   3.950  11.069
67432W        W28721  27.117  44.375   4.708
67433W        W28722   0.789  21.564  13.493
67434W        W28723  40.845  35.518  13.548
67435W        W28724   2.930  37.916  13.014
67436W        W28725   9.195   4.385  14.915
67437W        W28726   9.687  18.261  14.310
67438W        W28727  26.085  42.792  14.398
67439W        W28728  28.619  13.232  13.927
67440W        W28729  42.902  31.094  10.588
67441W        W28730  17.632  39.885   0.768
67442W        W28731   2.405  11.862  11.974
67443W        W28732  44.979  19.566   0.949
67444W        W28733  16.158  34.474   4.129
67445W        W28734  22.608  43.371   4.139
67446W        W28735  39.865   5.795  12.379
67447W        W28736  37.547  29.158   2.332
67448W        W28737  34.395  12.325   2.342
67449W        W28738  21.165  40.028  12.424
67450W        W28739  41.951  41.927   1.233
67451W        W28740   6.707  29.945   2.349
67452W        W28741   0.352  43.281  12.902
67453W        W28742  13.631  12.841  11.086
67454W        W28743  40.508  24.527   2.276
67455W        W28744  31.039  33.491   0.360
67456W        W28745  20.113  44.308   1.742
67457W        W28746  38.856   0.765   3.160
67458W        W28747  32.472  36.480   1.840
67459W        W28748  16.700  23.517   2.873
67460W        W28749  23.224  43.943  12.479
67461W        W28750  31.150  44.987   4.731
67462W        W28751   0.947   7.414  10.048
67463W        W28752  10.718  22.060   4.704
67464W        W28753  22.547  12.178   0.373
67465W        W28754  20.119   1.330   2.678
67466W        W28755  18.101  16.721  12.456
67467W        W28756  34.000  23.590   2.849
67468W        W28757  20.124  27.059  10.898
67469W        W28758   3.734  29.588   1.891
67470W        W28759  33.561  32.111  14.838
67471W        W28760  44.008   1.741   2.274
67472W        W28761  13.279  14.606   0.395
67473W        W28762  33.992  37.078  11.466
67474W        W28763   7.724  40.483   0.744
67475W        W28764  38.008  40.940   2.225
67476W        W28765  42.824  26.989  14.422
67477W        W28766  19.612   3.223  13.887
67478W        W28767   9.286   1.806  10.891
67479W        W28768   4.385  19.588   2.680
67480W        W28769  42.503  25.006   4.707
67481W        W28770   4.767  28.002   2.882
67482W        W28771  40.529  12.332   2.384
67483W        W28772  16.134  14.188   0.369
67484W        W28773  41.834  21.572   3.836
67485W        W28774  34.551  10.209  13.360
67486W        W28775  29.009  29.056   2.878
67487W        W28776   3.859  28.647   4.134
67488W        W28777  20.035  40.844  12.469
67489W        W28778  13.157  32.063   2.338
67490W        W28779  41.450  42.344  13.391
67491W        W28780  38.421  28.029  14.963
67492W        W28781   6.790  40.998   0.859
67493W        W28782  40.320   1.763   2.753
67494W        W28783  43.918  35.600   1.365
67495W        W28784  19.084  14.769  10.905
67496W        W28785  43.292  34.419  12.068
67497W        W28786   8.793  33.108   0.477
67498W        W28787   9.276  13.690  13.468
67499W        W28788  32.001   4.353  11.089
67500W        W28789  22.008  33.961   0.291
67501W        W28790  36.515  34.896   2.382
67502W        W28791   4.740  37.895   0.780
67503W        W28792  44.884  19.697   0.307
67504W        W28793  36.585  44.844  11.476
67505W        W28794   9.754   1.910  13.446
67506W        W28795  10.210   9.707  12.041
67507W        W28796   0.285  31.466  11.591
67508W        W28797  32.012  30.019   3.719
67509W        W28798  33.568   0.816  11.478
67510W        W28799  20.161  21.255  12.048
67511W        W28800  29.002  18.721  12.402
67512W        W28801  44.406  26.593  13.812
67513W        W28802   1.300  28.507  12.990
67514W        W28803  31.898   4.293   3.284
67515W        W28804   9.274  40.912  10.559
67516W        W28805  15.584  24.050   2.785
67517W        W28806  39.899  15.318   2.897
67518W        W28807  13.706  21.108   3.231
67519W        W28808  35.086  13.716   0.368
67520W        W28809  42.473  10.357  12.414
67521W        W28810  32.050   4.205   0.249
67522W        W28811  43.400  20.222   0.482
67523W        W28812  30.435   2.447  10.444
67524W        W28813  27.130   7.887   2.408
67525W        W28814  41.031  39.036   1.387
67526W        W28815  13.702  39.405   1.795
67527W        W28816  13.312  21.150   1.902
67528W        W28817   2.391  33.126   1.739
67529W        W28818   0.348  20.257  12.462
67530W        W28819  20.262   3.366  13.370
67531W        W28820  20.764  19.230   4.609
67532W        W28821   7.834  25.193   9.535
67533W        W28822  37.436   9.833   3.204
67534W        W28823  10.852  36.075   1.843
67535W        W28824  29.451  23.588  13.380
67536W        W28825  31.899  26.592  12.079
67537W        W28826   2.894  35.894  12.428
67538W        W28827  17.298  43.414   3.765
67539W        W28828  26.060   8.202   2.328
67540W        W28829  41.440  17.141  12.523
67541W        W28830  28.146  32.439  11.857
67542W        W28831  37.530   5.432   1.804
67543W        W28832   4.777   7.221   0.888
67544W        W28833  18.207  14.748  14.365
67545W        W28834  11.364  11.663   2.252
67546W        W28835  44.937   5.741   3.223
67547W        W28836  39.467  39.939  13.538
67548W        W28837  14.769   9.308  14.952
67549W        W28838   7.404  10.712   1.395
67550W        W28839  34.408  35.517   0.876
67551W        W28840  17.222  32.459  12.909
67552W        W28841  36.539   7.700  10.471
67553W        W28842  25.691  17.578   2.253
67554W        W28843  37.428  13.139   3.795
67555W        W28844  29.922   2.421  10.427
67556W        W28845  14.613  32.021  11.063
67557W        W28846  11.726  24.486   2.315
67558W        W28847  25.588  34.110   4.687
67559W        W28848  30.927   5.212   0.456
67560W        W28849  20.597  13.832   3.806
67561W        W28850  12.630   5.802   2.312
67562W        W28851   1.463  34.473   3.386
67563W        W28852  38.950   1.787  11.414
67564W        W28853  14.644  42.883   4.811
67565W        W28854   0.425   0.800   3.651
67566W        W28855   6.237  30.419  13.311
67567W        W28856  12.793  24.996   4.197
67568W        W28857  42.475  36.066   1.250
67569W        W28858   5.835  10.231  11.585
67570W        W28859   8.869  44.772  11.518
67571W        W28860   2.898  34.529   0.781
67572W        W28861  15.626  34.888  10.541
67573W        W28862  13.623  21.551   3.154
67574W        W28863   1.375  40.970   0.727
67575W        W28864  14.808  19.066  14.822
67576W        W28865  21.091  32.984   4.618
67577W        W28866  39.017  31.147   0.315
67578W        W28867  17.299  23.010   3.757
67579W        W28868  37.890  32.480   0.258
67580W        W28869  33.548  12.837  10.085
67581W        W28870  44.306  20.690   1.834
67582W        W28871  31.600  29.482  11.114
67583W        W28872  27.187   9.339  12.068
67584W        W28873   6.704  31.936  12.525
67585W        W28874  30.515  10.847  12.579
67586W        W28875  16.660  28.136  10.543
67587W        W28876  12.284  34.052   0.344
67588W        W28877  15.325  35.873   3.685
67589W        W28878  40.805  36.463  13.454
67590W        W28879   8.754   5.760   0.380
67591W        W28880  38.879  24.665   2.688
67592W        W28881   2.372  44.459   3.730
67593W        W28882  44.487  24.033  10.614
67594W        W28883  38.956  35.089   4.666
67595W        W28884   6.744   7.893   1.260
67596W        W28885  43.449  36.901   3.386
67597W        W28886  13.761  25.535  13.036
67598W        W28887  15.672  29.457  11.880
67599W        W28888  35.891  25.561   2.301
67600W        W28889   4.885  28.037   2.287
67601W        W28890   1.431  20.239  13.891
67602W        W28891  38.060  34.501  14.346
67603W        W28892  43.795   7.394   1.732
67604W        W28893  42.996  13.350   2.395
67605W        W28894  32.607  34.928   2.268
67606W        W28895  17.704   9.311   3.176
67607W        W28896   1.468  32.413  13.054
67608W        W28897  33.502  28.034  13.904
67609W        W28898  15.180  39.455   9.983
67610W        W28899  17.197  18.632  14.339
67611W        W28900  37.083  39.329   4.344
67612W        W28901   9.725   4.841   2.755
67613W        W28902   5.810  44.351   4.818
67614W        W28903  11.164  44.933  11.909
67615W        W28904  14.603  19.576  13.957
67616W        W28905  36.528  16.697   3.753
67617W        W28906   9.325   6.404  10.105
67618W        W28907  11.259  20.168  13.543
67619W        W28908  39.447  36.887   2.749
67620W        W28909  29.575   7.366  13.816
67621W        W28910  33.961  21.161   1.246
67622W        W28911  29.931   7.319   3.836
67623W        W28912  14.780  41.334   2.706
67624W        W28913  20.647  33.025  12.369
67625W        W28914  26.020   7.894   0.472
67626W        W28915  40.886  43.784  11.943
67627W        W28916  40.391  43.483   4.724
67628W        W28917   5.736  36.437   0.771
67629W        W28918  15.115  36.846  12.997
67630W        W28919  21.625  39.856  11.432
67631W        W28920  20.161  43.811   3.811
67632W        W28921   9.360  41.796   0.961
67633W        W28922  41.814   4.266   0.885
67634W        W28923  17.666  19.657   4.261
67635W        W28924  39.995  28.133   0.847
67636W        W28925  30.417  12.610   3.381
67637W        W28926  31.084  16.713   1.895
67638W        W28927  10.798  44.497   2.737
67639W        W28928  36.080  41.960   0.849
67640W        W28929  27.598  12.720  11.962
67641W        W28930  12.711  24.219  10.124
67642W        W28931  15.664  19.150   0.334
67643W        W28932  13.291  12.777  14.316
67644W        W28933   2.850   5.311  12.060
67645W        W28934  44.319  33.471   3.755
67646W        W28935   8.370  37.027  10.539
67647W        W28936  41.008  19.663   3.192
67648W        W28937  20.685  22.634   2.767
67649W        W28938  17.776  11.175  13.832
67650W        W28939  16.104  18.264  10.536
67651W        W28940   1.353  18.568   0.865
67652W        W28941  36.097  29.987  11.972
67653W        W28942  39.400  29.918  11.095
67654W        W28943  41.931   5.436   3.742
67655W        W28944   8.780  29.504  11.110
67656W        W28945  19.556  30.563  11.485
67657W        W28946  18.698  42.902  10.623
67658W        W28947  44.307  19.646  11.379
67659W        W28948  20.669  29.457   2.373
67660W        W28949  24.590  39.938  14.302
67661W        W28950  12.306  43.460   5.321
67662W        W28951   5.905   7.176  10.419
67663W        W28952  34.540  11.798   1.785
67664W        W28953  39.476  31.418  13.442
67665W        W28954  11.690  23.211  12.502
67666W        W28955  18.711  21.087   9.946
67667W        W28956   7.716  25.555   3.240
67668W        W28957  29.054  34.381  14.414
67669W        W28958  18.625  34.073   4.277
67670W        W28959  23.227   3.240  10.511
67671W        W28960  40.384  27.451   3.262
67672W        W28961  31.458  16.269  11.888
67673W        W28962  28.026  29.158   0.883
67674W        W28963   1.930   9.308   0.314
67675W        W28964  29.432  26.160   3.667
67676W        W28965  30.158  14.784   1.397
67677W        W28966  14.183   7.806  12.477
67678W        W28967  44.350  23.126   4.694
67679W        W28968  33.514  34.906   0.880
67680W        W28969   4.873  21.517   0.793
67681W        W28970  37.081  24.660  14.864
67682W        W28971  40.893  17.254   0.362
67683W        W28972  37.052  19.190   2.866
67684W        W28973   4.856  41.787   0.799
67685W        W28974  41.986  42.477  11.861
67686W        W28975   3.907  38.384   2.858
67687W        W28976  35.004  24.981   0.315
67688W        W28977  41.434  10.308   3.201
67689W        W28978  14.226   7.358  14.920
67690W        W28979  31.149  42.455  14.394
67691W        W28980  18.256  43.830   0.877
67692W        W28981  13.650  13.220   2.888
67693W        W28982  24.641  34.979  10.503
67694W        W28983  17.180   7.692  11.891
67695W        W28984  16.700   8.210  12.427
67696W        W28985  16.188  18.265   1.821
67697W        W28986  38.499  22.199   1.228
67698W        W28987  30.915  34.557   2.273
67699W        W28988  44.369  31.997  10.108
67700W        W28989  40.907  21.754  11.572
67701W        W28990   6.689   9.234   0.333
67702W        W28991  29.085  16.300   2.331
67703W        W28992  33.876  10.823  12.045
67704W        W28993  35.402  16.705  11.998
67705W        W28994  36.533  41.923  12.396
67706W        W28995   7.748   2.780   2.392
67707W        W28996  34.032  41.885  11.920
67708W        W28997  37.567  26.970  12.438
67709W        W28998  13.602   1.859  12.983
67710W        W28999  11.820   4.835   3.251
67711W        W29000  11.668  32.531  10.899
67712W        W29001  28.180  17.293   1.395
67713W        W29002  24.172  35.107   3.667
67714W        W29003   2.922  32.529   1.857
67715W        W29004  32.531  38.425   4.633
67716W        W29005  26.102  36.366  12.446
67717W        W29006  24.507  39.003   3.275
67718W        W29007   9.286  29.994   2.693
67719W        W29008  35.576  37.076  10.940
67720W        W29009  41.888  40.891   3.822
67721W        W29010  37.391  21.048  14.409
67722W        W29011  12.645  25.024  14.397
67723W        W29012  30.959  34.553   0.361
67724W        W29013   3.764  25.217   9.975
67725W        W29014  24.094  31.973  11.858
67726W        W29015   5.328   7.754   0.406
67727W        W29016  41.881  14.680   0.281
67728W        W29017  42.416  43.489  12.994
67729W        W29018  40.984  24.581   0.386
67730W        W29019  44.365  39.874   4.165
67731W        W29020  20.646  40.352   1.311
67732W        W29021  25.180  18.565   2.204
67733W        W29022  15.656   5.929   3.826
67734W        W29023  20.643  38.409  12.369
67735W        W29024  22.129  15.314  12.062
67736W        W29025  22.118  40.396  12.426
67737W        W29026  34.886  19.701   0.338
67738W        W29027   1.379  40.316  14.457
67739W        W29028  38.059   9.175  13.380
67740W        W29029  32.456  15.134  10.964
67741W        W29030  38.488  26.491  12.069
67742W        W29031   9.857  16.643   3.329
67743W        W29032  20.609  43.484   0.271
67744W        W29033  30.935  14.293   3.871
67745W        W29034  43.936  38.865   3.294
67746W        W29035  10.800  20.705   0.250
67747W        W29036  39.491  34.032  12.568
67748W        W29037   3.722  40.361   3.850
67749W        W29038  41.421   0.779  11.432
67750W        W29039   0.988  30.463   1.759
67751W        W29040   6.395   8.181  11.887
67752W        W29041  29.986  25.090  12.999
67753W        W29042  28.661   1.483  13.909
67754W        W29043  37.996   9.164  12.489
67755W        W29044   0.829   1.848   3.859
67756W        W29045  20.749  20.528   4.738
67757W        W29046  21.153  22.532   5.142
67758W        W29047  17.124  39.471  14.022
67759W        W29048   4.768   3.805  12.939
67760W        W29049  16.093  13.809  10.994
67761W        W29050  36.029  18.141  10.644
67762W        W29051  42.332  17.188   4.600
67763W        W29052   9.242   9.783  13.403
67764W        W29053   6.245  15.621  12.911
67765W        W29054  32.493  19.624   1.712
67766W        W29055  20.078   5.878   4.770
67767W        W29056  17.779  42.434  12.341
67768W        W29057  41.338   0.963  11.862
67769W        W29058  44.906  25.173   1.805
67770W        W29059  29.597  11.236  14.819
67771W        W29060  16.221  24.522   4.609
67772W        W29061  38.348  36.907  13.469
67773W        W29062  15.316   1.304   1.429
67774W        W29063  37.931  30.447   2.810
67775W        W29064  17.222  30.646  12.365
67776W        W29065  26.122  25.108  13.938
67777W        W29066   2.933  35.982  10.937
67778W        W29067  17.620  38.930   2.880
67779W        W29068  18.685  29.117   1.723
67780W        W29069   3.904  12.732   2.902
67781W        W29070  31.146  17.191  14.781
67782W        W29071  37.965  36.538   3.351
67783W        W29072  28.172  38.388   3.804
67784W        W29073   2.260  40.949  10.596
67785W        W29074  19.598  14.678   2.775
67786W        W29075   6.756   2.412  12.010
67787W        W29076  40.053  13.182  14.483
67788W        W29077  37.387  27.619   1.406
67789W        W29078  27.601   0.942  14.338
67790W        W29079  32.977  21.127   4.287
67791W        W29080  40.853  15.614  12.388
67792W        W29081  18.660   8.678  13.339
67793W        W29082  23.723  34.087   2.241
67794W        W29083  17.578  24.983   0.760
67795W        W29084  31.122   8.184  11.375
67796W        W29085   5.330  12.327  12.089
67797W        W29086   5.763  41.946  10.610
67798W        W29087  38.974  11.302  11.546
67799W        W29088  22.550  30.493  13.827
67800W        W29089   6.690  22.524   4.300
67801W        W29090  39.029  25.015   0.789
67802W        W29091  33.430  37.502   0.281
67803W        W29092  31.575  36.981  12.994
67804W        W29093  31.127  24.712   2.805
67805W        W29094  35.040  22.253   2.876
67806W        W29095  15.803  35.373   0.872
67807W        W29096  28.969   3.741  13.871
67808W        W29097  29.090   8.167  14.840
67809W        W29098  30.985  32.099  10.044
67810W        W29099  28.111   7.732   3.711
67811W        W29100  36.909  31.546  13.936
67812W        W29101  33.890  44.368  12.372
67813W        W29102   9.214  21.032   9.954
67814W        W29103  33.954  27.992  13.845
67815W        W29104  43.880  33.991  10.974
67816W        W29105  24.111   7.840   0.414
67817W        W29106  34.404  30.930   3.178
67818W        W29107  33.924  25.065   3.358
67819W        W29108  44.004   9.871   1.934
67820W        W29109  23.106  23.190   2.871
67821W        W29110  40.878   5.366   4.251
67822W        W29111   9.818  23.727  13.337
67823W        W29112  38.014  39.064   4.314
67824W        W29113  24.703   3.842  13.952
67825W        W29114  31.096  28.996  12.008
67826W        W29115  41.864  10.749  12.888
67827W        W29116   9.822  28.975  14.795
67828W        W29117  32.446  26.481  12.573
67829W        W29118  20.107   1.328  12.860
67830W        W29119  36.420  27.586  10.549
67831W        W29120  41.991  29.174   2.231
67832W        W29121  17.266  44.299  11.932
67833W        W29122  32.457  20.210  13.818
67834W        W29123   1.797  18.754   2.696
67835W        W29124   7.199  35.014   1.249
67836W        W29125  34.436  13.323   0.420
67837W        W29126  17.139  43.000   4.206
67838W        W29127   2.320  35.977   3.201
67839W        W29128   6.392   2.318   0.847
67840W        W29129  41.813  35.377   2.675
67841W        W29130  24.053   0.847  10.636
67842W        W29131  20.148  26.540  12.535
67843W        W29132  16.219  42.460  13.879
67844W        W29133   7.848  25.989   3.654
67845W        W29134  31.986  10.310   3.261
67846W        W29135  43.490  11.188   1.429
67847W        W29136   4.939  42.987  13.064
67848W        W29137  12.697  32.393   0.264
67849W        W29138  37.516  21.245   1.279
67850W        W29139  24.612   8.740  12.953
67851W        W29140  36.978  34.923   3.168
67852W        W29141   1.331  33.468   0.923
67853W        W29142  37.929  24.530   2.756
67854W        W29143  34.419  20.257  11.489
67855W        W29144  13.159  10.699   1.251
67856W        W29145  21.739  40.909  11.447
67857W        W29146  42.408  14.642   2.417
67858W        W29147  39.442  29.603  13.527
67859W        W29148  16.199  32.016   1.869
67860W        W29149  25.524  43.855  13.458
67861W        W29150  26.972  41.437   2.374
67862W        W29151  30.115  33.094   2.736
67863W        W29152   6.825  32.920  13.318
67864W        W29153  10.682  41.944  14.866
67865W        W29154  19.611  10.301  11.900
67866W        W29155  11.661  41.829  12.932
67867W        W29156  18.091  34.052   4.277
67868W        W29157   9.274   1.977   1.434
67869W        W29158   0.797  41.010  13.970
67870W        W29159   3.258  15.186   1.854
67871W        W29160  16.292  24.130  14.429
67872W        W29161  41.443  13.780  12.949
67873W        W29162  10.143  31.116   4.606
67874W        W29163  30.142   2.814   4.238
67875W        W29164  15.191  38.009  13.939
67876W        W29165   2.348  41.525   2.215
67877W        W29166  30.917  40.345  14.976
67878W        W29167  36.007  22.205  11.440
67879W        W29168  18.262  18.788   2.310
67880W        W29169  23.233  10.312  11.016
67881W        W29170  29.035  15.687   1.863
67882W        W29171   7.832  20.570  11.074
67883W        W29172  40.470  39.868  10.071
67884W        W29173   1.770  24.659   0.913
67885W        W29174  13.158  11.867  12.908
67886W        W29175  12.342   0.311  13.424
67887W        W29176  30.469  17.650   4.281
67888W        W29177  35.054   0.313  11.532
67889W        W29178   2.728  14.607  11.425
67890W        W29179  38.028  36.408  12.517
67891W        W29180  42.513  44.969  11.098
67892W        W29181   5.780  44.293  11.997
67893W        W29182  41.374  17.259   4.641
67894W        W29183  40.436  42.953  11.014
67895W        W29184  32.545   5.759  14.900
67896W        W29185  42.353   8.389  12.436
67897W        W29186  24.033  28.544  10.617
67898W        W29187  41.380  11.636   2.353
67899W        W29188   7.836  27.180   4.297
67900W        W29189  18.680  22.216  10.961
67901W        W29190  10.672  29.954  12.836
67902W        W29191  37.935   7.692  11.121
67903W        W29192   4.204   9.326   2.782
67904W        W29193  28.945  15.137   3.739
67905W        W29194   5.362  16.181  14.502
67906W        W29195   3.851   0.844  13.378
67907W        W29196   5.688  43.796  14.906
67908W        W29197  26.129  32.449  13.917
67909W        W29198  25.700  39.526  13.913
67910W        W29199  44.817  22.713   1.252
67911W        W29200   8.229  18.171  13.530
67912W        W29201  14.758  28.513   1.332
67913W        W29202  23.071  35.513  12.846
67914W        W29203  43.426  44.957   0.285
67915W        W29204  16.690   0.432   0.754
67916W        W29205  31.936  31.459   1.724
67917W        W29206  32.022  14.614   3.157
67918W        W29207  41.488  13.725  14.808
67919W        W29208  23.124   5.818   4.323
67920W        W29209  19.746  29.003  10.074
67921W        W29210   6.187  12.283  13.842
67922W        W29211  44.764  16.266   0.294
67923W        W29212   0.801   9.246  11.989
67924W        W29213  19.090  19.625   2.388
67925W        W29214  21.186   9.751  14.291
67926W        W29215   2.274   9.870   1.824
67927W        W29216  33.594  30.500  13.877
67928W        W29217  44.838  31.019   3.321
67929W        W29218  36.390   7.693  13.384
67930W        W29219   1.375  16.289  14.991
67931W        W29220  28.625  26.666  11.073
67932W        W29221  39.315   5.922  13.909
67933W        W29222  35.965   4.760  11.054
67934W        W29223  36.000   9.748  12.908
67935W        W29224  29.426  12.809   0.730
67936W        W29225   4.925  37.083  13.838
67937W        W29226  20.121  12.140  10.440
67938W        W29227  32.925   0.775   3.738
67939W        W29228  44.928   6.677   4.807
67940W        W29229  30.450  43.815   1.816
67941W        W29230  43.418  38.899  14.995
67942W        W29231  44.826  14.650   2.348
67943W        W29232  21.643   4.348  13.541
67944W        W29233  27.164  19.582  10.027
67945W        W29234  28.135  26.985  11.105
67946W        W29235  23.182  44.424  12.874
67947W        W29236  31.899   4.252  12.940
67948W        W29237   9.745   3.925  13.029
67949W        W29238  25.072  18.194   3.681
67950W        W29239  16.303  28.016  13.966
67951W        W29240  34.998  41.834  10.902
67952W        W29241  11.641  33.974  12.437
67953W        W29242  20.228  21.252  12.864
67954W        W29243  40.039  17.676  14.900
67955W        W29244  32.133  25.025  10.424
67956W        W29245  10.747  10.662  12.994
67957W        W29246   9.781  36.530  13.820
67958W        W29247  21.722  28.534  13.488
67959W        W29248  12.327   7.378   1.770
67960W        W29249   6.797  25.102  14.466
67961W        W29250  16.718  33.023   0.794
67962W        W29251  11.690  37.898  14.014
67963W        W29252  40.532  39.862  14.384
67964W        W29253  10.787  44.887  14.844
67965W        W29254  13.132  39.811  12.838
67966W        W29255   2.754  38.943   3.747
67967W        W29256  23.654  22.037  13.472
67968W        W29257  41.305  38.965  12.549
67969W        W29258  43.397  17.749   2.205
67970W        W29259  43.442   3.872   1.400
67971W        W29260  32.030  18.275  14.348
67972W        W29261   9.234  39.436  11.876
67973W        W29262  24.046  37.854  10.568
67974W        W29263   9.758  23.583  14.343
67975W        W29264  42.828  11.864   4.632
67976W        W29265  31.426  25.493   0.955
67977W        W29266  23.012  17.732   4.217
67978W        W29267   2.345  37.355  14.779
67979W        W29268  25.666   7.410   3.761
67980W        W29269  18.595  23.563  14.282
67981W        W29270  30.959  34.051  10.429
67982W        W29271   4.914  15.660   4.228
67983W        W29272  13.620   6.382   3.174
67984W        W29273  27.016  23.725   1.852
67985W        W29274  31.932  34.526  11.065
67986W        W29275  13.605  16.084  11.415
67987W        W29276  28.453  43.417   1.928
67988W        W29277   5.305  17.235   9.923
67989W        W29278  21.168  22.023   2.758
67990W        W29279  33.393  23.546  11.092
67991W        W29280  27.148   9.358   3.683
67992W        W29281  29.579  37.982   2.282
67993W        W29282  19.541  35.444  10.462
67994W        W29283   1.883  21.565   4.236
67995W        W29284  10.304  42.455   3.686
67996W        W29285  23.716   6.903   4.628
67997W        W29286   2.414  21.597   3.385
67998W        W29287  44.335   4.403  11.478
67999W        W29288  28.678  28.072  11.388
68000W        W29289   6.803  40.430  11.102
68001W        W29290  17.708   5.361   1.737
68002W        W29291  35.038  37.454  12.955
68003W        W29292  31.473  36.891  11.467
68004W        W29293  16.162  13.716   4.616
68005W        W29294  17.714  18.223   2.376
68006W        W29295   1.914   7.755   4.687
68007W        W29296   8.740  42.015   2.678
68008W        W29297  39.385  27.126   0.244
68009W        W29298  43.287  34.084   0.414
68010W        W29299  39.514  40.304  11.577
68011W        W29300  25.219  20.639   1.212
68012W        W29301  26.179  17.738  11.390
68013W        W29302  29.483  42.911  14.511
68014W        W29303  12.324   3.265   1.841
68015W        W29304  13.137  26.075   0.748
68016W        W29305  12.637  35.549  12.547
68017W        W29306   1.446  43.776  14.762
68018W        W29307  31.558  42.866   3.796
68019W        W29308  12.812  43.449  14.830
68020W        W29309  30.502   4.229   4.618
68021W        W29310  21.044  44.505   3.702
68022W        W29311   2.357  25.141   1.893
68023W        W29312  40.547  27.620  12.377
68024W        W29313  29.586  14.206   1.729
68025W        W29314  41.947   6.190   2.681
68026W        W29315  31.436  41.834   0.396
68027W        W29316   9.668  18.656  11.063
68028W        W29317  26.198  23.491   5.265
68029W        W29318  17.298  38.950   3.668
68030W        W29319  28.120  17.275  11.984
68031W        W29320  42.463  34.072   3.270
68032W        W29321   5.291  30.416  14.032
68033W        W29322  25.163  20.684   0.776
68034W        W29323  44.895   9.859   0.834
68035W        W29324   3.789  13.325   1.735
68036W        W29325  28.938  15.329  13.509
68037W        W29326  20.123  26.119   0.775
68038W        W29327  40.920  25.583   2.217
68039W        W29328  27.509   7.209  14.425
68040W        W29329  35.960  32.110   2.751
68041W        W29330   0.451  38.516   3.155
68042W        W29331  34.007  31.010  11.532
68043W        W29332  34.604  44.994  12.395
68044W        W29333  38.528  40.909   4.733
68045W        W29334  16.701  23.695  11.528
68046W        W29335  35.598  20.036   1.252
68047W        W29336  13.221  29.949  12.448
68048W        W29337  18.776   3.246  14.371
68049W        W29338  33.972   1.781   2.789
68050W        W29339   1.448  31.153   2.813
68051W        W29340  31.899   7.804  14.324
68052W        W29341  17.599  29.560  13.019
68053W        W29342  14.720  36.538   0.364
68054W        W29343  18.112  35.024  10.611
68055W        W29344  10.302  16.097   3.666
68056W        W29345  12.674  16.761   3.848
68057W        W29346   6.750   6.358   3.673
68058W        W29347  12.615  12.262  11.424
68059W        W29348  29.144  13.740  12.046
68060W        W29349  43.966  42.904   0.836
68061W        W29350  44.303  39.375   2.189
68062W        W29351  31.928  37.881   2.396
68063W        W29352  10.272   8.331  14.513
68064W        W29353  28.440  13.630  14.876
68065W        W29354  22.639   3.822   1.326
68066W        W29355  39.327  17.612   2.178
68067W        W29356  26.464  41.803   3.294
68068W        W29357   9.223  23.566   3.378
68069W        W29358  25.709  11.687   2.839
68070W        W29359   2.778  25.674   0.909
68071W        W29360  17.683  36.936  11.930
68072W        W29361  10.862  44.259   1.237
68073W        W29362  10.214  28.604   2.393
68074W        W29363  29.556  10.251  14.031
68075W        W29364   4.842  21.192   0.302
68076W        W29365  40.450  17.778  13.474
68077W        W29366  32.489  19.676  11.005
68078W        W29367  28.168  35.589   2.330
68079W        W29368  27.481  32.970  11.005
68080W        W29369  23.161  38.949   1.418
68081W        W29370   9.245  42.320   4.786
68082W        W29371  15.246  28.129  14.975
68083W        W29372   8.898  43.992   1.911
68084W        W29373   6.256  28.981  10.568
68085W        W29374  43.501   9.369  11.376
68086W        W29375  44.381  16.206  14.311
68087W        W29376  14.198  30.914  10.477
68088W        W29377  16.276  41.374   5.239
68089W        W29378   7.725  15.315  14.977
68090W        W29379  41.796  10.878   9.993
68091W        W29380   8.833  29.489  10.410
68092W        W29381  14.280  25.171  10.118
68093W        W29382   4.747   2.320   0.459
68094W        W29383  37.520   2.895   2.862
68095W        W29384  17.283  28.453   2.350
68096W        W29385  21.048  36.478   1.378
68097W        W29386  39.052  36.491   0.314
68098W        W29387  18.602  38.510   0.864
68099W        W29388  19.567  12.123  12.390
68100W        W29389   2.896  26.636  11.948
68101W        W29390  25.639  24.184  11.499
68102W        W29391  25.212   0.416   2.408
68103W        W29392  39.405  26.094  11.976
68104W        W29393  28.461   6.365   4.263
68105W        W29394   8.841   8.343  13.473
68106W        W29395   9.758  26.170  13.408
68107W        W29396  14.668  32.090   2.347
68108W        W29397  36.066  33.428   0.844
68109W        W29398  25.504  21.190   4.752
68110W        W29399  27.115  10.669  11.880
68111W        W29400   4.328  41.429  10.474
68112W        W29401   8.698   3.723   1.311
68113W        W29402  36.034  11.733   3.188
68114W        W29403  18.170  22.038  13.352
68115W        W29404  40.983  11.851   3.749
68116W        W29405  44.312  25.012   5.124
68117W        W29406  43.342  17.140   4.792
68118W        W29407  24.664  39.557  11.553
68119W        W29408   7.746   4.244   3.840
68120W        W29409  34.379  42.304   3.659
68121W        W29410  42.453  22.590   2.791
68122W        W29411   0.491  28.463  10.526
68123W        W29412   3.822   6.873  14.438
68124W        W29413   6.219   1.904  12.851
68125W        W29414  17.784  17.194  10.621
68126W        W29415  43.427   4.314   4.678
68127W        W29416  38.040  18.741   2.415
68128W        W29417   7.668  35.974   2.709
68129W        W29418   1.257  21.634  14.852
68130W        W29419  15.701   7.221   2.865
68131W        W29420  43.280  43.473   1.440
68132W        W29421  19.125  11.333  14.392
68133W        W29422  35.598  34.489  11.971
68134W        W29423   4.251   9.169   2.195
68135W        W29424   7.677  36.015   3.847
68136W        W29425   9.690  18.574  11.459
68137W        W29426  29.018  22.528   1.891
68138W        W29427  32.577   2.296   3.781
68139W        W29428   5.839  37.360  14.327
68140W        W29429  38.952  36.419  13.374
68141W        W29430  29.589  12.336   3.747
68142W        W29431   1.357  20.028  12.397
68143W        W29432  33.064  13.139   0.450
68144W        W29433  27.614  17.758  10.464
68145W        W29434   3.444  19.212  14.846
68146W        W29435  43.438  43.499   2.289
68147W        W29436  32.549  17.138   2.285
68148W        W29437  12.168  41.036   1.357
68149W        W29438  32.953  30.619  11.055
68150W        W29439   6.726  32.073  11.465
68151W        W29440   1.795   2.346  11.946
68152W        W29441  33.604  18.686   4.224
68153W        W29442  17.095  28.457   9.970
68154W        W29443  12.795  16.183   3.696
68155W        W29444  10.189  16.087  11.558
68156W        W29445  43.301  16.791  12.561
68157W        W29446  18.626  36.983  12.988
68158W        W29447  25.678  37.919  12.344
68159W        W29448  13.757  14.648  12.351
68160W        W29449  33.926  12.142  10.634
68161W        W29450  24.150  13.226   2.838
68162W        W29451  20.579  14.281   4.688
68163W        W29452   5.750  28.056  14.355
68164W        W29453  26.120  25.974  14.501
68165W        W29454  26.955  11.708   4.160
68166W        W29455  10.750   2.314  13.335
68167W        W29456  24.088  20.263   2.415
68168W        W29457  44.303  20.640   4.813
68169W        W29458  36.593  24.493  10.968
68170W        W29459  17.076   2.853   2.296
68171W        W29460   4.858  14.189   1.367
68172W        W29461  29.450  19.616  10.484
68173W        W29462  37.495  32.937   2.411
68174W        W29463  12.710  39.405   4.617
68175W        W29464  13.315   9.207  13.043
68176W        W29465  22.057  12.354  13.316
68177W        W29466  25.102   4.421  14.514
68178W        W29467  44.480  44.938  14.798
68179W        W29468  24.550  14.166   1.392
68180W        W29469  13.820   3.904   2.244
68181W        W29470  23.544  40.030   4.144
68182W        W29471  34.410  29.477   4.337
68183W        W29472  28.961   0.368   2.815
68184W        W29473  18.737  28.594  11.991
68185W        W29474   6.398  11.798  12.916
68186W        W29475  34.544  17.672   1.233
68187W        W29476  12.804   9.714   1.281
68188W        W29477   3.719  12.209   1.751
68189W        W29478   1.405  21.713   2.694
68190W        W29479  36.886  22.595  14.374
68191W        W29480   8.889  25.688   3.170
68192W        W29481  21.519  39.003   1.730
68193W        W29482  33.606  11.781  12.501
68194W        W29483  38.960  36.050  10.152
68195W        W29484  28.180  39.506   2.353
68196W        W29485  27.989   7.758   4.635
68197W        W29486  12.724  35.969   4.709
68198W        W29487  18.737  25.585  11.998
68199W        W29488  14.100   0.341   4.789
68200W        W29489  23.235  29.491   0.428
68201W        W29490  28.657  39.944   3.364
68202W        W29491  18.643  38.042  13.947
68203W        W29492  21.748   2.856  12.938
68204W        W29493  37.431  34.387   1.842
68205W        W29494  30.080  38.425   2.867
68206W        W29495   2.964   3.921  13.920
68207W        W29496  25.556  22.073   1.853
68208W        W29497   4.278  22.549   3.816
68209W        W29498  10.297   4.292   1.420
68210W        W29499  44.307  34.887   5.117
68211W        W29500  14.105  42.450  14.832
68212W        W29501   0.448  41.412  10.507
68213W        W29502  44.803  39.896  10.921
68214W        W29503  37.374  30.527  10.469
68215W        W29504   2.230   1.867  12.343
68216W        W29505  27.638   6.676   9.622
68217W        W29506  43.937  11.673   0.448
68218W        W29507  23.616  28.548   1.220
68219W        W29508  41.475  22.624   3.739
68220W        W29509  10.794   7.218   3.795
68221W        W29510  37.567   5.725  13.463
68222W        W29511  31.972  32.926   0.746
68223W        W29512  21.628  14.831  13.888
68224W        W29513  14.774  39.050  12.090
68225W        W29514   0.404  17.631  13.456
68226W        W29515  16.643  21.206  11.925
68227W        W29516   6.410  22.100  13.377
68228W        W29517  20.747  15.108   0.391
68229W        W29518   4.356  23.584   3.633
68230W        W29519  32.609   0.974  10.920
68231W        W29520   7.765  23.039  14.873
68232W        W29521  36.585   2.434  10.961
68233W        W29522  10.283  26.178   2.784
68234W        W29523   8.865  35.501   2.329
68235W        W29524   4.917  24.496   3.210
68236W        W29525  31.094  42.929  14.968
68237W        W29526  16.197   8.783  14.883
68238W        W29527  32.048  21.715   3.242
68239W        W29528  14.097  13.717  14.461
68240W        W29529   6.221  25.472   2.353
68241W        W29530  16.577  42.970   3.157
68242W        W29531  25.633  16.749  13.957
68243W        W29532  38.820  13.602  11.025
68244W        W29533  34.039  44.756  11.402
68245W        W29534  43.351   3.812  13.011
68246W        W29535  27.489  43.982  12.548
68247W        W29536  11.804  31.948  12.438
68248W        W29537   7.370  35.433   4.624
68249W        W29538   8.195  18.098  14.851
68250W        W29539  12.770  34.587  10.917
68251W        W29540   1.271  17.675  14.284
68252W        W29541  13.315   9.670  12.865
68253W        W29542  44.485  15.739   5.083
68254W        W29543  32.465   7.851  13.472
68255W        W29544  36.978   1.459   2.710
68256W        W29545  44.427  24.588  11.103
68257W        W29546  16.597  13.828  11.399
68258W        W29547  38.987  19.165   2.314
68259W        W29548  42.466   1.307  13.510
68260W        W29549  13.339  27.003   3.164
68261W        W29550  16.170   9.739  13.791
68262W        W29551  11.221  13.271   4.173
68263W        W29552   9.777  29.923  14.930
68264W        W29553  34.070  42.797   4.213
68265W        W29554  36.488  20.205  13.350
68266W        W29555  20.573   7.173   4.692
68267W        W29556  24.111  30.034  14.799
68268W        W29557  41.489  33.964  14.381
68269W        W29558  42.916  35.427   0.957
68270W        W29559  18.178  18.663  13.391
68271W        W29560  44.316  40.811   3.721
68272W        W29561  41.352  36.971  11.395
68273W        W29562   8.895   8.347  10.615
68274W        W29563  11.831   0.832   2.276
68275W        W29564  26.622  11.221  14.992
68276W        W29565   8.250  44.800   0.824
68277W        W29566  29.515  39.858  12.506
68278W        W29567   7.792  36.006  13.917
68279W        W29568  17.212  18.108   0.965
68280W        W29569  16.171   0.855   4.690
68281W        W29570  14.625  24.146  12.962
68282W        W29571   2.795   5.333  13.358
68283W        W29572  28.065  32.998  12.967
68284W        W29573  10.691  10.697   3.768
68285W        W29574  16.085  30.557   1.741
68286W        W29575  11.694  20.600   2.774
68287W        W29576  18.113  21.605   2.337
68288W        W29577  11.301  28.557   1.928
68289W        W29578   1.370  44.927   0.252
68290W        W29579  16.317  37.371  13.469
68291W        W29580  12.651  32.543   5.315
68292W        W29581   0.768  20.570   1.216
68293W        W29582  13.222  20.710   1.776
68294W        W29583   0.974  39.386  13.848
68295W        W29584  11.194  28.083   4.189
68296W        W29585  15.816  15.687   4.676
68297W        W29586  28.082  21.243   4.726
68298W        W29587  29.427   6.744  14.814
68299W        W29588  12.121  25.060   0.468
68300W        W29589  20.578   5.789   0.913
68301W        W29590  23.228  35.931  14.320
68302W        W29591   4.434  32.005   2.406
68303W        W29592  36.062  17.095   2.773
68304W        W29593  44.991  22.083  10.547
68305W        W29594  40.342  12.320   1.247
68306W        W29595  44.945  18.772   2.394
68307W        W29596  42.806  40.803  10.545
68308W        W29597  10.228   6.814   4.613
68309W        W29598  17.649  42.381   0.746
68310W        W29599   9.806  17.799   4.825
68311W        W29600  26.987  15.287  11.481
68312W        W29601  25.618  35.054  13.820
68313W        W29602   3.359  39.023  13.482
68314W        W29603   6.270  15.139   2.715
68315W        W29604  30.959  33.918   1.399
68316W        W29605   8.265  28.980  13.332
68317W        W29606  42.988  10.367  12.400
68318W        W29607  41.370  24.516  13.446
68319W        W29608  31.957  22.050  10.577
68320W        W29609  20.091   4.404  12.454
68321W        W29610  21.656  19.116   0.385
68322W        W29611  10.822  42.862   1.851
68323W        W29612   3.327   1.356  13.956
68324W        W29613  25.509  42.851   0.350
68325W        W29614  19.554  40.025   0.894
68326W        W29615  13.621  21.642  13.310
68327W        W29616  42.441  18.702   0.813
68328W        W29617  19.772   6.303   2.416
68329W        W29618  43.364  17.217   0.938
68330W        W29619  16.294  26.518  12.368
68331W        W29620  44.921  30.004   1.925
68332W        W29621  34.866   6.398   5.268
68333W        W29622  31.103  11.157   3.721
68334W        W29623   4.816  18.238   2.327
68335W        W29624   2.427  37.082   3.288
68336W        W29625  35.404  29.614   2.716
68337W        W29626  34.610  42.853   2.681
68338W        W29627  28.494  23.661  14.845
68339W        W29628  41.005   9.765   2.281
68340W        W29629  22.176  23.588   4.646
68341W        W29630   9.215  33.558  11.855
68342W        W29631  36.039  39.351  14.016
68343W        W29632  23.069  24.174   0.465
68344W        W29633  38.951   8.164   1.712
68345W        W29634  18.566  26.118  13.381
68346W        W29635   5.250  43.968  14.023
68347W        W29636  32.624   3.452  11.028
68348W        W29637  37.385  16.240  10.942
68349W        W29638  27.018  40.428   0.307
68350W        W29639  18.196  21.071  12.030
68351W        W29640  36.994  36.928   3.165
68352W        W29641   0.351  19.277   3.643
68353W        W29642  17.658  44.775  14.995
68354W        W29643  42.827  20.172   2.732
68355W        W29644   7.863  25.573  13.013
68356W        W29645   4.342  29.094   2.326
68357W        W29646  11.625  18.612   0.391
68358W        W29647  16.707  22.020  14.024
68359W        W29648  31.619  20.701  14.346
68360W        W29649  12.247  30.606  13.338
68361W        W29650  12.810   5.224   4.611
68362W        W29651   9.745  44.462   4.302
68363W        W29652  11.354   4.224  12.019
68364W        W29653   3.438  26.514   1.397
68365W        W29654  13.747  41.521   3.802
68366W        W29655   1.760   7.716   4.171
68367W        W29656  42.838  30.512  12.503
68368W        W29657  26.135  13.291  10.626
68369W        W29658  29.652  30.423  13.467
68370W        W29659   7.751  31.922   3.647
68371W        W29660   6.389  18.054  11.869
68372W        W29661  24.559  43.499   4.185
68373W        W29662  15.180  35.037   1.850
68374W        W29663  24.170  20.565  13.873
68375W        W29664  39.403  25.583   1.885
68376W        W29665  28.037  34.460  14.277
68377W        W29666  40.891  41.434  13.825
68378W        W29667   1.432   2.266  12.880
68379W        W29668  40.928  23.597   0.952
68380W        W29669  42.410  34.977  13.495
68381W        W29670  24.680  12.150   4.689
68382W        W29671  24.160   9.656   2.776
68383W        W29672  19.199  16.728   3.302
68384W        W29673  19.690   5.694  11.067
68385W        W29674  14.829  44.941   4.699
68386W        W29675  32.418  34.499  13.470
68387W        W29676  15.328  13.321   3.248
68388W        W29677   8.728  25.136   0.417
68389W        W29678  14.332  25.640  14.402
68390W        W29679  13.830  15.220   0.480
68391W        W29680  12.693   3.273   0.405
68392W        W29681  11.194  43.472  14.960
68393W        W29682  36.505  22.528  11.072
68394W        W29683  15.713   4.766   0.467
68395W        W29684  13.173  23.179  13.347
68396W        W29685  28.154   1.278   5.303
68397W        W29686  33.492  28.531  14.892
68398W        W29687  32.431  44.824   2.672
68399W        W29688   2.795  35.910   0.444
68400W        W29689  28.180  10.840  10.542
68401W        W29690   3.937   3.420  12.840
68402W        W29691  20.611  24.147  11.101
68403W        W29692  11.693  20.586   3.310
68404W        W29693  15.784   4.750   2.866
68405W        W29694   8.694  14.620   3.824
68406W        W29695  29.007  14.634  13.931
68407W        W29696  29.925   5.274   1.362
68408W        W29697   7.380  11.723   3.669
68409W        W29698   8.741  39.496  10.951
68410W        W29699  31.534   5.217  14.504
68411W        W29700  36.534  30.437   0.886
68412W        W29701  38.837  39.473   0.274
68413W        W29702  38.368  38.024  12.049
68414W        W29703  23.657  29.624  12.575
68415W        W29704  10.157  19.245   2.718
68416W        W29705  12.691  20.072  10.438
68417W        W29706  38.531  12.351   3.351
68418W        W29707   9.644  41.389   2.353
68419W        W29708  11.729   5.212  10.555
68420W        W29709  32.636  20.069  10.480
68421W        W29710  41.914  14.134   2.257
68422W        W29711  41.425   7.205   1.809
68423W        W29712  19.074   2.808   1.391
68424W        W29713  42.502  39.911  13.329
68425W        W29714  14.178  41.804   2.305
68426W        W29715  16.256  25.523   3.157
68427W        W29716  36.843  31.610   1.719
68428W        W29717  44.350  32.015  10.599
68429W        W29718  15.687  42.503  14.909
68430W        W29719  35.872  28.979  14.394
68431W        W29720  21.663  42.977  10.982
68432W        W29721  39.391  25.060   4.241
68433W        W29722  36.898  37.435   4.251
68434W        W29723  43.908  15.310  13.895
68435W        W29724  27.991  31.583  14.355
68436W        W29725  42.481  36.445  12.367
68437W        W29726  41.307  27.447  13.543
68438W        W29727  29.144  37.029  12.375
68439W        W29728   8.896  40.872  10.500
68440W        W29729   0.313   1.399  14.325
68441W        W29730  15.138  31.528  12.827
68442W        W29731  20.533  33.005   0.885
68443W        W29732  28.124  38.958  13.448
68444W        W29733  36.555  25.555  13.511
68445W        W29734  43.329  33.587   0.254
68446W        W29735  22.566  43.294   1.355
68447W        W29736  34.102  34.949  14.331
68448W        W29737  14.312   1.769   5.197
68449W        W29738  31.017  23.696   5.125
68450W        W29739  16.705  26.203  14.328
68451W        W29740   7.755  30.962   0.952
68452W        W29741  12.790  28.114  12.051
68453W        W29742  41.525  10.153   0.430
68454W        W29743  41.805  20.076   1.426
68455W        W29744  21.022  11.773  12.529
68456W        W29745  26.591  12.146   3.312
68457W        W29746   0.299  19.197   2.738
68458W        W29747  41.919  29.544   4.722
68459W        W29748  16.581  10.241   1.714
68460W        W29749  22.090   1.473  14.877
68461W        W29750  40.518  30.509  12.431
68462W        W29751  33.572  16.791  14.997
68463W        W29752  34.489  13.635  12.018
68464W        W29753  34.928  24.072  12.466
68465W        W29754  31.943  43.892   0.739
68466W        W29755  34.958  27.961   4.752
68467W        W29756  37.053  18.229   2.414
68468W        W29757  22.508  44.865   4.732
68469W        W29758  43.936  40.992  10.955
68470W        W29759  27.945  19.040   2.882
68471W        W29760   1.343  31.499  12.994
68472W        W29761   5.257  40.358   4.286
68473W        W29762  10.192  24.048  11.415
68474W        W29763  18.611  43.494   1.921
68475W        W29764  27.572   3.854  10.419
68476W        W29765  39.910  11.236  10.122
68477W        W29766  10.683   0.343  13.406
68478W        W29767  18.626  31.479  12.458
68479W        W29768  31.942  39.974  14.491
68480W        W29769   9.281  33.474  12.974
68481W        W29770  13.783  33.086  11.081
68482W        W29771   7.411  12.640   0.946
68483W        W29772  17.739  27.607   0.387
68484W        W29773  32.416  13.750  13.882
68485W        W29774  35.888  42.012   3.377
68486W        W29775  24.020  15.581  13.328
68487W        W29776  20.252  17.301   3.172
68488W        W29777  25.590   5.216   1.913
68489W        W29778  10.837  31.125  11.502
68490W        W29779  13.219  18.235   4.352
68491W        W29780  10.721   8.242   3.666
68492W        W29781  11.840  30.646  10.642
68493W        W29782   9.254  20.247   1.445
68494W        W29783  34.995  38.040  13.829
68495W        W29784  31.549  13.200  14.434
68496W        W29785  44.808   3.415  11.991
68497W        W29786   7.186  11.667  10.614
68498W        W29787   3.333  32.441   4.830
68499W        W29788   4.701  18.750  12.972
68500W        W29789  32.020   3.372  12.020
68501W        W29790  15.292  37.535   4.144
68502W        W29791  37.002  21.557   3.222
68503W        W29792  35.553   4.266  13.412
68504W        W29793  11.245  25.081  13.847
68505W        W29794  36.566  19.165   3.807
68506W        W29795  44.421  12.346  12.964
68507W        W29796   2.448  23.039  13.972
68508W        W29797  15.268  25.167   0.753
68509W        W29798  28.473  19.754  12.445
68510W        W29799  37.978  27.594   1.710
68511W        W29800  30.642  20.662  11.110
68512W        W29801  26.568  10.307   1.376
68513W        W29802  28.094   1.470  14.490
68514W        W29803  12.838  15.749  12.577
68515W        W29804  40.446  26.459   2.403
68516W        W29805  24.103   6.219   2.206
68517W        W29806  29.586   6.333   4.230
68518W        W29807   2.406  44.889   1.764
68519W        W29808  40.372  22.520  14.808
68520W        W29809  17.575  15.797   3.664
68521W        W29810   8.800  18.208  13.427
68522W        W29811  27.574  23.131   0.280
68523W        W29812  35.072  11.761   4.292
68524W        W29813  42.484   8.898  11.928
68525W        W29814   0.308  25.145   3.289
68526W        W29815  16.240   5.365  14.029
68527W        W29816  43.819  28.531   0.436
68528W        W29817  44.497  12.272   1.781
68529W        W29818   2.802  32.476   2.310
68530W        W29819  41.456   1.321   1.923
68531W        W29820  11.210  32.521   3.299
68532W        W29821  16.780  31.476   3.691
68533W        W29822   8.258  34.068  14.298
68534W        W29823  10.827  37.347   2.259
68535W        W29824  40.829   9.191   0.372
68536W        W29825  13.273  11.859   3.296
68537W        W29826  18.712  21.207  11.377
68538W        W29827   0.933  36.382  10.622
68539W        W29828  19.214   2.331  12.376
68540W        W29829   2.872  30.560  10.580
68541W        W29830  14.810  16.705  10.942
68542W        W29831  25.602   1.447  13.368
68543W        W29832  12.199  36.542   1.243
68544W        W29833  16.140  15.578  12.557
68545W        W29834  41.437  44.974  11.891
68546W        W29835  19.592   7.830  14.822
68547W        W29836  10.295  15.767  10.058
68548W        W29837  29.052  32.637  12.367
68549W        W29838  25.112  21.623  12.913
68550W        W29839   4.400  15.241  12.980
68551W        W29840   2.403  13.158  13.456
68552W        W29841   3.805  43.291  11.534
68553W        W29842  39.505  21.256   1.764
68554W        W29843  15.156   8.715   1.772
68555W        W29844  35.512  26.116  11.432
68556W        W29845  31.571  13.818   3.194
68557W        W29846  10.188  29.648   1.890
68558W        W29847  18.695   1.263   0.348
68559W        W29848  36.446  36.062  11.861
68560W        W29849  37.863   7.900  13.364
68561W        W29850  35.086  33.916  12.975
68562W        W29851  36.568   0.480   1.404
68563W        W29852  12.836  27.506   1.351
68564W        W29853  18.631  34.614  13.423
68565W        W29854   4.823  27.668   0.374
68566W        W29855  10.839   0.767   1.268
68567W        W29856  31.611  40.873   2.698
68568W        W29857  37.862  22.680  12.882
68569W        W29858   8.678  34.401  14.386
68570W        W29859  40.863  12.276   1.702
68571W        W29860   3.718  39.440   0.268
68572W        W29861   1.915  27.490  13.389
68573W        W29862  32.124  31.448  13.810
68574W        W29863  37.034   0.491   4.816
68575W        W29864  37.577  33.984   0.741
68576W        W29865  18.074  33.944  13.057
68577W        W29866  34.488  19.545   3.229
68578W        W29867  30.501  23.098   2.819
68579W        W29868  44.314  28.972  12.987
68580W        W29869  17.732  11.785   4.691
68581W        W29870  39.559  41.990  14.911
68582W        W29871  44.936  11.740  13.531
68583W        W29872  29.163  22.698  12.956
68584W        W29873  32.107  37.884  14.031
68585W        W29874  43.382  37.454  14.411
68586W        W29875   6.275   8.349  10.951
68587W        W29876  39.873  23.098  13.449
68588W        W29877  20.269   3.822  13.538
68589W        W29878  38.433  23.235  13.524
68590W        W29879  15.294  13.215   0.279
68591W        W29880  33.526  19.691  12.914
68592W        W29881  26.674  35.600  11.898
68593W        W29882  13.250  15.123   0.859
68594W        W29883  40.920  19.565  10.574
68595W        W29884  15.798  44.316   0.389
68596W        W29885  44.393  40.902  14.960
68597W        W29886   4.818  24.603   0.433
68598W        W29887  24.115  44.418   0.343
68599W        W29888  20.747  37.480   1.731
68600W        W29889  30.108   7.199  13.884
68601W        W29890   3.865  12.804   3.380
68602W        W29891  19.184  41.806   3.804
68603W        W29892  41.961  17.205  12.358
68604W        W29893  17.108  19.067  13.961
68605W        W29894  33.591   6.772   0.283
68606W        W29895  25.150   3.332   4.691
68607W        W29896  18.141  42.968  10.528
68608W        W29897  22.117  15.813   4.272
68609W        W29898  36.883  22.034   3.767
68610W        W29899  32.124  41.525  10.945
68611W        W29900   9.152  12.640   3.228
68612W        W29901   2.910   9.339   0.935
68613W        W29902  13.719  29.997  10.422
68614W        W29903  34.534  36.987  12.399
68615W        W29904  13.778  14.199  11.025
68616W        W29905  31.496  27.940   2.402
68617W        W29906  32.581  32.076   5.279
68618W        W29907  13.278  42.471   0.965
68619W        W29908  17.797  38.035   3.362
68620W        W29909  21.026  14.147  12.903
68621W        W29910  25.005  44.798  13.843
68622W        W29911  33.937  32.042   3.849
68623W        W29912  15.714   9.251  14.970
68624W        W29913  12.334  42.930  11.511
68625W        W29914   5.754  22.128  12.935
68626W        W29915  23.649  28.511  14.372
68627W        W29916  10.831   9.692  14.341
68628W        W29917   1.936  33.599  13.321
68629W        W29918  44.928   0.308  11.445
68630W        W29919  23.565  29.481  11.439
68631W        W29920  31.584   6.697  13.938
68632W        W29921   0.398  37.560   0.840
68633W        W29922   2.292  33.100  11.110
68634W        W29923  18.766  37.365  14.850
68635W        W29924  23.092  40.316   2.386
68636W        W29925  32.937  22.184  12.907
68637W        W29926  13.695  43.778  13.791
68638W        W29927  40.511  26.077   2.789
68639W        W29928  40.934  40.857   4.715
68640W        W29929  15.636  33.064   4.222
68641W        W29930  32.443  41.423   1.389
68642W        W29931  36.546   2.431   1.365
68643W        W29932  44.818  21.538  11.938
68644W        W29933  30.568  35.393  14.337
68645W        W29934   7.382  30.989   1.898
68646W        W29935  13.138  38.984  14.932
68647W        W29936  40.317  29.150   2.872
68648W        W29937   3.759   5.255  12.496
68649W        W29938  13.765  33.462  12.842
68650W        W29939  20.130  31.995  11.453
68651W        W29940  26.495   2.241   3.856
68652W        W29941  14.724  28.936  11.578
68653W        W29942   5.878  13.799   1.420
68654W        W29943   4.933  14.665   0.872
68655W        W29944  37.926  43.457   0.916
68656W        W29945  14.332  23.120   3.240
68657W        W29946  14.228  21.170   2.772
68658W        W29947  12.223  44.298   1.235
68659W        W29948   9.389  20.254   3.149
68660W        W29949  27.639   0.953  11.020
68661W        W29950  41.519   6.285   2.348
68662W        W29951  21.136  29.919   1.865
68663W        W29952  29.508   1.463   4.183
68664W        W29953  36.529   5.823  14.863
68665W        W29954  11.798  10.296   1.341
68666W        W29955   8.871   4.923   1.379
68667W        W29956   0.419  20.189  14.515
68668W        W29957   7.398  29.053  11.904
68669W        W29958  29.107  27.520  12.529
68670W        W29959  41.369  33.613  14.965
68671W        W29960  17.271   8.823  12.474
68672W        W29961   3.846  42.942   3.841
68673W        W29962   3.425  43.463   0.308
68674W        W29963   0.851  11.183   2.368
68675W        W29964  16.791  22.740  10.141
68676W        W29965  12.128  36.549  12.913
68677W        W29966  36.097  36.397   1.281
68678W        W29967  16.752  29.034   1.382
68679W        W29968  20.656  37.909  11.448
68680W        W29969  35.409  19.116  13.846
68681W        W29970  33.389  39.058  11.477
68682W        W29971  32.009  19.616  12.888
68683W        W29972  35.093  16.628  11.115
68684W        W29973  34.001  37.462  10.600
68685W        W29974  43.022  15.172  12.082
68686W        W29975  31.963  31.978   1.784
68687W        W29976   8.850  28.942  11.015
68688W        W29977  21.131  41.515  14.941
68689W        W29978  39.536  28.129   0.901
68690W        W29979  42.364  35.450   4.779
68691W        W29980  40.836  42.455  13.897
68692W        W29981  43.808  33.999   2.709
68693W        W29982  41.477  33.609  10.987
68694W        W29983  38.464   8.676  12.381
68695W        W29984  13.800  20.660  14.347
68696W        W29985   1.780  16.699   0.247
68697W        W29986  34.945  39.976   0.242
68698W        W29987   4.289   8.182  10.914
68699W        W29988   1.848   7.767   1.335
68700W        W29989  13.666  17.775  10.579
68701W        W29990  29.962  39.509  14.474
68702W        W29991  35.538  41.858  13.421
68703W        W29992   2.417  33.507  12.386
68704W        W29993   1.930   4.427   2.687
68705W        W29994  10.772  17.067   4.626
68706W        W29995  14.287  40.022  14.968
68707W        W29996  36.513  10.769   4.329
68708W        W29997  21.628  41.991  13.310
68709W        W29998   9.213  42.780   9.964
68710W        W29999  35.481  35.037  12.345
68711W        W30000  34.077  38.484   0.892
68712W        W30001   7.680  30.542   0.780
68713W        W30002  22.054  18.741  13.546
68714W        W30003  17.578   9.827  12.836
68715W        W30004   8.243  23.701   3.828
68716W        W30005   8.384  29.117  12.438
68717W        W30006   3.956  14.210  12.930
68718W        W30007  29.112  29.496  14.957
68719W        W30008  23.597  39.361   2.362
68720W        W30009  13.256  39.926   4.315
68721W        W30010  17.741  26.499  12.406
68722W        W30011  28.551  23.575  14.380
68723W        W30012  42.840  23.148  10.527
68724W        W30013  28.528  23.100   2.738
68725W        W30014  12.256  27.056  14.451
68726W        W30015   3.850  20.232   4.271
68727W        W30016  42.031   4.399   4.317
68728W        W30017   3.811  15.253   3.316
68729W        W30018  31.116  40.418  12.386
68730W        W30019  11.735  23.705  14.356
68731W        W30020  26.595  11.213  13.949
68732W        W30021   1.937  13.169   0.787
68733W        W30022  33.023   3.341   0.273
68734W        W30023   4.344   1.885   0.356
68735W        W30024   6.387  44.501   1.857
68736W        W30025  41.845  36.076  10.043
68737W        W30026  40.348  26.078   3.225
68738W        W30027   4.245  31.916   3.851
68739W        W30028  32.982  10.250   4.642
68740W        W30029  40.508  23.212  13.345
68741W        W30030  42.796  25.666   3.209
68742W        W30031  38.544  13.302  14.859
68743W        W30032  28.062  35.394  13.463
68744W        W30033  27.529  16.604  10.520
68745W        W30034  23.180   3.855  14.477
68746W        W30035  35.953  15.209  11.515
68747W        W30036  33.027  36.349  10.929
68748W        W30037  18.061  15.095  13.504
68749W        W30038   5.874  21.038  11.975
68750W        W30039  37.565  17.114   0.440
68751W        W30040  31.575  37.525  12.390
68752W        W30041   5.435   7.861  12.956
68753W        W30042  25.683  18.127  10.967
68754W        W30043  15.144  27.508   1.747
68755W        W30044  34.962  21.116  14.450
68756W        W30045  26.589  38.417   4.800
68757W        W30046  37.545  37.023  11.571
68758W        W30047  34.456  36.346   1.747
68759W        W30048  36.508   0.321  14.024
68760W        W30049  24.184   2.250  13.407
68761W        W30050  13.700  35.000  11.558
68762W        W30051   5.432  21.107   3.651
68763W        W30052   3.923   0.256   1.238
68764W        W30053  26.090  20.264  10.603
68765W        W30054  24.682  26.569   1.907
68766W        W30055  37.835  37.552   3.185
68767W        W30056  13.711   9.851   3.645
68768W        W30057  14.181  38.935   3.212
68769W        W30058   8.839  31.994  10.068
68770W        W30059  13.647  37.493   0.303
68771W        W30060  14.325   1.263  14.457
68772W        W30061  44.424  11.334  11.377
68773W        W30062  10.263  20.147   5.173
68774W        W30063  44.290   6.321  11.035
68775W        W30064  38.950  36.396  10.126
68776W        W30065   2.255   6.189   5.081
68777W        W30066  18.791  26.054  12.064
68778W        W30067  15.308  16.171   0.729
68779W        W30068  23.645  12.247   2.409
68780W        W30069  42.028  38.469  11.443
68781W        W30070   3.905  31.920   1.220
68782W        W30071  34.403  22.616  10.558
68783W        W30072  36.528  43.286  10.553
68784W        W30073  31.467   3.952   1.381
68785W        W30074  18.179  31.565   1.247
68786W        W30075  27.074  35.099   3.226
68787W        W30076  35.927  32.111  12.913
68788W        W30077  21.200  41.470  14.416
68789W        W30078  15.611   3.250   2.692
68790W        W30079  35.587  11.276   4.630
68791W        W30080  30.469  37.982  14.324
68792W        W30081  33.514  19.148   4.691
68793W        W30082  31.487  21.148   3.838
68794W        W30083  16.749  23.044   4.193
68795W        W30084  36.989  27.460   1.323
68796W        W30085   2.404  39.928   4.601
68797W        W30086  42.516  40.892  13.943
68798W        W30087  29.103  22.670   0.918
68799W        W30088  17.684  24.522   3.192
68800W        W30089  25.206  11.632  13.350
68801W        W30090  35.057  15.691  14.850
68802W        W30091  30.031   5.431  11.408
68803W        W30092  28.448   5.226  11.082
68804W        W30093   4.920  36.558   2.317
68805W        W30094   2.953   0.804  14.349
68806W        W30095  17.296  34.981  13.835
68807W        W30096  19.556  11.173   2.884
68808W        W30097  37.408  11.158  11.881
68809W        W30098  20.606  41.863  14.821
68810W        W30099   3.383   2.255   1.824
68811W        W30100  39.963  23.615  13.798
68812W        W30101   7.769  42.293  14.785
68813W        W30102  26.632   2.863   2.329
68814W        W30103  42.028  35.368  11.996
68815W        W30104  34.931  42.383  12.476
68816W        W30105  11.355  14.249   4.833
68817W        W30106  13.663  30.024  12.476
68818W        W30107  10.356   3.806   2.684
68819W        W30108  25.495  35.046  11.537
68820W        W30109   1.861  39.918  13.922
68821W        W30110  27.533  41.971  14.359
68822W        W30111  36.468  12.757  11.035
68823W        W30112  38.913  28.154  10.636
68824W        W30113  38.438  35.420  12.435
68825W        W30114  16.712  39.869   2.190
68826W        W30115  31.033   4.702   2.307
68827W        W30116   9.677  44.472  11.936
68828W        W30117   2.965  13.838  14.795
68829W        W30118  41.410  21.238   4.822
68830W        W30119  27.652  33.521  13.878
68831W        W30120  29.117  44.416   2.744
68832W        W30121  44.420  22.740  12.562
68833W        W30122  44.975  10.861   2.225
68834W        W30123  16.105  35.107   2.721
68835W        W30124  34.896  36.078   3.839
68836W        W30125   0.959   9.295   1.265
68837W        W30126   1.442  11.676   9.966
68838W        W30127  31.521  20.088   0.951
68839W        W30128  19.772  26.648   4.171
68840W        W30129  22.566  30.939  11.463
68841W        W30130   2.862   9.307   1.230
68842W        W30131   2.393  14.299  13.956
68843W        W30132  36.424  35.887  11.424
68844W        W30133  10.290   2.872   0.317
68845W        W30134  27.446  20.233  14.405
68846W        W30135  12.232  43.020   5.269
68847W        W30136  11.728  34.915   2.693
68848W        W30137  14.721  21.035   3.816
68849W        W30138  11.704   9.366  14.012
68850W        W30139  20.583  29.598  13.364
68851W        W30140  11.653  12.810  14.485
68852W        W30141  43.011  33.067   0.308
68853W        W30142   8.397  31.628  12.076
68854W        W30143  17.791  44.427   1.446
68855W        W30144   5.718  22.616  13.410
68856W        W30145  33.941   6.194   1.328
68857W        W30146  34.467   0.822   3.716
68858W        W30147  32.544   1.335   5.182
68859W        W30148  15.600   2.929  13.389
68860W        W30149  35.904  26.071  12.088
68861W        W30150  27.056  12.129   3.768
68862W        W30151  30.531   7.809   4.665
68863W        W30152  37.516   4.916   4.196
68864W        W30153  39.012  41.924   1.705
68865W        W30154  10.735  34.973  11.499
68866W        W30155  36.432  24.194  14.924
68867W        W30156   6.736   1.434   2.222
68868W        W30157  11.216   4.773   5.191
68869W        W30158  15.241  26.156   0.729
68870W        W30159  31.580  38.059   0.391
68871W        W30160  43.015  38.031  10.931
68872W        W30161   6.202  27.948  12.559
68873W        W30162  42.463   2.403  14.432
68874W        W30163  38.486  43.385   3.689
68875W        W30164  16.674  28.521   3.203
68876W        W30165  39.557  12.629   3.666
68877W        W30166   3.885  24.010  13.372
68878W        W30167  30.011   0.798  13.019
68879W        W30168   3.899   9.651   4.688
68880W        W30169   6.413  38.053   4.341
68881W        W30170  30.638  38.399  11.446
68882W        W30171  38.019  20.750   3.248
68883W        W30172  14.602  15.698  12.883
68884W        W30173  44.823   7.179   3.630
68885W        W30174  44.791  27.103   0.781
68886W        W30175  12.238  19.149  11.999
68887W        W30176   5.830   8.336  12.364
68888W        W30177  25.169  13.120   4.289
68889W        W30178  39.831  28.089   1.818
68890W        W30179  44.811  12.636  10.620
68891W        W30180  27.514   1.808   1.723
68892W        W30181   4.446  15.220   0.732
68893W        W30182  14.768  36.558  12.836
68894W        W30183  38.407  36.098  14.769
68895W        W30184  30.958  44.804  14.847
68896W        W30185  23.638  18.620  11.474
68897W        W30186  14.194  23.043   0.763
68898W        W30187  34.965  16.216   0.790
68899W        W30188   6.197  19.264  14.946
68900W        W30189   5.713  26.694  12.458
68901W        W30190  38.488  19.080   2.242
68902W        W30191  38.408  28.172  14.306
68903W        W30192  34.003  37.344   5.290
68904W        W30193  17.607  28.547   2.901
68905W        W30194  31.082  35.959   9.980
68906W        W30195  19.616  15.690   4.692
68907W        W30196  27.588  21.572  13.012
68908W        W30197  43.855  42.013   1.427
68909W        W30198  16.678   6.193  11.861
68910W        W30199  28.099   7.266  11.385
68911W        W30200  21.259  41.971   2.851
68912W        W30201  16.276  42.369   1.921
68913W        W30202   4.256  26.598   4.246
68914W        W30203  36.590  38.874   5.156
68915W        W30204  25.568  38.990   4.139
68916W        W30205  23.199  39.064   3.727
68917W        W30206  42.488  42.847   3.856
68918W        W30207  19.620  33.435   0.947
68919W        W30208  34.100  11.664   2.847
68920W        W30209  36.353  11.292  10.542
68921W        W30210  11.292  32.074  12.007
68922W        W30211  14.794  31.427  13.879
68923W        W30212  27.507   7.728  12.057
68924W        W30213  15.195  25.651   1.812
68925W        W30214  42.348   1.797  14.963
68926W        W30215  35.098  19.549  13.043
68927W        W30216  23.633  29.477  12.869
68928W        W30217  33.396  27.072  12.914
68929W        W30218  33.946  44.501   0.882
68930W        W30219   4.263  28.082   4.342
68931W        W30220  11.731  38.535   0.952
68932W        W30221  43.955   4.378  14.825
68933W        W30222  34.531   6.360   4.147
68934W        W30223  32.006  23.535   3.160
68935W        W30224  31.565  30.631  14.029
68936W        W30225  20.539  10.726   0.310
68937W        W30226  42.910  26.957  10.571
68938W        W30227  10.199  30.633  13.407
68939W        W30228   7.214  36.088   3.779
68940W        W30229  42.007  28.950   3.318
68941W        W30230  15.581  44.804   4.270
68942W        W30231  10.214  12.627   2.881
68943W        W30232  30.623  26.605   3.819
68944W        W30233  20.086   7.359  11.043
68945W        W30234  12.704  21.704   2.757
68946W        W30235  15.232  13.229   2.771
68947W        W30236  36.920  10.806   2.224
68948W        W30237  14.833  26.116  13.876
68949W        W30238  27.975  33.091   2.814
68950W        W30239  42.791  39.984   0.796
68951W        W30240  33.390   4.936   4.223
68952W        W30241  13.345  12.293  14.957
68953W        W30242  22.190  41.352  10.952
68954W        W30243  32.934  38.049  11.987
68955W        W30244  29.965   8.229   3.282
68956W        W30245  37.895  10.319  11.572
68957W        W30246  28.036   1.771   2.764
68958W        W30247  23.036  20.152   1.911
68959W        W30248  37.846  28.967   4.721
68960W        W30249  17.724   2.394   0.876
68961W        W30250  23.125  22.193   5.804
68962W        W30251   3.737   2.388   2.336
68963W        W30252   4.730   4.210   3.652
68964W        W30253  30.515  33.423   4.801
68965W        W30254  12.178  11.717   1.832
68966W        W30255  33.031  11.366   4.737
68967W        W30256  19.116  30.910   4.813
68968W        W30257   4.863  12.352   3.730
68969W        W30258   1.956  34.052   4.144
68970W        W30259   1.872  19.657   1.363
68971W        W30260  44.906   3.305  11.602
68972W        W30261   7.380  28.502   1.267
68973W        W30262  11.731   6.790   3.638
68974W        W30263  23.994  36.973  11.486
68975W        W30264   4.342  15.317  11.455
68976W        W30265  37.911  26.675  14.940
68977W        W30266  32.945  37.035   3.654
68978W        W30267  14.597  27.147  11.409
68979W        W30268   6.306  39.052  13.387
68980W        W30269  10.159  26.072  14.839
68981W        W30270  38.475  15.151  11.017
68982W        W30271  27.954  12.247  13.464
68983W        W30272  43.402  29.598   0.284
68984W        W30273  20.252  22.560  11.593
68985W        W30274   0.941  38.369  10.949
68986W        W30275  20.060  25.503   1.451
68987W        W30276  41.918  19.154  13.468
68988W        W30277  21.153  25.002  10.155
68989W        W30278   2.934  39.855  12.873
68990W        W30279   3.338  27.577  14.964
68991W        W30280  39.346  39.324   4.801
68992W        W30281   6.399  29.506  14.507
68993W        W30282  30.926  20.728  10.409
68994W        W30283  43.827  28.960  14.433
68995W        W30284  24.594   1.457   1.878
68996W        W30285   7.839  17.652  14.919
68997W        W30286  40.836  24.516  14.924
68998W        W30287  35.020  15.587   0.468
68999W        W30288   0.752  28.680   0.338
69000W        W30289  43.270  30.135   4.678
69001W        W30290  11.333  41.361  13.955
69002W        W30291  16.286  34.004   3.763
69003W        W30292  37.070  37.511  14.305
69004W        W30293  27.173  27.588  14.315
69005W        W30294  15.721  29.495  14.929
69006W        W30295  13.720   7.710   3.163
69007W        W30296  23.528  43.373  13.873
69008W        W30297  22.516  11.297   0.381
69009W        W30298  16.667   2.841   0.876
69010W        W30299  40.521   0.785  13.808
69011W        W30300  18.742  35.579  11.510
69012W        W30301   2.920   1.321  10.974
69013W        W30302  22.198  27.629  13.958
69014W        W30303  19.596   7.197   0.851
69015W        W30304  37.482  30.472   4.711
69016W        W30305   5.713  28.996   3.317
69017W        W30306  36.590  40.989   3.778
69018W        W30307  12.308  44.277   2.765
69019W        W30308  34.610  29.150   2.226
69020W        W30309  17.137  19.713  13.449
69021W        W30310  27.947  29.048  11.088
69022W        W30311  41.536  36.570  13.862
69023W        W30312  30.485  25.616  12.951
69024W        W30313  14.292  30.075  14.995
69025W        W30314  44.411   8.268   3.342
69026W        W30315  19.736  39.035   4.224
69027W        W30316  12.141  37.579  12.948
69028W        W30317   1.764  34.506   4.135
69029W        W30318   3.252  17.209   1.234
69030W        W30319   4.784  22.689  10.417
69031W        W30320  32.630  37.556  14.789
69032W        W30321   6.264   0.477   2.690
69033W        W30322  32.943  10.278  12.000
69034W        W30323   8.262  21.595   0.368
69035W        W30324  35.032   2.785   1.404
69036W        W30325  21.197  26.089  12.995
69037W        W30326   5.335   1.761  12.969
69038W        W30327  41.383  29.012   1.783
69039W        W30328   0.979  23.572   2.716
69040W        W30329  13.225  12.349   0.375
69041W        W30330  41.471  31.124   4.161
69042W        W30331   2.443   6.823  10.475
69043W        W30332   1.861  11.165  11.120
69044W        W30333  24.650  37.071  10.549
69045W        W30334   6.693   8.670  13.996
69046W        W30335  13.681  28.034  14.851
69047W        W30336  34.120  22.217  14.352
69048W        W30337  35.428  31.936  14.927
69049W        W30338  41.505  27.499   0.758
69050W        W30339  23.543  22.540   0.963
69051W        W30340  36.477  37.048   1.762
69052W        W30341  37.867  12.355  14.942
69053W        W30342  10.784  40.858  14.888
69054W        W30343   9.393  26.463   3.771
69055W        W30344  38.895  20.109   1.216
69056W        W30345  44.309  29.594   4.798
69057W        W30346  41.325  17.766   1.280
69058W        W30347  42.840   6.237  11.556
69059W        W30348  16.652  44.283  11.981
69060W        W30349  36.937  11.188  12.361
69061W        W30350   0.387  26.147   3.748
69062W        W30351  19.547   3.841  10.615
69063W        W30352  41.490   4.392   4.248
69064W        W30353  37.962  39.996   0.388
69065W        W30354  28.616  16.578   1.811
69066W        W30355  36.085  10.741   0.797
69067W        W30356  42.395   9.291  14.444
69068W        W30357  20.659  18.276  13.900
69069W        W30358   0.744  28.449  10.529
69070W        W30359  14.251  43.889   2.690
69071W        W30360  17.749  29.944   2.771
69072W        W30361   1.276  22.243   1.227
69073W        W30362   9.364  33.506   2.755
69074W        W30363   6.885   8.243  14.836
69075W        W30364  30.137  20.116   4.243
69076W        W30365  42.295  39.356   0.787
69077W        W30366  41.509   6.736   1.875
69078W        W30367  41.987  18.604  10.560
69079W        W30368  20.197  23.694  11.555
69080W        W30369   0.263  15.766   0.947
69081W        W30370   7.678  16.190   2.663
69082W        W30371  35.478   3.355  13.040
69083W        W30372  32.591  15.227  14.995
69084W        W30373  43.979  16.625   1.732
69085W        W30374  14.271  31.082  11.016
69086W        W30375  44.371  34.573   1.733
69087W        W30376  13.767  44.345   1.915
69088W        W30377  15.184  10.185  11.093
69089W        W30378  29.919  21.200   3.684
69090W        W30379  29.998  22.206  11.044
69091W        W30380  14.723   3.908   1.860
69092W        W30381  29.152  23.139   3.240
69093W        W30382  20.605   7.225  10.502
69094W        W30383   5.278  40.961  12.480
69095W        W30384  29.445   2.368   1.844
69096W        W30385  12.811  40.823   1.268
69097W        W30386  11.328  12.850   1.698
69098W        W30387  32.965  19.719   1.797
69099W        W30388  24.105   3.316  13.442
69100W        W30389  42.785  29.073   3.705
69101W        W30390  10.748   9.276  14.763
69102W        W30391  28.619  21.224  13.899
69103W        W30392  44.484   2.274  11.496
69104W        W30393  15.271  17.595   2.271
69105W        W30394  20.746   4.342  10.615
69106W        W30395  35.028   8.246   0.731
69107W        W30396  14.736   1.844  13.912
69108W        W30397   0.850  18.573   4.761
69109W        W30398   8.225   7.352   2.284
69110W        W30399  43.915   6.319  14.783
69111W        W30400  15.280  40.399   4.313
69112W        W30401  13.336  42.400  14.993
69113W        W30402  43.908  43.291   1.728
69114W        W30403  34.501  43.004   0.933
69115W        W30404   1.732  10.186  10.438
69116W        W30405  33.594  27.492  11.122
69117W        W30406  31.581  41.398   3.387
69118W        W30407  44.368  23.601  10.160
69119W        W30408  27.548  22.745  12.007
69120W        W30409  32.461  18.259   3.277
69121W        W30410  16.110  12.148  12.053
69122W        W30411  23.117  43.927   4.742
69123W        W30412  10.241   8.707  14.792
69124W        W30413  44.451  38.499   4.141
69125W        W30414  24.584  13.319   3.361
69126W        W30415  39.341  27.151  11.490
69127W        W30416   4.885  13.768   0.897
69128W        W30417  12.618  17.189  12.351
69129W        W30418   9.851  25.617  11.956
69130W        W30419  27.655  36.056   3.315
69131W        W30420  17.770  20.255   1.222
69132W        W30421  37.564  21.735  11.521
69133W        W30422  29.161  40.927   0.897
69134W        W30423  38.950   5.257  13.886
69135W        W30424  33.096  19.634  14.342
69136W        W30425   3.351  15.593  14.449
69137W        W30426  32.072   2.393  13.822
69138W        W30427  31.490   4.831  14.469
69139W        W30428  12.619  43.916   4.205
69140W        W30429   4.736  17.773   3.783
69141W        W30430  22.562  24.583  13.453
69142W        W30431  40.324  17.276  14.906
69143W        W30432  28.131  16.310   0.322
69144W        W30433  18.197  15.654  13.004
69145W        W30434  32.095  41.976  11.020
69146W        W30435  44.333  13.811   3.330
69147W        W30436  12.640  19.110  10.899
69148W        W30437  24.224  22.239  11.551
69149W        W30438  42.007  38.330   1.396
69150W        W30439  39.407  39.064   1.215
69151W        W30440  11.635   1.370   2.779
69152W        W30441  40.376   7.306   1.734
69153W        W30442  23.013  41.482   4.321
69154W        W30443  14.643  44.381  14.790
69155W        W30444  42.518   8.342   0.376
69156W        W30445  17.257  11.729   0.359
69157W        W30446  16.135  18.739   4.672
69158W        W30447   9.696  30.604  13.924
69159W        W30448  30.589  13.283   5.274
69160W        W30449   9.341  41.993   4.208
69161W        W30450  14.291  24.014  12.565
69162W        W30451  27.051  10.879   3.678
69163W        W30452  36.845  36.912  12.037
69164W        W30453  40.024   8.759   1.694
69165W        W30454  30.514  12.289  11.596
69166W        W30455  28.475  15.233   4.267
69167W        W30456   9.389  41.382   1.240
69168W        W30457  35.469  34.075  13.540
69169W        W30458  35.868  18.640  13.953
69170W        W30459   5.882  26.545   1.356
69171W        W30460  24.996  24.033   1.903
69172W        W30461  27.000  24.149   0.776
69173W        W30462   8.668  34.962  13.450
69174W        W30463   8.166  39.401  11.013
69175W        W30464  28.959  10.169  12.343
69176W        W30465  28.579  24.723   3.347
69177W        W30466  33.078  10.855  14.987
69178W        W30467  24.645  11.267   4.167
69179W        W30468  27.620  26.548  12.524
69180W        W30469  32.990  44.011   2.738
69181W        W30470  17.588  26.592  14.834
69182W        W30471  30.148  31.144   1.310
69183W        W30472  36.357  22.580  12.864
69184W        W30473   4.281   4.296  11.468
69185W        W30474  14.247  18.556   1.429
69186W        W30475   7.410  11.683  12.424
69187W        W30476  27.075  18.756   3.863
69188W        W30477  10.196  38.429  13.935
69189W        W30478  23.497   0.280  11.940
69190W        W30479  36.946  38.451   3.235
69191W        W30480   6.268   1.474   2.331
69192W        W30481   1.966   3.394  10.952
69193W        W30482  24.104  34.095  12.523
69194W        W30483   1.285  35.463  13.379
69195W        W30484  42.902   0.812  11.871
69196W        W30485   7.322  25.091   2.306
69197W        W30486   9.375  42.439   4.152
69198W        W30487   5.922  34.945  14.858
69199W        W30488  11.770  40.401   4.673
69200W        W30489  43.327  31.630   1.296
69201W        W30490   2.736   2.343  12.462
69202W        W30491  37.376  28.094  13.427
69203W        W30492   1.871   1.835  12.455
69204W        W30493  13.752  43.443   0.904
69205W        W30494   6.690   7.722  14.974
69206W        W30495  14.670  14.130  14.504
69207W        W30496  15.271  27.585  11.975
69208W        W30497  10.867   2.435   1.742
69209W        W30498  12.663  16.276   1.829
69210W        W30499   5.698  27.643  14.493
69211W        W30500  29.434  14.259  13.514
69212W        W30501  35.910   5.298   2.219
69213W        W30502  33.128  27.592  10.525
69214W        W30503  24.651  36.027   4.302
69215W        W30504  34.069  12.357   3.318
69216W        W30505   7.777   0.771   3.640
69217W        W30506   7.790   6.287   3.304
69218W        W30507   4.288  14.251   4.809
69219W        W30508  16.652  33.033   4.192
69220W        W30509  44.001  37.900  14.414
69221W        W30510   0.960  20.659   2.185
69222W        W30511  28.567  17.065   2.880
69223W        W30512   1.942  23.507  13.440
69224W        W30513   3.447  17.306   4.266
69225W        W30514   5.376  30.163  10.515
69226W        W30515   4.841  36.592  11.920
69227W        W30516   6.704  42.788  10.566
69228W        W30517   3.831  36.403  11.492
69229W        W30518  17.785  21.190  14.279
69230W        W30519  38.015  24.141   4.121
69231W        W30520  30.574   4.721  10.562
69232W        W30521   6.819  21.623  13.062
69233W        W30522   1.483  30.144  11.015
69234W        W30523   1.238  38.949  11.397
69235W        W30524  38.511  15.274   1.243
69236W        W30525   2.835  10.737  13.387
69237W        W30526   8.284  13.314  14.796
69238W        W30527   3.761  28.057  12.361
69239W        W30528  43.001  34.376   3.360
69240W        W30529  38.030  44.800  14.287
69241W        W30530   4.370   4.929   2.823
69242W        W30531  31.406  10.813   2.768
69243W        W30532   7.193   4.910   5.279
69244W        W30533  33.058   6.781   5.114
69245W        W30534  13.660  25.552  14.835
69246W        W30535  27.637  21.575   3.150
69247W        W30536  40.443  18.196   1.213
69248W        W30537  23.227   9.779  13.457
69249W        W30538  36.921  23.159   2.203
69250W        W30539  38.898  21.686   5.234
69251W        W30540  25.483  38.858   3.316
69252W        W30541  20.674  35.451  10.587
69253W        W30542  34.865  16.074   4.253
69254W        W30543  30.106  35.107   4.797
69255W        W30544   7.290  33.038  13.486
69256W        W30545  23.694   5.242  13.530
69257W        W30546  44.959   5.819  14.510
69258W        W30547  31.898  43.963  10.535
69259W        W30548  24.136  42.022   1.430
69260W        W30549  34.576  16.578   3.766
69261W        W30550   8.820  12.245   2.339
69262W        W30551  20.034  27.192   0.962
69263W        W30552  31.060  10.278   5.165
69264W        W30553   0.263  17.260   4.288
69265W        W30554  15.264  44.977  10.419
69266W        W30555   7.773  42.924  11.069
69267W        W30556  29.134  33.435  12.983
69268W        W30557  42.996   7.784  13.888
69269W        W30558   3.923  13.608  14.277
69270W        W30559  29.623  43.477  14.426
69271W        W30560  17.105  31.078  12.059
69272W        W30561  35.875  10.317   0.765
69273W        W30562  43.270   0.764   0.789
69274W        W30563  25.660  17.708  13.329
69275W        W30564  10.809  20.607  12.056
69276W        W30565  28.677  22.616   0.468
69277W        W30566  38.367  28.097  13.442
69278W        W30567  29.964  16.138   3.316
69279W        W30568  23.651  12.127   3.745
69280W        W30569  41.453  32.114   4.290
69281W        W30570  29.428  43.475  14.818
69282W        W30571  29.149  31.935   3.757
69283W        W30572   3.433  17.203  11.985
69284W        W30573  38.874   5.363  10.556
69285W        W30574  22.554  23.125   1.294
69286W        W30575  35.483  42.342   4.279
69287W        W30576   5.760  38.552   2.808
69288W        W30577  27.608  13.227  13.520
69289W        W30578  33.507   7.314  11.101
69290W        W30579  23.176   8.262  12.394
69291W        W30580  28.587  15.682  11.460
69292W        W30581  13.815  24.594  14.847
69293W        W30582   7.823  34.090   3.150
69294W        W30583  18.163  21.226  13.792
69295W        W30584   4.716  10.870  13.872
69296W        W30585  17.743  37.047   4.725
69297W        W30586  44.870  44.929  12.556
69298W        W30587  17.177   6.292  11.971
69299W        W30588   0.274  31.965  13.956
69300W        W30589  18.783  23.569  13.522
69301W        W30590  30.134   3.903  14.486
69302W        W30591  40.852  36.025  12.842
69303W        W30592  28.592  32.427   1.343
69304W        W30593  22.223  40.827   0.885
69305W        W30594  14.617  41.838   3.779
69306W        W30595  37.990   7.770  10.612
69307W        W30596  19.740  31.462   4.234
69308W        W30597  11.681  35.015  11.027
69309W        W30598  39.472   7.870   1.745
69310W        W30599  14.659  41.909   5.156
69311W        W30600  42.426  31.447  12.487
69312W        W30601   8.810  44.372  14.403
69313W        W30602  24.639  23.637  11.448
69314W        W30603  21.186   3.360  11.576
69315W        W30604  28.479  12.243   5.314
69316W        W30605   4.889  38.369   2.299
69317W        W30606   9.851  11.191   4.311
69318W        W30607  28.599  16.609   1.434
69319W        W30608  36.508  37.880   0.398
69320W        W30609  22.190  36.353   2.261
69321W        W30610  30.915  15.309   2.254
69322W        W30611  29.002  44.416   3.710
69323W        W30612  38.943   2.336   0.955
69324W        W30613  23.146  16.684   3.191
69325W        W30614   8.288  36.408  10.950
69326W        W30615  10.179  16.297  12.361
69327W        W30616   0.879   7.676   2.311
69328W        W30617  44.961  28.504   4.190
69329W        W30618  17.586  25.613   4.669
69330W        W30619   3.397  35.906   1.251
69331W        W30620   6.885  32.596  10.011
69332W        W30621  40.920   2.845   1.857
69333W        W30622   9.669  16.145   1.900
69334W        W30623   0.267   3.788  12.087
69335W        W30624  38.966  23.990  10.153
69336W        W30625  41.319  10.276   4.707
69337W        W30626  14.332  40.375   1.868
69338W        W30627   1.752  32.093   1.801
69339W        W30628   9.875   4.226  11.984
69340W        W30629  31.629  12.137  11.530
69341W        W30630   9.203   0.831  12.078
69342W        W30631   4.374   2.863   3.349
69343W        W30632  39.998  16.244  11.456
69344W        W30633   3.732   5.237  13.855
69345W        W30634  21.697  29.654   2.681
69346W        W30635  16.190  19.622   1.234
69347W        W30636  23.990  11.838   2.337
69348W        W30637  31.467   0.830   5.125
69349W        W30638  30.519  24.152   3.672
69350W        W30639   7.815  16.245  14.973
69351W        W30640  23.721  32.921   0.917
69352W        W30641  11.765  17.663   0.932
69353W        W30642  31.899  31.136  13.840
69354W        W30643  39.538  17.165   3.170
69355W        W30644  11.829  19.149  14.009
69356W        W30645  24.146  37.026  11.878
69357W        W30646  28.577  22.136  14.509
69358W        W30647  15.600  11.221  13.000
69359W        W30648  30.508  39.445  11.562
69360W        W30649   5.216  18.183   2.795
69361W        W30650   2.459   6.706  12.877
69362W        W30651  28.557  37.507  13.338
69363W        W30652  31.908  33.929  13.803
69364W        W30653  40.867   7.276   2.365
69365W        W30654  34.558  29.470   1.374
69366W        W30655  36.434   2.425   4.790
69367W        W30656  32.569  29.014   3.689
69368W        W30657  31.902   6.775   3.644
69369W        W30658  40.472  33.043   4.665
69370W        W30659  44.281  35.022  12.477
69371W        W30660  36.579  21.216   0.429
69372W        W30661  23.529  11.645   0.292
69373W        W30662  15.218   3.318  11.126
69374W        W30663  33.400  41.370  11.081
69375W        W30664  43.341  11.346   5.740
69376W        W30665  35.435  32.015   5.220
69377W        W30666  36.913  15.275  12.058
69378W        W30667   3.923  28.583   2.882
69379W        W30668  39.362   9.197   0.749
69380W        W30669  29.048  42.522  14.358
69381W        W30670  21.066  10.762  11.017
69382W        W30671  32.036  41.861   0.929
69383W        W30672  14.725  39.331   3.762
69384W        W30673  27.532  19.582  14.403
69385W        W30674   8.680  24.208   1.432
69386W        W30675  23.591  16.591  11.378
69387W        W30676  19.211   3.323   0.763
69388W        W30677   8.751   8.342  13.063
69389W        W30678  11.673  38.002   1.323
69390W        W30679  44.267  26.078  12.422
69391W        W30680   4.789  43.881   4.600
69392W        W30681   2.369  27.956  12.563
69393W        W30682  20.624  30.473   3.248
69394W        W30683  28.621   6.894  14.886
69395W        W30684  39.488  12.357   1.722
69396W        W30685  35.449  13.797   2.742
69397W        W30686   0.852  27.018   1.391
69398W        W30687  33.952  29.542  12.918
69399W        W30688  18.266  14.612  14.819
69400W        W30689  18.769  36.493   2.417
69401W        W30690   8.349  41.333   1.269
69402W        W30691  11.304  16.118   2.748
69403W        W30692  10.721  41.004  12.552
69404W        W30693  17.569  29.643   2.265
69405W        W30694  15.608  31.611   0.865
69406W        W30695  12.341   7.752  10.489
69407W        W30696   9.209  27.592   0.262
69408W        W30697  10.178  42.030   2.662
69409W        W30698  43.390  29.028   4.323
69410W        W30699  16.081  26.663   2.810
69411W        W30700   8.766  11.364   2.702
69412W        W30701  37.043  21.174   1.346
69413W        W30702   0.770   4.342  11.471
69414W        W30703  29.619  41.534   2.310
69415W        W30704  43.276  33.995  11.602
69416W        W30705  37.084  29.128   4.151
69417W        W30706  32.400   1.367  10.988
69418W        W30707  20.661  40.362   0.876
69419W        W30708  38.415  37.505   4.200
69420W        W30709   2.271  42.963   2.861
69421W        W30710   9.379  12.719  13.017
69422W        W30711  26.567  16.140   0.465
69423W        W30712  17.790  40.051   3.258
69424W        W30713  41.841  21.621  11.487
69425W        W30714  35.442  22.665   0.254
69426W        W30715  44.272   4.441   4.620
69427W        W30716  25.106  43.934  13.855
69428W        W30717  32.893  25.532  14.852
69429W        W30718   1.778  24.142  13.061
69430W        W30719  43.318  34.404   1.899
69431W        W30720  11.199  27.651   4.749
69432W        W30721  22.127   0.467   4.797
69433W        W30722  30.655   8.710   4.186
69434W        W30723  28.168  10.268   0.453
69435W        W30724  10.375  36.587  10.475
69436W        W30725   8.820  29.456   4.145
69437W        W30726   8.705   2.824  14.455
69438W        W30727  32.574  36.445  13.535
69439W        W30728  27.062  38.428  14.023
69440W        W30729  15.279  35.439   2.268
69441W        W30730  32.505   7.320   2.900
69442W        W30731  44.429  23.515  12.042
69443W        W30732  37.425  26.617   3.304
69444W        W30733  20.070  21.692   0.273
69445W        W30734  16.589  35.959   4.625
69446W        W30735  34.576   8.245   0.761
69447W        W30736  34.473  27.476  12.351
69448W        W30737  13.194  41.787   0.880
69449W        W30738  32.919   6.412   5.290
69450W        W30739  32.395   2.955  10.983
69451W        W30740  25.084   2.732   3.843
69452W        W30741  21.737  38.476   1.713
69453W        W30742  18.146  30.951  12.932
69454W        W30743  23.175  23.681  13.360
69455W        W30744  39.020   2.951  14.355
69456W        W30745  21.715  25.502  10.436
69457W        W30746   7.796   3.365   3.191
69458W        W30747  30.523   0.748   0.831
69459W        W30748  15.289  28.472   3.858
69460W        W30749  17.297  25.627  13.384
69461W        W30750  19.106  21.582  14.464
69462W        W30751  21.229  17.302   1.867
69463W        W30752   2.838  35.862  14.448
69464W        W30753  20.697   1.445  13.922
69465W        W30754  19.273  14.155   1.357
69466W        W30755   7.895  41.903   2.856
69467W        W30756  23.616  20.217   1.748
69468W        W30757  42.419  23.635   4.682
69469W        W30758  22.169  13.219  14.342
69470W        W30759   8.901  32.017   4.602
69471W        W30760  12.843  21.165  10.614
69472W        W30761  31.976  42.417   2.771
69473W        W30762  42.990   3.745  10.516
69474W        W30763  37.866   5.255  11.423
69475W        W30764   4.726  30.975   4.812
69476W        W30765  44.429  18.611   2.287
69477W        W30766  28.042   3.951  11.128
69478W        W30767  22.997   5.295   2.300
69479W        W30768   7.692   8.833  13.453
69480W        W30769   4.226  39.998   1.451
69481W        W30770  42.019  37.354  13.986
69482W        W30771  36.365  25.543   4.126
69483W        W30772  44.457  35.087   0.369
69484W        W30773  34.421   9.717   3.718
69485W        W30774  25.670  13.147   4.347
69486W        W30775   6.721  19.198  14.942
69487W        W30776  42.872  34.595  13.832
69488W        W30777  15.157  39.403   3.171
69489W        W30778   8.232  30.653   0.792
69490W        W30779  11.238  24.660  11.587
69491W        W30780  37.835   8.204   1.345
69492W        W30781  38.569  25.136   2.768
69493W        W30782   1.311  38.877  13.987
69494W        W30783  19.604  31.619   2.890
69495W        W30784  17.645  37.985   0.348
69496W        W30785  33.578  17.565  13.984
69497W        W30786  16.795  11.775   3.656
69498W        W30787  40.820  28.620  11.924
69499W        W30788  15.614  20.073   3.372
69500W        W30789  40.956  40.854   1.259
69501W        W30790  14.818  27.540  10.520
69502W        W30791  28.674  31.536  13.521
69503W        W30792   1.333  20.524  11.440
69504W        W30793   7.272  19.194  14.993
69505W        W30794  31.104  10.144   0.383
69506W        W30795   6.846  20.653  14.907
69507W        W30796  35.087  20.064   0.413
69508W        W30797  27.003   7.898   9.978
69509W        W30798  14.620  16.641   1.924
69510W        W30799  16.109  19.552  11.467
69511W        W30800   1.459  20.526  11.897
69512W        W30801  12.766  39.054  10.626
69513W        W30802  15.694  35.855   3.772
69514W        W30803  44.412  32.962   3.821
69515W        W30804  10.834  40.541  13.001
69516W        W30805  26.696   7.729  12.056
69517W        W30806  31.951  44.377  10.943
69518W        W30807  32.517   0.254   0.889
69519W        W30808   4.874  12.346  12.345
69520W        W30809  31.544  18.245   3.839
69521W        W30810   3.790  24.038   2.222
69522W        W30811   1.962  41.310  13.354
69523W        W30812  13.344  26.963   0.392
69524W        W30813  33.448  41.858   0.810
69525W        W30814   2.780  41.901  10.929
69526W        W30815  32.103  19.207  13.932
69527W        W30816   5.724  30.461   2.206
69528W        W30817   2.237   5.406  13.535
69529W        W30818  20.116  28.011   3.258
69530W        W30819  23.073  16.233   4.285
69531W        W30820  16.665  33.016  14.910
69532W        W30821  44.437  28.529   1.267
69533W        W30822   0.886   6.384   3.791
69534W        W30823  27.982  18.077   0.847
69535W        W30824  25.021  11.367   4.645
69536W        W30825   7.811  25.110  12.429
69537W        W30826  39.401  29.926   3.229
69538W        W30827   9.864  18.546   2.827
69539W        W30828  13.341  22.582  12.944
69540W        W30829   9.276   2.428   0.732
69541W        W30830  35.008  31.129  14.430
69542W        W30831  14.770  19.247   2.337
69543W        W30832  16.570  40.886  14.803
69544W        W30833  33.008  27.977  12.564
69545W        W30834   8.746  14.100  12.569
69546W        W30835   0.899  37.508  10.505
69547W        W30836  31.497  37.580   1.236
69548W        W30837  35.102   4.279   1.263
69549W        W30838  44.899  12.139  12.936
69550W        W30839  19.775   8.849   5.195
69551W        W30840  13.164  25.198   3.151
69552W        W30841   8.760  27.676  12.502
69553W        W30842  11.186  28.595  12.943
69554W        W30843  26.022  33.004  14.307
69555W        W30844  11.825  15.811  13.818
69556W        W30845  43.000   3.431   1.395
69557W        W30846  26.514  28.543  14.764
69558W        W30847  28.478  38.039   0.938
69559W        W30848  40.804  14.702  14.890
69560W        W30849  31.083  20.272   1.811
69561W        W30850   9.884  12.293  11.447
69562W        W30851  38.826  34.404  14.441
69563W        W30852   5.848  31.647  11.083
69564W        W30853  22.155  42.835  12.831
69565W        W30854   3.217  14.203  11.433
69566W        W30855  42.336  24.134   0.730
69567W        W30856  17.666  20.232  12.441
69568W        W30857   2.900  25.625   2.273
69569W        W30858  25.635  13.717  11.096
69570W        W30859  27.518  32.000  14.283
69571W        W30860  32.625  44.783  14.017
69572W        W30861  12.746  41.502  13.862
69573W        W30862  15.131  20.099   3.843
69574W        W30863  20.667  44.799   4.232
69575W        W30864  21.061  32.061   1.808
69576W        W30865  35.874  38.060   0.960
69577W        W30866  25.555  36.877   4.637
69578W        W30867  15.168  30.010  10.962
69579W        W30868   3.262  42.836  13.374
69580W        W30869  35.549  39.927  12.448
69581W        W30870   8.657   0.333  11.115
69582W        W30871  34.952  35.361   1.713
69583W        W30872  43.816  38.024   3.812
69584W        W30873   3.426  11.668  10.898
69585W        W30874  21.555  29.004   2.334
69586W        W30875  25.127  28.630  12.533
69587W        W30876  38.838   0.379  14.836
69588W        W30877  38.976  22.674   4.349
69589W        W30878  14.186   9.265   4.180
69590W        W30879  41.839  24.185   3.260
69591W        W30880   8.340   4.939   4.324
69592W        W30881  41.804  14.310   3.734
69593W        W30882  41.921  30.147  13.978
69594W        W30883   7.322   5.328  13.909
69595W        W30884  12.726  37.027   1.344
69596W        W30885  31.066   5.239   4.166
69597W        W30886   3.746  23.573  14.834
69598W        W30887  22.648  33.026   2.196
69599W        W30888  42.355  31.009   4.768
69600W        W30889   8.216  42.503  11.571
69601W        W30890  31.930  42.966  11.446
69602W        W30891  11.129  11.804   1.760
69603W        W30892  14.656  14.265   3.703
69604W        W30893   3.820  24.070  14.413
69605W        W30894   9.175  35.069   2.303
69606W        W30895   4.860  42.523   2.310
69607W        W30896   1.869  22.539  13.405
69608W        W30897  27.166  13.232   2.784
69609W        W30898  10.308  14.293   0.468
69610W        W30899   1.847  41.364  14.959
69611W        W30900  28.443  10.276   1.417
69612W        W30901   4.307  30.606  13.028
69613W        W30902  18.698  26.479  13.910
69614W        W30903  25.525  19.775   1.751
69615W        W30904  10.789   1.339  13.061
69616W        W30905  15.286  20.167   2.794
69617W        W30906  26.200  12.772  13.487
69618W        W30907  39.488  30.063   4.307
69619W        W30908  19.262  31.579  11.920
69620W        W30909  10.384   3.231  13.922
69621W        W30910   5.407   7.230  12.391
69622W        W30911  31.924  15.717   0.397
69623W        W30912   7.684   8.312   3.751
69624W        W30913   6.423  38.900   1.376
69625W        W30914   9.264  35.382  10.612
69626W        W30915  30.157   4.849  10.987
69627W        W30916   9.783  33.101   1.261
69628W        W30917  20.704  30.066   4.658
69629W        W30918  18.767  37.919   4.704
69630W        W30919  17.674   2.905   1.228
69631W        W30920  41.518  25.166   4.667
69632W        W30921   5.892   4.705  13.423
69633W        W30922  42.954  37.478   4.165
69634W        W30923   8.192  33.443   9.581
69635W        W30924   4.766  35.106   5.097
69636W        W30925  37.431  24.512   0.371
69637W        W30926  11.804  26.675  13.046
69638W        W30927  30.939  34.029  11.411
69639W        W30928   5.388   0.758  13.491
69640W        W30929  23.649  32.008   2.214
69641W        W30930   2.376  36.424  10.548
69642W        W30931  23.135  23.522  11.953
69643W        W30932   5.741  41.905  13.832
69644W        W30933  20.267  10.232   0.461
69645W        W30934  26.005  37.387   2.225
69646W        W30935  20.543  39.526   4.599
69647W        W30936  34.880   3.955   4.160
69648W        W30937  35.981  24.600   0.849
69649W        W30938  11.340  25.694   2.716
69650W        W30939  14.096  12.630   3.772
69651W        W30940  13.654  12.734   3.261
69652W        W30941  33.435  17.610   4.760
69653W        W30942   6.375  42.313  12.851
69654W        W30943  27.096  22.087   0.295
69655W        W30944   5.712  37.526  11.882
69656W        W30945  41.504  38.952   4.830
69657W        W30946  40.434  25.687  12.560
69658W        W30947  26.164  22.570  11.429
69659W        W30948  44.865   5.217  14.945
69660W        W30949  35.971  36.030   1.719
69661W        W30950  43.992  17.268  14.343
69662W        W30951  43.804  27.631  13.485
69663W        W30952   0.350   3.756  12.571
69664W        W30953   1.418  13.256  12.529
69665W        W30954  27.598  27.034   4.254
69666W        W30955  38.997  10.316  11.484
69667W        W30956  13.808  25.202  14.509
69668W        W30957  39.880  17.112   0.828
69669W        W30958  23.522  31.614  10.967
69670W        W30959  29.482   8.161   1.808
69671W        W30960  10.258  40.816   1.804
69672W        W30961  13.791  43.901   1.767
69673W        W30962  40.935  41.315   2.414
69674W        W30963  14.143   9.816  11.374
69675W        W30964  11.741   2.448  11.109
69676W        W30965  37.034  35.023   0.376
69677W        W30966  37.383  12.722   1.930
69678W        W30967  29.657  22.137  11.999
69679W        W30968  40.054  43.877  12.917
69680W        W30969   1.853  16.777   3.178
69681W        W30970  36.423  15.653  14.022
69682W        W30971   4.221  13.713  10.461
69683W        W30972  33.620  31.576  12.940
69684W        W30973   0.258  18.058   2.858
69685W        W30974  39.493  35.880  11.999
69686W        W30975  28.639  26.700   2.255
69687W        W30976  38.001   1.330  12.957
69688W        W30977  36.574   8.172  10.643
69689W        W30978  15.700  24.602   0.859
69690W        W30979   8.182  16.566  11.556
69691W        W30980  21.115  35.038  11.029
69692W        W30981   6.902  22.117  13.423
69693W        W30982   0.844  40.327   4.135
69694W        W30983  26.601  43.771   3.190
69695W        W30984  43.987  11.177   5.247
69696W        W30985  19.560  40.994   4.342
69697W        W30986  19.259  12.322   0.859
69698W        W30987  27.518  11.243  14.028
69699W        W30988  10.234  11.306   3.373
69700W        W30989   0.753  36.937  12.417
69701W        W30990  13.829  36.462  12.926
69702W        W30991  41.004  42.368   2.396
69703W        W30992  33.916  29.958  10.424
69704W        W30993   2.757   0.960  12.500
69705W        W30994  34.418  41.869   2.416
69706W        W30995  21.065  22.559  10.924
69707W        W30996  32.531  35.419  13.945
69708W        W30997  33.493  42.471  10.898
69709W        W30998   0.959  43.466   0.321
69710W        W30999  28.614   3.369   1.259
69711W        W31000  42.505  36.858   0.353
69712W        W31001  33.485  31.097   3.349
69713W        W31002   1.451  42.326   0.448
69714W        W31003  18.160  18.282  13.004
69715W        W31004   4.709  36.036   4.786
69716W        W31005  39.845  43.789   1.729
69717W        W31006  12.168  18.623  10.096
69718W        W31007  21.199   8.770   2.860
69719W        W31008  40.463  18.788  13.423
69720W        W31009  26.981  28.173  13.827
69721W        W31010  24.684  32.635   1.875
69722W        W31011  13.284  39.829  10.539
69723W        W31012  12.161  19.235  12.960
69724W        W31013  13.718  28.476   3.635
69725W        W31014  36.846  13.108  13.337
69726W        W31015  39.908  34.010   2.728
69727W        W31016  22.547  26.541  12.512
69728W        W31017   6.423  37.914   0.409
69729W        W31018   7.402  15.143  11.013
69730W        W31019  24.563  25.562   0.730
69731W        W31020  18.686   4.749   5.299
69732W        W31021  38.389  27.448   3.830
69733W        W31022  42.791  19.094   3.655
69734W        W31023  23.039  26.204  10.905
69735W        W31024  40.995  43.322   3.378
69736W        W31025  21.114  40.456  11.390
69737W        W31026  23.187   7.247  14.484
69738W        W31027   8.893  25.579  14.854
69739W        W31028  36.394  13.133   3.254
69740W        W31029  12.776  19.072   2.847
69741W        W31030  11.621  10.863   1.906
69742W        W31031  44.445  37.846   0.927
69743W        W31032  24.507  13.698   0.371
69744W        W31033  40.809  15.677   2.747
69745W        W31034   5.898   2.885   3.234
69746W        W31035  14.659  29.529   4.196
69747W        W31036  15.812  21.726   0.453
69748W        W31037  13.845  18.180  11.605
69749W        W31038   9.298  21.255  10.462
69750W        W31039  42.465   6.346   2.306
69751W        W31040   2.437   4.881  13.899
69752W        W31041  15.196  41.851   2.340
69753W        W31042   5.229  27.568  11.106
69754W        W31043  14.200  40.845   0.329
69755W        W31044   9.376  30.578   5.633
69756W        W31045  32.970   1.951   4.248
69757W        W31046  23.633  26.460  12.975
69758W        W31047  11.290  39.335  12.861
69759W        W31048   6.758   2.793   2.272
69760W        W31049  38.946  10.277   4.321
69761W        W31050   1.314  44.922   3.843
69762W        W31051  33.990  18.675   3.753
69763W        W31052  17.190  40.866   2.852
69764W        W31053  27.194  37.864   0.947
69765W        W31054  41.928   6.181  13.900
69766W        W31055  37.882  33.059   3.209
69767W        W31056  21.189  36.397  13.816
69768W        W31057  23.512  30.020   1.786
69769W        W31058  21.116  12.846   1.424
69770W        W31059   9.202  43.414  12.840
69771W        W31060  31.983  29.117  12.960
69772W        W31061  37.510  28.453  14.373
69773W        W31062  20.537  36.067   0.882
69774W        W31063  34.472  17.072  13.964
69775W        W31064  10.255   5.780  14.366
69776W        W31065  10.819   1.974   0.871
69777W        W31066  33.996  19.222   0.285
69778W        W31067  13.169  37.075  10.135
69779W        W31068  30.117  15.108  11.555
69780W        W31069  22.745  42.985   4.666
69781W        W31070  24.712  10.685   2.664
69782W        W31071  19.104  26.501   4.120
69783W        W31072  35.955  12.265  11.097
69784W        W31073  43.819   8.761  14.782
69785W        W31074  33.039   0.449   3.856
69786W        W31075  36.891  33.387  14.785
69787W        W31076  23.666   3.713   2.277
69788W        W31077  19.546  38.406  12.880
69789W        W31078  20.270  21.637  14.311
69790W        W31079  17.603  28.654   0.468
69791W        W31080  33.934  27.016  11.105
69792W        W31081  28.438  31.602  11.371
69793W        W31082  39.491   1.259   3.670
69794W        W31083  38.015  10.870  13.381
69795W        W31084  27.156  30.499   4.133
69796W        W31085  37.847  31.610  11.964
69797W        W31086  41.394  43.938   4.149
69798W        W31087  38.843  29.070   2.903
69799W        W31088   5.194  39.054  12.054
69800W        W31089  18.781  42.807   2.296
69801W        W31090   7.693   9.243   4.772
69802W        W31091   6.312   8.298   2.323
69803W        W31092   4.388  23.596   0.356
69804W        W31093   8.244   1.868   0.369
69805W        W31094  22.142  33.473   0.479
69806W        W31095  13.749  18.736  12.909
69807W        W31096  27.642  41.898  11.457
69808W        W31097  23.138  11.291   3.295
69809W        W31098  44.360   4.902   4.229
69810W        W31099  25.531  39.911   4.212
69811W        W31100  35.359  13.612  13.847
69812W        W31101  41.043  32.461  11.559
69813W        W31102  32.597  26.480  10.506
69814W        W31103  39.912  38.567   3.387
69815W        W31104  12.292  26.953  14.992
69816W        W31105  23.205  43.494   2.229
69817W        W31106  17.757  36.519   2.899
69818W        W31107  29.635  24.560   1.695
69819W        W31108  16.180  34.959  11.045
69820W        W31109  31.048   3.947  14.886
69821W        W31110   9.164   9.881   2.862
69822W        W31111  30.121  31.496  14.874
69823W        W31112  17.098  19.646   2.717
69824W        W31113  41.365  20.060   1.753
69825W        W31114  18.561  34.512   2.780
69826W        W31115  38.021   2.425  11.376
69827W        W31116  20.207  10.638  11.122
69828W        W31117  16.237  31.572   3.742
69829W        W31118  12.697  34.065   2.358
69830W        W31119  26.081  24.139  13.515
69831W        W31120  34.111  22.164  13.904
69832W        W31121  19.189  40.411   2.716
69833W        W31122  39.810  39.054  10.899
69834W        W31123   7.868  43.964   2.851
69835W        W31124  37.414   0.809   0.849
69836W        W31125  39.531   1.893  13.032
69837W        W31126  22.606  39.878  14.456
69838W        W31127  25.053   9.772  14.897
69839W        W31128   9.171  24.597  14.827
69840W        W31129  33.948   7.181  12.034
69841W        W31130   2.249   0.338   1.872
69842W        W31131  14.177  41.408   0.743
69843W        W31132  27.593  40.341   4.623
69844W        W31133   4.900   8.745  14.929
69845W        W31134   3.336  37.400   2.285
69846W        W31135  25.508  24.051   1.734
69847W        W31136   3.302   3.228   0.865
69848W        W31137  15.584  35.424   1.886
69849W        W31138  34.047   5.193   3.311
69850W        W31139  36.943  12.154  13.951
69851W        W31140  31.486  13.775   3.845
69852W        W31141  12.765  21.224  12.059
69853W        W31142  27.463  30.424   3.851
69854W        W31143  19.057   8.667  13.468
69855W        W31144   5.801   0.315  13.835
69856W        W31145   1.884   1.853   2.196
69857W        W31146  28.444  21.748   1.795
69858W        W31147  18.694  12.330   3.731
69859W        W31148  23.230  23.172  12.998
69860W        W31149  36.003  20.049  14.443
69861W        W31150   1.417   1.810  14.010
69862W        W31151  35.591  24.191   1.799
69863W        W31152  25.044  38.504  11.869
69864W        W31153  40.831   3.732  10.949
69865W        W31154  22.641  28.478   3.182
69866W        W31155  21.149   3.832  14.370
69867W        W31156  34.999  29.160   5.226
69868W        W31157  38.444  21.738  11.392
69869W        W31158  27.537  10.232  11.539
69870W        W31159  32.128  25.678  14.825
69871W        W31160   5.379  39.549  13.039
69872W        W31161   9.883  43.365   0.363
69873W        W31162  22.193  37.568   4.227
69874W        W31163  13.258  14.308  11.861
69875W        W31164  15.698  16.744  10.003
69876W        W31165   2.462  25.118   1.229
69877W        W31166  27.978  10.675  12.043
69878W        W31167  12.699  19.541  11.544
69879W        W31168  29.501  30.152   4.829
69880W        W31169   7.180  41.904   4.618
69881W        W31170  15.184   5.338   0.844
69882W        W31171  23.571  28.165   3.312
69883W        W31172  11.164   2.421   1.413
69884W        W31173   2.731  13.160  12.405
69885W        W31174  19.762  25.475  13.438
69886W        W31175  26.467  29.134   0.317
69887W        W31176  37.920  10.758  10.572
69888W        W31177   9.212  10.338  10.934
69889W        W31178  27.517  15.116  12.907
69890W        W31179  23.676  10.757  14.332
69891W        W31180  34.592  13.683   3.313
69892W        W31181  20.759  13.750  14.784
69893W        W31182  13.344   7.239  12.524
69894W        W31183   7.216  23.559  11.373
69895W        W31184  40.845  41.949  11.017
69896W        W31185  31.457  35.866  13.523
69897W        W31186  24.227  28.020  14.001
69898W        W31187  41.037  37.571   4.242
69899W        W31188  43.809  17.744  13.418
69900W        W31189  23.617  19.039  14.934
69901W        W31190  23.637  12.839   1.926
69902W        W31191   6.892  19.283  12.581
69903W        W31192  22.212  13.614   0.465
69904W        W31193  31.461  20.586  10.634
69905W        W31194  21.223  30.131  14.299
69906W        W31195   2.444  14.241  14.950
69907W        W31196  38.331  35.881   1.250
69908W        W31197  35.036  27.471  13.858
69909W        W31198  29.657  39.050   0.374
69910W        W31199  41.515   4.885   4.226
69911W        W31200  43.814  12.629   5.164
69912W        W31201  23.018  39.418   2.310
69913W        W31202  40.812  18.268   2.403
69914W        W31203  40.867  44.356   3.816
69915W        W31204  20.580  38.904  12.364
69916W        W31205  13.665  18.291  13.058
69917W        W31206  11.194  39.546   3.264
69918W        W31207  22.219  38.821  10.415
69919W        W31208  28.460  24.703  13.353
69920W        W31209  41.378   7.886  12.528
69921W        W31210  16.158  42.878  12.512
69922W        W31211  43.905  22.609   3.147
69923W        W31212  11.847   9.324   1.255
69924W        W31213  27.559  42.493  14.992
69925W        W31214  37.575  34.560   2.391
69926W        W31215  14.294  39.401  12.502
69927W        W31216  31.645  24.521   0.860
69928W        W31217  37.485  39.409  12.083
69929W        W31218   4.750   6.903   2.418
69930W        W31219  11.364  41.499   4.322
69931W        W31220  44.783  33.126   3.813
69932W        W31221  16.249  31.953   2.843
69933W        W31222  11.367  28.974   2.232
69934W        W31223   6.265  41.846  13.368
69935W        W31224   7.700  38.886  13.009
69936W        W31225  32.527  19.568  14.436
69937W        W31226  22.542  34.890   2.356
69938W        W31227  38.035   6.351   0.349
69939W        W31228   0.249  38.510  13.350
69940W        W31229  44.369  34.001   0.732
69941W        W31230  29.465  26.482   0.926
69942W        W31231  14.702  22.158  14.775
69943W        W31232  34.070  38.848   4.684
69944W        W31233   4.727  31.474  13.331
69945W        W31234  12.314  10.851   2.388
69946W        W31235  37.936  15.824   0.449
69947W        W31236   1.272   5.689   1.254
69948W        W31237   5.288  25.105   5.199
69949W        W31238  28.980  38.487   2.210
69950W        W31239  25.610  27.183  12.937
69951W        W31240  44.853  31.442  11.578
69952W        W31241  22.703   0.920   5.123
69953W        W31242  35.976  20.272   4.210
69954W        W31243  24.055   3.891  11.416
69955W        W31244  41.343   6.920  13.941
69956W        W31245   1.346  27.619   0.246
69957W        W31246  12.279   1.337  11.533
69958W        W31247   7.686   2.422  14.401
69959W        W31248  20.745  11.785   3.678
69960W        W31249  40.872  41.356   4.726
69961W        W31250  44.483  21.716   0.474
69962W        W31251  44.270  31.616  12.507
69963W        W31252  43.924  34.557   2.899
69964W        W31253  12.844  16.279   1.341
69965W        W31254  37.026  30.016   0.268
69966W        W31255  32.012  32.979   0.317
69967W        W31256  11.366  22.573   4.735
69968W        W31257  43.451  33.059   1.763
69969W        W31258  27.988  33.615   1.227
69970W        W31259  33.479  30.118   0.926
69971W        W31260  39.962  29.961  13.805
69972W        W31261  37.384  42.462   0.809
69973W        W31262  39.929  35.511  12.864
69974W        W31263  30.430  34.510   3.335
69975W        W31264   8.203  34.487   1.927
69976W        W31265  43.487  18.783  11.007
69977W        W31266  35.545  10.815   0.280
69978W        W31267  13.828  17.270   3.214
69979W        W31268  24.519  31.063  14.294
69980W        W31269  19.539  33.990   3.273
69981W        W31270  44.357  11.170   0.816
69982W        W31271  22.189  22.184  11.569
69983W        W31272   1.812  32.444  14.830
69984W        W31273   1.321  33.932  12.501
69985W        W31274   7.747   5.408   1.882
69986W        W31275  15.128  27.509  11.518
69987W        W31276  41.447   2.370   5.237
69988W        W31277  19.193  35.555  11.883
69989W        W31278   9.323  36.032  11.914
69990W        W31279  34.912   0.958  14.970
69991W        W31280  36.928  10.666   4.242
69992W        W31281  32.974  24.104   0.259
69993W        W31282  21.134   1.802   1.853
69994W        W31283  35.553  37.873   4.228
69995W        W31284  11.622  40.438  11.463
69996W        W31285  38.026  33.462   3.748
69997W        W31286  37.863  14.673  10.427
69998W        W31287  27.065  32.398   2.679
69999W        W31288  14.749  19.098   9.472
70000W        W31289   3.282  22.031  11.421
70001W        W31290  41.450   7.249  13.044
70002W        W31291   9.734   4.878   1.762
70003W        W31292  43.924  42.310   2.389
70004W        W31293  43.273  20.727   2.736
70005W        W31294  35.902  23.024   3.779
70006W        W31295  19.762  37.348  13.980
70007W        W31296  10.695  33.130   0.840
70008W        W31297  11.802  35.910  12.028
70009W        W31298   3.310  30.510   1.388
70010W        W31299   3.392  18.128   2.202
70011W        W31300  17.592  19.746  10.493
70012W        W31301  34.374  28.082   0.317
70013W        W31302   5.752  31.612   2.663
70014W        W31303  22.107   7.376   2.228
70015W        W31304  18.732   2.835   4.355
70016W        W31305  25.485  30.997   2.679
70017W        W31306  10.294  26.588  11.589
70018W        W31307  26.122  28.039  13.353
70019W        W31308  27.628  26.677   4.173
70020W        W31309  22.049  14.109  10.535
70021W        W31310  23.625   5.853  13.417
70022W        W31311  35.881  35.367  13.502
70023W        W31312  22.051   4.699  12.428
70024W        W31313  36.850  16.308  10.638
70025W        W31314  28.166  25.145  10.427
70026W        W31315  36.427  39.409  14.411
70027W        W31316  18.161  28.468  14.425
70028W        W31317  31.483  29.019   0.855
70029W        W31318   2.813  37.032   4.244
70030W        W31319  15.674  30.103  13.326
70031W        W31320   4.264   7.717   3.657
70032W        W31321  26.985  32.458   1.828
70033W        W31322  18.115  28.507  13.005
70034W        W31323  43.838  31.555   3.197
70035W        W31324  43.900  25.584   4.757
70036W        W31325  29.597  28.619  11.564
70037W        W31326   0.423  16.610  14.353
70038W        W31327  22.682  22.694   3.326
70039W        W31328   7.774   8.398   1.868
70040W        W31329  10.320  34.606  10.894
70041W        W31330   9.238   2.882  13.312
70042W        W31331   2.225  28.975  11.105
70043W        W31332  36.024   1.332   4.259
70044W        W31333  36.547   7.718  13.872
70045W        W31334  10.776  33.488   2.692
70046W        W31335  28.450   0.820   0.450
70047W        W31336   4.364  23.114  11.965
70048W        W31337  40.820   5.426   2.805
70049W        W31338  43.382  36.053   2.877
70050W        W31339  20.592  29.071   1.384
70051W        W31340  11.171  10.164   3.784
70052W        W31341  21.187  39.908   3.385
70053W        W31342  21.593  21.531   2.295
70054W        W31343  20.031  11.235  14.280
70055W        W31344  34.544  43.887   0.264
70056W        W31345  31.567  25.687   3.377
70057W        W31346   3.831  22.669  12.896
70058W        W31347  24.672   4.280  11.022
70059W        W31348  23.711  21.018   4.707
70060W        W31349  34.916   3.791   5.595
70061W        W31350  19.195  26.456  13.479
70062W        W31351   1.334  43.441   2.744
70063W        W31352  11.310  33.124   0.311
70064W        W31353  42.315   7.346   4.287
70065W        W31354  13.775  31.051   0.397
70066W        W31355   5.919  10.361  10.921
70067W        W31356  43.939  11.275   3.247
70068W        W31357  24.508   8.743  11.427
70069W        W31358  43.452   0.368   2.319
70070W        W31359  36.469  18.789   1.271
70071W        W31360   1.907  17.626  14.456
70072W        W31361  33.382  19.678   4.323
70073W        W31362  42.869  17.726  14.433
70074W        W31363  13.814   6.324  11.042
70075W        W31364  41.040  16.198  12.909
70076W        W31365  22.584   0.376   0.273
70077W        W31366  34.109  23.990  14.939
70078W        W31367  12.747   9.201   2.209
70079W        W31368  25.045  25.707   2.712
70080W        W31369  35.550   5.384  12.998
70081W        W31370  11.705  19.638   3.862
70082W        W31371  10.193  16.681   1.721
70083W        W31372  18.142  43.346  11.551
70084W        W31373  21.529  39.930  12.013
70085W        W31374   5.776  23.199   9.478
70086W        W31375  19.614  31.571   3.231
70087W        W31376  10.705  12.831   3.761
70088W        W31377   3.306  37.858   4.644
70089W        W31378  20.165   8.886  11.893
70090W        W31379  44.788  21.734  12.440
70091W        W31380   8.370  25.558   5.182
70092W        W31381   3.265  32.887   3.327
70093W        W31382  31.961  18.689  14.295
70094W        W31383   9.821  15.710  10.616
70095W        W31384  20.165   3.871  11.558
70096W        W31385   5.900  33.564   1.250
70097W        W31386  30.426  31.584   1.403
70098W        W31387  18.712  42.301  13.464
70099W        W31388  44.966  28.470  10.891
70100W        W31389  32.570  34.523  11.933
70101W        W31390  29.640  24.649   2.903
70102W        W31391  29.644  29.562   5.229
70103W        W31392  34.018  32.056   2.815
70104W        W31393  24.026  39.399  10.503
70105W        W31394  12.755  39.494   3.847
70106W        W31395  26.664  33.615   1.699
70107W        W31396  14.185  21.170  14.851
70108W        W31397   0.467  35.872   2.717
70109W        W31398  40.827  18.692  14.929
70110W        W31399  42.028   7.693  10.481
70111W        W31400  37.048  18.731   3.719
70112W        W31401  31.603  16.224  13.352
70113W        W31402   9.384  23.008   3.292
70114W        W31403  14.198   3.713  14.925
70115W        W31404   3.734  38.837   4.733
70116W        W31405  13.216  36.863   3.356
70117W        W31406  20.085  33.430  14.915
70118W        W31407  41.333  39.830  13.416
70119W        W31408   7.291  44.463   1.225
70120W        W31409  17.582  29.570  14.304
70121W        W31410  38.905  44.437   0.315
70122W        W31411  16.663   2.285  14.411
70123W        W31412   2.300   9.762   0.729
70124W        W31413  18.715  12.193  13.058
70125W        W31414  35.457  34.926  14.504
70126W        W31415  18.573  41.936  13.389
70127W        W31416  13.170  13.636  13.499
70128W        W31417  19.686  21.642  12.096
70129W        W31418  10.800  11.157   3.318
70130W        W31419  33.536  10.149   1.400
70131W        W31420  30.557  38.499  12.442
70132W        W31421   2.933   0.785  10.898
70133W        W31422  41.390  39.445  10.548
70134W        W31423  42.337   1.248   4.805
70135W        W31424  23.992  41.849  12.826
70136W        W31425  17.135  40.961   4.289
70137W        W31426  31.635  44.935  14.491
70138W        W31427  28.459  38.458  11.011
70139W        W31428  32.085  34.991  11.584
70140W        W31429  14.764  38.393  13.428
70141W        W31430  31.935   7.782   1.747
70142W        W31431  20.574  16.656  14.455
70143W        W31432  32.886  31.976  11.126
70144W        W31433  10.229  29.092   0.848
70145W        W31434  43.868  22.182   3.189
70146W        W31435  30.561  16.241  14.031
70147W        W31436  33.618  38.495  11.526
70148W        W31437  30.119  14.199  11.951
70149W        W31438  14.182  30.163  13.435
70150W        W31439  21.242  20.642   2.409
70151W        W31440  10.315  12.710   3.765
70152W        W31441  27.550  32.471  11.513
70153W        W31442  12.229  25.488   4.763
70154W        W31443  31.467  16.631   4.286
70155W        W31444  25.210  19.201   2.786
70156W        W31445  20.602  12.803   3.379
70157W        W31446  26.519   6.814   3.276
70158W        W31447  37.355   2.743   4.708
70159W        W31448   5.857  31.462   3.232
70160W        W31449  12.627  16.121   2.684
70161W        W31450  14.643  12.188  11.903
70162W        W31451  13.194   3.953  11.438
70163W        W31452  42.329   7.794  13.463
70164W        W31453  32.482  12.805   3.213
70165W        W31454  20.062   3.941   4.273
70166W        W31455  37.897  38.571  13.512
70167W        W31456  25.484  18.768  11.389
70168W        W31457  10.298  37.480  11.421
70169W        W31458  29.519   4.921   3.810
70170W        W31459  37.487   5.745  14.484
70171W        W31460  22.555  35.013  12.357
70172W        W31461  40.399  28.613   3.685
70173W        W31462   4.369  12.344   2.238
70174W        W31463  22.680  22.090  14.392
70175W        W31464  35.873  14.136  10.404
70176W        W31465  32.025  21.259  14.904
70177W        W31466  32.048  34.891  12.962
70178W        W31467  41.042  37.438   4.838
70179W        W31468  33.610  18.702   0.370
70180W        W31469  11.850  27.013   4.177
70181W        W31470  21.078   0.353  11.485
70182W        W31471   7.862  14.832  13.476
70183W        W31472  19.743  20.098   0.338
70184W        W31473   9.308   3.949  10.410
70185W        W31474  26.537  14.138  11.450
70186W        W31475  15.784   3.891   3.787
70187W        W31476  25.114   0.843   0.785
70188W        W31477  14.825   6.256  10.608
70189W        W31478  20.178  12.810   4.656
70190W        W31479   6.399  24.995   2.837
70191W        W31480  43.009  19.554  13.061
70192W        W31481  16.190   4.782   9.955
70193W        W31482  42.433   0.359  13.321
70194W        W31483  42.897  29.065  11.409
70195W        W31484  41.861  31.430  12.413
70196W        W31485  21.189  27.500  12.894
70197W        W31486  25.549  26.589   3.276
70198W        W31487  22.513   8.759  10.139
70199W        W31488  27.975   3.417  14.867
70200W        W31489  38.914  20.255  13.389
70201W        W31490  42.844   8.295  12.905
70202W        W31491  15.306  33.467  12.544
70203W        W31492  39.378  28.092   1.859
70204W        W31493  39.336  26.686  13.336
70205W        W31494  33.489   2.764   2.306
70206W        W31495  44.365  17.259   3.745
70207W        W31496  13.790   9.873   0.945
70208W        W31497  31.447  15.725  13.041
70209W        W31498   6.890  31.566   3.675
70210W        W31499  12.672  35.577   2.183
70211W        W31500  10.670  25.148   1.846
70212W        W31501  16.787  27.531   1.220
70213W        W31502  33.595  32.507   4.605
70214W        W31503  11.822  16.305  12.967
70215W        W31504  16.752  16.126  13.409
70216W        W31505   6.686  15.730   2.855
70217W        W31506  44.497  31.417   4.817
70218W        W31507   0.877  33.960   4.653
70219W        W31508  44.332  37.041   5.135
70220W        W31509  35.942  18.051  13.951
70221W        W31510   3.909   9.344   1.307
70222W        W31511  42.469  32.065  13.464
70223W        W31512  12.308   3.449   3.697
70224W        W31513  26.107   6.353   3.338
70225W        W31514  21.170  32.039   4.638
70226W        W31515  28.641  28.116  13.886
70227W        W31516  44.966  18.733   0.424
70228W        W31517  11.335  40.019   4.615
70229W        W31518  27.127   1.388   3.702
70230W        W31519  44.932  13.143  11.995
70231W        W31520  20.192  41.019   2.770
70232W        W31521  34.019  17.655   3.174
70233W        W31522   9.224  19.095  13.974
70234W        W31523  33.498   6.681   3.203
70235W        W31524  37.080  17.195  12.005
70236W        W31525  38.939  28.637  13.850
70237W        W31526  24.623  18.146   1.216
70238W        W31527   7.723   1.836   0.362
70239W        W31528  27.467   5.214  12.838
70240W        W31529   7.378   4.418  12.564
70241W        W31530  23.710  15.793   4.305
70242W        W31531  33.077   5.300   2.710
70243W        W31532  25.171  26.097   1.733
70244W        W31533  38.352  24.698   3.195
70245W        W31534  31.594  35.484  13.404
70246W        W31535  23.549   5.302  11.492
70247W        W31536  29.002  14.317   3.757
70248W        W31537  27.560  23.690   4.830
70249W        W31538  41.948  14.230   5.221
70250W        W31539  21.720  12.731   2.903
70251W        W31540   4.777   5.870  12.823
70252W        W31541  36.978  37.875   1.215
70253W        W31542   7.199   6.302  10.908
70254W        W31543  41.358  27.980   1.260
70255W        W31544  21.691  40.494  12.898
70256W        W31545   6.367  22.109   1.801
70257W        W31546  34.440  24.535  11.611
70258W        W31547  29.512  28.492  12.359
70259W        W31548  15.147  36.573  13.458
70260W        W31549  31.109  38.435   0.799
70261W        W31550   5.909   1.835   2.722
70262W        W31551  10.853   6.903  14.833
70263W        W31552   8.873   1.806  13.473
70264W        W31553   1.265  15.297   1.795
70265W        W31554  18.177  19.622  14.466
70266W        W31555  24.717  20.622  11.476
70267W        W31556  26.197   9.804  12.987
70268W        W31557  18.655  40.933   0.730
70269W        W31558   4.710  28.637  11.887
70270W        W31559   7.244  13.641   2.796
70271W        W31560   8.383  28.163   4.619
70272W        W31561  26.021  21.248  13.436
70273W        W31562  22.211  32.546   2.227
70274W        W31563  11.215   7.321  13.389
70275W        W31564  30.159   7.784   3.772
70276W        W31565   9.254  44.838  10.007
70277W        W31566  13.806   8.226  10.974
70278W        W31567  34.461  40.998   4.760
70279W        W31568  13.674  19.167  10.605
70280W        W31569  30.455  11.782  12.841
70281W        W31570   2.308  41.484   5.152
70282W        W31571  19.672  13.276  10.919
70283W        W31572  20.195   4.918  13.870
70284W        W31573  24.991  19.045   5.154
70285W        W31574  32.028  22.195   1.923
70286W        W31575  22.997  33.407   0.394
70287W        W31576  35.505  11.787   0.836
70288W        W31577  32.535  36.588  11.503
70289W        W31578  17.075  36.510   4.143
70290W        W31579  31.112  22.601   1.316
70291W        W31580  20.095  32.485   3.216
70292W        W31581  27.953  34.094   4.179
70293W        W31582  30.949  26.095   0.263
70294W        W31583   6.822  18.105  13.036
70295W        W31584  37.900   0.975  14.998
70296W        W31585  16.713  15.592  13.468
70297W        W31586  37.963   5.365   4.714
70298W        W31587  22.162  24.667  10.546
70299W        W31588  21.692  39.939   3.865
70300W        W31589  28.575  41.319   4.352
70301W        W31590  24.225  39.414   2.898
70302W        W31591  31.542  23.989   0.446
70303W        W31592  20.069  15.250   3.714
70304W        W31593  33.437   8.209  14.907
70305W        W31594  24.538  38.369   0.346
70306W        W31595  10.343  40.464   2.329
70307W        W31596   5.752  18.221   4.720
70308W        W31597   9.808  35.023  10.436
70309W        W31598  11.246  43.769  13.532
70310W        W31599  36.457  34.931  11.980
70311W        W31600  41.359  10.340  12.573
70312W        W31601  26.000  26.645  10.079
70313W        W31602  38.524  13.718   3.800
70314W        W31603  22.515  38.858  10.423
70315W        W31604  28.170  30.960  12.832
70316W        W31605  33.589   7.782   1.362
70317W        W31606  19.141  26.155  10.634
70318W        W31607  16.229  33.084   0.330
70319W        W31608  24.507   8.710  12.360
70320W        W31609  33.103  20.607  13.503
70321W        W31610   8.753  40.527  13.327
70322W        W31611   5.350   2.291  11.981
70323W        W31612  15.777   4.296  10.049
70324W        W31613  28.063   2.325   0.860
70325W        W31614  17.695  40.947  12.093
70326W        W31615  40.868  35.884   2.352
70327W        W31616  26.480   5.813  11.025
70328W        W31617  27.023  25.097  10.588
70329W        W31618  11.294  26.468  14.472
70330W        W31619  19.543  38.972  11.865
70331W        W31620  20.681   6.428   0.314
70332W        W31621  38.441  12.140  11.925
70333W        W31622  39.500  32.418  12.962
70334W        W31623   7.827  15.252   4.611
70335W        W31624  17.772  30.650  12.013
70336W        W31625  17.090  32.017   0.346
70337W        W31626  19.244  37.877  13.348
70338W        W31627   1.461  38.060  12.846
70339W        W31628  14.592   4.362   4.668
70340W        W31629   9.813  30.960   5.280
70341W        W31630  34.873   2.393  11.012
70342W        W31631  28.937  23.522   4.688
70343W        W31632  39.458  20.557   4.640
70344W        W31633  16.730   0.282   2.301
70345W        W31634  22.574  44.878   3.190
70346W        W31635  38.833  32.535  11.940
70347W        W31636   1.772  30.012  14.420
70348W        W31637  43.316  36.067   4.633
70349W        W31638  26.524  29.131  14.910
70350W        W31639  27.656   8.721  13.955
70351W        W31640  24.669  34.090  13.868
70352W        W31641  13.802  34.986  14.887
70353W        W31642  22.634  36.075   0.907
70354W        W31643   9.812  43.290  11.921
70355W        W31644  41.325  44.426   4.708
70356W        W31645   3.884   5.843   3.268
70357W        W31646  23.056   0.425   1.719
70358W        W31647  22.054   6.783   1.850
70359W        W31648  27.662   1.958   0.883
70360W        W31649  16.141  24.003   3.723
70361W        W31650  23.015  37.021   4.334
70362W        W31651  20.213  11.727   2.689
70363W        W31652  32.040  31.579   0.260
70364W        W31653  28.044   6.318   2.206
70365W        W31654   2.264  43.296   3.330
70366W        W31655   9.282  16.632   3.825
70367W        W31656   0.466   4.854  10.534
70368W        W31657   7.757  12.649  14.514
70369W        W31658  41.044  20.735  13.519
70370W        W31659  36.094  19.140   2.902
70371W        W31660  27.576  40.509  14.956
70372W        W31661  42.813  36.462   4.275
70373W        W31662   0.963  37.886   2.208
70374W        W31663   8.742  19.773  14.357
70375W        W31664  19.674  43.964  11.043
70376W        W31665  44.502   3.721  13.496
70377W        W31666  43.511  20.674  14.960
70378W        W31667  32.993   0.856   2.850
70379W        W31668  44.955  27.606  14.291
70380W        W31669  20.088  35.604  11.500
70381W        W31670   9.345  31.905   4.189
70382W        W31671   9.390   8.786  13.828
70383W        W31672  41.832  10.272   1.933
70384W        W31673  37.928  19.590   0.788
70385W        W31674  41.828  10.707   0.311
70386W        W31675  44.300  27.182   0.779
70387W        W31676  19.261   9.358   4.319
70388W        W31677  40.814   7.860  12.834
70389W        W31678  25.680   4.910  12.840
70390W        W31679  39.923  26.676   0.331
70391W        W31680  25.157  15.224  10.554
70392W        W31681   1.813  12.639  11.974
70393W        W31682  30.101   9.850  12.474
70394W        W31683  31.522  11.824  13.893
70395W        W31684  39.376  26.660   4.197
70396W        W31685  28.964  20.049  14.348
70397W        W31686  28.597  43.927   1.722
70398W        W31687  12.696  27.137   1.407
70399W        W31688  18.142  40.332   4.709
70400W        W31689  41.352   8.848   4.119
70401W        W31690  38.039  15.595  12.508
70402W        W31691  29.463  37.403  12.879
70403W        W31692  42.331  30.590   4.642
70404W        W31693  39.948  39.380  12.403
70405W        W31694  30.115  33.400   4.675
70406W        W31695  39.393  40.996   3.811
70407W        W31696  22.017  31.131   3.292
70408W        W31697  21.192   3.720   0.734
70409W        W31698  24.555  10.870   1.884
70410W        W31699  13.738   5.227   3.365
70411W        W31700  16.282  18.613   1.792
70412W        W31701  14.309  19.780   4.194
70413W        W31702  27.649  36.414   1.871
70414W        W31703   1.756   9.843   4.660
70415W        W31704  39.370   6.378  10.952
70416W        W31705  15.662  24.484  11.531
70417W        W31706  11.228  22.612  12.859
70418W        W31707  21.548   0.359   4.333
70419W        W31708  34.000   7.318  14.302
70420W        W31709  30.426   1.887   2.703
70421W        W31710  25.636  34.094   0.465
70422W        W31711  32.904  41.298  10.535
70423W        W31712  38.907  40.967   1.316
70424W        W31713   1.356  19.283   3.853
70425W        W31714   9.364  10.748   4.113
70426W        W31715  29.468  43.915   1.408
70427W        W31716  38.068  32.449  12.422
70428W        W31717  12.652  34.523   3.215
70429W        W31718  33.114  20.258   2.876
70430W        W31719  40.010  28.671  13.958
70431W        W31720  41.966  43.380   4.315
70432W        W31721  15.142  29.938  14.314
70433W        W31722   3.291  35.450   3.238
70434W        W31723  21.019  28.963   4.601
70435W        W31724  33.476   9.294   3.824
70436W        W31725  29.444   6.735   0.769
70437W        W31726  33.422   9.769  14.961
70438W        W31727  41.013  34.605   2.736
70439W        W31728   4.857  20.615  11.535
70440W        W31729  40.503  12.253  10.490
70441W        W31730  41.333   4.803  14.510
70442W        W31731  19.688  44.918   1.273
70443W        W31732  24.615   1.887   2.226
70444W        W31733   5.410  35.948   2.304
70445W        W31734  39.969  14.723   0.275
70446W        W31735  43.481  12.696   3.777
70447W        W31736  41.417  39.854  14.286
70448W        W31737  20.740  27.029   2.244
70449W        W31738  38.345  30.504  14.877
70450W        W31739  29.084   4.796  13.898
70451W        W31740  27.197  22.524  14.922
70452W        W31741  39.995  28.092  11.480
70453W        W31742  14.738  43.788  12.072
70454W        W31743  24.524  28.607   4.191
70455W        W31744  17.119   0.435  10.135
70456W        W31745  13.202   6.369   3.750
70457W        W31746  12.622  43.809  13.964
70458W        W31747  12.210   4.412   0.964
70459W        W31748  39.490  43.822   2.740
70460W        W31749   7.782  21.031  13.017
70461W        W31750  43.498   1.827  11.475
70462W        W31751  10.743  28.085  12.342
70463W        W31752  30.625  30.940  13.899
70464W        W31753  14.809  43.806   9.995
70465W        W31754  30.642   5.297   2.744
70466W        W31755  42.405  28.977  11.531
70467W        W31756   5.331   9.223   2.897
70468W        W31757   8.746  15.113  14.824
70469W        W31758   8.728  21.549  11.061
70470W        W31759  15.804  43.445   2.383
70471W        W31760  24.573   4.378   4.178
70472W        W31761  44.390  18.257  10.067
70473W        W31762   0.964  25.999  14.031
70474W        W31763  22.702   0.744   3.305
70475W        W31764  18.222  22.067   0.264
70476W        W31765   8.823  19.540  13.019
70477W        W31766  12.695  10.325  11.986
70478W        W31767  27.107  25.082  14.872
70479W        W31768  44.483  20.230  11.491
70480W        W31769  40.394  24.508   2.842
70481W        W31770  23.553  43.421   2.231
70482W        W31771  24.085  32.072   1.258
70483W        W31772  38.484  16.692  11.043
70484W        W31773  35.445   1.312  13.309
70485W        W31774  26.657   3.952   3.812
70486W        W31775  37.061  38.006  14.453
70487W        W31776  23.022  19.057   3.268
70488W        W31777  44.345   3.348   5.313
70489W        W31778  30.120   9.761  14.773
70490W        W31779  23.099   0.874   2.674
70491W        W31780  27.561  39.891   2.814
70492W        W31781  19.617  26.541   2.885
70493W        W31782  25.565   7.407   0.784
70494W        W31783  39.513   3.764   1.263
70495W        W31784  32.111  10.734   3.703
70496W        W31785  15.275  37.391   3.165
70497W        W31786  37.487  31.617  13.872
70498W        W31787   1.888  23.543  13.932
70499W        W31788  41.292  31.636  12.839
70500W        W31789  14.244  29.087  13.335
70501W        W31790  24.638  42.892  14.006
70502W        W31791  19.753  37.489  13.003
70503W        W31792   4.419  30.066  12.911
70504W        W31793  24.512  14.815   4.642
70505W        W31794  23.168   6.266  12.908
70506W        W31795  37.525  16.259  11.480
70507W        W31796  34.477  21.748  11.913
70508W        W31797  17.144   0.828   0.245
70509W        W31798  21.139  34.003  11.528
70510W        W31799  32.511  32.896  10.899
70511W        W31800  44.954  10.215  10.500
70512W        W31801  30.947  31.640   3.730
70513W        W31802   1.389  17.593   2.213
70514W        W31803  29.426  25.693  13.373
70515W        W31804  23.004  41.394  11.592
70516W        W31805  42.812   3.344  14.494
70517W        W31806  12.686  34.553   0.261
70518W        W31807  18.678  14.748   1.263
70519W        W31808  22.125  40.358   2.290
70520W        W31809  17.656  21.544   0.869
70521W        W31810  30.588  21.046   4.740
70522W        W31811   7.760  29.985  12.426
70523W        W31812  41.466  42.976  11.924
70524W        W31813  27.536  38.930   2.262
70525W        W31814  27.161   3.883   3.342
70526W        W31815  17.087  35.382   5.296
70527W        W31816   8.262   9.810  14.905
70528W        W31817  33.062   7.411   1.309
70529W        W31818  20.594  44.273   4.291
70530W        W31819  10.172  30.084  13.816
70531W        W31820  14.725  26.696  11.925
70532W        W31821  26.999  37.871  14.969
70533W        W31822   5.898  11.751   1.894
70534W        W31823  41.021  25.987  14.009
70535W        W31824   6.701  36.407  12.376
70536W        W31825  38.906  10.326  13.909
70537W        W31826   5.420  10.808   0.829
70538W        W31827  26.016   9.682   3.634
70539W        W31828   9.206  19.115  12.402
70540W        W31829  35.485  43.907  13.523
70541W        W31830  32.429  32.637  10.904
70542W        W31831  15.249   6.895  12.478
70543W        W31832  43.423   7.188  11.955
70544W        W31833  14.185  22.522  13.368
70545W        W31834  33.410  29.572   2.687
70546W        W31835  19.196  11.152   0.870
70547W        W31836   9.169   2.867  14.923
70548W        W31837  16.240   9.861   4.611
70549W        W31838  20.267   4.840   5.237
70550W        W31839   7.240  25.125   1.879
70551W        W31840  11.805  41.007   2.807
70552W        W31841  12.315  15.089   3.679
70553W        W31842  24.521   0.461  11.050
70554W        W31843  39.863  23.721   3.737
70555W        W31844  23.579  34.098   4.140
70556W        W31845  13.647  42.398   3.183
70557W        W31846  36.582   3.397   2.686
70558W        W31847  15.766  33.503  12.907
70559W        W31848   3.289  42.372  14.451
70560W        W31849  27.688  17.126   1.249
70561W        W31850  30.451  36.857  12.048
70562W        W31851  33.517  36.963  10.158
70563W        W31852  23.606   6.841  10.477
70564W        W31853  28.092  21.145  13.922
70565W        W31854  20.122   7.679   0.861
70566W        W31855  43.866   2.355   4.295
70567W        W31856  41.805   9.346  14.870
70568W        W31857  26.980  38.369   0.799
70569W        W31858  39.056  27.494  14.811
70570W        W31859  17.625  35.491  14.467
70571W        W31860  15.730  39.406   3.329
70572W        W31861  16.581  18.732   2.287
70573W        W31862  26.643   7.749  14.978
70574W        W31863  38.995   0.812  14.952
70575W        W31864  27.042  21.546   4.348
70576W        W31865  34.505   3.762   3.686
70577W        W31866  37.426  12.846   2.320
70578W        W31867  16.143  26.532   1.330
70579W        W31868  37.380   0.748   2.683
70580W        W31869  14.661   4.293   0.927
70581W        W31870  15.297  38.843   1.748
70582W        W31871   7.800  39.513  13.349
70583W        W31872  37.968  42.306   1.235
70584W        W31873  33.131  22.519  13.541
70585W        W31874  14.633  30.060  11.124
70586W        W31875  34.929  17.700   2.756
70587W        W31876  39.462  15.136  10.899
70588W        W31877   6.863  17.583   0.863
70589W        W31878  26.546  37.488   4.294
70590W        W31879  41.902   2.903   3.327
70591W        W31880   5.313  14.684  11.412
70592W        W31881  13.754  32.435   5.579
70593W        W31882  21.550  27.014  13.052
70594W        W31883  28.502  16.205  14.291
70595W        W31884  21.026  44.473  11.475
70596W        W31885  30.498  43.873   3.738
70597W        W31886   6.919   9.738  12.846
70598W        W31887  28.461  12.220  11.069
70599W        W31888   2.349  14.752   4.771
70600W        W31889   0.749  21.260   5.184
70601W        W31890  44.967  21.601  13.504
70602W        W31891  17.588   3.226   1.275
70603W        W31892  28.052  12.218  12.432
70604W        W31893   9.669   5.314   1.360
70605W        W31894   4.225  18.231  12.526
70606W        W31895  39.455  21.669  14.917
70607W        W31896  39.963  14.188   1.293
70608W        W31897  25.667  22.554   1.300
70609W        W31898  13.612  29.469   1.225
70610W        W31899  19.281  37.538  14.315
70611W        W31900  23.106  27.551   1.326
70612W        W31901   4.297   1.760  12.835
70613W        W31902   1.839  23.001  13.352
70614W        W31903  14.317   2.799  13.309
70615W        W31904   4.723  11.643  14.296
70616W        W31905  22.656   7.697   3.210
70617W        W31906   3.820  41.391   3.265
70618W        W31907  37.025  32.049   2.381
70619W        W31908  30.595  17.070  11.470
70620W        W31909  41.407  17.247   2.216
70621W        W31910  20.602   8.664  12.932
70622W        W31911   1.376  10.339   4.732
70623W        W31912  23.035  11.138   0.473
70624W        W31913  36.396  16.643  14.969
70625W        W31914  25.583  13.345  14.794
70626W        W31915  37.530  30.091  11.588
70627W        W31916  43.851  42.862  12.824
70628W        W31917  32.625   9.254   2.344
70629W        W31918   7.682   0.361  14.030
70630W        W31919  15.271   3.852  11.085
70631W        W31920  11.641  30.131   2.767
70632W        W31921   6.198  34.558  12.848
70633W        W31922   2.337  22.034  10.939
70634W        W31923  27.149  28.981   0.351
70635W        W31924  37.058   7.856   3.679
70636W        W31925  29.636   4.832  12.895
70637W        W31926  31.030   0.379  10.507
70638W        W31927   8.225   3.460  10.549
70639W        W31928  26.499  38.964  12.448
70640W        W31929  38.033  17.191  12.001
70641W        W31930   0.854  14.705  13.412
70642W        W31931   5.324   7.742   4.233
70643W        W31932  32.959  16.199   1.769
70644W        W31933  16.689  38.041   2.853
70645W        W31934   7.196  19.612  12.523
70646W        W31935  14.746  28.087   3.783
70647W        W31936  26.667  44.972  13.008
70648W        W31937  44.362  35.060   2.786
70649W        W31938  18.099  26.594   1.385
70650W        W31939  22.575  18.717   0.471
70651W        W31940  34.383  14.592  12.499
70652W        W31941  43.426  31.619   2.349
70653W        W31942   5.804   4.394  12.495
70654W        W31943  37.428  25.996   4.639
70655W        W31944  35.026  31.918  14.793
70656W        W31945  16.237  39.952   2.867
70657W        W31946  11.263  24.659   1.855
70658W        W31947   5.790  42.968  13.889
70659W        W31948  10.869   8.285   4.610
70660W        W31949  38.418  24.123   4.762
70661W        W31950  12.251   2.314   5.302
70662W        W31951  23.075  10.724  12.093
70663W        W31952  43.787  37.531  10.617
70664W        W31953  36.922  15.197   1.848
70665W        W31954  19.100  32.978   4.613
70666W        W31955  19.700  11.696  11.377
70667W        W31956   4.379   8.816  11.564
70668W        W31957  43.819  35.058  13.400
70669W        W31958  31.532   4.788   2.218
70670W        W31959  27.164  35.973   3.276
70671W        W31960  13.110   6.402  14.823
70672W        W31961  35.079  35.055   0.966
70673W        W31962  31.500  28.027  10.418
70674W        W31963  24.073  36.922   1.774
70675W        W31964  20.723  33.051   0.277
70676W        W31965  33.945  39.323   1.869
70677W        W31966   5.241  32.937   1.818
70678W        W31967  18.169  30.938  10.560
70679W        W31968   1.410  31.474  13.960
70680W        W31969   8.303  43.862  12.868
70681W        W31970  22.561  40.003   3.825
70682W        W31971  18.081  39.020  11.896
70683W        W31972   5.860  28.973   4.783
70684W        W31973   0.968  39.912   0.290
70685W        W31974  42.469  42.340   4.697
70686W        W31975  12.144  22.098  13.855
70687W        W31976  34.944  37.087  12.979
70688W        W31977  17.235  35.025   4.349
70689W        W31978  43.011  38.063   2.245
70690W        W31979  30.162  32.417  11.088
70691W        W31980  43.016  11.318   0.947
70692W        W31981   5.393  44.259   0.948
70693W        W31982   1.327  37.899   1.341
70694W        W31983  21.544   5.884   0.404
70695W        W31984  35.093  36.961  14.782
70696W        W31985  44.313  36.407   1.442
70697W        W31986  41.405  42.992   0.351
70698W        W31987  10.827  38.554   0.946
70699W        W31988  20.169  22.040  13.878
70700W        W31989   5.403  38.850   4.332
70701W        W31990  32.057   7.821  10.484
70702W        W31991  34.059  18.749   4.301
70703W        W31992  39.367   1.459   2.877
70704W        W31993   4.882  39.021   4.323
70705W        W31994   6.340   1.791  11.575
70706W        W31995  31.404   3.390  12.550
70707W        W31996   5.890  44.926   1.834
70708W        W31997  40.315  15.292  11.441
70709W        W31998   2.929   5.430  11.533
70710W        W31999   4.883  17.112  10.486
70711W        W32000   9.687  23.712   2.695
70712W        W32001  33.050  32.482   1.894
70713W        W32002   5.330  11.804  12.076
70714W        W32003  28.139  40.519  12.445
70715W        W32004  15.326  40.376  11.069
70716W        W32005  34.033  34.593  10.493
70717W        W32006  13.605  22.616  14.773
70718W        W32007  24.724  18.133   1.737
70719W        W32008  43.320  17.598   4.202
70720W        W32009  14.609  23.077   1.211
70721W        W32010  36.575   6.747  11.496
70722W        W32011  32.446   3.261   2.272
70723W        W32012   0.769   2.871  11.023
70724W        W32013  27.193  27.509   1.915
70725W        W32014  21.625  42.360  10.641
70726W        W32015  25.593  33.441  10.914
70727W        W32016   1.864  31.041   2.900
70728W        W32017  36.388  16.078   3.785
70729W        W32018   0.854  22.035   4.838
70730W        W32019  42.464  17.089  12.825
70731W        W32020  21.215  16.183  14.508
70732W        W32021   5.817  19.645  14.338
70733W        W32022  17.251  36.947   4.269
70734W        W32023  22.075  15.665  11.432
70735W        W32024  38.385  38.910   2.310
70736W        W32025   0.456  27.489   2.736
70737W        W32026   9.173  36.063   1.221
70738W        W32027  16.298  13.297   1.233
70739W        W32028  12.851   8.829  13.429
70740W        W32029   5.716  41.346  12.488
70741W        W32030  21.662  35.930   1.231
70742W        W32031  13.279   8.191   3.264
70743W        W32032   4.751   2.232   0.791
70744W        W32033  10.814  18.282   0.470
70745W        W32034   8.681  11.295   0.411
70746W        W32035   7.760  36.005  12.490
70747W        W32036  20.628  39.465   1.337
70748W        W32037   8.345  30.643  10.631
70749W        W32038  42.497  38.340   1.852
70750W        W32039  12.171  25.987  12.014
70751W        W32040  34.437  14.746   3.228
70752W        W32041  38.860  43.896  14.416
70753W        W32042  27.036  26.587  14.460
70754W        W32043   0.356  11.685  13.865
70755W        W32044   3.794  18.060   1.362
70756W        W32045  38.445   8.834   4.606
70757W        W32046  20.706   7.295  14.416
70758W        W32047   3.750   7.861  12.886
70759W        W32048  19.775   1.361  14.883
70760W        W32049   7.845  18.231  14.339
70761W        W32050  24.040  26.623  14.412
70762W        W32051  43.945  36.040  11.503
70763W        W32052   9.684  17.617  12.832
70764W        W32053  18.278  43.912   4.120
70765W        W32054  21.050  10.296   0.277
70766W        W32055  17.761  38.952  12.431
70767W        W32056   5.278   8.339   1.764
70768W        W32057   6.855  16.791   1.751
70769W        W32058  10.845  21.254   0.379
70770W        W32059   9.304  13.793  12.882
70771W        W32060  40.418  37.536   0.889
70772W        W32061  39.407   9.390   2.875
70773W        W32062  15.601  38.512   3.762
70774W        W32063  36.349  31.444  12.513
70775W        W32064  32.076  30.103   0.309
70776W        W32065  16.622  24.510   2.192
70777W        W32066  18.230  28.026   0.878
70778W        W32067  15.311  10.361  12.536
70779W        W32068  17.631   4.843  10.464
70780W        W32069   7.903  29.512   0.483
70781W        W32070   2.434  23.506  14.462
70782W        W32071  17.126   0.872  13.910
70783W        W32072  27.189  36.068  13.418
70784W        W32073  40.870  44.789  13.499
70785W        W32074  38.535  16.628  11.583
70786W        W32075  21.729   0.460   3.326
70787W        W32076   9.669  18.218  12.556
70788W        W32077  21.196   7.339   4.723
70789W        W32078   9.341  22.617  10.086
70790W        W32079  32.436  23.140   0.809
70791W        W32080  41.491  12.828  13.819
70792W        W32081  27.063   4.699  14.946
70793W        W32082  39.973  34.448   3.734
70794W        W32083   7.211  39.440   1.412
70795W        W32084  22.545  42.032   2.186
70796W        W32085  27.503  28.527   2.394
70797W        W32086  19.280   5.843   3.331
70798W        W32087  32.418  10.803  10.578
70799W        W32088   4.400  40.514  13.910
70800W        W32089  22.056   0.482   2.810
70801W        W32090  17.561   7.733   4.252
70802W        W32091  42.852   0.427  14.403
70803W        W32092  15.230  32.617   1.855
70804W        W32093  31.406  36.990   1.388
70805W        W32094  19.253  25.193   0.431
70806W        W32095  33.062   0.459  10.468
70807W        W32096  17.575  31.927   0.379
70808W        W32097  38.946  14.713  10.977
70809W        W32098  24.547  13.653  14.449
70810W        W32099  44.768  32.564  10.588
70811W        W32100  21.753   3.454   1.883
70812W        W32101  22.048  27.627   4.651
70813W        W32102   9.235  22.578   1.416
70814W        W32103  11.127  23.574   1.842
70815W        W32104   8.871  21.702  14.412
70816W        W32105  19.563  15.811   3.342
70817W        W32106   2.283  36.499   3.255
70818W        W32107  11.755  35.884  10.132
70819W        W32108  12.738  21.093  13.498
70820W        W32109  29.528  41.995  13.854
70821W        W32110  20.254  29.477   4.627
70822W        W32111  34.507  44.339   4.734
70823W        W32112   7.836   4.284   0.282
70824W        W32113  21.595   0.806   0.823
70825W        W32114  22.543  25.615  11.579
70826W        W32115   4.722   8.857  14.438
70827W        W32116  29.054  42.440   1.213
70828W        W32117  22.674  39.874  12.548
70829W        W32118  35.444  30.950   0.935
70830W        W32119  21.215  42.314  11.522
70831W        W32120  21.713   2.342   1.313
70832W        W32121   5.366  15.298  11.057
70833W        W32122  12.271   4.812  13.527
70834W        W32123  20.165  15.689   1.718
70835W        W32124   9.871  30.050   5.148
70836W        W32125  43.802  21.726   4.337
70837W        W32126  19.144  36.353   2.884
70838W        W32127   3.273  20.606  11.914
70839W        W32128  28.674  44.498  13.804
70840W        W32129  42.335  32.552   3.836
70841W        W32130  35.959   8.244  12.513
70842W        W32131  10.165  44.305  12.901
70843W        W32132  29.072  31.406  13.939
70844W        W32133  38.967   3.387  14.423
70845W        W32134  13.790  18.179  12.415
70846W        W32135   2.283  20.155   3.791
70847W        W32136  14.672   0.760   4.262
70848W        W32137  10.821   8.799  14.881
70849W        W32138  32.949   7.208  13.914
70850W        W32139  17.093  34.963  12.041
70851W        W32140  32.077   3.235  12.853
70852W        W32141   2.935   9.165  13.528
70853W        W32142  31.152  42.286   0.431
70854W        W32143  33.471  35.484   0.482
70855W        W32144  42.484  10.789   3.284
70856W        W32145  25.131   9.740   3.165
70857W        W32146  34.447  11.717   4.672
70858W        W32147  35.470  17.282   0.331
70859W        W32148  27.500  12.243   1.382
70860W        W32149  35.973  20.645  10.616
70861W        W32150  39.958  22.720  11.540
70862W        W32151   0.965  34.500   5.170
70863W        W32152  38.451  42.979   2.872
70864W        W32153  22.724   5.883  14.932
70865W        W32154  30.121   1.822  13.791
70866W        W32155   2.287  38.032  11.401
70867W        W32156   0.483  38.025  14.796
70868W        W32157  15.238   6.203   3.231
70869W        W32158   3.852   3.757  10.976
70870W        W32159  12.207  29.010  12.935
70871W        W32160  10.259  22.078   4.171
70872W        W32161  29.522  43.300   2.698
70873W        W32162  22.091  28.473  14.813
70874W        W32163  14.610   6.875   2.337
70875W        W32164  38.499  22.043   2.833
70876W        W32165  40.412  36.985   3.741
70877W        W32166   0.777  31.538  12.910
70878W        W32167   9.698  19.124   0.875
70879W        W32168   4.887   1.360   4.740
70880W        W32169  41.814   3.341  13.423
70881W        W32170  32.141  34.973  12.501
70882W        W32171   8.325   6.828  13.329
70883W        W32172   6.741  12.301   1.730
70884W        W32173  31.058   4.778   1.714
70885W        W32174  24.593  13.649  12.570
70886W        W32175   4.752  37.478  10.916
70887W        W32176  19.167  26.571   3.193
70888W        W32177   4.744  25.195   9.540
70889W        W32178  21.178  10.190   1.360
70890W        W32179   5.333  19.227   4.782
70891W        W32180  31.538  14.176   4.268
70892W        W32181   1.445  15.686  11.936
70893W        W32182   8.723  29.097  10.529
70894W        W32183   5.325  13.733  11.606
70895W        W32184  41.930  34.950   3.704
70896W        W32185  23.132   5.335  14.319
70897W        W32186  44.473  24.553  12.859
70898W        W32187  21.169   4.722   1.696
70899W        W32188  10.164  18.119   4.215
70900W        W32189  17.281  40.033  12.530
70901W        W32190  13.646  32.509   9.980
70902W        W32191  30.621  34.075   2.684
70903W        W32192   2.247  21.153  14.476
70904W        W32193  25.212  31.970  13.479
70905W        W32194  29.611   5.276  13.995
70906W        W32195   5.369  15.805  11.011
70907W        W32196  10.823  11.659   3.644
70908W        W32197  29.960   1.301  14.499
70909W        W32198  28.147  23.199   3.367
70910W        W32199   0.371  40.539  11.883
70911W        W32200  21.731  27.496   2.218
70912W        W32201  39.469  11.244   1.316
70913W        W32202  21.126   0.868   1.329
70914W        W32203  19.648  43.365   0.247
70915W        W32204  38.358  11.326  14.348
70916W        W32205  17.074   9.385  12.982
70917W        W32206  34.020  28.932  14.298
70918W        W32207   8.178  20.250   1.216
70919W        W32208   9.295  14.280  13.903
70920W        W32209  27.085  34.477   1.843
70921W        W32210  24.140  14.298   4.147
70922W        W32211  32.063   7.243  12.089
70923W        W32212  32.983  33.982   2.843
70924W        W32213   6.691  34.922   1.767
70925W        W32214   4.279   7.365  11.934
70926W        W32215  21.170  37.498  11.121
70927W        W32216  19.634  23.175  13.040
70928W        W32217  17.601  20.756   9.502
70929W        W32218  43.509   1.254   4.300
70930W        W32219   9.881  40.535  13.923
70931W        W32220  39.940  42.351   4.823
70932W        W32221  27.962  30.449   1.787
70933W        W32222   8.835  27.988   4.780
70934W        W32223  35.369   7.193  11.453
70935W        W32224   7.707  13.230   0.470
70936W        W32225  21.167  44.766  11.929
70937W        W32226  23.656  38.033  11.598
70938W        W32227  22.523   9.280  11.584
70939W        W32228   8.192  30.601   2.811
70940W        W32229   9.324  29.052   1.910
70941W        W32230  10.813  19.692  13.527
70942W        W32231  16.738   0.304  13.851
70943W        W32232  28.476  17.656  13.954
70944W        W32233  39.417  12.325  14.837
70945W        W32234   2.357  14.187   3.721
70946W        W32235   1.966  23.557  12.538
70947W        W32236  15.202   3.275   4.724
70948W        W32237  22.703  24.074  12.004
70949W        W32238  21.090  16.625   3.722
70950W        W32239  33.518  14.691   1.309
70951W        W32240  41.411   5.696  14.004
70952W        W32241  18.773  44.370   3.201
70953W        W32242  35.986   1.308  11.124
70954W        W32243   4.231   7.218   0.815
70955W        W32244  34.101  15.740   0.815
70956W        W32245   2.238   6.221   4.281
70957W        W32246  30.999  39.983  11.598
70958W        W32247  38.910  42.998  12.010
70959W        W32248  28.968   7.830   4.731
70960W        W32249  35.452  21.618   1.750
70961W        W32250  32.068  29.453   2.885
70962W        W32251  43.781  11.285  13.847
70963W        W32252   8.852   4.811   4.645
70964W        W32253  34.989  12.848   0.853
70965W        W32254  37.335   2.270   2.763
70966W        W32255  19.712  21.255   4.313
70967W        W32256  44.482  27.673  10.006
70968W        W32257  22.680   7.284   0.731
70969W        W32258   0.437  24.162  10.507
70970W        W32259  38.565  33.541  11.023
70971W        W32260   2.827  41.415   3.196
70972W        W32261  31.925  19.601   2.297
70973W        W32262  16.076  42.408   1.410
70974W        W32263  30.099  43.471   4.715
70975W        W32264   0.371  34.081  11.434
70976W        W32265  32.132  37.371   2.766
70977W        W32266   3.727   6.355  13.403
70978W        W32267  43.778   5.207  10.618
70979W        W32268  14.283  10.751  13.841
70980W        W32269  10.791   2.328  11.122
70981W        W32270  28.075   5.706  10.915
70982W        W32271  27.038   2.239  12.053
70983W        W32272   9.150  11.854  13.530
70984W        W32273  27.978  26.696  10.994
70985W        W32274  32.058   8.892  10.557
70986W        W32275  21.624  25.121   3.178
70987W        W32276  42.941  11.372  13.547
70988W        W32277   5.800  38.492  14.021
70989W        W32278  10.796  31.587   3.651
70990W        W32279  31.932   9.354   1.304
70991W        W32280  24.687  10.334  10.016
70992W        W32281  31.149  35.546   1.926
70993W        W32282  32.138  17.307   1.794
70994W        W32283  43.321  35.421  13.318
70995W        W32284  38.393  20.083  14.919
70996W        W32285  30.649  35.922   3.329
70997W        W32286  26.109  21.147   3.270
70998W        W32287  13.704  42.296  11.499
70999W        W32288  39.064  12.819  10.422
71000W        W32289  24.987  39.854   0.323
71001W        W32290   7.205  31.545   3.662
71002W        W32291  19.138  21.747   2.208
71003W        W32292  24.564   2.277  13.334
71004W        W32293  36.397  36.478   0.847
71005W        W32294  27.198  40.329   3.657
71006W        W32295  37.415   4.909  13.984
71007W        W32296  18.613  37.522   5.312
71008W        W32297  17.259  11.135  10.493
71009W        W32298   0.252  20.253  14.844
71010W        W32299   9.314  22.222  14.895
71011W        W32300  16.756  22.155  14.349
71012W        W32301   9.793  18.791   3.186
71013W        W32302  20.584  35.364   4.720
71014W        W32303  26.478  36.942  14.447
71015W        W32304   5.772  33.935  13.424
71016W        W32305  23.045  34.563  12.441
71017W        W32306  14.789   8.281   2.333
71018W        W32307  44.932  25.193   3.696
71019W        W32308  27.498  42.410  14.422
71020W        W32309  38.822   5.238  12.493
71021W        W32310  29.059  11.762  10.076
71022W        W32311  41.305  23.622   3.380
71023W        W32312  26.000  11.639   3.861
71024W        W32313  24.144  39.993   3.761
71025W        W32314  44.325  44.898  11.612
71026W        W32315   7.395  22.211   1.851
71027W        W32316  27.082  40.328   1.401
71028W        W32317  15.275  12.335   4.630
71029W        W32318  27.144  37.949  10.611
71030W        W32319  32.997   5.931  13.930
71031W        W32320   1.936   4.261  10.903
71032W        W32321  39.868  40.012  12.400
71033W        W32322   7.394   6.283   0.324
71034W        W32323  29.161  33.004  12.891
71035W        W32324  11.787  35.566  14.968
71036W        W32325   7.712  13.643  14.509
71037W        W32326   4.390   0.293   2.359
71038W        W32327  37.947  37.958   4.735
71039W        W32328  27.180   2.737   1.905
71040W        W32329  40.904  36.944  10.459
71041W        W32330  32.624   4.443   3.858
71042W        W32331  40.869  27.993  12.499
71043W        W32332   6.321  39.425  11.439
71044W        W32333  18.611   2.330  12.891
71045W        W32334   1.905   6.414  11.100
71046W        W32335  31.466  30.097   4.756
71047W        W32336  34.405  34.890   2.406
71048W        W32337  20.766  28.039   4.727
71049W        W32338   3.782  31.906  13.477
71050W        W32339  25.639   4.320   2.731
71051W        W32340   2.822  10.792  12.073
71052W        W32341  23.028  20.752  12.882
71053W        W32342  25.687  21.149  10.440
71054W        W32343   3.368  15.776   2.767
71055W        W32344  34.491  29.489  14.861
71056W        W32345  27.585  44.393   4.160
71057W        W32346  18.211   2.882  14.994
71058W        W32347  30.480  32.137   4.752
71059W        W32348  38.343  14.127  13.371
71060W        W32349  39.338  32.051   4.289
71061W        W32350  18.654  11.654  13.396
71062W        W32351  11.267  27.106  12.094
71063W        W32352  23.130  38.832  13.420
71064W        W32353   9.322  26.042  12.914
71065W        W32354  32.575  27.491  10.527
71066W        W32355   9.324  11.713   4.824
71067W        W32356  15.623  23.126  11.903
71068W        W32357  37.852  19.096   1.702
71069W        W32358  16.570  15.758  10.619
71070W        W32359  40.885   9.803   1.738
71071W        W32360  40.386  36.073  11.543
71072W        W32361   4.298  18.192  11.543
71073W        W32362  13.619  20.717   0.896
71074W        W32363  21.567  43.478   1.868
71075W        W32364  33.027  15.748  11.609
71076W        W32365  19.553  31.131   1.902
71077W        W32366  43.443   7.394   4.665
71078W        W32367   1.422  39.519   3.356
71079W        W32368  35.403  18.565   4.349
71080W        W32369  21.201  26.552  12.523
71081W        W32370  14.305  20.678  12.053
71082W        W32371  42.810  38.824  13.866
71083W        W32372   8.301  42.913   4.786
71084W        W32373  24.043  31.422  10.904
71085W        W32374  25.523  35.018   4.339
71086W        W32375   9.737  44.499  12.966
71087W        W32376  36.593  10.686   0.922
71088W        W32377  30.526  43.976   3.310
71089W        W32378  17.159   1.837   2.691
71090W        W32379  36.023  29.474  12.897
71091W        W32380  33.506  43.927   4.211
71092W        W32381  21.641  30.968   4.149
71093W        W32382  30.929  36.536  12.018
71094W        W32383  27.175  11.646  11.059
71095W        W32384  15.721   0.491   3.293
71096W        W32385  34.112  17.742  10.520
71097W        W32386  27.506  14.638  13.317
71098W        W32387  44.261  20.587   0.789
71099W        W32388  15.810  26.630  14.477
71100W        W32389  42.825  44.478  11.023
71101W        W32390  37.474  36.935   3.869
71102W        W32391  23.673  33.474  11.543
71103W        W32392  11.853   1.793  13.873
71104W        W32393  42.794  39.865  11.468
71105W        W32394  36.472  31.051   2.357
71106W        W32395  39.899  27.630   3.319
71107W        W32396  17.724  32.051  14.411
71108W        W32397  11.183   2.738   2.772
71109W        W32398  35.021  21.151  10.012
71110W        W32399  29.962   7.754   0.314
71111W        W32400  12.642  17.609   3.830
71112W        W32401  42.430  26.615   0.472
71113W        W32402   8.374  35.975  11.573
71114W        W32403  31.601  18.760  11.465
71115W        W32404  37.948   1.797   4.117
71116W        W32405  10.243  20.620  12.915
71117W        W32406  30.078  11.857   3.160
71118W        W32407  12.851   0.915   2.228
71119W        W32408  43.890  33.970   0.313
71120W        W32409  19.713  13.655   4.221
71121W        W32410   5.235  16.247   1.771
71122W        W32411   9.704  34.446   1.260
71123W        W32412  43.768  14.775   2.741
71124W        W32413  11.653  24.588  12.421
71125W        W32414  44.406   3.922  12.864
71126W        W32415  20.238  39.534   1.814
71127W        W32416  41.517  13.253  11.883
71128W        W32417   6.374  20.255   2.849
71129W        W32418  21.239  20.043  11.885
71130W        W32419  34.958  43.403  11.490
71131W        W32420  29.547  42.918   2.736
71132W        W32421  18.095  34.522   1.819
71133W        W32422  22.737  30.129  12.548
71134W        W32423  22.532  31.977   3.696
71135W        W32424   2.453  31.600  11.512
71136W        W32425   8.306   5.274  10.614
71137W        W32426   1.437  30.454   0.343
71138W        W32427   6.311  22.594   4.724
71139W        W32428  33.617  32.136   4.597
71140W        W32429  36.948  17.112  12.923
71141W        W32430  36.046  27.951   2.891
71142W        W32431   1.476  33.991   1.895
71143W        W32432  41.464  20.643   1.712
71144W        W32433  36.425  41.868   4.722
71145W        W32434  12.826  32.952  13.386
71146W        W32435  44.455   3.276  14.832
71147W        W32436  36.485   9.825  13.422
71148W        W32437   1.312  31.010   3.343
71149W        W32438  44.403  15.616   2.856
71150W        W32439  14.660  25.571   3.343
71151W        W32440  44.382  15.781  14.511
71152W        W32441  42.901  43.862   3.177
71153W        W32442  11.722  41.862  10.042
71154W        W32443   2.443   7.252   9.950
71155W        W32444   7.414  11.135   4.169
71156W        W32445  30.049  42.031   2.406
71157W        W32446  13.270  41.967   4.684
71158W        W32447  15.700  25.555  14.860
71159W        W32448   8.355  10.335  14.309
71160W        W32449   5.863  23.522  12.399
71161W        W32450  26.626  42.445  12.965
71162W        W32451  27.452  38.362  12.034
71163W        W32452  35.050   9.825   3.665
71164W        W32453   9.863  17.154   2.805
71165W        W32454  35.919  39.884  11.583
71166W        W32455  16.789  22.010  13.369
71167W        W32456   0.348  34.473  10.512
71168W        W32457  44.398  42.902  13.938
71169W        W32458  17.158  33.584  11.119
71170W        W32459   6.373  18.631  10.965
71171W        W32460  30.551  24.627   4.289
71172W        W32461  42.438  15.693   5.296
71173W        W32462  10.215  44.307   3.318
71174W        W32463  15.788  30.637   4.713
71175W        W32464  39.898   7.761  11.893
71176W        W32465  21.174  14.219  10.114
71177W        W32466  34.578   2.947   3.777
71178W        W32467  25.134  15.750   2.393
71179W        W32468  32.499  35.359  12.556
71180W        W32469  13.117  26.699   9.961
71181W        W32470  31.993  38.511  14.386
71182W        W32471   8.275  36.843   3.732
71183W        W32472  22.027  37.888  14.392
71184W        W32473  33.480  29.664  12.081
71185W        W32474  22.564  40.309   2.259
71186W        W32475  11.646  37.886   1.759
71187W        W32476  21.676  34.380   3.801
71188W        W32477   4.344  29.625  11.595
71189W        W32478   8.809  41.398  10.541
71190W        W32479   0.379  35.489   1.219
71191W        W32480  19.163  26.633   1.286
71192W        W32481  30.652  16.307   0.928
71193W        W32482  18.547  44.292  10.908
71194W        W32483  34.496  29.031  12.505
71195W        W32484   5.811  36.592   2.729
71196W        W32485  43.271   7.830   0.372
71197W        W32486  41.362  24.101   4.323
71198W        W32487  25.698   5.200   2.214
71199W        W32488   9.185   3.833  12.555
71200W        W32489  26.171   5.304   1.697
71201W        W32490  22.712  10.651  13.921
71202W        W32491  17.556  42.409   2.844
71203W        W32492  44.498   1.383   3.783
71204W        W32493  22.719   4.793   1.437
71205W        W32494  44.279  34.074  13.351
71206W        W32495  23.205   7.361   3.766
71207W        W32496  14.176  43.450  13.061
71208W        W32497  29.623  31.094  14.501
71209W        W32498   6.916   0.468  13.315
71210W        W32499  17.108   2.292   2.793
71211W        W32500  13.706  14.628   4.613
71212W        W32501   7.884  24.638  14.930
71213W        W32502   4.239   8.720   4.181
71214W        W32503   6.907  22.051  13.940
71215W        W32504  37.004  29.089  11.429
71216W        W32505  25.137  38.481  10.406
71217W        W32506  35.935  20.192   3.319
71218W        W32507   1.298  20.642  14.282
71219W        W32508  35.986  38.335   1.863
71220W        W32509  35.455  10.378  10.478
71221W        W32510  24.508  15.647   1.855
71222W        W32511  19.063   0.842  10.520
71223W        W32512   3.251  43.013   2.787
71224W        W32513   9.827  30.482   1.863
71225W        W32514  16.751  28.661   1.921
71226W        W32515  30.010  30.512   4.300
71227W        W32516  37.922  39.849   4.833
71228W        W32517  32.960  36.016  10.419
71229W        W32518  43.927  12.826  14.448
71230W        W32519  43.512   3.342   4.183
71231W        W32520  30.500  25.167   0.846
71232W        W32521  10.308  10.245  12.406
71233W        W32522   6.886  42.504   2.381
71234W        W32523   2.405  36.429  14.793
71235W        W32524  24.507  33.940  13.062
71236W        W32525  44.762  15.807  13.989
71237W        W32526  41.832  32.479  11.513
71238W        W32527  27.098  41.843   2.794
71239W        W32528  37.848  11.754  13.466
71240W        W32529  19.129   5.728  14.335
71241W        W32530  26.952  39.878   4.686
71242W        W32531  36.094  22.535   0.422
71243W        W32532  13.313  22.591   4.637
71244W        W32533  35.485   5.226   4.694
71245W        W32534  21.644  12.691   4.680
71246W        W32535  25.468  10.320  13.804
71247W        W32536  32.957  18.247  11.060
71248W        W32537   8.376  30.086   3.728
71249W        W32538  39.430   3.275  12.060
71250W        W32539  23.675  41.294   2.806
71251W        W32540  24.564   8.178  12.095
71252W        W32541   1.272  41.041   3.178
71253W        W32542   5.934  39.987   4.147
71254W        W32543  44.767  33.993   2.391
71255W        W32544   4.930  43.858  14.848
71256W        W32545   7.353  22.730   2.814
71257W        W32546  13.235   9.793   4.215
71258W        W32547  14.798  13.733   3.701
71259W        W32548  17.222   6.315   4.325
71260W        W32549   9.651  26.557  12.840
71261W        W32550   0.950   3.810   4.768
71262W        W32551   0.341   6.201   1.293
71263W        W32552  39.884  41.792  13.475
71264W        W32553  28.956  17.088  11.034
71265W        W32554  16.717   2.398  13.041
71266W        W32555  22.715  27.508   1.324
71267W        W32556  29.979   6.386   2.362
71268W        W32557  16.626   4.309   0.738
71269W        W32558  39.513  19.200   0.392
71270W        W32559  14.179  39.547  10.976
71271W        W32560  24.065  13.280  11.527
71272W        W32561  33.412  39.867   0.462
71273W        W32562   9.192  31.984   1.341
71274W        W32563   6.245  29.952   3.729
71275W        W32564  18.109  13.666   0.846
71276W        W32565  42.789  29.070  13.036
71277W        W32566  21.542  43.932   3.677
71278W        W32567   8.322  15.223   2.337
71279W        W32568   0.897  19.076  12.970
71280W        W32569  19.697  20.173  12.067
71281W        W32570   1.392  18.735  11.919
71282W        W32571   2.378   5.924  10.940
71283W        W32572  26.481   3.823   3.265
71284W        W32573  20.702  36.553  13.800
71285W        W32574  33.062  36.501   1.334
71286W        W32575  18.596  32.393  10.645
71287W        W32576  33.963  26.638   0.806
71288W        W32577  26.205  30.023   3.322
71289W        W32578  31.430  35.031   3.705
71290W        W32579   0.326  22.187  11.507
71291W        W32580  14.802  21.758   1.347
71292W        W32581  19.631   8.668   0.890
71293W        W32582  27.516  20.093   4.302
71294W        W32583  15.206  35.085  12.965
71295W        W32584  38.064  16.073   3.182
71296W        W32585   9.806  37.016  14.825
71297W        W32586  33.009  44.501  14.922
71298W        W32587  32.043  22.597   3.692
71299W        W32588   2.761  21.115   2.233
71300W        W32589  37.843  29.944  12.472
71301W        W32590  28.635  28.668   4.794
71302W        W32591  14.699  29.642   0.920
71303W        W32592   2.365   1.822   1.888
71304W        W32593  22.724  21.596   1.802
71305W        W32594  25.147  18.265   4.702
71306W        W32595  13.231  27.138  14.413
71307W        W32596  26.611  33.451  10.438
71308W        W32597  31.504  34.495  13.360
71309W        W32598  17.103   7.691   0.789
71310W        W32599  22.672  10.770  11.877
71311W        W32600  40.936   2.373  14.898
71312W        W32601  21.562  30.542   2.372
71313W        W32602   7.304   8.176   3.324
71314W        W32603  17.225  31.906   1.827
71315W        W32604  13.613  32.114   1.356
71316W        W32605  11.764  10.645   3.247
71317W        W32606  22.067  30.487  12.080
71318W        W32607   7.726   5.278   3.385
71319W        W32608  36.349  24.990  13.059
71320W        W32609  37.341  14.775  11.972
71321W        W32610   4.353  29.995  11.008
71322W        W32611  44.941  40.816  11.014
71323W        W32612  41.995   0.471  12.511
71324W        W32613  35.070   9.230   0.438
71325W        W32614  11.202  43.311  12.386
71326W        W32615   4.814  13.218  14.342
71327W        W32616  10.259  39.957   0.450
71328W        W32617  26.636  44.006   2.690
71329W        W32618  14.741  26.096  12.062
71330W        W32619  29.974  42.355   3.661
71331W        W32620  26.587  39.945  11.107
71332W        W32621   3.867   1.352   1.817
71333W        W32622   4.895  31.511  12.832
71334W        W32623   2.320  27.090  12.477
71335W        W32624  13.155  37.521  13.396
71336W        W32625  38.857  24.530   3.855
71337W        W32626   5.780  19.743   1.311
71338W        W32627  39.979  23.156  13.024
71339W        W32628  20.116  25.129   3.716
71340W        W32629  42.961   7.282   2.406
71341W        W32630  41.831   2.309  10.588
71342W        W32631  29.599  12.814  13.511
71343W        W32632   2.327  35.943  10.961
71344W        W32633   3.337  32.009   4.233
71345W        W32634  21.109  22.637  13.012
71346W        W32635  12.661  30.536  12.892
71347W        W32636  18.155  27.446  12.425
71348W        W32637  44.476  37.885   3.762
71349W        W32638  14.717   8.712   9.928
71350W        W32639  44.864  17.686  12.975
71351W        W32640   7.747  13.826   3.290
71352W        W32641  30.640  22.678  13.925
71353W        W32642  43.339   9.198   0.834
71354W        W32643  29.120  26.070   3.815
71355W        W32644  42.480  29.556  13.891
71356W        W32645  15.187  41.446  11.895
71357W        W32646  32.568  23.171   3.650
71358W        W32647   1.765  15.236  13.028
71359W        W32648   7.198  13.708  14.759
71360W        W32649  15.295  32.111   4.304
71361W        W32650  21.577  27.560  12.871
71362W        W32651  18.070   4.299  13.969
71363W        W32652  37.918  15.185  13.006
71364W        W32653  18.583  24.216  14.008
71365W        W32654  12.227  23.998  13.493
71366W        W32655  28.953  19.774  11.602
71367W        W32656  20.623  44.497  12.974
71368W        W32657  13.176  40.054   3.796
71369W        W32658   3.397  16.080   0.809
71370W        W32659   8.383   8.827   4.291
71371W        W32660  23.996   5.887  12.430
71372W        W32661  32.892   3.889  14.939
71373W        W32662   7.340  27.185  14.867
71374W        W32663  20.223  24.077   3.318
71375W        W32664  44.819  25.989  11.886
71376W        W32665   5.248  33.081  12.001
71377W        W32666  14.273  17.640   0.415
71378W        W32667  38.831  43.936  11.049
71379W        W32668  43.787  30.132   4.797
71380W        W32669  33.880  18.618  13.815
71381W        W32670  11.647  26.527  11.493
71382W        W32671  22.210  42.980  10.570
71383W        W32672  30.598  35.575   3.837
71384W        W32673  12.853  32.933  10.409
71385W        W32674  38.072   5.900  14.473
71386W        W32675   0.890  31.136   4.191
71387W        W32676  31.095   5.376  12.860
71388W        W32677  35.023  16.239   3.782
71389W        W32678  36.084  18.703   4.752
71390W        W32679  42.309  17.729   4.336
71391W        W32680   5.712   5.329  10.417
71392W        W32681  11.168  18.284  11.380
71393W        W32682  25.060  13.169  13.325
71394W        W32683  29.477  26.561  13.869
71395W        W32684   3.903  38.523   1.855
71396W        W32685  37.050  25.219  12.063
71397W        W32686  17.220  12.683  11.375
71398W        W32687  40.381   8.855   4.816
71399W        W32688  23.644  26.020  12.367
71400W        W32689   1.919   6.310  10.624
71401W        W32690  18.657   8.306   0.806
71402W        W32691  20.162  28.656   4.230
71403W        W32692   8.667  13.755   0.353
71404W        W32693  12.740  12.288   2.186
71405W        W32694  12.310  21.183   0.308
71406W        W32695  43.919  34.536  11.014
71407W        W32696   6.880  10.182  13.399
71408W        W32697   8.195  19.569   2.705
71409W        W32698   4.779  10.329  14.497
71410W        W32699  39.880   1.278   3.164
71411W        W32700  39.012  19.080   9.668
71412W        W32701  24.542  31.580   3.630
71413W        W32702   4.845   9.857   2.709
71414W        W32703  33.498  10.655   4.788
71415W        W32704  34.425  33.554   2.747
71416W        W32705  20.182  31.563  14.941
71417W        W32706  21.112  35.981  10.966
71418W        W32707  22.008  34.978  14.393
71419W        W32708  33.558  14.201   1.304
71420W        W32709  36.046  41.805  11.466
71421W        W32710  23.531  31.426  11.502
71422W        W32711   6.877  31.939   2.311
71423W        W32712  35.018  26.994  14.484
71424W        W32713  22.207   1.415   0.461
71425W        W32714  28.063  26.676   5.158
71426W        W32715  36.038  34.924   1.860
71427W        W32716  17.162  36.386  10.418
71428W        W32717  13.615   7.710   1.314
71429W        W32718  41.888  42.524   0.391
71430W        W32719  25.049  33.561  13.423
71431W        W32720  21.725  11.228   2.671
71432W        W32721  43.320  38.851   2.356
71433W        W32722   6.818  10.657   3.739
71434W        W32723  42.378  13.745  12.494
71435W        W32724  17.120  31.910  14.494
71436W        W32725  37.461   9.886  13.891
71437W        W32726  42.294  22.176  10.887
71438W        W32727   5.367  43.869   2.283
71439W        W32728   1.738  41.950  12.045
71440W        W32729  28.067   7.862  13.455
71441W        W32730   2.764  16.669  11.609
71442W        W32731  38.446  27.962   0.347
71443W        W32732   0.936   5.885  12.853
71444W        W32733   2.299  40.547  10.459
71445W        W32734  42.500  20.711  13.515
71446W        W32735  17.658  20.171   3.157
71447W        W32736   3.241  32.529   3.840
71448W        W32737  20.573   7.671  12.857
71449W        W32738  17.252  35.602   4.127
71450W        W32739  34.381  33.391  14.462
71451W        W32740  24.170  37.479  14.802
71452W        W32741   6.366   4.725   4.674
71453W        W32742   3.898  38.541  11.017
71454W        W32743  24.624  23.689   5.138
71455W        W32744  14.179   7.784  11.500
71456W        W32745  10.367  25.998  11.567
71457W        W32746   0.801  35.556   2.825
71458W        W32747  28.611   6.277  14.003
71459W        W32748   3.293  23.529  12.372
71460W        W32749  33.544  26.955  13.953
71461W        W32750  25.518  31.636  11.866
71462W        W32751  43.016  11.132   1.731
71463W        W32752  28.975  23.228  13.891
71464W        W32753  26.542   4.901  10.443
71465W        W32754  24.673  31.514  14.831
71466W        W32755  28.508  28.577  13.825
71467W        W32756  14.702   7.253   4.317
71468W        W32757  35.598   2.835  10.476
71469W        W32758  34.592   0.305   3.316
71470W        W32759   1.249   7.674   4.658
71471W        W32760  29.562  17.266  13.863
71472W        W32761  38.337  10.707  12.876
71473W        W32762  13.769  33.421  14.901
71474W        W32763  14.760  41.888  11.909
71475W        W32764  25.580  43.384  12.912
71476W        W32765  36.895  27.997  12.410
71477W        W32766  39.457   7.343   0.322
71478W        W32767  41.797  33.986   1.370
71479W        W32768  25.054  16.806   0.926
71480W        W32769  33.961  41.793  12.371
71481W        W32770  18.124  14.111   0.480
71482W        W32771  39.957   9.674  12.013
71483W        W32772   5.876  16.697   2.279
71484W        W32773  30.508   5.360  13.981
71485W        W32774  43.459   2.246   0.903
71486W        W32775  19.206  44.390   1.755
71487W        W32776   8.297  27.192  11.423
71488W        W32777  40.024  10.341   2.892
71489W        W32778  29.170  21.210  11.974
71490W        W32779  32.025  35.093   2.388
71491W        W32780  21.032  42.912   1.747
71492W        W32781  10.871  36.898  10.131
71493W        W32782  32.634  32.615   1.695
71494W        W32783  32.101  32.038  13.506
71495W        W32784  22.116  43.986  12.342
71496W        W32785  22.096  21.115  12.984
71497W        W32786  27.659   3.818   0.323
71498W        W32787  16.136   3.799   1.760
71499W        W32788  11.678  16.614  10.481
71500W        W32789  29.124  40.454   2.208
71501W        W32790   9.741   5.350   4.271
71502W        W32791   6.380  33.518   2.798
71503W        W32792  13.127   0.339   1.224
71504W        W32793   1.959   1.458   4.828
71505W        W32794  45.000   1.975   0.295
71506W        W32795  11.676  37.024   2.215
71507W        W32796   8.243  16.687   1.737
71508W        W32797  36.354  42.508   0.739
71509W        W32798  34.098  18.631   1.277
71510W        W32799  43.923  37.541   1.447
71511W        W32800   2.760   1.757  14.510
71512W        W32801  21.111   2.814  14.301
71513W        W32802  10.642   7.677  14.763
71514W        W32803   1.913   4.378  14.781
71515W        W32804  27.591  15.321  12.365
71516W        W32805  43.327  12.837   0.438
71517W        W32806  24.689  26.165   1.391
71518W        W32807  30.966  32.502  13.022
71519W        W32808  43.311  42.486  13.370
71520W        W32809   7.233   1.900   0.298
71521W        W32810  29.161  37.452   4.743
71522W        W32811  43.483  33.042   2.846
71523W        W32812  12.667  38.992   2.695
71524W        W32813   2.950  41.460  10.550
71525W        W32814  34.056  26.110  11.027
71526W        W32815  41.881  17.143   3.179
71527W        W32816  20.107  23.542  10.492
71528W        W32817  15.277  33.454  13.050
71529W        W32818  20.534  23.053  12.077
71530W        W32819  36.046  39.853  12.971
71531W        W32820  10.319  36.539  14.875
71532W        W32821  18.133  23.995   3.316
71533W        W32822  17.790  11.321   1.795
71534W        W32823  31.464  41.973  11.545
71535W        W32824  12.152  40.995   2.263
71536W        W32825  11.632   0.826   0.268
71537W        W32826  31.635  19.563  13.336
71538W        W32827  29.042  28.055   0.316
71539W        W32828  24.685  22.068  12.982
71540W        W32829  29.151  35.588   4.285
71541W        W32830  18.696  12.159   2.826
71542W        W32831  27.460  11.271  14.990
71543W        W32832  17.730   6.370   4.819
71544W        W32833  24.992  28.134   3.701
71545W        W32834  20.674  35.012   4.127
71546W        W32835  11.227  37.941   4.216
71547W        W32836  26.480  13.840  13.426
71548W        W32837  29.426  21.145   4.763
71549W        W32838  21.116  10.842   0.311
71550W        W32839  22.014  42.305   2.667
71551W        W32840  30.112   1.364  14.855
71552W        W32841  27.691   8.694   2.709
71553W        W32842  32.988  28.989   3.366
71554W        W32843  37.458  30.910  12.841
71555W        W32844  42.801  29.564  13.917
71556W        W32845  38.911   9.657  13.914
71557W        W32846  39.335  10.149   1.421
71558W        W32847  18.094  30.444  13.032
71559W        W32848  11.154  44.290  13.806
71560W        W32849  38.883  41.319  10.923
71561W        W32850  11.274  14.814   4.116
71562W        W32851  37.409   0.357  11.532
71563W        W32852  31.560   2.380  11.443
71564W        W32853  36.906  39.384  12.990
71565W        W32854   8.750   0.879   0.305
71566W        W32855  31.592  27.571  14.815
71567W        W32856  43.771  44.430   1.409
71568W        W32857   0.432   1.275  14.969
71569W        W32858   2.286   6.798   1.901
71570W        W32859   8.681  33.509   0.428
71571W        W32860  10.327  18.274  14.443
71572W        W32861  37.045  16.280  13.541
71573W        W32862  19.688   4.900  11.574
71574W        W32863  40.477  24.057   1.784
71575W        W32864   0.293  15.303  11.438
71576W        W32865  12.626  18.585   2.900
71577W        W32866  38.396   9.738   3.336
71578W        W32867   4.285  23.018   2.326
71579W        W32868  28.973  28.446   0.451
71580W        W32869  44.786  35.987  14.508
71581W        W32870  41.391  26.536   2.194
71582W        W32871  30.434  14.745   4.167
71583W        W32872  33.561  18.640  10.581
71584W        W32873   3.436  30.107  13.840
71585W        W32874  44.833  42.999   3.226
71586W        W32875  29.604  32.498   3.242
71587W        W32876  26.580  16.620  10.951
71588W        W32877   3.757  44.775   1.796
71589W        W32878   4.374  13.242   3.848
71590W        W32879  16.754  11.798   1.858
71591W        W32880  10.289  19.722   3.287
71592W        W32881  43.803   3.930   1.440
71593W        W32882  43.928  26.017   0.429
71594W        W32883   4.287  39.959   4.729
71595W        W32884   4.880  34.437   4.334
71596W        W32885  31.590  29.473   0.893
71597W        W32886  39.458  41.304  13.894
71598W        W32887  43.775  14.101  12.431
71599W        W32888  23.624   4.787  14.420
71600W        W32889  43.399   0.298   0.955
71601W        W32890   8.882  17.606   2.211
71602W        W32891  36.477  20.762  12.933
71603W        W32892  18.286  39.380  14.811
71604W        W32893  24.716  36.362  12.011
71605W        W32894  23.641  14.138  14.339
71606W        W32895  18.267  40.844   1.894
71607W        W32896  28.002  10.856  14.945
71608W        W32897   3.788  14.199  11.548
71609W        W32898  39.897   4.362  11.971
71610W        W32899  12.679  17.076   0.460
71611W        W32900   7.386  14.177   4.174
71612W        W32901  43.419   3.735  14.761
71613W        W32902  43.273  41.344   0.413
71614W        W32903  16.122  19.160   4.138
71615W        W32904   0.819  17.172  10.438
71616W        W32905  14.319  32.965   2.734
71617W        W32906  18.722  24.203  12.959
71618W        W32907  29.994   0.811   4.199
71619W        W32908  17.068  38.519  11.555
71620W        W32909  39.524  20.208  10.942
71621W        W32910  44.824  37.534  12.461
71622W        W32911   8.813  41.842  11.113
71623W        W32912  41.538  36.459  12.454
71624W        W32913  19.144  17.161  11.000
71625W        W32914  16.663   7.732  10.968
71626W        W32915   0.869  26.695   2.285
71627W        W32916  42.896   4.802   2.677
71628W        W32917   2.888  34.051  12.076
71629W        W32918  19.109  37.463  12.902
71630W        W32919   2.770  16.797   4.770
71631W        W32920  41.895  22.567   2.728
71632W        W32921   1.925  29.641  12.851
71633W        W32922  32.036  19.067  12.911
71634W        W32923  26.001   3.216  14.314
71635W        W32924   1.419   5.419  13.489
71636W        W32925  43.852   4.449   2.778
71637W        W32926  23.124  31.972  10.950
71638W        W32927   4.379  14.192  12.396
71639W        W32928  33.011  26.207   2.395
71640W        W32929  41.945  16.115  12.871
71641W        W32930  22.134   1.797   4.345
71642W        W32931  24.042  44.959   1.858
71643W        W32932  41.936  31.039   3.215
71644W        W32933  16.139  21.143   3.666
71645W        W32934  28.596  21.151   5.112
71646W        W32935  28.581   8.790   2.293
71647W        W32936  26.666  13.692  12.405
71648W        W32937  26.077  34.499   1.795
71649W        W32938  29.645  22.585  13.962
71650W        W32939  42.974  37.875  12.540
71651W        W32940   5.881  24.511  12.580
71652W        W32941  37.557   0.961  11.416
71653W        W32942  38.496   5.402  10.940
71654W        W32943  23.505   1.768   3.809
71655W        W32944  42.806  19.259  10.520
71656W        W32945  20.030  41.832  14.994
71657W        W32946  39.851  14.735  10.954
71658W        W32947  23.530  40.501   1.803
71659W        W32948  36.371  38.883  12.942
71660W        W32949   6.296  37.830   0.741
71661W        W32950  28.112  37.544   3.296
71662W        W32951  33.588  43.353   2.356
71663W        W32952   3.745  21.635  14.789
71664W        W32953  42.492  12.293   2.385
71665W        W32954  11.341   1.367  13.851
71666W        W32955  35.600   8.849  10.612
71667W        W32956  38.359  40.906   4.162
71668W        W32957  26.616  42.870   2.292
71669W        W32958   4.731   5.778   3.326
71670W        W32959  23.658   5.383   0.281
71671W        W32960  30.557  30.457  12.402
71672W        W32961  24.545   3.954  11.076
71673W        W32962  44.313  42.818   3.717
71674W        W32963  15.710  16.679   4.639
71675W        W32964   8.896  13.746   1.753
71676W        W32965  18.220   1.782  12.543
71677W        W32966  36.867  31.111   2.399
71678W        W32967  12.332   6.384  11.977
71679W        W32968  16.662  39.040  10.637
71680W        W32969  34.410  19.114   4.825
71681W        W32970  42.301  21.036  12.422
71682W        W32971  22.091  18.585   3.778
71683W        W32972  38.009  22.218   2.293
71684W        W32973  20.671   3.856  14.883
71685W        W32974   7.411  42.795   2.344
71686W        W32975  20.534  38.486  14.918
71687W        W32976  42.852  43.447   3.833
71688W        W32977  35.394  27.094  10.463
71689W        W32978  14.699  15.771  10.555
71690W        W32979  34.938  30.582  11.434
71691W        W32980   0.890  30.030  14.479
71692W        W32981   0.795   7.354  11.074
71693W        W32982  16.075  23.662  14.790
71694W        W32983  30.113  40.488   0.886
71695W        W32984  13.115  26.587  11.390
71696W        W32985  26.483   5.783   1.317
71697W        W32986  10.200  18.709  13.470
71698W        W32987   5.426  25.145  12.499
71699W        W32988  24.598  36.049  12.500
71700W        W32989  40.380  17.158   2.399
71701W        W32990  10.200  19.100   3.272
71702W        W32991   0.948   9.711  12.528
71703W        W32992  43.861  19.232  14.311
71704W        W32993  10.311  33.600   0.264
71705W        W32994  13.845  20.768  12.894
71706W        W32995   8.160  19.681  13.890
71707W        W32996  15.127  12.643  14.981
71708W        W32997  39.827  15.633  14.305
71709W        W32998  11.841  15.792   3.237
71710W        W32999  44.756  41.015   0.898
71711W        W33000  38.478   1.276   3.753
71712W        W33001  19.281   5.692  12.386
71713W        W33002  26.642  28.051   1.787
71714W        W33003  41.936  42.888  12.381
71715W        W33004   5.258  18.654  10.636
71716W        W33005  32.569  13.133   0.420
71717W        W33006  25.565  41.819  12.870
71718W        W33007  34.866  30.111  13.430
71719W        W33008  15.248  28.996  12.924
71720W        W33009  24.620  42.433   3.270
71721W        W33010  32.494  29.447  13.892
71722W        W33011  17.775  16.793   4.201
71723W        W33012  38.872  10.638   4.121
71724W        W33013  44.011  43.841  12.441
71725W        W33014  10.365  37.845  14.488
71726W        W33015   9.835  13.218   1.731
71727W        W33016  25.565  18.062  10.460
71728W        W33017  31.076  18.240   9.924
71729W        W33018  36.080  43.831  13.845
71730W        W33019  26.466  24.099  12.392
71731W        W33020  44.327   8.164   5.133
71732W        W33021  39.820  11.260  10.538
71733W        W33022  42.499  37.062  11.934
71734W        W33023  12.614  26.462   0.795
71735W        W33024  36.452  10.200   0.904
71736W        W33025  22.163  22.673  14.417
71737W        W33026  36.969  28.106  10.539
71738W        W33027  26.560  38.921  14.514
71739W        W33028  32.052   6.728  14.977
71740W        W33029  24.122  31.941   5.272
71741W        W33030  17.209  16.188   0.250
71742W        W33031  30.990  20.526   4.341
71743W        W33032  36.021  37.384   0.255
71744W        W33033  32.990  24.686   4.730
71745W        W33034   0.762  44.303  10.128
71746W        W33035  40.976   9.803   3.338
71747W        W33036  10.823  44.354  10.509
71748W        W33037  24.563  27.141  11.441
71749W        W33038  32.476  35.465  13.475
71750W        W33039   7.308  21.744   0.324
71751W        W33040  44.308  18.084  12.463
71752W        W33041  10.791  15.606   1.887
71753W        W33042   8.177  38.925   2.187
71754W        W33043  43.411  41.298   0.943
71755W        W33044  29.484  20.149   0.933
71756W        W33045  26.642  44.357   4.758
71757W        W33046  33.940  18.241   1.312
71758W        W33047  14.272  22.141   3.704
71759W        W33048  35.533   9.192   0.411
71760W        W33049  42.302  23.225   1.765
71761W        W33050  25.003   9.869  12.059
71762W        W33051   1.735  34.011   3.869
71763W        W33052  38.013  33.527  12.088
71764W        W33053  13.224  32.961  14.415
71765W        W33054   9.863  37.836  13.387
71766W        W33055  28.607  13.648  11.077
71767W        W33056  43.940   8.356  10.070
71768W        W33057   0.849  19.621  11.122
71769W        W33058   0.947  31.553   2.350
71770W        W33059   2.256  39.015  10.455
71771W        W33060   6.264  28.477   4.749
71772W        W33061  36.084   8.788   2.871
71773W        W33062  43.312  10.799   0.462
71774W        W33063  26.635  14.668   3.698
71775W        W33064  42.295   6.757  11.877
71776W        W33065  10.774  29.462  11.926
71777W        W33066   7.690  15.119   0.484
71778W        W33067  32.073  31.543  13.382
71779W        W33068   0.466  15.812   3.272
71780W        W33069  13.318  21.596   1.294
71781W        W33070  37.367  22.628   2.897
71782W        W33071  14.591  41.998   0.872
71783W        W33072   3.872  40.945   4.751
71784W        W33073  25.992   2.458  14.340
71785W        W33074  40.022  28.959   0.405
71786W        W33075  17.091  22.190   1.253
71787W        W33076  13.779  33.075   3.700
71788W        W33077  40.040  36.502   1.386
71789W        W33078  10.826  31.984   0.408
71790W        W33079  32.542  25.041   3.262
71791W        W33080  35.497  21.677   3.297
71792W        W33081  29.520  30.912   0.411
71793W        W33082  28.024  37.920  13.036
71794W        W33083  13.309  37.360   1.828
71795W        W33084  40.430   1.964  14.773
71796W        W33085  29.574   4.244   4.601
71797W        W33086  34.486   9.318   1.402
71798W        W33087  22.746   1.415   3.163
71799W        W33088  27.125  39.879   3.748
71800W        W33089  33.563  21.065  12.052
71801W        W33090  37.503  18.609   2.355
71802W        W33091  38.894  26.007   1.273
71803W        W33092  23.187   6.707  13.307
71804W        W33093  17.259  30.127   4.348
71805W        W33094  11.734   7.768   2.875
71806W        W33095  12.688  38.569  10.516
71807W        W33096   8.718   2.468   0.820
71808W        W33097  15.202  16.793  13.396
71809W        W33098   0.851  31.118  10.600
71810W        W33099  29.921  16.229  10.893
71811W        W33100  31.475  31.433   3.821
71812W        W33101   3.731  12.293   0.465
71813W        W33102  20.240  14.769   0.845
71814W        W33103  33.011  20.169   0.806
71815W        W33104  43.883  11.711  13.354
71816W        W33105  23.493  31.022  14.451
71817W        W33106   8.364  26.998  12.396
71818W        W33107   5.687  13.115   4.229
71819W        W33108  13.698   9.725  12.404
71820W        W33109  11.273  19.759  14.770
71821W        W33110  42.526  44.435   2.835
71822W        W33111  12.215  26.691   4.265
71823W        W33112  22.744  15.250   0.386
71824W        W33113   0.789   5.897   2.193
71825W        W33114  36.963  11.202   4.726
71826W        W33115  34.006  29.949  13.026
71827W        W33116  43.299  28.528   4.242
71828W        W33117  40.513  17.170  12.580
71829W        W33118  32.627   8.698   0.402
71830W        W33119  21.185   5.374  14.294
71831W        W33120  36.501  37.531   4.224
71832W        W33121  29.637  15.094  10.578
71833W        W33122  17.581  33.441   1.696
71834W        W33123  23.070   6.271   0.320
71835W        W33124  34.039   6.233   1.773
71836W        W33125   3.725   8.867  13.798
71837W        W33126   9.739  27.482   4.167
71838W        W33127  19.277   3.273  14.937
71839W        W33128  37.350  43.417  11.951
71840W        W33129  20.683  22.067   0.803
71841W        W33130  38.044  44.505   3.181
71842W        W33131   0.828  18.717  13.828
71843W        W33132  22.057  18.603  12.048
71844W        W33133  19.728  15.224   1.903
71845W        W33134  20.642   0.357  14.402
71846W        W33135   1.950  35.462   0.930
71847W        W33136  25.138   2.905   1.400
71848W        W33137  32.393   9.332  13.471
71849W        W33138  18.701  15.254  10.610
71850W        W33139   2.297  20.585   3.181
71851W        W33140  38.571  37.371  12.854
71852W        W33141  31.428  11.627  12.876
71853W        W33142  41.441  43.352   2.752
71854W        W33143  12.848   6.341  12.540
71855W        W33144  20.209   1.937   2.415
71856W        W33145   8.363  21.099   3.756
71857W        W33146  41.871  24.588   3.700
71858W        W33147   6.312  23.545  12.009
71859W        W33148   3.426  16.175   4.188
71860W        W33149  13.605  20.083  14.959
71861W        W33150  20.209  13.820   1.369
71862W        W33151  34.607  39.017   4.612
71863W        W33152  15.209  38.020   2.872
71864W        W33153  23.685  16.126  13.865
71865W        W33154  19.050  13.121   0.960
71866W        W33155  43.827  22.126   4.816
71867W        W33156   4.447   0.345   0.828
71868W        W33157  18.782  29.580   5.224
71869W        W33158  15.616  35.018  14.483
71870W        W33159  44.846  32.952  11.488
71871W        W33160  13.173   2.407  12.094
71872W        W33161  15.762  31.581  10.955
71873W        W33162  26.975   1.847  10.517
71874W        W33163  29.061   6.384  11.930
71875W        W33164   7.355  15.288  11.494
71876W        W33165  19.569  21.687  13.038
71877W        W33166   1.481  22.052  10.559
71878W        W33167   2.403   2.937   1.841
71879W        W33168  31.909  30.153  11.468
71880W        W33169  42.441   1.807   0.800
71881W        W33170  15.795  25.655  12.003
71882W        W33171  28.554  18.174   3.751
71883W        W33172  31.642  15.700  14.759
71884W        W33173  17.658   5.885  12.943
71885W        W33174  10.332  10.766  12.414
71886W        W33175  21.739  13.342   1.895
71887W        W33176  19.162  23.116  14.918
71888W        W33177  38.833  18.727   2.761
71889W        W33178  27.568  16.567  12.533
71890W        W33179  18.776  27.001   1.381
71891W        W33180  11.211  35.862   2.666
71892W        W33181  29.982  13.304  13.037
71893W        W33182  18.192  25.116   4.206
71894W        W33183   4.210  24.141   2.270
71895W        W33184  41.350  10.865   4.284
71896W        W33185  21.138  11.334   3.348
71897W        W33186  28.617  34.020   2.774
71898W        W33187  21.591  19.113  14.981
71899W        W33188  36.051  38.501   2.732
71900W        W33189  29.106  29.590   4.258
71901W        W33190  22.067  31.080   1.321
71902W        W33191  39.840  39.812   2.322
71903W        W33192  21.590   2.904  10.452
71904W        W33193  25.609  37.432   4.275
71905W        W33194  18.266  32.990   2.385
71906W        W33195  10.864  35.107  14.995
71907W        W33196  29.008  39.461   1.865
71908W        W33197  13.714   4.884  12.001
71909W        W33198   0.875  19.656   3.161
71910W        W33199  39.354   9.843  14.997
71911W        W33200  35.882  29.435  13.339
71912W        W33201  34.407  16.671  14.843
71913W        W33202  42.410  26.167  12.022
71914W        W33203  21.743   8.801  10.424
71915W        W33204  26.154  27.673   3.789
71916W        W33205  33.520  31.007   0.396
71917W        W33206  43.926  17.240  13.051
71918W        W33207  22.509  39.854  11.552
71919W        W33208  16.097  10.341   0.296
71920W        W33209  35.459  30.451  10.968
71921W        W33210  41.521  26.144  13.036
71922W        W33211  13.333  30.418   1.349
71923W        W33212   4.418  38.417  13.360
71924W        W33213  35.100  16.210   1.815
71925W        W33214  32.899  10.757  11.952
71926W        W33215   2.826  14.323   4.675
71927W        W33216   8.885  19.555  11.044
71928W        W33217  22.627  22.006   5.797
71929W        W33218  12.663  35.413   5.739
71930W        W33219  23.010  15.581   2.862
71931W        W33220   2.947  21.212   1.875
71932W        W33221  14.797  39.912  12.560
71933W        W33222  24.034   6.327  12.032
71934W        W33223  12.775  28.607  14.484
71935W        W33224  37.025  25.167  10.599
71936W        W33225   1.410  21.062  11.084
71937W        W33226   4.217  38.829   0.947
71938W        W33227  28.009  35.965   0.308
71939W        W33228  26.651  34.443  11.444
71940W        W33229  15.133  18.703   3.234
71941W        W33230  40.017   8.270  12.967
71942W        W33231  32.030   8.239   1.326
71943W        W33232  27.480  43.780  12.039
71944W        W33233   7.777  44.260   0.880
71945W        W33234  39.893  40.966  11.971
71946W        W33235  12.250   3.784   0.327
71947W        W33236  17.779  29.016  11.594
71948W        W33237   4.278  44.274   3.312
71949W        W33238  38.986  33.407  11.878
71950W        W33239   1.387  24.041  12.496
71951W        W33240  41.029  12.324   0.840
71952W        W33241   2.825   6.899  13.490
71953W        W33242  42.802  14.663  11.400
71954W        W33243   2.449   3.440  13.823
71955W        W33244  32.490  36.999  11.547
71956W        W33245  11.328  27.518  11.573
71957W        W33246   5.395   3.221  11.389
71958W        W33247  37.863  39.510  12.049
71959W        W33248  24.994  42.360  14.981
71960W        W33249   5.871  27.519  11.598
71961W        W33250  27.507   1.461  13.461
71962W        W33251  21.083  19.240   1.245
71963W        W33252   2.891   7.179   2.288
71964W        W33253  20.757  16.729  12.513
71965W        W33254  43.839   8.243  13.959
71966W        W33255  30.457  29.579  14.499
71967W        W33256  12.757   3.318  10.442
71968W        W33257   0.753  28.072  13.047
71969W        W33258  40.000  28.994  14.948
71970W        W33259  37.926  22.090   1.396
71971W        W33260  27.953  15.612   2.416
71972W        W33261  42.909  42.426   3.243
71973W        W33262  21.129  42.883  11.005
71974W        W33263  41.955  26.977  13.372
71975W        W33264   0.835  23.122   2.710
71976W        W33265  37.491   2.752  13.434
71977W        W33266   9.325  44.814  13.461
71978W        W33267  41.862  36.435  10.424
71979W        W33268  21.114   0.286  14.956
71980W        W33269   7.337   5.771   2.230
71981W        W33270  29.649  18.287   3.281
71982W        W33271  22.597   6.882   3.834
71983W        W33272   5.922  41.369  11.078
71984W        W33273  19.582  13.694  13.056
71985W        W33274  17.686  31.496  13.962
71986W        W33275  16.143  36.965  11.564
71987W        W33276  22.582  32.469  11.511
71988W        W33277  32.043   8.177   4.667
71989W        W33278  17.115  28.936   1.750
71990W        W33279  37.938  40.417  11.952
71991W        W33280   1.732  17.091   2.357
71992W        W33281   2.363  43.338  11.903
71993W        W33282  13.663  11.736  11.484
71994W        W33283   7.196   5.344  11.512
71995W        W33284  31.084   7.315  13.394
71996W        W33285  24.025   3.247   3.338
71997W        W33286  41.035   5.232   3.373
71998W        W33287   0.819  37.411  11.611
71999W        W33288  16.671  35.431   3.164
72000W        W33289  17.258  35.393   4.701
72001W        W33290  37.002   8.871  10.433
72002W        W33291  32.049  32.927  14.774
72003W        W33292   3.392  14.822   0.475
72004W        W33293  34.051  44.331   2.763
72005W        W33294  26.061  22.046  11.569
72006W        W33295  10.320   6.723  12.354
72007W        W33296  39.501  19.765   3.201
72008W        W33297   2.372  17.215   2.238
72009W        W33298  16.766   1.753  13.026
72010W        W33299  11.844  16.137  10.406
72011W        W33300   5.722   1.275   1.871
72012W        W33301  13.186  14.229   2.866
72013W        W33302  18.095  44.482  11.898
72014W        W33303  33.034   2.871  14.941
72015W        W33304  35.531  13.342   0.790
72016W        W33305  30.087  17.796  10.592
72017W        W33306   0.448  21.577  13.431
72018W        W33307   8.709   2.472   3.775
72019W        W33308  23.670  11.200   0.728
72020W        W33309  16.602   4.925   0.750
72021W        W33310  25.206  25.970  13.926
72022W        W33311  41.804   2.735  11.480
72023W        W33312  21.570  10.183   4.641
72024W        W33313   6.381  43.391   1.885
72025W        W33314  30.926  40.321  14.490
72026W        W33315  13.159  28.929   2.254
72027W        W33316  10.219  10.685   0.932
72028W        W33317  23.125  39.994   4.782
72029W        W33318  29.655   5.756   4.232
72030W        W33319   5.777   8.687   3.221
72031W        W33320   3.829  12.174  12.073
72032W        W33321  28.603   5.690  14.341
72033W        W33322  36.085   5.889   0.363
72034W        W33323  13.642  38.075  12.546
72035W        W33324  11.728  12.759  12.454
72036W        W33325  11.292  39.030  14.002
72037W        W33326  20.272  37.938  12.371
72038W        W33327  16.184  11.646   2.187
72039W        W33328  44.789  35.948   2.859
72040W        W33329  24.135  27.457  13.956
72041W        W33330  14.619  25.706  12.540
72042W        W33331  10.233  17.611  14.882
72043W        W33332  14.231  34.551   1.876
72044W        W33333  23.993  13.313   4.226
72045W        W33334  17.152  33.520  14.289
72046W        W33335  23.552  34.896   4.616
72047W        W33336  37.394  11.155  11.415
72048W        W33337  16.780  22.165   0.830
72049W        W33338  14.833  28.643   4.351
72050W        W33339  30.972  18.657   3.345
72051W        W33340  43.493  20.167  14.299
72052W        W33341  18.768  19.602   3.383
72053W        W33342  38.960  43.395  10.580
72054W        W33343  42.380  34.510   3.316
72055W        W33344   5.730  29.583   3.150
72056W        W33345  27.536  12.818  13.012
72057W        W33346  43.927  27.465   1.728
72058W        W33347   3.827  39.453   1.217
72059W        W33348  23.665  27.178   2.667
72060W        W33349   9.694  37.024  14.283
72061W        W33350   9.361  35.452   1.736
72062W        W33351  27.572   7.899   1.332
72063W        W33352   6.897  31.445  13.060
72064W        W33353   5.891  14.210   3.379
72065W        W33354   2.390  11.239  14.419
72066W        W33355   2.779  28.526   4.314
72067W        W33356  43.437  23.084  13.400
72068W        W33357  36.393  37.389  12.858
72069W        W33358  34.600  37.974   1.326
72070W        W33359   6.273  13.163   0.434
72071W        W33360  23.117  32.986  14.869
72072W        W33361  19.544  25.042   0.392
72073W        W33362  21.112  15.623   3.868
72074W        W33363   2.934  22.549  14.373
72075W        W33364  43.936  11.675   4.796
72076W        W33365  34.864  32.452  11.518
72077W        W33366  24.085  10.667  13.976
72078W        W33367  21.143  28.568   0.832
72079W        W33368  44.767  18.771   3.180
72080W        W33369  41.818  29.670  13.891
72081W        W33370   1.243  14.765   4.137
72082W        W33371  19.635  43.303   0.810
72083W        W33372  26.496  43.486  14.024
72084W        W33373  19.269  37.544  13.847
72085W        W33374  42.780  10.181  11.920
72086W        W33375  19.694   0.435   1.382
72087W        W33376  25.182  22.152   1.339
72088W        W33377  43.481  43.435   1.836
72089W        W33378  30.139   4.399  11.390
72090W        W33379  15.606  32.554  14.346
72091W        W33380  22.540  42.367   1.395
72092W        W33381  35.857  15.148  10.476
72093W        W33382   3.785   2.249  10.997
72094W        W33383  39.322   8.721   3.147
72095W        W33384   5.399  29.060   3.683
72096W        W33385  41.489  32.893   2.273
72097W        W33386   5.705   2.418   0.895
72098W        W33387  35.535  14.832  13.859
72099W        W33388  24.573  17.666   0.889
72100W        W33389  15.164  20.714  10.908
72101W        W33390  33.381  41.813  11.398
72102W        W33391  11.827  25.192  11.419
72103W        W33392   1.241   0.417   1.304
72104W        W33393  13.689   2.321   3.186
72105W        W33394   1.891  44.391  10.963
72106W        W33395  10.201  22.217  14.772
72107W        W33396   7.794  34.604   2.787
72108W        W33397  22.201   8.833   2.396
72109W        W33398  25.155  36.088  14.787
72110W        W33399  42.882  31.565  11.045
72111W        W33400  34.374  29.168  13.824
72112W        W33401  21.758  25.068  13.489
72113W        W33402  27.177  29.929  13.900
72114W        W33403  10.737  31.128   0.291
72115W        W33404  22.116  10.846   3.184
72116W        W33405  24.544  18.244   2.814
72117W        W33406  23.050   4.372  11.862
72118W        W33407  41.962  14.806   2.293
72119W        W33408  11.257  17.584  13.966
72120W        W33409  12.342  30.525   2.405
72121W        W33410  11.783  24.020  10.555
72122W        W33411  33.029  37.038  13.948
72123W        W33412  11.760  22.997  11.432
72124W        W33413  40.941  40.496   3.789
72125W        W33414  43.000  11.276  11.577
72126W        W33415   7.852  11.373   0.305
72127W        W33416  28.042   3.711  10.092
72128W        W33417  37.356  37.986   5.301
72129W        W33418  16.232  32.422   4.815
72130W        W33419  20.602  22.242  14.928
72131W        W33420  39.811  40.805  14.274
72132W        W33421  10.728  18.642   3.213
72133W        W33422  16.759  35.496   0.921
72134W        W33423   4.893  29.473   9.977
72135W        W33424  37.860  42.912   4.649
72136W        W33425  44.922  18.759   2.845
72137W        W33426   9.336  40.336   4.775
72138W        W33427  43.829  37.937  11.935
72139W        W33428  13.696  30.623  11.453
72140W        W33429  18.709  39.439  14.378
72141W        W33430  24.085   0.804   2.306
72142W        W33431  29.611  33.477   0.772
72143W        W33432  38.559  40.860   3.743
72144W        W33433  37.479   8.297  10.531
72145W        W33434  43.379   2.419   0.349
72146W        W33435  21.100  30.511   1.770
72147W        W33436  43.815  13.243   1.247
72148W        W33437   6.835  10.834  14.478
72149W        W33438   1.742  28.547   3.837
72150W        W33439   6.718  29.590   2.201
72151W        W33440   3.807  11.832  13.995
72152W        W33441  31.573  37.066   4.162
72153W        W33442  36.556  28.642   0.938
72154W        W33443   7.697   6.420  11.384
72155W        W33444  27.667  22.555   2.727
72156W        W33445  22.223  39.845   2.197
72157W        W33446  12.317  34.471   0.362
72158W        W33447  33.403  40.995   2.786
72159W        W33448  15.766  40.868  13.397
72160W        W33449  21.078   6.724  11.015
72161W        W33450  16.675  18.668  11.949
72162W        W33451   9.360  42.981  14.362
72163W        W33452   2.785   5.384  11.075
72164W        W33453  41.960  36.971   0.830
72165W        W33454   6.686  33.430   2.780
72166W        W33455   5.893  28.452  14.913
72167W        W33456   8.327  42.842  13.922
72168W        W33457  21.039  31.522  10.502
72169W        W33458  31.029  16.195  11.861
72170W        W33459  11.725  41.985  11.399
72171W        W33460  38.020   0.417   0.961
72172W        W33461  32.105  36.860  11.531
72173W        W33462  24.705  12.670   2.205
72174W        W33463  32.447  17.638  12.837
72175W        W33464  28.151  28.162  13.440
72176W        W33465  25.609  29.102   3.751
72177W        W33466   8.194  42.337  11.993
72178W        W33467  20.220  32.489   0.733
72179W        W33468  27.565  42.439   1.402
72180W        W33469  39.888  42.031   1.226
72181W        W33470  26.625  41.352  11.495
72182W        W33471  32.439  43.482   1.301
72183W        W33472  29.519  21.545   0.264
72184W        W33473  23.519  27.141  14.431
72185W        W33474  40.829  35.956   3.798
72186W        W33475  36.452  35.559  12.883
72187W        W33476  22.219  29.027  10.625
72188W        W33477  36.375   5.427   0.797
72189W        W33478   7.724   2.403   3.801
72190W        W33479   0.887  33.414   4.342
72191W        W33480  12.140   6.321   0.449
72192W        W33481  43.883  43.978   4.718
72193W        W33482  38.935   2.268   1.447
72194W        W33483   7.299  34.051  12.354
72195W        W33484   1.861  24.593  13.828
72196W        W33485  11.270  21.685   1.850
72197W        W33486  17.131  25.624   2.798
72198W        W33487  21.519  42.024   0.451
72199W        W33488  10.191  26.574   1.918
72200W        W33489  11.252  32.498  11.420
72201W        W33490  37.856  15.273  14.024
72202W        W33491  27.963   6.231   0.886
72203W        W33492  44.815   9.157  13.320
72204W        W33493  26.018  35.054  11.107
72205W        W33494   6.183  27.017  12.377
72206W        W33495  15.317   0.288   4.710
72207W        W33496  41.468   5.763  10.550
72208W        W33497  15.636  32.502   2.187
72209W        W33498   4.316  33.058   0.308
72210W        W33499  28.149  28.093   0.796
72211W        W33500  11.142   0.970  13.482
72212W        W33501  21.641  33.891  12.405
72213W        W33502   6.790  24.087  10.972
72214W        W33503  28.986  26.151  14.292
72215W        W33504  12.699  29.121   4.775
72216W        W33505  24.086  42.978   2.900
72217W        W33506  39.482  19.672  11.405
72218W        W33507  23.570  15.164   1.445
72219W        W33508   7.274  39.449   3.213
72220W        W33509  11.687  27.969   3.337
72221W        W33510  16.212  44.446   4.823
72222W        W33511  20.697  12.628  12.966
72223W        W33512  32.113  36.846   1.928
72224W        W33513  38.894   3.295   3.366
72225W        W33514  42.289  41.462   0.434
72226W        W33515  31.489  39.849   4.742
72227W        W33516  11.193  32.517   0.811
72228W        W33517  42.822   7.792   0.424
72229W        W33518  13.243   6.258   4.281
72230W        W33519  13.755   0.281  13.537
72231W        W33520   8.717  34.084  14.885
72232W        W33521  35.026  26.023   3.238
72233W        W33522   1.413  12.178  10.930
72234W        W33523  36.412   0.428  10.441
72235W        W33524   0.806  32.946  12.381
72236W        W33525  37.503  31.903  11.995
72237W        W33526   9.752  13.235   4.811
72238W        W33527  32.519  43.944  10.965
72239W        W33528  27.468  10.154  14.501
72240W        W33529  32.009   1.454   3.300
72241W        W33530  19.655  28.002   5.180
72242W        W33531   4.450   0.787  10.427
72243W        W33532  38.007  24.566  10.525
72244W        W33533  32.589   3.842   1.852
72245W        W33534  36.349  17.200   2.845
72246W        W33535  20.747   8.278   1.795
72247W        W33536  27.145  19.674   3.384
72248W        W33537  22.218  14.607   1.839
72249W        W33538  30.032  20.637   4.671
72250W        W33539  22.157  11.683   4.756
72251W        W33540  20.713   5.389  14.465
72252W        W33541  23.113   1.893  14.335
72253W        W33542  15.663   5.715   0.830
72254W        W33543  18.547  15.210   0.783
72255W        W33544  34.411   3.371   2.683
72256W        W33545   3.418  22.502   2.178
72257W        W33546   5.304  26.002   1.218
72258W        W33547   4.208   3.395  10.605
72259W        W33548  39.544   5.264   1.234
72260W        W33549  12.795  40.501  10.016
72261W        W33550  20.755   7.308   0.327
72262W        W33551  34.609  38.983   2.376
72263W        W33552   8.896   3.854   2.395
72264W        W33553  32.891  41.305   4.195
72265W        W33554   7.852  40.435   1.917
72266W        W33555  10.197  41.331  10.002
72267W        W33556  36.552  25.707  11.372
72268W        W33557  23.159  33.022   1.822
72269W        W33558  42.923  42.394   4.633
72270W        W33559   1.812  37.427   2.302
72271W        W33560  34.866  15.724   4.640
72272W        W33561  27.455   3.311   1.694
72273W        W33562   6.252   3.253   2.803
72274W        W33563  27.033  37.349  13.427
72275W        W33564   3.375   2.854   0.270
72276W        W33565  41.980  10.681   2.694
72277W        W33566  43.959  36.007  14.982
72278W        W33567  21.684  19.762  11.897
72279W        W33568  20.745  25.619   2.667
72280W        W33569  19.199  29.560   2.246
72281W        W33570  43.783   1.242  10.453
72282W        W33571   8.699  21.693  13.921
72283W        W33572   6.295   8.248   4.139
72284W        W33573   7.227  16.309   0.315
72285W        W33574   1.764   5.392   0.478
72286W        W33575  34.484  28.565  14.815
72287W        W33576  18.658  16.774   2.862
72288W        W33577  41.533  37.972   4.190
72289W        W33578  28.508  30.506   2.837
72290W        W33579  37.044  24.091  11.105
72291W        W33580  22.065   2.340  12.579
72292W        W33581  26.593  26.112   1.928
72293W        W33582  42.344  21.027   0.782
72294W        W33583   0.425  23.728  13.321
72295W        W33584  18.153   2.854   4.329
72296W        W33585  31.440  29.025  12.440
72297W        W33586  35.976  13.771  14.282
72298W        W33587  14.774  14.309  10.633
72299W        W33588  14.793  17.602  11.989
72300W        W33589  29.539  30.636  14.312
72301W        W33590  40.533  36.880   1.448
72302W        W33591  10.675  15.726  14.464
72303W        W33592  32.410  39.415  13.951
72304W        W33593  30.587  17.611  13.443
72305W        W33594  34.089   3.932   4.693
72306W        W33595  38.018  44.927  12.863
72307W        W33596  24.723  21.642  13.474
72308W        W33597  35.528  43.506  11.113
72309W        W33598  41.525  29.101   3.190
72310W        W33599  10.139  33.401   0.813
72311W        W33600  32.111  23.690   2.758
72312W        W33601  21.701   7.732   0.481
72313W        W33602  26.201   6.335  14.393
72314W        W33603  41.400  31.939   0.261
72315W        W33604  37.526   5.923   3.147
72316W        W33605   3.728  34.443  12.352
72317W        W33606  13.333   9.372   3.703
72318W        W33607   3.801  23.002   0.437
72319W        W33608  43.944  44.840  11.058
72320W        W33609  13.744  35.941  13.546
72321W        W33610   2.296  18.135   0.841
72322W        W33611  14.817  37.447   3.845
72323W        W33612  20.216  32.012  14.976
72324W        W33613  14.275   8.254   3.162
72325W        W33614  27.545   8.168   1.815
72326W        W33615  40.527  32.902  11.037
72327W        W33616  15.161  15.106   4.805
72328W        W33617  18.235  11.368  12.415
72329W        W33618  33.109  40.983  13.308
72330W        W33619  24.584  43.012   1.407
72331W        W33620  37.051  41.928  13.986
72332W        W33621  30.164  33.004  10.621
72333W        W33622  25.048  30.031   2.415
72334W        W33623  27.662  33.477  14.987
72335W        W33624  44.918  37.999   4.632
72336W        W33625  26.682   2.923  14.803
72337W        W33626   7.224  17.132  14.765
72338W        W33627  44.357  40.535   0.754
72339W        W33628  32.391  11.292  13.814
72340W        W33629  18.780  36.034   0.405
72341W        W33630  43.456  25.702   4.115
72342W        W33631  44.292  25.709  12.481
72343W        W33632   2.435  41.469   0.310
72344W        W33633  35.028   8.817  13.810
72345W        W33634   4.733  21.054   1.915
72346W        W33635   9.258  41.805   3.630
72347W        W33636   0.362  36.927   1.364
72348W        W33637  12.284   2.957   9.944
72349W        W33638   1.285  26.491   3.214
72350W        W33639   9.286  13.269  10.441
72351W        W33640  43.382  40.334  11.489
72352W        W33641   2.868   8.785   0.272
72353W        W33642  15.084   9.881  13.943
72354W        W33643  12.614  40.387  12.373
72355W        W33644  22.248  33.918  13.461
72356W        W33645  30.910  10.836   3.175
72357W        W33646  39.021  20.165  13.980
72358W        W33647   5.734  13.252  11.608
72359W        W33648  32.914  35.476   0.324
72360W        W33649  12.726  39.815  14.925
72361W        W33650  40.411  38.330   4.223
72362W        W33651   1.797  40.864  11.545
72363W        W33652  16.081   7.381  11.426
72364W        W33653  30.057   2.281  14.017
72365W        W33654   0.908  38.992  13.314
72366W        W33655  12.138   2.752   3.195
72367W        W33656  15.207   2.737   3.681
72368W        W33657  22.143   4.753  13.024
72369W        W33658  26.588   0.406   2.377
72370W        W33659   3.324  28.073  10.920
72371W        W33660  36.456  38.365  12.056
72372W        W33661   1.483   3.369  13.907
72373W        W33662  12.116  31.999  11.569
72374W        W33663  27.061  27.630   0.274
72375W        W33664  31.415   5.829   4.274
72376W        W33665   7.188  24.108  13.864
72377W        W33666  33.459  37.993  10.124
72378W        W33667  15.689  33.513  13.458
72379W        W33668  14.332   6.903  11.409
72380W        W33669  35.104  24.996   4.657
72381W        W33670  14.786  10.350   2.775
72382W        W33671  38.026  14.723  12.077
72383W        W33672  27.963   3.853  10.580
72384W        W33673  38.901  28.610   3.677
72385W        W33674   3.237  29.067   2.356
72386W        W33675  24.610  17.564   1.364
72387W        W33676   5.840  19.214  13.914
72388W        W33677  21.555  29.547  10.029
72389W        W33678  21.727   8.366  14.400
72390W        W33679  11.281  29.153   3.812
72391W        W33680  26.496  22.024   3.654
72392W        W33681   4.307  25.092  14.032
72393W        W33682  34.928  30.503  10.057
72394W        W33683  24.103  39.914  10.126
72395W        W33684  23.095  15.302  10.979
72396W        W33685  14.155   4.249   2.824
72397W        W33686  16.262  40.488  12.073
72398W        W33687   7.842  28.098   4.201
72399W        W33688  13.250  36.569   3.366
72400W        W33689  31.516  12.323  14.294
72401W        W33690   9.862   5.206   3.171
72402W        W33691  36.422   4.888   1.854
72403W        W33692  31.976  28.627  11.393
72404W        W33693  22.119  10.672   2.799
72405W        W33694  10.806  11.130   0.438
72406W        W33695   8.174  34.066   2.298
72407W        W33696  18.261  37.517  13.846
72408W        W33697  32.051   9.172  12.905
72409W        W33698  10.184  37.927   1.302
72410W        W33699  42.323  15.694  13.799
72411W        W33700  26.207   9.875   5.274
72412W        W33701   2.907  21.657   4.746
72413W        W33702  42.856   2.462  11.127
72414W        W33703  35.495  40.803  14.343
72415W        W33704   3.327   8.168  13.942
72416W        W33705  38.035  27.092   1.807
72417W        W33706  14.216   8.694  11.862
72418W        W33707   1.483   3.250   4.197
72419W        W33708  34.941  12.742  11.508
72420W        W33709  19.695  10.644   4.120
72421W        W33710  35.097   5.889  13.512
72422W        W33711   8.818   1.751   4.615
72423W        W33712  43.455  43.865  10.633
72424W        W33713  14.171   4.390   2.292
72425W        W33714  19.769  25.080  12.065
72426W        W33715   2.893  31.591  14.018
72427W        W33716  20.140  25.534   2.320
72428W        W33717  43.448  13.172  10.922
72429W        W33718  41.820  15.328  13.492
72430W        W33719  24.229   6.868  11.936
72431W        W33720  22.194  16.623  10.533
72432W        W33721  20.680  40.392   0.326
72433W        W33722   4.902  34.586  11.108
72434W        W33723  23.163  44.997   2.215
72435W        W33724  18.085   6.909   2.262
72436W        W33725  41.965  34.017   3.352
72437W        W33726  38.365   7.348   2.832
72438W        W33727  12.723  11.347   0.840
72439W        W33728  14.718  43.841  13.828
72440W        W33729  34.571  33.513   1.331
72441W        W33730  10.685  17.215  14.765
72442W        W33731  29.445  28.143  10.530
72443W        W33732  37.414  29.091   0.804
72444W        W33733  18.086  44.840   0.407
72445W        W33734  25.031   6.428   2.731
72446W        W33735  41.323  18.263   3.275
72447W        W33736   1.378  19.120   4.636
72448W        W33737  15.098  29.172   3.209
72449W        W33738  25.672   8.272   1.806
72450W        W33739  16.081   9.333  10.994
72451W        W33740  39.544   6.854   0.829
72452W        W33741  25.064  20.192   4.245
72453W        W33742  25.173  25.692  10.940
72454W        W33743   2.936  29.455  12.540
72455W        W33744  29.124  25.520   0.826
72456W        W33745  40.044  25.977  11.030
72457W        W33746  41.425   8.393  10.478
72458W        W33747   7.679  33.967  11.918
72459W        W33748   3.215  42.347   0.844
72460W        W33749  40.910  25.031  14.863
72461W        W33750  34.422  30.108  13.311
72462W        W33751  35.861  11.659   1.351
72463W        W33752   8.347  40.450  11.423
72464W        W33753  10.654  21.251  12.859
72465W        W33754   7.716  26.116  12.506
72466W        W33755  29.985  31.964  10.563
72467W        W33756  44.800  12.748  13.336
72468W        W33757  42.288  15.620   1.386
72469W        W33758  26.479  40.856  10.969
72470W        W33759  27.991   7.361   1.838
72471W        W33760  19.041   9.694  10.539
72472W        W33761   2.956  36.010   3.825
72473W        W33762  28.130   2.763   0.949
72474W        W33763   7.857  35.078   2.193
72475W        W33764  11.660  19.607  14.774
72476W        W33765  30.501  24.071  10.561
72477W        W33766  10.762  39.378  10.467
72478W        W33767  11.716   4.362  10.994
72479W        W33768   6.815   2.791  13.061
72480W        W33769   9.820  37.954  14.014
72481W        W33770  21.718  36.410   1.214
72482W        W33771  20.056  43.485   2.359
72483W        W33772   5.817  44.483   3.173
72484W        W33773  39.478  12.291   2.390
72485W        W33774  40.532  42.803  12.380
72486W        W33775  30.517  12.641  12.533
72487W        W33776   4.782  29.123  13.040
72488W        W33777  19.263  23.689   2.368
72489W        W33778  19.091  18.765   3.269
72490W        W33779  26.079   6.410  12.849
72491W        W33780  28.453   6.787  12.533
72492W        W33781  37.339  29.960  14.964
72493W        W33782  16.091   0.796  11.610
72494W        W33783   3.878  33.051   2.254
72495W        W33784  18.102  12.244  10.430
72496W        W33785   0.978  29.928  12.545
72497W        W33786  20.167  21.697  12.866
72498W        W33787  17.144  20.190   9.974
72499W        W33788  30.003   0.341  10.555
72500W        W33789  38.833  26.670  10.913
72501W        W33790  41.511  40.406  13.517
72502W        W33791  34.921  35.601  13.411
72503W        W33792  40.530  31.537  13.478
72504W        W33793  10.276  30.472   0.468
72505W        W33794   7.241  28.448   0.412
72506W        W33795  40.332  11.629  11.866
72507W        W33796  31.572   8.800   3.200
72508W        W33797  28.003   0.939   3.362
72509W        W33798  39.810  21.683   1.284
72510W        W33799   6.265  43.444   4.717
72511W        W33800  22.043  40.344  12.062
72512W        W33801   1.977  16.725  10.488
72513W        W33802  27.534  39.547   2.395
72514W        W33803  40.469   1.930  11.585
72515W        W33804  44.968  39.890   1.794
72516W        W33805  16.303  43.000   3.753
72517W        W33806  30.435  35.040   3.233
72518W        W33807  43.345   5.772   0.467
72519W        W33808  24.173  27.586   0.922
72520W        W33809  21.144  42.480   4.192
72521W        W33810   7.695   3.933  14.416
72522W        W33811  23.066   4.245  12.443
72523W        W33812   3.776  36.439  14.011
72524W        W33813   9.831   4.782   3.857
72525W        W33814  31.141  19.631  11.919
72526W        W33815  36.937  36.425  14.852
72527W        W33816  20.121  22.715  13.804
72528W        W33817  18.757   4.360   3.738
72529W        W33818   6.309  26.608  13.865
72530W        W33819  28.475  32.536   1.896
72531W        W33820  25.665   7.316   2.300
72532W        W33821  34.870  20.171  12.085
72533W        W33822  11.207   4.294  14.482
72534W        W33823   5.290  28.046   3.194
72535W        W33824  23.723  16.297   1.296
72536W        W33825  21.197  15.638  10.576
72537W        W33826  29.572  21.668   4.230
72538W        W33827  44.421  27.673  14.832
72539W        W33828  32.064   1.946  10.044
72540W        W33829  21.635  19.233   1.238
72541W        W33830  17.567  41.341   2.720
72542W        W33831  38.487  12.261   4.138
72543W        W33832  11.158  33.117   1.905
72544W        W33833  18.262  39.520   2.195
72545W        W33834  39.537   3.720   3.740
72546W        W33835  34.505   5.407   1.259
72547W        W33836  28.957  27.632  12.008
72548W        W33837  29.665  16.769  12.400
72549W        W33838  11.659  24.122   2.266
72550W        W33839  22.579  16.109  14.839
72551W        W33840  40.431  34.508  11.033
72552W        W33841  34.903  10.233   0.760
72553W        W33842  29.540  17.607  14.427
72554W        W33843  29.600  36.495   0.802
72555W        W33844  38.007  40.954   1.897
72556W        W33845  42.283  20.733   2.368
72557W        W33846  22.182  31.625  13.843
72558W        W33847  44.850   4.347   4.174
72559W        W33848   4.214   5.250  12.497
72560W        W33849   6.247  39.861  13.016
72561W        W33850  10.843  31.424  14.288
72562W        W33851   7.204  20.028   1.421
72563W        W33852   8.396  17.152   0.739
72564W        W33853  25.615  38.830   4.716
72565W        W33854  27.096  10.273  14.958
72566W        W33855  32.968  27.085  10.999
72567W        W33856  23.532  35.877   3.356
72568W        W33857  42.484   7.810   9.455
72569W        W33858  13.618  31.931  13.391
72570W        W33859  20.625  41.039   0.879
72571W        W33860  15.221  20.140   9.569
72572W        W33861  16.123  41.409   3.268
72573W        W33862  22.181   9.788  10.617
72574W        W33863  15.150  43.827  13.357
72575W        W33864  27.566  26.161  12.474
72576W        W33865  42.526  14.334   2.739
72577W        W33866  22.056  26.548  11.542
72578W        W33867  42.866   9.699  10.909
72579W        W33868  17.170   6.235   2.343
72580W        W33869  13.141  20.540   0.462
72581W        W33870  26.492  26.126  11.882
72582W        W33871   8.869  14.285   3.275
72583W        W33872   5.215  41.315   3.797
72584W        W33873  38.433   6.830  14.391
72585W        W33874  18.562  25.510   2.718
72586W        W33875  35.106  42.963   4.822
72587W        W33876   2.298  33.430   3.176
72588W        W33877  28.971   9.367  11.553
72589W        W33878  23.050  34.433   4.350
72590W        W33879  40.031  35.964  12.398
72591W        W33880  16.227  23.502   9.573
72592W        W33881  18.291  42.970  10.933
72593W        W33882  30.921  32.578  13.905
72594W        W33883   9.746   7.848  10.957
72595W        W33884   8.874  34.392  11.054
72596W        W33885  42.930  32.472  14.514
72597W        W33886  31.945  36.867   0.394
72598W        W33887  22.618  19.214   4.257
72599W        W33888  31.597  24.174   3.338
72600W        W33889  25.971  25.011  10.440
72601W        W33890  40.930  35.404   2.750
72602W        W33891  12.354  26.175   3.680
72603W        W33892  20.114  35.928   9.985
72604W        W33893  20.690   7.379   2.254
72605W        W33894   3.279  10.248  11.601
72606W        W33895  34.106  20.179   2.416
72607W        W33896  43.805  38.358   4.667
72608W        W33897  38.827  20.769  12.922
72609W        W33898  22.013   7.882   0.379
72610W        W33899  42.314  35.488  12.863
72611W        W33900  28.093  11.295  14.275
72612W        W33901  14.720  12.788  14.406
72613W        W33902  14.184  42.808  14.300
72614W        W33903  24.191   0.841   1.437
72615W        W33904  26.068   7.376   3.205
72616W        W33905  36.034  38.994  11.975
72617W        W33906  28.597  27.567  11.946
72618W        W33907  10.189  29.106  12.000
72619W        W33908  25.189  15.302  11.397
72620W        W33909  41.532  38.975  14.317
72621W        W33910  22.723  10.274   0.412
72622W        W33911  20.147  14.339   2.670
72623W        W33912  10.380  26.572   2.685
72624W        W33913  42.827  40.948  14.379
72625W        W33914  13.790  42.510  14.998
72626W        W33915   4.296  11.736  10.994
72627W        W33916  37.559   3.271   4.118
72628W        W33917   6.695  15.157   4.303
72629W        W33918  23.669  13.792  12.999
72630W        W33919   3.217  12.215   1.716
72631W        W33920   3.821   9.746  13.500
72632W        W33921   0.381   9.171   5.254
72633W        W33922  22.530  38.487  10.121
72634W        W33923  16.654   1.934   4.142
72635W        W33924  10.742  18.780  12.990
72636W        W33925  36.952  33.563   0.251
72637W        W33926   6.248  28.947  13.019
72638W        W33927  27.515   1.461  14.291
72639W        W33928   1.895  34.522   0.959
72640W        W33929  12.230  29.097  14.339
72641W        W33930  37.924   8.702   4.180
72642W        W33931  32.456   6.284   4.820
72643W        W33932  10.172  32.072  14.359
72644W        W33933  24.198  34.007   0.893
72645W        W33934  35.088   4.873  13.945
72646W        W33935  37.472  43.275   5.173
72647W        W33936  29.663  28.992   1.819
72648W        W33937  21.107  32.516  14.427
72649W        W33938   1.754  26.645  11.114
72650W        W33939   2.941  20.227   3.241
72651W        W33940   5.334  31.494   0.904
72652W        W33941   5.868   3.328   1.359
72653W        W33942  15.329  20.524  12.887
72654W        W33943   8.851  29.663  14.023
72655W        W33944  26.583  17.257   3.710
72656W        W33945   6.771   8.285   2.319
72657W        W33946   4.442  37.036   2.224
72658W        W33947  25.128  43.291   1.844
72659W        W33948   8.197   4.741   1.795
72660W        W33949  29.079  11.351   0.361
72661W        W33950  25.040  17.584   0.361
72662W        W33951  26.492  28.665   0.862
72663W        W33952  18.091  21.758  13.517
72664W        W33953  26.498  25.616  10.458
72665W        W33954  23.220  19.236  13.517
72666W        W33955  31.946  23.587  11.561
72667W        W33956  14.601  19.595   0.849
72668W        W33957   1.971  20.067   3.730
72669W        W33958   3.440  15.218  11.572
72670W        W33959  23.092   6.835   3.704
72671W        W33960   6.882  13.187  14.299
72672W        W33961  21.254   5.715  10.489
72673W        W33962  17.144  43.291   0.275
72674W        W33963  34.591  20.098   4.756
72675W        W33964  26.616  25.080   0.335
72676W        W33965  18.726  30.623  14.385
72677W        W33966  26.957  43.772  10.558
72678W        W33967   5.214   6.291   2.388
72679W        W33968  28.155  22.604  11.930
72680W        W33969  24.212  24.619  11.893
72681W        W33970  25.070  32.122  11.381
72682W        W33971  32.064  31.904  13.046
72683W        W33972  27.165  30.527   0.320
72684W        W33973   6.364  22.633  14.507
72685W        W33974  41.423   1.771   2.855
72686W        W33975  28.147  13.207   3.837
72687W        W33976  37.865  43.319  11.126
72688W        W33977  17.088  14.820  12.992
72689W        W33978  25.686  20.087  10.489
72690W        W33979   4.289  33.129   1.282
72691W        W33980  40.533  40.399   1.302
72692W        W33981  22.653  31.410  11.500
72693W        W33982  13.205  39.359   0.777
72694W        W33983   8.837  14.162   4.825
72695W        W33984   8.207  44.286  11.098
72696W        W33985  43.926  22.735  10.952
72697W        W33986  15.273  31.142   1.360
72698W        W33987  25.095  29.627  12.890
72699W        W33988   0.975  31.628  13.512
72700W        W33989  28.443  10.199   0.807
72701W        W33990  41.024  42.341   3.762
72702W        W33991   7.776  11.797   1.252
72703W        W33992  34.393  37.421  13.958
72704W        W33993  19.609  29.642  13.438
72705W        W33994  10.182  33.426   3.363
72706W        W33995   5.787   7.361  11.927
72707W        W33996  20.244  12.313  11.005
72708W        W33997   6.787  20.046   0.245
72709W        W33998   6.826  12.800  14.456
72710W        W33999  29.600  18.724   9.981
72711W        W34000  14.325  18.566  12.961
72712W        W34001  17.278   0.779   4.684
72713W        W34002  29.041  23.625   3.760
72714W        W34003   9.168   3.376  10.618
72715W        W34004   3.857  11.745   2.245
72716W        W34005  24.061  22.172   0.950
72717W        W34006  31.421  22.028   2.898
72718W        W34007  34.120  21.600  14.465
72719W        W34008  23.627   4.775   3.678
72720W        W34009  19.042  26.485  11.994
72721W        W34010  36.077   6.745  14.858
72722W        W34011  18.666  24.612   2.682
72723W        W34012  38.361   5.716  11.569
72724W        W34013   4.411  40.407  12.868
72725W        W34014  38.900  34.497  12.935
72726W        W34015  35.523  24.580  12.368
72727W        W34016  24.159  31.589   1.742
72728W        W34017   3.738  42.795  13.894
72729W        W34018  14.310  16.577  14.514
72730W        W34019  29.445  22.725   1.721
72731W        W34020  43.376  17.137  14.371
72732W        W34021  44.494  34.886  11.066
72733W        W34022  33.610   6.247  12.866
72734W        W34023  13.738  32.946   4.688
72735W        W34024  40.473  17.699   2.207
72736W        W34025  32.533   8.390  13.326
72737W        W34026  39.431   2.825  11.023
72738W        W34027  13.654  43.769   2.702
72739W        W34028  41.496  28.158   3.360
72740W        W34029  17.217  27.097  13.358
72741W        W34030  18.118  31.549  12.918
72742W        W34031  28.113  22.118  14.018
72743W        W34032  16.315   0.268   3.677
72744W        W34033   7.408  33.120  11.380
72745W        W34034  23.652  36.395   4.131
72746W        W34035   2.884  43.315  14.945
72747W        W34036  42.901  38.893  11.511
72748W        W34037  27.157  24.644  10.485
72749W        W34038  37.074  23.071   2.861
72750W        W34039   7.279  40.953   0.393
72751W        W34040  44.359  39.987   2.818
72752W        W34041  13.107  36.477   1.361
72753W        W34042  35.103  19.040   1.933
72754W        W34043  16.573  32.623  14.373
72755W        W34044   6.886   6.428   1.426
72756W        W34045   5.808   4.211  11.556
72757W        W34046  15.271  38.567  11.508
72758W        W34047  44.770  30.993   1.268
72759W        W34048  40.831   2.890  11.082
72760W        W34049  23.035  39.928  14.390
72761W        W34050   7.754  26.008  12.891
72762W        W34051  42.864   0.262  10.455
72763W        W34052   6.278  17.646  14.392
72764W        W34053  19.613  39.455  10.548
72765W        W34054  40.945  12.204  11.528
72766W        W34055  11.370  44.932   3.147
72767W        W34056  37.488  34.090  10.403
72768W        W34057  14.777  17.100  10.644
72769W        W34058   3.373  37.862   3.803
72770W        W34059  32.518  20.111   3.250
72771W        W34060  34.388  15.663  10.546
72772W        W34061  17.173  42.461   0.815
72773W        W34062  23.139  33.483   1.905
72774W        W34063  20.172   3.758   0.245
72775W        W34064  44.932  23.720  14.368
72776W        W34065  18.722  24.025  10.490
72777W        W34066  31.957  38.554   2.179
72778W        W34067   1.782  27.452   1.271
72779W        W34068  21.030  42.380   2.714
72780W        W34069  41.295  15.245  11.465
72781W        W34070  21.151   4.922  10.435
72782W        W34071  30.525  40.305   2.784
72783W        W34072  35.896  25.119  10.518
72784W        W34073  19.749  21.206   1.697
72785W        W34074  33.462  14.193   2.193
72786W        W34075   5.785  17.081  12.508
72787W        W34076  25.518  35.108   0.419
72788W        W34077   4.365  39.829   2.791
72789W        W34078   7.668   3.907   3.797
72790W        W34079  16.311  35.987   3.812
72791W        W34080  27.045  12.237  10.140
72792W        W34081  43.784  19.657  13.471
72793W        W34082  30.490   7.738   1.297
72794W        W34083  16.762   3.821   0.323
72795W        W34084   0.828  30.602  13.985
72796W        W34085  40.343  12.254  14.012
72797W        W34086  21.017  38.834   0.441
72798W        W34087   6.903   6.306   1.821
72799W        W34088  30.014   8.740   4.751
72800W        W34089  33.927   9.656   1.423
72801W        W34090  44.488  18.054  13.820
72802W        W34091  20.175   0.447  12.392
72803W        W34092  19.271  13.793   1.249
72804W        W34093  38.065   2.249  13.386
72805W        W34094  25.707   1.746   3.231
72806W        W34095  25.482   9.783  14.398
72807W        W34096   0.751  41.459   9.960
72808W        W34097  40.382  41.394   2.208
72809W        W34098  31.118  32.527   0.339
72810W        W34099  42.520  19.644  14.429
72811W        W34100  10.670  20.265   4.792
72812W        W34101  22.125   9.280  12.899
72813W        W34102  20.070  25.594   3.713
72814W        W34103   1.766  18.636   4.170
72815W        W34104  27.986  17.788  12.957
72816W        W34105  40.834   2.358  10.468
72817W        W34106  19.085  10.763   2.822
72818W        W34107  24.067  13.231   4.795
72819W        W34108  32.541   9.380   4.766
72820W        W34109   2.257  11.739  12.390
72821W        W34110   0.411  16.613   3.312
72822W        W34111   9.653  12.663   1.739
72823W        W34112  36.452  43.001   0.838
72824W        W34113   3.328  40.961   4.113
72825W        W34114  26.998  28.138   2.308
72826W        W34115   4.396  43.516  14.865
72827W        W34116  34.111  20.590   0.934
72828W        W34117  10.179  20.616  14.461
72829W        W34118  37.030  31.499  11.554
72830W        W34119  23.512   0.930  13.972
72831W        W34120  26.194  10.653  14.921
72832W        W34121  21.685  25.618  14.448
72833W        W34122  22.180  20.525  11.125
72834W        W34123  39.317  25.513   3.216
72835W        W34124  22.568  33.608  12.853
72836W        W34125  19.564  32.566  10.985
72837W        W34126   1.934  11.362  14.955
72838W        W34127  19.139  33.091  11.372
72839W        W34128  31.042   2.936   2.862
72840W        W34129  11.755   1.813  12.903
72841W        W34130  32.550  33.892   3.298
72842W        W34131  31.919  43.904  11.036
72843W        W34132  15.601   5.834  10.991
72844W        W34133  14.641   1.862  12.890
72845W        W34134  20.609  29.971   0.863
72846W        W34135  15.809  35.382  13.925
72847W        W34136   8.256  13.601  10.624
72848W        W34137  43.384   7.846   9.605
72849W        W34138   4.374  10.836   1.435
72850W        W34139  34.460  28.088  12.906
72851W        W34140  26.559  32.089  12.386
72852W        W34141  31.940  28.600   1.304
72853W        W34142   3.899  24.221   1.887
72854W        W34143  36.352  30.557   3.312
72855W        W34144  39.003  37.928   2.881
72856W        W34145  25.096  39.433  13.529
72857W        W34146  35.389   3.895  14.952
72858W        W34147  37.582  25.506   2.355
72859W        W34148   2.392  32.926  12.368
72860W        W34149   4.442  35.906  11.022
72861W        W34150  12.659  15.246   0.950
72862W        W34151  12.317  34.954   2.278
72863W        W34152   1.858  35.925   2.196
72864W        W34153  32.892  28.040  14.964
72865W        W34154  42.284   2.436  10.639
72866W        W34155  30.628  27.110  13.925
72867W        W34156  33.902   5.429   0.286
72868W        W34157  29.967  28.114   1.328
72869W        W34158  27.598  41.959   1.306
72870W        W34159  34.035  11.755  12.544
72871W        W34160   7.370  17.263   3.680
72872W        W34161  24.171  14.609   3.825
72873W        W34162  32.139  32.532  14.897
72874W        W34163  42.893  28.041   4.777
72875W        W34164   4.386  34.503  12.373
72876W        W34165  26.190  25.598  13.391
72877W        W34166   0.421  28.490   2.325
72878W        W34167  29.926  17.696  13.011
72879W        W34168   0.388   2.231  14.920
72880W        W34169   4.406  29.018  14.011
72881W        W34170  35.553   5.349   2.826
72882W        W34171  14.242  28.984   3.659
72883W        W34172  40.879  15.679  14.917
72884W        W34173   2.237  19.668  13.463
72885W        W34174  24.518   6.703   0.840
72886W        W34175  43.367  35.536  10.888
72887W        W34176  22.673  13.295  13.495
72888W        W34177  16.658  39.418  13.030
72889W        W34178  27.577  21.558  11.944
72890W        W34179  25.537  43.808   1.879
72891W        W34180  23.705  34.423  12.389
72892W        W34181  28.605  32.906  11.114
72893W        W34182  22.633  29.957  13.898
72894W        W34183  33.552  31.567   3.815
72895W        W34184  11.306  25.614   2.206
72896W        W34185   2.889  35.090   4.154
72897W        W34186  44.003  23.559  13.327
72898W        W34187  29.610  33.086   2.297
72899W        W34188  18.198  35.487  11.484
72900W        W34189   9.696  14.234   3.177
72901W        W34190  29.081  30.018  12.380
72902W        W34191   0.344  19.705   4.187
72903W        W34192   0.371   9.324   2.835
72904W        W34193  36.040  13.200   2.762
72905W        W34194  14.688  16.609   3.375
72906W        W34195   2.467   3.220  11.033
72907W        W34196  23.161  31.528  13.454
72908W        W34197   9.708  32.910  14.894
72909W        W34198  23.224  11.867  13.313
72910W        W34199  24.208  24.141  13.877
72911W        W34200  14.319   1.830  13.513
72912W        W34201  28.031  10.636   4.722
72913W        W34202   6.319   5.312  14.376
72914W        W34203  41.787  43.334   4.659
72915W        W34204   1.350  38.912   0.807
72916W        W34205  24.162   9.793   5.296
72917W        W34206  34.530  21.156   4.810
72918W        W34207  35.419   2.952  14.816
72919W        W34208  27.501   7.265   3.763
72920W        W34209  28.083  22.604   4.826
72921W        W34210  28.164   8.384  14.028
72922W        W34211  26.070  27.064   3.791
72923W        W34212  25.530   3.723  10.981
72924W        W34213  21.690  17.733   0.383
72925W        W34214  10.737  39.480  12.025
72926W        W34215  33.470  42.875  10.431
72927W        W34216   3.757  21.652   4.323
72928W        W34217  13.296  22.239  10.143
72929W        W34218  24.591  26.670   1.421
72930W        W34219   0.358  20.235   1.344
72931W        W34220  44.871   4.787   0.793
72932W        W34221  35.428  20.195  13.052
72933W        W34222  23.085  16.772   3.800
72934W        W34223  32.965  22.629   3.162
72935W        W34224  27.068  37.460  14.392
72936W        W34225   2.423   0.454   3.662
72937W        W34226  31.495  38.452   4.635
72938W        W34227   9.332  10.260   0.373
72939W        W34228  25.219  21.595   3.711
72940W        W34229  24.544  23.705   2.746
72941W        W34230  22.093  44.358   3.635
72942W        W34231  17.666  44.286  13.796
72943W        W34232  39.030  18.791   3.641
72944W        W34233  17.196  32.110   4.729
72945W        W34234  38.053  40.833   3.345
72946W        W34235  25.997  41.944   4.280
72947W        W34236   4.941  14.815  12.481
72948W        W34237  17.571  13.755   0.893
72949W        W34238  17.086  22.542  13.543
72950W        W34239  24.494   8.169   4.260
72951W        W34240  16.313  34.025  13.009
72952W        W34241   2.835  42.290   0.375
72953W        W34242  21.203  38.884  12.381
72954W        W34243   0.326  28.567  11.863
72955W        W34244   7.700  14.215  10.957
72956W        W34245  14.832  18.288   3.241
72957W        W34246  41.787  29.075   1.735
72958W        W34247  19.725  29.611  11.429
72959W        W34248  14.744  20.767   1.892
72960W        W34249  26.054   3.801  10.566
72961W        W34250  11.307   5.872   2.876
72962W        W34251   6.320  23.240  13.428
72963W        W34252  37.977  13.117  13.307
72964W        W34253  24.534  34.938   4.807
72965W        W34254   5.932  21.730   9.952
72966W        W34255   7.857  23.172  14.350
72967W        W34256  34.004  34.571   1.732
72968W        W34257  30.045   8.311   4.815
72969W        W34258  19.576  19.775   3.195
72970W        W34259   8.191   0.891   0.946
72971W        W34260   5.431  29.650  12.862
72972W        W34261  29.012  43.276   3.279
72973W        W34262   9.863  41.907  13.842
72974W        W34263   8.234  24.649   3.320
72975W        W34264   0.869  13.127   0.871
72976W        W34265  15.661   1.461  13.828
72977W        W34266  44.877   1.251  14.839
72978W        W34267  17.242  24.695  11.452
72979W        W34268   2.778  11.723   4.837
72980W        W34269   4.254   6.371   3.300
72981W        W34270  35.927  39.468   1.815
72982W        W34271  12.841   0.825   2.662
72983W        W34272  14.286  29.111  11.589
72984W        W34273  27.130  25.000   4.632
72985W        W34274  11.149   4.420  10.556
72986W        W34275  13.193  42.951   5.172
72987W        W34276   6.302  35.970   4.637
72988W        W34277   8.237  25.578  14.377
72989W        W34278  23.557   8.764  10.602
72990W        W34279  26.596  22.045  11.496
72991W        W34280  24.018  32.611  12.430
72992W        W34281   0.881  42.821   2.372
72993W        W34282   5.884  15.609  11.465
72994W        W34283  30.436  11.695   1.385
72995W        W34284  11.324  21.092  14.020
72996W        W34285  18.596  32.122   3.245
72997W        W34286  20.050   4.908   3.334
72998W        W34287   9.211  35.549  12.550
72999W        W34288  28.041  28.029  11.992
73000W        W34289  38.840  44.486   0.744
73001W        W34290   9.850  38.521  10.634
73002W        W34291   2.886   2.242  12.038
73003W        W34292  20.604  17.239   1.819
73004W        W34293  18.078  14.632  13.027
73005W        W34294  31.571   2.782  13.354
73006W        W34295  22.579  29.953   2.302
73007W        W34296  34.608   7.752   4.733
73008W        W34297  17.086  25.093  10.503
73009W        W34298   3.215  13.283  14.863
73010W        W34299  31.486  27.575  11.597
73011W        W34300   7.233   7.861  12.507
73012W        W34301  37.868  22.734   0.347
73013W        W34302  40.042  18.638   3.364
73014W        W34303   5.234   3.828   1.378
73015W        W34304  38.982  18.230  14.970
73016W        W34305  20.761  37.560  13.474
73017W        W34306  29.988  20.169  13.039
73018W        W34307  31.494  22.198  12.471
73019W        W34308  10.754   0.393  11.886
73020W        W34309  27.132  43.487   1.242
73021W        W34310  18.639  23.698  12.385
73022W        W34311   5.261  42.015   0.911
73023W        W34312  34.457  11.657  12.459
73024W        W34313  39.003  34.439  11.107
73025W        W34314  19.660  17.786   4.299
73026W        W34315   8.354  35.090  11.955
73027W        W34316  17.278  41.907   1.868
73028W        W34317  38.424   2.327   3.317
73029W        W34318  42.803  19.615   3.675
73030W        W34319   5.784  35.860  12.548
73031W        W34320  24.575  13.318   3.686
73032W        W34321  22.567  12.337  13.034
73033W        W34322  30.556  23.559  14.375
73034W        W34323  35.005  41.022  11.934
73035W        W34324   2.761   9.721  11.590
73036W        W34325  28.533   6.884   0.783
73037W        W34326   4.424  34.964  10.479
73038W        W34327   3.264  30.437  12.557
73039W        W34328   0.429  40.371  13.440
73040W        W34329  26.113   0.977  13.849
73041W        W34330  29.040   6.756  10.964
73042W        W34331  28.130  28.650  11.021
73043W        W34332  44.487  11.772  11.898
73044W        W34333   6.239  31.996   0.758
73045W        W34334  36.090  41.343  14.862
73046W        W34335  32.467   6.204   2.746
73047W        W34336  38.913   6.775   2.292
73048W        W34337   8.788   1.391  12.030
73049W        W34338  34.552  22.063   1.800
73050W        W34339  14.663  30.571  13.918
73051W        W34340  32.459  37.580   3.288
73052W        W34341  27.469  30.058   0.246
73053W        W34342  26.167  35.461   3.825
73054W        W34343  33.422  32.952   4.150
73055W        W34344  16.077  35.936  14.874
73056W        W34345  28.130  40.418  10.449
73057W        W34346   2.339   3.764   4.301
73058W        W34347  33.906  33.618   2.899
73059W        W34348  18.656  25.978  10.432
73060W        W34349  33.959   6.209  10.011
73061W        W34350  41.908  18.236  11.104
73062W        W34351  34.370  15.186  11.427
73063W        W34352  40.930  15.291   2.411
73064W        W34353   8.878  22.518   1.390
73065W        W34354  24.507  30.515  12.530
73066W        W34355   5.365  11.679  12.455
73067W        W34356   9.817  29.653  13.797
73068W        W34357   0.342  29.598   4.762
73069W        W34358  19.693  16.225   1.728
73070W        W34359  17.600   7.226   4.191
73071W        W34360   4.758  41.328  12.451
73072W        W34361  28.678  18.659   0.908
73073W        W34362   6.295  16.137  11.948
73074W        W34363  30.918   0.488   4.802
73075W        W34364  38.393  34.381   3.202
73076W        W34365   4.805   8.224  14.763
73077W        W34366  13.762  17.756   2.257
73078W        W34367  20.041  16.265  12.925
73079W        W34368  29.004  39.442   1.371
73080W        W34369  42.502  43.805   1.341
73081W        W34370  25.075  17.248  13.355
73082W        W34371  11.762   6.681   4.212
73083W        W34372  23.984  30.600   1.770
73084W        W34373  11.216  21.208  13.485
73085W        W34374  11.650  11.851   5.118
73086W        W34375  18.590   1.267   4.326
73087W        W34376  28.175  35.949  13.919
73088W        W34377  11.274  27.462   1.759
73089W        W34378  12.689   8.852  10.635
73090W        W34379  38.987  32.068  10.063
73091W        W34380  17.713  30.970  13.497
73092W        W34381  42.479  33.465  14.914
73093W        W34382  44.496  33.108   1.773
73094W        W34383   5.321  28.513   2.712
73095W        W34384  32.416  35.057   1.756
73096W        W34385   5.905  18.666  10.420
73097W        W34386  43.397  10.820  14.455
73098W        W34387   2.724  44.859   0.252
73099W        W34388  27.947  35.572   4.735
73100W        W34389  29.929  21.135   3.311
73101W        W34390  23.011  12.117   2.361
73102W        W34391  36.531   3.374   3.335
73103W        W34392  39.983  31.917  14.476
73104W        W34393  16.679  37.893   1.709
73105W        W34394   4.412  22.219   0.922
73106W        W34395  11.648   5.244  13.014
73107W        W34396  28.160  20.618   2.735
73108W        W34397  34.893  11.323   3.762
73109W        W34398  35.386  20.659   2.707
73110W        W34399  14.711  16.270  13.536
73111W        W34400  30.955  34.455  12.519
73112W        W34401  33.880   8.794   3.691
73113W        W34402  39.062   1.403   1.266
73114W        W34403  41.845  19.732  13.035
73115W        W34404  25.591  42.440   2.850
73116W        W34405  40.309  12.300  10.969
73117W        W34406  34.581   7.806   0.379
73118W        W34407   2.764  12.789   2.226
73119W        W34408  13.610  18.074   0.953
73120W        W34409  34.469  27.018   4.207
73121W        W34410  31.420  41.935  10.513
73122W        W34411  35.075  16.706  11.443
73123W        W34412   4.742  14.212   0.247
73124W        W34413  43.813  42.897  14.961
73125W        W34414  14.282  14.753  10.557
73126W        W34415  20.666  36.483  10.422
73127W        W34416   3.769  44.816  13.511
73128W        W34417   8.737  32.499  11.488
73129W        W34418  12.338  44.459   0.332
73130W        W34419   1.909  30.619  11.373
73131W        W34420   7.305   8.749   3.639
73132W        W34421  39.467   3.760   0.882
73133W        W34422  12.246   7.389  12.840
73134W        W34423  42.903  14.679   0.960
73135W        W34424  17.685  15.742  10.629
73136W        W34425  44.352   1.360   1.712
73137W        W34426   2.741  30.484  13.345
73138W        W34427  28.447  39.809   4.624
73139W        W34428  20.204  37.528   0.427
73140W        W34429  12.826  37.037   3.721
73141W        W34430  18.252  35.580   2.729
73142W        W34431  39.865  22.547  12.019
73143W        W34432  24.558  39.045  10.511
73144W        W34433  13.276   5.260  14.440
73145W        W34434  16.091   9.730  10.929
73146W        W34435  19.202  31.558  10.553
73147W        W34436  44.501  34.005   4.168
73148W        W34437  24.627  20.104  13.931
73149W        W34438   0.803  44.968  12.392
73150W        W34439  37.460   7.313   1.926
73151W        W34440   7.318   6.804  10.558
73152W        W34441  12.189   5.417   0.366
73153W        W34442  40.351  40.419  11.900
73154W        W34443  39.946   3.435  13.986
73155W        W34444   5.205   4.806   0.821
73156W        W34445  33.458  24.161  11.477
73157W        W34446  29.968  32.415  14.464
73158W        W34447  28.002  23.696   1.828
73159W        W34448  41.328  24.682   4.199
73160W        W34449  31.593   1.824  11.031
73161W        W34450  27.676   7.362   2.746
73162W        W34451  18.702  44.840   2.859
73163W        W34452   3.943  31.153  14.409
73164W        W34453  29.466  34.921  12.411
73165W        W34454   5.759  31.469   4.300
73166W        W34455  28.994   2.787  14.359
73167W        W34456  30.954  40.878   2.180
73168W        W34457  18.126   0.365   4.116
73169W        W34458   9.651  21.122   3.326
73170W        W34459  26.020  43.413   4.267
73171W        W34460  42.333  33.132  13.911
73172W        W34461  11.144  12.700  11.880
73173W        W34462  41.314   8.299  10.135
73174W        W34463   6.922  38.350   4.233
73175W        W34464  23.510   2.870  10.925
73176W        W34465  28.941  23.229   0.860
73177W        W34466  17.702  20.582  14.448
73178W        W34467  23.031  30.965  14.806
73179W        W34468   8.402   4.940   4.711
73180W        W34469  41.403   2.832  10.580
73181W        W34470  38.338  20.210   2.347
73182W        W34471  13.746  25.189  12.953
73183W        W34472  42.449   9.193  14.929
73184W        W34473   1.313  17.747   4.118
73185W        W34474   0.393   6.775   2.759
73186W        W34475  27.584  21.068  11.014
73187W        W34476   6.719  37.438  12.989
73188W        W34477  31.616   5.294   0.928
73189W        W34478  27.111  33.469  11.128
73190W        W34479   9.670  44.467   1.804
73191W        W34480  10.315  13.839  11.907
73192W        W34481  10.721  32.967  11.532
73193W        W34482  19.639  14.707  12.849
73194W        W34483  16.180  23.182   3.860
73195W        W34484  14.771  19.071   9.983
73196W        W34485  12.131   3.410   9.967
73197W        W34486   5.741  39.050  14.803
73198W        W34487   2.301  42.368  12.840
73199W        W34488  22.214  29.592  14.784
73200W        W34489  39.878  36.869  13.370
73201W        W34490  24.025   5.240  14.998
73202W        W34491  37.920  11.753   0.954
73203W        W34492  14.112   9.315   2.791
73204W        W34493  38.067  17.670   3.735
73205W        W34494   4.349  13.227  14.962
73206W        W34495  15.794   8.793  13.900
73207W        W34496  21.149  16.567  11.585
73208W        W34497  27.099  11.154   4.617
73209W        W34498  29.552  33.124  12.095
73210W        W34499  15.691  21.650  11.071
73211W        W34500  28.065  40.465   0.465
73212W        W34501  19.221  43.272   0.256
73213W        W34502  17.280  13.614   4.800
73214W        W34503  13.152  30.527  11.408
73215W        W34504  39.896  12.185   1.404
73216W        W34505   7.677  27.195   1.249
73217W        W34506  34.876  21.240   4.716
73218W        W34507   8.660   9.688  12.946
73219W        W34508  21.617  44.315   1.752
73220W        W34509   0.874  27.045  12.856
73221W        W34510   0.294  34.051  11.988
73222W        W34511  24.572  34.393  14.853
73223W        W34512  25.065  32.945  11.478
73224W        W34513  22.156  30.628   3.868
73225W        W34514  36.992  24.684  13.991
73226W        W34515  15.089  30.958  11.471
73227W        W34516  40.419  40.901  13.975
73228W        W34517   5.696  14.753  13.998
73229W        W34518  26.061  11.234   0.872
73230W        W34519  18.746  21.120  10.921
73231W        W34520  34.013  18.183  13.375
73232W        W34521  11.269  12.186  14.846
73233W        W34522  35.556  15.792  11.431
73234W        W34523  17.126   1.308   3.786
73235W        W34524   9.391  25.640  12.571
73236W        W34525  27.552  36.947  14.845
73237W        W34526   4.263  20.545  12.575
73238W        W34527  29.578  35.959  11.448
73239W        W34528  29.041  32.029   1.248
73240W        W34529  39.519  30.593  14.766
73241W        W34530  15.608  30.964   3.175
73242W        W34531  38.453  40.422   2.196
73243W        W34532  31.054  33.088   1.804
73244W        W34533  15.677  20.115  12.473
73245W        W34534  33.893  10.342   4.219
73246W        W34535   3.421  43.994   0.320
73247W        W34536   1.910   7.821   0.434
73248W        W34537  28.442  20.689  13.441
73249W        W34538  17.769  34.886   3.263
73250W        W34539  36.499   9.241  12.849
73251W        W34540  34.886  22.531   3.309
73252W        W34541  27.529   5.918  11.564
73253W        W34542  30.432  39.427  13.346
73254W        W34543  10.685   8.740   1.864
73255W        W34544  23.985  24.136  10.980
73256W        W34545  23.062  10.839   2.848
73257W        W34546  38.447   7.246   2.366
73258W        W34547  28.436  14.095  12.004
73259W        W34548  18.647  14.339  11.563
73260W        W34549  34.444  44.266  14.011
73261W        W34550  44.857  28.488   0.353
73262W        W34551  32.133  40.384  12.973
73263W        W34552  42.294  11.740  13.533
73264W        W34553  41.865   2.441  13.449
73265W        W34554  16.250  26.551   4.123
73266W        W34555  27.027  15.265  11.055
73267W        W34556   6.417  34.109  14.340
73268W        W34557  20.685  17.699  11.493
73269W        W34558   9.378  19.685   2.717
73270W        W34559  16.762  41.788   3.680
73271W        W34560  24.199  13.332  13.370
73272W        W34561  35.026  17.601   0.465
73273W        W34562  31.595  39.396   2.211
73274W        W34563  11.347  34.585   2.689
73275W        W34564  13.281   5.876   4.124
73276W        W34565  19.539  22.113  12.972
73277W        W34566  33.890  28.483  10.960
73278W        W34567   8.222  16.684  12.444
73279W        W34568  29.146  32.943   2.308
73280W        W34569  21.552  25.195  14.937
73281W        W34570   9.196  37.528  12.842
73282W        W34571  35.974  16.627  10.003
73283W        W34572  38.503  44.336  14.444
73284W        W34573  32.121  30.415  14.980
73285W        W34574   1.944   1.771   0.740
73286W        W34575   9.285  43.870   2.265
73287W        W34576  18.059  29.158  14.333
73288W        W34577  17.210  43.963  12.855
73289W        W34578  21.694  29.168   2.869
73290W        W34579  21.104  29.131  10.128
73291W        W34580  31.916   0.473   1.868
73292W        W34581  18.202  43.382  13.968
73293W        W34582   4.257   0.274   2.849
73294W        W34583  32.123   8.336  10.530
73295W        W34584  25.630  42.358  12.513
73296W        W34585  24.713  44.989  10.938
73297W        W34586   4.374  17.074  13.049
73298W        W34587  37.011  37.362  11.415
73299W        W34588  39.512  13.755  11.479
73300W        W34589  38.951  35.860  11.401
73301W        W34590  41.795  21.665   0.918
73302W        W34591   9.715   5.852   2.301
73303W        W34592  24.110  34.374   1.237
73304W        W34593   6.250  21.248   3.696
73305W        W34594  30.138  40.054  14.967
73306W        W34595  19.199  18.063   1.304
73307W        W34596  17.071  38.460   1.881
73308W        W34597  24.176  19.275   4.765
73309W        W34598  23.710  25.038   1.703
73310W        W34599   4.407  42.997   0.404
73311W        W34600  22.170  26.034   4.665
73312W        W34601   7.290  16.680   1.231
73313W        W34602  43.429   6.283   0.893
73314W        W34603  43.461  32.075   4.681
73315W        W34604   1.316   8.740   4.350
73316W        W34605  11.317  13.630  10.917
73317W        W34606  15.153  32.896   4.791
73318W        W34607  11.231  28.123  14.331
73319W        W34608  27.107  31.970   0.248
73320W        W34609  13.706  43.852  11.988
73321W        W34610   8.890  27.649  10.058
73322W        W34611  44.895  39.032  11.504
73323W        W34612   9.373  32.464  13.481
73324W        W34613  10.824  36.537   4.350
73325W        W34614   9.166   0.788   2.781
73326W        W34615   1.390   4.728  14.323
73327W        W34616  40.908   2.931  10.606
73328W        W34617  26.160  18.689  11.590
73329W        W34618  10.812   1.359   2.767
73330W        W34619  19.107  21.634   4.752
73331W        W34620   2.425  27.065  10.963
73332W        W34621   3.261   7.703   3.295
73333W        W34622  43.400  41.943   4.128
73334W        W34623  26.129  34.051  12.880
73335W        W34624  32.562  42.939  13.998
73336W        W34625  37.921   4.278   1.758
73337W        W34626  37.057  10.324   2.250
73338W        W34627  20.158  28.554   0.782
73339W        W34628  15.088  23.195   3.841
73340W        W34629  42.008  40.995   0.775
73341W        W34630  12.339  21.647   3.204
73342W        W34631  19.670  26.069   4.738
73343W        W34632  30.041  38.031  12.408
73344W        W34633   9.766  27.607   3.785
73345W        W34634  28.670  11.750   9.461
73346W        W34635  42.374  20.757  12.565
73347W        W34636   1.408   6.900  11.012
73348W        W34637   8.674  30.937   3.857
73349W        W34638   7.860  38.398   4.218
73350W        W34639  36.018  37.938   4.167
73351W        W34640  20.246  22.249   2.701
73352W        W34641  38.433  35.568   0.865
73353W        W34642  16.181   8.265   4.813
73354W        W34643  28.468   9.375   0.292
73355W        W34644  32.506  21.146   2.884
73356W        W34645  11.823   4.929  14.935
73357W        W34646  12.308  11.752  11.375
73358W        W34647  21.582   6.799  10.623
73359W        W34648  13.798  26.494  11.942
73360W        W34649  38.926  32.886  10.888
73361W        W34650  40.463  37.909  14.382
73362W        W34651  12.273  23.624   0.803
73363W        W34652  31.005  44.440   5.234
73364W        W34653   5.393  32.131  12.347
73365W        W34654  14.156   9.672  14.292
73366W        W34655  11.235  30.444   2.836
73367W        W34656  31.544  21.613  11.984
73368W        W34657   5.432  21.521   3.838
73369W        W34658  36.442  22.514   0.884
73370W        W34659   8.405  35.054   3.865
73371W        W34660  18.205  23.052  13.804
73372W        W34661   1.429  35.600  14.355
73373W        W34662  34.882  19.072  13.437
73374W        W34663   8.173  12.250   2.793
73375W        W34664  33.406  33.968   1.719
73376W        W34665  24.608  40.414   3.714
73377W        W34666  37.450  12.224  13.962
73378W        W34667  23.727  13.709   0.799
73379W        W34668  40.852  44.910   3.830
73380W        W34669  15.744  17.184   4.786
73381W        W34670   1.271  28.145   4.837
73382W        W34671  18.106   8.238  14.990
73383W        W34672  13.340  34.387  14.987
73384W        W34673  44.444   4.434   1.234
73385W        W34674  28.934  31.978   0.453
73386W        W34675  19.185  17.061  13.951
73387W        W34676  38.431  44.396   1.851
73388W        W34677   8.250  26.635   2.248
73389W        W34678   9.277  38.949  11.879
73390W        W34679  18.717   8.697   2.399
73391W        W34680   0.922  35.856  10.637
73392W        W34681   2.298   6.268  14.935
73393W        W34682   7.250  37.442   1.853
73394W        W34683  13.626  10.308   1.844
73395W        W34684  28.163  24.130  11.890
73396W        W34685  14.656   5.391   4.718
73397W        W34686  25.682  28.053   1.793
73398W        W34687   7.195  38.852  10.480
73399W        W34688  14.233  15.194   1.310
73400W        W34689  40.018   5.805   4.265
73401W        W34690  32.465  20.757  13.351
73402W        W34691  34.409  16.309   2.239
73403W        W34692  29.526   5.384  11.015
73404W        W34693  39.433  23.041  12.989
73405W        W34694   0.438  12.754   3.250
73406W        W34695  11.800   0.776   0.888
73407W        W34696  21.628  32.587   4.178
73408W        W34697   5.915  29.536  14.821
73409W        W34698  11.825  41.500  14.009
73410W        W34699   4.801  36.053  12.528
73411W        W34700  25.696   4.397   3.333
73412W        W34701  27.050   8.827  14.411
73413W        W34702  22.109  42.343  14.408
73414W        W34703  13.154  11.131  13.400
73415W        W34704   2.320  27.004  13.503
73416W        W34705  17.755   3.851  13.409
73417W        W34706  39.902  35.565   0.478
73418W        W34707   8.297  21.190   5.253
73419W        W34708  36.965   7.812   4.687
73420W        W34709  32.512  34.375   4.736
73421W        W34710   2.239  24.639   2.741
73422W        W34711  22.558  37.962  13.847
73423W        W34712   0.349   1.900   1.792
73424W        W34713  31.153  11.696  12.455
73425W        W34714  30.463  21.569   3.710
73426W        W34715  43.957  14.191  10.472
73427W        W34716  41.958  17.768  13.056
73428W        W34717  41.461  40.854  11.513
73429W        W34718  42.366  27.678  12.973
73430W        W34719  21.166  44.288  14.907
73431W        W34720  32.463  12.656   2.268
73432W        W34721  33.489  27.176  12.026
73433W        W34722  39.937  27.132   0.845
73434W        W34723   2.827  15.099  13.436
73435W        W34724  35.505  16.797  12.419
73436W        W34725  18.127  18.244   0.337
73437W        W34726  18.071  24.635   4.659
73438W        W34727  33.085  44.755   2.702
73439W        W34728  40.853   2.901  12.094
73440W        W34729  41.799  33.067   4.248
73441W        W34730  11.176  30.930   4.343
73442W        W34731  41.879  10.843  10.596
73443W        W34732  29.476  24.684   0.938
73444W        W34733   0.458  25.628  13.393
73445W        W34734   6.817  18.190   2.828
73446W        W34735  23.125  16.223  14.951
73447W        W34736  38.915  14.151  14.289
73448W        W34737   2.243   6.886   2.689
73449W        W34738   8.343  30.980  14.760
73450W        W34739  39.900  23.584  12.494
73451W        W34740  33.391  26.578  12.990
73452W        W34741   6.778   8.272  13.477
73453W        W34742  44.275   1.467  13.536
73454W        W34743  16.620  13.765  14.817
73455W        W34744  39.397  21.612   4.679
73456W        W34745  15.286  32.954  10.611
73457W        W34746   9.693  29.105  12.976
73458W        W34747  31.057   7.671  11.065
73459W        W34748  24.172  44.863   1.267
73460W        W34749   0.885   0.350   3.334
73461W        W34750   2.878  10.325   3.206
73462W        W34751   8.361  33.599  11.412
73463W        W34752  44.865  27.494   2.899
73464W        W34753  18.583  16.266   4.220
73465W        W34754  14.674  22.704   2.416
73466W        W34755   5.920  40.916   2.662
73467W        W34756  19.702  25.070   9.924
73468W        W34757  33.980   8.205   4.241
73469W        W34758  17.750  26.207   4.166
73470W        W34759   3.948  21.640  10.482
73471W        W34760  17.615  10.248   0.401
73472W        W34761  38.398  27.527   4.631
73473W        W34762  30.534  29.570  10.441
73474W        W34763  26.200  14.652  10.616
73475W        W34764  15.598  37.864   3.201
73476W        W34765  18.155  35.856   2.275
73477W        W34766  32.023  20.256  12.070
73478W        W34767  20.746  43.980  11.894
73479W        W34768  18.725  28.178  11.116
73480W        W34769  10.863  37.531   4.348
73481W        W34770  25.025  33.484   4.161
73482W        W34771  21.028  28.031   2.186
73483W        W34772  36.015  16.163  10.975
73484W        W34773  39.414   5.401  11.446
73485W        W34774  20.661  41.924   0.873
73486W        W34775   8.195  38.440  14.426
73487W        W34776   1.314  40.999  13.415
73488W        W34777  25.002  43.823   3.374
73489W        W34778  25.498  12.172  13.541
73490W        W34779  24.479   2.438  11.420
73491W        W34780  42.282   0.855  11.012
73492W        W34781  33.559   5.903  10.537
73493W        W34782  13.844  34.919  11.984
73494W        W34783  28.480   1.480   0.288
73495W        W34784  28.085  16.106   2.217
73496W        W34785   8.766   1.919   1.925
73497W        W34786  21.755  28.059   0.383
73498W        W34787  27.569  40.830   0.871
73499W        W34788  37.488  38.901  14.339
73500W        W34789  11.332  31.143  14.470
73501W        W34790  18.612   1.299   3.855
73502W        W34791  10.382  23.136  12.433
73503W        W34792   6.919   2.291  10.559
73504W        W34793   1.299  11.369  10.126
73505W        W34794  26.016  24.172   2.287
73506W        W34795   9.249  27.668   1.240
73507W        W34796  44.267  43.421   3.167
73508W        W34797  21.673  18.571   0.315
73509W        W34798  26.987  39.887  14.504
73510W        W34799  39.864   6.260  13.932
73511W        W34800  27.115  33.078  11.530
73512W        W34801  21.675  32.409   1.800
73513W        W34802  43.957  43.417  14.396
73514W        W34803   0.805   2.933   0.928
73515W        W34804  38.905   4.283  13.821
73516W        W34805  44.773  35.951  13.514
73517W        W34806   8.232  18.619   4.157
73518W        W34807  12.197  28.649  11.915
73519W        W34808   6.189  14.769  13.525
73520W        W34809  26.697  42.476  14.934
73521W        W34810  29.107  27.192  13.832
73522W        W34811  29.563  18.786  14.463
73523W        W34812  14.794  32.416  13.006
73524W        W34813  15.165  23.162  10.986
73525W        W34814  20.594  15.818  11.383
73526W        W34815  16.580  26.109  12.859
73527W        W34816   5.864  28.662   3.804
73528W        W34817  22.741  20.190   2.691
73529W        W34818   8.733  20.739   0.880
73530W        W34819  27.463   8.283   2.227
73531W        W34820  19.668   2.404   4.733
73532W        W34821  13.245  39.972  11.007
73533W        W34822  15.159   2.243   0.262
73534W        W34823   3.417  40.536   1.702
73535W        W34824   1.313  36.379   2.245
73536W        W34825  19.192  14.145  12.486
73537W        W34826  32.433  14.621   4.220
73538W        W34827  13.644  13.609  11.515
73539W        W34828   9.294  37.358  10.542
73540W        W34829  29.041   4.223   2.692
73541W        W34830  28.619  27.625  13.396
73542W        W34831   9.775  18.554  14.822
73543W        W34832  37.520  34.519  10.941
73544W        W34833   1.440  38.357  13.895
73545W        W34834  25.195  37.363   4.762
73546W        W34835  27.606  39.549  13.857
73547W        W34836  34.437  40.414   0.860
73548W        W34837  43.464  32.437   2.207
73549W        W34838   5.359  10.204  13.463
73550W        W34839  20.549  15.304   3.656
73551W        W34840   6.198  12.311   3.314
73552W        W34841  40.915   8.397   3.319
73553W        W34842  19.176  25.706   3.234
73554W        W34843  35.996  14.238  14.435
73555W        W34844  17.759   9.284  14.379
73556W        W34845  15.674   1.922   4.246
73557W        W34846   3.379  16.121   4.725
73558W        W34847  35.095  27.951   2.784
73559W        W34848  19.184  35.600   0.948
73560W        W34849  33.615  37.882  13.945
73561W        W34850  33.125  32.908  11.411
73562W        W34851  21.093  18.716   4.236
73563W        W34852  39.926   3.798   4.614
73564W        W34853  39.344   7.361  13.816
73565W        W34854   0.791  30.479   1.320
73566W        W34855  40.514  29.152  12.955
73567W        W34856  13.279  20.572  11.415
73568W        W34857  14.697  27.642   1.398
73569W        W34858   0.772  38.381   0.915
73570W        W34859   0.314  17.759  12.031
73571W        W34860  40.982  30.452  13.793
73572W        W34861  12.188  40.402  13.510
73573W        W34862   0.425  29.502   1.441
73574W        W34863   0.792  41.019   3.159
73575W        W34864   9.164  25.120  11.114
73576W        W34865   5.898   2.271  10.602
73577W        W34866  20.176  22.618  10.532
73578W        W34867  28.667   7.363  14.361
73579W        W34868  42.861  24.632   0.286
73580W        W34869   9.813  13.221  10.943
73581W        W34870  23.160  14.771   0.737
73582W        W34871  28.516  16.237  12.550
73583W        W34872  15.093  18.578  12.370
73584W        W34873  21.236  36.546  13.375
73585W        W34874  17.129  13.824  12.380
73586W        W34875  13.191  17.714   2.229
73587W        W34876   3.347  23.190   3.763
73588W        W34877  38.932  30.070  14.408
73589W        W34878  12.242  33.068  13.007
73590W        W34879  39.433  39.326  14.851
73591W        W34880  42.943  31.008   1.438
73592W        W34881  14.796  16.572  12.400
73593W        W34882   0.307  28.111   1.745
73594W        W34883   2.781  10.717   2.871
73595W        W34884  11.220  36.386   0.437
73596W        W34885   4.812  29.477  13.885
73597W        W34886  20.613  15.123   4.323
73598W        W34887  43.822  15.231  11.068
73599W        W34888  11.865  38.980  13.316
73600W        W34889  42.949  17.785   0.358
73601W        W34890  20.622   2.876   2.326
73602W        W34891  20.180  43.295   1.254
73603W        W34892   4.257  41.864   3.868
73604W        W34893  28.960  24.580  11.589
73605W        W34894  17.585  27.124   0.726
73606W        W34895  23.219  18.776  13.437
73607W        W34896  35.976  17.708  13.483
73608W        W34897  32.120   7.319   3.158
73609W        W34898  27.509  40.820  13.341
73610W        W34899  34.976   4.243  14.438
73611W        W34900  24.007  22.169   0.309
73612W        W34901  22.747  27.947   0.963
73613W        W34902  34.586  34.091  10.406
73614W        W34903  32.442  22.029  10.511
73615W        W34904  15.732  35.416  14.501
73616W        W34905  33.564  22.234  13.440
73617W        W34906  18.611  26.559  14.960
73618W        W34907  16.209  31.987   1.296
73619W        W34908   4.425   7.861   0.447
73620W        W34909  21.695  14.704  11.987
73621W        W34910   7.676  29.499  14.952
73622W        W34911  22.736  11.327  10.427
73623W        W34912  44.882  26.525  12.405
73624W        W34913  41.402   6.396  12.510
73625W        W34914  33.427  29.989   4.755
73626W        W34915   9.257   2.363  11.501
73627W        W34916  16.720  24.661  13.432
73628W        W34917  36.542  29.992   4.792
73629W        W34918   2.809  27.521   2.786
73630W        W34919  33.510   6.790  11.509
73631W        W34920  11.173  40.932  12.399
73632W        W34921   1.304  21.740   2.330
73633W        W34922  33.076  22.074  11.962
73634W        W34923  41.008  21.558  10.443
73635W        W34924  16.153  17.143  11.878
73636W        W34925  26.693   4.440   9.940
73637W        W34926  14.735  30.094   1.893
73638W        W34927  20.749  36.390   1.406
73639W        W34928  42.894  10.329   4.231
73640W        W34929  31.405  15.320  11.972
73641W        W34930  25.060  30.621   4.116
73642W        W34931  20.630   6.220   4.762
73643W        W34932  43.924  33.470   1.348
73644W        W34933  42.867   4.384   4.786
73645W        W34934  21.195   2.394  11.008
73646W        W34935  43.301   3.805   3.772
73647W        W34936   1.251  34.064  10.922
73648W        W34937  32.930   7.791   0.956
73649W        W34938   6.296  39.962  14.905
73650W        W34939   1.934  28.091   4.655
73651W        W34940  26.665   4.388   3.168
73652W        W34941  22.012  32.972  12.023
73653W        W34942   8.898  35.907   0.869
73654W        W34943  17.249  31.020  10.557
73655W        W34944  42.957  30.068   4.648
73656W        W34945  16.605  19.713   4.614
73657W        W34946  38.867  25.188  12.550
73658W        W34947  39.033   0.310  11.543
73659W        W34948  13.735   6.248  12.354
73660W        W34949   1.946   2.397   1.696
73661W        W34950  40.431  31.419   4.805
73662W        W34951  33.945  37.570   3.253
73663W        W34952  19.724  22.094   1.702
73664W        W34953   7.224  25.118   0.738
73665W        W34954  27.453  18.707   1.705
73666W        W34955  30.543  37.903   0.463
73667W        W34956  26.661   5.748   2.406
73668W        W34957   6.765  11.311  14.303
73669W        W34958   6.231  44.932   2.767
73670W        W34959  27.541   4.378  11.115
73671W        W34960  10.808   1.864  13.865
73672W        W34961  21.579  40.330   4.780
73673W        W34962  30.980  37.400   2.266
73674W        W34963   0.293  19.136  14.867
73675W        W34964  26.971   6.428  11.055
73676W        W34965  19.105  11.649   1.876
73677W        W34966   0.825  21.678   0.933
73678W        W34967   2.905  44.946  10.931
73679W        W34968  26.490  34.455   3.253
73680W        W34969  34.890   1.481  14.374
73681W        W34970  27.102  27.543  14.908
73682W        W34971  20.596  43.383  14.406
73683W        W34972   0.289   3.324   3.735
73684W        W34973  15.822  38.448   1.796
73685W        W34974   4.358  18.647  14.340
73686W        W34975  41.953   8.795   1.868
73687W        W34976  28.044   8.740   1.233
73688W        W34977  23.721  42.965   4.724
73689W        W34978  32.538  39.501  14.924
73690W        W34979  32.407   8.869  11.529
73691W        W34980  19.072  21.090  14.291
73692W        W34981  26.641  39.519   4.645
73693W        W34982  34.591  24.136  12.358
73694W        W34983   2.899   6.823  12.985
73695W        W34984  30.631  11.301  11.552
73696W        W34985  20.270  10.648  10.625
73697W        W34986  43.881  29.477  14.944
73698W        W34987  34.488  43.468   2.723
73699W        W34988  25.611  13.197  12.438
73700W        W34989  27.080   7.314  13.349
73701W        W34990   3.836  18.694  13.051
73702W        W34991  15.323  38.866   2.340
73703W        W34992  24.591  31.905   3.832
73704W        W34993  31.578  26.672   3.686
73705W        W34994   8.200  40.837   4.352
73706W        W34995  29.512   0.899  14.297
73707W        W34996  27.020   8.813   1.871
73708W        W34997  11.366  32.573  14.359
73709W        W34998  31.149   1.764   4.169
73710W        W34999  12.725  41.312   1.368
73711W        W35000  42.912  32.460   0.319
73712W        W35001  10.159  19.202   0.385
73713W        W35002  11.289  12.140   0.258
73714W        W35003  35.865  39.863  12.425
73715W        W35004  27.606  21.050   3.373
73716W        W35005   4.325  25.966  12.896
73717W        W35006   1.961  29.554  14.281
73718W        W35007  21.210  17.108  10.589
73719W        W35008  24.074  40.920  14.907
73720W        W35009  31.437  26.553   0.747
73721W        W35010   4.413  36.586  11.861
73722W        W35011  13.128  14.824   0.827
73723W        W35012  11.202   4.363  14.831
73724W        W35013  30.517  32.485  11.595
73725W        W35014  35.925  11.236  14.284
73726W        W35015   6.683  41.397  12.004
73727W        W35016  27.949  35.057  14.431
73728W        W35017  12.123  27.476   0.742
73729W        W35018  11.331  38.465  11.383
73730W        W35019  39.482  10.294  10.028
73731W        W35020  14.163  34.928  11.466
73732W        W35021  16.664  44.434  14.279
73733W        W35022  16.274  22.113  13.931
73734W        W35023  38.426  42.439   3.747
73735W        W35024  16.711  12.786  14.931
73736W        W35025  38.978   0.406  13.810
73737W        W35026  14.244  28.518   0.280
73738W        W35027  36.559  40.847  11.477
73739W        W35028  40.994  34.604  10.938
73740W        W35029  23.581   4.224  12.096
73741W        W35030  12.620  26.695  12.529
73742W        W35031   7.330  41.833  14.429
73743W        W35032  30.034  13.784   3.748
73744W        W35033  28.032   5.241  11.088
73745W        W35034  36.863  28.670  11.542
73746W        W35035  12.285  33.891   2.719
73747W        W35036  26.498  44.299   9.993
73748W        W35037   6.700   6.793   1.303
73749W        W35038   0.795  33.404  11.121
73750W        W35039  22.151   1.751   0.277
73751W        W35040   0.787  36.004   0.374
73752W        W35041  24.073  33.466   0.801
73753W        W35042   5.747   4.300   2.390
73754W        W35043  13.169  28.646  11.462
73755W        W35044   9.184   6.217  11.931
73756W        W35045   2.870  44.762  13.411
73757W        W35046  10.633  19.222   4.633
73758W        W35047  26.040  42.920   3.154
73759W        W35048   8.394   6.199   0.320
73760W        W35049  19.718  23.225  11.037
73761W        W35050   2.775  16.797  14.285
73762W        W35051  44.339  35.412  12.475
73763W        W35052  35.038   2.285  14.430
73764W        W35053  13.721  13.310   0.468
73765W        W35054  22.709  42.891  14.287
73766W        W35055  24.182  15.754   0.779
73767W        W35056  28.938  11.835  12.386
73768W        W35057  43.470  15.261  11.373
73769W        W35058  13.232  43.957   4.288
73770W        W35059  11.210  37.398   1.915
73771W        W35060   8.804  31.482   3.281
73772W        W35061  26.521  18.589   4.837
73773W        W35062  10.763  44.467   4.267
73774W        W35063  38.834   8.365  12.365
73775W        W35064  27.126  23.136   5.103
73776W        W35065  42.437   1.335   4.167
73777W        W35066  13.628  36.383   4.797
73778W        W35067  35.873  12.856  11.508
73779W        W35068  10.221  37.879  14.851
73780W        W35069  22.130  20.707   2.762
73781W        W35070  12.853  35.453   1.775
73782W        W35071  21.023  22.183  13.842
73783W        W35072   3.441   7.890  13.355
73784W        W35073  33.474  18.601  14.393
73785W        W35074   0.277  19.679  14.292
73786W        W35075  19.218   2.268   0.333
73787W        W35076  22.710   5.703  13.869
73788W        W35077  41.930  29.524  11.913
73789W        W35078   3.906  31.958  14.016
73790W        W35079  33.896  11.788   4.603
73791W        W35080  35.570  39.961  13.438
73792W        W35081  43.400  37.341   1.703
73793W        W35082  21.251  24.689   4.824
73794W        W35083  40.808   0.333  13.486
73795W        W35084  31.903  21.120  12.080
73796W        W35085  28.149   9.322  11.868
73797W        W35086  18.219  44.309  10.556
73798W        W35087   4.872  12.804  14.444
73799W        W35088  10.204  17.237  11.380
73800W        W35089  14.725  42.892  14.461
73801W        W35090  44.462   8.673   3.273
73802W        W35091  17.173  30.966  11.447
73803W        W35092  35.416  42.979  11.113
73804W        W35093   3.292  42.471  14.923
73805W        W35094  12.295  35.043   4.694
73806W        W35095   6.309  11.239   0.280
73807W        W35096  30.505  26.129   3.701
73808W        W35097   7.340  16.762  13.355
73809W        W35098  34.008  20.528   4.732
73810W        W35099  31.117  37.041   2.383
73811W        W35100   4.749  19.126   4.345
73812W        W35101  13.198   2.806   3.696
73813W        W35102  16.169   7.406   0.446
73814W        W35103  19.061  19.705  11.013
73815W        W35104  13.348  21.747   1.898
73816W        W35105  26.546   7.688   5.653
73817W        W35106  31.978  18.260   9.998
73818W        W35107   1.377  11.681   0.280
73819W        W35108  16.083  15.094  14.787
73820W        W35109  35.417   3.803  13.370
73821W        W35110  36.366  43.382   2.836
73822W        W35111  19.766  30.445   0.406
73823W        W35112   7.899  37.890  10.927
73824W        W35113  36.952  38.378  10.922
73825W        W35114  31.409  11.243  11.857
73826W        W35115   1.922   3.261  12.861
73827W        W35116   8.732  17.113  12.343
73828W        W35117   6.791  44.893   4.124
73829W        W35118   9.741  41.365   1.283
73830W        W35119   9.834   9.170   1.924
73831W        W35120  31.141  25.029  13.410
73832W        W35121   1.904   9.835  11.494
73833W        W35122   2.817  19.099  12.577
73834W        W35123  12.694  44.765  10.982
73835W        W35124  14.254  42.390   3.357
73836W        W35125  29.110  16.620  11.587
73837W        W35126  17.116  17.301  14.005
73838W        W35127  38.989  24.122  13.373
73839W        W35128  30.985  44.824   0.336
73840W        W35129  17.747  11.742   4.341
73841W        W35130  21.570   3.380   0.823
73842W        W35131  17.086  36.374   0.459
73843W        W35132  44.412  33.423   2.393
73844W        W35133  13.671   9.684  11.089
73845W        W35134  33.920  30.059  14.323
73846W        W35135  18.124   8.272   4.280
73847W        W35136  41.945  11.712  14.438
73848W        W35137  29.459  15.758  13.974
73849W        W35138  40.800  26.656  11.605
73850W        W35139  30.634   2.966   1.848
73851W        W35140   4.364  40.991   0.825
73852W        W35141  31.414   4.402  10.588
73853W        W35142  17.620   7.897   4.641
73854W        W35143  10.358  41.993  10.929
73855W        W35144  18.106  40.805  13.447
73856W        W35145  13.772  13.195   3.384
73857W        W35146  34.063  42.787  13.523
73858W        W35147  26.549  43.454   0.777
73859W        W35148  21.580   6.243  10.007
73860W        W35149  28.557  18.706  14.468
73861W        W35150  26.019  31.459  10.993
73862W        W35151  22.681  37.954  10.426
73863W        W35152  31.474  28.675   1.761
73864W        W35153  15.321   4.288   4.721
73865W        W35154  26.654   3.810   4.718
73866W        W35155  33.883  24.041   3.739
73867W        W35156   4.370  41.835   2.344
73868W        W35157  33.586  28.523   1.372
73869W        W35158  27.544  13.327  14.305
73870W        W35159  23.009   2.841   4.692
73871W        W35160  12.328  33.594  13.421
73872W        W35161   1.754  14.709   2.885
73873W        W35162  17.116   5.212  12.991
73874W        W35163  22.730  11.758   2.315
73875W        W35164  30.493  27.097  14.910
73876W        W35165  25.154  14.614   3.196
73877W        W35166  28.493  10.649   0.849
73878W        W35167  22.677  20.606  12.076
73879W        W35168  20.602  32.945   1.233
73880W        W35169  16.720  42.432  11.541
73881W        W35170  11.361   6.364   1.354
73882W        W35171  28.133  15.145  10.988
73883W        W35172  12.232  14.198  12.490
73884W        W35173  20.099  32.898   3.268
73885W        W35174  19.745  13.776  14.001
73886W        W35175  31.953  42.478  10.917
73887W        W35176  44.386  31.523   0.864
73888W        W35177   3.245  24.686  11.129
73889W        W35178  42.917   2.344   4.716
73890W        W35179  35.393  37.896   1.729
73891W        W35180  27.021  42.466   2.269
73892W        W35181  12.303  10.799   2.674
73893W        W35182  19.084  32.634   0.736
73894W        W35183   3.911  16.697   1.701
73895W        W35184  19.272  26.078   1.416
73896W        W35185  13.613  35.057   2.368
73897W        W35186  33.999  40.050  14.897
73898W        W35187  40.845   7.412   1.827
73899W        W35188  32.440  17.783  13.313
73900W        W35189   3.241  11.704   1.322
73901W        W35190  32.111  13.817  13.861
73902W        W35191  28.070  23.197  14.005
73903W        W35192  38.558  29.525  12.475
73904W        W35193   9.746  24.159   4.300
73905W        W35194  15.261  25.572   3.699
73906W        W35195  29.992  12.214  11.884
73907W        W35196  12.653  19.589   0.873
73908W        W35197  39.994  13.715  12.862
73909W        W35198  33.388  13.733  14.362
73910W        W35199   3.764  10.235  14.335
73911W        W35200  28.952  10.138   4.302
73912W        W35201  33.534  18.182  14.881
73913W        W35202   6.693  11.824  13.045
73914W        W35203  18.117  42.892   4.782
73915W        W35204  11.243  43.281   0.770
73916W        W35205  27.025  29.070   1.360
73917W        W35206  20.682  22.720   2.374
73918W        W35207  37.843  11.288  12.375
73919W        W35208   4.300  11.831   3.866
73920W        W35209  38.992  44.300  10.444
73921W        W35210   2.404  27.970   9.941
73922W        W35211  30.945   3.720  11.420
73923W        W35212  19.648  15.232  10.470
73924W        W35213  12.846  36.954  11.976
73925W        W35214   2.761  31.145   2.686
73926W        W35215  37.408  39.019   2.309
73927W        W35216   0.387  19.216  10.961
73928W        W35217  16.288  42.916  11.877
73929W        W35218  22.650  27.960  10.994
73930W        W35219  39.443  22.661   1.428
73931W        W35220   8.871  13.634  10.404
73932W        W35221  29.041  18.647   1.899
73933W        W35222  33.919   4.919   3.823
73934W        W35223  31.088  22.723  14.298
73935W        W35224  10.212  28.174  13.381
73936W        W35225  34.391  25.989  13.353
73937W        W35226   6.820  20.646   0.425
73938W        W35227   2.742  44.819  11.485
73939W        W35228  37.419  29.000   4.279
73940W        W35229  18.071  39.504  13.799
73941W        W35230  38.849  39.545   0.823
73942W        W35231   8.357  37.087  11.569
73943W        W35232   7.189  16.627   2.179
73944W        W35233  10.634  19.536   1.861
73945W        W35234  12.351  39.427   1.336
73946W        W35235  20.553  28.179  11.923
73947W        W35236  41.379  29.944   3.675
73948W        W35237  36.078  37.084   0.287
73949W        W35238  43.958   0.394   1.434
73950W        W35239  19.778  25.482  14.476
73951W        W35240  23.173  37.410   2.688
73952W        W35241  15.686   4.434   4.727
73953W        W35242  20.523  22.073  13.529
73954W        W35243  28.956  36.969   0.903
73955W        W35244  40.860  30.481   3.663
73956W        W35245   3.750  38.953  13.046
73957W        W35246  30.414  10.688   4.823
73958W        W35247  18.117  29.450   4.191
73959W        W35248  16.215  27.150   2.249
73960W        W35249   7.279  29.611   3.246
73961W        W35250   3.265  13.639  13.852
73962W        W35251   8.863  29.652   1.846
73963W        W35252  12.774  29.447   2.779
73964W        W35253  26.557  18.689  13.311
73965W        W35254  31.128  15.152   1.276
73966W        W35255  35.001  20.755  11.432
73967W        W35256   4.209  17.678   1.835
73968W        W35257  12.776   8.184  13.955
73969W        W35258  20.120  12.681   2.838
73970W        W35259  21.133  11.220   0.475
73971W        W35260  18.769  26.603   1.212
73972W        W35261   4.855  21.171  11.390
73973W        W35262  34.610  15.220  12.842
73974W        W35263  39.982  27.962   1.395
73975W        W35264  16.685  14.647  11.019
73976W        W35265  34.385  24.018   0.275
73977W        W35266  28.518   5.876   3.221
73978W        W35267   1.481  18.290   0.480
73979W        W35268  44.500   4.416  13.045
73980W        W35269  28.495   2.734  13.426
73981W        W35270  16.097  23.709  10.513
73982W        W35271  16.743   3.260  14.422
73983W        W35272  41.324  40.822   4.345
73984W        W35273  42.899   6.826   3.672
73985W        W35274  31.988  18.727  11.922
73986W        W35275  25.142  38.990  12.578
73987W        W35276  30.048  16.693   3.227
73988W        W35277  36.360  37.398   9.941
73989W        W35278  10.789  22.520  11.386
73990W        W35279  40.438   0.255  11.071
73991W        W35280  29.983  31.052  12.036
73992W        W35281   9.833  27.447  13.015
73993W        W35282   6.871  11.180   1.371
73994W        W35283  34.464  35.451   2.830
73995W        W35284  38.383  34.041  11.977
73996W        W35285   5.424  23.036  12.450
73997W        W35286   2.884  25.495   3.351
73998W        W35287   6.859   9.260  11.016
73999W        W35288  11.652   4.272  14.859
74000W        W35289  44.858  14.627   3.253
74001W        W35290  23.017  18.277   1.212
74002W        W35291  35.852  34.605   3.842
74003W        W35292   0.855  37.435  12.827
74004W        W35293  24.550  43.322  10.608
74005W        W35294  22.539   1.301   0.872
74006W        W35295   8.885  42.422  10.553
74007W        W35296  36.353  12.700  14.986
74008W        W35297  37.921   6.805  11.542
74009W        W35298  40.437   7.371  13.791
74010W        W35299  44.764  35.093   3.354
74011W        W35300  35.048  28.008   4.351
74012W        W35301  40.821   1.357   1.287
74013W        W35302  26.173   7.874   2.359
74014W        W35303  20.113  42.793   1.305
74015W        W35304  36.395   0.435   2.714
74016W        W35305   7.842  14.241   3.732
74017W        W35306  12.234  36.877   4.758
74018W        W35307  22.705  11.707  10.959
74019W        W35308   3.399  37.445  13.448
74020W        W35309  14.809  24.490  12.964
74021W        W35310   4.373  22.639  10.903
74022W        W35311  12.357  38.546   0.357
74023W        W35312   6.728  37.412   0.429
74024W        W35313  13.814  38.909  14.318
74025W        W35314  19.647  31.972   4.157
74026W        W35315  22.673  12.775   4.350
74027W        W35316  16.659  29.951  11.376
74028W        W35317  23.725  18.269   0.902
74029W        W35318  38.829   6.363   1.750
74030W        W35319  32.051  21.640  12.091
74031W        W35320   9.187  38.487  10.919
74032W        W35321  39.487  35.445  11.868
74033W        W35322  41.456  39.950   0.825
74034W        W35323  22.687  29.472   1.855
74035W        W35324   9.747  41.916   4.598
74036W        W35325  33.047  29.459   1.935
74037W        W35326  22.006   7.258  11.023
74038W        W35327   4.789  24.169  11.873
74039W        W35328  21.565  23.136  10.421
74040W        W35329  34.108  12.818  13.798
74041W        W35330  35.103   5.348   0.267
74042W        W35331   8.782  35.877  12.034
74043W        W35332  14.775   3.801  14.804
74044W        W35333   7.874   4.803   3.779
74045W        W35334  27.984  38.063   1.900
74046W        W35335  32.048   2.316  14.284
74047W        W35336  20.189   4.931   2.734
74048W        W35337  42.806  24.077   5.200
74049W        W35338  40.313  36.469  13.496
74050W        W35339  38.551  10.859   1.723
74051W        W35340  24.049  16.205  14.866
74052W        W35341  29.106  17.125  13.318
74053W        W35342  24.050   9.694   1.903
74054W        W35343  28.930  26.008  10.992
74055W        W35344  24.072   2.858  11.889
74056W        W35345  10.214  27.470   3.203
74057W        W35346  10.319  11.803   1.746
74058W        W35347  37.582   2.467   4.314
74059W        W35348  31.530  11.647   3.748
74060W        W35349  35.572   3.831  12.095
74061W        W35350  24.027  31.101  13.350
74062W        W35351  18.197   4.395  11.952
74063W        W35352  15.696  27.167  11.053
74064W        W35353  10.777  27.981  13.920
74065W        W35354  44.263  20.552  10.412
74066W        W35355  29.119  10.270   2.687
74067W        W35356  42.418  41.856   0.747
74068W        W35357  37.377  13.322  10.554
74069W        W35358  26.558   5.917   1.844
74070W        W35359   3.789  30.029   1.705
74071W        W35360  41.901  39.478   3.856
74072W        W35361  18.762   3.946  10.909
74073W        W35362   9.841   1.956  12.551
74074W        W35363  35.496  15.227   4.660
74075W        W35364   3.776  20.223  11.582
74076W        W35365   0.481  35.109   4.711
74077W        W35366  27.681   6.773  10.002
74078W        W35367  11.624   1.367   3.272
74079W        W35368  44.826   6.335  12.480
74080W        W35369  26.140   0.797   3.263
74081W        W35370   9.247   7.788   2.190
74082W        W35371  26.627  42.907   0.336
74083W        W35372   1.438   4.349   3.361
74084W        W35373  16.628  24.047  12.356
74085W        W35374  35.385  31.587   1.449
74086W        W35375  42.356   1.238  14.442
74087W        W35376  35.957  11.199  11.406
74088W        W35377  30.504  12.615  12.057
74089W        W35378  19.627  30.058  11.603
74090W        W35379  26.988   6.777   4.755
74091W        W35380  13.716  40.831   0.472
74092W        W35381  40.938  15.083   2.778
74093W        W35382  24.702  27.457   2.252
74094W        W35383  40.427   8.790   5.248
74095W        W35384   3.872  13.285   2.186
74096W        W35385  32.012  34.912  11.860
74097W        W35386   7.815  22.178  13.540
74098W        W35387  44.773  34.968   2.311
74099W        W35388  43.814   6.868   2.324
74100W        W35389   4.305  16.227  13.405
74101W        W35390  31.941  12.815  14.314
74102W        W35391  20.595  19.050  14.431
74103W        W35392  19.234  17.107   3.700
74104W        W35393  28.454  28.610  12.494
74105W        W35394   7.397  22.138  11.586
74106W        W35395  14.108   8.386  14.509
74107W        W35396  24.582  40.969   3.638
74108W        W35397  28.952  18.787  13.440
74109W        W35398   9.883  16.691  13.452
74110W        W35399  20.554  36.511  11.985
74111W        W35400  27.508  13.845   2.417
74112W        W35401  22.665  13.824   0.261
74113W        W35402  12.618  30.596   3.218
74114W        W35403  36.526  40.798  10.464
74115W        W35404  17.198  10.183  14.365
74116W        W35405  42.332  17.170  12.344
74117W        W35406  10.752  18.254   4.728
74118W        W35407   3.239  39.943  10.440
74119W        W35408  18.194  12.125  12.998
74120W        W35409  12.169  43.802  10.906
74121W        W35410  29.993  33.900  11.866
74122W        W35411  40.508   4.266   1.218
74123W        W35412  40.895  28.559  12.441
74124W        W35413   5.924  23.508  12.004
74125W        W35414  11.299  30.418  13.504
74126W        W35415  17.753  38.467   9.618
74127W        W35416   4.216  19.698   3.370
74128W        W35417  14.098   3.433  10.006
74129W        W35418  17.711  30.436   1.934
74130W        W35419   9.829  15.172  14.944
74131W        W35420  21.120  25.009  14.451
74132W        W35421  44.273  43.795   3.724
74133W        W35422  25.174  37.068   2.306
74134W        W35423  13.679  35.881   4.774
74135W        W35424   9.332  16.773  10.556
74136W        W35425  26.562   6.897  14.763
74137W        W35426   5.807  35.495  11.074
74138W        W35427  21.208  17.677   0.799
74139W        W35428  37.944  30.073  13.030
74140W        W35429  11.292  39.326   1.355
74141W        W35430  17.601  24.026  13.539
74142W        W35431  36.404   9.780   2.364
74143W        W35432  36.937   0.435  12.470
74144W        W35433  18.769  15.600  12.956
74145W        W35434  40.328   3.736  14.013
74146W        W35435  11.737   0.965  12.541
74147W        W35436  23.031  34.457  12.009
74148W        W35437   3.831  34.115  12.021
74149W        W35438  18.764   3.435   0.248
74150W        W35439  17.100   2.342   3.245
74151W        W35440  14.148  34.962   2.238
74152W        W35441  42.421   2.958  14.338
74153W        W35442  15.726   5.840  14.996
74154W        W35443  28.047  41.465   0.755
74155W        W35444   5.196  35.009   2.757
74156W        W35445  20.116  44.998  10.956
74157W        W35446  13.627  21.751   3.725
74158W        W35447  41.832  33.961   0.856
74159W        W35448  42.446   5.778   3.188
74160W        W35449  28.060  40.892  14.990
74161W        W35450  43.342  42.482   4.142
74162W        W35451  32.475  16.680   0.257
74163W        W35452  11.156  10.704  11.039
74164W        W35453  26.626   7.237   4.341
74165W        W35454  14.215  40.422  10.971
74166W        W35455  37.581  28.024   2.682
74167W        W35456  24.016   1.366  13.863
74168W        W35457   4.322  29.995   0.780
74169W        W35458   2.835  21.678   0.748
74170W        W35459  19.671  44.778  11.880
74171W        W35460  19.705  27.608   2.202
74172W        W35461  36.376  13.760  13.818
74173W        W35462  14.110  19.642  14.842
74174W        W35463   2.406  42.828   1.852
74175W        W35464  38.943  12.655   1.253
74176W        W35465  10.755  40.993  11.514
74177W        W35466  15.587  15.200  12.470
74178W        W35467  42.937   2.894  14.962
74179W        W35468  18.152   4.299   3.192
74180W        W35469  24.027  28.987   1.853
74181W        W35470  16.637  11.749  13.337
74182W        W35471  39.855  24.610   0.942
74183W        W35472  15.252  16.155   1.697
74184W        W35473   8.794  44.806   3.703
74185W        W35474  11.782  44.761   9.675
74186W        W35475  16.687  10.845  11.971
74187W        W35476  40.013  43.852   4.671
74188W        W35477   7.815  35.088   4.323
74189W        W35478  36.399   4.262   4.819
74190W        W35479  34.605   3.396   0.297
74191W        W35480  27.941   9.157   2.252
74192W        W35481   9.822  14.612  11.611
74193W        W35482  34.405   0.966  14.806
74194W        W35483  18.147  11.660  14.825
74195W        W35484  11.253  16.648   4.650
74196W        W35485  30.928   5.324   2.308
74197W        W35486  37.031  40.888   3.341
74198W        W35487   4.867  27.117   4.161
74199W        W35488  43.948  19.621   3.382
74200W        W35489  28.655  29.956   4.598
74201W        W35490  10.325  21.567  12.342
74202W        W35491   1.299   9.254  12.042
74203W        W35492  29.649  34.945   3.800
74204W        W35493  11.165  27.525  13.927
74205W        W35494  13.168  30.655  11.879
74206W        W35495  21.658  23.715   2.823
74207W        W35496  43.500   9.299   4.116
74208W        W35497  39.839   8.672   1.370
74209W        W35498   4.786  34.605   3.772
74210W        W35499  25.642  41.877   4.800
74211W        W35500  30.445  43.382   2.305
74212W        W35501  28.638  27.083  12.424
74213W        W35502  16.734  38.562   2.739
74214W        W35503  27.046  17.257   2.238
74215W        W35504  14.286   3.816   2.226
74216W        W35505  10.320  22.673   4.247
74217W        W35506  31.970  13.652   2.378
74218W        W35507  29.992   9.209  12.032
74219W        W35508  28.524  13.739   4.195
74220W        W35509   3.874  43.369  13.430
74221W        W35510   4.420  33.477   2.376
74222W        W35511  39.435  34.405  11.990
74223W        W35512  37.410  13.152  13.338
74224W        W35513  40.313  19.069   3.666
74225W        W35514   1.462  29.057   1.897
74226W        W35515  41.319  26.039   1.303
74227W        W35516  42.990  42.313   3.631
74228W        W35517  39.825   0.291  11.873
74229W        W35518  24.199  23.508  14.981
74230W        W35519  28.088  39.986   3.177
74231W        W35520  37.962  34.410   0.382
74232W        W35521  42.901   1.803  14.784
74233W        W35522  12.183  41.841  11.501
74234W        W35523  14.275  36.573  11.571
74235W        W35524  31.492  40.027   3.270
74236W        W35525  42.957  34.007   1.238
74237W        W35526  23.136  37.041   1.905
74238W        W35527   8.330  32.989   1.728
74239W        W35528  35.046  30.536  13.896
74240W        W35529   9.200  17.291  14.003
74241W        W35530  32.962  43.999   0.787
74242W        W35531  21.088  31.410   3.716
74243W        W35532  26.113  13.643  10.935
74244W        W35533   4.245  26.152   0.754
74245W        W35534  29.476  20.581  14.894
74246W        W35535  20.270  25.001  14.281
74247W        W35536  18.656   3.888   3.273
74248W        W35537  32.937   3.387   1.220
74249W        W35538   4.286  40.998  11.434
74250W        W35539  15.221   0.985  14.311
74251W        W35540  32.484   6.908   4.308
74252W        W35541  11.690  23.241   4.330
74253W        W35542  40.460  13.242  10.954
74254W        W35543  32.637  12.154  14.793
74255W        W35544  40.933   5.424   0.291
74256W        W35545  26.605  21.737   3.855
74257W        W35546  41.817  33.569   0.820
74258W        W35547   5.255  29.095   2.219
74259W        W35548  23.712   3.441  14.025
74260W        W35549   8.803  31.541   0.288
74261W        W35550   7.319  11.756  12.051
74262W        W35551  44.432  44.397  12.567
74263W        W35552  26.667  26.553  12.933
74264W        W35553  36.018  26.700   1.428
74265W        W35554  43.470  38.072   3.852
74266W        W35555  43.794  41.518  11.894
74267W        W35556  18.225   2.262  10.429
74268W        W35557  41.477  25.579  13.433
74269W        W35558  40.000  15.673  11.549
74270W        W35559  30.462   9.773   5.634
74271W        W35560   9.358   0.781   3.373
74272W        W35561  15.664   0.310  13.798
74273W        W35562  35.919  15.260   4.295
74274W        W35563  19.635  22.700   0.286
74275W        W35564  12.744  25.615  11.441
74276W        W35565  16.284  12.341   2.359
74277W        W35566  39.530  28.976   1.921
74278W        W35567  39.912  10.323   2.364
74279W        W35568  19.752  14.175  14.958
74280W        W35569  19.670  14.697   1.795
74281W        W35570  28.442  29.500   3.635
74282W        W35571  39.507  28.083   1.340
74283W        W35572  12.617   4.340   0.769
74284W        W35573  11.769  32.552   2.315
74285W        W35574  24.605  25.531  13.532
74286W        W35575   5.427  13.699   0.394
74287W        W35576  41.441  11.316   4.191
74288W        W35577  16.757  42.481   0.885
74289W        W35578  43.972   5.256   0.807
74290W        W35579   8.813   5.427   1.327
74291W        W35580   5.819  42.437  11.093
74292W        W35581  35.008  41.357  12.000
74293W        W35582  15.168  12.156   1.919
74294W        W35583  20.061   8.205   1.777
74295W        W35584   6.193  31.060  13.998
74296W        W35585  16.688   9.698   3.799
74297W        W35586  37.452  22.731   2.343
74298W        W35587  44.277  42.332  14.005
74299W        W35588  17.229  30.591  13.826
74300W        W35589  33.520  11.238   4.114
74301W        W35590   9.384  31.100   0.399
74302W        W35591  39.393   3.866  14.361
74303W        W35592   8.248  36.981   1.363
74304W        W35593   4.929  42.011  10.912
74305W        W35594  44.850  37.010  13.004
74306W        W35595  24.653  17.129  12.467
74307W        W35596   2.241   7.775   1.715
74308W        W35597  37.471  32.562   2.751
74309W        W35598   8.704  13.842   2.237
74310W        W35599  26.998  39.853  11.525
74311W        W35600  20.741  17.586  13.011
74312W        W35601  29.525  44.369  14.405
74313W        W35602  34.484  16.127   2.830
74314W        W35603   3.946  17.167  10.469
74315W        W35604  15.274   8.379   3.198
74316W        W35605   6.909   9.228   1.873
74317W        W35606  40.314  24.713  11.383
74318W        W35607  44.843  20.664   3.647
74319W        W35608  42.302  26.030  11.564
74320W        W35609  14.213  17.260  11.536
74321W        W35610  43.964  23.984  10.441
74322W        W35611  18.674  20.134  13.408
74323W        W35612  25.010  12.720   2.408
74324W        W35613  23.223  40.970   4.811
74325W        W35614  11.659  31.969  13.518
74326W        W35615  24.224  27.498   2.304
74327W        W35616  14.657  21.151   3.369
74328W        W35617  36.093  31.501   3.768
74329W        W35618  15.251  42.373   1.913
74330W        W35619   8.380   1.915   0.757
74331W        W35620   2.380   1.454   2.418
74332W        W35621  44.294   9.849   2.833
74333W        W35622  14.683   9.713   2.819
74334W        W35623   5.250  19.228  12.932
74335W        W35624  42.493  24.644  13.413
74336W        W35625   2.412  29.614  12.085
74337W        W35626  25.080  26.134   4.141
74338W        W35627  13.277  44.857   3.832
74339W        W35628  34.876  29.666   2.898
74340W        W35629  23.010   9.223   4.735
74341W        W35630  40.035  28.134  13.970
74342W        W35631  15.670  32.529   3.727
74343W        W35632  33.593  12.780  10.527
74344W        W35633   4.916   6.721  11.556
74345W        W35634  30.961   9.264   1.363
74346W        W35635  41.515  39.537   3.779
74347W        W35636  44.268  39.339  11.592
74348W        W35637  14.675  18.588   1.696
74349W        W35638  15.298  29.665   3.686
74350W        W35639  32.028  32.022  11.572
74351W        W35640  30.654   6.217   1.846
74352W        W35641   7.792   2.285  13.374
74353W        W35642  23.629   4.395  10.627
74354W        W35643   5.750  12.838   0.361
74355W        W35644   7.690  36.444  14.376
74356W        W35645   9.843  37.447  13.528
74357W        W35646  29.982  22.663   4.789
74358W        W35647   0.989  25.709   4.283
74359W        W35648  26.134  34.486  11.386
74360W        W35649  36.952  34.927  10.483
74361W        W35650  11.637  10.351   0.940
74362W        W35651  38.932  41.326   1.268
74363W        W35652  30.955  10.853   0.452
74364W        W35653   8.162  22.620   1.226
74365W        W35654   2.855  23.172   2.885
74366W        W35655  23.053  31.977   3.245
74367W        W35656  42.846  38.918   0.445
74368W        W35657  35.448  33.501   0.293
74369W        W35658  14.607   0.294  12.477
74370W        W35659   3.863  40.417   2.310
74371W        W35660  28.955  21.649  13.334
74372W        W35661  32.119  42.378   3.850
74373W        W35662  30.485   4.435  11.063
74374W        W35663   4.718  23.597   4.306
74375W        W35664  39.943  21.070   9.989
74376W        W35665  32.137   1.880   9.512
74377W        W35666   6.810  17.193   0.376
74378W        W35667  29.995  17.212   3.857
74379W        W35668  27.109  11.211  11.931
74380W        W35669  36.983  42.945   3.702
74381W        W35670  40.835  42.411  13.422
74382W        W35671  27.479  38.075  12.080
74383W        W35672  13.254  37.951   3.370
74384W        W35673  23.707  12.824   2.245
74385W        W35674  31.648  37.522   2.719
74386W        W35675  40.897  25.117  11.410
74387W        W35676  23.658  27.034   4.775
74388W        W35677   0.850  40.417   2.290
74389W        W35678  22.578  13.648  12.505
74390W        W35679  17.739  17.156  12.926
74391W        W35680  38.046  22.634  12.015
74392W        W35681  30.628  20.254  12.368
74393W        W35682  31.530  16.236   4.272
74394W        W35683  19.255  21.737   1.292
74395W        W35684  14.785  15.726   0.393
74396W        W35685  36.354  14.255   2.738
74397W        W35686   5.260  34.919  11.576
74398W        W35687  21.757  41.354   0.822
74399W        W35688  40.811  25.480   2.859
74400W        W35689  28.479  29.467  12.930
74401W        W35690   3.738   9.311   0.927
74402W        W35691  24.191  37.032  13.016
74403W        W35692  11.347  23.709   4.627
74404W        W35693  40.993  13.296   1.225
74405W        W35694   3.927  16.806  12.072
74406W        W35695   6.694  10.841  10.602
74407W        W35696  20.074   3.347   9.948
74408W        W35697  32.900  27.940   2.709
74409W        W35698   8.161  25.970  10.435
74410W        W35699  25.711  12.820  11.434
74411W        W35700  37.350  13.160   2.409
74412W        W35701  37.939   3.389   1.291
74413W        W35702  35.531  40.941  12.087
74414W        W35703   6.773  40.832  14.876
74415W        W35704   3.727  18.658   3.181
74416W        W35705  24.000  40.873  11.391
74417W        W35706   0.398  12.287   1.294
74418W        W35707  32.404  15.797  10.946
74419W        W35708   0.402  13.712  12.454
74420W        W35709  42.890  13.722   4.823
74421W        W35710  41.876   6.738   1.722
74422W        W35711  15.206  43.962  11.493
74423W        W35712  41.354  32.489  11.053
74424W        W35713  15.806  12.711   0.776
74425W        W35714  22.643  34.052   0.780
74426W        W35715  28.478   8.721   3.755
74427W        W35716  12.272  31.030   1.865
74428W        W35717  41.383  40.475  11.885
74429W        W35718  33.610   7.270  13.533
74430W        W35719  23.535  37.896  10.623
74431W        W35720  36.587  42.488   4.663
74432W        W35721  30.632   5.224  11.951
74433W        W35722  22.018   0.744   1.898
74434W        W35723  30.014  11.691   4.136
74435W        W35724  43.893  21.720   3.672
74436W        W35725   9.784  22.236  14.010
74437W        W35726  31.113  34.409   2.833
74438W        W35727  25.545  15.591  14.499
74439W        W35728   4.800  39.992   1.746
74440W        W35729   4.904  23.496  10.978
74441W        W35730  32.013  24.037   0.321
74442W        W35731  22.532  22.137   2.778
74443W        W35732  35.565  41.951   4.352
74444W        W35733   3.460   9.722  14.308
74445W        W35734  30.949  22.213  11.477
74446W        W35735  21.723  24.691   4.618
74447W        W35736  26.697  21.522  13.799
74448W        W35737  21.573  38.401   1.355
74449W        W35738   1.274  38.448  12.574
74450W        W35739  25.639  18.257  14.513
74451W        W35740  17.735  25.498  10.474
74452W        W35741   5.403  40.896  13.526
74453W        W35742  35.594   0.299  12.384
74454W        W35743  11.156  27.952   0.307
74455W        W35744  17.253  21.537   3.288
74456W        W35745  32.601  32.455   1.403
74457W        W35746  41.380  43.806  12.964
74458W        W35747  33.522   6.370   0.956
74459W        W35748  11.238  23.568   3.798
74460W        W35749   3.387  43.977  14.858
74461W        W35750  27.137   8.670   0.343
74462W        W35751  37.474  44.939  14.335
74463W        W35752  21.688   5.322   2.187
74464W        W35753  16.112  19.075  12.472
74465W        W35754  39.467  22.723   1.909
74466W        W35755  26.997  25.139   2.345
74467W        W35756  39.488  13.329   1.856
74468W        W35757  14.262  13.121   4.263
74469W        W35758   4.805  16.155   3.779
74470W        W35759  16.596  41.868   0.346
74471W        W35760  15.724   1.279   4.205
74472W        W35761  43.324  38.560  11.963
74473W        W35762  29.526   8.294   0.251
74474W        W35763  21.512  30.503  11.065
74475W        W35764  37.042   2.945  12.881
74476W        W35765   5.439  27.625   2.706
74477W        W35766  11.306  23.104   1.916
74478W        W35767  20.127  26.593  13.870
74479W        W35768  39.995  40.341  13.317
74480W        W35769  21.662  21.259  10.605
74481W        W35770  39.015  23.201  11.974
74482W        W35771   6.754  11.195   1.887
74483W        W35772   9.727  29.459  14.795
74484W        W35773  27.123   9.238   1.429
74485W        W35774  28.002  33.074   1.382
74486W        W35775  32.026  37.401  13.440
74487W        W35776  32.899   0.354  11.934
74488W        W35777  27.682   9.370  12.927
74489W        W35778  18.130   5.796   2.239
74490W        W35779  20.242  43.796   4.623
74491W        W35780   3.243  28.545  14.499
74492W        W35781  28.669  41.813  13.509
74493W        W35782  25.494   1.305  12.514
74494W        W35783   4.828  31.962   2.306
74495W        W35784  26.502  27.163   3.274
74496W        W35785  34.993  41.392  10.485
74497W        W35786   8.677  44.839   0.805
74498W        W35787  16.189   0.424   1.421
74499W        W35788  17.650  15.687   3.254
74500W        W35789  21.125  17.130   3.720
74501W        W35790  17.723  19.730  13.339
74502W        W35791  35.060   3.925  11.518
74503W        W35792   8.662   4.775   0.766
74504W        W35793  19.067  40.480   1.446
74505W        W35794  14.676   5.309   2.265
74506W        W35795  31.046  27.526   4.802
74507W        W35796   8.380  14.126  11.114
74508W        W35797  22.639  21.537   4.138
74509W        W35798   6.717  39.958  12.577
74510W        W35799  36.933  19.053  11.045
74511W        W35800  16.606  17.205   0.832
74512W        W35801  38.492   9.825   1.834
74513W        W35802  17.261  11.209  12.832
74514W        W35803   9.256  42.000  11.863
74515W        W35804  43.281  29.592   1.913
74516W        W35805  35.935  40.899  12.924
74517W        W35806  15.693   5.207  13.911
74518W        W35807   5.335  22.741  13.503
74519W        W35808  42.304  26.601   1.325
74520W        W35809  34.006  31.579   1.386
74521W        W35810  10.234  31.472   5.179
74522W        W35811  25.125   6.243  14.963
74523W        W35812  20.636  39.400  13.061
74524W        W35813  17.268  11.633   4.307
74525W        W35814   9.154   1.904   2.191
74526W        W35815  32.418  30.459   3.289
74527W        W35816  18.656   1.759  14.397
74528W        W35817  27.967  24.692   0.428
74529W        W35818  39.040   4.429   4.655
74530W        W35819   5.432  10.680   0.282
74531W        W35820  11.335  44.265  12.340
74532W        W35821  18.207   4.287   0.296
74533W        W35822   4.211   1.463  14.366
74534W        W35823   5.410  24.978  10.029
74535W        W35824  39.925   5.380  14.773
74536W        W35825  22.558  18.572  11.590
74537W        W35826  13.793  28.677  11.375
74538W        W35827   7.258   4.761  10.910
74539W        W35828   5.717   4.912  12.890
74540W        W35829  20.760  32.566   4.317
74541W        W35830   4.908  38.552  10.540
74542W        W35831  33.484   1.831  14.819
74543W        W35832  19.545   2.851  12.038
74544W        W35833  30.614   5.326  12.397
74545W        W35834  30.098   1.915  14.937
74546W        W35835  38.557  40.873  12.510
74547W        W35836  19.261  19.255   1.328
74548W        W35837  18.608  36.048   0.753
74549W        W35838  41.455  12.749   4.216
74550W        W35839   2.260  27.612   0.895
74551W        W35840  41.878  12.648  10.532
74552W        W35841  10.193  14.704  11.413
74553W        W35842  24.084  19.124  14.368
74554W        W35843   4.796  32.995   4.301
74555W        W35844  22.576  36.358   3.224
74556W        W35845   1.754   7.675  10.482
74557W        W35846  32.464  17.086   9.994
74558W        W35847  36.429   8.859   4.223
74559W        W35848  30.005  11.211   0.340
74560W        W35849   1.434  22.011   0.349
74561W        W35850  24.646  43.954  12.420
74562W        W35851   7.226  15.762  12.513
74563W        W35852   0.345   5.285   2.878
74564W        W35853  27.475   6.896  13.544
74565W        W35854  38.072  18.766  14.296
74566W        W35855  17.174  30.574  10.623
74567W        W35856  40.973  18.164   5.132
74568W        W35857  26.985  38.538   1.732
74569W        W35858  31.902  13.317  13.838
74570W        W35859   3.947   5.762  10.440
74571W        W35860   0.266   6.919  11.515
74572W        W35861  18.680   7.728  13.839
74573W        W35862  25.118  31.639  12.905
74574W        W35863  38.534  18.067  13.990
74575W        W35864  22.682  41.907  10.422
74576W        W35865  35.531   8.254  12.520
74577W        W35866  39.507  43.303  12.945
74578W        W35867   0.951  21.583   2.663
74579W        W35868   6.365  22.093  14.502
74580W        W35869  10.176   3.252  10.966
74581W        W35870  30.038  36.040  13.390
74582W        W35871  31.140  26.965  12.347
74583W        W35872  31.014  22.622   1.794
74584W        W35873  28.101  14.817   4.607
74585W        W35874  43.275  43.485   3.259
74586W        W35875  26.090  30.044  10.432
74587W        W35876  26.678  35.571   1.872
74588W        W35877  15.176  41.898   1.383
74589W        W35878   6.423  21.182  13.317
74590W        W35879   7.307  32.122   4.185
74591W        W35880   3.738  41.505   5.193
74592W        W35881  10.871  40.497  14.843
74593W        W35882   6.920  32.480  13.458
74594W        W35883  43.327  36.503  12.493
74595W        W35884  34.050  34.439   0.315
74596W        W35885  26.013  44.992  13.352
74597W        W35886   4.805  39.011  12.036
74598W        W35887  44.009   5.398  12.537
74599W        W35888  31.510   3.396  12.976
74600W        W35889  34.911  26.064  10.916
74601W        W35890   7.375  16.788  12.473
74602W        W35891   6.721  28.551   3.360
74603W        W35892  44.316  27.485  11.598
74604W        W35893  35.891  25.119  12.456
74605W        W35894   5.899  33.024  11.111
74606W        W35895  33.513  12.229  12.479
74607W        W35896  18.245  29.576   1.834
74608W        W35897  30.534  18.135  12.011
74609W        W35898  24.717  35.446   0.798
74610W        W35899  15.144   1.839  11.128
74611W        W35900  27.639  42.448   2.815
74612W        W35901  26.973  30.430   3.156
74613W        W35902  32.983  29.035   3.711
74614W        W35903  39.833  21.199   4.797
74615W        W35904   5.276  36.013  14.031
74616W        W35905  20.102  11.339  14.763
74617W        W35906   4.376  16.688   0.856
74618W        W35907  37.536  19.685  11.097
74619W        W35908  31.953  34.447  12.887
74620W        W35909   7.386  13.249  13.402
74621W        W35910   2.379  35.010   3.229
74622W        W35911  18.712   9.197  14.953
74623W        W35912   5.692  16.733   1.335
74624W        W35913  39.910  44.366  10.986
74625W        W35914  26.486  31.625   2.835
74626W        W35915  11.703  36.892  10.447
74627W        W35916  10.725  28.668   4.253
74628W        W35917  14.242  28.660   2.881
74629W        W35918  29.978  17.217  14.787
74630W        W35919  23.528  37.424  11.563
74631W        W35920   8.290  11.699  10.436
74632W        W35921  24.994  28.012   3.367
74633W        W35922  20.767  30.148  14.954
74634W        W35923   6.717  44.912   2.692
74635W        W35924  41.866  40.968   1.798
74636W        W35925  43.765  14.164   4.653
74637W        W35926  25.583  26.003   2.376
74638W        W35927  29.051  35.450   0.421
74639W        W35928  35.868   7.379   3.257
74640W        W35929  29.976  42.376   1.842
74641W        W35930   3.275  44.003  11.934
74642W        W35931  15.294  41.329  14.008
74643W        W35932  42.319  32.081  11.975
74644W        W35933  13.202  31.970  11.869
74645W        W35934  13.111  34.538   2.857
74646W        W35935   2.825  35.412  11.898
74647W        W35936  22.512  22.159  12.431
74648W        W35937  26.031   7.240   2.772
74649W        W35938   6.337  22.129   2.183
74650W        W35939  44.781  16.713  12.455
74651W        W35940  30.469  35.006   2.246
74652W        W35941  30.524  12.710   4.218
74653W        W35942   7.753  38.465  14.926
74654W        W35943  30.116  26.500   3.342
74655W        W35944  43.310  33.507  10.109
74656W        W35945  12.676   1.970  12.396
74657W        W35946  11.678   7.368   1.704
74658W        W35947  44.767  40.334   4.142
74659W        W35948  12.154   1.270  10.949
74660W        W35949  21.189  33.592   0.343
74661W        W35950  17.579  40.798  13.864
74662W        W35951  37.900  27.965   2.414
74663W        W35952  32.062  27.024   3.689
74664W        W35953  23.036  11.274  14.880
74665W        W35954  33.406  21.169   3.637
74666W        W35955  34.091  18.188  12.022
74667W        W35956   4.765  25.118   2.865
74668W        W35957  18.567  11.629   1.370
74669W        W35958  41.985  19.230   4.227
74670W        W35959  13.258  16.589   0.939
74671W        W35960   2.748  14.276  10.631
74672W        W35961   7.792  41.958   0.465
74673W        W35962  34.499  35.477   3.154
74674W        W35963   4.936  28.936  13.441
74675W        W35964   0.796   2.935   4.649
74676W        W35965   7.238   7.807   2.363
74677W        W35966   2.890   8.347  12.827
74678W        W35967  42.998   5.289   2.178
74679W        W35968   0.831  29.433   4.252
74680W        W35969  30.104  33.399   4.257
74681W        W35970   2.407  24.692   4.744
74682W        W35971  36.875  16.279   4.707
74683W        W35972  31.912  11.334   3.366
74684W        W35973  38.970  25.577   4.644
74685W        W35974  22.506  39.855  13.852
74686W        W35975   7.776  11.260  12.416
74687W        W35976  42.810  20.621   3.385
74688W        W35977  39.032   1.458  11.531
74689W        W35978  34.988  28.091   2.399
74690W        W35979   4.264   2.383  14.417
74691W        W35980  14.139  12.745  13.804
74692W        W35981  18.151  12.691   3.155
74693W        W35982  40.966  16.590  14.482
74694W        W35983  41.375  32.500  10.473
74695W        W35984   8.752  31.115   4.610
74696W        W35985  37.425  39.370   3.866
74697W        W35986  39.043  36.510  10.934
74698W        W35987  19.665  36.895  11.530
74699W        W35988  43.348   7.402   1.263
74700W        W35989  18.673  40.466   3.695
74701W        W35990  20.114  18.134   3.302
74702W        W35991  23.112   0.882  13.811
74703W        W35992  30.915  18.628  11.455
74704W        W35993  31.539  22.551   1.799
74705W        W35994   4.222   9.662  11.964
74706W        W35995  40.806  29.163   4.682
74707W        W35996   8.257  32.523   4.248
74708W        W35997  13.668  12.777  11.882
74709W        W35998  12.708   3.777   2.883
74710W        W35999  38.550  33.934   1.432
74711W        W36000  27.460  30.490   1.850
74712W        W36001  33.042  38.368   1.281
74713W        W36002   2.774  13.339   1.931
74714W        W36003  24.551   0.860  11.974
74715W        W36004  34.096  18.701  14.946
74716W        W36005  32.553  22.020   1.784
74717W        W36006  10.717  41.024   3.229
74718W        W36007  43.489  34.396   3.302
74719W        W36008  28.638   2.936   0.324
74720W        W36009  40.884  37.499  10.073
74721W        W36010   4.794  42.810  13.537
74722W        W36011  21.086  18.173   1.438
74723W        W36012  40.411  12.671   4.651
74724W        W36013   5.905  43.459   3.771
74725W        W36014  11.644  12.173   2.191
74726W        W36015   3.849   4.698  10.063
74727W        W36016  41.410  30.974  11.474
74728W        W36017   0.899  27.092   0.821
74729W        W36018  16.253  12.650  11.067
74730W        W36019   4.231  11.315   3.255
74731W        W36020  44.431  13.187  14.994
74732W        W36021  36.942   8.246  12.553
74733W        W36022  39.847  10.790  10.575
74734W        W36023   0.972  25.186  12.084
74735W        W36024  33.589  24.640   2.207
74736W        W36025  42.871  26.049  12.083
74737W        W36026  28.581  32.922  12.557
74738W        W36027  15.785  10.259   5.184
74739W        W36028  15.114  35.031  14.027
74740W        W36029  25.530   1.832   9.954
74741W        W36030  42.321  12.842  10.522
74742W        W36031  37.012  29.036   1.323
74743W        W36032   3.214  18.561  12.062
74744W        W36033  37.025  20.737   0.958
74745W        W36034  41.307  41.491  12.068
74746W        W36035  43.981  40.830  13.047
74747W        W36036  23.040  19.550  10.465
74748W        W36037   4.754  37.566   2.771
74749W        W36038  16.607  43.979  14.770
74750W        W36039  19.086  38.466  14.377
74751W        W36040   6.369  18.548   4.261
74752W        W36041  10.221   9.817   1.872
74753W        W36042  19.084   6.910   1.324
74754W        W36043  17.178  37.459   0.960
74755W        W36044  27.172  32.395  10.476
74756W        W36045  38.553  14.772   0.825
74757W        W36046  29.013  29.935  11.601
74758W        W36047   4.413  28.040   1.754
74759W        W36048  16.611  17.196  11.937
74760W        W36049  21.634  37.062  12.083
74761W        W36050   3.248  33.567   2.312
74762W        W36051  19.690  31.901  12.096
74763W        W36052   9.367  28.646   4.295
74764W        W36053   1.914  30.917  12.555
74765W        W36054  33.554  34.995   0.412
74766W        W36055  27.628  20.635   0.757
74767W        W36056  22.021  39.023   1.837
74768W        W36057   7.247   1.369   0.369
74769W        W36058   8.205  20.633   1.446
74770W        W36059  39.315  18.121   1.746
74771W        W36060   9.880  25.626  14.910
74772W        W36061  19.070  38.820   1.834
74773W        W36062  31.082  14.760  11.916
74774W        W36063  14.700   3.437  14.992
74775W        W36064  30.957  27.692   2.681
74776W        W36065  14.327  10.674  11.117
74777W        W36066  31.453  33.557   0.480
74778W        W36067   5.258   2.820  11.872
74779W        W36068  20.765  18.630   1.346
74780W        W36069  18.646  27.593  12.365
74781W        W36070   0.295  16.704   1.447
74782W        W36071   8.304  43.942  12.478
74783W        W36072  29.115  19.640  13.033
74784W        W36073  21.730  40.348   0.928
74785W        W36074   9.191  18.682   2.227
74786W        W36075  41.482  16.745   1.716
74787W        W36076   8.735  32.116  14.799
74788W        W36077  27.579  34.938  14.900
74789W        W36078  28.967  28.472  13.368
74790W        W36079  14.272  19.233  11.000
74791W        W36080  42.312  20.171   0.797
74792W        W36081  24.585  36.909  13.531
74793W        W36082  12.628  21.615   3.645
74794W        W36083  31.577  40.863   1.354
74795W        W36084  21.260  37.035   4.766
74796W        W36085  23.628   5.268  12.014
74797W        W36086  23.040   3.321  10.903
74798W        W36087  23.015  39.909  13.314
74799W        W36088  23.047  39.045   2.394
74800W        W36089  41.973   7.909   2.848
74801W        W36090  16.664  40.000  13.443
74802W        W36091   3.396  39.501   4.173
74803W        W36092  37.491  39.949  10.581
74804W        W36093  24.028  18.261   3.630
74805W        W36094  19.101  24.045   3.635
74806W        W36095  20.523  25.029   2.358
74807W        W36096  36.485   5.399   4.749
74808W        W36097  11.757  12.152   3.849
74809W        W36098  14.667  30.533   0.914
74810W        W36099  37.525  31.926  13.414
74811W        W36100  13.180  32.062   1.778
74812W        W36101  14.753   9.859  12.942
74813W        W36102  44.757  27.032   3.330
74814W        W36103  24.049  12.183  12.038
74815W        W36104   7.280  27.588  13.347
74816W        W36105  12.775  34.063  14.379
74817W        W36106  11.246  21.727  11.397
74818W        W36107  25.973  18.748  14.821
74819W        W36108  20.087  29.022   3.346
74820W        W36109  17.630  21.596  13.843
74821W        W36110  22.080  23.522  13.349
74822W        W36111  37.990  36.027  13.054
74823W        W36112  32.410  37.337   2.268
74824W        W36113  26.596  39.811   4.723
74825W        W36114  32.974   7.341   2.258
74826W        W36115   2.943  25.675   4.743
74827W        W36116  43.801  22.675   0.758
74828W        W36117  10.286  17.065  14.823
74829W        W36118  40.004  23.102   4.707
74830W        W36119   2.749  31.948  14.863
74831W        W36120   8.351  20.649   3.837
74832W        W36121  34.408  11.323  10.411
74833W        W36122  19.730  41.372  14.788
74834W        W36123  24.098  14.740  10.518
74835W        W36124  37.346  31.090   3.357
74836W        W36125   5.376  11.804   3.196
74837W        W36126  18.659  24.154  12.578
74838W        W36127  37.365   0.404  13.355
74839W        W36128  36.088  29.502   0.369
74840W        W36129  33.477  20.570  12.365
74841W        W36130  24.534   3.801  12.956
74842W        W36131  44.305  28.972  14.928
74843W        W36132   2.961  11.135   4.738
74844W        W36133  26.143  25.675  11.535
74845W        W36134   4.217   5.348  14.996
74846W        W36135  23.585  11.809  11.901
74847W        W36136   2.767   0.858  14.799
74848W        W36137  23.694  27.182   0.773
74849W        W36138  10.776  30.993   0.815
74850W        W36139  27.041  31.134   4.156
74851W        W36140  11.184  44.777  14.848
74852W        W36141  31.592  30.623  13.450
74853W        W36142   1.384  27.987  11.016
74854W        W36143  11.142  29.970   4.621
74855W        W36144   4.237  42.879  10.553
74856W        W36145   1.926  28.013  10.422
74857W        W36146  19.231  10.350   2.280
74858W        W36147   9.762  24.152   1.909
74859W        W36148  18.085  44.351   3.690
74860W        W36149  36.367  18.262   2.288
74861W        W36150  30.462   7.402   2.332
74862W        W36151  36.987  39.928  13.799
74863W        W36152   0.417  32.034  13.514
74864W        W36153  20.557  23.514  10.490
74865W        W36154   3.459   5.750  11.487
74866W        W36155  29.944  36.849   1.297
74867W        W36156  25.519  17.574  14.347
74868W        W36157  39.881  11.263   2.379
74869W        W36158   2.774  31.534   3.798
74870W        W36159  43.930   5.827  13.367
74871W        W36160  33.392  10.709  10.928
74872W        W36161  36.563   7.301   4.715
74873W        W36162  20.699  16.211   2.797
74874W        W36163  36.554  40.346  10.425
74875W        W36164  14.113  19.570  14.345
74876W        W36165  40.482  41.804   2.415
74877W        W36166  20.678  28.976  13.432
74878W        W36167  44.973  22.099  12.543
74879W        W36168  26.027   9.241  11.557
74880W        W36169  13.189   8.703   1.928
74881W        W36170  10.356  40.448  14.277
74882W        W36171  30.447  30.535  11.996
74883W        W36172  36.536  15.162   2.213
74884W        W36173   5.216  22.549   3.201
74885W        W36174  10.773  38.370   1.402
74886W        W36175   5.279  13.664  13.050
74887W        W36176  25.114  43.304  11.564
74888W        W36177   2.445  18.567  10.412
74889W        W36178  36.948  21.129   2.319
74890W        W36179  23.730  19.260  11.111
74891W        W36180  24.165  32.570  14.925
74892W        W36181  29.118  24.686   2.694
74893W        W36182   1.316  38.033   3.289
74894W        W36183  19.534  40.938  14.377
74895W        W36184  41.333  20.206   0.924
74896W        W36185   1.441  42.984   3.797
74897W        W36186  38.007   9.704   3.835
74898W        W36187  21.226  33.548   1.400
74899W        W36188  41.967  36.884  12.878
74900W        W36189  44.933  36.970   0.261
74901W        W36190  43.805   0.318   2.715
74902W        W36191  18.202   8.212   2.806
74903W        W36192  34.997  39.498  12.949
74904W        W36193   9.853  30.601   5.231
74905W        W36194  28.519  16.794  12.463
74906W        W36195  11.649   7.686  12.364
74907W        W36196  14.665  28.456  11.563
74908W        W36197  39.348  20.531  10.515
74909W        W36198  32.940  34.574  12.501
74910W        W36199  31.540  16.232   4.640
74911W        W36200  42.031  41.461  14.837
74912W        W36201  18.636   8.750  10.074
74913W        W36202  20.107  31.047   0.764
74914W        W36203  39.404   4.815  12.013
74915W        W36204   3.306  33.129   2.686
74916W        W36205  12.303   5.787  13.011
74917W        W36206  35.569  39.895  13.882
74918W        W36207  44.956   7.675  11.976
74919W        W36208  16.707   4.450  13.367
74920W        W36209   1.807  44.468   2.254
74921W        W36210   0.947  10.333  10.111
74922W        W36211  10.197  39.892  10.524
74923W        W36212   0.279  35.460   4.805
74924W        W36213  34.536  38.977   3.634
74925W        W36214   9.395  16.212   3.290
74926W        W36215   5.269  16.186   4.692
74927W        W36216   7.869  28.141  14.958
74928W        W36217  25.602  24.696  12.889
74929W        W36218  37.551  34.565   4.257
74930W        W36219  11.361  18.612  13.519
74931W        W36220  11.349  33.601  11.375
74932W        W36221  24.197  44.323   2.215
74933W        W36222  40.347   8.307   3.173
74934W        W36223  24.700  39.016   3.670
74935W        W36224  38.845  33.510  13.360
74936W        W36225   9.829  28.159   1.880
74937W        W36226   6.228   6.867  12.442
74938W        W36227  42.997  39.842   1.215
74939W        W36228   9.345  28.579  14.325
74940W        W36229  13.314  22.239  13.510
74941W        W36230  25.046  21.692  10.049
74942W        W36231  36.545   9.395  13.924
74943W        W36232   3.955  13.206  11.433
74944W        W36233  37.444   3.406  13.509
74945W        W36234  32.416  25.990   1.383
74946W        W36235  15.822  32.036  11.465
74947W        W36236   5.232  33.902   1.297
74948W        W36237  12.832  43.848   5.315
74949W        W36238  25.574  42.423   4.204
74950W        W36239   5.766  11.653  12.985
74951W        W36240  35.425  30.978   2.671
74952W        W36241  17.659  38.348   9.967
74953W        W36242   5.211  12.795  14.820
74954W        W36243  31.994  30.971  11.036
74955W        W36244  10.817  11.346   4.264
74956W        W36245  36.362  20.272  11.490
74957W        W36246  44.465  41.418  14.940
74958W        W36247  37.924   8.863  11.445
74959W        W36248  35.958  34.864   3.270
74960W        W36249  30.127  38.916   1.364
74961W        W36250  20.596   3.440  12.947
74962W        W36251   6.900  18.202  10.408
74963W        W36252  17.170  14.620   3.304
74964W        W36253  24.088  33.421  10.040
74965W        W36254  10.805   2.266   3.747
74966W        W36255  29.470   9.853   2.332
74967W        W36256  20.683  37.847  13.970
74968W        W36257  34.066  26.513  12.423
74969W        W36258   5.869  26.575  10.536
74970W        W36259  22.513  14.200  13.836
74971W        W36260  19.263  43.780   4.805
74972W        W36261  14.295  15.649  11.401
74973W        W36262  12.695  34.535  12.495
74974W        W36263   5.326  31.418   1.797
74975W        W36264  22.579  26.550  12.968
74976W        W36265  15.636  39.053   0.889
74977W        W36266  14.759  36.523  14.953
74978W        W36267  41.419  14.683  12.465
74979W        W36268  44.779  27.972   1.856
74980W        W36269  20.625  20.076   3.301
74981W        W36270  25.188   6.331  12.007
74982W        W36271  26.534   7.408   0.356
74983W        W36272  27.015  37.867   4.801
74984W        W36273  22.126  10.368  14.024
74985W        W36274  11.288  20.248   1.347
74986W        W36275  28.470  41.451   3.818
74987W        W36276  25.159  43.476   0.944
74988W        W36277  32.609  21.738  12.026
74989W        W36278  17.265  19.618   2.312
74990W        W36279   1.860  34.097  11.422
74991W        W36280  19.725  40.512   4.671
74992W        W36281   4.399  42.863   3.699
74993W        W36282  27.606  26.520  10.484
74994W        W36283  15.329  13.677   1.920
74995W        W36284  43.304  34.106   3.290
74996W        W36285   5.216  29.653  11.082
74997W        W36286  15.815  23.571   2.242
74998W        W36287  21.637  23.216  14.011
74999W        W36288  32.056   3.270  12.576
75000W        W36289   2.760  35.583  10.975
75001W        W36290  42.899  34.973   1.822
75002W        W36291  10.164  22.579  14.301
75003W        W36292  15.578  27.190  13.803
75004W        W36293  42.437   9.752   1.845
75005W        W36294  10.299  38.900   1.402
75006W        W36295  39.433  32.481  11.485
75007W        W36296   0.946  23.719   2.402
75008W        W36297   0.415  38.828   3.179
75009W        W36298  39.941  19.610   0.259
75010W        W36299   6.202  37.482   9.928
75011W        W36300  38.527  24.111  13.460
75012W        W36301  31.992  37.444   1.726
75013W        W36302  14.149   0.386  13.912
75014W        W36303  37.510  39.458  10.539
75015W        W36304  20.705  41.856   4.614
75016W        W36305  22.057  19.638  13.507
75017W        W36306  14.796  26.961   0.409
75018W        W36307  40.461  44.356   0.467
75019W        W36308   4.316  36.537   0.342
75020W        W36309   8.307  36.489  10.459
75021W        W36310  43.823  21.059  10.922
75022W        W36311  25.127  43.863  11.479
75023W        W36312  10.801  11.174   1.818
75024W        W36313  43.365  33.919   2.827
75025W        W36314  36.373  39.810  13.534
75026W        W36315  19.230   4.766  12.454
75027W        W36316  10.693   3.246   3.782
75028W        W36317   3.376  44.917   4.640
75029W        W36318  19.601   0.296   2.680
75030W        W36319  43.851   9.270  12.514
75031W        W36320  16.696  13.843  12.942
75032W        W36321  39.817  19.626   1.849
75033W        W36322  24.224  11.794   2.792
75034W        W36323   7.345  43.458  12.519
75035W        W36324  44.271  31.574  11.571
75036W        W36325  43.441  11.185  12.855
75037W        W36326   6.238  26.019  12.876
75038W        W36327  25.510  31.087   4.321
75039W        W36328  15.684  36.452  14.909
75040W        W36329  39.432  16.767   4.174
75041W        W36330   7.408  17.591  14.021
75042W        W36331  11.823  25.522  12.855
75043W        W36332  41.874  16.118   0.874
75044W        W36333  20.530  38.380  11.958
75045W        W36334  42.446  16.222   4.792
75046W        W36335  15.590  38.882   1.409
75047W        W36336   0.380  36.973  14.922
75048W        W36337  42.892  25.039  12.492
75049W        W36338  27.043  28.451  11.084
75050W        W36339  33.010  35.949  14.813
75051W        W36340  21.205  16.133  13.062
75052W        W36341   3.425  12.151  12.965
75053W        W36342   3.739  14.685  14.381
75054W        W36343  25.535  43.327  14.989
75055W        W36344  34.431  30.577   4.797
75056W        W36345  39.904  38.529  13.031
75057W        W36346  26.051   4.865   0.925
75058W        W36347  25.979  37.466   1.793
75059W        W36348  12.192  27.134   2.727
75060W        W36349  15.147  41.841  13.323
75061W        W36350   4.431  23.678  12.543
75062W        W36351  24.993   2.814  13.004
75063W        W36352  37.409  22.141   4.818
75064W        W36353  38.935  15.159  10.443
75065W        W36354  32.056  27.472   4.695
75066W        W36355  25.604  37.922   4.628
75067W        W36356  11.765   1.928  14.865
75068W        W36357   2.865  42.313  11.867
75069W        W36358  32.531  22.692   3.262
75070W        W36359  37.914  13.333   3.753
75071W        W36360  42.341  39.889   0.252
75072W        W36361   7.904  10.811  14.493
75073W        W36362  15.140  28.054   4.123
75074W        W36363  39.833  32.407  11.963
75075W        W36364  36.361  11.736  11.379
75076W        W36365  10.333  31.408  13.495
75077W        W36366  23.665  32.134   4.202
75078W        W36367  18.789  20.580  12.527
75079W        W36368  38.348  12.795   4.782
75080W        W36369  36.580  27.946  11.508
75081W        W36370  22.654   9.664  10.096
75082W        W36371  11.649  12.654  14.992
75083W        W36372  26.495  35.101   5.109
75084W        W36373  15.305  35.448   2.866
75085W        W36374   1.290  18.569   3.850
75086W        W36375  18.770  43.355  13.928
75087W        W36376   8.334  34.422   0.942
75088W        W36377  21.578  19.745   2.717
75089W        W36378   6.397  21.146   1.744
75090W        W36379  19.714   9.149  11.001
75091W        W36380   8.833  35.020   2.680
75092W        W36381  10.820  32.937   2.777
75093W        W36382  31.437  11.296  11.508
75094W        W36383  10.171  39.411   3.362
75095W        W36384   0.374  31.138  12.995
75096W        W36385  40.860  25.112  12.086
75097W        W36386  19.216   7.213  13.453
75098W        W36387   5.721  22.565   0.830
75099W        W36388   5.348  38.405  13.996
75100W        W36389  30.908  16.122   2.769
75101W        W36390   2.883  13.640  10.430
75102W        W36391  16.567   8.196  10.486
75103W        W36392  42.988   1.854  11.371
75104W        W36393  18.568  29.470   0.448
75105W        W36394  38.918  14.812  11.933
75106W        W36395   0.803  32.564  11.468
75107W        W36396  20.178  32.969  12.840
75108W        W36397  31.461  21.095  11.984
75109W        W36398  26.467  28.497   4.679
75110W        W36399  26.954  29.663   4.640
75111W        W36400  10.351   2.471   0.471
75112W        W36401  37.856   9.647   2.728
75113W        W36402  18.155  43.384  14.486
75114W        W36403  36.535   9.678  11.519
75115W        W36404  26.059  31.004  11.374
75116W        W36405   4.939  37.418   3.790
75117W        W36406  17.671   4.405   0.903
75118W        W36407  15.580   0.879   2.235
75119W        W36408  36.392   4.326  12.903
75120W        W36409  36.929  19.594   2.765
75121W        W36410   7.390  26.195  13.543
75122W        W36411   5.772  33.515   2.817
75123W        W36412  23.000  15.231  14.391
75124W        W36413   4.938  38.928   5.251
75125W        W36414   3.248  30.614   2.386
75126W        W36415  15.260  27.651  10.634
75127W        W36416  44.893  41.308  13.476
75128W        W36417  29.146   5.786   0.952
75129W        W36418  42.789  36.864  11.574
75130W        W36419  34.944  27.475   1.349
75131W        W36420   2.466  40.043  14.799
75132W        W36421  26.018   8.357  13.441
75133W        W36422  31.039  35.956   1.279
75134W        W36423  29.587  18.176   3.803
75135W        W36424  18.791  34.531   4.331
75136W        W36425  34.964  19.711   3.728
75137W        W36426  16.658  38.997  11.083
75138W        W36427  14.189  36.057  12.008
75139W        W36428  11.218  41.982  12.466
75140W        W36429  33.938   2.729  13.046
75141W        W36430  12.166  29.596   1.407
75142W        W36431  23.159  41.850  12.447
75143W        W36432  26.006  14.152   1.832
75144W        W36433  34.544  37.528   4.620
75145W        W36434   2.828  38.506   4.760
75146W        W36435  39.869  36.879  11.596
75147W        W36436  19.248   0.258   3.646
75148W        W36437  39.936   2.962   4.266
75149W        W36438  26.080   1.885   2.846
75150W        W36439  32.959  29.045   2.255
75151W        W36440  17.079  15.275  10.492
75152W        W36441  23.588  30.627   1.730
75153W        W36442  22.646   6.779   3.256
75154W        W36443  30.150  29.002   1.264
75155W        W36444  35.968  21.118  12.356
75156W        W36445  41.527  38.432  12.387
75157W        W36446  14.749  42.487   1.739
75158W        W36447  22.146  33.454   4.620
75159W        W36448  21.180  26.138  10.538
75160W        W36449  37.976   6.753  12.087
75161W        W36450  19.274  36.991   4.286
75162W        W36451  33.040  21.244  14.946
75163W        W36452  34.407  43.418   3.855
75164W        W36453   3.859  24.074  14.836
75165W        W36454  39.456  14.675   2.242
75166W        W36455  22.038  39.391  10.560
75167W        W36456  37.392  20.580  10.438
75168W        W36457   9.835  33.114   3.668
75169W        W36458  15.328  22.541   0.922
75170W        W36459   3.435  10.836  13.442
75171W        W36460  15.212  26.127  12.850
75172W        W36461   3.231   2.931  11.389
75173W        W36462  15.588  20.254   3.636
75174W        W36463  15.649   6.270  14.927
75175W        W36464  27.143   6.721   3.288
75176W        W36465  38.833   3.280   0.304
75177W        W36466  16.811  26.973   1.230
75178W        W36467  32.445   1.385   2.348
75179W        W36468  37.859  16.203   1.254
75180W        W36469   7.288  19.589   4.303
75181W        W36470  23.229  22.568   3.178
75182W        W36471   2.285  13.843   3.638
75183W        W36472  39.405  36.353  12.060
75184W        W36473  15.217   6.718   1.427
75185W        W36474  40.373   5.688  13.026
75186W        W36475  25.486   4.312   1.728
75187W        W36476   5.413  17.706  12.040
75188W        W36477  35.084   6.244  12.084
75189W        W36478   9.317  22.743  11.520
75190W        W36479  31.506  11.249  12.436
75191W        W36480  29.002  27.556   3.681
75192W        W36481  21.668   9.231   0.839
75193W        W36482  28.518  33.439  13.036
75194W        W36483  43.341  35.961  14.796
75195W        W36484  12.670   8.797   1.782
75196W        W36485  16.272  32.136   3.251
75197W        W36486  29.061  44.788  14.402
75198W        W36487   1.874  24.054  10.588
75199W        W36488  13.291  20.146   1.248
75200W        W36489  25.185   1.879  10.522
75201W        W36490  37.960  43.010  13.488
75202W        W36491   0.750  37.016   1.286
75203W        W36492  31.639  31.577   0.833
75204W        W36493  11.241   8.212  10.453
75205W        W36494  18.604   0.435   2.778
75206W        W36495   3.879   0.842  11.446
75207W        W36496   0.355  29.126  13.862
75208W        W36497  23.495  36.497   1.238
75209W        W36498   1.914  27.539   3.681
75210W        W36499  42.784  41.350   4.257
75211W        W36500  31.559  29.072  10.643
75212W        W36501  24.639  32.402   3.205
75213W        W36502  30.919  35.967   5.266
75214W        W36503  24.087  40.474   0.367
75215W        W36504  28.673  21.239  10.456
75216W        W36505  21.516  40.852  14.487
75217W        W36506  28.543  11.832  11.005
75218W        W36507   5.272  28.509  12.347
75219W        W36508   3.248  11.256  11.573
75220W        W36509   5.702  42.884  11.395
75221W        W36510  38.903  27.037   4.222
75222W        W36511  26.155  26.472  13.343
75223W        W36512   6.898   0.454   0.398
75224W        W36513  11.371  10.833  14.862
75225W        W36514  24.049  43.415  14.898
75226W        W36515  39.014  35.906   2.415
75227W        W36516   2.269  39.986  11.879
75228W        W36517  20.038   4.889   3.772
75229W        W36518  43.405  44.956  11.593
75230W        W36519  24.582  20.692  12.043
75231W        W36520   2.737  22.627  12.368
75232W        W36521  43.797   0.345   2.357
75233W        W36522  20.130  14.742   4.179
75234W        W36523  23.507  17.742  13.450
75235W        W36524  23.594  20.269  11.435
75236W        W36525   0.890  36.579   0.382
75237W        W36526   9.722   7.883   1.278
75238W        W36527  17.083  12.669  12.047
75239W        W36528  39.914  28.938   1.909
75240W        W36529  15.614   6.736   3.810
75241W        W36530   3.366  20.526   0.306
75242W        W36531  39.922   1.817  13.892
75243W        W36532  42.401  21.659  14.889
75244W        W36533  11.637  12.281   0.362
75245W        W36534  44.765  25.970  10.465
75246W        W36535  41.517   4.846   0.434
75247W        W36536   1.929  21.674  14.301
75248W        W36537  23.135   1.735  10.483
75249W        W36538   4.742   2.832   2.886
75250W        W36539  17.637  38.356  11.474
75251W        W36540  33.131  17.731   2.321
75252W        W36541   9.280  29.924  11.373
75253W        W36542   3.437  34.924  11.879
75254W        W36543  10.728  15.156  12.910
75255W        W36544  16.208  39.321  10.637
75256W        W36545   1.815  41.803  13.499
75257W        W36546  38.961  29.503   0.434
75258W        W36547  43.297  29.009   1.267
75259W        W36548  13.202  33.506  12.431
75260W        W36549  44.400  24.148   3.813
75261W        W36550  40.386  14.811  12.447
75262W        W36551   9.323  42.812  10.995
75263W        W36552  18.662  10.786  13.807
75264W        W36553  40.989  17.279   2.793
75265W        W36554  28.469  35.422  12.017
75266W        W36555  15.087  15.165  12.376
75267W        W36556  20.717  39.499  11.025
75268W        W36557  19.208   4.902   3.657
75269W        W36558  25.478  23.100   0.416
75270W        W36559  26.116  28.492   3.842
75271W        W36560  20.599  18.738  10.513
75272W        W36561  26.184  29.556   2.327
75273W        W36562   8.844  21.143   0.363
75274W        W36563  34.043   3.840   3.854
75275W        W36564  26.206  15.284  12.390
75276W        W36565  18.262  44.909  14.305
75277W        W36566  37.548  31.114   2.762
75278W        W36567  18.065  39.849  11.397
75279W        W36568  13.710   5.920  10.498
75280W        W36569  37.954  23.088  13.807
75281W        W36570  15.313  34.046   0.375
75282W        W36571  28.608  31.537   4.702
75283W        W36572  26.968  36.059  13.028
75284W        W36573  22.248   6.347   2.798
75285W        W36574  42.411   0.467  11.410
75286W        W36575  14.127  39.334   1.278
75287W        W36576  40.960   5.840  10.499
75288W        W36577  13.688  30.149   4.710
75289W        W36578  22.214  29.612   0.461
75290W        W36579   9.265  31.597   1.816
75291W        W36580  15.301  40.833  14.968
75292W        W36581  30.653  36.390  10.525
75293W        W36582   4.835  31.574  11.421
75294W        W36583  41.310  27.181  11.862
75295W        W36584   4.210  38.019  13.972
75296W        W36585   4.350  20.163   3.283
75297W        W36586  17.579  32.038  14.786
75298W        W36587  26.686  37.993   0.467
75299W        W36588  20.642  38.022  13.548
75300W        W36589   7.774  20.745   2.284
75301W        W36590  32.018  18.787   4.298
75302W        W36591  16.670   0.832  10.633
75303W        W36592  29.602  41.023  10.450
75304W        W36593  16.603  44.814   2.721
75305W        W36594  14.820  13.674   2.778
75306W        W36595   4.813  32.594  12.524
75307W        W36596  20.045  31.589  11.601
75308W        W36597   5.325   7.718  14.335
75309W        W36598  14.321  36.496   0.266
75310W        W36599   7.784  27.077  11.930
75311W        W36600  22.661  37.525   5.302
75312W        W36601   6.377   3.250  12.387
75313W        W36602  17.707   8.193   4.136
75314W        W36603  19.660  40.538   0.957
75315W        W36604   4.424  12.208  13.446
75316W        W36605  41.011  39.035   1.699
75317W        W36606  33.900  15.652  12.907
75318W        W36607  29.453  32.628  13.974
75319W        W36608  10.827   1.330   1.315
75320W        W36609   0.261  18.761  14.402
75321W        W36610   8.259   1.750  10.610
75322W        W36611  22.643  43.332   2.287
75323W        W36612  17.078  14.657   4.766
75324W        W36613  41.312  16.120   0.347
75325W        W36614  27.030  33.551   0.898
75326W        W36615  43.410  39.016  12.039
75327W        W36616  29.591  12.213   4.656
75328W        W36617   5.235   0.933   1.259
75329W        W36618  44.905  44.008  12.065
75330W        W36619  44.278  21.252   4.825
75331W        W36620  40.501   5.863   2.223
75332W        W36621  12.657  11.778  12.542
75333W        W36622  17.602  20.759  10.950
75334W        W36623  41.370  23.062  11.113
75335W        W36624  15.799   3.935   1.353
75336W        W36625  26.542  27.107  13.988
75337W        W36626  40.472  32.556   3.828
75338W        W36627  40.971  17.641   2.228
75339W        W36628  30.024   7.819  13.055
75340W        W36629   3.327   8.384  11.894
75341W        W36630  37.006  33.405  12.536
75342W        W36631  17.119  15.758   2.830
75343W        W36632  28.079  33.081   4.606
75344W        W36633  10.192  12.145  11.119
75345W        W36634  42.479  34.893   2.356
75346W        W36635  35.478  40.336   2.211
75347W        W36636   9.359  31.987   1.893
75348W        W36637   4.443  33.552   3.215
75349W        W36638  17.174  41.815   2.222
75350W        W36639  27.469  34.087   4.800
75351W        W36640  37.871  26.005   3.841
75352W        W36641  22.641  11.348  12.480
75353W        W36642   4.314  34.906  12.574
75354W        W36643  42.777  25.039   0.779
75355W        W36644  23.550  16.307  13.413
75356W        W36645  35.058  35.558   4.232
75357W        W36646  16.582  32.491   1.398
75358W        W36647  41.985   9.890   1.841
75359W        W36648   4.804  44.753  12.467
75360W        W36649  19.778  26.482   1.911
75361W        W36650  37.493  37.879  13.451
75362W        W36651  41.358  22.562   1.875
75363W        W36652  15.642  38.543   1.316
75364W        W36653  29.081   0.422  13.898
75365W        W36654  42.445  36.053  11.373
75366W        W36655  20.074  28.171   2.876
75367W        W36656  20.678  11.647  11.015
75368W        W36657  30.911   5.851  12.529
75369W        W36658  24.992  29.603  14.405
75370W        W36659   7.286  29.575  10.533
75371W        W36660  20.218   8.385   3.740
75372W        W36661  30.012  20.170  12.051
75373W        W36662  33.417   1.295  14.950
75374W        W36663  26.074  41.361  12.978
75375W        W36664   5.198  31.572   3.726
75376W        W36665  16.245  25.032  13.386
75377W        W36666  32.074  24.061   2.662
75378W        W36667  22.716  37.520  12.898
75379W        W36668  11.646  37.056   0.847
75380W        W36669   9.218  24.053   3.842
75381W        W36670   3.816  12.817  14.919
75382W        W36671   1.735   5.280  13.475
75383W        W36672   6.354   2.319   2.865
75384W        W36673   4.801  16.107  13.536
75385W        W36674  17.790  21.627   2.266
75386W        W36675  18.753   3.352  13.534
75387W        W36676  29.019  29.485  11.882
75388W        W36677  42.435  29.598  11.020
75389W        W36678   8.827  35.417   1.302
75390W        W36679  31.014   8.258  13.397
75391W        W36680  27.448  19.688   4.610
75392W        W36681  25.525  16.771  13.004
75393W        W36682   3.389  35.064   4.220
75394W        W36683  11.709  19.612   0.919
75395W        W36684  40.947  24.595  13.418
75396W        W36685   9.666   3.266   5.227
75397W        W36686  41.815  36.081  10.615
75398W        W36687  43.423   7.290   2.370
75399W        W36688  19.144  17.088  14.318
75400W        W36689  20.671  29.961   1.737
75401W        W36690  18.162  44.005   1.288
75402W        W36691   0.309   4.213   3.735
75403W        W36692  31.953  13.791   3.336
75404W        W36693  39.343  12.142  13.875
75405W        W36694  29.162  25.565  14.420
75406W        W36695  30.419  37.361   0.363
75407W        W36696  30.620  36.046   1.247
75408W        W36697   7.183   1.814   4.221
75409W        W36698  40.490  29.152   1.815
75410W        W36699  32.086  21.261   4.633
75411W        W36700  16.233  22.731  12.003
75412W        W36701  24.026   5.266   1.439
75413W        W36702  10.856  26.457   4.629
75414W        W36703  15.261  30.609  14.029
75415W        W36704   4.839  25.481   0.412
75416W        W36705  30.504  17.133   1.244
75417W        W36706  25.668  39.415  14.918
75418W        W36707  43.417  19.063   0.342
75419W        W36708   8.192  32.580   3.676
75420W        W36709  10.714  33.437   0.454
75421W        W36710  31.899  15.321  13.485
75422W        W36711   4.255  25.219  11.604
75423W        W36712  23.223  27.089   4.761
75424W        W36713  29.436  28.450   2.380
75425W        W36714  19.738  10.294   0.405
75426W        W36715  29.096   0.899   1.905
75427W        W36716  42.778  36.570   0.356
75428W        W36717  31.983  36.998   2.390
75429W        W36718  11.714  44.010   4.124
75430W        W36719  21.017  24.684  14.926
75431W        W36720  44.896  15.763   2.762
75432W        W36721  23.019  20.200  13.021
75433W        W36722   2.808   6.355   3.196
75434W        W36723   9.875  42.475   3.686
75435W        W36724  27.055  38.005  14.306
75436W        W36725  35.044  40.889  12.853
75437W        W36726  34.614  20.142  14.975
75438W        W36727   9.315  28.156  14.807
75439W        W36728   7.753   7.360  11.934
75440W        W36729  40.373  10.152  14.436
75441W        W36730  40.005  43.953  14.760
75442W        W36731  44.870   0.916   0.331
75443W        W36732  43.502  13.299  13.828
75444W        W36733  32.038  27.689   3.285
75445W        W36734  10.860  27.498   0.918
75446W        W36735   9.325   1.477   3.716
75447W        W36736  25.212  28.179   2.284
75448W        W36737  35.883   2.932  14.949
75449W        W36738  33.416   1.869  14.407
75450W        W36739  12.347  13.156  10.984
75451W        W36740  12.295  39.060  10.951
75452W        W36741  33.041  31.032   3.299
75453W        W36742   1.790  22.084   3.244
75454W        W36743  35.920  24.686   1.730
75455W        W36744  41.535  41.820  11.077
75456W        W36745  28.484   2.454  12.412
75457W        W36746  39.417  35.573  10.515
75458W        W36747  30.447  25.490  12.529
75459W        W36748  32.915  18.749   4.329
75460W        W36749   3.739   6.228  11.997
75461W        W36750   8.808  22.541   4.293
75462W        W36751  32.131  26.147   2.403
75463W        W36752  42.834   2.830   3.184
75464W        W36753  36.449  13.743   3.759
75465W        W36754  36.909  26.555   1.410
75466W        W36755  17.800  43.393  11.960
75467W        W36756  43.439   4.794  14.285
75468W        W36757  40.467  44.459  10.996
75469W        W36758   5.738  29.611  13.052
75470W        W36759  22.172  14.315  12.567
75471W        W36760  29.516  24.149  13.893
75472W        W36761  38.425   0.305  12.395
75473W        W36762   0.456  30.063  12.997
75474W        W36763   6.324  28.041  11.047
75475W        W36764  20.119  20.602  12.033
75476W        W36765  14.307  21.023  11.954
75477W        W36766  20.031  20.044   0.931
75478W        W36767  15.778  38.950   3.783
75479W        W36768  31.529  22.246  14.347
75480W        W36769   0.433   9.193   1.236
75481W        W36770  10.858   6.255  14.937
75482W        W36771   1.732   5.890   3.698
75483W        W36772  26.503  33.035  11.921
75484W        W36773   2.917  29.585  13.464
75485W        W36774  38.401  11.730   0.397
75486W        W36775  33.932  36.364   3.714
75487W        W36776   1.771  11.658  11.031
75488W        W36777  44.813  40.409   0.341
75489W        W36778   8.378  37.932   1.800
75490W        W36779  12.721  28.513   1.389
75491W        W36780  26.062  21.647  14.432
75492W        W36781   7.895  11.675   4.219
75493W        W36782  28.589  28.662  14.867
75494W        W36783  29.926  42.878  11.389
75495W        W36784   2.869   0.284  13.819
75496W        W36785  18.686   6.794  11.552
75497W        W36786  18.227  33.517   4.291
75498W        W36787  28.964   0.336  12.425
75499W        W36788  23.512  25.198  14.466
75500W        W36789  11.823   0.982   1.373
75501W        W36790  38.527   2.733  11.875
75502W        W36791  27.059  29.585  12.956
75503W        W36792   5.332  26.696   0.899
75504W        W36793   8.873   9.801   1.814
75505W        W36794  17.730  42.487  12.839
75506W        W36795  34.473  40.466   0.459
75507W        W36796  34.573  30.428   2.294
75508W        W36797  18.140  14.329   0.928
75509W        W36798  15.175  11.748   0.918
75510W        W36799  13.197  32.483  11.496
75511W        W36800  33.905  15.210   0.343
75512W        W36801  34.450  28.551  13.394
75513W        W36802  40.963  33.388   3.670
75514W        W36803   3.242   2.241  11.963
75515W        W36804  30.993   8.805  11.465
75516W        W36805  21.645  39.475   2.770
75517W        W36806  13.216   2.893  11.086
75518W        W36807  35.494  15.623  12.379
75519W        W36808  25.157   9.364  14.312
75520W        W36809  33.069   2.471   0.325
75521W        W36810  40.548  26.022   4.807
75522W        W36811   2.782  27.942  14.851
75523W        W36812  41.983  38.417   3.825
75524W        W36813  25.705  13.240  13.464
75525W        W36814  36.434  39.037   2.739
75526W        W36815  16.285  22.059   1.330
75527W        W36816  21.572  12.709  12.825
75528W        W36817  18.071  27.472  14.937
75529W        W36818  13.268  14.626   1.344
75530W        W36819  19.243  33.569  13.396
75531W        W36820  36.846  25.052   2.240
75532W        W36821  38.350  24.067   0.924
75533W        W36822   2.922   9.238  13.999
75534W        W36823  10.709  14.833   3.153
75535W        W36824  13.120  20.031   0.461
75536W        W36825   7.344  12.361  13.863
75537W        W36826  20.150  34.471   1.822
75538W        W36827   5.259  42.007   1.241
75539W        W36828  13.269  36.401  14.921
75540W        W36829  24.660   7.875  11.392
75541W        W36830  31.407  30.012   1.783
75542W        W36831  26.137   3.850  11.592
75543W        W36832  15.725   6.410  10.630
75544W        W36833  28.525  43.943   4.819
75545W        W36834  10.847  15.120  12.076
75546W        W36835   2.867  40.948   4.188
75547W        W36836  19.041  20.248   4.675
75548W        W36837  23.571  42.485   4.643
75549W        W36838  14.240  26.573  13.912
75550W        W36839  24.086  10.819   1.279
75551W        W36840  23.060  42.526   4.822
75552W        W36841  15.296  11.862   3.381
75553W        W36842  17.296   0.973   3.694
75554W        W36843   5.884  17.177  11.502
75555W        W36844   7.338  33.548  13.313
75556W        W36845  26.602  39.886  11.498
75557W        W36846  12.732  36.073   5.169
75558W        W36847  42.786  31.422  14.840
75559W        W36848   4.832  26.587  14.880
75560W        W36849  15.761  23.213  14.359
75561W        W36850  38.509  38.000   2.179
75562W        W36851  25.995  32.503  11.545
75563W        W36852  34.028   2.462  11.558
75564W        W36853  44.959   0.469   1.847
75565W        W36854   6.351  33.995   1.833
75566W        W36855  41.400  23.629   1.838
75567W        W36856  43.369   7.381  13.876
75568W        W36857  40.858  26.970  13.309
75569W        W36858   2.859  14.723   0.299
75570W        W36859  31.953  21.230   3.737
75571W        W36860  20.234   5.205  10.912
75572W        W36861   9.255  20.712   1.317
75573W        W36862   6.383  22.515   9.517
75574W        W36863   3.265  29.110   4.770
75575W        W36864  16.692  41.921   4.808
75576W        W36865  27.533  27.067   0.276
75577W        W36866   2.864  20.042   3.632
75578W        W36867  21.075  15.761   2.287
75579W        W36868  23.524   9.191   1.399
75580W        W36869  14.704  34.928   0.395
75581W        W36870  42.966  15.785   2.713
75582W        W36871  28.478  40.436   3.812
75583W        W36872  34.065  38.533  13.932
75584W        W36873  14.653  29.503  13.866
75585W        W36874  23.594  28.680  13.823
75586W        W36875  31.138  31.147  13.001
75587W        W36876  35.455  42.022   1.923
75588W        W36877   7.779   4.344   3.271
75589W        W36878  44.420   1.263  10.894
75590W        W36879  32.102   0.890   2.684
75591W        W36880  15.720   6.218   4.252
75592W        W36881  33.623   5.241  12.365
75593W        W36882  25.052  43.297   5.247
75594W        W36883  10.203  18.746  10.641
75595W        W36884  27.149   3.232   4.223
75596W        W36885  33.497  19.094   3.698
75597W        W36886  33.490  27.028   1.896
75598W        W36887  40.963   2.340   2.798
75599W        W36888  27.616  44.920  14.364
75600W        W36889  27.005  37.395  10.047
75601W        W36890   0.852  42.452   2.185
75602W        W36891  39.547   3.386   3.314
75603W        W36892  20.680  10.739  10.952
75604W        W36893   8.785  34.482   1.921
75605W        W36894  43.436  38.404  14.919
75606W        W36895  23.987  23.688  12.900
75607W        W36896   1.782  16.672   0.936
75608W        W36897  28.536  42.953   0.815
75609W        W36898   6.828  44.338  13.943
75610W        W36899  19.074  10.301   4.614
75611W        W36900  31.972  42.823   4.348
75612W        W36901  38.492   9.307   0.477
75613W        W36902  40.827  31.432  14.328
75614W        W36903  10.263   3.896   4.338
75615W        W36904  23.730  42.298   0.804
75616W        W36905  44.453   2.965   1.422
75617W        W36906  26.703   0.890   0.448
75618W        W36907   3.815  32.604   1.760
75619W        W36908   3.746  27.015   2.219
75620W        W36909  24.100  39.532  13.439
75621W        W36910  33.607   1.359   1.439
75622W        W36911  32.417   6.778  13.381
75623W        W36912  25.705  28.576  14.349
75624W        W36913  22.139  19.105   1.328
75625W        W36914  44.990  25.522   0.839
75626W        W36915  26.170  18.228  10.923
75627W        W36916  15.814  23.036   2.178
75628W        W36917  22.251  35.413   0.790
75629W        W36918  41.993  16.080  14.321
75630W        W36919   5.289   4.322   4.727
75631W        W36920  36.478  12.701  12.008
75632W        W36921   0.422  39.549   4.219
75633W        W36922  41.458  23.590  10.911
75634W        W36923  40.940  28.094   0.944
75635W        W36924  28.519  36.885  14.353
75636W        W36925  19.092  27.151   4.149
75637W        W36926   8.810  34.455   3.164
75638W        W36927  10.175  23.657   0.851
75639W        W36928  14.255  14.329   3.808
75640W        W36929  37.900  39.560   0.903
75641W        W36930  25.217  20.528  11.456
75642W        W36931  30.519  21.621   3.177
75643W        W36932  32.445  44.002   4.632
75644W        W36933  16.689  29.926  12.872
75645W        W36934   1.959  13.336   2.791
75646W        W36935   4.214   5.261   2.828
75647W        W36936  41.294  25.559   3.321
75648W        W36937  35.426   7.699   1.425
75649W        W36938   8.333   5.323   3.246
75650W        W36939   7.396  44.843   1.857
75651W        W36940  24.062  42.030  12.525
75652W        W36941  25.108   2.857   0.889
75653W        W36942   8.394   1.420  12.893
75654W        W36943   2.323  42.517  11.875
75655W        W36944  12.656  42.992  12.879
75656W        W36945   6.263  44.969   3.630
75657W        W36946   6.189  37.511  10.964
75658W        W36947  29.441  20.122  13.965
75659W        W36948  13.239   9.157   4.339
75660W        W36949  36.987   4.340  13.895
75661W        W36950  29.645   8.214  11.499
75662W        W36951  33.582  25.503   2.850
75663W        W36952  10.300   5.288   0.930
75664W        W36953   3.877  16.785  14.992
75665W        W36954  26.138  44.888   4.629
75666W        W36955  38.039  37.998  10.491
75667W        W36956  16.694   5.798  14.290
75668W        W36957  24.016  35.077   0.796
75669W        W36958  20.147  11.865   0.324
75670W        W36959  16.178   1.433   1.244
75671W        W36960  14.321  35.978  10.081
75672W        W36961   0.779   5.872   3.718
75673W        W36962  14.107   7.911   0.883
75674W        W36963  25.994  41.396  10.479
75675W        W36964  41.485  43.817   1.271
75676W        W36965  34.531  14.736  15.000
75677W        W36966   3.411  23.010  12.556
75678W        W36967  22.730  38.538   4.831
75679W        W36968  31.908  17.107  12.921
75680W        W36969   3.854  39.833  10.104
75681W        W36970  13.230  38.010   2.786
75682W        W36971  14.629  41.877   0.445
75683W        W36972  15.097  29.018   0.336
75684W        W36973  35.412   9.756   2.685
75685W        W36974  10.360  35.105  10.978
75686W        W36975  36.896  24.679  10.964
75687W        W36976  29.080  21.263  14.319
75688W        W36977  28.611  28.131   3.682
75689W        W36978  36.437  27.167   3.187
75690W        W36979  40.349  11.363  10.926
75691W        W36980  43.343  27.166  13.539
75692W        W36981  30.583  28.644  13.947
75693W        W36982  26.083  24.633   0.946
75694W        W36983   2.834  44.861   2.195
75695W        W36984  34.957   2.303  13.451
75696W        W36985  30.139   1.319   3.840
75697W        W36986  31.641  17.643  12.432
75698W        W36987  26.999  27.031  14.359
75699W        W36988  23.105  43.865   3.358
75700W        W36989  37.960  41.950  14.943
75701W        W36990  44.878  12.230  13.963
75702W        W36991  25.561  40.916   3.164
75703W        W36992  38.520  31.490  10.466
75704W        W36993  32.114   0.976  10.416
75705W        W36994  24.723  20.569  13.000
75706W        W36995   1.416  10.185  11.438
75707W        W36996   5.351  21.073  10.420
75708W        W36997  17.089  18.596  13.039
75709W        W36998  19.777  12.310   4.201
75710W        W36999  13.124  36.390   1.872
75711W        W37000   4.793  22.160   4.619
75712W        W37001  24.104   0.364  11.118
75713W        W37002   2.852  34.094   1.755
75714W        W37003  37.377  12.321  14.807
75715W        W37004  15.212  25.675  13.410
75716W        W37005  19.562  16.790   1.339
75717W        W37006  10.764  41.809  11.512
75718W        W37007  14.825  10.747  11.045
75719W        W37008  44.782  12.696   0.449
75720W        W37009  15.615  31.647   3.813
75721W        W37010  43.833  42.939  11.958
75722W        W37011  22.720  32.069  13.922
75723W        W37012  24.063   5.924  11.569
75724W        W37013  23.736  21.247  14.401
75725W        W37014  32.967  23.999  12.477
75726W        W37015   7.699  39.970   1.926
75727W        W37016  40.990  23.213   0.333
75728W        W37017   4.916  30.652  13.534
75729W        W37018  17.606  38.889  12.852
75730W        W37019  41.324  12.703  13.496
75731W        W37020  13.204  29.051   3.328
75732W        W37021   3.414  31.527   1.255
75733W        W37022  44.484   1.291   2.869
75734W        W37023  14.124  43.512   0.896
75735W        W37024   7.887   5.236   4.321
75736W        W37025  12.202  41.320   3.746
75737W        W37026  16.669  22.744   3.272
75738W        W37027  21.573  36.456   2.347
75739W        W37028  35.476  20.529   1.354
75740W        W37029  40.475  19.594   3.868
75741W        W37030  20.127  22.560   1.274
75742W        W37031  10.847  31.956   2.311
75743W        W37032  13.248  35.400   5.126
75744W        W37033  13.239  22.138   5.184
75745W        W37034  20.586  31.119  12.522
75746W        W37035  32.511   6.821   0.364
75747W        W37036  23.721  38.973  10.633
75748W        W37037  25.189  30.008  11.121
75749W        W37038  33.073  22.089   2.735
75750W        W37039   2.733   6.341  14.393
75751W        W37040  35.896   8.187  13.006
75752W        W37041  36.451  21.151  10.536
75753W        W37042  13.129  21.692  14.492
75754W        W37043  20.555  18.624  13.377
75755W        W37044   2.339   9.817  13.410
75756W        W37045  39.535   7.260   2.837
75757W        W37046   0.876   4.848  11.435
75758W        W37047  11.286  21.121  14.997
75759W        W37048  17.226   4.847   0.876
75760W        W37049   8.664  24.507   2.268
75761W        W37050  22.996  39.375  13.937
75762W        W37051  26.978   6.708  14.375
75763W        W37052   9.389  21.117  13.484
75764W        W37053   8.221  25.131  11.897
75765W        W37054  35.045  15.085   2.409
75766W        W37055   0.743  21.058  14.943
75767W        W37056  28.956   7.697  14.807
75768W        W37057  21.625  17.616  14.760
75769W        W37058  31.049  21.037  10.046
75770W        W37059  33.578  19.578   3.813
75771W        W37060  29.101  41.405   2.870
75772W        W37061  30.617  28.166  10.639
75773W        W37062  29.483  12.772  14.782
75774W        W37063  12.333  35.572  13.802
75775W        W37064  18.704  33.975  14.918
75776W        W37065   2.307   4.756  10.438
75777W        W37066   1.854  44.446   3.772
75778W        W37067  41.484  38.536   3.209
75779W        W37068  38.445  11.213  11.427
75780W        W37069  41.034   1.458   4.743
75781W        W37070  28.543   3.906  14.465
75782W        W37071  21.129  10.345  12.968
75783W        W37072  44.920  36.467   4.127
75784W        W37073  41.816  42.863  14.763
75785W        W37074  23.678  43.347   3.693
75786W        W37075  38.916  37.966  14.500
75787W        W37076   2.237  33.568  11.042
75788W        W37077  26.030  42.487   1.931
75789W        W37078  15.706   4.925   2.284
75790W        W37079  37.340  20.680  14.385
75791W        W37080  25.118  40.883  13.493
75792W        W37081  14.809  31.130   0.385
75793W        W37082  22.586  16.108  11.030
75794W        W37083  18.611  28.121  12.000
75795W        W37084  28.445  31.103   1.727
75796W        W37085  37.509  10.273  13.535
75797W        W37086  24.204  25.026  12.384
75798W        W37087  42.823  37.551  11.375
75799W        W37088  31.449  17.751   4.193
75800W        W37089  27.603  26.668  11.978
75801W        W37090  24.489  24.017  11.860
75802W        W37091  27.537  29.029  12.080
75803W        W37092   0.271   5.426   0.757
75804W        W37093  16.217  23.568   4.244
75805W        W37094  21.620   8.800   0.417
75806W        W37095  17.149  33.099  14.441
75807W        W37096  29.524   0.491  13.502
75808W        W37097   1.291   1.892   3.223
75809W        W37098  13.111  31.495  10.157
75810W        W37099  36.584  22.557  11.996
75811W        W37100  14.280  27.500   3.366
75812W        W37101  42.799  31.413   2.663
75813W        W37102  25.713   7.884  14.425
75814W        W37103   5.727  16.586   2.732
75815W        W37104  20.175  18.156   2.894
75816W        W37105  28.586   1.864   4.314
75817W        W37106  22.049  14.321  14.375
75818W        W37107   3.406   0.792   1.290
75819W        W37108  22.743  19.585  14.284
75820W        W37109   2.315  28.434  10.907
75821W        W37110  32.410  14.690   1.307
75822W        W37111  32.527  36.401  14.392
75823W        W37112  44.402  42.498   0.850
75824W        W37113   8.774   8.745  12.090
75825W        W37114  43.335  21.253  13.016
75826W        W37115  15.280   1.778  12.979
75827W        W37116  28.114  22.210  10.573
75828W        W37117  34.579  16.785   0.868
75829W        W37118  20.147  16.158   1.872
75830W        W37119  39.864  36.882  12.064
75831W        W37120   5.397  29.105   4.677
75832W        W37121  14.261  22.096  14.916
75833W        W37122  40.818  42.927   3.868
75834W        W37123  37.410   4.359  12.465
75835W        W37124  16.644  39.815  11.035
75836W        W37125   8.760  17.122  14.974
75837W        W37126  40.425  30.921   4.117
75838W        W37127  20.748  43.286  11.482
75839W        W37128  21.156  10.222   4.712
75840W        W37129  14.214   9.691   3.633
75841W        W37130   1.735   9.272   1.723
75842W        W37131  25.052  33.605  11.883
75843W        W37132  18.143  20.202  11.867
75844W        W37133   8.388  29.584   4.667
75845W        W37134  21.090  19.050  14.820
75846W        W37135  42.801   0.292   0.780
75847W        W37136  34.050  16.170   3.258
75848W        W37137  14.256  11.788  12.926
75849W        W37138  22.196  33.956   2.848
75850W        W37139   1.817  23.174   0.932
75851W        W37140  16.289  32.499   2.316
75852W        W37141  20.768   9.212  13.879
75853W        W37142  39.866  32.889   3.379
75854W        W37143  42.497   6.884  10.548
75855W        W37144  30.526  28.435  11.109
75856W        W37145  37.056  33.891   1.317
75857W        W37146  33.550   8.764   3.163
75858W        W37147  30.602  14.649   2.893
75859W        W37148   3.842  17.657  10.555
75860W        W37149  15.625  43.846   9.992
75861W        W37150  13.256  15.314   1.300
75862W        W37151   5.259  11.827  10.545
75863W        W37152  22.548   2.399  14.346
75864W        W37153  21.627  33.029  11.471
75865W        W37154  33.934  24.486   2.681
75866W        W37155  44.971  15.712   0.752
75867W        W37156  39.483  18.549   2.820
75868W        W37157  40.018  24.147  11.592
75869W        W37158  44.504  41.388  11.582
75870W        W37159  12.310  31.149  12.345
75871W        W37160  10.706  19.647  10.404
75872W        W37161  20.626  36.399  12.992
75873W        W37162  32.937  44.283   4.809
75874W        W37163  37.060  32.094   1.259
75875W        W37164  42.839   3.447  10.897
75876W        W37165  32.935  25.155  12.021
75877W        W37166  23.052  39.814   0.936
75878W        W37167  34.883   7.718  10.579
75879W        W37168   2.764  22.531  13.870
75880W        W37169  12.156  32.130   2.396
75881W        W37170  27.191  10.167  10.574
75882W        W37171  18.737   8.890   1.368
75883W        W37172  40.969  40.892   1.855
75884W        W37173   7.751  35.533  14.938
75885W        W37174  18.096  29.626   4.692
75886W        W37175  14.226  16.090  14.970
75887W        W37176  40.798  14.639  13.981
75888W        W37177  17.600  24.656   4.748
75889W        W37178  26.956  32.449  11.063
75890W        W37179  26.553  23.551   3.258
75891W        W37180  37.450  26.967   4.683
75892W        W37181  16.710  20.591  11.882
75893W        W37182  17.655   1.428   2.234
75894W        W37183   2.245   5.814  14.922
75895W        W37184  36.020   3.794  14.814
75896W        W37185  20.538  36.516  14.301
75897W        W37186  15.644  13.114   4.667
75898W        W37187  30.915   0.267  11.444
75899W        W37188  12.283  20.149  12.958
75900W        W37189   0.418  37.407  13.536
75901W        W37190   5.328  41.827   2.832
75902W        W37191  22.107  25.082   4.619
75903W        W37192  29.508  24.723  14.021
75904W        W37193  22.068  11.288  12.456
75905W        W37194  10.361   6.364   1.769
75906W        W37195  30.458  24.230  13.885
75907W        W37196  35.410  24.675   1.775
75908W        W37197  23.047  19.214  12.854
75909W        W37198   3.234   9.880   3.310
75910W        W37199  17.071  33.526   3.229
75911W        W37200   7.199  40.369   2.197
75912W        W37201   6.829  32.946  10.641
75913W        W37202   1.767   8.289   0.272
75914W        W37203  39.878   2.858  11.417
75915W        W37204  36.063  14.238   1.291
75916W        W37205  18.277  19.640  10.055
75917W        W37206   8.882   1.732  11.903
75918W        W37207  29.012  34.056   2.178
75919W        W37208  36.353  29.652  13.898
75920W        W37209  17.281  40.962   3.689
75921W        W37210  33.561   9.329  13.925
75922W        W37211  43.013  35.907   4.645
75923W        W37212  28.049  38.520   2.418
75924W        W37213  34.978  38.016   3.792
75925W        W37214  17.063  24.667  12.497
75926W        W37215   6.800  24.552  13.868
75927W        W37216  27.144  22.216  12.864
75928W        W37217  42.853  40.318   3.344
75929W        W37218   6.855  28.503  13.371
75930W        W37219  13.268  15.601   0.402
75931W        W37220  32.894  35.044  11.607
75932W        W37221  42.864  39.417  14.377
75933W        W37222   0.377  44.496  11.024
75934W        W37223  34.057  25.682  10.960
75935W        W37224  36.347  23.070  14.843
75936W        W37225  22.644   2.823   0.765
75937W        W37226  17.751   5.693   1.445
75938W        W37227  16.297   6.209   2.295
75939W        W37228   0.760   2.919  11.593
75940W        W37229   2.470  19.204  12.564
75941W        W37230  28.647  16.230  13.938
75942W        W37231   3.848  36.557   3.261
75943W        W37232  16.710  44.951   0.827
75944W        W37233  18.153  33.084  10.585
75945W        W37234  26.124   4.700   1.821
75946W        W37235  43.422  40.843   3.867
75947W        W37236  42.518  10.757   3.720
75948W        W37237  24.068  35.874  10.093
75949W        W37238  10.273  14.095  12.018
75950W        W37239  18.138   9.209  11.446
75951W        W37240  42.373  33.120  11.518
75952W        W37241  24.612  23.634  13.837
75953W        W37242  35.050  25.156  12.889
75954W        W37243   4.258  42.314   3.386
75955W        W37244  36.083  11.345   2.710
75956W        W37245   1.261  44.283  10.524
75957W        W37246  40.432   8.350  14.877
75958W        W37247   6.825  42.346   3.307
75959W        W37248  15.598   8.386  10.542
75960W        W37249  24.701  19.772  10.629
75961W        W37250  16.587   5.878   4.301
75962W        W37251  32.442  30.162   3.224
75963W        W37252   8.767  21.222   4.709
75964W        W37253  19.243  27.947   3.784
75965W        W37254  31.132  13.775   0.916
75966W        W37255  19.258  43.781  11.582
75967W        W37256   5.818  24.194  14.984
75968W        W37257  18.641  28.504  12.984
75969W        W37258  11.690  40.411  11.885
75970W        W37259  33.967  21.625  10.963
75971W        W37260  13.117  14.106  11.414
75972W        W37261  42.966  14.098   4.151
75973W        W37262   6.861   8.300  12.942
75974W        W37263  37.453  27.015   0.263
75975W        W37264  38.947   2.901   0.786
75976W        W37265   5.772  32.479   1.779
75977W        W37266  11.283  24.190  10.898
75978W        W37267   9.343  29.944  10.466
75979W        W37268   6.213  28.142   0.252
75980W        W37269   8.804  44.374  11.965
75981W        W37270  26.489  29.634  10.929
75982W        W37271  29.169  30.418  12.050
75983W        W37272  27.089   0.775  11.479
75984W        W37273   0.975   3.322   4.745
75985W        W37274  28.135  18.710   2.825
75986W        W37275  39.016  28.618   0.945
75987W        W37276  33.460  37.492   5.143
75988W        W37277  38.422  11.296  13.907
75989W        W37278   3.311  37.562  11.028
75990W        W37279  19.123  19.738   3.853
75991W        W37280  28.493  11.809   0.273
75992W        W37281  42.920  12.331   3.321
75993W        W37282  10.874  27.467   4.207
75994W        W37283  41.524  31.585  10.934
75995W        W37284  39.323  35.560   1.708
75996W        W37285  25.554  40.391  14.934
75997W        W37286  37.464  20.094   4.249
75998W        W37287  31.101  29.542   4.649
75999W        W37288   4.298  30.028   0.302
76000W        W37289  24.688  28.516   3.370
76001W        W37290  25.571  18.074   5.288
76002W        W37291  24.708  23.733  14.328
76003W        W37292  36.022   1.912  10.456
76004W        W37293   5.200  11.128   3.179
76005W        W37294   0.859   1.415  14.844
76006W        W37295   3.720  26.197   0.957
76007W        W37296  28.014  31.473  11.507
76008W        W37297  32.501  18.619   2.227
76009W        W37298  43.852   4.845   3.723
76010W        W37299  24.667  44.311  12.928
76011W        W37300   5.347   0.265  13.418
76012W        W37301  35.377   5.765  11.425
76013W        W37302  28.082  38.024   4.262
76014W        W37303   6.745   9.853   4.615
76015W        W37304  26.112  15.234  14.370
76016W        W37305  42.486  22.241  12.019
76017W        W37306  17.075  31.425  14.812
76018W        W37307  37.417  10.197   2.302
76019W        W37308   1.761  29.566   0.443
76020W        W37309   1.329  22.588  11.090
76021W        W37310  22.204  21.561   1.305
76022W        W37311  24.677  27.084   2.898
76023W        W37312  15.181  29.630   0.748
76024W        W37313  30.995  23.513  13.796
76025W        W37314  22.661  26.150  10.037
76026W        W37315  31.911   7.268   3.681
76027W        W37316  11.261  36.945  11.996
76028W        W37317   3.354  42.987  12.512
76029W        W37318  16.687  35.031  14.977
76030W        W37319  33.884  39.841   4.645
76031W        W37320  35.980  20.626  14.885
76032W        W37321  11.651   1.438   4.234
76033W        W37322  38.563  19.550  12.909
76034W        W37323  20.240  19.178  14.814
76035W        W37324  40.547  41.038  10.953
76036W        W37325  33.998  39.380  14.383
76037W        W37326  28.612  38.385   0.840
76038W        W37327  35.889   9.341  14.360
76039W        W37328   7.801   5.725  10.975
76040W        W37329   0.427  35.490  11.512
76041W        W37330  20.663  24.542  10.912
76042W        W37331  19.217  29.067  14.338
76043W        W37332  29.608  14.834  11.944
76044W        W37333  31.435  33.562   4.127
76045W        W37334  32.425  11.652  11.508
76046W        W37335  24.230  12.818   1.705
76047W        W37336   8.703  15.698  13.848
76048W        W37337  41.809   1.381   2.827
76049W        W37338  42.844   8.400   9.634
76050W        W37339  15.768  20.153   4.683
76051W        W37340   6.285  36.410   4.687
76052W        W37341   0.468   1.930  12.558
76053W        W37342   7.721  32.047   1.748
76054W        W37343   0.958  13.136  13.425
76055W        W37344  33.915   8.811  10.418
76056W        W37345   7.218  16.649  12.906
76057W        W37346  35.549   4.779  13.931
76058W        W37347  16.292  31.919  14.275
76059W        W37348  30.117   7.362  12.958
76060W        W37349  34.037  15.301  13.349
76061W        W37350  15.309   4.816  13.998
76062W        W37351  12.251  30.450  11.006
76063W        W37352  12.123  20.151   4.298
76064W        W37353  34.497  38.923  11.484
76065W        W37354  17.630  18.083   3.805
76066W        W37355   2.284  42.841   2.226
76067W        W37356  39.872   8.813  10.022
76068W        W37357  41.298  24.521   2.279
76069W        W37358   6.234  41.310  14.863
76070W        W37359  18.654  36.554  12.022
76071W        W37360   0.484  31.531  11.973
76072W        W37361  29.555   7.337   4.741
76073W        W37362  17.243  44.856  11.090
76074W        W37363   1.438  16.108   4.125
76075W        W37364   9.759  43.494  12.424
76076W        W37365  12.204  28.535   3.727
76077W        W37366  12.209  22.545  12.071
76078W        W37367  16.234  20.583   2.894
76079W        W37368   8.252  28.063   1.365
76080W        W37369  42.004  26.676  14.422
76081W        W37370  13.157  42.495   4.170
76082W        W37371   6.717   8.808  14.509
76083W        W37372   8.866  28.449  11.974
76084W        W37373  10.139  27.620  14.924
76085W        W37374  10.827   6.334  11.468
76086W        W37375   4.740  21.033  10.523
76087W        W37376  31.410  40.491   4.749
76088W        W37377  41.404  14.279   1.281
76089W        W37378  20.719  11.866   0.948
76090W        W37379   9.729  37.438  10.501
76091W        W37380  12.627   8.761  11.511
76092W        W37381  32.550  29.489   0.300
76093W        W37382  31.976  13.288   5.152
76094W        W37383  31.938  40.955  10.993
76095W        W37384  29.056  23.546  10.586
76096W        W37385  22.656   4.326  14.483
76097W        W37386  35.083  16.100  14.019
76098W        W37387   1.304   1.396  11.104
76099W        W37388   4.840  43.355   5.183
76100W        W37389   9.153  30.159   4.204
76101W        W37390  13.683  26.548  14.353
76102W        W37391  19.228  24.581  11.458
76103W        W37392  14.222   4.306  11.053
76104W        W37393  41.512   2.833   1.290
76105W        W37394  28.622  25.713  14.908
76106W        W37395   7.681  30.481   2.723
76107W        W37396  24.171  15.110   2.202
76108W        W37397  10.654  32.000  11.542
76109W        W37398   8.188   3.711  12.436
76110W        W37399  44.283  13.620  12.566
76111W        W37400  22.183   7.885   3.864
76112W        W37401   1.929  22.169   2.296
76113W        W37402   7.230  35.929   4.735
76114W        W37403  25.089  41.417   4.676
76115W        W37404  15.153  31.528  11.425
76116W        W37405  21.084  20.731  11.467
76117W        W37406  19.103  19.779   3.235
76118W        W37407  16.210  30.060   3.204
76119W        W37408  38.483  17.577  12.498
76120W        W37409   4.351  35.979  12.403
76121W        W37410  40.333  34.511  12.380
76122W        W37411  39.019   5.384   0.778
76123W        W37412  24.566  33.507  12.080
76124W        W37413  27.102  30.007   3.197
76125W        W37414   0.339  30.622  13.816
76126W        W37415  22.154  33.598   4.303
76127W        W37416  44.372  15.675   4.263
76128W        W37417  40.323  10.701   3.191
76129W        W37418  10.686  25.036  13.033
76130W        W37419  26.107   8.658   3.838
76131W        W37420  19.040   5.310   4.228
76132W        W37421  15.627  22.156  13.862
76133W        W37422  31.025  32.939  10.556
76134W        W37423   0.949  35.076   3.695
76135W        W37424  11.179  34.950  12.400
76136W        W37425  17.656   4.831   2.689
76137W        W37426   4.379  14.181  13.465
76138W        W37427   2.333  24.114   4.617
76139W        W37428  22.526  23.494   0.786
76140W        W37429   9.860  43.981   4.793
76141W        W37430  28.653  32.597   2.754
76142W        W37431  38.832  29.035   1.916
76143W        W37432  33.087  33.436   4.187
76144W        W37433  14.740  42.999  10.939
76145W        W37434   6.911   5.926   1.395
76146W        W37435  14.753  13.214  13.543
76147W        W37436  11.250  28.566  12.460
76148W        W37437  30.089  40.902  13.531
76149W        W37438  13.777  24.111  12.043
76150W        W37439  27.045   5.362  14.947
76151W        W37440  35.053  20.154  13.882
76152W        W37441  30.165  16.319   2.900
76153W        W37442  18.719  25.118   5.278
76154W        W37443  31.962  40.951   0.749
76155W        W37444  29.611  41.362  10.472
76156W        W37445  31.965  30.575   0.397
76157W        W37446  10.311  38.502  12.837
76158W        W37447  26.986  34.071  14.425
76159W        W37448   6.326  37.563   4.322
76160W        W37449  15.268  35.392  13.030
76161W        W37450  20.613  36.476   4.134
76162W        W37451  27.114  41.392  12.501
76163W        W37452  11.714  37.047   2.867
76164W        W37453  16.754  37.579  10.949
76165W        W37454   1.756  11.776   1.336
76166W        W37455  42.288  40.382  12.884
76167W        W37456   0.423   6.265  13.864
76168W        W37457  31.479  24.631  12.933
76169W        W37458  35.515  38.370  14.018
76170W        W37459   6.858  23.239   5.294
76171W        W37460  32.134  44.006  12.941
76172W        W37461  24.018  23.543   1.264
76173W        W37462  27.614  13.335   2.325
76174W        W37463  18.224  25.973  13.459
76175W        W37464  39.974  41.369   3.777
76176W        W37465  44.319   2.931  12.937
76177W        W37466  17.090   8.197   3.316
76178W        W37467  24.149  34.063   1.431
76179W        W37468  27.602  38.019  10.476
76180W        W37469  26.097  10.384   2.223
76181W        W37470   4.802  14.650   0.447
76182W        W37471  29.535   2.966  12.826
76183W        W37472  11.853  36.936  10.973
76184W        W37473  11.736   7.679   3.276
76185W        W37474   0.335   7.298   4.674
76186W        W37475  28.651  29.951  11.884
76187W        W37476  19.776   0.783   1.781
76188W        W37477  16.107   7.784  12.847
76189W        W37478  34.060   5.336  13.916
76190W        W37479  21.263  22.699  12.522
76191W        W37480  13.279  21.058  10.944
76192W        W37481   9.292  22.149  13.520
76193W        W37482  23.502  13.330   3.760
76194W        W37483  24.204  43.969  14.343
76195W        W37484  31.021  44.858   2.373
76196W        W37485  34.578  13.819   1.793
76197W        W37486   4.364  44.946  11.986
76198W        W37487  41.983  18.629  11.573
76199W        W37488  38.042  15.154   0.941
76200W        W37489  42.865  29.478   1.835
76201W        W37490   8.313  24.719   0.826
76202W        W37491  38.822  14.588  14.355
76203W        W37492  11.751  28.019  14.877
76204W        W37493  42.834  28.141  11.983
76205W        W37494  20.574  43.927   3.368
76206W        W37495  42.897   9.210   0.389
76207W        W37496  33.074  15.715   0.438
76208W        W37497  19.185   8.813  10.508
76209W        W37498  30.081  20.165  12.486
76210W        W37499  20.603  40.924  14.434
76211W        W37500   0.359   9.198   5.604
76212W        W37501  23.167  22.087  12.999
76213W        W37502   6.410  24.169   3.831
76214W        W37503  41.493  36.373   2.415
76215W        W37504  43.818  17.706  10.534
76216W        W37505   8.313  15.733  14.275
76217W        W37506   4.405  38.972   2.683
76218W        W37507  44.471  39.357  10.448
76219W        W37508   8.183   8.224  13.035
76220W        W37509  21.544  31.927  12.020
76221W        W37510  17.682  10.338   1.271
76222W        W37511  30.498  44.476  10.440
76223W        W37512  44.834  24.066   4.116
76224W        W37513   9.266  10.801   1.841
76225W        W37514   8.675  29.151   1.371
76226W        W37515   6.324  23.195  11.602
76227W        W37516  26.205   1.823  13.942
76228W        W37517  30.497   8.172   3.743
76229W        W37518   6.205  19.144   2.251
76230W        W37519  27.684  24.650   2.241
76231W        W37520  32.941  24.173  10.524
76232W        W37521  38.916  25.578  11.085
76233W        W37522  31.412  18.556  13.056
76234W        W37523  30.631  21.705  14.781
76235W        W37524  36.558  37.448  10.553
76236W        W37525   9.373  42.400  13.875
76237W        W37526  19.767  42.415   1.324
76238W        W37527  29.966   9.708  10.635
76239W        W37528  39.051  43.938   4.190
76240W        W37529  21.593  18.172   3.162
76241W        W37530  42.989  23.157  14.963
76242W        W37531  18.114  10.155   1.923
76243W        W37532  25.123  34.896  12.921
76244W        W37533  34.983  33.563   4.799
76245W        W37534  23.686   3.249   2.293
76246W        W37535  17.062  26.100   3.317
76247W        W37536  24.220  23.231  14.827
76248W        W37537  10.161  26.596  10.111
76249W        W37538  29.528  24.174  10.579
76250W        W37539   9.335  42.775  12.015
76251W        W37540  29.081   3.349  14.338
76252W        W37541  41.908  35.378  11.412
76253W        W37542  44.413  41.940  10.518
76254W        W37543   8.868  36.547   0.728
76255W        W37544  16.169  16.769   0.431
76256W        W37545  21.741  18.094  13.362
76257W        W37546   9.171  38.018   2.333
76258W        W37547  44.778  14.676  14.870
76259W        W37548  35.366   7.749   2.772
76260W        W37549   6.315  24.504   3.184
76261W        W37550   9.362  42.422   0.817
76262W        W37551  37.083  37.892   3.370
76263W        W37552  13.206  22.129   3.667
76264W        W37553  26.561   4.907   3.360
76265W        W37554   8.224  20.152  11.876
76266W        W37555  24.588  11.180  14.355
76267W        W37556   6.728   3.279   4.636
76268W        W37557  35.034   0.386  12.857
76269W        W37558  17.632  37.916   1.919
76270W        W37559  43.819   1.807  13.026
76271W        W37560  12.818   8.318   2.381
76272W        W37561   6.761  39.007   1.420
76273W        W37562  15.672  15.206   3.837
76274W        W37563  35.052  37.959   0.882
76275W        W37564  21.088  43.873   4.653
76276W        W37565  23.205   5.848  12.449
76277W        W37566   7.272  40.975   1.329
76278W        W37567  43.357   3.372   0.355
76279W        W37568  35.415  43.846   3.335
76280W        W37569  20.083  38.032   1.333
76281W        W37570  30.123  37.453   5.290
76282W        W37571  22.518  32.572  13.367
76283W        W37572  30.608  42.787  10.531
76284W        W37573  22.691  26.199  10.443
76285W        W37574  23.017  34.052  14.971
76286W        W37575   2.253   6.889  12.410
76287W        W37576   1.418  10.700  13.435
76288W        W37577  29.462  43.379   0.786
76289W        W37578  23.623  10.366  11.391
76290W        W37579  20.758   3.809   2.301
76291W        W37580  21.624  39.839   0.448
76292W        W37581  35.964  22.724  13.802
76293W        W37582   5.206   6.889  14.486
76294W        W37583  35.899  35.021  11.902
76295W        W37584  38.386  33.553  12.501
76296W        W37585  22.163  31.542   2.404
76297W        W37586   1.943   6.728  12.408
76298W        W37587  33.609  28.175   3.369
76299W        W37588   9.297   0.384   2.238
76300W        W37589  38.501   2.827   0.375
76301W        W37590  29.566  22.603   2.380
76302W        W37591  30.925   7.350  10.064
76303W        W37592  14.306  39.374  12.832
76304W        W37593  23.004   7.671   3.644
76305W        W37594  34.891   0.918  10.102
76306W        W37595  13.343  18.703   4.784
76307W        W37596  26.575  44.842  13.355
76308W        W37597  44.758   4.208   4.805
76309W        W37598  42.313   7.388   2.324
76310W        W37599  22.712  22.609   4.252
76311W        W37600   3.223  17.726  12.009
76312W        W37601  11.778  12.681   1.368
76313W        W37602  30.102  30.658   1.267
76314W        W37603  42.281  36.545   1.221
76315W        W37604  30.951  34.522   0.896
76316W        W37605  30.079   7.300   0.903
76317W        W37606  17.193  35.102  14.452
76318W        W37607  11.304   7.181   2.203
76319W        W37608   8.333  12.726   0.368
76320W        W37609   6.290  15.126  13.026
76321W        W37610  25.190   5.934   4.315
76322W        W37611   3.865  13.701  10.980
76323W        W37612   9.664  29.453   3.779
76324W        W37613  33.597  39.484   0.833
76325W        W37614  44.363  18.073  14.896
76326W        W37615  31.543  30.979   4.116
76327W        W37616  23.587  18.235   2.735
76328W        W37617  10.757  12.239   1.927
76329W        W37618  31.144  40.898  13.047
76330W        W37619  40.923   8.222   4.204
76331W        W37620  25.487  31.001  10.452
76332W        W37621  27.504  36.494   4.802
76333W        W37622  13.696  32.395   2.245
76334W        W37623  35.945  42.809   2.225
76335W        W37624  30.049  15.602   1.295
76336W        W37625   7.723  43.491   4.760
76337W        W37626   8.753  13.184  13.009
76338W        W37627  11.801   9.375   2.901
76339W        W37628  29.488  40.946   4.647
76340W        W37629   5.768  15.315   1.856
76341W        W37630   8.674  40.052  10.896
76342W        W37631   8.808  32.400   0.952
76343W        W37632   4.704  16.670   1.697
76344W        W37633  34.524  34.385   4.705
76345W        W37634   4.929  35.887  11.605
76346W        W37635  30.557  42.954   4.283
76347W        W37636  10.139   7.790  12.927
76348W        W37637  25.213  18.050   2.297
76349W        W37638  18.151  36.879  14.839
76350W        W37639  19.257  33.989   4.152
76351W        W37640  19.744  28.163  11.917
76352W        W37641  33.535  25.527  10.485
76353W        W37642  20.169  26.641   4.727
76354W        W37643  11.160  12.662  11.407
76355W        W37644  25.551  18.599   2.790
76356W        W37645   1.447  34.447  11.453
76357W        W37646  12.122  11.311   4.231
76358W        W37647  20.734  16.634   0.746
76359W        W37648  29.567  16.222  13.872
76360W        W37649  12.278  14.785  13.854
76361W        W37650  25.498  19.582   2.331
76362W        W37651  30.087  22.233   2.717
76363W        W37652   0.960  38.019  12.547
76364W        W37653  44.282  28.437  11.024
76365W        W37654  38.460  41.845   4.134
76366W        W37655  30.950  14.704   1.714
76367W        W37656  14.792  43.865  13.464
76368W        W37657  25.631  35.075   2.277
76369W        W37658   2.923  32.457  14.488
76370W        W37659  29.434  37.436   2.746
76371W        W37660   3.443  21.161  11.479
76372W        W37661  35.398   5.899   0.959
76373W        W37662  40.522  43.319  14.823
76374W        W37663   1.838  26.617   0.890
76375W        W37664  25.503  38.534  10.576
76376W        W37665   4.246  31.402   4.701
76377W        W37666  34.049  30.541   3.630
76378W        W37667  32.130  29.573   2.413
76379W        W37668   1.836  42.513   3.849
76380W        W37669  32.011  28.111  11.372
76381W        W37670   8.741  36.494  13.946
76382W        W37671   0.915  11.220   3.748
76383W        W37672  43.427  11.623  13.908
76384W        W37673  40.516  15.754   0.810
76385W        W37674  43.771  34.965  11.031
76386W        W37675  11.249  21.092   2.284
76387W        W37676   8.807  17.119   0.771
76388W        W37677  25.010  27.079  11.480
76389W        W37678  19.232  34.115  11.599
76390W        W37679  31.489  36.537  11.561
76391W        W37680  40.891  38.337  14.421
76392W        W37681  44.934  38.952  12.946
76393W        W37682  13.655  25.106   1.864
76394W        W37683  26.632  23.707   2.324
76395W        W37684  20.612  11.146  11.959
76396W        W37685  37.569   3.903  11.586
76397W        W37686   5.230  11.730   1.214
76398W        W37687  24.047  38.871   0.798
76399W        W37688  27.179  12.242  10.638
76400W        W37689   0.877  44.930  10.607
76401W        W37690  25.111  40.523  12.456
76402W        W37691   1.975  26.208  11.942
76403W        W37692  29.996  43.879  12.071
76404W        W37693  37.582  36.445   2.227
76405W        W37694  12.811  42.517   1.695
76406W        W37695  20.137  42.859   3.669
76407W        W37696   6.242  36.997   3.177
76408W        W37697  33.463  28.499   0.472
76409W        W37698  16.605  15.654   2.805
76410W        W37699  29.532   9.171  14.021
76411W        W37700  25.552   8.688  13.865
76412W        W37701  39.840  10.853   3.801
76413W        W37702   9.748  10.292   1.335
76414W        W37703  32.440  15.308   4.177
76415W        W37704  25.597  14.273  13.853
76416W        W37705   0.861  29.023  10.425
76417W        W37706  20.243  37.968  14.327
76418W        W37707  14.270  36.551  14.880
76419W        W37708  37.036  12.780   1.788
76420W        W37709  14.816   4.412  12.044
76421W        W37710   0.262  10.700   4.310
76422W        W37711  21.062  24.580  13.466
76423W        W37712   9.231   0.747  12.373
76424W        W37713  13.344   4.360   0.893
76425W        W37714  29.568   0.454  11.413
76426W        W37715  32.433  36.047   3.284
76427W        W37716   5.699  12.654   1.369
76428W        W37717  35.506  17.648   1.338
76429W        W37718  31.940  42.801   5.308
76430W        W37719   0.474  14.193   0.250
76431W        W37720   4.205  26.651  12.488
76432W        W37721  38.885  26.521   2.877
76433W        W37722  32.053  30.046  14.418
76434W        W37723  42.516  29.669  11.417
76435W        W37724   0.802  20.640  11.521
76436W        W37725  17.214  20.271   0.442
76437W        W37726  39.049  29.512   1.855
76438W        W37727  20.118   8.340   3.259
76439W        W37728  38.325   5.888   3.749
76440W        W37729  31.627  40.390   4.313
76441W        W37730  43.392   0.318   1.391
76442W        W37731   7.786  12.144  14.977
76443W        W37732  23.048  35.877  10.943
76444W        W37733  37.872   9.826  11.600
76445W        W37734  42.842  10.829  13.819
76446W        W37735  28.101  15.155  12.865
76447W        W37736  37.077  13.307  12.439
76448W        W37737  42.864  19.180  13.459
76449W        W37738  41.039  32.960  14.510
76450W        W37739   5.346  10.871  13.940
76451W        W37740  32.888  29.941   3.745
76452W        W37741  13.323  32.926  11.411
76453W        W37742  28.651   7.270   1.394
76454W        W37743  13.158  44.316   4.346
76455W        W37744  18.697   0.437  13.380
76456W        W37745  34.459  17.164   2.193
76457W        W37746   8.193  25.984   2.760
76458W        W37747   4.892  20.750   4.632
76459W        W37748  22.159  19.579   1.861
76460W        W37749  10.804  35.007   3.744
76461W        W37750  20.636  12.845  13.871
76462W        W37751  19.663  40.460   3.791
76463W        W37752  43.795  23.052  10.446
76464W        W37753  16.809  39.911  13.817
76465W        W37754  33.956  30.995   2.863
76466W        W37755  21.523  26.067  12.437
76467W        W37756   7.245  16.780  10.512
76468W        W37757  31.448   4.300   3.857
76469W        W37758  35.420   7.315  14.479
76470W        W37759  17.301  25.117   5.117
76471W        W37760  23.729  43.805  11.997
76472W        W37761  33.940  40.967   0.451
76473W        W37762  29.444  42.005  10.434
76474W        W37763  39.933  17.117   0.481
76475W        W37764  19.050  28.942  13.399
76476W        W37765  44.437  17.555   4.682
76477W        W37766   2.943   2.784  10.501
76478W        W37767  36.891  15.086  13.808
76479W        W37768  19.688  33.016  11.956
76480W        W37769  31.552  44.839  11.417
76481W        W37770  32.407  10.155  13.414
76482W        W37771   2.954  24.617   1.849
76483W        W37772  20.640   9.376   4.252
76484W        W37773  22.166  19.276  12.005
76485W        W37774  18.110  10.363  13.899
76486W        W37775  27.135  38.945  11.025
76487W        W37776  10.876  44.836  12.019
76488W        W37777  14.111  16.731  11.548
76489W        W37778  14.646   5.869  11.375
76490W        W37779  26.672  20.731   1.893
76491W        W37780   5.756   0.273   0.330
76492W        W37781  17.678   1.807   1.317
76493W        W37782  33.482  23.127  14.503
76494W        W37783   2.353  12.733  10.557
76495W        W37784  18.153   4.810  11.054
76496W        W37785  31.969  25.617  14.375
76497W        W37786  37.029  35.926   3.824
76498W        W37787   3.782  16.165  13.908
76499W        W37788  36.070   3.347   4.807
76500W        W37789  11.188  42.957   0.461
76501W        W37790  10.664  17.104   0.249
76502W        W37791  35.501  41.405   3.279
76503W        W37792   0.909  34.386  12.855
76504W        W37793  37.899  17.576   3.308
76505W        W37794  23.724  29.624   4.619
76506W        W37795   6.817  39.001   3.293
76507W        W37796   3.823   9.756   1.365
76508W        W37797  15.620  12.277  10.526
76509W        W37798  35.441  34.377  10.407
76510W        W37799  28.505  11.292  12.347
76511W        W37800  26.675   6.873   2.212
76512W        W37801   8.758   7.201   1.224
76513W        W37802  21.757   5.214   0.464
76514W        W37803   2.870  28.951  12.452
76515W        W37804  15.770  15.233   4.317
76516W        W37805   0.280  35.927   3.237
76517W        W37806  11.696  39.316  10.556
76518W        W37807  11.242  18.741  12.471
76519W        W37808   4.319   2.232   0.915
76520W        W37809  38.875   7.728   1.212
76521W        W37810  41.392  10.873   4.667
76522W        W37811  16.133  12.207   0.399
76523W        W37812  22.536  21.036  13.859
76524W        W37813  13.316  26.542   1.922
76525W        W37814  19.736  27.023   4.319
76526W        W37815  18.082   3.289   0.475
76527W        W37816  40.933  39.915  10.432
76528W        W37817  26.617  37.877   5.233
76529W        W37818  33.084  11.192   0.851
76530W        W37819   8.846  30.137   1.719
76531W        W37820  16.620  36.039  13.515
76532W        W37821  41.894  10.653  14.339
76533W        W37822   2.794   4.251   4.624
76534W        W37823  27.129  29.638  14.914
76535W        W37824  39.846  37.068   0.466
76536W        W37825  25.002   1.381  11.060
76537W        W37826  17.193  41.345  12.874
76538W        W37827  33.526  40.528  14.345
76539W        W37828  13.324  28.667  12.909
76540W        W37829  15.676   7.290  12.046
76541W        W37830  22.550  19.201  11.525
76542W        W37831  40.503  34.065  10.544
76543W        W37832   4.772  37.405   9.992
76544W        W37833  31.046  28.169   1.809
76545W        W37834  25.167   2.249   0.267
76546W        W37835  11.337  28.952   4.655
76547W        W37836  30.939   1.430  11.878
76548W        W37837  18.621  16.187  11.436
76549W        W37838   0.394  41.794   4.807
76550W        W37839   1.745  11.759   5.321
76551W        W37840   5.924  22.523  12.009
76552W        W37841  31.617  39.359   4.174
76553W        W37842  31.417  31.964   2.766
76554W        W37843  25.151  14.212   4.620
76555W        W37844  16.722   2.936   4.828
76556W        W37845  25.023   8.654   9.509
76557W        W37846   4.394  14.611  12.973
76558W        W37847  15.704  43.867   1.243
76559W        W37848  41.811  44.834   1.783
76560W        W37849   5.802   1.447  14.497
76561W        W37850  31.954  25.704   1.365
76562W        W37851  30.931   5.807  14.440
76563W        W37852  39.873  29.611   1.917
76564W        W37853   3.299  23.600  10.915
76565W        W37854  28.984  21.060   1.420
76566W        W37855  17.633  44.397   2.846
76567W        W37856  23.168  15.105  11.865
76568W        W37857  38.557  13.804  14.918
76569W        W37858   2.261  31.912   3.808
76570W        W37859  41.946  29.006   4.171
76571W        W37860  35.861  18.254  14.878
76572W        W37861  11.139  25.066  12.901
76573W        W37862  35.966  29.483  11.424
76574W        W37863   0.843  17.080   3.199
76575W        W37864  28.104  36.856  13.496
76576W        W37865  35.031  22.200   1.826
76577W        W37866  19.260  34.973  12.864
76578W        W37867  23.683   3.381  14.999
76579W        W37868  24.090  11.741  11.897
76580W        W37869  33.988  35.482  11.902
76581W        W37870  38.892  16.177  12.851
76582W        W37871   7.319  38.020  10.631
76583W        W37872  41.301   0.275  14.860
76584W        W37873  13.128  20.110   4.144
76585W        W37874  17.077  24.013   4.740
76586W        W37875  23.677   5.425   1.333
76587W        W37876  16.639  28.578   0.836
76588W        W37877  42.414   3.290   4.765
76589W        W37878  18.731  10.657  14.998
76590W        W37879  24.674  12.291  11.609
76591W        W37880  32.084  11.138  10.623
76592W        W37881  37.984  24.616   3.636
76593W        W37882  18.228   0.894   0.727
76594W        W37883  18.174  34.434  14.394
76595W        W37884  18.775  20.617  14.372
76596W        W37885  29.626  12.212   0.815
76597W        W37886  39.436   6.339   3.304
76598W        W37887  40.043  43.788  13.471
76599W        W37888   9.653   7.358   1.261
76600W        W37889  18.661   6.285   4.715
76601W        W37890  23.499  15.281   3.202
76602W        W37891   0.273  41.950  14.412
76603W        W37892  26.043   4.205   1.924
76604W        W37893  35.445  15.249  11.471
76605W        W37894   6.367  44.259  13.000
76606W        W37895  15.175  34.880  10.062
76607W        W37896  15.703   8.248   4.720
76608W        W37897  42.831  11.291  10.962
76609W        W37898  39.995  28.033   0.372
76610W        W37899  44.869   0.477   3.727
76611W        W37900  10.789   3.217   2.791
76612W        W37901  32.078  43.504  12.514
76613W        W37902  34.459  18.557   3.313
76614W        W37903  21.120   5.436   2.383
76615W        W37904  28.996  18.086   4.667
76616W        W37905  32.072  33.899  12.846
76617W        W37906   0.849  37.472   3.849
76618W        W37907  40.027  30.091  11.074
76619W        W37908  28.159  25.579  10.059
76620W        W37909   9.651   9.747  11.855
76621W        W37910  34.475  33.892   0.442
76622W        W37911  14.607  42.495   4.612
76623W        W37912  29.450  30.097  13.982
76624W        W37913   3.739  39.932  14.408
76625W        W37914  43.008   3.952   4.228
76626W        W37915   3.929  35.972  13.353
76627W        W37916   9.256   6.899  10.545
76628W        W37917  13.698   2.794   3.310
76629W        W37918   6.896  40.825   2.898
76630W        W37919  19.253  43.921  14.440
76631W        W37920  44.779  41.981   2.721
76632W        W37921  23.658  32.967  12.860
76633W        W37922  42.809  10.705  14.429
76634W        W37923  11.255   3.365  14.821
76635W        W37924   8.779  40.876   0.934
76636W        W37925  12.784   8.213   1.300
76637W        W37926  35.514  31.055   1.376
76638W        W37927  22.180   0.905  12.367
76639W        W37928  23.115  33.591   3.274
76640W        W37929  44.787   6.271   2.217
76641W        W37930  29.491  30.110   3.355
76642W        W37931   5.904  31.489   4.636
76643W        W37932  17.685   6.743  10.633
76644W        W37933  40.906  19.091  14.324
76645W        W37934  27.664  25.106   3.745
76646W        W37935   8.350   7.793   2.805
76647W        W37936  44.990  29.633   2.327
76648W        W37937  36.865   1.902   0.900
76649W        W37938  14.236  27.074   4.830
76650W        W37939  25.076  12.306  12.041
76651W        W37940   6.252  42.369   2.879
76652W        W37941  10.752  41.903  10.479
76653W        W37942   2.249  17.109  12.901
76654W        W37943  31.008  14.744  14.903
76655W        W37944  24.201  21.022   4.772
76656W        W37945  28.979  31.030  14.295
76657W        W37946  11.805  18.257  13.996
76658W        W37947  38.927   7.841   2.218
76659W        W37948  16.188   7.777   2.303
76660W        W37949  28.577  24.982   3.361
76661W        W37950   7.184  14.627   2.901
76662W        W37951  21.074   5.374  12.872
76663W        W37952  18.282  15.651   2.197
76664W        W37953  20.252  19.664  12.842
76665W        W37954   9.817   7.306   2.187
76666W        W37955  13.336   6.196   4.622
76667W        W37956   9.871  40.959   4.793
76668W        W37957  23.999  42.298  14.018
76669W        W37958  20.178  43.826  13.455
76670W        W37959  42.440  31.440  14.912
76671W        W37960  21.089  29.092  10.542
76672W        W37961   6.230   5.234   0.758
76673W        W37962  14.616  21.571   3.372
76674W        W37963  43.269  21.214   0.864
76675W        W37964  26.612  18.066  14.987
76676W        W37965  32.536  10.227   0.889
76677W        W37966  35.511  18.178   4.152
76678W        W37967  30.429   9.833   9.524
76679W        W37968  35.545   2.342  12.959
76680W        W37969   5.883  37.483   2.747
76681W        W37970   6.848  12.218  12.355
76682W        W37971  23.545  33.978   0.427
76683W        W37972  23.515   4.826  14.961
76684W        W37973  19.776  33.875  12.396
76685W        W37974  11.627  42.297   2.326
76686W        W37975   3.358   7.900  12.554
76687W        W37976  33.578  14.685  13.060
76688W        W37977   6.919  27.035  13.418
76689W        W37978  12.642   3.461  13.335
76690W        W37979  25.650  44.401  11.484
76691W        W37980  31.133  15.128  10.984
76692W        W37981   5.212  22.223  11.473
76693W        W37982  27.946  21.669  12.507
76694W        W37983  10.877  23.112  12.531
76695W        W37984  41.388  22.598   4.655
76696W        W37985  38.990  22.089   4.316
76697W        W37986   7.392  37.920   3.711
76698W        W37987  37.342   2.831  11.907
76699W        W37988  25.550  24.112   9.453
76700W        W37989  15.181  19.171  14.401
76701W        W37990   3.939   4.308   3.753
76702W        W37991  43.877  38.495  14.440
76703W        W37992  35.031   3.846   3.747
76704W        W37993  31.495   3.263   0.949
76705W        W37994  44.497  29.470   5.204
76706W        W37995   0.839  24.707   3.147
76707W        W37996  42.374  22.076  13.826
76708W        W37997   5.751  29.539   4.169
76709W        W37998  16.311  22.225  12.357
76710W        W37999  38.021  39.538   1.874
76711W        W38000  36.535  29.466  12.579
76712W        W38001   5.787  32.602   0.436
76713W        W38002  12.190  23.071   5.142
76714W        W38003  41.969  28.091  14.484
76715W        W38004  38.343   6.796   4.704
76716W        W38005   5.873  17.197   1.786
76717W        W38006  23.028  24.165  11.064
76718W        W38007  17.126   9.265  14.942
76719W        W38008  37.871  38.540   2.873
76720W        W38009  41.972  24.219   4.235
76721W        W38010  15.275  37.524  10.445
76722W        W38011  18.269  41.345   1.287
76723W        W38012  38.507  31.119   0.373
76724W        W38013  14.594   5.372  12.503
76725W        W38014  42.866  41.975  11.093
76726W        W38015  35.096   6.257  13.362
76727W        W38016  44.916  17.601   4.181
76728W        W38017  20.674   9.659  13.033
76729W        W38018  11.331  22.189  14.385
76730W        W38019  31.454  26.534   3.217
76731W        W38020  23.652  42.326  10.468
76732W        W38021  28.063  11.295   0.267
76733W        W38022   4.883  11.841   5.109
76734W        W38023  34.051   7.688   0.421
76735W        W38024   5.347   1.444  14.938
76736W        W38025   6.393   3.834  14.844
76737W        W38026  23.074   7.371  14.851
76738W        W38027  30.439   3.395   0.324
76739W        W38028  30.609  25.076  14.459
76740W        W38029  35.541  42.422  11.520
76741W        W38030  37.042   6.830  14.342
76742W        W38031   0.310  21.619   0.312
76743W        W38032  21.124   2.827   0.355
76744W        W38033  24.557  43.349  13.318
76745W        W38034  44.405  17.240   1.701
76746W        W38035  43.996  19.039  12.428
76747W        W38036   9.388  37.450   2.382
76748W        W38037  35.463  20.211  10.487
76749W        W38038  36.553  38.388  14.776
76750W        W38039   8.694  15.821  10.467
76751W        W38040  41.944  40.486  12.433
76752W        W38041   5.762  30.990   2.893
76753W        W38042  16.604   7.696   2.668
76754W        W38043  29.970  40.460   4.715
76755W        W38044  32.998  41.035   1.789
76756W        W38045  37.346   1.941   4.743
76757W        W38046  26.583  32.932  13.519
76758W        W38047  31.058  23.517   2.264
76759W        W38048  41.789  27.159   1.881
76760W        W38049  32.892  41.318  13.512
76761W        W38050   3.359  42.326   0.482
76762W        W38051  31.452  26.168   1.359
76763W        W38052   5.901  19.157  13.368
76764W        W38053  26.472  39.394  12.059
76765W        W38054  26.621  35.586   2.201
76766W        W38055  13.765  22.205  13.812
76767W        W38056  37.343  30.983  12.550
76768W        W38057  20.169  30.032  13.422
76769W        W38058   5.922  10.832  10.438
76770W        W38059  26.600  20.113  12.951
76771W        W38060  10.772  27.583  14.897
76772W        W38061  34.911  10.139  11.504
76773W        W38062  35.445   8.307  14.388
76774W        W38063   0.443  24.994   1.922
76775W        W38064  41.881  12.746  11.526
76776W        W38065  44.810  15.614  11.462
76777W        W38066  22.670  18.613  12.016
76778W        W38067  34.891  36.460  14.967
76779W        W38068   0.469   9.184   1.918
76780W        W38069  40.810   4.329  14.275
76781W        W38070  41.894  19.759  12.486
76782W        W38071   6.191  43.856   2.352
76783W        W38072   7.700  24.079  12.436
76784W        W38073  26.955  13.665  13.815
76785W        W38074  13.745  26.675  12.520
76786W        W38075  38.022  11.624  14.378
76787W        W38076  36.407  16.612   3.301
76788W        W38077  12.757  21.190   2.754
76789W        W38078  31.083  20.536  13.948
76790W        W38079  40.401  35.527  13.381
76791W        W38080  12.854  11.318  13.423
76792W        W38081  43.821  40.022   3.694
76793W        W38082   7.762  24.678   1.917
76794W        W38083   2.277   4.822  12.955
76795W        W38084   8.233  42.023   0.965
76796W        W38085  23.218  26.584  11.532
76797W        W38086  23.183  25.200  12.395
76798W        W38087  44.442  40.369   1.785
76799W        W38088  31.610  34.376   4.227
76800W        W38089  17.629  30.441  12.521
76801W        W38090  41.459  19.261  14.907
76802W        W38091   9.266  31.489   9.566
76803W        W38092  38.476  41.306  10.495
76804W        W38093   0.281  44.804  14.996
76805W        W38094  39.456   9.667   4.185
76806W        W38095  21.639   9.883  13.461
76807W        W38096   9.796  44.937   0.946
76808W        W38097  28.070  40.055   4.716
76809W        W38098  10.205   8.168   3.648
76810W        W38099  19.540   7.897   2.699
76811W        W38100  39.924  33.476  11.090
76812W        W38101  21.756  34.030   1.819
76813W        W38102  27.532  30.005  13.412
76814W        W38103  41.309  39.553  13.877
76815W        W38104   7.732  30.526   1.233
76816W        W38105  19.547  34.973   1.775
76817W        W38106  17.687  39.522  11.414
76818W        W38107   8.198  25.073   2.395
76819W        W38108  23.121  12.642   3.237
76820W        W38109   7.846  33.480  14.877
76821W        W38110  17.641  18.239   3.229
76822W        W38111  42.032   0.754   0.441
76823W        W38112  14.318  11.372   3.851
76824W        W38113  26.507  38.389   2.691
76825W        W38114   5.761   7.669   3.315
76826W        W38115  40.418  11.765  12.513
76827W        W38116  36.045  34.042   0.438
76828W        W38117   3.330  33.025  14.765
76829W        W38118  10.633   7.691  14.383
76830W        W38119  21.258  21.749  14.832
76831W        W38120  13.842   7.202   1.242
76832W        W38121  13.301  27.594   4.824
76833W        W38122  31.538  39.380  14.305
76834W        W38123  19.086  10.274  10.932
76835W        W38124  43.358  40.007  14.378
76836W        W38125  14.723  42.422  14.824
76837W        W38126  35.995  29.638   3.654
76838W        W38127   4.921  26.615   3.791
76839W        W38128  34.410  14.765  13.488
76840W        W38129  13.818  35.961   2.202
76841W        W38130  22.091   1.345   2.678
76842W        W38131   1.314  13.227  11.055
76843W        W38132  12.222   7.412  13.514
76844W        W38133  40.887   8.672   1.894
76845W        W38134  18.188  18.130   2.343
76846W        W38135  43.474  30.602   3.866
76847W        W38136  21.638  32.439   0.403
76848W        W38137   6.753   0.875  11.065
76849W        W38138  37.455  15.286   0.886
76850W        W38139  24.507  13.710   0.862
76851W        W38140  18.238   8.813  13.493
76852W        W38141  11.359  39.465  10.582
76853W        W38142   4.300  12.212   1.700
76854W        W38143  43.328  34.107  12.848
76855W        W38144  41.812  12.216   0.345
76856W        W38145  25.160  35.369   3.279
76857W        W38146  14.249  26.551  11.033
76858W        W38147  35.069  22.665   3.639
76859W        W38148   8.871  29.090   2.229
76860W        W38149   1.896  25.592  10.993
76861W        W38150   2.812  40.872  12.535
76862W        W38151  16.634   9.804   4.640
76863W        W38152  11.727  43.472   5.197
76864W        W38153  44.504  44.900   0.755
76865W        W38154  40.969  42.324   4.300
76866W        W38155  22.050   0.857  11.040
76867W        W38156  23.147  39.460  13.378
76868W        W38157  32.456  27.458   1.341
76869W        W38158  33.589  44.989  13.400
76870W        W38159   6.737  12.690   0.794
76871W        W38160  39.344  12.677   2.362
76872W        W38161  18.699   4.765  10.094
76873W        W38162  27.110   3.738   1.730
76874W        W38163  14.624  24.534   2.773
76875W        W38164  43.409   2.305  13.806
76876W        W38165   8.690   0.767  10.039
76877W        W38166  22.730   0.312  12.388
76878W        W38167  10.213  41.435  11.982
76879W        W38168  41.829  12.353   3.646
76880W        W38169  16.726  20.733   9.960
76881W        W38170   2.447  26.672   0.738
76882W        W38171   7.766  39.940  13.808
76883W        W38172  26.015  39.378  13.906
76884W        W38173  17.084  18.190  14.342
76885W        W38174  39.453  34.061  12.879
76886W        W38175  31.549  38.930   3.747
76887W        W38176  31.089  40.941  14.824
76888W        W38177  26.993  35.006   4.678
76889W        W38178  23.141  28.512   4.616
76890W        W38179  16.658  42.479   4.255
76891W        W38180  44.878  19.265  11.898
76892W        W38181  31.538   0.791  10.976
76893W        W38182   7.172  32.995  10.130
76894W        W38183  25.633  19.686   4.301
76895W        W38184  29.531  44.452  12.887
76896W        W38185  23.679   7.190   3.639
76897W        W38186   8.329  32.045  14.925
76898W        W38187  39.877  23.152   0.800
76899W        W38188  41.809  43.019  10.468
76900W        W38189  36.431  13.333   0.471
76901W        W38190  27.107  19.705   5.295
76902W        W38191  11.646   7.192   4.249
76903W        W38192   5.863   3.439   3.354
76904W        W38193  26.647   3.274   1.844
76905W        W38194  43.000  43.773  13.360
76906W        W38195   4.795   0.427  10.055
76907W        W38196  41.965   5.372   1.886
76908W        W38197   3.749  28.078   1.352
76909W        W38198  14.750  34.612   2.774
76910W        W38199  38.501  22.012  10.999
76911W        W38200  18.635   2.423   4.725
76912W        W38201   1.739  39.401  13.917
76913W        W38202   4.297  17.722  13.448
76914W        W38203  22.109   5.812  13.396
76915W        W38204  24.197  25.512  11.601
76916W        W38205  15.324   7.900   1.374
76917W        W38206  20.664  17.188   4.605
76918W        W38207  26.458   1.794   1.754
76919W        W38208   4.732   4.275  12.361
76920W        W38209  41.339  42.394  13.892
76921W        W38210  14.723  28.114  14.784
76922W        W38211  14.177  11.681   2.898
76923W        W38212  30.089  19.673   0.799
76924W        W38213  17.104  28.600   3.703
76925W        W38214  42.336  43.308  13.464
76926W        W38215  12.780   1.807   0.828
76927W        W38216   7.821  39.929  12.957
76928W        W38217  10.145   6.185   4.300
76929W        W38218   7.870  37.865  11.948
76930W        W38219  37.963  41.520   3.333
76931W        W38220  14.722  33.607   4.817
76932W        W38221  20.130  21.635   3.688
76933W        W38222   3.251  41.505  11.928
76934W        W38223  18.194   6.255  13.511
76935W        W38224  30.571  36.404   0.836
76936W        W38225  37.563  15.729   4.231
76937W        W38226  15.218  12.728  10.479
76938W        W38227  18.555  11.706  10.477
76939W        W38228  12.778   2.772   0.826
76940W        W38229  41.923  18.634  11.027
76941W        W38230  26.697   2.943  14.482
76942W        W38231  42.845  39.049  12.351
76943W        W38232  22.130  19.748  12.424
76944W        W38233  18.561  22.671  14.291
76945W        W38234  42.470  32.096  10.048
76946W        W38235  42.018  19.283   2.191
76947W        W38236   1.810   3.793  13.430
76948W        W38237  26.134  41.482  13.462
76949W        W38238  32.449  22.128  13.864
76950W        W38239  33.877  30.487  14.358
76951W        W38240   0.824  39.315   3.222
76952W        W38241  42.928  44.999  14.843
76953W        W38242  10.788  33.531  14.765
76954W        W38243   2.430  27.190   4.232
76955W        W38244  20.048  33.011  12.450
76956W        W38245   7.225   9.358   3.677
76957W        W38246  19.242   6.867  10.950
76958W        W38247  36.893  17.151  13.336
76959W        W38248   8.793  16.785  14.389
76960W        W38249  22.739  27.173   1.412
76961W        W38250   7.268  18.710  11.418
76962W        W38251  37.053  33.066  14.932
76963W        W38252  23.135  16.796   0.388
76964W        W38253  35.445  12.155  11.421
76965W        W38254  35.604  39.052  13.853
76966W        W38255  28.156   3.242   0.422
76967W        W38256  16.311  23.041   4.815
76968W        W38257  34.492  34.378   1.854
76969W        W38258   6.253  36.415   0.831
76970W        W38259  22.140  19.260   1.747
76971W        W38260  21.621  32.991  10.512
76972W        W38261   4.228  37.486   2.249
76973W        W38262  34.557  10.857   2.703
76974W        W38263  17.626  24.183  13.036
76975W        W38264   7.815   7.252   2.180
76976W        W38265  11.774  28.072   1.784
76977W        W38266  20.085  12.338  12.922
76978W        W38267  22.210  10.878  12.026
76979W        W38268  22.577  40.902  12.937
76980W        W38269  37.337  19.668  12.829
76981W        W38270  26.641  24.650   4.115
76982W        W38271  12.647  21.551   4.660
76983W        W38272  30.002   7.716  11.876
76984W        W38273  33.498   8.382  11.022
76985W        W38274  22.235   7.908   2.840
76986W        W38275   7.194  28.173  11.048
76987W        W38276  32.095   3.393   2.665
76988W        W38277  43.320  10.218   2.266
76989W        W38278  15.324  25.552  14.921
76990W        W38279   3.273  14.792  13.544
76991W        W38280  24.038  29.621   4.143
76992W        W38281  29.172  38.988  14.297
76993W        W38282  31.508  16.686   1.320
76994W        W38283  40.544  25.567   1.809
76995W        W38284   1.458  39.982  12.084
76996W        W38285  33.385   5.760  14.957
76997W        W38286  20.173  30.440   4.235
76998W        W38287  40.961  21.755   3.629
76999W        W38288  15.211  19.568   4.155
77000W        W38289  16.690  33.016  13.848
77001W        W38290  43.993  42.837  10.476
77002W        W38291  35.390   8.197  11.893
77003W        W38292   2.383  11.818   2.271
77004W        W38293   3.768  42.895  14.334
77005W        W38294  41.521  22.628   0.288
77006W        W38295  18.570  43.915  11.937
77007W        W38296  32.981  18.636  13.062
77008W        W38297  16.666  26.984   1.840
77009W        W38298  39.018   5.733   4.315
77010W        W38299  28.042  25.985   1.288
77011W        W38300   7.718  34.536   0.262
77012W        W38301  35.052   4.232   3.242
77013W        W38302  13.264  28.163   1.907
77014W        W38303   3.359  38.418  12.417
77015W        W38304  29.165  16.779  12.956
77016W        W38305  36.988  27.062  14.889
77017W        W38306  25.159  30.531  14.763
77018W        W38307  36.859  23.523   4.158
77019W        W38308  35.989  26.657  13.823
77020W        W38309   1.809  35.106  12.067
77021W        W38310   5.833  26.175  12.864
77022W        W38311  23.509  39.417   4.810
77023W        W38312  14.656   1.950  14.311
77024W        W38313  26.080  33.443   3.640
77025W        W38314  28.513   4.796   1.879
77026W        W38315   1.760  33.423   4.199
77027W        W38316  41.810   7.198  11.068
77028W        W38317  12.265  35.386   2.300
77029W        W38318  37.970  24.107  10.563
77030W        W38319  37.885  43.769   1.220
77031W        W38320   4.244  25.638  10.150
77032W        W38321  33.602  33.041   3.689
77033W        W38322  20.740  19.117   1.888
77034W        W38323  13.783  32.416   0.844
77035W        W38324  16.167  20.200   3.660
77036W        W38325  19.142   6.425  14.992
77037W        W38326  20.715  11.177  10.921
77038W        W38327  18.186   1.826   2.302
77039W        W38328  38.439  13.219  13.468
77040W        W38329  12.733  16.205   2.418
77041W        W38330  27.943   3.365  14.341
77042W        W38331  10.696  13.623  14.500
77043W        W38332   7.744   5.194  13.318
77044W        W38333  26.966  40.930   4.641
77045W        W38334  18.759   7.818   1.421
77046W        W38335  42.336  32.115  13.043
77047W        W38336  10.728  20.645   0.896
77048W        W38337  42.815  20.204   1.351
77049W        W38338  26.022  37.030   0.244
77050W        W38339  15.708   0.824  12.956
77051W        W38340   3.233  39.841   1.331
77052W        W38341  18.106  30.644  11.036
77053W        W38342  39.350  29.143   0.243
77054W        W38343  27.981  36.092  14.913
77055W        W38344  28.462  34.601  10.916
77056W        W38345  41.522  26.643  12.844
77057W        W38346   1.964  10.679  14.509
77058W        W38347   2.259   1.895  11.978
77059W        W38348  18.565  28.168   4.315
77060W        W38349  42.897  38.928   0.966
77061W        W38350  16.138   1.328   4.300
77062W        W38351   6.249  29.460   4.264
77063W        W38352  40.431  23.090  10.998
77064W        W38353  18.552  37.335   3.383
77065W        W38354   6.314  10.689  12.575
77066W        W38355   3.789  25.118   2.218
77067W        W38356  38.498  25.977  14.021
77068W        W38357   4.247  43.818   4.659
77069W        W38358  20.100  15.809  11.612
77070W        W38359  23.697  35.603   1.905
77071W        W38360   8.793  28.968   0.350
77072W        W38361  44.879  23.178  11.587
77073W        W38362  29.029  35.505   1.282
77074W        W38363  26.123  28.969  13.885
77075W        W38364  12.190  13.193  14.953
77076W        W38365  16.630  12.253  10.976
77077W        W38366   3.880  24.181   3.366
77078W        W38367  39.041  41.845   0.387
77079W        W38368  42.856  35.363  13.436
77080W        W38369  36.555  18.556   1.731
77081W        W38370   2.471  44.779  12.053
77082W        W38371  12.687  43.776   2.663
77083W        W38372  15.716  24.531   3.781
77084W        W38373   3.777  33.413   3.680
77085W        W38374  14.119  35.383  11.858
77086W        W38375  43.272  25.131  10.572
77087W        W38376  22.240   1.282   4.254
77088W        W38377   9.363  36.987   1.828
77089W        W38378   1.940   2.386  12.412
77090W        W38379  14.340  22.592   2.759
77091W        W38380  42.786  22.105  11.518
77092W        W38381  36.573  32.977  13.897
77093W        W38382  18.215  19.740  10.616
77094W        W38383  28.950   2.740  13.452
77095W        W38384  10.714  41.437   0.841
77096W        W38385  34.983  35.417   2.850
77097W        W38386  38.837  25.506   1.448
77098W        W38387  28.566  44.798   3.247
77099W        W38388   0.431  31.134  13.450
77100W        W38389  33.593  18.570  13.954
77101W        W38390  29.438  41.437  14.401
77102W        W38391  26.985  37.561  14.002
77103W        W38392  28.673  34.502  11.978
77104W        W38393  35.061   2.253   1.261
77105W        W38394  12.129  44.888  14.281
77106W        W38395  21.548  39.402   0.782
77107W        W38396  42.872  37.402   0.767
77108W        W38397  40.040  31.531   0.780
77109W        W38398   3.398  27.484  11.543
77110W        W38399  14.681  25.113  11.894
77111W        W38400   8.337  21.114  14.415
77112W        W38401   0.487  10.861   1.931
77113W        W38402   2.905   1.876   3.727
77114W        W38403  28.643  23.712   1.830
77115W        W38404  15.246   9.669  12.901
77116W        W38405  44.768  39.983  14.334
77117W        W38406  31.500  40.313  11.416
77118W        W38407  23.553   8.293  14.890
77119W        W38408  18.124  20.592  13.347
77120W        W38409  27.532  32.474  14.845
77121W        W38410  20.569  20.034   1.292
77122W        W38411  16.664  42.395   2.781
77123W        W38412  41.949  27.114  11.079
77124W        W38413   3.399  36.528   2.722
77125W        W38414   7.880  27.994   5.723
77126W        W38415  36.876   0.801  13.834
77127W        W38416  24.123  44.358   3.755
77128W        W38417   6.725  21.208   1.311
77129W        W38418   4.783   0.395  13.843
77130W        W38419  35.545  14.324   4.306
77131W        W38420  10.793  15.168   1.822
77132W        W38421  20.213  31.134  14.951
77133W        W38422   6.690  14.324   4.125
77134W        W38423  39.959  34.395   3.239
77135W        W38424  29.524  28.120  12.058
77136W        W38425  31.583   5.419  12.513
77137W        W38426  15.165   5.905  13.895
77138W        W38427  17.564  43.301   3.852
77139W        W38428  27.636  15.171  14.861
77140W        W38429   7.262  40.913  13.924
77141W        W38430  40.012  25.494   2.830
77142W        W38431   9.782  34.390   2.877
77143W        W38432  15.104  23.217   3.147
77144W        W38433  31.523  31.434  11.127
77145W        W38434  35.944  10.304  13.393
77146W        W38435  29.066   5.745   4.628
77147W        W38436   0.956  28.607  11.983
77148W        W38437  14.724  10.201  14.300
77149W        W38438  30.145  43.384   3.157
77150W        W38439  10.666  35.475  10.607
77151W        W38440   5.385  21.058  10.085
77152W        W38441   8.354  24.172  13.881
77153W        W38442  38.334  18.096  11.560
77154W        W38443  19.089  16.194  11.540
77155W        W38444  17.103  30.587   9.961
77156W        W38445  18.251  14.223   2.208
77157W        W38446   5.816  27.592  14.031
77158W        W38447  40.446  35.958   5.234
77159W        W38448   8.792  17.140   4.694
77160W        W38449  19.695  28.146  13.505
77161W        W38450  35.451  26.005  13.518
77162W        W38451  18.695  10.652  10.491
77163W        W38452  44.867  16.193   4.355
77164W        W38453  20.161  44.439   3.280
77165W        W38454   4.825   8.389   2.809
77166W        W38455  39.392  23.225  11.483
77167W        W38456  24.182  36.096  13.827
77168W        W38457  16.795  43.833  11.496
77169W        W38458  43.439  19.077   3.351
77170W        W38459  11.816  38.412   4.230
77171W        W38460  23.114   5.289  11.396
77172W        W38461  44.483  19.219   0.406
77173W        W38462  20.078  19.779   1.704
77174W        W38463  12.275  44.362   0.736
77175W        W38464  13.763  36.048   3.866
77176W        W38465  43.951  35.941  12.354
77177W        W38466  36.446  40.333  12.544
77178W        W38467  26.019  25.640   1.905
77179W        W38468  16.643  29.487  11.886
77180W        W38469  34.932  35.959   2.836
77181W        W38470  38.002  40.431  13.507
77182W        W38471  43.914  26.646  12.353
77183W        W38472  32.514  15.772   4.184
77184W        W38473  37.020  18.167   5.575
77185W        W38474  28.169  11.751  10.512
77186W        W38475  35.461   0.380  10.597
77187W        W38476   9.703   2.936   3.818
77188W        W38477  28.514  40.492  10.435
77189W        W38478  23.114  33.495  10.011
77190W        W38479  25.707   7.815   2.291
77191W        W38480   1.764  21.111   2.707
77192W        W38481   9.836   0.280   0.930
77193W        W38482  24.980  18.648  12.374
77194W        W38483  20.184  13.659  11.421
77195W        W38484  20.231   7.833  13.451
77196W        W38485  41.297   6.213   4.165
77197W        W38486  23.685  20.534  13.832
77198W        W38487  21.105  43.376   0.342
77199W        W38488  36.959  30.984   3.201
77200W        W38489  26.564  14.829   2.234
77201W        W38490  29.572  25.507   0.276
77202W        W38491  21.743  28.126  10.007
77203W        W38492  27.031   3.956   4.705
77204W        W38493  23.224  13.153   1.911
77205W        W38494  30.562  41.384   3.779
77206W        W38495  17.722  10.162   3.247
77207W        W38496  21.606   5.781   1.901
77208W        W38497  21.139  40.306   1.813
77209W        W38498  13.310  18.201   4.773
77210W        W38499  13.274  14.233  10.427
77211W        W38500  35.056  31.601  12.459
77212W        W38501  18.722  43.966  12.964
77213W        W38502  19.728  29.486   2.275
77214W        W38503  36.515  11.371   1.264
77215W        W38504  21.627  44.806   3.767
77216W        W38505   0.454   0.922  14.931
77217W        W38506   1.269  15.314  12.550
77218W        W38507  21.153  36.576  12.437
77219W        W38508  43.795  35.002   2.853
77220W        W38509  36.548  25.650  13.829
77221W        W38510  31.112  28.576  13.934
77222W        W38511  14.157   7.197  11.452
77223W        W38512  12.650  41.379   0.270
77224W        W38513  14.754   1.790   5.633
77225W        W38514  22.179   8.847  10.520
77226W        W38515  27.981  25.975  11.464
77227W        W38516   0.385  31.076   2.296
77228W        W38517  36.000   4.416   3.725
77229W        W38518  36.367  30.116   0.456
77230W        W38519  35.438  29.043  11.875
77231W        W38520  29.965  40.870  10.511
77232W        W38521  28.590  33.527  13.467
77233W        W38522  11.342   7.201   2.838
77234W        W38523   5.385  37.350  12.502
77235W        W38524  42.970  16.697  13.937
77236W        W38525  39.365  43.468  14.478
77237W        W38526   1.237  18.635   3.333
77238W        W38527  26.501  26.581  11.863
77239W        W38528  30.579  15.765  12.350
77240W        W38529   4.904  37.573  13.367
77241W        W38530  11.628  33.599  14.462
77242W        W38531  34.506  20.121  13.059
77243W        W38532  25.037  42.392  12.896
77244W        W38533  10.298  15.166   0.346
77245W        W38534  30.585  12.626  11.128
77246W        W38535  30.122  25.675   2.400
77247W        W38536   6.859  35.887  11.929
77248W        W38537  28.992  18.270   1.314
77249W        W38538  22.693   5.253  14.028
77250W        W38539  35.875   5.700   4.734
77251W        W38540  40.483   8.843  11.889
77252W        W38541   8.866  18.689   5.083
77253W        W38542  16.683  24.220   0.892
77254W        W38543  17.630   1.975   2.744
77255W        W38544  20.717  26.953  14.781
77256W        W38545  16.247  41.441  12.407
77257W        W38546   3.272   3.414   1.427
77258W        W38547  40.808   6.294  12.467
77259W        W38548  20.136  32.406  12.370
77260W        W38549  25.979  13.338  12.346
77261W        W38550  41.918  23.655   2.198
77262W        W38551  44.809  23.590  12.393
77263W        W38552  10.764  17.781  11.897
77264W        W38553  26.985  12.849   1.744
77265W        W38554  14.142  12.273   1.782
77266W        W38555   4.243  39.939  11.539
77267W        W38556  38.455  24.487   0.437
77268W        W38557  38.851  25.652  13.485
77269W        W38558   3.778  11.861   4.652
77270W        W38559  32.888   5.225  14.322
77271W        W38560   9.725  31.025   2.246
77272W        W38561   1.405   8.262   0.295
77273W        W38562  10.650  16.133   3.304
77274W        W38563   5.853  31.975   4.779
77275W        W38564  27.008  28.049   3.236
77276W        W38565   9.846  20.270   1.858
77277W        W38566  41.498  40.947  10.634
77278W        W38567  24.486  27.644  10.435
77279W        W38568  37.939   8.188  11.865
77280W        W38569  38.526   9.882   1.220
77281W        W38570  16.276  29.976  11.552
77282W        W38571   4.733   9.650   3.267
77283W        W38572   3.774  34.610  11.975
77284W        W38573  35.854   9.330  14.017
77285W        W38574   8.687  30.107  12.926
77286W        W38575  11.661  26.169   2.191
77287W        W38576  32.891  43.961   3.264
77288W        W38577   9.204   6.409   2.774
77289W        W38578  39.840  25.138   2.265
77290W        W38579  19.574  24.005  12.342
77291W        W38580  31.517   1.956  14.828
77292W        W38581  12.183  42.417   0.876
77293W        W38582   7.752  28.950   1.342
77294W        W38583  15.760  15.084  14.508
77295W        W38584  12.146  37.435   2.328
77296W        W38585   2.454  37.964   2.379
77297W        W38586   1.784   5.762  14.902
77298W        W38587  28.639  18.611  13.867
77299W        W38588  22.525  22.151   4.269
77300W        W38589   1.893  38.395   0.326
77301W        W38590  17.279  22.234  13.057
77302W        W38591  13.811  13.844   2.713
77303W        W38592  44.902  31.544  14.992
77304W        W38593  42.375  29.069  12.928
77305W        W38594  18.694   6.411  10.969
77306W        W38595  33.580  28.461   3.852
77307W        W38596  23.241  36.424   1.314
77308W        W38597   7.740  29.648   1.440
77309W        W38598  11.351  17.602  14.388
77310W        W38599  19.205  36.501  14.010
77311W        W38600  36.023   4.796  12.497
77312W        W38601  34.510  21.103   1.362
77313W        W38602  13.238  14.774  13.039
77314W        W38603  27.977  26.648   3.345
77315W        W38604  34.945  42.962  13.045
77316W        W38605  21.632  19.217  13.326
77317W        W38606  40.808  14.178   4.204
77318W        W38607   8.351  14.614  13.522
77319W        W38608  12.779   0.836   0.735
77320W        W38609  26.476   1.435   1.743
77321W        W38610  35.978  35.920   1.392
77322W        W38611   9.877  17.065   0.776
77323W        W38612  29.939  14.143  14.309
77324W        W38613  21.690  25.541  14.795
77325W        W38614  11.372  38.875   4.749
77326W        W38615  15.815  30.023   2.332
77327W        W38616  20.715   7.356   3.162
77328W        W38617  29.608   8.792   5.243
77329W        W38618  14.670  32.395   2.417
77330W        W38619  30.563  38.403   3.810
77331W        W38620  26.002  24.649   4.724
77332W        W38621   8.340  22.611   1.810
77333W        W38622  23.560  29.171  12.994
77334W        W38623  33.421   5.702  14.315
77335W        W38624  42.911  27.658  10.914
77336W        W38625  24.497  15.149  14.019
77337W        W38626  14.113   0.919  12.457
77338W        W38627  12.612  37.015  11.037
77339W        W38628   7.906   0.443  10.968
77340W        W38629  24.027  19.229  11.060
77341W        W38630   9.706  26.013   0.289
77342W        W38631  35.985   9.819  10.479
77343W        W38632  12.215  13.199  12.453
77344W        W38633  14.220  28.561  10.618
77345W        W38634  11.767  23.003   0.400
77346W        W38635  40.417  30.422   2.186
77347W        W38636   1.953  21.676   1.807
77348W        W38637   2.779  43.818   0.897
77349W        W38638  29.579  26.489   1.789
77350W        W38639  11.661  43.436   2.844
77351W        W38640  23.717  16.089   0.966
77352W        W38641  13.664   0.271  14.760
77353W        W38642  44.835  30.419  11.385
77354W        W38643  23.629  25.683   4.215
77355W        W38644   0.478  31.021   1.291
77356W        W38645  41.471   7.329   0.778
77357W        W38646  13.662   0.277   4.695
77358W        W38647  10.167  12.299  13.910
77359W        W38648  26.532  41.910  12.549
77360W        W38649  37.052  24.095  14.827
77361W        W38650  28.158   8.697   1.717
77362W        W38651  10.271  35.873   2.743
77363W        W38652  24.108  20.576  12.370
77364W        W38653   1.869  22.549   1.295
77365W        W38654  44.989  39.439   3.336
77366W        W38655  18.572   0.813   2.893
77367W        W38656  12.723  23.168   3.733
77368W        W38657  28.087  18.649  11.468
77369W        W38658   6.415  12.157  10.485
77370W        W38659  26.536  35.457  11.582
77371W        W38660  27.067   6.406  13.877
77372W        W38661  27.491  19.556  13.417
77373W        W38662  38.427  12.701  11.515
77374W        W38663  40.833  37.882   3.165
77375W        W38664   8.386   4.812  14.919
77376W        W38665  28.046  28.451  13.827
77377W        W38666  37.037  29.450  13.932
77378W        W38667  34.595  18.205   2.849
77379W        W38668  21.127  22.049  14.761
77380W        W38669   0.793   1.465   4.196
77381W        W38670  35.466  25.537   2.761
77382W        W38671  16.195  11.783   3.766
77383W        W38672  28.973  42.507   0.348
77384W        W38673  37.522   8.220  11.886
77385W        W38674  32.992  25.128  10.426
77386W        W38675  15.716  10.701   2.181
77387W        W38676   3.770  36.857   3.690
77388W        W38677  20.582  23.532  13.915
77389W        W38678  19.084  22.052   1.245
77390W        W38679   4.207  41.329   4.235
77391W        W38680   8.241  11.128  12.893
77392W        W38681  42.797  25.636  14.430
77393W        W38682  17.737  34.405  13.935
77394W        W38683   7.891  41.858  14.814
77395W        W38684   2.317  28.951  10.513
77396W        W38685  34.437  11.297   4.185
77397W        W38686  33.568  14.270  11.572
77398W        W38687  27.096  42.926  10.632
77399W        W38688  17.730   2.727   4.704
77400W        W38689  40.908  38.517  12.391
77401W        W38690  23.179  44.877   0.959
77402W        W38691  36.014  17.693  10.907
77403W        W38692  32.505  16.756  11.938
77404W        W38693  12.270  23.088   5.642
77405W        W38694  28.532  32.953  13.964
77406W        W38695  28.016   2.932   0.388
77407W        W38696  43.383  14.760  11.949
77408W        W38697  39.455  31.417  13.927
77409W        W38698   2.720  26.609   0.279
77410W        W38699   8.744  42.450  14.788
77411W        W38700   6.189  28.604   3.353
77412W        W38701  39.947   7.709   3.364
77413W        W38702   6.742   2.331  11.451
77414W        W38703   8.687   4.344   2.376
77415W        W38704  36.461  15.247  12.439
77416W        W38705  31.029   2.315   0.330
77417W        W38706   2.419  36.523   1.286
77418W        W38707  43.272  39.982  12.386
77419W        W38708  37.375  40.351  12.413
77420W        W38709  30.419  34.018   3.278
77421W        W38710   3.938  34.030  14.352
77422W        W38711  40.490   6.211  13.377
77423W        W38712  39.006  27.507   5.132
77424W        W38713  29.553  29.612  13.892
77425W        W38714  41.942  44.811  14.447
77426W        W38715  22.664  42.393   0.898
77427W        W38716  38.391   0.957  11.400
77428W        W38717  23.636  40.828   3.288
77429W        W38718   9.866   4.812  14.456
77430W        W38719   4.252  29.501  13.977
77431W        W38720  24.555  36.463   3.168
77432W        W38721  16.572  10.700   0.258
77433W        W38722  29.551  43.809   2.824
77434W        W38723  14.333  15.189   1.714
77435W        W38724   9.395  42.875   3.863
77436W        W38725   1.805  20.748   4.218
77437W        W38726   9.716   7.211   0.821
77438W        W38727  40.354  21.532   3.237
77439W        W38728  21.247  42.959   3.241
77440W        W38729  34.611  42.824  13.411
77441W        W38730   0.441  32.530   0.345
77442W        W38731  10.840   4.824  10.154
77443W        W38732  31.146  10.301   4.125
77444W        W38733  37.949  31.041  12.577
77445W        W38734  38.996  10.707   2.746
77446W        W38735   7.281  31.614   2.686
77447W        W38736   9.800  24.061   4.651
77448W        W38737  14.827  27.635   3.189
77449W        W38738  22.066  14.747  13.024
77450W        W38739  22.740  30.531  10.586
77451W        W38740  35.594  21.224  13.915
77452W        W38741   9.246  40.904  11.483
77453W        W38742  39.987  13.276   2.675
77454W        W38743  36.525  13.190  12.897
77455W        W38744  27.690  18.581   2.755
77456W        W38745  12.763  43.842   1.219
77457W        W38746  11.750   9.280  13.366
77458W        W38747  19.562   9.286   1.825
77459W        W38748   3.720   8.764  10.410
77460W        W38749  18.148  42.780   1.864
77461W        W38750  44.944  13.128  14.961
77462W        W38751  21.648  20.663   1.332
77463W        W38752  43.292  24.598   0.840
77464W        W38753  19.264  26.057  11.559
77465W        W38754  17.710  23.504   1.450
77466W        W38755   1.864  19.701  11.129
77467W        W38756  38.493  10.637   1.407
77468W        W38757  21.699  29.969   1.891
77469W        W38758   2.294  15.139   3.802
77470W        W38759   2.302   8.173  13.953
77471W        W38760  37.049  16.187   3.263
77472W        W38761  39.946  32.517  14.292
77473W        W38762   2.792  42.495   1.251
77474W        W38763  22.644  24.073   3.794
77475W        W38764  31.937   5.259   5.622
77476W        W38765   1.742  16.715   4.241
77477W        W38766  19.619   5.835  11.529
77478W        W38767   5.305  22.561  13.794
77479W        W38768  34.605  32.132   0.936
77480W        W38769  42.287   1.951   1.741
77481W        W38770  19.765  40.377  11.572
77482W        W38771  34.383  41.792  12.425
77483W        W38772  10.832  29.020   2.810
77484W        W38773  10.175  39.508   3.647
77485W        W38774  29.010  32.470   3.325
77486W        W38775   1.427  44.904  13.914
77487W        W38776   0.929   3.715   0.913
77488W        W38777   7.840  14.798   4.227
77489W        W38778  11.772  34.061   4.676
77490W        W38779  29.165  18.631  14.953
77491W        W38780  21.096   2.233  13.477
77492W        W38781   4.886  37.575   4.140
77493W        W38782  15.739  32.441   3.348
77494W        W38783  17.255   7.268   1.226
77495W        W38784  41.970  41.890   4.612
77496W        W38785   7.880  12.847  11.454
77497W        W38786   5.770   7.401   4.160
77498W        W38787  10.745   4.374  13.308
77499W        W38788  33.573  20.086  12.493
77500W        W38789  30.570  37.999   2.843
77501W        W38790  38.059  40.305   3.835
77502W        W38791  27.964  16.103   4.652
77503W        W38792  27.949  28.974   1.694
77504W        W38793   5.223  10.284  14.299
77505W        W38794  41.369  33.036   0.778
77506W        W38795  35.949  12.686  13.043
77507W        W38796  38.064  30.019  14.896
77508W        W38797  36.538  14.612  13.856
77509W        W38798  10.846  10.743  11.952
77510W        W38799  17.132  27.506  13.321
77511W        W38800   9.865   9.739   2.712
77512W        W38801  31.626   6.311  10.908
77513W        W38802   5.305   0.864  13.854
77514W        W38803  38.864  41.292   2.690
77515W        W38804  12.180  21.255  12.480
77516W        W38805  23.543  15.118   2.318
77517W        W38806  23.722  19.606  10.602
77518W        W38807  34.952  13.668   2.894
77519W        W38808  18.718  29.460  12.419
77520W        W38809  42.971  16.187   4.710
77521W        W38810  42.826  25.677   4.218
77522W        W38811  35.420  19.582  13.381
77523W        W38812  30.952  30.425   1.222
77524W        W38813   5.250   1.836   0.361
77525W        W38814  18.705  22.671  13.009
77526W        W38815  37.513  38.014   1.831
77527W        W38816  35.571  21.098   1.353
77528W        W38817  30.164   2.881   1.720
77529W        W38818  44.840  15.739  10.974
77530W        W38819  17.112  30.629   0.456
77531W        W38820   0.791  42.459  14.984
77532W        W38821  30.570  13.250  13.992
77533W        W38822  36.525  23.718   3.232
77534W        W38823   7.338  38.413   0.337
77535W        W38824  32.427  42.302  11.506
77536W        W38825   8.846  16.270  13.809
77537W        W38826  27.150   3.773   2.332
77538W        W38827  33.417  10.761   1.369
77539W        W38828  31.042  43.479  14.358
77540W        W38829  37.488  30.948  11.046
77541W        W38830  42.486  12.857   0.887
77542W        W38831  17.636  19.168   2.884
77543W        W38832  24.071   2.296   3.372
77544W        W38833  25.582  19.778   5.260
77545W        W38834  22.551  37.580  11.539
77546W        W38835  25.092  42.469  12.469
77547W        W38836  20.028  44.438  11.398
77548W        W38837  30.526   2.830   2.665
77549W        W38838  40.015  32.404  10.500
77550W        W38839  38.381  27.462   0.787
77551W        W38840  26.064  39.825  14.987
77552W        W38841  37.969  34.430  11.426
77553W        W38842  26.657  25.515  14.819
77554W        W38843  26.164  36.070   1.855
77555W        W38844  29.059  32.039   0.938
77556W        W38845  40.041  15.587   2.339
77557W        W38846  18.788  39.041   4.311
77558W        W38847  33.595  18.062  12.501
77559W        W38848   4.269  10.859   3.739
77560W        W38849  43.295   1.922  12.350
77561W        W38850  38.462  35.583  13.045
77562W        W38851   4.772  39.549  12.386
77563W        W38852  12.361  10.808  14.389
77564W        W38853  22.556  34.396  14.332
77565W        W38854   7.768  21.715   1.400
77566W        W38855  26.585   2.405   3.247
77567W        W38856  22.727  38.996  11.914
77568W        W38857  10.357  10.806   3.172
77569W        W38858  23.115  25.119   3.833
77570W        W38859  25.064  27.501  14.763
77571W        W38860  30.459  31.512  12.071
77572W        W38861  28.621   0.886  14.302
77573W        W38862  44.460  42.893  10.153
77574W        W38863  33.393  25.111  12.478
77575W        W38864  41.840   9.822   3.265
77576W        W38865  19.230  27.525  12.441
77577W        W38866  34.430  33.108   3.846
77578W        W38867   8.262  35.919  13.012
77579W        W38868   4.242  39.379   2.710
77580W        W38869  40.962  15.268  10.079
77581W        W38870   1.941  33.919  14.375
77582W        W38871  26.601  15.686  11.087
77583W        W38872  44.317   7.895   3.828
77584W        W38873  33.015  18.245  12.038
77585W        W38874  29.985  26.648   9.964
77586W        W38875  43.273   6.426  10.494
77587W        W38876  28.553  11.321  10.897
77588W        W38877  41.364  10.208  12.980
77589W        W38878  13.141  26.078  13.390
77590W        W38879   5.874  32.913  14.324
77591W        W38880  17.603  12.255   4.334
77592W        W38881  10.700  13.708   4.180
77593W        W38882   3.244   0.972  13.416
77594W        W38883  42.469  29.971  10.406
77595W        W38884  21.047  12.191  14.345
77596W        W38885  31.930  32.510   3.743
77597W        W38886  29.961  10.795  11.452
77598W        W38887   9.780  15.187  12.550
77599W        W38888  40.359  34.442   0.342
77600W        W38889  31.495  40.498  12.359
77601W        W38890  43.792  13.611  14.924
77602W        W38891  36.028   8.848   0.809
77603W        W38892  18.224  23.667   4.138
77604W        W38893  35.867  23.556   3.656
77605W        W38894   0.767  14.260   0.908
77606W        W38895  27.525  35.070  10.636
77607W        W38896  33.945  21.560   0.908
77608W        W38897  39.438  20.091  12.941
77609W        W38898   0.325  11.712  10.130
77610W        W38899  24.211  26.012   1.813
77611W        W38900  42.395  28.072  14.821
77612W        W38901  34.046  19.116  11.117
77613W        W38902  20.764  35.028   3.800
77614W        W38903  20.646  41.880  12.472
77615W        W38904   1.776  14.229   4.181
77616W        W38905  19.562  28.087   4.604
77617W        W38906  11.178  14.664  12.990
77618W        W38907  42.432   3.361  14.767
77619W        W38908  14.796  17.237  14.381
77620W        W38909   8.382  13.245   1.702
77621W        W38910  21.641   4.723   4.608
77622W        W38911  21.130  16.239   2.251
77623W        W38912  27.049  26.122  12.952
77624W        W38913   0.830  42.284  10.626
77625W        W38914  31.113  27.972   3.155
77626W        W38915  11.678   3.910   1.774
77627W        W38916  40.403  43.332   0.843
77628W        W38917  29.623  31.420   1.796
77629W        W38918   4.402   9.381  12.376
77630W        W38919  12.277  30.046  13.527
77631W        W38920  37.342   5.259  11.855
77632W        W38921  33.012  41.905   2.818
77633W        W38922  15.764   0.256   2.414
77634W        W38923  35.106  37.035  13.490
77635W        W38924  35.449  34.924  11.116
77636W        W38925  37.486  28.057   5.132
77637W        W38926  36.366  12.708  10.057
77638W        W38927  35.572  10.350   2.728
77639W        W38928  10.228  25.594  14.498
77640W        W38929  14.834  12.329  11.404
77641W        W38930  25.136  27.447   4.822
77642W        W38931  42.309  33.566   2.216
77643W        W38932   5.708  13.306   3.367
77644W        W38933  30.091  41.415   0.378
77645W        W38934   2.315  15.115  10.613
77646W        W38935  11.369   9.707  11.579
77647W        W38936  21.533  21.671  12.344
77648W        W38937   5.738  28.658   3.180
77649W        W38938  40.007  20.583   4.137
77650W        W38939  39.426  27.025   4.723
77651W        W38940  42.794  34.422   1.449
77652W        W38941  22.686  23.183  12.092
77653W        W38942  16.750   5.722   1.849
77654W        W38943  43.929  26.582  14.305
77655W        W38944  19.111  42.945   3.224
77656W        W38945  35.416  43.327   2.366
77657W        W38946  35.523  38.973   4.641
77658W        W38947  25.015  33.611   0.346
77659W        W38948  12.636   5.368  10.523
77660W        W38949  16.312   6.218  11.999
77661W        W38950   0.261  21.105  11.901
77662W        W38951  19.575  14.695   0.764
77663W        W38952   4.384  29.073  13.521
77664W        W38953  15.684  17.729  10.951
77665W        W38954  26.657  37.435   0.371
77666W        W38955  17.287  26.697  13.003
77667W        W38956   7.697  29.530  12.580
77668W        W38957  15.088  15.634   1.294
77669W        W38958  34.920  13.162   0.472
77670W        W38959  12.249   0.934   3.148
77671W        W38960  27.952  21.531   4.685
77672W        W38961  15.741  21.603  13.542
77673W        W38962  14.597  20.761   3.676
77674W        W38963  19.157  22.116   0.739
77675W        W38964   8.772  16.751  10.464
77676W        W38965  31.026   0.256   0.371
77677W        W38966  10.637  25.665  14.396
77678W        W38967  15.274  24.527   4.319
77679W        W38968   5.356  11.328  14.360
77680W        W38969  40.988  15.785  11.023
77681W        W38970   4.342  22.550   4.209
77682W        W38971   7.877   7.672   2.411
77683W        W38972  16.267   1.780   1.300
77684W        W38973  20.124   4.280  14.468
77685W        W38974  42.855  39.966   4.747
77686W        W38975  35.880   6.848  11.462
77687W        W38976  18.245   6.336   2.689
77688W        W38977   2.324   6.309   3.149
77689W        W38978   6.387  32.135  12.843
77690W        W38979   8.721  41.956  14.299
77691W        W38980  44.396  35.906  11.896
77692W        W38981  17.221  13.295  12.464
77693W        W38982   4.391  22.052  10.014
77694W        W38983  24.660  38.383   1.360
77695W        W38984  18.088  28.558  14.907
77696W        W38985  23.674  31.430   1.317
77697W        W38986  20.067   5.885  12.439
77698W        W38987  18.553  28.565   2.804
77699W        W38988  38.938  34.891  10.099
77700W        W38989  21.191  30.503  13.019
77701W        W38990  17.620  21.522  12.356
77702W        W38991  21.156  11.350   2.703
77703W        W38992  23.099   0.301  13.545
77704W        W38993  13.620  23.129   3.774
77705W        W38994  18.748  44.871   3.677
77706W        W38995  38.032   1.456   1.924
77707W        W38996   7.887  15.739   2.234
77708W        W38997  27.463  19.598   2.384
77709W        W38998   0.391  18.727   0.395
77710W        W38999  26.156   1.865   2.318
77711W        W39000  35.571  17.070  14.972
77712W        W39001  17.267  19.169   1.787
77713W        W39002  42.418  24.031  14.357
77714W        W39003  38.865   1.351  12.563
77715W        W39004  39.417  16.236   3.239
77716W        W39005  30.477   1.360  12.076
77717W        W39006   1.289  10.185  12.530
77718W        W39007  39.816   6.888  13.932
77719W        W39008  36.031  44.382  10.445
77720W        W39009  16.221  14.247   5.106
77721W        W39010   8.700  24.715  13.857
77722W        W39011  30.608  41.008   0.275
77723W        W39012  19.565  41.862  10.470
77724W        W39013   0.862  37.845   3.673
77725W        W39014  15.247  43.510   2.892
77726W        W39015  31.115  13.237  14.935
77727W        W39016  22.704  34.005  12.343
77728W        W39017   1.849  27.983   3.738
77729W        W39018   8.886  37.057   3.340
77730W        W39019   4.301   9.316   0.315
77731W        W39020  38.904  34.488  11.407
77732W        W39021  37.878   7.860  13.828
77733W        W39022  24.132  14.198   0.895
77734W        W39023  18.553  41.327   1.256
77735W        W39024   5.226   5.733   1.747
77736W        W39025  42.864  31.553   4.627
77737W        W39026  36.409  41.479   4.835
77738W        W39027  34.447   3.283   1.915
77739W        W39028  22.511  24.519  12.395
77740W        W39029  26.537  23.194  14.320
77741W        W39030  38.524   4.380  10.546
77742W        W39031  12.761  42.320   3.250
77743W        W39032  41.884   5.430   3.160
77744W        W39033  18.166  15.673   3.366
77745W        W39034   3.285  13.121  11.858
77746W        W39035  22.107  37.490   0.771
77747W        W39036  15.098  39.378   3.705
77748W        W39037   8.851   0.349   4.765
77749W        W39038  17.720  28.154   1.851
77750W        W39039   9.788  32.488   1.907
77751W        W39040  18.108  12.854   0.943
77752W        W39041   9.680  11.749   3.278
77753W        W39042  11.276  36.877  13.917
77754W        W39043   8.828   7.224  12.354
77755W        W39044  10.857  16.308   0.868
77756W        W39045  38.569   8.278  14.993
77757W        W39046  39.998   9.245  13.420
77758W        W39047  38.401  20.675   3.376
77759W        W39048   3.349  32.955  12.025
77760W        W39049   9.743  14.720   0.753
77761W        W39050  25.174  22.068   2.189
77762W        W39051   0.901   8.811   1.404
77763W        W39052   6.219  41.931   4.609
77764W        W39053   1.316   5.321   3.252
77765W        W39054  27.158   2.775  13.827
77766W        W39055   1.818  29.084  10.546
77767W        W39056  27.087  27.005   2.266
77768W        W39057  42.494   5.715  13.511
77769W        W39058  20.688  42.872   4.148
77770W        W39059  19.282   3.382  13.056
77771W        W39060  22.671  32.589   3.846
77772W        W39061  44.997  43.766   2.885
77773W        W39062  32.076   0.901  12.943
77774W        W39063   8.290  22.515  13.447
77775W        W39064  24.073  27.033   3.275
77776W        W39065  14.103  30.449   2.299
77777W        W39066  26.025  33.415   2.414
77778W        W39067  11.262  15.240  11.402
77779W        W39068  19.593   0.782  12.033
77780W        W39069  15.100  44.463  13.368
77781W        W39070  34.486  21.755   0.899
77782W        W39071  19.753  33.501   2.211
77783W        W39072  43.455  13.620  10.470
77784W        W39073  22.533  28.510  11.048
77785W        W39074  18.129   9.332   4.770
77786W        W39075   3.322  32.550  13.872
77787W        W39076  38.510  24.562  14.459
77788W        W39077  43.325  24.505   4.202
77789W        W39078  34.113  40.896   4.153
77790W        W39079   0.868   5.372   3.740
77791W        W39080   8.269  42.493   0.897
77792W        W39081  41.887   5.330  11.115
77793W        W39082  44.400  28.459  10.412
77794W        W39083  12.241  23.626  13.438
77795W        W39084  34.601   1.793  11.424
77796W        W39085  14.806  16.218   4.296
77797W        W39086   3.415  24.193   0.742
77798W        W39087   1.833  33.947   0.841
77799W        W39088  35.504  14.688  11.925
77800W        W39089  34.960   7.417  14.279
77801W        W39090   0.254  23.601  12.022
77802W        W39091   3.461  42.388  12.442
77803W        W39092   5.872   8.190  14.818
77804W        W39093  33.129  17.799   4.126
77805W        W39094   4.208   5.844  10.516
77806W        W39095  43.368  39.987  10.937
77807W        W39096  41.527  28.661   2.778
77808W        W39097  24.619  27.538  13.916
77809W        W39098  18.140  39.509   4.766
77810W        W39099  42.509  11.858   4.169
77811W        W39100   6.349  14.132   1.438
77812W        W39101  27.978  44.281   0.776
77813W        W39102   3.746   7.322  12.412
77814W        W39103  44.011  26.526   4.796
77815W        W39104  41.501  11.172  11.610
77816W        W39105  38.383   9.298  10.615
77817W        W39106  24.068  32.492   1.877
77818W        W39107  23.692   1.463   1.896
77819W        W39108  40.848  28.512   0.965
77820W        W39109  30.479   1.286   2.331
77821W        W39110  11.641  21.151   0.777
77822W        W39111   5.904  19.772  12.565
77823W        W39112  11.325  10.253  11.911
77824W        W39113  42.428   1.870   4.636
77825W        W39114  29.600  23.140   2.783
77826W        W39115  18.748  44.399   3.754
77827W        W39116  29.594  14.729   2.879
77828W        W39117  20.126  19.576   0.834
77829W        W39118   9.215  22.632   3.696
77830W        W39119   7.802  14.598   2.292
77831W        W39120  26.606   0.454   4.180
77832W        W39121  18.214  25.199   3.199
77833W        W39122  39.527  42.017  12.495
77834W        W39123  15.267   7.378  13.843
77835W        W39124  20.093  39.023  13.369
77836W        W39125  25.489  23.019  12.563
77837W        W39126  35.539  31.510  13.317
77838W        W39127   0.809  23.735  12.971
77839W        W39128  32.636  15.246  11.520
77840W        W39129  13.649  18.625  10.446
77841W        W39130  44.338  28.016   1.934
77842W        W39131  19.133  14.174   3.774
77843W        W39132   7.795   2.949  12.096
77844W        W39133   2.441  24.130   0.911
77845W        W39134  40.408  42.342   0.812
77846W        W39135  30.423  28.093  12.572
77847W        W39136  29.998  32.924   3.823
77848W        W39137  43.914   6.393   1.315
77849W        W39138  39.936  24.646   0.424
77850W        W39139   4.878   8.805  13.851
77851W        W39140  37.835  21.256   2.664
77852W        W39141  29.067   3.416   0.803
77853W        W39142  25.001  21.066   9.652
77854W        W39143  13.349  40.001  14.299
77855W        W39144  14.611  29.633   1.381
77856W        W39145  20.532  34.421   4.676
77857W        W39146  25.472  20.057   5.179
77858W        W39147   6.819  10.652   2.811
77859W        W39148  14.724   0.766   9.607
77860W        W39149   9.283  26.110   2.284
77861W        W39150  26.697  26.692  10.440
77862W        W39151  24.568  41.327  13.421
77863W        W39152  43.920   6.744   5.318
77864W        W39153  32.615  44.436  13.873
77865W        W39154  23.593  14.268   4.694
77866W        W39155  19.639  25.642  11.090
77867W        W39156  16.225  23.241  10.985
77868W        W39157   2.439   2.729   0.776
77869W        W39158  12.343  23.675   0.352
77870W        W39159  41.522  13.268   1.846
77871W        W39160  19.717   2.394  10.908
77872W        W39161  43.848  39.529  12.442
77873W        W39162  28.077  40.385   3.790
77874W        W39163   2.962  12.179  11.585
77875W        W39164  25.617   1.974  12.363
77876W        W39165   8.283  37.371  14.821
77877W        W39166   2.274  41.494   0.794
77878W        W39167   9.887  10.872   2.405
77879W        W39168   9.741   0.870   5.106
77880W        W39169  13.618   2.765   2.835
77881W        W39170  36.461  11.705  10.922
77882W        W39171   8.674  37.012   0.964
77883W        W39172  19.720  32.021   2.199
77884W        W39173  27.657  14.719  13.051
77885W        W39174   4.822  14.187  14.876
77886W        W39175   9.717  39.404   0.828
77887W        W39176  32.538  21.086   4.242
77888W        W39177  38.062  11.229   1.798
77889W        W39178  10.217   1.452  14.498
77890W        W39179  37.988  34.064  11.917
77891W        W39180  35.530  35.536  12.051
77892W        W39181  36.894  27.152  12.513
77893W        W39182  32.953  32.513   2.269
77894W        W39183   3.934  24.198  11.610
77895W        W39184  42.795  15.813   4.782
77896W        W39185  34.999  18.164   5.156
77897W        W39186   8.841   9.665   2.217
77898W        W39187  28.093  33.112   1.814
77899W        W39188  27.636  33.979   1.818
77900W        W39189   5.793   6.775   3.825
77901W        W39190   7.174  33.513  13.915
77902W        W39191   7.903   6.905   2.357
77903W        W39192  39.899   2.767  14.865
77904W        W39193  42.840  43.006   3.266
77905W        W39194   7.329   1.958  14.770
77906W        W39195  21.097  42.508  14.956
77907W        W39196   6.412  26.501  12.852
77908W        W39197  12.773  20.761  11.453
77909W        W39198  19.212  27.510  13.355
77910W        W39199  39.932  15.254  12.917
77911W        W39200   7.397   2.806   0.922
77912W        W39201   6.260  43.893   4.135
77913W        W39202  35.464  35.542  13.389
77914W        W39203   6.781  33.412   0.309
77915W        W39204   1.866   8.693   4.731
77916W        W39205  24.209   4.820  11.028
77917W        W39206  31.509  14.300  13.920
77918W        W39207  36.523  43.783  11.517
77919W        W39208   8.700   6.888  14.390
77920W        W39209  13.651  39.831  13.010
77921W        W39210   6.404  31.941  13.793
77922W        W39211  37.402  17.558   3.830
77923W        W39212  12.688  37.386   4.793
77924W        W39213  15.796  10.751   0.480
77925W        W39214  39.460   3.446   2.267
77926W        W39215  36.920  24.587  14.438
77927W        W39216  10.718  42.467  12.030
77928W        W39217  11.798  36.888  13.989
77929W        W39218   6.370  17.641   3.160
77930W        W39219  28.135  25.558   3.342
77931W        W39220  12.134  12.185   4.749
77932W        W39221  36.887  35.435   0.397
77933W        W39222  18.671  35.099   0.860
77934W        W39223   5.422  35.942   4.257
77935W        W39224   6.367  41.796   0.731
77936W        W39225  16.639  38.934   1.285
77937W        W39226  29.462   9.749   0.421
77938W        W39227   4.410  29.050  10.564
77939W        W39228  17.753  15.323   2.270
77940W        W39229   4.288  11.718  13.842
77941W        W39230  11.274  35.404   4.728
77942W        W39231  39.497  33.978  11.554
77943W        W39232  29.494  42.776   1.807
77944W        W39233  28.470  31.924   3.222
77945W        W39234  41.408  32.440  12.412
77946W        W39235  23.197   6.787  13.836
77947W        W39236   8.852  10.189  14.466
77948W        W39237  40.967  19.775   4.633
77949W        W39238  34.979   4.217  10.595
77950W        W39239  32.450   0.252  12.432
77951W        W39240  22.179  29.027  12.340
77952W        W39241  43.850  36.371   3.774
77953W        W39242   1.425  21.132   2.285
77954W        W39243  27.664  19.049   3.849
77955W        W39244  38.870  25.166  13.923
77956W        W39245  28.624  25.560   0.353
77957W        W39246  37.491  17.692   1.364
77958W        W39247  38.519  20.628  10.443
77959W        W39248  33.493  21.747  14.462
77960W        W39249  20.173  23.104  13.353
77961W        W39250  38.043  37.019   3.755
77962W        W39251   0.460  42.851  11.997
77963W        W39252  43.947  23.500   2.369
77964W        W39253   4.698  21.251   3.203
77965W        W39254  40.402   8.264  13.313
77966W        W39255  28.186  19.226  10.423
77967W        W39256  30.621  14.740   0.812
77968W        W39257  25.672   8.684  13.329
77969W        W39258   9.723   5.213   2.747
77970W        W39259  26.131   8.677   2.284
77971W        W39260  16.735  31.127   2.197
77972W        W39261  18.723  31.584  13.042
77973W        W39262  14.774  44.880  12.010
77974W        W39263  40.476  42.922  14.009
77975W        W39264  12.161   7.702   3.697
77976W        W39265  23.645  21.577  13.318
77977W        W39266   2.403  30.617  11.944
77978W        W39267  25.682  14.814   2.356
77979W        W39268   6.724   9.677  14.309
77980W        W39269  21.569  30.002   2.315
77981W        W39270  17.593  23.227  14.382
77982W        W39271  24.675  40.328   3.222
77983W        W39272  16.675  39.413  11.988
77984W        W39273   5.758  20.599   1.768
77985W        W39274  37.422  15.724   2.368
77986W        W39275   6.737  43.392  14.899
77987W        W39276  28.463  30.477   0.288
77988W        W39277  25.556  35.536  10.604
77989W        W39278  42.493  16.572   2.848
77990W        W39279   6.313  17.740   1.408
77991W        W39280  34.977  28.078   5.259
77992W        W39281   9.308  22.152  12.537
77993W        W39282  35.902  15.685   3.279
77994W        W39283  44.855  22.045  14.882
77995W        W39284  28.081  27.677  14.010
77996W        W39285  42.351  27.601  14.887
77997W        W39286  43.290  14.138   0.847
77998W        W39287  27.082  20.195  11.575
77999W        W39288   7.224  35.975   3.161
78000W        W39289  37.518  35.083  13.947
78001W        W39290  15.121   0.489  11.387
78002W        W39291  18.614  14.657   1.920
78003W        W39292  30.100  44.877  14.316
78004W        W39293  38.350  43.454  14.335
78005W        W39294  11.649  10.255  10.917
78006W        W39295  29.095  19.589   1.886
78007W        W39296  40.459   7.383  14.920
78008W        W39297   5.367   5.262  11.612
78009W        W39298  15.248   3.838   4.308
78010W        W39299  25.692  20.760   0.913
78011W        W39300  43.766  27.597  11.612
78012W        W39301  16.122   9.267   4.810
78013W        W39302   7.320   9.657  10.996
78014W        W39303  42.287  32.589   2.350
78015W        W39304   2.724  11.214  10.621
78016W        W39305   1.359  34.379  12.432
78017W        W39306   5.904  23.639   2.215
78018W        W39307   8.326  21.542   3.386
78019W        W39308  19.609  42.777  12.408
78020W        W39309  24.512  36.848   1.911
78021W        W39310  19.748   6.858   4.351
78022W        W39311  32.140   3.833  12.073
78023W        W39312   0.757   3.278  10.961
78024W        W39313  27.647   9.259   0.354
78025W        W39314  36.907  39.526   0.886
78026W        W39315  17.178   4.419  12.871
78027W        W39316  31.479   6.369  14.359
78028W        W39317   0.949  18.084   0.344
78029W        W39318  41.943   1.356  13.008
78030W        W39319  43.887   5.228   2.310
78031W        W39320  43.784  40.475  14.825
78032W        W39321   6.863  25.978   4.703
78033W        W39322  18.168  13.661  14.404
78034W        W39323   8.895  20.704   2.377
78035W        W39324   6.816  26.047   0.305
78036W        W39325  29.666  25.131   1.387
78037W        W39326  41.038  21.229  10.525
78038W        W39327  17.787  23.051   4.614
78039W        W39328  11.841  26.634  11.060
78040W        W39329   4.817   7.218   4.697
78041W        W39330  21.046  16.309  11.453
78042W        W39331  14.673   9.287  14.312
78043W        W39332  18.563   6.880   2.345
78044W        W39333  26.954  29.611  11.494
78045W        W39334  24.122  19.682   5.087
78046W        W39335  23.151  44.476  11.610
78047W        W39336   8.847   1.460  13.406
78048W        W39337   2.911   9.771  13.847
78049W        W39338  39.559   7.721   0.911
78050W        W39339  35.025  38.399  13.011
78051W        W39340  16.684  15.722  11.560
78052W        W39341  21.739  16.792  12.440
78053W        W39342  10.179  35.470  10.009
78054W        W39343  32.088   5.714  14.381
78055W        W39344  28.153  23.700  11.537
78056W        W39345   1.894  35.429   0.399
78057W        W39346  33.609   2.237   2.297
78058W        W39347  41.487  41.450   4.336
78059W        W39348  19.085  19.647  12.538
78060W        W39349  14.721  40.460   3.293
78061W        W39350  19.733   7.861   2.280
78062W        W39351  10.858  17.696   1.276
78063W        W39352  37.513  42.854   2.290
78064W        W39353  12.719   7.215  14.765
78065W        W39354  10.214  10.763   2.902
78066W        W39355  27.065   7.232   9.491
78067W        W39356  33.014  19.732   4.117
78068W        W39357  14.799  19.047   1.408
78069W        W39358  16.580  26.990  12.404
78070W        W39359   1.409  31.064   1.301
78071W        W39360  17.668   1.373  10.591
78072W        W39361  37.904  10.808  14.322
78073W        W39362   2.732  39.329   2.672
78074W        W39363  37.924  29.089  14.819
78075W        W39364  15.243   5.332  11.107
78076W        W39365  25.018   7.726  13.380
78077W        W39366  23.080   8.338   1.410
78078W        W39367  21.594  27.095   1.779
78079W        W39368  41.387  36.547  10.615
78080W        W39369  19.744  31.029  13.935
78081W        W39370   1.875  29.175  14.769
78082W        W39371  26.088  25.076   0.393
78083W        W39372   0.463   1.859   4.680
78084W        W39373   4.324   5.933   4.189
78085W        W39374  41.483  12.734   0.327
78086W        W39375  22.536   5.369   4.821
78087W        W39376  11.306  41.987   4.661
78088W        W39377  18.599  31.071  11.913
78089W        W39378  31.035   7.689  12.365
78090W        W39379  34.501  14.712   2.706
78091W        W39380  16.151  26.174  14.377
78092W        W39381   6.392   1.867  10.448
78093W        W39382   4.327  35.967  11.474
78094W        W39383  34.416   9.643  14.031
78095W        W39384  44.359  36.550   5.167
78096W        W39385  25.691  13.699  14.784
78097W        W39386  38.953   7.360  13.822
78098W        W39387   3.240  39.915   0.941
78099W        W39388  42.371  21.201   4.149
78100W        W39389  11.630  37.936   3.681
78101W        W39390  24.565  15.683   2.779
78102W        W39391  24.652  13.677  11.440
78103W        W39392  44.430  25.714  10.962
78104W        W39393  23.490  10.672  11.532
78105W        W39394  21.164  13.319  14.840
78106W        W39395  32.423   4.445   5.783
78107W        W39396   9.260  17.602   0.400
78108W        W39397  35.910  15.668  13.448
78109W        W39398  44.995  26.578   0.848
78110W        W39399   3.280  17.205   3.743
78111W        W39400  30.990   9.339   3.199
78112W        W39401  34.026   4.285   2.861
78113W        W39402   4.934  31.571   2.806
78114W        W39403  20.111  24.993   4.678
78115W        W39404  36.900   0.466   4.177
78116W        W39405  32.549  33.058   1.245
78117W        W39406  44.919  40.506   1.866
78118W        W39407  29.536   6.403   3.186
78119W        W39408   4.753  12.731  11.865
78120W        W39409  35.444  31.071  14.847
78121W        W39410  38.031  12.807  13.996
78122W        W39411  15.686  26.181  10.485
78123W        W39412   8.845  11.149   1.450
78124W        W39413  41.474   0.905   3.281
78125W        W39414  21.522  18.245  11.953
78126W        W39415  36.478  38.911   4.246
78127W        W39416   1.975  11.816   4.251
78128W        W39417  28.442   7.172   0.827
78129W        W39418  30.158  31.494  13.948
78130W        W39419  22.662   9.270   0.863
78131W        W39420  39.015   0.312   0.804
78132W        W39421  22.543  26.119  11.611
78133W        W39422  24.153  26.066  13.826
78134W        W39423  13.263   5.771  11.524
78135W        W39424  20.108   8.670   0.890
78136W        W39425  44.285  12.640   0.776
78137W        W39426  40.416  31.982  11.951
78138W        W39427  19.216  19.593   0.309
78139W        W39428  32.906  10.164   3.641
78140W        W39429  29.974  29.934   1.931
78141W        W39430  13.754  27.123   3.844
78142W        W39431  15.731  33.620  12.350
78143W        W39432   6.745  13.775  13.020
78144W        W39433  38.509  25.713   4.803
78145W        W39434   3.263  44.354  10.961
78146W        W39435  12.251  13.705  12.929
78147W        W39436  30.442  15.733   1.826
78148W        W39437  37.028  15.318  14.492
78149W        W39438  22.692  23.141   4.658
78150W        W39439   4.862   7.230  13.025
78151W        W39440  36.882  24.102  13.938
78152W        W39441  35.549   3.825  13.059
78153W        W39442  24.530   2.872   0.781
78154W        W39443  43.824  36.353  13.870
78155W        W39444  32.900  21.617   3.814
78156W        W39445  11.663  26.673   0.904
78157W        W39446  33.517   8.708  13.340
78158W        W39447  32.508  14.592  12.521
78159W        W39448   4.756   7.232   2.829
78160W        W39449  11.679  29.096  13.394
78161W        W39450  15.652  18.605  11.380
78162W        W39451  42.486  24.615   0.288
78163W        W39452  17.787  44.335   0.331
78164W        W39453  21.631  21.579   4.290
78165W        W39454  33.409  23.110  12.875
78166W        W39455  29.923  17.607  11.873
78167W        W39456  38.458  13.780   4.835
78168W        W39457  11.206  29.559   0.860
78169W        W39458  41.793  14.151   0.253
78170W        W39459  34.487  26.523   4.621
78171W        W39460  20.092  32.055  12.859
78172W        W39461  28.564  17.595  11.599
78173W        W39462  24.043  38.374   4.308
78174W        W39463   3.878  38.531  14.324
78175W        W39464  34.525  21.232  12.868
78176W        W39465  17.071  17.182   3.833
78177W        W39466   3.916  25.119  13.985
78178W        W39467  25.620  22.657   3.193
78179W        W39468  39.366  26.597  11.908
78180W        W39469  27.029   6.244  10.519
78181W        W39470  23.611  44.406  10.411
78182W        W39471  14.644  27.063   1.234
78183W        W39472  36.992  29.027  11.971
78184W        W39473  21.187  16.586  13.462
78185W        W39474  37.432  41.815  12.909
78186W        W39475  22.075   9.800  12.848
78187W        W39476  12.830  32.425   1.915
78188W        W39477  17.716  10.871  12.828
78189W        W39478  44.896  33.994  11.059
78190W        W39479  44.895  17.563  13.327
78191W        W39480  30.473  16.694  13.393
78192W        W39481  13.156   4.746   1.272
78193W        W39482  37.516   8.308   2.314
78194W        W39483  39.004  36.032  12.071
78195W        W39484  29.632  39.950  14.280
78196W        W39485   7.745  12.691   2.694
78197W        W39486  38.408  27.445  11.047
78198W        W39487  30.421  37.838  13.422
78199W        W39488   4.931  33.416  13.526
78200W        W39489   5.867  39.056  12.005
78201W        W39490  43.407   6.738   4.176
78202W        W39491  31.951  43.279  13.031
78203W        W39492   4.288  17.708  11.881
78204W        W39493  31.997   4.735  13.933
78205W        W39494  42.378  16.086  10.598
78206W        W39495  12.735  18.737   0.370
78207W        W39496  15.237  33.386  13.815
78208W        W39497  43.917  34.920   1.379
78209W        W39498  11.314   1.325  14.767
78210W        W39499  35.985  14.174  11.879
78211W        W39500  34.372  12.625  12.972
78212W        W39501  29.051  13.662  11.585
78213W        W39502  39.405  10.812   0.369
78214W        W39503  12.748   6.758  10.613
78215W        W39504  23.671  40.360   4.617
78216W        W39505  10.648  36.455  13.923
78217W        W39506  27.000  40.863  12.959
78218W        W39507  28.550  42.945  10.974
78219W        W39508  33.954   7.889  13.396
78220W        W39509   8.707   4.349   1.792
78221W        W39510   4.363  40.877  13.482
78222W        W39511  18.788  30.997   4.284
78223W        W39512  12.333  38.987  11.384
78224W        W39513  26.546  24.215  11.121
78225W        W39514  19.253  13.748  12.364
78226W        W39515   1.940  34.891  10.912
78227W        W39516  21.524  39.498   3.681
78228W        W39517  23.499  14.250   1.901
78229W        W39518  19.256  15.584  12.889
78230W        W39519  14.161  32.590   1.712
78231W        W39520  39.408  22.503  11.455
78232W        W39521   4.249  37.042  14.774
78233W        W39522  23.106  11.318   0.864
78234W        W39523  26.648   1.860  13.041
78235W        W39524  30.512  19.687   1.705
78236W        W39525  21.676  12.749   3.379
78237W        W39526  42.926  17.574   3.707
78238W        W39527  27.948  31.955  14.974
78239W        W39528  38.329   5.724  12.428
78240W        W39529  31.116  17.587   4.325
78241W        W39530   4.220  24.194   5.677
78242W        W39531  29.955  31.957  12.553
78243W        W39532  36.571   1.392  14.344
78244W        W39533  22.672  25.160   3.321
78245W        W39534  40.919  14.741   2.759
78246W        W39535  16.588  34.518  14.778
78247W        W39536   2.867  34.393   0.379
78248W        W39537  37.517  11.634   0.967
78249W        W39538   2.366  21.190   4.234
78250W        W39539  22.209  31.915  12.068
78251W        W39540  15.283  26.492   0.894
78252W        W39541  14.273  12.798   4.620
78253W        W39542  39.047  22.520  12.088
78254W        W39543  13.277  28.144  11.458
78255W        W39544  15.216  40.314  14.013
78256W        W39545  30.485  39.489   3.280
78257W        W39546  42.318  27.142   0.341
78258W        W39547  11.329  27.965   0.766
78259W        W39548   6.692  11.826  14.407
78260W        W39549  36.006  22.739  11.951
78261W        W39550  37.067  37.012  11.506
78262W        W39551  34.987  26.088  12.963
78263W        W39552  21.244  24.502   1.916
78264W        W39553  42.836  23.606  13.379
78265W        W39554   5.880  35.489   3.696
78266W        W39555  33.113   6.845  12.455
78267W        W39556  23.051  41.464   3.381
78268W        W39557  20.720  29.964  13.404
78269W        W39558   6.336  27.949  11.499
78270W        W39559  26.602   1.436   4.166
78271W        W39560  15.217   6.235   0.454
78272W        W39561   4.776   2.796   4.618
78273W        W39562  35.554   2.277   3.680
78274W        W39563   1.915  11.273  12.351
78275W        W39564  38.369  11.360   0.919
78276W        W39565  15.240  21.594  13.329
78277W        W39566  21.036  12.806   0.848
78278W        W39567  10.192  37.895   0.401
78279W        W39568   2.282  31.109   3.297
78280W        W39569  18.266  11.144  14.429
78281W        W39570  23.149  18.068  12.890
78282W        W39571   2.882  30.117  13.817
78283W        W39572  30.574  30.549  11.432
78284W        W39573  43.979  38.859   2.299
78285W        W39574  26.688  25.621  13.985
78286W        W39575  27.466  18.692   4.679
78287W        W39576  23.580   4.744   3.260
78288W        W39577  15.584  24.116  12.495
78289W        W39578  33.446  43.814  14.346
78290W        W39579   1.427  32.610  10.640
78291W        W39580  42.495  40.928  11.106
78292W        W39581   1.407  19.186  10.468
78293W        W39582  20.754  14.231   1.215
78294W        W39583  17.557   4.405   4.174
78295W        W39584  23.082   2.440  11.576
78296W        W39585  38.040  26.992  13.986
78297W        W39586  17.669   2.809   0.344
78298W        W39587  24.194  42.351  14.418
78299W        W39588  23.117  13.813  10.898
78300W        W39589  34.494  22.629   4.639
78301W        W39590  44.977   3.924   1.398
78302W        W39591   5.725  16.717  13.800
78303W        W39592   3.763  12.207  12.431
78304W        W39593  11.363   9.650  12.390
78305W        W39594  10.843   0.874  13.380
78306W        W39595   9.865  10.152   3.229
78307W        W39596   6.288  25.470  13.031
78308W        W39597  22.179   3.823  11.964
78309W        W39598  13.704  17.683   4.675
78310W        W39599  29.087  19.078   1.734
78311W        W39600   4.708  34.974  12.065
78312W        W39601   1.763  28.455   4.225
78313W        W39602  26.597  33.607  12.365
78314W        W39603  38.378  28.959  14.771
78315W        W39604  10.674  43.968  11.002
78316W        W39605   8.843   8.844  14.275
78317W        W39606  14.128   8.744  11.385
78318W        W39607  43.373  11.640  14.364
78319W        W39608  31.582  33.435   0.832
78320W        W39609  22.029   5.724  11.502
78321W        W39610  42.828  33.480   4.726
78322W        W39611  23.087  16.631   4.306
78323W        W39612  43.308  20.585   0.456
78324W        W39613  41.538  34.955  11.865
78325W        W39614  20.061  35.973  13.972
78326W        W39615  28.025  33.067  10.532
78327W        W39616   5.918  22.681   3.327
78328W        W39617  19.248  22.021   3.234
78329W        W39618  15.699  41.879  11.016
78330W        W39619  12.217  16.781  11.922
78331W        W39620  23.592  44.308  11.904
78332W        W39621   4.237  16.679   1.759
78333W        W39622   8.301  33.501  13.051
78334W        W39623  26.602  27.451   1.274
78335W        W39624  18.643  43.436   3.170
78336W        W39625  30.524  12.339   4.236
78337W        W39626  21.256  39.903  13.542
78338W        W39627  19.556  31.546   4.823
78339W        W39628   1.462  20.689   3.659
78340W        W39629   8.808   2.783   2.790
78341W        W39630  35.417   6.726   1.211
78342W        W39631   4.842  31.946  12.031
78343W        W39632  27.024  29.068   3.353
78344W        W39633  15.249  25.196   4.798
78345W        W39634   5.279   7.185   3.697
78346W        W39635  44.271  44.484   1.728
78347W        W39636  15.203  32.436   2.317
78348W        W39637  39.048  36.502  12.863
78349W        W39638  10.687  14.700   1.274
78350W        W39639  12.138  16.605  14.289
78351W        W39640  35.109  28.527   2.195
78352W        W39641   0.253   1.315  12.061
78353W        W39642  13.701  13.658   1.901
78354W        W39643  30.142  29.929  13.860
78355W        W39644  28.985  28.004   1.379
78356W        W39645  17.156  20.039   4.200
78357W        W39646  35.361  26.673   2.416
78358W        W39647  36.539  12.679   1.239
78359W        W39648  37.047  42.963  10.025
78360W        W39649  27.690  18.662  11.563
78361W        W39650  30.596   5.757   2.786
78362W        W39651   3.782  36.493   2.326
78363W        W39652  13.180   8.233  14.424
78364W        W39653  24.218  10.324  12.399
78365W        W39654  40.044  16.650   3.304
78366W        W39655  12.629  41.013  11.946
78367W        W39656  17.612   7.260   2.717
78368W        W39657  37.518  33.877  11.128
78369W        W39658   3.226  25.063  12.476
78370W        W39659   1.805  22.730  14.448
78371W        W39660  22.149  25.092  14.482
78372W        W39661  15.266  10.285   4.781
78373W        W39662  18.770  17.671  13.515
78374W        W39663   9.713   1.875   1.402
78375W        W39664  22.190   7.705  14.390
78376W        W39665  30.019  19.097   3.662
78377W        W39666  18.631  20.704   4.309
78378W        W39667  23.610  27.630   3.685
78379W        W39668  35.474  32.446  12.366
78380W        W39669  15.714  13.618   2.390
78381W        W39670   5.809  40.336  10.408
78382W        W39671  14.731  14.634  10.433
78383W        W39672   1.736  40.846   0.395
78384W        W39673  10.319  21.234  13.474
78385W        W39674  14.159  21.696   3.336
78386W        W39675   7.778  40.499   2.415
78387W        W39676   3.729   4.289  12.946
78388W        W39677   6.750  18.293  14.277
78389W        W39678  32.531  21.680   0.824
78390W        W39679   8.296  30.947  12.446
78391W        W39680  16.083   8.787   4.249
78392W        W39681  22.108   2.962  13.973
78393W        W39682  25.194  31.947  14.383
78394W        W39683  43.417   1.278  14.887
78395W        W39684  20.687  12.303   4.247
78396W        W39685  38.404  36.537  13.904
78397W        W39686  22.071   6.853  12.386
78398W        W39687  31.998  28.631  12.405
78399W        W39688  23.679  32.499  12.993
78400W        W39689  34.415  23.552   1.890
78401W        W39690  37.578  31.575   2.827
78402W        W39691  15.593  21.124   0.771
78403W        W39692  35.996  18.059   3.385
78404W        W39693  25.998  31.974  13.535
78405W        W39694   0.916   6.824  14.376
78406W        W39695  44.919  12.325   4.185
78407W        W39696   5.923  32.006   0.884
78408W        W39697  32.602  44.860   3.198
78409W        W39698  25.011  33.066  14.026
78410W        W39699  33.075  18.678   1.355
78411W        W39700  25.117   9.370   1.320
78412W        W39701   4.904   6.829  13.363
78413W        W39702  38.911   8.312   2.858
78414W        W39703  15.139  35.070   4.801
78415W        W39704  27.131  37.503  10.907
78416W        W39705  23.182  10.248   0.314
78417W        W39706  11.733  20.569  14.786
78418W        W39707  24.057  23.714   0.857
78419W        W39708  21.138  38.430  12.461
78420W        W39709  22.192  38.072   2.789
78421W        W39710  39.834   2.830  14.489
78422W        W39711  36.386  10.146   1.435
78423W        W39712  29.928  41.462   1.918
78424W        W39713  39.967  36.081   4.833
78425W        W39714   8.740  15.591  11.462
78426W        W39715  39.878  39.814  11.419
78427W        W39716   9.274  19.733  11.018
78428W        W39717  42.913  26.631   3.324
78429W        W39718   4.925   6.818  12.980
78430W        W39719  40.509  10.735  11.986
78431W        W39720  28.071  37.961  12.483
78432W        W39721  37.083  13.647  11.512
78433W        W39722  30.653  14.263   5.272
78434W        W39723  44.329   1.287  11.495
78435W        W39724  18.759   1.430   1.816
78436W        W39725  31.509  25.611  11.106
78437W        W39726  38.407  22.745   1.793
78438W        W39727  42.834   7.724  14.398
78439W        W39728  35.426  29.924   0.321
78440W        W39729  35.064   7.884  11.015
78441W        W39730  10.205  39.916  11.938
78442W        W39731  26.089  26.071   0.828
78443W        W39732   9.347  39.544  11.423
78444W        W39733   3.709  30.437   0.378
78445W        W39734  22.651  43.402  12.990
78446W        W39735  17.249  19.074   0.788
78447W        W39736   8.243  24.507  11.604
78448W        W39737  13.823  19.650  11.498
78449W        W39738  43.475   2.891  14.393
78450W        W39739  44.000   9.819  12.046
78451W        W39740  12.223  39.509   4.251
78452W        W39741  23.079  41.497  13.469
78453W        W39742   6.201   1.760  11.997
78454W        W39743  30.032  40.859  12.935
78455W        W39744  37.533  32.899   3.864
78456W        W39745  28.489   7.796   2.304
78457W        W39746  21.244  11.207  12.369
78458W        W39747  43.478   8.801   2.857
78459W        W39748  37.427   6.914   3.824
78460W        W39749  18.139  36.480   2.733
78461W        W39750  43.964  21.586  10.585
78462W        W39751  27.675  43.490  11.009
78463W        W39752  40.043  12.721   4.636
78464W        W39753  41.010  40.050  14.917
78465W        W39754  39.368   9.850   0.943
78466W        W39755   1.465  41.366  14.805
78467W        W39756  24.712  17.113   4.608
78468W        W39757  36.993   4.759  12.515
78469W        W39758  22.088  42.013  14.357
78470W        W39759   1.827   7.834   3.809
78471W        W39760  44.854   4.301  12.356
78472W        W39761  10.384  20.191   4.649
78473W        W39762  26.113  19.605   3.752
78474W        W39763  28.450  42.475   1.756
78475W        W39764  25.098  19.709   2.182
78476W        W39765  11.286   3.918   0.727
78477W        W39766   1.313   8.256  14.939
78478W        W39767  32.619  17.796   0.483
78479W        W39768  12.230  34.917   0.963
78480W        W39769  35.395  25.470  11.055
78481W        W39770  24.142  25.656   1.441
78482W        W39771  37.014  43.422   3.867
78483W        W39772  16.745  17.196   0.270
78484W        W39773  39.945  18.163   0.868
78485W        W39774   9.709   6.266  13.378
78486W        W39775  27.584  42.388  12.886
78487W        W39776   6.697  30.972   1.816
78488W        W39777  21.178  38.356  12.953
78489W        W39778   7.413  42.966   3.711
78490W        W39779  34.889  34.564   0.350
78491W        W39780  33.047   8.371   0.740
78492W        W39781  32.113  35.600  12.010
78493W        W39782  43.358   3.337  14.968
78494W        W39783  44.489  23.052   1.239
78495W        W39784  24.110  44.943  14.963
78496W        W39785   8.200   0.960  10.567
78497W        W39786   1.845  43.016   5.158
78498W        W39787  39.818  13.633   4.217
78499W        W39788  13.690  18.617  13.465
78500W        W39789  37.379  35.508  10.462
78501W        W39790   7.280  32.442  10.418
78502W        W39791  19.075  11.721  12.998
78503W        W39792  38.873  36.967   4.185
78504W        W39793  29.618  32.032   4.154
78505W        W39794   2.267   7.714   3.692
78506W        W39795   1.310  32.452  10.895
78507W        W39796  31.613   9.349   4.241
78508W        W39797   4.248  36.891  11.984
78509W        W39798  23.146   6.220   2.705
78510W        W39799  26.083  32.561   3.151
78511W        W39800  27.029  36.394   0.750
78512W        W39801  12.189  43.957  13.500
78513W        W39802  21.085  17.574  13.454
78514W        W39803  19.091  42.927  11.978
78515W        W39804   4.350  10.779  11.976
78516W        W39805  28.554  17.590  14.990
78517W        W39806  12.763   9.220   1.278
78518W        W39807  41.297  31.626   1.301
78519W        W39808  40.905   3.331   3.830
78520W        W39809  37.474  41.820   1.732
78521W        W39810  44.890  10.812   4.318
78522W        W39811   4.263   4.826   3.382
78523W        W39812  39.894  35.975  13.544
78524W        W39813   8.242   6.753   0.756
78525W        W39814   6.241  33.984   4.733
78526W        W39815   6.265  20.258  10.635
78527W        W39816  39.996  16.636   1.418
78528W        W39817  26.972  41.861   3.771
78529W        W39818  29.088  37.850  12.486
78530W        W39819  10.251   6.303   0.421
78531W        W39820  24.000  42.929   0.441
78532W        W39821  14.255  16.104   3.304
78533W        W39822  18.106   0.333   0.932
78534W        W39823  17.244  35.424  12.425
78535W        W39824   7.253  27.533   4.140
78536W        W39825  21.691  17.196   2.755
78537W        W39826  16.217  18.260  12.014
78538W        W39827   8.692  34.615  13.846
78539W        W39828  37.456  11.295  14.942
78540W        W39829   2.297  29.516   3.763
78541W        W39830   9.810  35.478  12.430
78542W        W39831  12.853  21.730   9.995
78543W        W39832   3.284  19.562  13.459
78544W        W39833  12.129  18.782   1.249
78545W        W39834  26.542  43.846  14.473
78546W        W39835  42.990  10.333   2.874
78547W        W39836  32.483  16.685  14.320
78548W        W39837  33.584   0.907  14.398
78549W        W39838  38.964  17.737  14.463
78550W        W39839  32.495  27.551   3.707
78551W        W39840   5.860  36.931   0.397
78552W        W39841  18.753  14.666  12.448
78553W        W39842  42.832  33.530   2.366
78554W        W39843   1.373  23.594   4.190
78555W        W39844  20.735  19.538   2.734
78556W        W39845  41.818  17.096   5.242
78557W        W39846  12.348  33.611   0.940
78558W        W39847  29.558  18.743   1.754
78559W        W39848   4.398  38.828  10.424
78560W        W39849  13.833  41.853  14.312
78561W        W39850  27.679   1.803   0.382
78562W        W39851   9.330  33.098  11.964
78563W        W39852  39.997  31.120  14.507
78564W        W39853  44.500  29.465   3.668
78565W        W39854  21.726  22.233  12.464
78566W        W39855   3.718   1.764   4.600
78567W        W39856  28.512   8.713   2.669
78568W        W39857   3.926  22.080  12.825
78569W        W39858  31.071  36.886  10.513
78570W        W39859   9.239  27.174   9.588
78571W        W39860   8.273  33.592  11.976
78572W        W39861   8.822  16.231  14.503
78573W        W39862  38.070  20.674   4.678
78574W        W39863  31.604  39.045  13.891
78575W        W39864  18.084  31.121  14.870
78576W        W39865   7.386  32.636   1.829
78577W        W39866  19.724  17.148  14.430
78578W        W39867  19.138   2.781   3.770
78579W        W39868   6.862  15.726   1.384
78580W        W39869  20.580   7.910   4.671
78581W        W39870   0.916  24.531   3.844
78582W        W39871  32.038  33.505  14.367
78583W        W39872  32.535   7.789   4.688
78584W        W39873   7.793  37.441   1.721
78585W        W39874  24.497  12.744   0.902
78586W        W39875   0.938   7.807  12.953
78587W        W39876  33.554  39.995  11.390
78588W        W39877  30.124  19.540   1.377
78589W        W39878  35.948   7.403   4.154
78590W        W39879  31.537  41.888  14.306
78591W        W39880   5.239  37.514   2.269
78592W        W39881  10.694  37.493  11.383
78593W        W39882   8.284   4.755  12.430
78594W        W39883  16.194  13.721   2.781
78595W        W39884  30.152  38.071  11.897
78596W        W39885  43.965   0.824  12.576
78597W        W39886  43.462  27.090   0.302
78598W        W39887  18.064   1.849   3.228
78599W        W39888  12.774  11.174  11.575
78600W        W39889   7.397  11.280  13.848
78601W        W39890   0.267  42.915  14.938
78602W        W39891  36.928  11.262  12.913
78603W        W39892  40.925   5.840   3.331
78604W        W39893  15.147  12.802   3.315
78605W        W39894  14.752  31.536   1.260
78606W        W39895  41.952  30.137  12.918
78607W        W39896   2.772  39.460   2.387
78608W        W39897  31.551  42.793   3.324
78609W        W39898  11.637  14.283   4.193
78610W        W39899  33.618  36.047  14.467
78611W        W39900   1.333   7.874   1.810
78612W        W39901  22.035  41.849   1.907
78613W        W39902  40.917  40.047  10.951
78614W        W39903  41.383  32.052   2.359
78615W        W39904  27.054  34.024  11.587
78616W        W39905  34.580  31.402  11.883
78617W        W39906  40.535  24.117   2.412
78618W        W39907  36.554  22.043  14.923
78619W        W39908  41.793  44.499  14.986
78620W        W39909  12.356  31.443  10.466
78621W        W39910  29.038  28.949   4.770
78622W        W39911  34.585  22.137   2.217
78623W        W39912  30.911  19.063   3.645
78624W        W39913  29.589  37.356   3.265
78625W        W39914  24.643  17.280   3.372
78626W        W39915  28.185  11.764   3.255
78627W        W39916  23.216  14.293  10.892
78628W        W39917  22.552  15.151  13.994
78629W        W39918   7.335   5.745   4.250
78630W        W39919  30.941   6.346   3.370
78631W        W39920  44.903   4.359   1.248
78632W        W39921   1.297  35.017   4.686
78633W        W39922  37.926   1.861   5.281
78634W        W39923  43.328   4.244  13.950
78635W        W39924  23.668   2.828   3.685
78636W        W39925  20.643  37.409  10.470
78637W        W39926   0.285  24.048  13.949
78638W        W39927  43.904  17.170  14.828
78639W        W39928  24.154  23.607  12.505
78640W        W39929  30.063  23.063   1.793
78641W        W39930  17.129  44.805   4.724
78642W        W39931  32.112   0.834  12.536
78643W        W39932  26.179  34.935   3.343
78644W        W39933  35.560  31.553   3.676
78645W        W39934  15.313   3.801  12.848
78646W        W39935  28.582  12.657   0.744
78647W        W39936  32.398  35.983  11.039
78648W        W39937   9.679  20.152   2.698
78649W        W39938   5.863   0.480  14.953
78650W        W39939  25.528  35.968  11.921
78651W        W39940  36.580   3.364  10.970
78652W        W39941  32.547  30.133   0.291
78653W        W39942  22.107   5.292   3.679
78654W        W39943  35.921   2.348  12.952
78655W        W39944  42.826   8.295  14.789
78656W        W39945  29.468   5.390  11.856
78657W        W39946  13.639  11.788   4.775
78658W        W39947  40.304   9.789   2.278
78659W        W39948  32.497  18.587  12.487
78660W        W39949   0.492  32.413   0.855
78661W        W39950  21.693  38.545   4.807
78662W        W39951  43.797  21.140   1.790
78663W        W39952  18.253  41.877  12.565
78664W        W39953  38.855  17.800   3.697
78665W        W39954  44.343  30.948  12.827
78666W        W39955  23.156  17.633  14.420
78667W        W39956  12.272  35.405  13.544
78668W        W39957  35.910   6.187   1.928
78669W        W39958  23.086   8.335  14.293
78670W        W39959   9.849  22.026   1.834
78671W        W39960  34.561  39.904  10.945
78672W        W39961  36.870  30.061   0.756
78673W        W39962  41.895  10.341  10.069
78674W        W39963  38.326   3.311   2.865
78675W        W39964  38.075  26.688  13.991
78676W        W39965  23.548   6.201   1.425
78677W        W39966  26.108  12.799   2.363
78678W        W39967  43.010  22.242   4.282
78679W        W39968   5.297  10.703   3.280
78680W        W39969  14.805  12.339   2.870
78681W        W39970  16.215  11.673  14.479
78682W        W39971  31.048  36.872  12.538
78683W        W39972  22.623   8.843   3.291
78684W        W39973  38.391   4.925   0.853
78685W        W39974  15.310  16.716  12.022
78686W        W39975  33.001  18.632  11.500
78687W        W39976  43.876  24.169   2.721
78688W        W39977   4.402  32.551   1.335
78689W        W39978  29.960  38.571  13.892
78690W        W39979  18.135  28.016  11.547
78691W        W39980  40.402  43.394   3.760
78692W        W39981  26.689   5.391   2.390
78693W        W39982  18.205  39.319   2.803
78694W        W39983  37.393  38.332   1.822
78695W        W39984  13.786  28.937   1.708
78696W        W39985  20.546  44.790  12.514
78697W        W39986   5.291  38.383  11.436
78698W        W39987   6.204   8.807   4.615
78699W        W39988   9.220   8.789   1.822
78700W        W39989  39.533   0.363  14.282
78701W        W39990  13.256  36.354  13.389
78702W        W39991  15.329  17.772   0.338
78703W        W39992  10.740  36.974   4.230
78704W        W39993  19.610  34.508  12.830
78705W        W39994  33.130  23.233   2.903
78706W        W39995  40.008  19.237   5.103
78707W        W39996   3.710  18.130  11.374
78708W        W39997   1.867  16.769   3.792
78709W        W39998  20.097   4.338   4.648
78710W        W39999  23.564  14.303  13.456
78711W        W40000  15.256  13.318   3.711
78712W        W40001  17.689   0.379   3.758
78713W        W40002  27.692  30.969  12.397
78714W        W40003  31.527  38.470   0.469
78715W        W40004  33.116  17.193   0.774
78716W        W40005   6.683   4.849  13.403
78717W        W40006   2.771  44.924  14.322
78718W        W40007  23.673   6.846  13.869
78719W        W40008  32.419  16.253   1.930
78720W        W40009  14.156  27.637  10.994
78721W        W40010  38.514  34.584   2.745
78722W        W40011  12.614  14.669   0.442
78723W        W40012  30.034  26.682   4.300
78724W        W40013  35.927   3.277  13.479
78725W        W40014  17.231   6.848  10.991
78726W        W40015  43.820  21.158   5.133
78727W        W40016  14.775  31.995   0.768
78728W        W40017   8.384  16.579  14.313
78729W        W40018  13.186  38.031  12.429
78730W        W40019  41.004  24.532   3.653
78731W        W40020   2.244  14.172  13.450
78732W        W40021   0.360   5.801  14.293
78733W        W40022  42.016  38.991  10.556
78734W        W40023  19.718  33.536   0.363
78735W        W40024  28.960  17.765  14.288
78736W        W40025   0.418  15.775  11.392
78737W        W40026  18.241  11.335  10.575
78738W        W40027  26.195  13.667  14.824
78739W        W40028  38.432  11.270   0.329
78740W        W40029  42.381  23.635  13.932
78741W        W40030   9.772   9.761  13.346
78742W        W40031  39.818  14.589   4.155
78743W        W40032  42.419  27.165   4.659
78744W        W40033  22.145  21.070   0.383
78745W        W40034  42.879  28.172   5.101
78746W        W40035  11.157  24.069   2.727
78747W        W40036  15.589  31.520  10.624
78748W        W40037  12.767  11.741  10.563
78749W        W40038  14.830  18.077  10.524
78750W        W40039  31.460  18.704   1.889
78751W        W40040  17.635  33.013   0.350
78752W        W40041  20.049  16.701   0.337
78753W        W40042   4.740  41.002   2.798
78754W        W40043  40.437  11.141  14.810
78755W        W40044  18.139  30.949  10.908
78756W        W40045  14.108  10.340  12.385
78757W        W40046  33.600  27.483   3.729
78758W        W40047   3.390  29.586  13.397
78759W        W40048  26.578  12.734  10.458
78760W        W40049  24.007   0.459   2.747
78761W        W40050  11.301  37.856  14.954
78762W        W40051  25.207  34.398   2.354
78763W        W40052  30.138  27.095  12.529
78764W        W40053   4.708  34.601  10.085
78765W        W40054  40.044  22.093   3.251
78766W        W40055  22.176  20.125  11.445
78767W        W40056   8.170  25.607   0.478
78768W        W40057   3.938  29.538  11.965
78769W        W40058  37.966  10.209   2.279
78770W        W40059   3.366   1.802   4.351
78771W        W40060  24.546  14.593  13.444
78772W        W40061  18.629  16.578  12.365
78773W        W40062   0.912  29.022  14.453
78774W        W40063  26.971  26.496  14.886
78775W        W40064  28.157  26.469   0.750
78776W        W40065  27.463  38.379  10.599
78777W        W40066  44.912  22.126   0.860
78778W        W40067  26.659   0.389   0.880
78779W        W40068  25.590  20.203   2.249
78780W        W40069   5.852  42.032   4.305
78781W        W40070  28.097  20.232   2.186
78782W        W40071  11.132  43.329   5.622
78783W        W40072   0.401  38.479  11.442
78784W        W40073  15.324   6.683  10.437
78785W        W40074  35.480  36.971  13.824
78786W        W40075  35.898  41.351   0.375
78787W        W40076   9.239  24.640   4.338
78788W        W40077  32.892   1.949  14.324
78789W        W40078  35.580  42.829   4.154
78790W        W40079   8.901  24.188   3.720
78791W        W40080  27.960   1.286  10.632
78792W        W40081  33.410   0.814   4.311
78793W        W40082  31.437  17.088  11.902
78794W        W40083  33.054  24.004   3.206
78795W        W40084  25.981  27.183  14.365
78796W        W40085  44.322  20.131   2.821
78797W        W40086   5.251  14.252  13.351
78798W        W40087  15.608   8.709  11.564
78799W        W40088   3.924  28.124   4.699
78800W        W40089  10.344  17.780  14.357
78801W        W40090  10.769  29.120  11.581
78802W        W40091   7.764   1.888  13.975
78803W        W40092  17.146  15.699   0.291
78804W        W40093  43.382  13.842   0.431
78805W        W40094  12.210   0.919   2.310
78806W        W40095  22.171  20.623  10.586
78807W        W40096  28.935  14.253  14.289
78808W        W40097   6.729  30.636  12.441
78809W        W40098  27.551  22.735   0.957
78810W        W40099  34.602  38.490  13.826
78811W        W40100  35.047  39.992  13.382
78812W        W40101  23.578  14.304   0.250
78813W        W40102  43.860  15.804   1.796
78814W        W40103   2.767  21.050   3.228
78815W        W40104  32.964  14.796  14.948
78816W        W40105  39.365  34.111  11.926
78817W        W40106  13.739   7.719   2.247
78818W        W40107   1.960   8.889   2.684
78819W        W40108  28.632  30.481   3.361
78820W        W40109  43.954  29.149   4.699
78821W        W40110  16.631   7.407   0.377
78822W        W40111   8.355  27.511  13.455
78823W        W40112  13.177  19.680   3.732
78824W        W40113  17.219  15.713  11.592
78825W        W40114   4.777  44.009  13.944
78826W        W40115  12.726  32.528  14.796
78827W        W40116  39.479  30.417   0.335
78828W        W40117  20.754  36.923   2.879
78829W        W40118   2.962  31.122  10.493
78830W        W40119  41.016  38.874  14.874
78831W        W40120   6.358  42.974  11.445
78832W        W40121  36.486  42.410  14.449
78833W        W40122  28.161   1.392   1.820
78834W        W40123   8.861  25.116   3.266
78835W        W40124   7.738   9.384  14.339
78836W        W40125  34.092   3.939   2.355
78837W        W40126   9.251   1.783  12.496
78838W        W40127   8.780   0.388  12.870
78839W        W40128   3.918  26.693   4.760
78840W        W40129  33.532  41.326  13.459
78841W        W40130  32.578   6.700  12.848
78842W        W40131   5.209   4.744   2.404
78843W        W40132  14.310  27.631  13.922
78844W        W40133  33.595   7.752   2.889
78845W        W40134  34.465  43.379   0.813
78846W        W40135  14.120   2.839  13.951
78847W        W40136  40.480  21.258  11.582
78848W        W40137  35.400  40.848  12.878
78849W        W40138  44.909  14.799   4.659
78850W        W40139  15.600   4.435   1.929
78851W        W40140  19.679  24.502  12.562
78852W        W40141  19.056  35.455  10.482
78853W        W40142  38.951  15.792   0.851
78854W        W40143  29.935  11.636   3.781
78855W        W40144  16.693  26.150  13.998
78856W        W40145   8.205  41.836  10.639
78857W        W40146  37.851  31.986  11.457
78858W        W40147  13.733  38.964   1.807
78859W        W40148   1.909  38.877  13.956
78860W        W40149  13.288  43.289   4.280
78861W        W40150  39.831  30.484  10.568
78862W        W40151   3.895  16.265   4.180
78863W        W40152   0.872  32.022  12.471
78864W        W40153  18.657  27.689   0.409
78865W        W40154  34.876  10.695   2.308
78866W        W40155  28.944  33.559  11.931
78867W        W40156  26.590  26.548   0.850
78868W        W40157  35.090   4.941   1.231
78869W        W40158  11.222  36.087   4.599
78870W        W40159  25.617   0.481  11.971
78871W        W40160  42.312  17.748  11.912
78872W        W40161  41.430   4.352   4.744
78873W        W40162  34.999  39.866  10.941
78874W        W40163  18.051  12.697  13.958
78875W        W40164  13.315  15.141  13.921
78876W        W40165  24.123   3.840   4.323
78877W        W40166  21.758  22.668  11.961
78878W        W40167   6.258   3.250  10.599
78879W        W40168  31.085  23.563  11.069
78880W        W40169   4.261  10.658  12.442
78881W        W40170  23.087  36.527   4.735
78882W        W40171   3.453   2.859  12.067
78883W        W40172   6.821  14.608  14.893
78884W        W40173  10.321  35.935   3.150
78885W        W40174  13.122  10.274  14.289
78886W        W40175  41.013  29.011   2.305
78887W        W40176  40.513  17.079  12.966
78888W        W40177  34.520  42.444   1.219
78889W        W40178  43.362  41.842   1.268
78890W        W40179  31.145  33.423  14.979
78891W        W40180  21.615  25.219   0.946
78892W        W40181  15.588   7.310   1.319
78893W        W40182  39.010  34.394   1.756
78894W        W40183  16.144  10.213  10.457
78895W        W40184  26.502  19.535   3.190
78896W        W40185   0.968   0.417   0.427
78897W        W40186  42.287  36.971   2.310
78898W        W40187  10.726   9.795  13.535
78899W        W40188  39.431  14.827  11.441
78900W        W40189  19.258   1.892   4.255
78901W        W40190   0.456  16.213  14.459
78902W        W40191   7.389   6.399   0.822
78903W        W40192  33.045  36.350   0.355
78904W        W40193  14.726   4.292  10.558
78905W        W40194  40.502  19.693  14.981
78906W        W40195   2.381  42.915  13.514
78907W        W40196  23.594  29.123   2.256
78908W        W40197   4.319   1.412   4.630
78909W        W40198   4.925   0.889  13.829
78910W        W40199   3.459  43.494   4.721
78911W        W40200  37.073  18.584   1.917
78912W        W40201  33.052  19.192  10.936
78913W        W40202  41.014  27.083  12.403
78914W        W40203  44.774   3.308  12.412
78915W        W40204  11.173  40.499  11.116
78916W        W40205  29.439   4.402  12.576
78917W        W40206  38.819  42.452   2.268
78918W        W40207  25.031  23.203  13.022
78919W        W40208  38.911  40.410  13.935
78920W        W40209  21.555  34.974   2.862
78921W        W40210   4.386   9.241  10.421
78922W        W40211  16.084  24.604   9.509
78923W        W40212  27.050  34.900   4.261
78924W        W40213   1.254  13.254  13.815
78925W        W40214  35.936  36.399  10.516
78926W        W40215  11.743  20.618  13.826
78927W        W40216   5.338  17.560   1.926
78928W        W40217  39.364  20.607   3.334
78929W        W40218  22.513   9.651  13.018
78930W        W40219  31.420  14.700   4.242
78931W        W40220  41.962  31.464  13.474
78932W        W40221  41.329  29.461   4.289
78933W        W40222  11.798  38.938  11.958
78934W        W40223  37.967   0.863  14.028
78935W        W40224   9.339  19.660   1.305
78936W        W40225   3.791  18.710   2.186
78937W        W40226   9.232  30.549   0.883
78938W        W40227  41.954  15.657   2.402
78939W        W40228  44.826  37.581   4.140
78940W        W40229  34.563  21.617  13.826
78941W        W40230  20.140  12.737  11.381
78942W        W40231  16.568  33.621  13.533
78943W        W40232   6.385  20.204   2.359
78944W        W40233  38.521  36.517  12.890
78945W        W40234  13.786   4.811   4.666
78946W        W40235  33.119  28.951   4.747
78947W        W40236  36.859   4.753  12.913
78948W        W40237  30.106   3.353   4.773
78949W        W40238  39.810  42.980  14.338
78950W        W40239  16.319   0.769   1.780
78951W        W40240  35.862   8.364  13.463
78952W        W40241  42.406   4.266   0.476
78953W        W40242  22.734  40.503  14.421
78954W        W40243   9.321  23.729   1.422
78955W        W40244  36.454   1.777  13.887
78956W        W40245  37.838  10.833   1.860
78957W        W40246  10.364   2.241  13.970
78958W        W40247  27.595  32.636   2.835
78959W        W40248  13.333   8.699  11.577
78960W        W40249   8.398  31.581   1.261
78961W        W40250  30.991   6.397  13.856
78962W        W40251  20.031  38.915   2.681
78963W        W40252  30.633  14.110  11.006
78964W        W40253   6.790   2.313  12.865
78965W        W40254  44.457  40.043  12.407
78966W        W40255  30.433  30.155  12.483
78967W        W40256  33.397   4.905  12.946
78968W        W40257  31.073  29.102   1.710
78969W        W40258  24.506  23.058  12.882
78970W        W40259  31.899  24.162   3.851
78971W        W40260  13.310  12.339   2.823
78972W        W40261   2.821  39.959  12.463
78973W        W40262  17.140  28.087  14.014
78974W        W40263  26.989  30.579  13.488
78975W        W40264  44.831  13.253   0.449
78976W        W40265  35.576  12.306  14.007
78977W        W40266  40.870  24.015   2.267
78978W        W40267  26.078  42.455   2.387
78979W        W40268   7.878  29.598  13.469
78980W        W40269  26.556  17.063   3.317
78981W        W40270  17.778  30.628   2.853
78982W        W40271   0.459  12.848   4.604
78983W        W40272  12.142  17.096   4.183
78984W        W40273   6.916  42.330  13.988
78985W        W40274  44.838   3.431  11.002
78986W        W40275  23.001  22.507  11.491
78987W        W40276  28.522  39.438   4.143
78988W        W40277  24.200  34.963  11.856
78989W        W40278  26.186  18.743   1.771
78990W        W40279  16.196  36.981   1.701
78991W        W40280   9.883  28.630  13.860
78992W        W40281   3.321   7.398   3.725
78993W        W40282  16.708   8.221  11.503
78994W        W40283  12.286  15.279   1.714
78995W        W40284   0.840   1.828   2.338
78996W        W40285  40.341   1.875   3.267
78997W        W40286  17.598  10.751  12.087
78998W        W40287  23.673  31.013  12.904
78999W        W40288  20.625   9.185  10.498
79000W        W40289  43.513  15.681  10.481
79001W        W40290  33.946  25.177  14.955
79002W        W40291  33.390  32.584  13.399
79003W        W40292   1.850  25.620   3.811
79004W        W40293  42.937   8.159  11.027
79005W        W40294  14.224  18.151  11.567
79006W        W40295  10.804  14.673  10.496
79007W        W40296   7.285  12.294  14.860
79008W        W40297   0.329  38.550   2.199
79009W        W40298  17.735  24.213   3.372
79010W        W40299  22.744  41.311  11.970
79011W        W40300  24.144  16.274  14.341
79012W        W40301  20.151  43.378  10.913
79013W        W40302   6.819  35.392   2.360
79014W        W40303  19.622   9.701   1.291
79015W        W40304  38.059  11.799   0.439
79016W        W40305  42.974  32.940  14.274
79017W        W40306   7.879  36.353   2.681
79018W        W40307  42.880  43.296   1.285
79019W        W40308  14.625  10.148  11.998
79020W        W40309  29.046   5.402  14.327
79021W        W40310  12.296   9.754  13.929
79022W        W40311  15.717  41.014   1.419
79023W        W40312  16.253  24.991   3.785
79024W        W40313  28.019  19.550  10.942
79025W        W40314  16.280  35.867   3.334
79026W        W40315   8.303  37.951  11.989
79027W        W40316  28.095  40.397  14.771
79028W        W40317   3.808  12.330   4.796
79029W        W40318  30.422   9.229  14.998
79030W        W40319  42.518   2.936  13.952
79031W        W40320  12.771  31.435  11.566
79032W        W40321  10.279  38.873   1.755
79033W        W40322  19.780  11.129  13.886
79034W        W40323  40.935  32.907   3.354
79035W        W40324   8.361  26.179  13.046
79036W        W40325  39.321  10.374  11.008
79037W        W40326  20.544  30.619  12.547
79038W        W40327  37.465   6.364  12.077
79039W        W40328   7.904  27.666   3.751
79040W        W40329  33.035   4.423   1.438
79041W        W40330  41.923  35.496   0.430
79042W        W40331  34.082  41.991   3.793
79043W        W40332  32.955   5.707  13.530
79044W        W40333  27.492  20.267  12.876
79045W        W40334  19.772   2.389   1.303
79046W        W40335  42.793  32.458   1.215
79047W        W40336  33.606  24.666  13.512
79048W        W40337  14.187  39.911  11.912
79049W        W40338  30.441   8.242   1.930
79050W        W40339  37.943   7.297   2.282
79051W        W40340  22.243   3.219   5.260
79052W        W40341  26.035  42.319  12.044
79053W        W40342  20.140   6.349   2.891
79054W        W40343  19.723  22.699  11.998
79055W        W40344  37.978  41.956  10.538
79056W        W40345  30.474   9.226   0.963
79057W        W40346  25.605  19.271   2.239
79058W        W40347  11.243  15.328   2.713
79059W        W40348  30.919   1.472   1.220
79060W        W40349   1.762  37.467  12.877
79061W        W40350  37.061   6.682   0.814
79062W        W40351   4.817  31.028  11.054
79063W        W40352  20.076   1.454  14.346
79064W        W40353  35.926   5.700   1.234
79065W        W40354  13.192  39.031   1.864
79066W        W40355   6.892  31.462  11.025
79067W        W40356   7.725  43.859   2.335
79068W        W40357  39.445   1.389  11.986
79069W        W40358  32.978  32.599   1.283
79070W        W40359  14.285  18.154  12.914
79071W        W40360  19.231  12.192   2.764
79072W        W40361  22.239  31.039   2.377
79073W        W40362   9.238   8.879  10.452
79074W        W40363  40.909  28.075   4.622
79075W        W40364  35.874   7.329  10.923
79076W        W40365   4.319  31.509   2.837
79077W        W40366  32.121  35.088  14.500
79078W        W40367  19.256  43.018   1.375
79079W        W40368  44.970  38.066  10.968
79080W        W40369   5.339   3.891   0.455
79081W        W40370  15.190   9.283  10.447
79082W        W40371  30.531   2.264   0.833
79083W        W40372  29.018   5.900  12.491
79084W        W40373   7.751  33.050  10.139
79085W        W40374  16.274  27.632  10.970
79086W        W40375  11.702  37.370  11.523
79087W        W40376  33.385   1.865  10.946
79088W        W40377   7.696  38.825   1.258
79089W        W40378  42.961  35.856   2.277
79090W        W40379   9.180  41.527   4.271
79091W        W40380   4.939  29.464   3.834
79092W        W40381   4.415  19.655  11.923
79093W        W40382  29.018  35.104  13.409
79094W        W40383  21.581  19.215  11.372
79095W        W40384  16.804  18.660  11.611
79096W        W40385  18.650   5.901  13.357
79097W        W40386  17.649  20.246  10.997
79098W        W40387   3.907   1.264   3.723
79099W        W40388  26.124  21.117   4.293
79100W        W40389   7.292  15.663  14.984
79101W        W40390   0.350  23.588   0.412
79102W        W40391  30.632  10.297  12.539
79103W        W40392   4.374  34.974  13.311
79104W        W40393  19.596   8.390  14.802
79105W        W40394  29.595  22.048   3.190
79106W        W40395   8.876  24.578  13.441
79107W        W40396  34.927   9.390   1.445
79108W        W40397   0.792  32.556   0.755
79109W        W40398  24.526   6.366   1.745
79110W        W40399  39.535  17.185   2.236
79111W        W40400  31.926  36.093  11.459
79112W        W40401  34.510   5.735   1.255
79113W        W40402  12.660  28.939  11.902
79114W        W40403  23.169  44.909  13.003
79115W        W40404   0.316   7.864   0.844
79116W        W40405   9.164  32.520   3.319
79117W        W40406  28.531  36.043  14.278
79118W        W40407  26.126  31.006  12.015
79119W        W40408  40.396   4.930  13.018
79120W        W40409  36.855  44.786  10.537
79121W        W40410  14.834   4.755  10.507
79122W        W40411  33.066  18.628   0.403
79123W        W40412  38.835  12.357  12.048
79124W        W40413  27.074   6.765  12.529
79125W        W40414  35.568   4.371   3.679
79126W        W40415  43.837  38.540  10.898
79127W        W40416  31.599  22.633  10.898
79128W        W40417  25.968  23.579   0.429
79129W        W40418  32.442  33.126  11.537
79130W        W40419  19.777  16.602  12.903
79131W        W40420  14.230  27.502  11.456
79132W        W40421   3.347  19.220   2.178
79133W        W40422  44.368  21.636  12.005
79134W        W40423   3.345  15.641  14.948
79135W        W40424  15.299  37.507   2.870
79136W        W40425  40.477  13.601  13.367
79137W        W40426  21.051   5.721  10.120
79138W        W40427   8.194  10.301   3.173
79139W        W40428  22.611  29.948  14.433
79140W        W40429  18.598  36.358   4.340
79141W        W40430  13.173  40.541   2.888
79142W        W40431   8.759  14.750   0.441
79143W        W40432   2.431  26.688   4.731
79144W        W40433   3.834   3.429   9.930
79145W        W40434   3.281  35.573   1.410
79146W        W40435  20.736  28.598   2.313
79147W        W40436   1.303   9.744  12.402
79148W        W40437  11.709  15.171  11.114
79149W        W40438   6.204  16.722   0.361
79150W        W40439  39.811  38.040   4.205
79151W        W40440  44.439  20.266   4.282
79152W        W40441   0.936   6.244   0.255
79153W        W40442  23.544   3.314   4.818
79154W        W40443  37.852  41.520   5.244
79155W        W40444  22.183   8.806  12.507
79156W        W40445   0.898  31.930   2.411
79157W        W40446  36.876  11.684   1.868
79158W        W40447  23.642  40.399   4.341
79159W        W40448  25.984  32.568  14.483
79160W        W40449  14.806   8.302  10.633
79161W        W40450  10.354   3.391   2.687
79162W        W40451  44.922  35.863  11.077
79163W        W40452  24.147  20.117   4.144
79164W        W40453  16.223  25.663   9.989
79165W        W40454  17.689   4.786   1.313
79166W        W40455   4.784  10.804  12.377
79167W        W40456  14.760  33.491  11.925
79168W        W40457   7.765  42.478   1.864
79169W        W40458   8.780  42.815   0.865
79170W        W40459  36.465   9.777  14.284
79171W        W40460  42.328  17.721   0.734
79172W        W40461  37.953   0.426   2.864
79173W        W40462  35.910  28.442   1.428
79174W        W40463  14.814   6.851   4.620
79175W        W40464  18.068  12.620   4.828
79176W        W40465  26.141  17.185   4.695
79177W        W40466  13.661   5.879  11.959
79178W        W40467  23.728  13.716  11.036
79179W        W40468  40.482  42.410  10.898
79180W        W40469  17.695   8.214  13.802
79181W        W40470   1.948  19.210  13.975
79182W        W40471  32.126   3.303   0.843
79183W        W40472  24.066   1.746  12.068
79184W        W40473  14.650  44.860  10.996
79185W        W40474   8.297   8.209   3.859
79186W        W40475  28.056  11.653  13.923
79187W        W40476  30.163  38.913   1.878
79188W        W40477  16.249   1.850  10.494
79189W        W40478  11.169  14.155  12.457
79190W        W40479  17.647  15.110  10.912
79191W        W40480  24.989  42.893   0.261
79192W        W40481  41.876  32.958   2.675
79193W        W40482  24.080  28.173   2.806
79194W        W40483   4.738  36.037  14.357
79195W        W40484  32.928  15.256  11.402
79196W        W40485  21.690  23.653  14.838
79197W        W40486   3.266  18.212   2.841
79198W        W40487  25.998  34.918  13.313
79199W        W40488  14.773  18.633  14.474
79200W        W40489  33.072  20.139   3.338
79201W        W40490  28.004  15.824   1.776
79202W        W40491  32.435   6.350   3.183
79203W        W40492  39.479   5.288   1.705
79204W        W40493  33.598  40.498   1.310
79205W        W40494  31.495  26.487   1.717
79206W        W40495  12.298   4.799   2.821
79207W        W40496   4.240  23.523  10.994
79208W        W40497  13.142  33.967  10.004
79209W        W40498  15.281  15.651  14.806
79210W        W40499  36.942  29.165   2.805
79211W        W40500   6.246  39.999  10.471
79212W        W40501  21.703   0.280  13.039
79213W        W40502  22.689  42.982   3.298
79214W        W40503  23.006  40.382  13.457
79215W        W40504  37.349  44.318   1.883
79216W        W40505  19.686  11.152   3.319
79217W        W40506  36.053  15.742  10.427
79218W        W40507  26.021   5.371   1.328
79219W        W40508  17.656   8.338   3.162
79220W        W40509   1.476  43.509  11.118
79221W        W40510  13.110  15.289   2.726
79222W        W40511  31.119  28.441  11.012
79223W        W40512  37.890  15.328   9.924
79224W        W40513  11.820  22.550   3.347
79225W        W40514  20.528  22.242   3.650
79226W        W40515  35.945  15.705  14.930
79227W        W40516   0.419  15.328   0.880
79228W        W40517   8.704  21.643   3.788
79229W        W40518  21.645   3.261   3.259
79230W        W40519  20.126  14.206   3.306
79231W        W40520  28.152  42.363   3.640
79232W        W40521  33.114  13.226  13.509
79233W        W40522  31.530  33.396  14.888
79234W        W40523  22.555  13.674  10.519
79235W        W40524  17.213   4.917   2.838
79236W        W40525  44.992  31.011  11.053
79237W        W40526  14.224  42.881  11.929
79238W        W40527  26.095  43.819  12.954
79239W        W40528  40.358  25.132  12.461
79240W        W40529  39.821  41.460  13.411
79241W        W40530  14.752  17.173  13.977
79242W        W40531  41.943  36.067  11.868
79243W        W40532  30.572   9.372   2.871
79244W        W40533   3.382  15.702  11.556
79245W        W40534   6.308  21.579   4.293
79246W        W40535  43.464  10.192   4.245
79247W        W40536  22.577   4.782  11.558
79248W        W40537   3.742  17.713  13.347
79249W        W40538  32.500   4.822   3.685
79250W        W40539  35.968  12.264   3.693
79251W        W40540   3.764   0.396   4.835
79252W        W40541  33.889  44.326  10.061
79253W        W40542   3.711  16.805  14.475
79254W        W40543  27.967  25.594  11.526
79255W        W40544  18.267   7.865   1.246
79256W        W40545   0.357  10.742  14.276
79257W        W40546  28.088  36.973   1.734
79258W        W40547  16.676  31.491  11.522
79259W        W40548   5.798  32.052  13.043
79260W        W40549  38.961   2.892  13.900
79261W        W40550  23.612  33.552   4.717
79262W        W40551  29.552  44.830  13.342
79263W        W40552  36.592  22.516   3.364
79264W        W40553  25.162  37.371   4.198
79265W        W40554   1.959  14.304   2.902
79266W        W40555  37.512  37.838  10.623
79267W        W40556  13.175  18.673   2.769
79268W        W40557  42.507  25.089   3.735
79269W        W40558  35.588  14.655   1.925
79270W        W40559  40.875  33.389   0.825
79271W        W40560  10.147  12.665   1.240
79272W        W40561  36.429   8.253   3.843
79273W        W40562  42.876  31.445   3.728
79274W        W40563  23.095  24.575  14.396
79275W        W40564   2.805   6.424  12.485
79276W        W40565  12.684  22.132   3.702
79277W        W40566   9.785   5.287  13.804
79278W        W40567  25.114   9.384  11.513
79279W        W40568  33.391   9.837  10.150
79280W        W40569   2.776  27.515   3.835
79281W        W40570  32.074  16.129   2.824
79282W        W40571  34.571  27.151   0.849
79283W        W40572  34.898  31.648  11.513
79284W        W40573  36.954  14.098   0.772
79285W        W40574   1.894  15.087   3.806
79286W        W40575  21.693  37.551  14.463
79287W        W40576  32.467  12.686  12.903
79288W        W40577  34.525  10.295   3.666
79289W        W40578   3.716  39.943   2.323
79290W        W40579  11.814  22.150   0.377
79291W        W40580  30.467  18.689  12.895
79292W        W40581  19.625  10.210  11.067
79293W        W40582  22.192  43.993  13.041
79294W        W40583   1.410   9.382  13.407
79295W        W40584  39.010  25.104  11.860
79296W        W40585  29.126  37.888   1.298
79297W        W40586  24.620  11.710   0.837
79298W        W40587  29.993  18.692   1.712
79299W        W40588  21.202   7.909   1.328
79300W        W40589  39.554  40.311   2.735
79301W        W40590  21.626   7.199   0.471
79302W        W40591   1.345  43.457   1.266
79303W        W40592  33.586  29.082   0.312
79304W        W40593  24.189  36.500   2.671
79305W        W40594  37.455  28.560   3.150
79306W        W40595  31.109   0.780  12.072
79307W        W40596  36.490  32.466  13.886
79308W        W40597   8.718  16.214   1.360
79309W        W40598  40.521  32.460   1.835
79310W        W40599  34.014  11.302   3.801
79311W        W40600  21.557  15.700   1.222
79312W        W40601   5.872  23.529   3.750
79313W        W40602   7.901  33.458  13.913
79314W        W40603  43.446  41.413   1.782
79315W        W40604  23.109  41.920  14.336
79316W        W40605  31.072  43.803  10.934
79317W        W40606  23.666  25.561   3.639
79318W        W40607  12.711  27.186   1.861
79319W        W40608  29.064   6.358   0.835
79320W        W40609   9.736  16.127   2.193
79321W        W40610  15.775  10.673  10.571
79322W        W40611   1.921  34.894   0.960
79323W        W40612   3.452  39.915  13.939
79324W        W40613   4.761   2.902  11.569
79325W        W40614  12.218  42.493  13.917
79326W        W40615  42.356  19.587   0.957
79327W        W40616  29.600  35.361  11.954
79328W        W40617  24.183  29.082   4.308
79329W        W40618   5.762  34.029   3.728
79330W        W40619   5.706  35.397   2.225
79331W        W40620   3.442   5.347  12.086
79332W        W40621   9.683   1.420   3.750
79333W        W40622  12.672  31.985  11.396
79334W        W40623  18.253   2.426   1.759
79335W        W40624  32.896  34.035  14.007
79336W        W40625  38.348  28.591   3.672
79337W        W40626  23.685  16.802   2.699
79338W        W40627   1.943  43.301   3.862
79339W        W40628  44.504  25.498   4.608
79340W        W40629  39.345  21.199   4.208
79341W        W40630  33.886   2.446  12.073
79342W        W40631  41.030  17.666  14.807
79343W        W40632  24.978  24.696   0.927
79344W        W40633  32.577  37.343   1.234
79345W        W40634  23.179  15.700  11.092
79346W        W40635  24.636  38.512   3.807
79347W        W40636  40.905  15.204   3.638
79348W        W40637  25.108  27.661   2.728
79349W        W40638  12.654  32.555   1.290
79350W        W40639   8.304  12.313   1.316
79351W        W40640  15.321  13.348   4.186
79352W        W40641  39.323   9.323  11.114
79353W        W40642   4.839  41.397   4.645
79354W        W40643  27.685  16.729  12.960
79355W        W40644  10.820  24.073   1.294
79356W        W40645  10.744  27.638  13.931
79357W        W40646  11.647  14.659   1.285
79358W        W40647  44.893  44.912   0.728
79359W        W40648  39.390   6.260  12.889
79360W        W40649  33.020  21.632  13.328
79361W        W40650  43.459  24.036   3.359
79362W        W40651   2.370  41.485  10.032
79363W        W40652  33.613   5.257   4.321
79364W        W40653  20.764   2.812  11.869
79365W        W40654  17.281  12.354  11.465
79366W        W40655  22.207  34.450   2.408
79367W        W40656  41.487   9.384   0.940
79368W        W40657  35.013  20.101  10.607
79369W        W40658  36.369  43.377   0.480
79370W        W40659  39.899  11.632   1.292
79371W        W40660  19.702  13.684   3.202
79372W        W40661   1.460  43.999  12.937
79373W        W40662  36.858  26.673  11.443
79374W        W40663  32.119  12.274  12.505
79375W        W40664  28.132  33.553  10.919
79376W        W40665  18.073  23.182  12.873
79377W        W40666  13.743  44.823  10.942
79378W        W40667  26.191  18.587   0.445
79379W        W40668  39.936  25.561   0.930
79380W        W40669  10.208  42.974  11.867
79381W        W40670  41.485  36.034  13.470
79382W        W40671  40.340   6.301  14.282
79383W        W40672  27.654  44.988  12.852
79384W        W40673  25.984   2.948  12.913
79385W        W40674   1.864  29.987   0.917
79386W        W40675   1.445  32.502   2.721
79387W        W40676  43.993   9.169  13.355
79388W        W40677   6.867  25.022  11.457
79389W        W40678  12.349  13.344  10.522
79390W        W40679  34.979  38.440  12.544
79391W        W40680  35.466  27.099   0.387
79392W        W40681  38.475  33.546   2.335
79393W        W40682  33.021  17.561   1.706
79394W        W40683   8.802  39.856   0.894
79395W        W40684  26.110   7.392  11.124
79396W        W40685   4.851  20.660  13.510
79397W        W40686  36.962  32.479  12.396
79398W        W40687  43.774  28.624   3.644
79399W        W40688  33.466  16.775   3.710
79400W        W40689  26.186  41.412   2.354
79401W        W40690   6.876  18.655   4.125
79402W        W40691  42.296  29.545   1.384
79403W        W40692  42.970  13.305   3.723
79404W        W40693  35.419  14.755  13.538
79405W        W40694  13.288  36.507  11.917
79406W        W40695  31.412  20.667   0.357
79407W        W40696  12.118  39.030   0.941
79408W        W40697  21.143  14.784   1.404
79409W        W40698  34.571  28.066  14.022
79410W        W40699   5.264   9.857  11.584
79411W        W40700  29.601   0.381   2.201
79412W        W40701   0.283  11.353  12.002
79413W        W40702  19.674  21.629  10.908
79414W        W40703  14.112  23.520  11.509
79415W        W40704   0.774  38.948   4.279
79416W        W40705  33.569  17.162   4.225
79417W        W40706  15.819  37.965   2.232
79418W        W40707   1.377  29.508   3.632
79419W        W40708   8.763  30.003   0.301
79420W        W40709  41.956   5.383  13.937
79421W        W40710  33.526   1.959   4.155
79422W        W40711  28.483  38.825  14.435
79423W        W40712   0.444   1.467   3.636
79424W        W40713  44.873  22.710   3.637
79425W        W40714  11.663   6.238   4.605
79426W        W40715   5.248  31.073  10.520
79427W        W40716  13.670  39.355  14.893
79428W        W40717  18.741  31.541   2.379
79429W        W40718   5.744  15.777   0.966
79430W        W40719   8.196  23.514  13.372
79431W        W40720  11.325  28.185  11.117
79432W        W40721   4.437  28.160  13.005
79433W        W40722  43.816  11.845   0.736
79434W        W40723   8.389  44.753   1.891
79435W        W40724   3.358   1.760  11.010
79436W        W40725  23.726   6.294   0.846
79437W        W40726  23.554  44.364   3.839
79438W        W40727   0.920  10.817  10.645
79439W        W40728   6.755  19.191   3.639
79440W        W40729  29.448   5.850   2.379
79441W        W40730  39.857  37.935  12.509
79442W        W40731  32.056  15.165   4.334
79443W        W40732  15.724  11.207   4.307
79444W        W40733  25.592  19.220  10.928
79445W        W40734  31.052  26.592  14.288
79446W        W40735  17.223   2.742   4.267
79447W        W40736   5.279   1.371  12.892
79448W        W40737  22.734   2.833  11.092
79449W        W40738  41.918  41.533   0.781
79450W        W40739  34.018   2.823   3.819
79451W        W40740  29.052  12.352   3.770
79452W        W40741  24.173  36.030  12.866
79453W        W40742  38.834  12.322  10.443
79454W        W40743  26.678  35.067   2.306
79455W        W40744  14.163  19.662  11.399
79456W        W40745   4.727  26.493  10.928
79457W        W40746  23.518   2.912   1.271
79458W        W40747  35.940   2.405   4.784
79459W        W40748  40.832   3.921  12.050
79460W        W40749  42.019  29.657   2.195
79461W        W40750  17.083  34.494  12.961
79462W        W40751  24.032  25.997  14.822
79463W        W40752  39.546   2.261   3.733
79464W        W40753  10.320  35.080  14.922
79465W        W40754   4.750  27.513   2.700
79466W        W40755   9.182  27.662  14.387
79467W        W40756  13.107  16.764  14.808
79468W        W40757  33.512  30.471   3.771
79469W        W40758  19.619   8.211   0.265
79470W        W40759  14.777  39.990  14.416
79471W        W40760  17.746  15.776  13.889
79472W        W40761  16.258   3.225  12.498
79473W        W40762  37.517  16.162  14.026
79474W        W40763  30.629  34.912   1.871
79475W        W40764   0.805  32.008   0.887
79476W        W40765  20.149  42.986  13.888
79477W        W40766  18.725  16.655  11.882
79478W        W40767   5.786  28.452  12.431
79479W        W40768  19.178   9.239   4.817
79480W        W40769   8.352  26.052  13.534
79481W        W40770  19.759  36.929   2.335
79482W        W40771  18.131  24.193   4.247
79483W        W40772   6.215  35.489   3.740
79484W        W40773  18.564  26.021  10.925
79485W        W40774  36.953   2.798   3.750
79486W        W40775  37.893  38.882   2.207
79487W        W40776  22.696  36.509  12.465
79488W        W40777  42.876  23.230   1.769
79489W        W40778  24.478  21.678   1.813
79490W        W40779  36.539  39.391  11.466
79491W        W40780  33.558  31.918  13.891
79492W        W40781  19.755  36.546   0.387
79493W        W40782   9.270  44.341  13.498
79494W        W40783  42.986  23.096  12.948
79495W        W40784   7.346  16.287  12.485
79496W        W40785  18.547  36.941  13.542
79497W        W40786  16.689  14.669  14.859
79498W        W40787   0.773  38.851  10.604
79499W        W40788  36.043  22.194  13.047
79500W        W40789  30.014  43.992   2.899
79501W        W40790  36.929  27.520  11.112
79502W        W40791  35.366  17.138  13.033
79503W        W40792  33.422  35.434  11.903
79504W        W40793  44.948  18.268   1.837
79505W        W40794  28.155   8.199  12.890
79506W        W40795   2.393  43.891   3.711
79507W        W40796  27.477  10.651   1.767
79508W        W40797  11.676  21.077  14.324
79509W        W40798  25.540  38.353  14.996
79510W        W40799   3.441  26.667  14.429
79511W        W40800  28.621  36.588   4.836
79512W        W40801  14.789   1.247   2.756
79513W        W40802  36.066  13.733  13.834
79514W        W40803   4.778  37.408  14.985
79515W        W40804  20.550  18.622   2.328
79516W        W40805  42.465   9.218  11.975
79517W        W40806   4.767  12.214   2.411
79518W        W40807   9.360   9.216   3.218
79519W        W40808  35.594  20.220  12.447
79520W        W40809  38.544   8.828  14.800
79521W        W40810   7.772  32.481   2.734
79522W        W40811  21.177  12.765  14.895
79523W        W40812  40.001  36.461   2.365
79524W        W40813  33.035  42.335   1.356
79525W        W40814   7.725  13.646  13.325
79526W        W40815  35.888  19.156   0.310
79527W        W40816  38.406  28.592  12.551
79528W        W40817  38.548  32.885   0.798
79529W        W40818   8.690   5.279  12.405
79530W        W40819  12.627  13.342   4.232
79531W        W40820  23.175  33.441   3.746
79532W        W40821  34.938  29.629  14.457
79533W        W40822  23.148  23.636   2.679
79534W        W40823  23.539   7.886   2.414
79535W        W40824  14.250  25.001  13.873
79536W        W40825  44.392   1.374  12.957
79537W        W40826  17.670  12.759  14.827
79538W        W40827  44.896  16.251  10.641
79539W        W40828  14.188   4.320  12.397
79540W        W40829  16.245   5.923   4.329
79541W        W40830  17.688  29.539  13.984
79542W        W40831  24.716   7.715   2.328
79543W        W40832  16.112  25.091  14.813
79544W        W40833  36.040  43.898   3.236
79545W        W40834   6.847   8.192   2.805
79546W        W40835  43.434  39.407   2.289
79547W        W40836   6.341  30.610   0.259
79548W        W40837  38.838   2.314   5.245
79549W        W40838  31.596   4.320   1.394
79550W        W40839  24.688  27.541   3.672
79551W        W40840  25.069  29.980   1.324
79552W        W40841  18.148  13.245   0.737
79553W        W40842  13.198  35.921  10.456
79554W        W40843   1.738  24.512   2.186
79555W        W40844  10.829  34.605   1.820
79556W        W40845  27.639  37.547   1.414
79557W        W40846  38.445  39.490   3.677
79558W        W40847  31.480  24.131  13.479
79559W        W40848  39.417   0.948  10.161
79560W        W40849  26.969  39.544  12.909
79561W        W40850  22.623  34.518  12.983
79562W        W40851   9.283  22.162   4.653
79563W        W40852  20.255  24.531  13.979
79564W        W40853  15.250  19.278   3.683
79565W        W40854  21.618   6.866  14.849
79566W        W40855  20.758   3.741  11.003
79567W        W40856  26.585  24.145   4.222
79568W        W40857  36.564  26.494   4.604
79569W        W40858   1.776  29.449  13.472
79570W        W40859  11.334  19.623   1.371
79571W        W40860  41.310  19.550  13.850
79572W        W40861  11.263  15.661   2.214
79573W        W40862   2.423  30.511  11.469
79574W        W40863  25.538  38.967  11.950
79575W        W40864  38.914  28.078  12.910
79576W        W40865  25.555  33.126   0.837
79577W        W40866  42.815   8.177   0.795
79578W        W40867  23.154  20.708  12.468
79579W        W40868  27.572   8.840  12.460
79580W        W40869   5.438  39.376   0.907
79581W        W40870  31.466  28.959   4.634
79582W        W40871   2.273   9.226   4.796
79583W        W40872  38.409  20.576  13.913
79584W        W40873  33.406  42.288  14.970
79585W        W40874  17.249  28.150  11.424
79586W        W40875   0.424   1.321  13.454
79587W        W40876  30.630  15.225  10.904
79588W        W40877  16.704  33.977   4.726
79589W        W40878  28.965   0.899   0.758
79590W        W40879  24.975  23.011   4.323
79591W        W40880  38.335  14.741  11.465
79592W        W40881  40.953  22.019   1.413
79593W        W40882  19.702  30.138  13.858
79594W        W40883  22.684  44.867   1.409
79595W        W40884  44.762  35.897   3.198
79596W        W40885  29.037  25.051  14.003
79597W        W40886  39.406  42.409  11.482
79598W        W40887   4.369  24.543  11.900
79599W        W40888  12.358   7.224   2.251
79600W        W40889  25.606  39.446   3.703
79601W        W40890  30.501   1.263  12.380
79602W        W40891  23.522   2.319  14.428
79603W        W40892  38.407  40.998   2.705
79604W        W40893  43.973   2.261   2.239
79605W        W40894  32.045   0.900   3.306
79606W        W40895  29.138   6.259  12.419
79607W        W40896  33.426   4.436  13.961
79608W        W40897  32.112  29.597  13.502
79609W        W40898  24.602  42.888  14.476
79610W        W40899   8.707  43.338  10.544
79611W        W40900  25.114  32.522  11.985
79612W        W40901  25.678  23.089   1.903
79613W        W40902  29.981  33.401   3.241
79614W        W40903   5.311  17.151   0.867
79615W        W40904   1.952   9.344   4.771
79616W        W40905  15.091  18.149   0.964
79617W        W40906  15.126   7.255   4.122
79618W        W40907  13.319  29.620   2.411
79619W        W40908   2.920   6.295  10.448
79620W        W40909  35.934   6.821   1.410
79621W        W40910   0.771  21.609  12.553
79622W        W40911  40.971  14.822  10.920
79623W        W40912  33.882  25.673   0.367
79624W        W40913  33.065   3.923  12.000
79625W        W40914  36.494  32.966   2.729
79626W        W40915  30.432  19.645  11.512
79627W        W40916  20.229  44.823  11.895
79628W        W40917  17.202  20.178  11.484
79629W        W40918  28.930  28.589  10.570
79630W        W40919  24.712  36.539  14.516
79631W        W40920   1.295  23.730  11.434
79632W        W40921  12.836  22.655  11.414
79633W        W40922  31.073   4.235  14.513
79634W        W40923  25.545   5.771  10.597
79635W        W40924  13.811   7.210  14.893
79636W        W40925   3.274   2.881   2.858
79637W        W40926  18.118  13.703   2.740
79638W        W40927  36.398  19.610   2.223
79639W        W40928   6.790   3.395  12.378
79640W        W40929   1.358  29.651  10.568
79641W        W40930  38.064   7.370   0.436
79642W        W40931  38.954   9.167   2.270
79643W        W40932  26.955  19.650   2.275
79644W        W40933  41.395   4.364  14.318
79645W        W40934  41.902  11.623   2.775
79646W        W40935   8.815   3.226   0.347
79647W        W40936  29.002  20.108  13.844
79648W        W40937   7.736  22.603   2.864
79649W        W40938  44.430  28.526  13.310
79650W        W40939  16.771  29.526   4.353
79651W        W40940  24.574  37.983  13.889
79652W        W40941  27.572  10.227   5.234
79653W        W40942  20.529  24.992  12.955
79654W        W40943  31.515  43.426   4.303
79655W        W40944  37.838  29.434   4.763
79656W        W40945  14.168  42.820   5.182
79657W        W40946  13.768  36.845   5.129
79658W        W40947  43.840  34.610  11.951
79659W        W40948   0.322   6.234   2.310
79660W        W40949  13.324  34.095   5.180
79661W        W40950  25.078   0.824   4.117
79662W        W40951  20.070  23.014   0.257
79663W        W40952  12.352   7.299  14.950
79664W        W40953  11.320   0.474   0.730
79665W        W40954  10.181   3.898  13.905
79666W        W40955  20.179  25.159   2.297
79667W        W40956   2.296   5.745   3.317
79668W        W40957  27.578   4.392  13.398
79669W        W40958  44.844  36.537  14.793
79670W        W40959   6.818  19.696  10.911
79671W        W40960  33.418  31.570  12.508
79672W        W40961   6.367  42.011  12.842
79673W        W40962  40.373  27.017  12.484
79674W        W40963  18.296   8.747  11.957
79675W        W40964  12.806  26.161  11.506
79676W        W40965  10.350  15.271  11.919
79677W        W40966   5.214  26.124   0.271
79678W        W40967   6.911  25.553   1.332
79679W        W40968  15.591  42.982   4.132
79680W        W40969  41.961  30.615  10.892
79681W        W40970  15.768  36.494  10.404
79682W        W40971   0.773  13.627  14.387
79683W        W40972  44.372   0.335  11.000
79684W        W40973  26.525  27.542   0.317
79685W        W40974  16.662  29.097  11.527
79686W        W40975  11.304  44.993  13.533
79687W        W40976  35.581   6.902   0.871
79688W        W40977   5.700  41.800  14.966
79689W        W40978  41.303  12.142  13.413
79690W        W40979  18.732  20.148   3.649
79691W        W40980  14.832  35.973   0.465
79692W        W40981  30.612  37.439  10.456
79693W        W40982  40.881  22.547   1.764
79694W        W40983   5.720  24.592   3.758
79695W        W40984  18.570  24.707  11.397
79696W        W40985  19.627  24.148   1.864
79697W        W40986  27.472  10.229  14.027
79698W        W40987   3.950  28.476   1.704
79699W        W40988  29.582  10.794   1.804
79700W        W40989   8.782  37.971   0.461
79701W        W40990  44.908  14.330   5.211
79702W        W40991   3.386   6.425   5.216
79703W        W40992  11.698  28.662  11.040
79704W        W40993   9.291  11.292   1.788
79705W        W40994  13.339  22.143   2.883
79706W        W40995  39.492  42.520   0.881
79707W        W40996  13.670  15.768   1.901
79708W        W40997   2.471  42.011   2.731
79709W        W40998   7.857  44.876  13.817
79710W        W40999  37.538   0.393  10.898
79711W        W41000  29.033  40.967   3.698
79712W        W41001   6.389   9.350  12.472
79713W        W41002  19.170  38.980   4.722
79714W        W41003  27.072  41.797   4.218
79715W        W41004  22.504  10.341  12.979
79716W        W41005  17.270  10.338  13.440
79717W        W41006  14.644   4.711   1.885
79718W        W41007  32.552  35.482  12.030
79719W        W41008  19.740  13.196  11.504
79720W        W41009   6.903   3.408  12.974
79721W        W41010  11.200  15.084   4.128
79722W        W41011   7.858  12.716   5.247
79723W        W41012   4.843  32.015   1.257
79724W        W41013   5.343  23.724  13.915
79725W        W41014   4.411   5.236  13.869
79726W        W41015   4.869  18.118   2.665
79727W        W41016  37.389  14.823  10.628
79728W        W41017   7.901  17.717  12.827
79729W        W41018  42.925  10.637   1.437
79730W        W41019  37.893  35.574   1.827
79731W        W41020  22.021  29.668  11.435
79732W        W41021  29.532   6.921  10.943
79733W        W41022  26.202  39.911  12.503
79734W        W41023  24.019  33.586   0.249
79735W        W41024  36.993   6.408  12.045
79736W        W41025  12.145  14.712  12.429
79737W        W41026  33.925  18.278   1.903
79738W        W41027   9.330  14.131   0.953
79739W        W41028  42.316   3.350  13.034
79740W        W41029   4.310   3.374  14.802
79741W        W41030  18.602  40.303  12.498
79742W        W41031   1.413   0.977   3.854
79743W        W41032   4.415   1.351  11.599
79744W        W41033  43.848   9.286   3.171
79745W        W41034  26.502  18.682   0.746
79746W        W41035  23.666  31.083   2.774
79747W        W41036   3.891   3.452   2.692
79748W        W41037  37.447  17.672  13.930
79749W        W41038  15.195  25.213  10.498
79750W        W41039   2.892  43.301   0.759
79751W        W41040  34.995   7.185  12.345
79752W        W41041  44.478  36.412  14.356
79753W        W41042  23.499  30.999  11.974
79754W        W41043  13.110  36.065   3.236
79755W        W41044  22.140  26.118  11.027
79756W        W41045  44.390  37.371   0.881
79757W        W41046  42.964  16.203  12.345
79758W        W41047  33.541  40.859   0.917
79759W        W41048  41.894   8.779   2.354
79760W        W41049  25.680  36.074  12.481
79761W        W41050  36.392  40.366   0.783
79762W        W41051  15.636  24.225  11.993
79763W        W41052  29.628   3.389  14.808
79764W        W41053  36.988   8.237   4.691
79765W        W41054  10.770  26.997  12.018
79766W        W41055   9.305  14.799   1.267
79767W        W41056  25.148  24.209   0.902
79768W        W41057  37.575  12.123  13.413
79769W        W41058  40.506  36.581   1.316
79770W        W41059   7.739  12.244   3.823
79771W        W41060   5.778  24.046   3.186
79772W        W41061  43.414  19.128  10.947
79773W        W41062  44.945   9.879   2.741
79774W        W41063   8.878  32.120  13.323
79775W        W41064  27.563  14.620   2.712
79776W        W41065  23.537  25.684   3.305
79777W        W41066  29.944  11.132   4.257
79778W        W41067  19.546   5.210  10.452
79779W        W41068  24.069  41.471   5.195
79780W        W41069  27.051   3.239   5.263
79781W        W41070  12.253   6.871  11.375
79782W        W41071  30.024  37.932   4.128
79783W        W41072   5.752  24.150  14.453
79784W        W41073  24.489  18.088  10.913
79785W        W41074  25.183  21.229   2.289
79786W        W41075  39.901   6.383   3.387
79787W        W41076  15.101  30.927   3.755
79788W        W41077   9.390  43.018   2.695
79789W        W41078  44.396  29.427   4.209
79790W        W41079  25.180  41.823  14.442
79791W        W41080  36.542  40.432   4.603
79792W        W41081  23.122  15.320   4.668
79793W        W41082  25.496  30.495  14.377
79794W        W41083   2.858  12.357   4.759
79795W        W41084  19.737  32.449   1.852
79796W        W41085  15.236  32.476   3.633
79797W        W41086  36.873  41.928  11.007
79798W        W41087  14.254  33.486   2.722
79799W        W41088  11.140  25.533   1.817
79800W        W41089  15.693  11.647  10.618
79801W        W41090  29.435  24.072   5.110
79802W        W41091  33.977  22.653  10.453
79803W        W41092  10.646  19.558   1.334
79804W        W41093  23.714  36.057   4.748
79805W        W41094  19.080   8.390   2.739
79806W        W41095  22.653  36.570  14.855
79807W        W41096  16.620  13.232  12.540
79808W        W41097  20.085  35.565   2.381
79809W        W41098  25.587  31.953   4.231
79810W        W41099  14.735   1.363  11.033
79811W        W41100  28.575  33.548   0.407
79812W        W41101  32.401   2.369  11.993
79813W        W41102  38.896   5.203   4.736
79814W        W41103  25.473   9.822   1.413
79815W        W41104  43.914   5.845   1.849
79816W        W41105   7.316  12.819  14.442
79817W        W41106  15.321  34.970  10.961
79818W        W41107  19.259  36.982  10.636
79819W        W41108  21.232  23.087   2.216
79820W        W41109  11.729   4.352  14.011
79821W        W41110  27.958   4.702   1.294
79822W        W41111  37.576   3.382   0.261
79823W        W41112  20.727  36.001  12.436
79824W        W41113  44.008   3.756  10.532
79825W        W41114  16.087   3.836  13.312
79826W        W41115  27.153  16.097   2.903
79827W        W41116  43.967  43.314  13.544
79828W        W41117  40.841  14.796   1.859
79829W        W41118  22.222  10.646  10.908
79830W        W41119  43.770  31.625   2.346
79831W        W41120  33.416  30.035   1.820
79832W        W41121   7.735  10.737  10.942
79833W        W41122  41.026  13.142   3.243
79834W        W41123   8.198  21.251   2.205
79835W        W41124  43.769  39.023   1.317
79836W        W41125  14.145  32.543  14.795
79837W        W41126  13.656   6.293  13.346
79838W        W41127   4.870  30.445   0.264
79839W        W41128  14.709  29.510  13.548
79840W        W41129  23.161  34.379  12.936
79841W        W41130   2.380  39.946   0.415
79842W        W41131  44.793  24.091  11.101
79843W        W41132  37.078  26.695  11.027
79844W        W41133   1.318  16.199  14.024
79845W        W41134  19.587  14.716  12.074
79846W        W41135  17.069  22.087  11.979
79847W        W41136  40.305  34.460   4.805
79848W        W41137  40.510  18.180   0.469
79849W        W41138  11.639  27.460   1.873
79850W        W41139  29.655  13.174   3.744
79851W        W41140  37.075  34.945  11.608
79852W        W41141  17.647  25.488  14.004
79853W        W41142  42.955  44.467   3.817
79854W        W41143  27.641   0.869  11.387
79855W        W41144   4.250   8.687  12.006
79856W        W41145   4.252  14.746   2.312
79857W        W41146  28.999  35.592   4.609
79858W        W41147  31.138  12.315  14.993
79859W        W41148  14.312  40.828  12.049
79860W        W41149  23.582  40.042   2.864
79861W        W41150  23.643   0.950   2.182
79862W        W41151  33.934  23.521  12.078
79863W        W41152  25.678  38.904  12.953
79864W        W41153  35.358   4.799   1.871
79865W        W41154  30.908  15.291   0.745
79866W        W41155  38.384  17.660   2.706
79867W        W41156  40.413   4.408  11.890
79868W        W41157  29.147  18.136  14.831
79869W        W41158  29.170  35.415  10.540
79870W        W41159  30.529   3.450   1.746
79871W        W41160  34.976  32.999  13.330
79872W        W41161  34.564  20.134   2.733
79873W        W41162  32.967  35.928   2.895
79874W        W41163   6.407   8.695  12.416
79875W        W41164  15.817  41.872   4.668
79876W        W41165   2.774  38.829  12.975
79877W        W41166   5.306  23.715  10.496
79878W        W41167   0.918  31.003   3.174
79879W        W41168  26.113  31.925  14.357
79880W        W41169  17.708   3.775  12.029
79881W        W41170   4.345  28.155  11.454
79882W        W41171  37.413  27.142   4.301
79883W        W41172  21.102  26.058  13.897
79884W        W41173  44.417  17.206   0.387
79885W        W41174   9.739  37.512  11.914
79886W        W41175  25.612  16.075   1.331
79887W        W41176  21.727  29.126  13.339
79888W        W41177  15.167   6.292   1.401
79889W        W41178  13.158  20.057  12.440
79890W        W41179  33.903   3.725  11.904
79891W        W41180  28.991  42.353  11.485
79892W        W41181  21.132  32.070   1.362
79893W        W41182  14.117  20.193  12.827
79894W        W41183  33.488  22.671   1.742
79895W        W41184  35.522  42.018  14.835
79896W        W41185  27.620  16.182   1.874
79897W        W41186  35.554  34.040   1.269
79898W        W41187  39.010  41.428  14.410
79899W        W41188  28.007  17.197  11.557
79900W        W41189  31.910   0.840  14.306
79901W        W41190  29.527  44.753   3.635
79902W        W41191  22.548   8.867  10.554
79903W        W41192   5.369  23.565  14.338
79904W        W41193   7.731  18.195   3.306
79905W        W41194  38.537  22.077  14.004
79906W        W41195   7.413   2.878   4.133
79907W        W41196  34.875  37.016  11.951
79908W        W41197   6.915   7.794  12.025
79909W        W41198   2.874   1.371  11.859
79910W        W41199  32.049   0.442   0.756
79911W        W41200  25.095  24.682  14.944
79912W        W41201  28.615  21.567   0.891
79913W        W41202  18.106   2.299  11.864
79914W        W41203  42.795  24.634  13.409
79915W        W41204  17.558  11.295  12.948
79916W        W41205  14.602  38.462  13.062
79917W        W41206   6.345  42.307  12.064
79918W        W41207  32.602  40.481   3.655
79919W        W41208  34.518  40.417   2.276
79920W        W41209  11.317  18.292  14.812
79921W        W41210  11.835   0.492   4.269
79922W        W41211   0.897   1.888  14.278
79923W        W41212  12.805  24.545  10.904
79924W        W41213   4.791   5.759   0.807
79925W        W41214  22.110  21.689  14.896
79926W        W41215   5.924  31.038  13.035
79927W        W41216  15.720  13.350  12.067
79928W        W41217  24.695   9.168   0.294
79929W        W41218  19.607  42.307  11.581
79930W        W41219  11.752  31.113  14.969
79931W        W41220  11.337  21.685  11.055
79932W        W41221   0.463  15.230  13.513
79933W        W41222   5.410   7.735  12.087
79934W        W41223  27.011  34.609  12.504
79935W        W41224  15.693  14.110   9.968
79936W        W41225  22.514  38.998  11.534
79937W        W41226  11.799  19.560   3.243
79938W        W41227   8.356  32.117   0.924
79939W        W41228  11.740  11.827   3.808
79940W        W41229  39.431  18.249  14.776
79941W        W41230  10.799  20.753   4.267
79942W        W41231  39.905  14.621   1.264
79943W        W41232   2.722   5.293   0.735
79944W        W41233   7.888  23.670   2.831
79945W        W41234  28.960  19.671  10.603
79946W        W41235  37.021   3.782  10.450
79947W        W41236   8.190  29.473   1.226
79948W        W41237  40.341  43.923  10.907
79949W        W41238   1.767  17.064   0.273
79950W        W41239  15.794  34.408   3.644
79951W        W41240  17.087   6.311  14.290
79952W        W41241  20.140  18.742   2.802
79953W        W41242   9.256  19.718  13.052
79954W        W41243  42.353  13.285   3.843
79955W        W41244  37.342  34.454   3.387
79956W        W41245   1.400   3.796  13.840
79957W        W41246  29.495  13.123  12.828
79958W        W41247   4.781  15.802   1.798
79959W        W41248   5.770   5.238  14.338
79960W        W41249  12.159   5.886   0.438
79961W        W41250  43.332  44.897   2.713
79962W        W41251  24.135  39.435  12.443
79963W        W41252  19.663  39.006   0.804
79964W        W41253  10.648  32.477   2.722
79965W        W41254  26.182   7.878  10.123
79966W        W41255  23.057  14.334   4.324
79967W        W41256   4.939  38.021   1.845
79968W        W41257  24.632  14.782   4.188
79969W        W41258  38.829  30.643  14.986
79970W        W41259  10.172   5.923   4.723
79971W        W41260  36.965  29.990   1.381
79972W        W41261   6.218  17.744   2.409
79973W        W41262  41.943  16.133  11.951
79974W        W41263  41.443  32.084  14.950
79975W        W41264  25.486  38.039  14.341
79976W        W41265  32.452  14.253  13.473
79977W        W41266  31.985  41.991   2.667
79978W        W41267  23.633  28.945   0.445
79979W        W41268  33.976   6.339  11.945
79980W        W41269  24.502   2.416   2.376
79981W        W41270  16.122  32.957  13.535
79982W        W41271  11.855  32.940  12.931
79983W        W41272   7.674  19.624  10.484
79984W        W41273  15.602  20.149   0.901
79985W        W41274  44.334  14.128   3.216
79986W        W41275  35.466  15.274   2.756
79987W        W41276  34.062   1.450   4.278
79988W        W41277  13.737   5.746   2.242
79989W        W41278   8.884  19.281   2.259
79990W        W41279  39.972  24.618   4.296
79991W        W41280  23.093   2.838  11.863
79992W        W41281  30.013  30.621  12.969
79993W        W41282  17.287  30.563  11.873
79994W        W41283  15.618  34.950  14.874
79995W        W41284  39.884  22.106  11.523
79996W        W41285  17.088  31.993   1.237
79997W        W41286  13.205  39.535   1.820
79998W        W41287  23.195  23.147  10.154
79999W        W41288  17.098  40.335   2.403
80000W        W41289   7.224  20.203   3.847
80001W        W41290  18.628  32.526  14.796
80002W        W41291   0.432  30.594  13.376
80003W        W41292   9.373   0.421   9.500
80004W        W41293  21.639  32.477  13.797
80005W        W41294  27.539  13.122  11.432
80006W        W41295   7.193   7.796   3.830
80007W        W41296   1.292   6.691  11.507
80008W        W41297   4.221   0.775   2.720
80009W        W41298   3.849  32.890  11.578
80010W        W41299  20.273  34.510  13.967
80011W        W41300  20.189  22.194  12.063
80012W        W41301  30.951   1.441   0.834
80013W        W41302   9.837  31.612  12.980
80014W        W41303  38.556  31.417  11.065
80015W        W41304  25.654  33.118  12.558
80016W        W41305  31.976  31.074   1.762
80017W        W41306  44.889  17.231  14.957
80018W        W41307  44.885   0.745  14.338
80019W        W41308  43.799  37.577   3.841
80020W        W41309  39.353  39.938  10.534
80021W        W41310  37.555  18.087  12.953
80022W        W41311  35.451  35.544   2.664
80023W        W41312  39.472  37.539  12.978
80024W        W41313  32.889   5.778   4.230
80025W        W41314  14.307  29.625   0.829
80026W        W41315  23.596   8.784   1.728
80027W        W41316  20.616  18.292  11.557
80028W        W41317  34.967  18.604   1.222
80029W        W41318  20.636  39.524  13.362
80030W        W41319  31.521  39.450  10.450
80031W        W41320   1.874  12.221   1.223
80032W        W41321  35.069  25.539  11.434
80033W        W41322  31.420  44.336  11.996
80034W        W41323  14.148   6.839  11.942
80035W        W41324  42.494   2.420  10.915
80036W        W41325  19.067  43.021   2.270
80037W        W41326  34.956  27.517   3.812
80038W        W41327  23.015  31.542   0.747
80039W        W41328  16.628  28.005   2.330
80040W        W41329  37.900  41.821  13.507
80041W        W41330   3.741   8.839   1.763
80042W        W41331  31.048   5.829   3.638
80043W        W41332  16.261  12.348  12.848
80044W        W41333  41.911  24.112  12.531
80045W        W41334  13.166  13.175   0.837
80046W        W41335  19.709  13.715   2.241
80047W        W41336  44.835   5.704  13.815
80048W        W41337   2.783  11.861   4.168
80049W        W41338  28.601  26.552  11.426
80050W        W41339   2.372  16.725   3.684
80051W        W41340  30.639   4.812   2.706
80052W        W41341  14.124   5.734   2.857
80053W        W41342  34.439  11.234  14.426
80054W        W41343  36.886  26.464   4.729
80055W        W41344  10.649  33.892   0.276
80056W        W41345   5.817  42.824  11.896
80057W        W41346  41.520  11.865   4.297
80058W        W41347   5.770  28.065  11.863
80059W        W41348   8.345  22.249   1.713
80060W        W41349  14.612  41.341   4.133
80061W        W41350  31.912   5.818  10.445
80062W        W41351  11.127   9.682   1.699
80063W        W41352   7.258   8.241  12.887
80064W        W41353  11.764  35.520   2.712
80065W        W41354  28.167  22.685  10.579
80066W        W41355  18.636  27.530  11.877
80067W        W41356  11.694  12.233   4.254
80068W        W41357   2.416  25.468   1.935
80069W        W41358  18.554  41.971   2.806
80070W        W41359  43.825  32.930   3.646
80071W        W41360  22.242  40.965  12.993
80072W        W41361  43.924  21.234   3.851
80073W        W41362  41.995  11.816   3.811
80074W        W41363  23.095  26.068   3.868
80075W        W41364  39.989  18.776   1.813
80076W        W41365   7.238   2.892  12.576
80077W        W41366  15.631  42.805  12.991
80078W        W41367   5.239  42.984  12.835
80079W        W41368  18.672  18.239  12.092
80080W        W41369  30.431  22.529  10.584
80081W        W41370  38.507  38.920   3.161
80082W        W41371  28.042  29.518   3.153
80083W        W41372  16.120   3.439  13.872
80084W        W41373   9.192   9.808  10.448
80085W        W41374   3.808  31.945   0.893
80086W        W41375   8.355  31.153  13.945
80087W        W41376  14.244  12.229   3.754
80088W        W41377  23.520   3.859  12.882
80089W        W41378   8.217   0.866  12.086
80090W        W41379  40.951  30.659  12.923
80091W        W41380  16.809  43.494   4.340
80092W        W41381   6.789  43.956  14.821
80093W        W41382  28.669  17.118  13.049
80094W        W41383  16.738  17.187   4.707
80095W        W41384  18.131   1.846  12.980
80096W        W41385   8.342  38.068  13.828
80097W        W41386  29.969   9.706   3.772
80098W        W41387  33.410  15.663   3.308
80099W        W41388  12.780  17.679  13.519
80100W        W41389  20.700  21.521   0.355
80101W        W41390  42.801  13.238   3.307
80102W        W41391  10.724  13.327  13.963
80103W        W41392  11.362  43.483   3.844
80104W        W41393  43.774   8.832   1.696
80105W        W41394  36.913  22.709   1.750
80106W        W41395  19.547   0.451  13.927
80107W        W41396  37.558  15.167   1.774
80108W        W41397  25.203  41.875  11.933
80109W        W41398   3.885   4.220   2.837
80110W        W41399   1.347  25.687  13.999
80111W        W41400   9.250  23.072  11.520
80112W        W41401  26.605  41.429  12.997
80113W        W41402  26.558   4.841  11.898
80114W        W41403  26.651   7.214   2.792
80115W        W41404  33.977  33.045  12.516
80116W        W41405  20.122  22.574   1.740
80117W        W41406  33.104  34.479   4.153
80118W        W41407  13.732   0.388   0.472
80119W        W41408  42.392  24.586  12.418
80120W        W41409  23.524  14.590   3.260
80121W        W41410  38.843  19.271  12.536
80122W        W41411  13.838  23.494   1.362
80123W        W41412   1.356  17.626  12.520
80124W        W41413   7.771  28.932   4.608
80125W        W41414  43.920  29.053  11.104
80126W        W41415   8.766   8.296   4.157
80127W        W41416  43.487   6.850   3.719
80128W        W41417  21.570  43.804   2.890
80129W        W41418   9.177  11.178   1.408
80130W        W41419  44.494  20.720   4.257
80131W        W41420  30.469  25.219   4.216
80132W        W41421   7.843  23.496  11.418
80133W        W41422  32.590   3.377  10.592
80134W        W41423   1.877  34.388  14.007
80135W        W41424  30.162  24.213   0.387
80136W        W41425  21.259   8.812   3.285
80137W        W41426  36.412  37.404  11.531
80138W        W41427   4.867  30.161  12.446
80139W        W41428  25.970  25.677   0.904
80140W        W41429   0.333   9.305   3.281
80141W        W41430  31.061  23.589   0.362
80142W        W41431  29.668   9.686   0.878
80143W        W41432  35.397  26.039  14.323
80144W        W41433  24.592  15.736  14.449
80145W        W41434  13.666  43.487  14.932
80146W        W41435  35.527  34.071   4.196
80147W        W41436  30.460   4.398   0.939
80148W        W41437  36.555   5.439  14.406
80149W        W41438  42.971   3.740   4.779
80150W        W41439  13.107  18.195  10.412
80151W        W41440  18.165  18.192  12.445
80152W        W41441  41.026  28.495   1.420
80153W        W41442  10.841  40.996  14.501
80154W        W41443  26.485  18.220   1.704
80155W        W41444   8.315  28.626  11.581
80156W        W41445   1.935  12.342   2.353
80157W        W41446  15.709  28.560   1.434
80158W        W41447  36.510  27.995   1.434
80159W        W41448   6.694  20.745   2.716
80160W        W41449  15.166  13.679   1.283
80161W        W41450  14.593   9.721  13.472
80162W        W41451  13.603   5.325   0.454
80163W        W41452  13.713   3.290  12.905
80164W        W41453   4.218   5.817  11.576
80165W        W41454  26.068   0.448  11.485
80166W        W41455  37.949   9.391  14.017
80167W        W41456   3.298  25.971  11.456
80168W        W41457  13.193  22.126  10.439
80169W        W41458  15.120  37.470  12.493
80170W        W41459  33.612  35.052  10.458
80171W        W41460   4.289  29.947   2.793
80172W        W41461   3.918   3.858   1.244
80173W        W41462  29.170  20.146  12.350
80174W        W41463  29.564  24.705  12.426
80175W        W41464  37.387  22.575   1.753
80176W        W41465  35.398  38.844  10.609
80177W        W41466  29.042   3.948   1.284
80178W        W41467   9.356  27.088   3.803
80179W        W41468  25.515  43.467  11.008
80180W        W41469  12.175   0.424   1.220
80181W        W41470  44.406   3.751   0.408
80182W        W41471  41.444  34.515   0.927
80183W        W41472  20.557  27.163   0.776
80184W        W41473  37.561  42.286  12.975
80185W        W41474  18.102  21.046   1.401
80186W        W41475   3.287   4.216   2.840
80187W        W41476  23.137  41.371   0.342
80188W        W41477  37.078   6.726   3.217
80189W        W41478  17.260  30.977  14.023
80190W        W41479  43.496  44.821   1.422
80191W        W41480  32.066  19.252  11.510
80192W        W41481   6.227  44.840  11.020
80193W        W41482  24.077  41.400  11.946
80194W        W41483   5.741  40.443  13.974
80195W        W41484  26.663  40.433  13.794
80196W        W41485   3.784   8.255   4.797
80197W        W41486   8.239   1.765   1.911
80198W        W41487  26.198   3.388  12.010
80199W        W41488  36.535  37.528  13.377
80200W        W41489  31.007   2.871   2.251
80201W        W41490  35.967  20.189  14.932
80202W        W41491  36.063   1.893   1.418
80203W        W41492  17.776   1.791   0.356
80204W        W41493  22.673  31.018  12.580
80205W        W41494   5.931  36.545   3.305
80206W        W41495  40.921  34.984  13.972
80207W        W41496  29.992  40.361   4.261
80208W        W41497  22.544  25.153  14.773
80209W        W41498  10.202   6.837   3.630
80210W        W41499   9.883  22.995   1.254
80211W        W41500  36.098  25.066  12.866
80212W        W41501  32.127  22.998  13.998
80213W        W41502  20.754  34.121  14.888
80214W        W41503  30.470  27.658  10.537
80215W        W41504  34.976  28.165   0.793
80216W        W41505  19.212  32.534   3.382
80217W        W41506  17.066  32.947   3.805
80218W        W41507  20.222   8.684   3.831
80219W        W41508   4.401  13.708   3.656
80220W        W41509  21.719   2.428   0.334
80221W        W41510  36.030  23.587   0.939
80222W        W41511  32.499  25.983   4.744
80223W        W41512  13.292   9.317   2.289
80224W        W41513  17.715   1.798  10.957
80225W        W41514  40.003  40.413  14.766
80226W        W41515  29.428  31.491   2.354
80227W        W41516  25.984  44.359  12.066
80228W        W41517  32.134  16.235  14.981
80229W        W41518  31.968   3.281   2.284
80230W        W41519  11.363  19.597  13.986
80231W        W41520  20.225  22.999   2.787
80232W        W41521  21.219  38.943  12.083
80233W        W41522   6.769  38.900   4.274
80234W        W41523  31.596  28.025  13.474
80235W        W41524  16.318  36.937  12.372
80236W        W41525  26.538  23.226   0.798
80237W        W41526  34.565  23.006  11.548
80238W        W41527  10.231   0.323   3.806
80239W        W41528  15.720  42.924   2.878
80240W        W41529  34.456  35.379  10.602
80241W        W41530  34.058  32.400  13.496
80242W        W41531  29.534  36.457   2.706
80243W        W41532  11.786  32.551   2.747
80244W        W41533  17.615  24.220   0.802
80245W        W41534  25.500  28.006  14.425
80246W        W41535  15.776  18.261  10.509
80247W        W41536  19.771  15.648  10.986
80248W        W41537  38.426  31.576   4.328
80249W        W41538  26.510  15.247  13.875
80250W        W41539   7.851  30.639   2.332
80251W        W41540  20.189  43.851  10.574
80252W        W41541  31.902   1.777   5.689
80253W        W41542   2.415  33.547   0.787
80254W        W41543  26.553  14.705   2.702
80255W        W41544  44.835  30.125  10.572
80256W        W41545  40.861  24.598  11.607
80257W        W41546  23.587  32.045  11.597
80258W        W41547   9.816  11.298   0.916
80259W        W41548  29.145  13.659   1.891
80260W        W41549  16.095   0.465  13.439
80261W        W41550  34.928   1.819  12.016
80262W        W41551  18.295  36.936  12.823
80263W        W41552   6.794  26.087   5.607
80264W        W41553  39.949  43.370  12.500
80265W        W41554  40.001   7.408  12.561
80266W        W41555  36.424  16.685   0.771
80267W        W41556  43.485   6.340  13.437
80268W        W41557   2.286  15.821   0.920
80269W        W41558  21.157  29.465   0.751
80270W        W41559  10.191  35.379   2.280
80271W        W41560  16.240  40.462  13.540
80272W        W41561  28.941  30.448  14.993
80273W        W41562  33.019   7.370   2.826
80274W        W41563   3.752   7.329   2.724
80275W        W41564  25.122   0.779   2.233
80276W        W41565   1.904  19.181  13.496
80277W        W41566  12.276  29.423  14.297
80278W        W41567  31.930  11.277  12.492
80279W        W41568  23.066   2.947  14.310
80280W        W41569  19.613  21.071  11.887
80281W        W41570  32.972  22.202   4.163
80282W        W41571  22.707  19.713   5.187
80283W        W41572  20.213  41.491   1.324
80284W        W41573   7.709   7.684  11.997
80285W        W41574  12.787   3.371   3.813
80286W        W41575  14.669  37.838   3.764
80287W        W41576   6.383  23.614  11.100
80288W        W41577  12.846   4.805  13.368
80289W        W41578   6.720  16.805  14.024
80290W        W41579   9.391  18.254  11.463
80291W        W41580  38.365  24.680   2.221
80292W        W41581  26.601  36.998  14.909
80293W        W41582  11.780  39.952  14.925
80294W        W41583  44.420   9.849  11.500
80295W        W41584  14.163  25.160   1.902
80296W        W41585  15.588   4.361  13.529
80297W        W41586   1.956  29.426  14.961
80298W        W41587  13.646   6.685   0.819
80299W        W41588  35.506  29.656   4.146
80300W        W41589  44.462  26.181   4.700
80301W        W41590  19.279   7.373  10.617
80302W        W41591  36.011   0.748  14.472
80303W        W41592  38.921   4.309   1.790
80304W        W41593   3.435   3.332  12.416
80305W        W41594  36.087   4.707  11.539
80306W        W41595   5.756  18.648  14.476
80307W        W41596  36.040  34.601  13.450
80308W        W41597   7.360  41.387   0.405
80309W        W41598  42.310  18.703   3.695
80310W        W41599  10.350  18.150  11.521
80311W        W41600  37.522   4.877  12.503
80312W        W41601  44.771   4.730  11.021
80313W        W41602   3.314  34.077  14.819
80314W        W41603  12.823  27.600  11.928
80315W        W41604  24.049  30.597  14.322
80316W        W41605  20.718   4.442   2.749
80317W        W41606  43.812   0.818  13.402
80318W        W41607  23.089  23.128  13.323
80319W        W41608  31.477  37.072  12.092
80320W        W41609  14.328   4.793   5.225
80321W        W41610  13.179   8.370   4.718
80322W        W41611  39.479  35.045   4.222
80323W        W41612  44.386  35.946  12.468
80324W        W41613  44.930   5.290  12.018
80325W        W41614   6.809  44.756   0.921
80326W        W41615  38.036  21.684   3.232
80327W        W41616  26.070  35.567   0.860
80328W        W41617  14.709  31.066   4.838
80329W        W41618  38.844   9.669  10.076
80330W        W41619  26.540   2.452  13.539
80331W        W41620  32.098  16.665   4.222
80332W        W41621  29.082  15.593   2.180
80333W        W41622  13.285  30.069  13.352
80334W        W41623   1.791  33.414   0.914
80335W        W41624  35.869   0.275   3.748
80336W        W41625  33.463  39.466   3.284
80337W        W41626  12.196  21.205   0.825
80338W        W41627  35.462   1.462   3.631
80339W        W41628  38.895  35.563   3.869
80340W        W41629   6.767  25.558  13.324
80341W        W41630  16.160   1.976   3.635
80342W        W41631  42.482  16.145  13.914
80343W        W41632  43.950  24.046  13.038
80344W        W41633  13.729   0.923   0.304
80345W        W41634   5.229  19.269   3.822
80346W        W41635  30.031  28.166   4.170
80347W        W41636  24.590  11.668   4.688
80348W        W41637  33.952  35.397   4.783
80349W        W41638  38.990  27.647   0.954
80350W        W41639  26.012  23.624   3.360
80351W        W41640  19.207  39.057  13.831
80352W        W41641  34.070  30.464   1.834
80353W        W41642  22.226   0.936   3.218
80354W        W41643  22.063  41.472   3.689
80355W        W41644  12.163  32.926   0.271
80356W        W41645  36.870  40.464  13.403
80357W        W41646   6.285  41.822   4.321
80358W        W41647  44.451  13.713   1.245
80359W        W41648  10.674  29.439   3.860
80360W        W41649  12.259  19.609  13.899
80361W        W41650  35.458  13.749   2.358
80362W        W41651  34.115  43.941  14.880
80363W        W41652  21.244  15.111   1.790
80364W        W41653  36.078  38.908  14.488
80365W        W41654  10.283  14.799  14.824
80366W        W41655  10.140  23.062   0.759
80367W        W41656  14.648  34.893   4.661
80368W        W41657   1.937  16.660  11.021
80369W        W41658   8.874  24.100   4.831
80370W        W41659  14.759   7.257   3.761
80371W        W41660  29.614  28.447  11.933
80372W        W41661  33.419  13.731   1.330
80373W        W41662  26.514   0.886   4.152
80374W        W41663   2.442  30.118  11.914
80375W        W41664  33.538  33.108   4.636
80376W        W41665  20.259  23.030  12.084
80377W        W41666  44.428  34.400   1.324
80378W        W41667  18.664  38.845  12.421
80379W        W41668  26.142   2.285   2.876
80380W        W41669   4.309  21.750  11.929
80381W        W41670  31.626  17.297  13.424
80382W        W41671  15.693  25.041   5.143
80383W        W41672  25.703  19.562  13.811
80384W        W41673  36.967  14.778   3.730
80385W        W41674  38.359  44.803   4.235
80386W        W41675  25.125  30.908  10.904
80387W        W41676  15.605  10.257  11.527
80388W        W41677  37.346  14.652   0.957
80389W        W41678   9.787  38.058  10.588
80390W        W41679  22.645  32.085  10.893
80391W        W41680   4.861  33.094  12.914
80392W        W41681   3.813  25.490   3.660
80393W        W41682   2.228  34.997  13.798
80394W        W41683  12.241  42.805  12.928
80395W        W41684  18.119  10.727  11.099
80396W        W41685  12.634  11.259  12.864
80397W        W41686   8.736  43.381   1.276
80398W        W41687  15.794   9.667   4.604
80399W        W41688  32.533  44.839  10.420
80400W        W41689  29.951  18.675   0.895
80401W        W41690   3.398  10.753  13.949
80402W        W41691   2.418  44.439  12.512
80403W        W41692  17.699  41.312   4.695
80404W        W41693  27.517  29.106  12.849
80405W        W41694  15.324  42.969   2.301
80406W        W41695  36.417  20.203  14.370
80407W        W41696  23.002   6.817   2.759
80408W        W41697  35.502  23.592   3.705
80409W        W41698  25.005  31.927   3.726
80410W        W41699  23.029  31.929  14.333
80411W        W41700   8.197   7.259   3.209
80412W        W41701  31.567  34.887  11.873
80413W        W41702  42.384  13.240  11.933
80414W        W41703  26.618  17.678  13.334
80415W        W41704  23.565  16.201   4.250
80416W        W41705  16.241   0.946   0.794
80417W        W41706  41.955  30.426  12.572
80418W        W41707  28.024  24.005   0.860
80419W        W41708  25.014  37.845  11.955
80420W        W41709  24.531  37.856  12.988
80421W        W41710  32.542  21.585  10.623
80422W        W41711  19.588  13.626  11.587
80423W        W41712  41.294  28.599   3.289
80424W        W41713  20.745  41.350   4.682
80425W        W41714   3.785  33.595   3.300
80426W        W41715  43.995  21.020  10.420
80427W        W41716   5.859  29.957  10.582
80428W        W41717   4.381  10.649   2.248
80429W        W41718   6.858  15.753  10.911
80430W        W41719   3.409  26.639   2.786
80431W        W41720  32.501  41.358   1.820
80432W        W41721  29.160  14.300  11.520
80433W        W41722  33.519  17.064   5.163
80434W        W41723  20.742  42.827  13.539
80435W        W41724  24.483  18.221  10.541
80436W        W41725  25.027  30.073   3.858
80437W        W41726   7.715  23.523  13.859
80438W        W41727  43.412  32.055  11.476
80439W        W41728   0.360   4.796  14.482
80440W        W41729  39.371  38.996   3.847
80441W        W41730  28.510   0.312   2.345
80442W        W41731  40.333   3.399  14.414
80443W        W41732  26.499  17.621  10.541
80444W        W41733  30.075   8.885  12.883
80445W        W41734  30.987  37.580   2.882
80446W        W41735  21.665   4.780  13.539
80447W        W41736  26.987   7.379  14.968
80448W        W41737   5.390  41.947   1.839
80449W        W41738  43.347  41.914  10.982
80450W        W41739  28.088  14.691   1.802
80451W        W41740  22.719  24.721  12.876
80452W        W41741  26.067  27.463  12.082
80453W        W41742   2.251  14.182  11.046
80454W        W41743  36.459  24.616   2.332
80455W        W41744  43.008  38.555  13.032
80456W        W41745  14.318  30.607   4.781
80457W        W41746  30.565  17.599  11.924
80458W        W41747  35.536  40.416   0.915
80459W        W41748  15.787  44.823   2.756
80460W        W41749  28.570  18.087   1.855
80461W        W41750  18.293  24.672  14.476
80462W        W41751  35.417  12.632   1.345
80463W        W41752  38.866   9.871   0.926
80464W        W41753  27.144  32.457   1.349
80465W        W41754  15.622   3.759  10.412
80466W        W41755  37.056  40.858   1.914
80467W        W41756  29.118   3.783  13.401
80468W        W41757   5.388  12.711   4.234
80469W        W41758  22.017   2.446  14.824
80470W        W41759  41.033  16.113   0.386
80471W        W41760   2.789  33.614   2.346
80472W        W41761  34.006   5.306   4.133
80473W        W41762   9.257  31.485   3.719
80474W        W41763  21.204  28.994   1.729
80475W        W41764  31.149  27.495  14.944
80476W        W41765  13.213   5.373   4.646
80477W        W41766  36.953  31.622  11.923
80478W        W41767  36.512  29.134   1.903
80479W        W41768   5.431  37.397  14.947
80480W        W41769  33.132  39.845  12.504
80481W        W41770   5.243   6.361  14.423
80482W        W41771  30.933  27.061  14.331
80483W        W41772  21.714  27.079  13.889
80484W        W41773  38.900  42.885   5.215
80485W        W41774  29.932  36.507   0.778
80486W        W41775  23.113   9.317  13.426
80487W        W41776  24.147  41.469   0.258
80488W        W41777  27.589   2.936  10.951
80489W        W41778  26.982  28.017  10.552
80490W        W41779  40.870   3.751   1.438
80491W        W41780  27.626  28.621   4.680
80492W        W41781  24.599   5.301  13.889
80493W        W41782  39.059  13.333   2.839
80494W        W41783  35.092  42.931  11.949
80495W        W41784   0.959  43.925  13.348
80496W        W41785  36.391  34.427  11.878
80497W        W41786  28.672  10.160  12.518
80498W        W41787   6.300   6.858  10.521
80499W        W41788   7.756  27.957   5.235
80500W        W41789  43.403  31.450   3.387
80501W        W41790  41.819  13.150  13.011
80502W        W41791  25.472  30.128   1.870
80503W        W41792   7.731   6.227  14.489
80504W        W41793  35.402  26.165   0.901
80505W        W41794   6.313  26.614  11.085
80506W        W41795   0.451   0.904   1.269
80507W        W41796  12.216  28.946  12.025
80508W        W41797  21.112  19.197   1.799
80509W        W41798   5.736  13.817  11.537
80510W        W41799   1.847  21.053  10.924
80511W        W41800  29.027  31.588  11.972
80512W        W41801  21.253  12.725  13.365
80513W        W41802   1.371  19.666  13.354
80514W        W41803  27.011  33.054  13.806
80515W        W41804  10.847  43.984  11.986
80516W        W41805  44.482  40.926   3.182
80517W        W41806  29.632   9.855   3.842
80518W        W41807  25.972  24.647   5.295
80519W        W41808  35.423  34.557  14.956
80520W        W41809  32.029  22.231   2.674
80521W        W41810  14.589  15.141  10.968
80522W        W41811  18.718  21.156   3.652
80523W        W41812   4.246   8.805   3.688
80524W        W41813  24.042  21.135   2.252
80525W        W41814  39.918   7.366  14.012
80526W        W41815  18.767  37.558   1.814
80527W        W41816   1.774  40.856  14.876
80528W        W41817  37.072   7.215   3.379
80529W        W41818   9.392  40.512   2.839
80530W        W41819  29.648   9.772   4.260
80531W        W41820  38.393  21.521   4.642
80532W        W41821   7.715  26.179  12.065
80533W        W41822  10.704  18.678   3.639
80534W        W41823  37.952  34.003  10.537
80535W        W41824  34.010  36.875  13.450
80536W        W41825  12.311  39.484  10.584
80537W        W41826  21.535  21.593   1.894
80538W        W41827  28.070  21.643  12.006
80539W        W41828  28.555   4.415   0.885
80540W        W41829  23.586  16.722   3.337
80541W        W41830  22.660   1.839  14.941
80542W        W41831  37.343  32.114  11.436
80543W        W41832  10.659  39.924   0.324
80544W        W41833  38.453   9.865  13.972
80545W        W41834  16.075  11.855  11.949
80546W        W41835  26.477   6.424   9.921
80547W        W41836  35.436  34.886   0.907
80548W        W41837  15.710   6.919  12.051
80549W        W41838   8.171  39.364   4.788
80550W        W41839  44.302   6.427  12.837
80551W        W41840  16.688  37.560  14.447
80552W        W41841  17.146  32.495  11.101
80553W        W41842  17.223   5.193   1.836
80554W        W41843   7.410  17.727  14.302
80555W        W41844  26.495   3.833   2.384
80556W        W41845  10.336  17.278   5.268
80557W        W41846  42.790  37.519  13.858
80558W        W41847  32.936  11.772  12.044
80559W        W41848  16.622   4.340   3.342
80560W        W41849  28.033  42.991   5.143
80561W        W41850  42.410  12.620  12.852
80562W        W41851  26.698  30.952  14.777
80563W        W41852  18.091  22.207  11.378
80564W        W41853  20.062  31.548   0.942
80565W        W41854  15.190   2.732   4.824
80566W        W41855  23.181  42.797  12.477
80567W        W41856  19.545  42.499   3.683
80568W        W41857  22.653  39.924   4.132
80569W        W41858  14.748  39.494  14.295
80570W        W41859  11.135   7.272  12.844
80571W        W41860   6.328  29.135  14.909
80572W        W41861  16.591  24.015  14.766
80573W        W41862  16.250  20.732   2.382
80574W        W41863   6.277  27.631   2.374
80575W        W41864  18.268   6.367   3.755
80576W        W41865  25.112  18.679   0.917
80577W        W41866  11.713  38.544   1.909
80578W        W41867   3.810  10.634   2.793
80579W        W41868  22.713  19.607  14.969
80580W        W41869   1.382  14.723   4.652
80581W        W41870  26.576  28.088  14.779
80582W        W41871  40.822  27.040   0.803
80583W        W41872  44.814  21.519  11.076
80584W        W41873  42.344   2.870   2.374
80585W        W41874  21.240  33.487   1.814
80586W        W41875  26.032  38.943  12.937
80587W        W41876  16.162   4.367   1.241
80588W        W41877  43.845  12.729   1.385
80589W        W41878  31.570  21.164   3.163
80590W        W41879   8.166   1.347  11.373
80591W        W41880  13.658  30.026  13.539
80592W        W41881  36.449  16.191  13.029
80593W        W41882  43.784  43.464   4.115
80594W        W41883  24.564   6.188   1.377
80595W        W41884  40.334  29.103   3.171
80596W        W41885  44.857  19.714   3.840
80597W        W41886  35.360  22.013   0.326
80598W        W41887  20.104  19.682  12.080
80599W        W41888   8.823   8.760  13.818
80600W        W41889  40.461  20.601   3.371
80601W        W41890  44.277  41.324   1.922
80602W        W41891  11.747  12.688  13.453
80603W        W41892  42.525  38.532   0.755
80604W        W41893   3.245  44.928  14.792
80605W        W41894  30.051  40.490  14.852
80606W        W41895  11.326   0.955  11.581
80607W        W41896  41.416  14.285   0.475
80608W        W41897  25.150   4.419  11.524
80609W        W41898   5.269  19.668   3.755
80610W        W41899  38.899  11.338   0.913
80611W        W41900  23.588  28.155  11.939
80612W        W41901  42.290   3.263   2.765
80613W        W41902  41.981  20.652  12.567
80614W        W41903  37.970  12.248   4.148
80615W        W41904  36.861  24.201  10.435
80616W        W41905  12.130  19.704  12.006
80617W        W41906   5.713   9.815  12.994
80618W        W41907  33.562  17.669  13.356
80619W        W41908  29.159  44.302  11.116
80620W        W41909  18.651  35.405  10.536
80621W        W41910  41.416  41.496  14.812
80622W        W41911  29.137  29.119  14.856
80623W        W41912  37.894  31.053   0.808
80624W        W41913  21.122   1.314  12.399
80625W        W41914   1.326  14.666   0.960
80626W        W41915  21.247  26.191  11.049
80627W        W41916  13.617  24.696  12.356
80628W        W41917  39.934  25.633   1.784
80629W        W41918  17.229  11.653   0.874
80630W        W41919  33.998  31.145  14.895
80631W        W41920   5.772  13.279  12.969
80632W        W41921  21.035   4.781   0.902
80633W        W41922  16.269   8.770  13.474
80634W        W41923   9.217  28.945   2.801
80635W        W41924  16.255  42.931  14.860
80636W        W41925   7.290  18.759  12.453
80637W        W41926  12.243  17.228   0.921
80638W        W41927  41.370  24.612   3.185
80639W        W41928  39.401  34.979   0.465
80640W        W41929  33.077  35.409  13.385
80641W        W41930  13.122  14.117  13.429
80642W        W41931  19.552  31.086   1.296
80643W        W41932  20.605  19.190  13.505
80644W        W41933   0.489  13.823   1.739
80645W        W41934   3.274  18.098   0.916
80646W        W41935  43.899  11.699  11.393
80647W        W41936  16.639  41.508   0.758
80648W        W41937  32.544  36.091   2.749
80649W        W41938  31.990  29.038   1.804
80650W        W41939   7.195  41.468  14.911
80651W        W41940  38.985  16.687  10.911
80652W        W41941   8.348  22.550  11.448
80653W        W41942  21.064  28.036  14.953
80654W        W41943  23.068   5.910  12.896
80655W        W41944  10.769  10.164  11.381
80656W        W41945   3.270   3.368   2.240
80657W        W41946   8.788   5.773   4.315
80658W        W41947  15.121  37.046  12.453
80659W        W41948  30.031  44.804  12.442
80660W        W41949  41.877   9.361   0.817
80661W        W41950  43.930  38.904  11.545
80662W        W41951  18.223  42.900   2.337
80663W        W41952   5.841   2.319   4.659
80664W        W41953   8.766  35.053   1.288
80665W        W41954   2.303  18.569   3.189
80666W        W41955  41.466  23.118  13.960
80667W        W41956   8.373  23.567   0.291
80668W        W41957  30.423   4.939   0.745
80669W        W41958  27.600  15.194   1.854
80670W        W41959  16.759   0.938   1.443
80671W        W41960  41.411  21.636  13.921
80672W        W41961  32.405  43.997   2.281
80673W        W41962  22.104  44.997   3.830
80674W        W41963  21.071  13.824  13.802
80675W        W41964  40.803  14.179  11.439
80676W        W41965  25.576  15.300  10.580
80677W        W41966  14.107  29.432   1.906
80678W        W41967   5.815  33.914   3.151
80679W        W41968  30.939  31.478  12.527
80680W        W41969  34.087  24.661   1.391
80681W        W41970   4.243  21.203  14.286
80682W        W41971  17.177  33.531   4.623
80683W        W41972  37.037   6.792  14.786
80684W        W41973  26.160  41.360   0.940
80685W        W41974  31.598  12.648   1.811
80686W        W41975  15.143   5.724   0.366
80687W        W41976   2.854  22.197   2.875
80688W        W41977  19.689   4.227   0.436
80689W        W41978   0.392  24.515   0.906
80690W        W41979  37.568  42.966  12.374
80691W        W41980  39.917   6.244   3.762
80692W        W41981  22.010  16.608  11.099
80693W        W41982  26.143  38.051  13.881
80694W        W41983  24.084  21.246  12.999
80695W        W41984  11.223  18.622   4.726
80696W        W41985  32.398  21.711  11.504
80697W        W41986  38.975  28.547   2.385
80698W        W41987  22.548  38.938  14.961
80699W        W41988  16.245   7.879  10.914
80700W        W41989  25.572   9.326  12.412
80701W        W41990   7.689  28.606   5.232
80702W        W41991  18.645  20.644   0.255
80703W        W41992  12.736  31.445   0.810
80704W        W41993   0.360   6.754  14.858
80705W        W41994  30.509  13.612  11.072
80706W        W41995  24.207  16.651  14.801
80707W        W41996  17.666  19.248   1.410
80708W        W41997  39.012  23.190  10.923
80709W        W41998  25.985  20.710   0.281
80710W        W41999  40.883   8.881  14.916
80711W        W42000  33.066  36.474   2.690
80712W        W42001  27.976  41.394   1.430
80713W        W42002  26.053   6.756  12.438
80714W        W42003  37.070  34.372  11.032
80715W        W42004  21.123  12.620   0.389
80716W        W42005  19.663  28.459   4.694
80717W        W42006  33.922   1.783  10.490
80718W        W42007  42.816  27.072  14.982
80719W        W42008  20.096  26.608   0.452
80720W        W42009   1.892  36.397  14.277
80721W        W42010   5.767  11.623   2.871
80722W        W42011  43.785  34.446   1.781
80723W        W42012   5.847   4.741   0.354
80724W        W42013  39.911  31.451  13.430
80725W        W42014   8.405  13.674   2.190
80726W        W42015  10.252  34.383   9.976
80727W        W42016  34.464  21.629   1.869
80728W        W42017  19.695   8.281   3.634
80729W        W42018  24.635  30.060   3.248
80730W        W42019  31.983  29.437   3.187
80731W        W42020   6.901  36.537  12.092
80732W        W42021  30.006  38.005   1.694
80733W        W42022  40.007  18.083  10.150
80734W        W42023  12.154  20.696   1.701
80735W        W42024  21.564  12.799   1.220
80736W        W42025   7.265  16.602  14.019
80737W        W42026   9.233  13.158  13.897
80738W        W42027  28.079   0.329  14.437
80739W        W42028   9.176  12.667   2.697
80740W        W42029  31.603  29.145   2.861
80741W        W42030  25.676  17.662   0.474
80742W        W42031   8.166  29.052   4.294
80743W        W42032  19.634   1.384   2.754
80744W        W42033  35.459  32.564   4.626
80745W        W42034  34.400   7.388   3.722
80746W        W42035   0.777  29.173   2.783
80747W        W42036   0.798   2.461   0.265
80748W        W42037  43.331  21.630   4.721
80749W        W42038   7.884  31.509  10.586
80750W        W42039  18.676  37.065  14.031
80751W        W42040  43.972  35.367  13.357
80752W        W42041  21.550  24.650   0.861
80753W        W42042  13.257  26.561  13.514
80754W        W42043  31.101  32.117   1.237
80755W        W42044  16.117  30.422  10.932
80756W        W42045  15.810  25.662   3.262
80757W        W42046  34.052  28.446   3.772
80758W        W42047  30.029  32.025  14.819
80759W        W42048   6.309  17.261  11.045
80760W        W42049  13.192  17.088   2.270
80761W        W42050  19.249  39.508  14.949
80762W        W42051  20.695   3.913   0.763
80763W        W42052  11.143  34.002   3.745
80764W        W42053  10.858  14.631  14.291
80765W        W42054  32.104  39.906   2.695
80766W        W42055  17.138  41.310   4.178
80767W        W42056  40.468  33.586   3.229
80768W        W42057  27.946  28.937  12.993
80769W        W42058  36.588  35.065   0.797
80770W        W42059  44.874  15.197   1.398
80771W        W42060  33.079  30.602   2.903
80772W        W42061  44.420   7.368   2.358
80773W        W42062   4.760   1.815  12.540
80774W        W42063   9.836  16.289   1.255
80775W        W42064  10.334  21.614   1.254
80776W        W42065   1.756  25.192  13.400
80777W        W42066  33.932  41.015  11.540
80778W        W42067   5.374  35.461   4.143
80779W        W42068  38.963  18.721  10.514
80780W        W42069  23.115  36.882  14.950
80781W        W42070  35.873  38.016   0.473
80782W        W42071   4.853  15.592   9.965
80783W        W42072  14.673  22.744   4.682
80784W        W42073  36.485  12.192   1.221
80785W        W42074  38.474   0.849  12.473
80786W        W42075  26.554  12.726  12.453
80787W        W42076  13.280  17.243   1.316
80788W        W42077  33.620  10.741  13.383
80789W        W42078   6.692   3.946  11.100
80790W        W42079  17.263  44.434   1.325
80791W        W42080  25.036  26.703   3.253
80792W        W42081  39.815  24.205   4.711
80793W        W42082  43.474  21.081   0.370
80794W        W42083  14.278  34.560   4.736
80795W        W42084  44.343  15.246   1.231
80796W        W42085  22.138  37.345  13.031
80797W        W42086  44.281  19.059  13.017
80798W        W42087  25.216  39.949  13.532
80799W        W42088  29.127   9.741  13.471
80800W        W42089  37.899  19.099  12.341
80801W        W42090  17.204  18.228  11.984
80802W        W42091  29.522  43.432   1.372
80803W        W42092  13.282  31.439   2.834
80804W        W42093  41.428  33.558  13.034
80805W        W42094  44.995  16.267  11.434
80806W        W42095  30.956  27.122   2.217
80807W        W42096   0.929  44.376  11.576
80808W        W42097   6.414  40.315   2.684
80809W        W42098  29.027  11.681  11.455
80810W        W42099  36.588  32.885   0.251
80811W        W42100   4.747  31.135  10.156
80812W        W42101  28.013  44.973   3.785
80813W        W42102  23.073  21.715   1.886
80814W        W42103  20.658  43.432   1.793
80815W        W42104  16.567   9.325   3.829
80816W        W42105  29.923  34.877   0.344
80817W        W42106  15.680  12.764   2.848
80818W        W42107  29.468  21.023  10.555
80819W        W42108  24.694  11.169  11.409
80820W        W42109   2.395   8.379  10.581
80821W        W42110   8.179  34.392   3.205
80822W        W42111  36.028  28.561   0.766
80823W        W42112  38.440  41.436  13.001
80824W        W42113   0.367  41.979   4.234
80825W        W42114   4.750  13.161  11.555
80826W        W42115  25.488   4.845  14.499
80827W        W42116   7.837  13.795  13.863
80828W        W42117  37.850   9.153   3.740
80829W        W42118  17.136  44.867   2.901
80830W        W42119  27.486  16.598  10.916
80831W        W42120  35.400  14.759   0.750
80832W        W42121  25.034  42.503   4.660
80833W        W42122  11.166  31.472   3.293
80834W        W42123   4.319  37.002   1.272
80835W        W42124  33.034  26.580   2.888
80836W        W42125  27.593  25.566  11.933
80837W        W42126  29.144   4.742  14.826
80838W        W42127  44.391  35.509  10.585
80839W        W42128  29.638   7.817  14.369
80840W        W42129  37.493  24.186   2.770
80841W        W42130   3.402  22.530   0.944
80842W        W42131  37.383   6.412   1.391
80843W        W42132  33.069  36.531  10.409
80844W        W42133  10.344  43.950   2.256
80845W        W42134  26.988  27.954  12.349
80846W        W42135  40.843  30.611  12.031
80847W        W42136  42.018  27.126   3.717
80848W        W42137  33.064   0.259   2.342
80849W        W42138   5.412  12.622   2.202
80850W        W42139  19.248  44.479   4.230
80851W        W42140   5.250  34.530  12.567
80852W        W42141   0.764  12.669  13.912
80853W        W42142  36.970  31.583  12.914
80854W        W42143  44.440  31.517  10.524
80855W        W42144   0.944  27.018  11.124
80856W        W42145  16.288  33.385  10.902
80857W        W42146   1.402  30.513  10.507
80858W        W42147   4.245  35.578  11.490
80859W        W42148   8.362  30.654  14.909
80860W        W42149  15.730  32.082  13.354
80861W        W42150   6.921  38.460   2.744
80862W        W42151  33.540  25.631   0.260
80863W        W42152  38.011  30.528  14.890
80864W        W42153  37.021  33.029   1.838
80865W        W42154  30.445  35.095   3.841
80866W        W42155  37.360  24.020   4.338
80867W        W42156  16.254  35.949  12.828
80868W        W42157  28.954  37.995  11.558
80869W        W42158  23.100  42.805  13.930
80870W        W42159  16.603  34.553   4.234
80871W        W42160   3.882  22.165  14.856
80872W        W42161  16.268  39.316  11.990
80873W        W42162  16.253  27.607  13.350
80874W        W42163  24.648  33.944  14.887
80875W        W42164  29.635   5.833  10.948
80876W        W42165  37.458  15.755   1.312
80877W        W42166  17.152   0.449   2.846
80878W        W42167  39.985  22.046  14.825
80879W        W42168  27.131  21.173   3.813
80880W        W42169  43.424  31.023  12.355
80881W        W42170  35.528  24.683  10.546
80882W        W42171  25.005  33.984  13.956
80883W        W42172  12.264   8.347  12.522
80884W        W42173  25.633  33.532   4.748
80885W        W42174  43.951   3.295   4.283
80886W        W42175  18.578  39.919  11.045
80887W        W42176   9.801  27.562  13.838
80888W        W42177   3.384  34.389   1.212
80889W        W42178  26.647   5.697  13.904
80890W        W42179  27.972  38.930   3.835
80891W        W42180  39.353  36.591   0.304
80892W        W42181  14.336  35.051  13.504
80893W        W42182  30.995  38.991  13.429
80894W        W42183  27.059  14.325   4.294
80895W        W42184   4.870  26.636  13.318
80896W        W42185  23.664   9.849   0.436
80897W        W42186  22.708  29.086   3.813
80898W        W42187  25.194   9.171   0.939
80899W        W42188  32.979  27.540   1.845
80900W        W42189  40.019  31.974  12.949
80901W        W42190  23.571  10.656  12.467
80902W        W42191  43.328   0.275  10.969
80903W        W42192  35.525  37.956   2.254
80904W        W42193  32.108  11.322   1.380
80905W        W42194  15.694   8.253  13.924
80906W        W42195  17.656  32.033  13.341
80907W        W42196  38.058  14.122  10.564
80908W        W42197  41.999   0.807  13.820
80909W        W42198  31.909  33.411   0.271
80910W        W42199  39.493  14.700   3.318
80911W        W42200  23.645  41.874  12.825
80912W        W42201  24.611  13.713  13.474
80913W        W42202  32.412  28.107   1.731
80914W        W42203  36.412  12.128   3.356
80915W        W42204  36.535  40.958   0.849
80916W        W42205  29.649  18.552   5.088
80917W        W42206  22.094  30.951   0.375
80918W        W42207   8.826   7.210   2.787
80919W        W42208  38.833   0.878   3.693
80920W        W42209  17.744  26.578  13.852
80921W        W42210  12.838  22.175  14.011
80922W        W42211  17.573  12.674   4.598
80923W        W42212  25.576   0.312   2.834
80924W        W42213  21.143  27.494  10.594
80925W        W42214  16.095  15.269  13.479
80926W        W42215  11.793  22.722   4.268
80927W        W42216  12.695  37.512  11.454
80928W        W42217  17.228  30.914  13.316
80929W        W42218  26.577  33.482   1.451
80930W        W42219  42.876   2.842  14.428
80931W        W42220  11.816   8.220  11.914
80932W        W42221  27.106  15.823   0.842
80933W        W42222  23.568  26.022   1.246
80934W        W42223  29.594   3.449  13.962
80935W        W42224  34.050  42.025  12.830
80936W        W42225   5.384  24.723  14.942
80937W        W42226  38.563  14.667  13.973
80938W        W42227  44.789  23.008  10.953
80939W        W42228  38.960  23.109  13.051
80940W        W42229  40.927  23.711   3.763
80941W        W42230  35.583   8.746   4.837
80942W        W42231  31.474  32.121   3.157
80943W        W42232  41.995   8.363  11.414
80944W        W42233  33.931  38.903   1.918
80945W        W42234  23.036  28.940   2.274
80946W        W42235  41.040  42.913  14.425
80947W        W42236  41.434   3.444   2.838
80948W        W42237   7.303  32.601   4.634
80949W        W42238   1.302  13.788  10.484
80950W        W42239  39.941   4.913  14.348
80951W        W42240   6.365  13.653  11.018
80952W        W42241  31.482  15.599   4.226
80953W        W42242  15.822  40.009   4.829
80954W        W42243  13.780  14.156  13.810
80955W        W42244  24.479  26.205   2.776
80956W        W42245   6.313  23.688  14.343
80957W        W42246  31.574  23.236   3.779
80958W        W42247  41.932  40.801   1.400
80959W        W42248  18.101  39.041   0.836
80960W        W42249   8.197  13.605  11.882
80961W        W42250  22.677  11.826   3.844
80962W        W42251  35.532  36.487   3.232
80963W        W42252  34.000  37.044  12.980
80964W        W42253  15.749  23.712  11.080
80965W        W42254  14.715   7.256  10.420
80966W        W42255   8.805  25.005  13.459
80967W        W42256  18.577   3.766   1.222
80968W        W42257  14.726   3.303   0.354
80969W        W42258  36.444  16.077  14.761
80970W        W42259   2.398  10.284   4.184
80971W        W42260   9.154  22.707   4.710
80972W        W42261  30.599   8.194  14.864
80973W        W42262  11.747  15.165   2.850
80974W        W42263   5.748  39.491  11.976
80975W        W42264   0.351  39.992  11.014
80976W        W42265  16.280  17.304   3.712
80977W        W42266  24.979  25.647   3.826
80978W        W42267  14.663  31.626  14.488
80979W        W42268  37.836  39.872  12.835
80980W        W42269  15.287  22.117  11.029
80981W        W42270   0.477  14.314  11.920
80982W        W42271  12.746  39.441  11.411
80983W        W42272  28.141  11.227   4.785
80984W        W42273  37.505  41.348  12.375
80985W        W42274  14.799  14.688   1.746
80986W        W42275   8.767  20.648   4.683
80987W        W42276  33.540  19.756  12.432
80988W        W42277  21.050   8.710   1.855
80989W        W42278  29.966  18.296   1.365
80990W        W42279   4.257  26.477  11.385
80991W        W42280  26.077  12.757  12.979
80992W        W42281   9.173   7.772  12.888
80993W        W42282  36.391   6.723  14.896
80994W        W42283   6.901  19.639   0.423
80995W        W42284  40.936  16.226  11.553
80996W        W42285  29.602  38.405   2.407
80997W        W42286  15.824   1.911   4.639
80998W        W42287  25.693  26.191  12.971
80999W        W42288  18.184  12.846  11.991
81000W        W42289   0.969   5.866   4.334
81001W        W42290  16.205  38.362   2.749
81002W        W42291   3.310  24.616   3.640
81003W        W42292   9.301  10.175  14.835
81004W        W42293   9.699  17.632  11.945
81005W        W42294  41.431  32.444   2.340
81006W        W42295  34.541  26.045   2.759
81007W        W42296   4.269  28.010  12.355
81008W        W42297   4.273  39.404  14.495
81009W        W42298   2.777  37.490  14.908
81010W        W42299  12.130   2.439   0.785
81011W        W42300  33.946  36.505   2.732
81012W        W42301  14.645   3.857   5.096
81013W        W42302   1.951  16.604   2.729
81014W        W42303  15.225  40.053  13.951
81015W        W42304  38.003  21.136  14.464
81016W        W42305  33.076  20.232   2.360
81017W        W42306  12.727  30.982  11.978
81018W        W42307   1.808  12.621  11.607
81019W        W42308  42.288  42.789   1.928
81020W        W42309   9.184  25.003   0.801
81021W        W42310  21.730  24.064  14.488
81022W        W42311  40.479  18.578  11.053
81023W        W42312  33.456  41.431   2.408
81024W        W42313  35.399  33.547  11.470
81025W        W42314  37.403  21.201   0.848
81026W        W42315   5.428  44.905  12.090
81027W        W42316  11.644   8.234   2.774
81028W        W42317   8.818  14.236   3.677
81029W        W42318   2.721  15.752   1.420
81030W        W42319  17.655  41.916   1.772
81031W        W42320   0.284  33.106  12.088
81032W        W42321  21.623   6.762   2.184
81033W        W42322  11.331  26.617   1.842
81034W        W42323  22.201  39.446   1.317
81035W        W42324  27.058  30.993  10.587
81036W        W42325  11.653  24.004   2.899
81037W        W42326  43.949  32.559  11.448
81038W        W42327  38.971  18.215  12.846
81039W        W42328  10.264  38.344  12.018
81040W        W42329  23.154   4.728   1.700
81041W        W42330   2.955  34.094  13.924
81042W        W42331  25.559  13.670   0.891
81043W        W42332  29.444  22.129   2.252
81044W        W42333  30.957   4.239  12.382
81045W        W42334  13.710   0.869  12.833
81046W        W42335  14.173  20.139   0.286
81047W        W42336  17.218  36.897   4.744
81048W        W42337   2.330   0.905   0.771
81049W        W42338  14.744   3.320   5.741
81050W        W42339  18.697  16.805   4.804
81051W        W42340   5.193  18.176   3.810
81052W        W42341   8.338  21.597  10.551
81053W        W42342   9.159  17.297  10.441
81054W        W42343  12.317  38.006  11.085
81055W        W42344  25.074  15.733  13.867
81056W        W42345  14.240  31.041  13.907
81057W        W42346  14.690  11.148  12.086
81058W        W42347  20.718  35.477  12.861
81059W        W42348  40.352  26.657   0.442
81060W        W42349  34.042  40.449  12.009
81061W        W42350   9.876  17.199   1.726
81062W        W42351   1.470  13.762  10.974
81063W        W42352  27.655   0.403  11.892
81064W        W42353  29.563  14.184  10.067
81065W        W42354  36.505  36.529   2.213
81066W        W42355  17.226  10.318   1.818
81067W        W42356  20.766  31.964  14.353
81068W        W42357  14.747  41.879  10.525
81069W        W42358  13.147  33.893   4.800
81070W        W42359  43.393  33.070  13.989
81071W        W42360   3.894  31.023   2.237
81072W        W42361  33.582  44.453   9.965
81073W        W42362  14.260  29.166   0.877
81074W        W42363   6.862   5.750   2.294
81075W        W42364  36.892  19.080   0.884
81076W        W42365   4.861  33.513   4.787
81077W        W42366   2.255  26.151  13.435
81078W        W42367  35.587  16.216  14.399
81079W        W42368  31.064  40.845  11.882
81080W        W42369   6.818  13.288   3.328
81081W        W42370   4.771  16.108  14.787
81082W        W42371  31.989  11.224   4.216
81083W        W42372  38.874  13.804   4.756
81084W        W42373   0.840  38.504  14.299
81085W        W42374   3.247  18.554  12.496
81086W        W42375  28.559  13.833  10.449
81087W        W42376   9.246  18.653   3.755
81088W        W42377  41.018  28.660  14.414
81089W        W42378  11.161   5.382  13.459
81090W        W42379  17.712  21.626   3.270
81091W        W42380  34.530  41.533   1.793
81092W        W42381  38.826  19.582  14.353
81093W        W42382  39.368  11.132   3.704
81094W        W42383  37.881   1.476   0.779
81095W        W42384   6.368  33.602   0.929
81096W        W42385  15.083  11.210   1.730
81097W        W42386   8.777  11.273   4.275
81098W        W42387  33.415  16.253  14.332
81099W        W42388  16.775  27.545   3.199
81100W        W42389   6.330  24.484  13.959
81101W        W42390  13.769   8.389  11.870
81102W        W42391  32.914   5.265   0.814
81103W        W42392  13.212  26.072  14.337
81104W        W42393  13.327  37.962  14.872
81105W        W42394   8.184  24.054   2.827
81106W        W42395  25.708  12.647  13.368
81107W        W42396  42.323  17.799   3.643
81108W        W42397  39.347  42.896   3.186
81109W        W42398   3.843   5.743  10.044
81110W        W42399   1.873  33.569   2.739
81111W        W42400   7.296  34.467  10.551
81112W        W42401  12.658   3.353   4.814
81113W        W42402  29.437  27.053  13.366
81114W        W42403  12.281   8.317   0.387
81115W        W42404  39.015   9.770  10.939
81116W        W42405  44.934  42.492   2.780
81117W        W42406  33.579  19.633  11.904
81118W        W42407  14.257  14.760  11.005
81119W        W42408  24.562  23.570   3.178
81120W        W42409  23.679  22.078   2.295
81121W        W42410  21.715  35.604  14.337
81122W        W42411  29.001  13.807  11.024
81123W        W42412  32.106  25.195   3.866
81124W        W42413  26.053  30.958   2.874
81125W        W42414  32.061  23.712  10.154
81126W        W42415   4.699  28.484  13.849
81127W        W42416  43.356  42.951   0.844
81128W        W42417   1.399   3.950  13.030
81129W        W42418   0.969   7.215   1.816
81130W        W42419  41.354  15.686  12.924
81131W        W42420  10.762  30.918  12.465
81132W        W42421  35.546  28.948   3.255
81133W        W42422  37.495  40.942   4.120
81134W        W42423  17.196   6.745   1.930
81135W        W42424  30.446  25.502   3.231
81136W        W42425  29.957   0.807   1.336
81137W        W42426  34.047  19.606   0.788
81138W        W42427   0.379  14.770  13.374
81139W        W42428  40.547  16.309  13.868
81140W        W42429  27.951  26.986   1.869
81141W        W42430  29.652  22.670   9.942
81142W        W42431  18.283  17.689  13.373
81143W        W42432  29.564   9.651  14.922
81144W        W42433   2.834  17.621  11.413
81145W        W42434  10.746  38.077  13.983
81146W        W42435  16.772  42.864  14.900
81147W        W42436  36.469  18.701  11.554
81148W        W42437  18.130  11.746   3.678
81149W        W42438  21.685  38.470  13.357
81150W        W42439   7.249  10.324  11.430
81151W        W42440  14.649  17.080  14.994
81152W        W42441  27.544  20.739  13.791
81153W        W42442  30.076  37.936  11.547
81154W        W42443  37.848  24.182   2.808
81155W        W42444   4.330  44.428  13.315
81156W        W42445  37.459  31.460  14.842
81157W        W42446  36.090  25.657  13.048
81158W        W42447  38.538   3.318  12.868
81159W        W42448  15.634   3.319   3.636
81160W        W42449  34.404  43.896  14.897
81161W        W42450   7.696   7.230   4.654
81162W        W42451  11.788   0.942  11.102
81163W        W42452  28.084  18.223   4.263
81164W        W42453  42.473  32.943  12.564
81165W        W42454  14.272   7.896   1.841
81166W        W42455   4.285  38.064   4.143
81167W        W42456  17.219  17.159  11.035
81168W        W42457  30.427  22.199  13.947
81169W        W42458  19.568  30.418  13.810
81170W        W42459  34.434  34.396  13.854
81171W        W42460  21.247   8.806   1.212
81172W        W42461  13.833  21.566   2.372
81173W        W42462  38.012  21.704   1.733
81174W        W42463  29.430   3.273   0.293
81175W        W42464  35.070   9.380   1.713
81176W        W42465   1.377  23.024   1.826
81177W        W42466  37.443  40.466   0.782
81178W        W42467  34.954  34.518   4.624
81179W        W42468  18.178   9.693  13.054
81180W        W42469  29.096  26.551   0.284
81181W        W42470  15.233  16.798   4.280
81182W        W42471  39.902  30.092   4.621
81183W        W42472  36.408   6.268  12.900
81184W        W42473  15.223  29.570  12.852
81185W        W42474  14.162   3.284  12.342
81186W        W42475  18.154  21.607  14.476
81187W        W42476  40.466  19.120   3.168
81188W        W42477  25.596  24.222   0.774
81189W        W42478  22.524   1.329   1.326
81190W        W42479   2.883  43.370   1.859
81191W        W42480  17.111  33.617  12.370
81192W        W42481  32.475   5.337   0.317
81193W        W42482  17.582  16.103   3.215
81194W        W42483   8.805  14.664   3.248
81195W        W42484  34.092  35.892  12.488
81196W        W42485  32.928  43.778  13.376
81197W        W42486  21.244  30.992  13.051
81198W        W42487  34.463  36.490  11.595
81199W        W42488  35.514  25.058   5.282
81200W        W42489  10.760  29.008   0.467
81201W        W42490  34.512  21.707  11.509
81202W        W42491  23.140  32.069   4.704
81203W        W42492  30.620  22.194   1.800
81204W        W42493  23.710  24.667  12.467
81205W        W42494  13.217  38.850   0.734
81206W        W42495  39.974   5.746   4.609
81207W        W42496  33.521   9.149   4.242
81208W        W42497   8.771  21.155  13.980
81209W        W42498  27.008  16.799  11.493
81210W        W42499  38.429   8.349   4.155
81211W        W42500  34.544  37.909  11.010
81212W        W42501  32.925   1.398   1.397
81213W        W42502  15.110  42.807   2.685
81214W        W42503  17.785  32.565   0.737
81215W        W42504  32.958   1.931   3.258
81216W        W42505  29.490  44.926  14.279
81217W        W42506   7.890   1.282   0.477
81218W        W42507  17.077  44.298   0.402
81219W        W42508  28.934  44.846  13.314
81220W        W42509  23.679  30.655  13.310
81221W        W42510  39.970  32.552  12.923
81222W        W42511  28.607  12.235   4.742
81223W        W42512   2.932  32.631  11.858
81224W        W42513  41.444  33.616  12.042
81225W        W42514  27.985  35.567   0.854
81226W        W42515  14.171  24.621   0.962
81227W        W42516  37.382  36.866   1.440
81228W        W42517  19.595  30.102   1.332
81229W        W42518   6.709  33.914   4.730
81230W        W42519  18.626  30.484   4.155
81231W        W42520  28.104  18.075   4.648
81232W        W42521  15.191  30.607   1.354
81233W        W42522  32.111  24.221   4.142
81234W        W42523   5.739  39.952  12.902
81235W        W42524   9.706   6.248   3.269
81236W        W42525  36.855  32.011  12.842
81237W        W42526  44.454  30.525  13.853
81238W        W42527   0.331  17.765   1.918
81239W        W42528   4.703  20.090   4.643
81240W        W42529   6.183  29.923  14.960
81241W        W42530   9.219   1.282  14.317
81242W        W42531  18.688  22.584   2.252
81243W        W42532  10.861   6.357   0.888
81244W        W42533   5.881  30.956   4.120
81245W        W42534  11.185  10.378  10.457
81246W        W42535  43.347  12.633   1.309
81247W        W42536  20.125  34.066  10.512
81248W        W42537  11.808   2.252   4.732
81249W        W42538  38.535   3.889   0.259
81250W        W42539  18.558  43.415  10.939
81251W        W42540  26.582   4.745  13.896
81252W        W42541  28.640  37.440  11.576
81253W        W42542  26.546   0.836  11.470
81254W        W42543  43.796  14.821   3.680
81255W        W42544  32.393  27.672   3.302
81256W        W42545  17.660   6.850   4.126
81257W        W42546   1.938  15.731  11.994
81258W        W42547  37.371   9.172  13.957
81259W        W42548  34.510   7.728   3.695
81260W        W42549  21.205   4.243  11.108
81261W        W42550  15.261  23.525   5.577
81262W        W42551   9.170  27.169   5.194
81263W        W42552   3.284  34.593  11.879
81264W        W42553  39.845  13.603  14.833
81265W        W42554  33.967  21.730   3.245
81266W        W42555  29.970  32.128  13.991
81267W        W42556  13.209  30.972  13.978
81268W        W42557  12.265  16.072  12.517
81269W        W42558   8.748   7.811   2.865
81270W        W42559  12.784  10.210   2.254
81271W        W42560  24.058  33.476   1.903
81272W        W42561   7.313  11.186  11.486
81273W        W42562   7.885   7.222   0.381
81274W        W42563   6.198  15.177  10.942
81275W        W42564  28.032  10.187  14.821
81276W        W42565  34.048  25.644   4.297
81277W        W42566  10.193  32.891  11.469
81278W        W42567  27.991   7.874  10.935
81279W        W42568  38.944  21.168   4.342
81280W        W42569   1.934  28.091   4.308
81281W        W42570   8.306  25.071  11.419
81282W        W42571  38.524  21.254   2.876
81283W        W42572  34.473   5.858  10.101
81284W        W42573  13.608  13.837  13.801
81285W        W42574  26.593   4.829  14.907
81286W        W42575   2.852  27.691  11.526
81287W        W42576   5.222  41.420  11.568
81288W        W42577  15.140   7.844  14.974
81289W        W42578  13.250  36.383   4.164
81290W        W42579   5.860  14.813   2.903
81291W        W42580  41.862  32.550   3.167
81292W        W42581  22.697  37.863   2.712
81293W        W42582   6.854   2.750  10.602
81294W        W42583  10.688  42.446  10.995
81295W        W42584  31.973  12.786  11.103
81296W        W42585   4.334  19.127   1.820
81297W        W42586  26.985  21.698  10.030
81298W        W42587  17.094  44.311   5.258
81299W        W42588  11.297  15.588   0.265
81300W        W42589  13.295   3.350   4.238
81301W        W42590  39.002  38.437   1.802
81302W        W42591  41.312  36.525   3.245
81303W        W42592  19.099  34.109   4.610
81304W        W42593  44.753   3.909   2.322
81305W        W42594   0.857  28.038   4.813
81306W        W42595  35.935  36.496  14.785
81307W        W42596   3.842  25.523   1.892
81308W        W42597  19.219  40.012  13.446
81309W        W42598   5.930  22.097   2.195
81310W        W42599  10.233  43.920  12.034
81311W        W42600  36.926  39.990   3.191
81312W        W42601   2.369   9.677   2.189
81313W        W42602  15.328  32.995   2.184
81314W        W42603  11.295  40.469  12.510
81315W        W42604  16.624  27.586  12.827
81316W        W42605  20.220   1.336   4.720
81317W        W42606  26.507  15.682  10.477
81318W        W42607  19.254   3.931  12.507
81319W        W42608  43.887  25.201  13.448
81320W        W42609  18.652  14.128   5.275
81321W        W42610  32.118  22.105  14.435
81322W        W42611  17.157  28.988   2.270
81323W        W42612  24.660  31.064  11.451
81324W        W42613  24.505  40.856  13.062
81325W        W42614  31.428  40.499   1.806
81326W        W42615   7.772  25.093   5.590
81327W        W42616  17.681  31.583   3.720
81328W        W42617  43.356  31.937   0.402
81329W        W42618  20.726  33.400   2.350
81330W        W42619  39.500  14.313   2.793
81331W        W42620  44.284  26.179  14.846
81332W        W42621   4.295  31.048  13.489
81333W        W42622  12.757  20.166  11.082
81334W        W42623  31.936  32.070  14.986
81335W        W42624  33.460  28.973   3.156
81336W        W42625   7.256  44.758  11.476
81337W        W42626   8.792   5.296  10.422
81338W        W42627   6.845  24.557  10.934
81339W        W42628  20.635  38.392  12.922
81340W        W42629   2.736  29.974  13.056
81341W        W42630  33.051  14.646  11.539
81342W        W42631   4.298  40.549   4.118
81343W        W42632  36.034  17.252   9.986
81344W        W42633  41.488  31.572   2.300
81345W        W42634  37.564  32.975  13.939
81346W        W42635  26.108   5.271   2.361
81347W        W42636  31.981   4.896   2.854
81348W        W42637  40.349  33.467   1.904
81349W        W42638  44.295  19.151   5.203
81350W        W42639  25.670  32.402   4.117
81351W        W42640  21.738  37.512  10.921
81352W        W42641   0.775  21.079  10.450
81353W        W42642   9.173  10.752  13.523
81354W        W42643   2.826  42.975  13.371
81355W        W42644  30.151  38.969   2.715
81356W        W42645  19.571  21.530   4.325
81357W        W42646  21.748  17.664  12.403
81358W        W42647  42.806  38.908   3.664
81359W        W42648  11.365  34.905   3.161
81360W        W42649   0.900  35.401   0.448
81361W        W42650  15.313   6.312  13.892
81362W        W42651  42.859   3.411  10.000
81363W        W42652  23.238   1.404  11.568
81364W        W42653   3.922  37.492   3.763
81365W        W42654  30.001  44.320   4.701
81366W        W42655   5.914  39.033  12.417
81367W        W42656  20.144  44.494   0.857
81368W        W42657  40.031   1.275   1.258
81369W        W42658  25.569  32.064  12.004
81370W        W42659   6.268  28.571  13.372
81371W        W42660  13.740  39.959  11.013
81372W        W42661  10.703  43.007  14.851
81373W        W42662  18.108  21.734   1.243
81374W        W42663  21.545  18.631   3.660
81375W        W42664  21.203  27.149  10.435
81376W        W42665  31.576  43.797   0.284
81377W        W42666   0.274  13.229  11.401
81378W        W42667  17.285  18.265  13.989
81379W        W42668  33.066  10.702   3.217
81380W        W42669  10.336  26.058  10.925
81381W        W42670  11.672  20.635  11.011
81382W        W42671  18.547   0.421  11.447
81383W        W42672   1.950  31.905   1.388
81384W        W42673  33.971  19.555   1.838
81385W        W42674  17.752   7.307  12.844
81386W        W42675  32.013  38.514  12.423
81387W        W42676  31.616  21.193   4.235
81388W        W42677  38.941   4.341   2.819
81389W        W42678  19.180  27.960   2.273
81390W        W42679  33.491  22.121  10.528
81391W        W42680  36.530  21.577   1.446
81392W        W42681  33.987  21.168   0.321
81393W        W42682  13.196  10.147  11.932
81394W        W42683   2.391  17.280   2.726
81395W        W42684   0.274  16.298  13.441
81396W        W42685  22.594  20.147  11.589
81397W        W42686   4.732   1.858  11.570
81398W        W42687   2.362  27.026  14.855
81399W        W42688  17.178   3.259   0.311
81400W        W42689  44.343   4.448   4.282
81401W        W42690  27.152   5.328   3.344
81402W        W42691  14.724  18.160   1.328
81403W        W42692   7.205   4.288   2.739
81404W        W42693  30.507  24.123  14.370
81405W        W42694  10.853   8.659   4.633
81406W        W42695  18.688   7.288  12.562
81407W        W42696  26.085  13.221   3.222
81408W        W42697  24.588  29.954   2.215
81409W        W42698   3.790  35.988  11.459
81410W        W42699  39.933   9.887   1.345
81411W        W42700  11.159  13.712  12.544
81412W        W42701  32.528  36.863   1.319
81413W        W42702  12.172  14.723  13.022
81414W        W42703  29.095   7.729  10.489
81415W        W42704  25.174  10.739   0.895
81416W        W42705  23.086   8.855  10.426
81417W        W42706  15.660  44.829   1.694
81418W        W42707   0.755  17.087   1.839
81419W        W42708   8.196  22.066   0.809
81420W        W42709  34.898   3.922   2.324
81421W        W42710  24.524  26.039  13.859
81422W        W42711  13.198  44.779   9.534
81423W        W42712  20.206   0.367  14.760
81424W        W42713  20.706  33.963   2.412
81425W        W42714  27.620  41.465  12.938
81426W        W42715   9.274  43.407  11.086
81427W        W42716  44.361  36.872  13.829
81428W        W42717  27.600  40.904   4.160
81429W        W42718  42.501  12.194   3.665
81430W        W42719  20.079  29.986   3.807
81431W        W42720  15.305  31.011  10.476
81432W        W42721  14.209  15.622   4.696
81433W        W42722  25.977  36.473   1.752
81434W        W42723   3.717   5.874   0.328
81435W        W42724   9.359  43.949  10.946
81436W        W42725  16.318   3.862  12.047
81437W        W42726   6.287   0.283   3.851
81438W        W42727  33.881  11.349   2.857
81439W        W42728   5.837  31.570   3.740
81440W        W42729  40.901  28.623  12.927
81441W        W42730  18.269  27.477   4.795
81442W        W42731  37.986  28.546   0.932
81443W        W42732  35.448   6.338  12.429
81444W        W42733  36.411  44.857   0.334
81445W        W42734  35.923  24.130  12.952
81446W        W42735  26.702  30.418   1.715
81447W        W42736  26.017  36.378   4.300
81448W        W42737  28.005  37.066  11.575
81449W        W42738  12.707  14.736  14.892
81450W        W42739  25.053  30.053   4.631
81451W        W42740  13.701  17.190  13.478
81452W        W42741  30.526  17.118  11.885
81453W        W42742   8.392  28.449  11.105
81454W        W42743  33.964  29.430   1.755
81455W        W42744  41.905   1.911  13.307
81456W        W42745   5.265  33.938  14.906
81457W        W42746  36.537  18.578  11.121
81458W        W42747  33.105  41.965  12.527
81459W        W42748  33.509  39.922   4.305
81460W        W42749  23.562  13.292   4.627
81461W        W42750   6.281  39.530   3.260
81462W        W42751   6.371  14.740  13.048
81463W        W42752  15.238  28.608   1.769
81464W        W42753   2.405  28.564   1.225
81465W        W42754   9.165  33.537  14.438
81466W        W42755  18.661   4.777   3.819
81467W        W42756  26.641  17.106  11.856
81468W        W42757  20.044  15.639  11.055
81469W        W42758   3.424  17.600  12.945
81470W        W42759  43.358  31.072   4.761
81471W        W42760  37.049  21.660   0.384
81472W        W42761  17.214   2.247   0.354
81473W        W42762   6.814  21.650  11.374
81474W        W42763  24.059  17.122  12.462
81475W        W42764   6.243  44.946  14.310
81476W        W42765  41.521   3.889  13.398
81477W        W42766  41.829  39.912  12.938
81478W        W42767   1.389  41.882   0.909
81479W        W42768  20.178   6.814   4.330
81480W        W42769   0.287  44.364  14.477
81481W        W42770  33.471  29.520   4.812
81482W        W42771  37.986  37.932   2.827
81483W        W42772  43.346   0.966   2.829
81484W        W42773   3.917  16.072   3.861
81485W        W42774  11.848   5.879  10.616
81486W        W42775  42.806  28.982   2.837
81487W        W42776  17.769  37.069   0.825
81488W        W42777  11.128  21.173   0.263
81489W        W42778  17.264  17.631  14.994
81490W        W42779  18.639  10.364   9.928
81491W        W42780  35.048   1.287   4.123
81492W        W42781  23.149   5.349   0.284
81493W        W42782  25.699  28.119  12.436
81494W        W42783   9.703  13.338   1.329
81495W        W42784  26.645  44.756  10.984
81496W        W42785  28.510  44.818  11.479
81497W        W42786  34.430   8.736   1.345
81498W        W42787  40.475  20.076  11.999
81499W        W42788  28.649  12.742  12.933
81500W        W42789   9.303   9.818  14.340
81501W        W42790  42.494  21.141   1.420
81502W        W42791  11.197  43.865   9.983
81503W        W42792  14.758  34.571  11.592
81504W        W42793  39.508   6.329  13.539
81505W        W42794  37.496   2.955   0.740
81506W        W42795  28.490  30.137  12.371
81507W        W42796   7.305  42.513   4.837
81508W        W42797   6.327  10.360   1.227
81509W        W42798  14.220  30.949  13.396
81510W        W42799  16.687  42.834   9.955
81511W        W42800  13.634  13.308  13.497
81512W        W42801  12.226  38.510   4.183
81513W        W42802  41.435  14.261  13.948
81514W        W42803  35.072  38.830  13.493
81515W        W42804  39.523   8.782  13.468
81516W        W42805  38.992  33.997  10.537
81517W        W42806   7.318  24.199  11.455
81518W        W42807  21.196  24.478   3.329
81519W        W42808   2.438  28.968   1.804
81520W        W42809  10.831  22.525   0.843
81521W        W42810   3.919   7.195   3.340
81522W        W42811   5.795  19.629  12.853
81523W        W42812  39.886  13.729  12.425
81524W        W42813  22.045  32.552   2.785
81525W        W42814  38.361   2.744   1.403
81526W        W42815  16.155   3.361   4.115
81527W        W42816   7.289  35.603   2.392
81528W        W42817  40.334   2.807  11.879
81529W        W42818  10.691   7.397   0.865
81530W        W42819  13.808   9.854   1.934
81531W        W42820  15.792   7.777   0.788
81532W        W42821  10.318  22.622  11.373
81533W        W42822  44.288  36.013   4.752
81534W        W42823  27.097  27.081  11.511
81535W        W42824   1.306  23.599  12.083
81536W        W42825  34.449  15.215   3.808
81537W        W42826  42.312   0.427   1.703
81538W        W42827  35.967  37.348   4.216
81539W        W42828  38.881  36.413   5.283
81540W        W42829  36.574  14.778  11.610
81541W        W42830  20.723  11.334  14.770
81542W        W42831   9.247  34.031   2.896
81543W        W42832  27.198   3.727  12.561
81544W        W42833  21.644  36.541   4.753
81545W        W42834  30.092   4.757   0.811
81546W        W42835   8.377  38.067   0.903
81547W        W42836   4.775  24.614  12.077
81548W        W42837  24.625  34.563  13.334
81549W        W42838   9.847  33.410  14.496
81550W        W42839  28.170   0.777   3.816
81551W        W42840  15.173  17.194   2.684
81552W        W42841  44.773  29.924   4.786
81553W        W42842  16.710  19.052   4.212
81554W        W42843  21.642  28.670  11.438
81555W        W42844  18.063  28.173  13.866
81556W        W42845  41.330  27.684   4.688
81557W        W42846   9.718   0.946  14.790
81558W        W42847   3.950  26.984  10.099
81559W        W42848  10.357   2.794   0.928
81560W        W42849  19.279  32.138   4.610
81561W        W42850   4.758  34.512   3.204
81562W        W42851  26.648  11.748  13.351
81563W        W42852  35.462  33.079   2.787
81564W        W42853  26.971  44.795   4.294
81565W        W42854  18.231  15.328  11.492
81566W        W42855  13.186  35.084   1.325
81567W        W42856   8.678   8.195   3.187
81568W        W42857  20.070  38.949  14.945
81569W        W42858   2.777  44.385   2.244
81570W        W42859  29.929  33.031   2.410
81571W        W42860  31.898   6.857   4.702
81572W        W42861  20.567   8.740   0.846
81573W        W42862  28.100  17.187   4.220
81574W        W42863  39.918  33.067   0.477
81575W        W42864   1.939  27.945  12.384
81576W        W42865  14.772   5.914   2.696
81577W        W42866  33.961  20.698  13.814
81578W        W42867  19.602  24.036  14.918
81579W        W42868   6.290  21.719  13.354
81580W        W42869   7.803  20.719   4.291
81581W        W42870  33.032  34.943   0.365
81582W        W42871  37.424  23.621   1.242
81583W        W42872   3.933  20.623  11.124
81584W        W42873  11.755  39.522   4.221
81585W        W42874  16.183  21.665  10.514
81586W        W42875  37.544   1.908  10.106
81587W        W42876   0.862  12.262   4.329
81588W        W42877  16.623  16.609  11.108
81589W        W42878  40.405   2.810  10.581
81590W        W42879  26.972  12.255  14.881
81591W        W42880  38.461  16.804   0.450
81592W        W42881  38.014  43.773   2.264
81593W        W42882  22.073  13.789  13.818
81594W        W42883  24.139  18.601  13.862
81595W        W42884  36.007  12.160   3.247
81596W        W42885  39.050   8.358  14.981
81597W        W42886  38.541  34.895   1.374
81598W        W42887  26.505   1.316  14.872
81599W        W42888  33.550  25.187   9.980
81600W        W42889  33.460   8.901  12.038
81601W        W42890   7.190  38.352  11.483
81602W        W42891  39.813  15.254   0.254
81603W        W42892  42.921  25.217   1.799
81604W        W42893  24.194  12.236  14.821
81605W        W42894  31.117   8.386   5.601
81606W        W42895   1.757  15.817   4.748
81607W        W42896   5.433  26.522   1.398
81608W        W42897  26.598  20.600  11.896
81609W        W42898  23.535   9.219  11.476
81610W        W42899  17.563  13.716   2.334
81611W        W42900   3.382  25.114   3.292
81612W        W42901  35.408   9.663  14.909
81613W        W42902  19.078   5.384  13.855
81614W        W42903  34.521  44.396   1.701
81615W        W42904   0.908   2.277  12.478
81616W        W42905  18.585   7.380  13.979
81617W        W42906  41.847   5.860   3.224
81618W        W42907  33.983  29.953   2.253
81619W        W42908  38.891  39.032  13.832
81620W        W42909   5.878  42.834   0.243
81621W        W42910  42.914  30.043   2.370
81622W        W42911  36.903  40.389  13.028
81623W        W42912  15.278  41.499  13.352
81624W        W42913  29.547   6.894  13.820
81625W        W42914  12.200  38.334  12.351
81626W        W42915  12.131  36.361  11.434
81627W        W42916  40.947  28.095  14.306
81628W        W42917  26.509  26.962   0.911
81629W        W42918  26.679  14.595  10.987
81630W        W42919   4.220  37.374   2.678
81631W        W42920  33.089  41.910  11.534
81632W        W42921  24.074  42.981  12.482
81633W        W42922  43.883   9.783  12.936
81634W        W42923  41.957  31.597   3.232
81635W        W42924  21.114  36.928  12.403
81636W        W42925   4.754   8.367   4.299
81637W        W42926  22.708   7.672   0.312
81638W        W42927  14.119   4.422  13.389
81639W        W42928  18.260  41.959  14.856
81640W        W42929  44.870   8.282   3.346
81641W        W42930  40.395  36.917   3.260
81642W        W42931  14.796  43.913   1.433
81643W        W42932  27.977  22.508   3.743
81644W        W42933  33.495  35.907   4.769
81645W        W42934  36.356  13.651   2.182
81646W        W42935   7.713  10.789  12.088
81647W        W42936   4.329  36.552   1.283
81648W        W42937  20.119  42.474  10.404
81649W        W42938  17.556   8.300   0.247
81650W        W42939   2.229  10.251  14.836
81651W        W42940  29.122   8.344  12.069
81652W        W42941  36.577  19.686   3.305
81653W        W42942  16.238   8.205  14.796
81654W        W42943  26.016   1.423   3.383
81655W        W42944  25.526  17.253   0.366
81656W        W42945  25.978  13.347  14.459
81657W        W42946  31.982  23.039  14.277
81658W        W42947  39.951  18.098   2.377
81659W        W42948  15.197  19.246  13.378
81660W        W42949   2.828  23.236  12.559
81661W        W42950  29.013   8.880   1.775
81662W        W42951  28.444  14.611  11.904
81663W        W42952  42.933  42.811   2.368
81664W        W42953   9.727  23.150   4.283
81665W        W42954  37.569  26.024   4.135
81666W        W42955  39.841   6.219   4.648
81667W        W42956  39.314   7.379  10.893
81668W        W42957  26.602  26.606   1.427
81669W        W42958  14.667   1.279   3.265
81670W        W42959  28.591  35.925   0.809
81671W        W42960  29.022  35.451  12.878
81672W        W42961   2.787  42.445  13.452
81673W        W42962  19.590  19.119   0.481
81674W        W42963  34.100   6.281   2.205
81675W        W42964   3.365  42.943   4.684
81676W        W42965  43.416  34.873   4.613
81677W        W42966  38.531  26.095  10.933
81678W        W42967  17.666  29.164   0.463
81679W        W42968  23.540   8.162  13.327
81680W        W42969  18.250  44.821   3.742
81681W        W42970   4.428  35.485   4.606
81682W        W42971  30.936   3.397  14.924
81683W        W42972   8.374  16.574   1.406
81684W        W42973  39.836  12.738   2.216
81685W        W42974  21.605   0.485   0.785
81686W        W42975  14.266  37.023   2.350
81687W        W42976  33.078  24.519  13.468
81688W        W42977  34.003   6.340  13.345
81689W        W42978  16.732  36.911  14.027
81690W        W42979   0.968  30.536   0.392
81691W        W42980  34.593  33.513  10.514
81692W        W42981  26.660   8.328   1.320
81693W        W42982  27.992  39.556   0.805
81694W        W42983  27.448  21.726   5.702
81695W        W42984   1.936  40.421  12.967
81696W        W42985  11.749  42.799   1.373
81697W        W42986  44.848  32.401   2.728
81698W        W42987  15.244  21.120  11.870
81699W        W42988  33.984  11.187  11.109
81700W        W42989  40.815  40.520  11.936
81701W        W42990   6.790   7.794  12.521
81702W        W42991   9.649  23.506   1.321
81703W        W42992  40.518  33.105  13.479
81704W        W42993   4.748  37.428   1.914
81705W        W42994   7.202  32.394   2.415
81706W        W42995  15.288  29.559  14.773
81707W        W42996  36.554   0.824   5.279
81708W        W42997  34.098  22.178  13.439
81709W        W42998  18.737  44.879  10.422
81710W        W42999  25.545   1.480  10.888
81711W        W43000  13.625  19.129   3.236
81712W        W43001  44.001  29.617   3.839
81713W        W43002  13.118  12.183   3.337
81714W        W43003  41.882  26.151  11.385
81715W        W43004  36.380  33.990  11.433
81716W        W43005  29.637   6.792   2.194
81717W        W43006  40.834  29.446  12.526
81718W        W43007  18.176  25.477   4.274
81719W        W43008  41.413  25.198  13.315
81720W        W43009  28.955  25.036  10.510
81721W        W43010  22.210   7.906  13.878
81722W        W43011   3.254   7.389  14.408
81723W        W43012   8.833   7.836  14.943
81724W        W43013  28.627  25.601   0.813
81725W        W43014  30.105  37.376   4.131
81726W        W43015  20.642  30.505  13.354
81727W        W43016  17.762  32.022  12.857
81728W        W43017  31.097  20.765   4.762
81729W        W43018  37.075   5.845  12.865
81730W        W43019  13.701   2.898   0.332
81731W        W43020   1.360   2.351  14.327
81732W        W43021  40.499  12.818   0.904
81733W        W43022  27.025  14.610   0.255
81734W        W43023  24.225  40.855   2.768
81735W        W43024  35.896  22.212   2.852
81736W        W43025   3.306  24.679   3.371
81737W        W43026  25.077  41.031   1.374
81738W        W43027   6.267  11.802   1.788
81739W        W43028  13.268  39.388  10.517
81740W        W43029  13.297  22.730   0.409
81741W        W43030   9.207  32.604  11.397
81742W        W43031  27.682   2.865   4.736
81743W        W43032  23.722  20.196   4.727
81744W        W43033  24.228   3.898  12.871
81745W        W43034   4.747  22.536  14.993
81746W        W43035   1.910  11.298   2.673
81747W        W43036  41.340  20.118  12.847
81748W        W43037  21.155  14.305  10.951
81749W        W43038   1.279  41.409  14.004
81750W        W43039   4.811  40.900  12.863
81751W        W43040   1.878  23.627  12.886
81752W        W43041   9.826  13.617   3.273
81753W        W43042   0.391  18.253  13.989
81754W        W43043   6.835  35.542   1.712
81755W        W43044  25.138  35.036  13.881
81756W        W43045   8.221   0.402  12.503
81757W        W43046  27.950   5.369   1.755
81758W        W43047   6.420  14.336  12.881
81759W        W43048  14.628  31.550   3.689
81760W        W43049  11.247  14.830  13.510
81761W        W43050  37.432  44.430   5.232
81762W        W43051  24.591   2.722   3.712
81763W        W43052  33.993  34.402   2.680
81764W        W43053  31.501  42.428   4.695
81765W        W43054  43.507  18.757  14.846
81766W        W43055  40.397  44.435  12.895
81767W        W43056  36.524  44.982  12.484
81768W        W43057   4.393  18.238   4.349
81769W        W43058   9.194   9.880   1.915
81770W        W43059  38.333  35.995   3.229
81771W        W43060  14.603  18.599   1.241
81772W        W43061  43.974  13.636   2.884
81773W        W43062  10.777  28.561  11.393
81774W        W43063  21.725  10.326   1.706
81775W        W43064  32.414  12.351   3.780
81776W        W43065  22.015  10.384  14.932
81777W        W43066  23.083  19.122   4.641
81778W        W43067  13.835  14.664  12.952
81779W        W43068  28.643   3.722  12.052
81780W        W43069  41.896   4.243   1.220
81781W        W43070  33.073  19.181  13.816
81782W        W43071   4.841  42.898   3.191
81783W        W43072   8.320  14.333  14.882
81784W        W43073  31.617  43.475  12.510
81785W        W43074   1.316  39.850  13.833
81786W        W43075  38.392  27.975  11.520
81787W        W43076   3.798   2.236  12.010
81788W        W43077  36.439  41.517  14.412
81789W        W43078  27.942  39.956   1.289
81790W        W43079   4.830   1.279   3.277
81791W        W43080  20.672   8.348  14.504
81792W        W43081   9.250   2.906   2.870
81793W        W43082  33.394  41.378   9.986
81794W        W43083  13.265   4.840   5.243
81795W        W43084  39.507  17.144   1.225
81796W        W43085  11.821   7.242  12.937
81797W        W43086  35.861  16.800  14.985
81798W        W43087  29.056   1.356   3.189
81799W        W43088   5.739  39.548   0.392
81800W        W43089  36.856  24.984  12.359
81801W        W43090  37.049  14.655   3.168
81802W        W43091  35.365  42.468  12.844
81803W        W43092  20.711  28.979   3.168
81804W        W43093  12.297  37.830   1.243
81805W        W43094  11.169  16.703   3.217
81806W        W43095  32.109  20.613   4.235
81807W        W43096  10.309   3.837   5.161
81808W        W43097  33.601   9.787   0.791
81809W        W43098  10.816  31.522  10.030
81810W        W43099  26.664  14.242   0.768
81811W        W43100  43.983  39.332  13.987
81812W        W43101   1.281  19.603  10.620
81813W        W43102  20.742  14.291   3.157
81814W        W43103  40.868   0.274  11.026
81815W        W43104  40.433  14.106   1.865
81816W        W43105  13.831  33.094  13.547
81817W        W43106  12.685  40.443   3.252
81818W        W43107  21.635   7.909   1.781
81819W        W43108  40.362  37.452   2.841
81820W        W43109  16.254  19.073  14.801
81821W        W43110  23.096   8.727  12.017
81822W        W43111  30.560  12.202  11.918
81823W        W43112  20.209   3.392  12.349
81824W        W43113   9.166  12.740   0.308
81825W        W43114  14.285  44.349  13.532
81826W        W43115  33.074  14.593  13.800
81827W        W43116  40.376  27.502  11.076
81828W        W43117  10.661  18.567  13.361
81829W        W43118  34.015  33.045   0.790
81830W        W43119  36.048  33.985   3.231
81831W        W43120   1.971   1.833  11.403
81832W        W43121  37.989   0.419  11.979
81833W        W43122   9.854   6.753  14.812
81834W        W43123  18.634  40.038   0.253
81835W        W43124  41.396  36.504   0.333
81836W        W43125  10.246   0.318   9.436
81837W        W43126   0.327  15.685  12.994
81838W        W43127  25.097  14.740  10.453
81839W        W43128  16.651  43.971   0.331
81840W        W43129   1.839  13.696  12.348
81841W        W43130  14.097  41.329   4.181
81842W        W43131  24.578  33.036   0.421
81843W        W43132   3.266  30.024  13.451
81844W        W43133  31.092  26.468  12.507
81845W        W43134   4.413  29.143  14.947
81846W        W43135  38.874   8.207  14.339
81847W        W43136  42.411  24.599   3.236
81848W        W43137  19.731   6.902   3.260
81849W        W43138  38.430  16.216   5.786
81850W        W43139  22.600   6.907  10.577
81851W        W43140  19.585   8.249  12.879
81852W        W43141  26.677   7.297  11.402
81853W        W43142  21.724  31.584  11.543
81854W        W43143   7.912  27.565   1.757
81855W        W43144  28.995   1.952  13.796
81856W        W43145  29.081  17.625  11.029
81857W        W43146  22.132  26.048  14.028
81858W        W43147  35.597  17.074  13.313
81859W        W43148  35.993  34.079   2.822
81860W        W43149   9.383  30.913   3.350
81861W        W43150  28.134  32.115  10.510
81862W        W43151  43.018  29.581  13.484
81863W        W43152  17.613  43.859  12.047
81864W        W43153  21.582  39.365   4.227
81865W        W43154  22.094  26.565  13.817
81866W        W43155  30.603  23.715  12.550
81867W        W43156  24.607  10.776  12.925
81868W        W43157  43.415   4.410  12.425
81869W        W43158   3.361  23.995   1.905
81870W        W43159  30.013  24.001  10.527
81871W        W43160  37.995  34.544   1.817
81872W        W43161   6.887  16.242   4.699
81873W        W43162  23.663  38.982  14.910
81874W        W43163  25.174  15.806   5.230
81875W        W43164  27.153  23.231  10.939
81876W        W43165  30.635  42.505  12.441
81877W        W43166  30.506  24.559  12.063
81878W        W43167   0.459  27.473   4.343
81879W        W43168  16.738  32.636   0.803
81880W        W43169   7.305  11.629   4.789
81881W        W43170  22.677  31.961  13.437
81882W        W43171  25.572  30.566  13.517
81883W        W43172  12.202  40.959   4.788
81884W        W43173  28.068  39.851  10.483
81885W        W43174  12.344   8.313   3.167
81886W        W43175  28.094  42.341  14.451
81887W        W43176  37.031  43.862  11.395
81888W        W43177  43.864  23.163   2.321
81889W        W43178   0.412  20.030  13.496
81890W        W43179   4.913  19.536   2.820
81891W        W43180  12.784  29.010   1.816
81892W        W43181  22.609  23.063   0.913
81893W        W43182  22.121  12.197   0.351
81894W        W43183  12.277  19.557  12.936
81895W        W43184  28.100  16.617  11.459
81896W        W43185  44.264  10.366   1.354
81897W        W43186  20.096  10.825   2.274
81898W        W43187  43.330  35.922   3.221
81899W        W43188  20.274  25.468  12.864
81900W        W43189  13.280  17.178  13.324
81901W        W43190  22.034  21.045  10.411
81902W        W43191   8.693  12.204  13.949
81903W        W43192  43.000  19.237  14.923
81904W        W43193  33.039  30.541  11.394
81905W        W43194  13.188  29.548   4.607
81906W        W43195  13.717  30.919  14.329
81907W        W43196  14.771  44.456  14.445
81908W        W43197  30.581  11.333  12.989
81909W        W43198  38.927  11.771  11.564
81910W        W43199  26.088   3.308  13.022
81911W        W43200  19.751  44.343   0.265
81912W        W43201  42.482  19.772  13.510
81913W        W43202   9.719  42.915   3.700
81914W        W43203  18.131   0.781   2.346
81915W        W43204  44.996  23.086  12.505
81916W        W43205  33.081  33.611   2.251
81917W        W43206  36.368  16.259   2.876
81918W        W43207  25.068   8.356   2.401
81919W        W43208  26.184  36.508  13.391
81920W        W43209   2.921  40.385  14.975
81921W        W43210  21.140  35.077   5.286
81922W        W43211  30.137  40.819  11.006
81923W        W43212   9.261  14.659  12.083
81924W        W43213  21.547   7.400   3.637
81925W        W43214   4.211  10.725  14.369
81926W        W43215  14.239  33.476  12.414
81927W        W43216  24.718  41.972  14.463
81928W        W43217  34.451  23.230  12.474
81929W        W43218   4.332  21.113  14.983
81930W        W43219  44.773  28.941   3.631
81931W        W43220   8.336  30.909  11.392
81932W        W43221  22.518  40.019  12.944
81933W        W43222  36.507  36.869  14.924
81934W        W43223  26.664  39.380  11.129
81935W        W43224  37.508  44.336  11.930
81936W        W43225  40.411   1.823   4.611
81937W        W43226  36.022  37.409  14.891
81938W        W43227  12.611   8.825   0.321
81939W        W43228  42.339  44.802   3.252
81940W        W43229   0.397  37.350   4.802
81941W        W43230  13.741   1.940  11.374
81942W        W43231  17.722  22.251  12.866
81943W        W43232  17.258  36.043   4.627
81944W        W43233  19.545   9.325   4.789
81945W        W43234  11.776  15.133   3.707
81946W        W43235  18.659  17.106  13.058
81947W        W43236   6.806  41.331   0.287
81948W        W43237  33.558  34.439  14.309
81949W        W43238  13.333  19.665   1.754
81950W        W43239  40.842  38.075  14.450
81951W        W43240   7.299  29.996   2.308
81952W        W43241   8.692  11.809   0.957
81953W        W43242   2.297  21.536  10.939
81954W        W43243  42.815  16.772  14.763
81955W        W43244  40.047  26.074  13.426
81956W        W43245   6.814  39.505   0.795
81957W        W43246  18.172  34.407   0.276
81958W        W43247  39.895  13.158  11.882
81959W        W43248   4.216  37.075  13.834
81960W        W43249  23.012  26.679   0.372
81961W        W43250  29.488  37.494   0.780
81962W        W43251  35.565  16.610  14.323
81963W        W43252  43.770  11.840   2.861
81964W        W43253  14.212  25.031  10.587
81965W        W43254  33.456  42.796  12.057
81966W        W43255  28.660  31.971  11.604
81967W        W43256  30.069  21.153  11.095
81968W        W43257   6.330   9.188  13.008
81969W        W43258  25.989  24.114  14.892
81970W        W43259  43.019   4.285  10.515
81971W        W43260  41.324  23.682  14.295
81972W        W43261  33.027   1.888   4.666
81973W        W43262  31.056  16.722  12.503
81974W        W43263   4.430   7.270  13.827
81975W        W43264  19.588  31.927  11.407
81976W        W43265  39.453  25.548  11.864
81977W        W43266  17.205  32.566   0.482
81978W        W43267  24.526   8.849  10.924
81979W        W43268  25.023  40.509   1.821
81980W        W43269  40.378  40.826   3.362
81981W        W43270  11.135  27.616   2.201
81982W        W43271  44.387  27.464   0.892
81983W        W43272  16.120  10.309   2.262
81984W        W43273   3.444  34.919   0.870
81985W        W43274  39.913  38.448  13.885
81986W        W43275   1.899  15.297   0.795
81987W        W43276   4.825  27.670  12.006
81988W        W43277   0.903  11.665   2.248
81989W        W43278  37.494  37.476  13.828
81990W        W43279  26.016  11.243   0.368
81991W        W43280  42.419  12.312   1.411
81992W        W43281  20.731  41.911   1.324
81993W        W43282  31.000   5.382   3.160
81994W        W43283  32.941  28.541  13.822
81995W        W43284  11.224  44.755  12.919
81996W        W43285   8.317  44.807  12.995
81997W        W43286  24.001  18.239  14.952
81998W        W43287  38.900  41.348   1.862
81999W        W43288  30.910  39.856   4.830
82000W        W43289   3.218  42.322  11.856
82001W        W43290  20.193   2.788  14.280
82002W        W43291  33.098  17.130  14.445
82003W        W43292  10.835  22.631   1.398
82004W        W43293  13.710  44.947  11.903
82005W        W43294  11.791  41.957  14.279
82006W        W43295  35.581  31.094  13.488
82007W        W43296  11.758  36.391   0.751
82008W        W43297   8.799   3.428  10.610
82009W        W43298  17.592  25.474   1.449
82010W        W43299   0.453  35.426  12.468
82011W        W43300  41.904  10.801   1.325
82012W        W43301  27.984  19.109   3.687
82013W        W43302   2.932  40.968  13.062
82014W        W43303  24.032   0.844  11.889
82015W        W43304  19.647  11.304  10.622
82016W        W43305  44.469  41.423  14.506
82017W        W43306  43.873  31.941   4.270
82018W        W43307  40.020  41.390  10.420
82019W        W43308   0.327   9.299   0.794
82020W        W43309  28.106  11.701  12.424
82021W        W43310  18.158  10.875  12.458
82022W        W43311  17.175  25.496  10.579
82023W        W43312  21.735  18.578  11.079
82024W        W43313  34.488  41.031   0.901
82025W        W43314  31.616  39.511   0.245
82026W        W43315  39.505  35.109  14.343
82027W        W43316  41.526   0.842   3.718
82028W        W43317  36.934   5.756  14.428
82029W        W43318  10.263  30.005  11.992
82030W        W43319  17.225  41.033  14.862
82031W        W43320  29.941  27.964  13.851
82032W        W43321  10.360  28.499  11.948
82033W        W43322   4.746  26.601  12.086
82034W        W43323   7.883  30.099   3.634
82035W        W43324  44.827  44.940   0.325
82036W        W43325  28.582  25.071  12.975
82037W        W43326  39.498  20.618  14.915
82038W        W43327   3.342  13.283  11.030
82039W        W43328   4.437  24.667   1.844
82040W        W43329  25.132  22.680   2.818
82041W        W43330   8.313  31.943  13.895
82042W        W43331   6.196  13.336   1.266
82043W        W43332  28.974  21.555  14.028
82044W        W43333  24.586  24.673   3.150
82045W        W43334  34.999  26.462   1.397
82046W        W43335   5.920  29.602  13.410
82047W        W43336  26.569  41.353   1.316
82048W        W43337   4.372   0.309  11.089
82049W        W43338  31.435  40.351   0.814
82050W        W43339  37.528  16.143   3.160
82051W        W43340  16.578  31.563  10.492
82052W        W43341   0.462  40.886  14.826
82053W        W43342   1.309  24.723   2.736
82054W        W43343   0.944  24.663   0.806
82055W        W43344  16.249   2.963  11.985
82056W        W43345  21.081  26.495  12.932
82057W        W43346   8.693  27.688  11.487
82058W        W43347  17.072   3.314   2.721
82059W        W43348  21.163  32.931  14.306
82060W        W43349  14.711  38.878   1.324
82061W        W43350  11.206  44.302   0.779
82062W        W43351  21.628  32.567   2.743
82063W        W43352   4.290   4.920   2.302
82064W        W43353  15.302  11.732   4.611
82065W        W43354  34.584   2.411  14.774
82066W        W43355   1.473  11.133   2.224
82067W        W43356  13.628  17.670   2.808
82068W        W43357  36.936  30.534   3.751
82069W        W43358  26.608  18.776  12.354
82070W        W43359  41.837  21.254   3.384
82071W        W43360   2.739  19.651  14.903
82072W        W43361  31.021  19.146   4.251
82073W        W43362  35.057  28.470  11.963
82074W        W43363  17.707   6.764  13.440
82075W        W43364  26.489  25.518  14.343
82076W        W43365  12.237  34.008  14.422
82077W        W43366  31.082  11.654   3.258
82078W        W43367  32.629  38.029   1.214
82079W        W43368  30.952  30.459  14.796
82080W        W43369   9.387  19.731   2.372
82081W        W43370  24.557  27.629   0.360
82082W        W43371  38.883  13.702   2.278
82083W        W43372  19.712  43.298   4.244
82084W        W43373  42.912  19.105   3.360
82085W        W43374   6.227  10.310  10.558
82086W        W43375  42.798  39.947  12.512
82087W        W43376  25.584  23.663   0.476
82088W        W43377   0.349  39.554  13.476
82089W        W43378   8.888  30.088   5.130
82090W        W43379  38.830  42.948  10.019
82091W        W43380  26.546   3.420   1.332
82092W        W43381  22.550   3.899  11.426
82093W        W43382   7.872  22.114  14.373
82094W        W43383   3.760   2.264   3.205
82095W        W43384  18.184  33.980  10.451
82096W        W43385  12.152  28.550   4.306
82097W        W43386   1.285  19.727   0.447
82098W        W43387  12.319  15.643  12.000
82099W        W43388   0.748  25.681  14.935
82100W        W43389  12.297  24.997   2.828
82101W        W43390   2.240   6.885   1.310
82102W        W43391  22.646  37.903  10.020
82103W        W43392  16.298  41.041  13.060
82104W        W43393   3.803  26.597  10.408
82105W        W43394  39.887  15.316  13.420
82106W        W43395  13.234  36.987   1.705
82107W        W43396  10.302  25.641  10.489
82108W        W43397  37.466  41.302   0.799
82109W        W43398  33.015  34.385   2.309
82110W        W43399  33.606   1.752   3.762
82111W        W43400   8.216  17.145   1.878
82112W        W43401  29.076   6.863   4.663
82113W        W43402  28.993  22.521  11.444
82114W        W43403  30.505  41.432   2.704
82115W        W43404   9.872   8.322   0.408
82116W        W43405  26.125  28.458  10.525
82117W        W43406  25.199  18.780   2.875
82118W        W43407  43.838  24.029   0.432
82119W        W43408  44.265  36.011   3.331
82120W        W43409   3.918   4.729   2.669
82121W        W43410  31.581  33.512  11.558
82122W        W43411   8.377   6.300  10.519
82123W        W43412  23.614  32.035   0.906
82124W        W43413  20.752   2.265   1.210
82125W        W43414   7.351  38.535  12.440
82126W        W43415   1.734  39.495  13.321
82127W        W43416  25.052  20.632  12.897
82128W        W43417  37.568  15.233  10.990
82129W        W43418   3.419   8.859   1.252
82130W        W43419  32.898   5.325   4.718
82131W        W43420  10.672  22.735   2.366
82132W        W43421  25.696   6.237  14.878
82133W        W43422  32.139  35.043  13.407
82134W        W43423  14.674  31.965  13.879
82135W        W43424  26.523  20.200   3.781
82136W        W43425   7.857  27.689   0.861
82137W        W43426   4.296  26.659   0.441
82138W        W43427  13.603  34.020   0.875
82139W        W43428  21.037  24.163   1.881
82140W        W43429  17.767  24.651  13.021
82141W        W43430  17.691  44.916   3.705
82142W        W43431  35.483  14.233  14.322
82143W        W43432  35.529  29.600  14.929
82144W        W43433  42.282  40.504   0.382
82145W        W43434  36.849  41.044   0.891
82146W        W43435  11.226  41.859   0.767
82147W        W43436  21.049  21.216  11.433
82148W        W43437   7.830   6.411   5.302
82149W        W43438  30.927  42.404   0.765
82150W        W43439  11.185  19.062  11.464
82151W        W43440  35.073  26.461  10.136
82152W        W43441  21.229   9.272   1.934
82153W        W43442  43.281  15.180   0.323
82154W        W43443  40.994   7.802   5.095
82155W        W43444  37.515  22.179  11.096
82156W        W43445  41.307   7.796  10.562
82157W        W43446  24.569   1.973   4.268
82158W        W43447   5.382   3.741  11.587
82159W        W43448   8.823  23.067  11.413
82160W        W43449  21.051  36.931  13.313
82161W        W43450  42.800  24.189   4.695
82162W        W43451  29.557  21.240  10.125
82163W        W43452  30.565  39.031   3.245
82164W        W43453  20.658  41.495  12.559
82165W        W43454   6.682  42.401  13.460
82166W        W43455  20.615   2.346   3.183
82167W        W43456  14.692  39.533   4.344
82168W        W43457   5.286  12.628  10.951
82169W        W43458  16.792   1.357  13.935
82170W        W43459   7.339  36.049  11.095
82171W        W43460   5.922  15.738  11.017
82172W        W43461  28.578  21.060  11.992
82173W        W43462   6.898   8.823   0.252
82174W        W43463  40.438  10.354  13.838
82175W        W43464  30.039   3.821   3.167
82176W        W43465  29.083   2.826  12.574
82177W        W43466  42.811  38.412   3.847
82178W        W43467   9.882  31.928   3.225
82179W        W43468  34.392  39.975  11.447
82180W        W43469  10.346  23.509   4.240
82181W        W43470  26.080  25.171   2.290
82182W        W43471  14.130   8.715   2.710
82183W        W43472   5.903  16.123  11.503
82184W        W43473  28.078   7.312   3.833
82185W        W43474  14.171  42.354   4.158
82186W        W43475  32.919  30.552  12.985
82187W        W43476  13.146   2.838  13.913
82188W        W43477  15.638   0.288  10.489
82189W        W43478  19.542  20.644   0.294
82190W        W43479  16.684   0.332  11.515
82191W        W43480  36.569  35.548  11.543
82192W        W43481  28.021  23.193  13.402
82193W        W43482  44.330  31.978   4.207
82194W        W43483  32.110  13.781   0.251
82195W        W43484   3.825  32.575   2.740
82196W        W43485  32.053   5.437   4.782
82197W        W43486  13.610  33.532  12.375
82198W        W43487  34.903   9.676  14.838
82199W        W43488   0.442   5.722   3.862
82200W        W43489  43.959  44.974   4.332
82201W        W43490  17.071  25.522   1.394
82202W        W43491  34.399  42.487   2.708
82203W        W43492  26.603  13.648  11.943
82204W        W43493  30.088  30.414  11.384
82205W        W43494  35.403  36.939  14.455
82206W        W43495  25.116   8.297   3.147
82207W        W43496  38.494  25.572   4.166
82208W        W43497   7.335  30.024   3.272
82209W        W43498   7.284  38.986  13.396
82210W        W43499  11.364   1.765   5.224
82211W        W43500   9.653   5.698  13.501
82212W        W43501  20.203  36.959  11.090
82213W        W43502  20.269  29.023  12.425
82214W        W43503   1.925   0.304   0.314
82215W        W43504  41.941  34.485  12.972
82216W        W43505  21.079  35.028   2.337
82217W        W43506  31.451  44.991  12.997
82218W        W43507  33.507  39.822   1.766
82219W        W43508  42.288  12.322   3.201
82220W        W43509  43.372  14.190   9.971
82221W        W43510  10.827  37.394   2.872
82222W        W43511  39.331  39.335  11.532
82223W        W43512  41.790   6.713  10.919
82224W        W43513   7.817   9.222  11.108
82225W        W43514  43.319  32.595  10.577
82226W        W43515  22.177  34.063  11.564
82227W        W43516  17.089  42.881   1.335
82228W        W43517  11.781  43.948  12.938
82229W        W43518  36.057  34.112   0.828
82230W        W43519  18.130  31.623   2.354
82231W        W43520  19.548  14.144  13.817
82232W        W43521  19.606   9.384   0.310
82233W        W43522  29.642  41.476   2.798
82234W        W43523  36.069   0.312   1.931
82235W        W43524  44.481   8.808  14.331
82236W        W43525  23.529  34.024   3.269
82237W        W43526  26.600  27.147   2.737
82238W        W43527   5.362  11.784   3.821
82239W        W43528   6.693  39.819  10.408
82240W        W43529  43.913   5.729   4.234
82241W        W43530  17.103  43.872   1.408
82242W        W43531  32.406  30.576   2.708
82243W        W43532   8.278  34.536  14.952
82244W        W43533  25.190  37.056  12.580
82245W        W43534   0.279  23.498   2.756
82246W        W43535   1.946  28.039  11.054
82247W        W43536  11.746  11.663  13.865
82248W        W43537   4.787   1.916  13.537
82249W        W43538  34.586  14.674   1.442
82250W        W43539   3.274  31.631  11.050
82251W        W43540  34.118  19.102   1.745
82252W        W43541  19.568   3.718   1.722
82253W        W43542   0.752   9.259   3.660
82254W        W43543  12.796   2.836   4.837
82255W        W43544  20.054  30.499   2.807
82256W        W43545  31.024  31.477   1.829
82257W        W43546  35.360  13.178  12.413
82258W        W43547  41.315   4.329  13.886
82259W        W43548   7.708  35.443   4.329
82260W        W43549  36.912  38.030   4.817
82261W        W43550  24.725  15.152   2.227
82262W        W43551   1.899  38.452   1.331
82263W        W43552  13.239  20.205  12.021
82264W        W43553  32.000  17.239  14.405
82265W        W43554  24.994   3.403  12.035
82266W        W43555   7.215  32.504   0.840
82267W        W43556  38.858  36.408   1.895
82268W        W43557  38.516  27.546  11.448
82269W        W43558  16.242  13.767  14.847
82270W        W43559  19.736   2.357  11.457
82271W        W43560  14.668  10.265   1.749
82272W        W43561  25.182  24.169  12.578
82273W        W43562  20.526   0.484  14.814
82274W        W43563  11.789  38.525  14.375
82275W        W43564  32.068  19.049   4.123
82276W        W43565  35.916   9.230  10.443
82277W        W43566  29.146  18.076   0.945
82278W        W43567   9.247   1.878   5.183
82279W        W43568  27.007  14.624  12.440
82280W        W43569  22.242  27.552   0.353
82281W        W43570  36.962   3.747   3.735
82282W        W43571   7.699   9.659  11.872
82283W        W43572  11.860  10.185   1.726
82284W        W43573  42.524  32.502  11.974
82285W        W43574   5.371  40.912   3.384
82286W        W43575  11.675  22.006  11.888
82287W        W43576  16.666  15.268   1.264
82288W        W43577   9.332  41.371  11.999
82289W        W43578  30.644  18.178   0.266
82290W        W43579  27.618  36.373  14.028
82291W        W43580  39.472  42.354  12.375
82292W        W43581  36.483  37.900   4.648
82293W        W43582  14.146  42.382  10.584
82294W        W43583  17.178  11.140  12.032
82295W        W43584   9.800  22.199  13.397
82296W        W43585  35.940  30.999   3.810
82297W        W43586  34.452  24.612   4.684
82298W        W43587  40.869  41.886   2.862
82299W        W43588  44.277  28.937  12.416
82300W        W43589  23.216  10.272  10.475
82301W        W43590  30.479  22.146  14.399
82302W        W43591  44.967  15.270   4.829
82303W        W43592   9.848  41.873   2.838
82304W        W43593  28.496   5.286  10.618
82305W        W43594  12.857  40.999   4.171
82306W        W43595  11.841  36.375  12.947
82307W        W43596  34.092  38.383  11.917
82308W        W43597  41.534  13.183  14.456
82309W        W43598  41.528  15.749   2.314
82310W        W43599  38.833   2.276  12.922
82311W        W43600  38.379  40.387  11.059
82312W        W43601  16.647  13.148   2.666
82313W        W43602  39.340   2.434  10.623
82314W        W43603  16.096  43.984   2.419
82315W        W43604   3.835  37.962   1.906
82316W        W43605  27.011  33.976   4.789
82317W        W43606  44.482  13.143   0.357
82318W        W43607  26.507  33.036   4.652
82319W        W43608  42.961   1.931  10.964
82320W        W43609  15.615  39.509  12.889
82321W        W43610  43.335  18.277   4.275
82322W        W43611  26.142  29.987   2.713
82323W        W43612   9.760   0.747  13.510
82324W        W43613  33.060  28.640   0.764
82325W        W43614  12.335  31.004  12.896
82326W        W43615   1.386   2.887  13.345
82327W        W43616  41.951  10.669  11.106
82328W        W43617  34.001   1.891   1.731
82329W        W43618  39.033   6.739   3.359
82330W        W43619  41.008  28.016   3.203
82331W        W43620  28.028   6.871  13.909
82332W        W43621  36.997   8.769   1.314
82333W        W43622   5.833  32.896  11.991
82334W        W43623  15.705   8.356  11.439
82335W        W43624  17.619  32.912   3.154
82336W        W43625  18.772  18.780  12.541
82337W        W43626  33.908   0.484   4.179
82338W        W43627  40.358  43.480   3.193
82339W        W43628  31.535  28.053   4.614
82340W        W43629  32.557  41.514  11.443
82341W        W43630  15.732  22.051   3.841
82342W        W43631  18.171  32.039   0.775
82343W        W43632  26.601  19.625   4.289
82344W        W43633  20.555   2.759  14.490
82345W        W43634  27.184  28.576   1.928
82346W        W43635  14.290  10.733  14.318
82347W        W43636  37.571  11.162  13.319
82348W        W43637  10.303  10.725  13.040
82349W        W43638  16.571  24.620   0.745
82350W        W43639   1.373   2.306  10.896
82351W        W43640  40.883   3.730  12.911
82352W        W43641  10.795   0.331  13.954
82353W        W43642  22.742   9.681   4.354
82354W        W43643  18.743  13.819   0.931
82355W        W43644  12.825  37.525  10.000
82356W        W43645  17.167   9.266  11.054
82357W        W43646   0.915  44.336   0.355
82358W        W43647   1.281  17.260   1.755
82359W        W43648  35.101  25.145  14.430
82360W        W43649  15.159  20.185   4.149
82361W        W43650  29.644  10.216   4.647
82362W        W43651  37.414  17.276  12.447
82363W        W43652  36.569   4.908  12.444
82364W        W43653  20.064  44.990   3.336
82365W        W43654  20.133  42.995  13.508
82366W        W43655  24.519  18.657  11.445
82367W        W43656  11.805  24.070   1.919
82368W        W43657  30.136  15.267  14.312
82369W        W43658  28.594  22.635  14.443
82370W        W43659  37.047  42.799  14.759
82371W        W43660  41.848  37.395   0.747
82372W        W43661  19.161   6.888   1.862
82373W        W43662  12.645  28.988  13.798
82374W        W43663  24.176  26.195   3.343
82375W        W43664  30.571   7.376  13.054
82376W        W43665  12.851   4.442  13.058
82377W        W43666  27.186  30.617  14.998
82378W        W43667  11.364   6.850   0.312
82379W        W43668  43.944  23.662   1.339
82380W        W43669  22.080  14.198   0.346
82381W        W43670  20.096  15.314   0.370
82382W        W43671  43.880   2.773  11.030
82383W        W43672   0.404  32.456   4.770
82384W        W43673  26.198   0.488   3.337
82385W        W43674  31.909  24.075  12.841
82386W        W43675  14.608   1.946  12.567
82387W        W43676  11.709  39.813   3.735
82388W        W43677  19.234  20.096  13.349
82389W        W43678  26.618  32.126   1.881
82390W        W43679  29.980  23.595  13.983
82391W        W43680  40.980  29.171   2.804
82392W        W43681  43.848   8.659  12.873
82393W        W43682  20.029  19.248   0.763
82394W        W43683  21.136  30.579  13.464
82395W        W43684  40.438  37.971  12.493
82396W        W43685  18.652  36.926   2.673
82397W        W43686  11.664  21.604  10.415
82398W        W43687  12.272  33.079  12.365
82399W        W43688  28.010  10.308   0.891
82400W        W43689  43.438  19.725   1.706
82401W        W43690  40.417  14.816  13.307
82402W        W43691  22.536  35.432   3.332
82403W        W43692  37.573  25.128   3.699
82404W        W43693  18.649  21.535   2.396
82405W        W43694  27.190  10.832  14.828
82406W        W43695  28.176  30.557  13.047
82407W        W43696  19.773  28.134  11.544
82408W        W43697  15.128  42.299  12.050
82409W        W43698  23.985  41.916  14.827
82410W        W43699   7.712  12.207  10.593
82411W        W43700  24.702  16.614  13.053
82412W        W43701  11.626   0.404  12.003
82413W        W43702   7.708  36.525   2.396
82414W        W43703  20.755  28.170   1.884
82415W        W43704  20.617  17.283  12.823
82416W        W43705  32.899  15.101  10.632
82417W        W43706   2.255   3.335  10.099
82418W        W43707  10.348  16.310   4.724
82419W        W43708  42.410  44.387   0.821
82420W        W43709  18.110   8.275   2.370
82421W        W43710  28.929  18.235  14.447
82422W        W43711  37.405  24.539  10.601
82423W        W43712  28.120  29.929   2.902
82424W        W43713   6.231  36.541  11.923
82425W        W43714  34.376  40.022  12.406
82426W        W43715   9.763  31.989   0.871
82427W        W43716   7.238   2.870   1.407
82428W        W43717  34.429  16.662  10.958
82429W        W43718  27.022  14.332   3.638
82430W        W43719   9.810  41.971  11.965
82431W        W43720  21.740  35.450  13.374
82432W        W43721  39.508  21.675   5.720
82433W        W43722  10.257  32.121   1.733
82434W        W43723  35.457  32.069   1.827
82435W        W43724   2.293  31.469  13.980
82436W        W43725  34.878  28.566  13.910
82437W        W43726  10.265   7.252   3.215
82438W        W43727  25.209  24.584  11.580
82439W        W43728   1.375   9.696   1.450
82440W        W43729  21.111   4.842  14.895
82441W        W43730  14.298   4.924  13.043
82442W        W43731   6.323  29.514  12.580
82443W        W43732   1.959  12.675  12.872
82444W        W43733  40.547  29.656  10.645
82445W        W43734  32.954  14.193   3.344
82446W        W43735  32.096  20.755   0.310
82447W        W43736  31.583  21.572   2.238
82448W        W43737   2.314  15.301   2.278
82449W        W43738  22.243  18.782   2.810
82450W        W43739   3.449  26.135  10.625
82451W        W43740  10.270   9.259  12.489
82452W        W43741  30.919  15.106   4.349
82453W        W43742  15.816  24.026   2.320
82454W        W43743  40.999  12.774  11.126
82455W        W43744   3.331  19.590   2.214
82456W        W43745   6.249  27.084   1.753
82457W        W43746  33.002  26.172  11.433
82458W        W43747  22.568   2.764   4.737
82459W        W43748  38.430   0.491  14.975
82460W        W43749  10.335   8.798   1.852
82461W        W43750   5.690  12.848   3.726
82462W        W43751  33.384  43.374  14.364
82463W        W43752  34.571  42.374  13.465
82464W        W43753  37.856  32.581   3.777
82465W        W43754  14.148  43.020  10.072
82466W        W43755  35.898  33.530   3.247
82467W        W43756   8.180  32.435   4.759
82468W        W43757   2.377  19.258   1.833
82469W        W43758  25.966   0.347   4.240
82470W        W43759  14.219   1.370   3.796
82471W        W43760  17.244   4.371   0.856
82472W        W43761  22.094  40.047   0.774
82473W        W43762  31.632  14.257  13.034
82474W        W43763  36.004  19.676  10.482
82475W        W43764   5.300  44.301   1.433
82476W        W43765   3.811  12.718   4.297
82477W        W43766  36.879  27.575  11.889
82478W        W43767  16.799  18.661   3.357
82479W        W43768  16.666  22.500  13.376
82480W        W43769  25.981  29.995  14.342
82481W        W43770   9.219  18.098  13.992
82482W        W43771  43.793  32.547  14.369
82483W        W43772  35.050  20.650  11.906
82484W        W43773  30.523   2.463   0.476
82485W        W43774  39.025  44.304  11.488
82486W        W43775  12.714  40.998   3.380
82487W        W43776  13.336  43.801  14.859
82488W        W43777  19.264  33.553  10.625
82489W        W43778  10.155  29.030   2.665
82490W        W43779  39.893  28.568   0.325
82491W        W43780  34.420  37.578  10.077
82492W        W43781  34.416  19.732  14.470
82493W        W43782  40.393   4.799  13.422
82494W        W43783  10.318  21.233  11.542
82495W        W43784  29.478  13.824  10.411
82496W        W43785   5.279   1.265  12.505
82497W        W43786   5.425   8.271   4.215
82498W        W43787  23.122   9.358   3.296
82499W        W43788  35.395  36.461  13.921
82500W        W43789  15.661  41.949   3.840
82501W        W43790  34.534  35.956  11.403
82502W        W43791  43.964   6.760  11.093
82503W        W43792   9.854  38.877  12.097
82504W        W43793  39.036  14.282  14.878
82505W        W43794  42.951  40.533   5.316
82506W        W43795  25.013  21.540  13.460
82507W        W43796  15.761  12.650  14.904
82508W        W43797  22.030   0.417  12.832
82509W        W43798  11.145  31.993   0.759
82510W        W43799  12.311  10.253   1.781
82511W        W43800  36.875  38.344   1.858
82512W        W43801  41.965  13.155   3.744
82513W        W43802  25.502  23.595  14.995
82514W        W43803  10.308  39.427   1.767
82515W        W43804  31.945  43.319  14.985
82516W        W43805  29.109  25.107  13.415
82517W        W43806  10.684  44.934  10.493
82518W        W43807  10.361  12.787  10.952
82519W        W43808  34.012  19.565  11.562
82520W        W43809  44.769  39.007  10.964
82521W        W43810  33.446  30.113  11.565
82522W        W43811  21.749  24.688  14.848
82523W        W43812   1.394  30.116   1.825
82524W        W43813  42.477  38.051  10.972
82525W        W43814  13.604  35.529   0.940
82526W        W43815  14.117  43.306   2.291
82527W        W43816  27.954  15.795   4.626
82528W        W43817  19.159  31.038  10.483
82529W        W43818  37.953  12.625   1.431
82530W        W43819   9.158  31.505  11.017
82531W        W43820  12.724   7.763  10.586
82532W        W43821  31.128  13.843  14.920
82533W        W43822  34.593   8.350   2.853
82534W        W43823  31.521  38.977  12.446
82535W        W43824  41.973   2.845   4.337
82536W        W43825  29.023   3.772  10.487
82537W        W43826  23.561  31.070  11.460
82538W        W43827  24.561  26.587  11.934
82539W        W43828   4.884  28.645   1.709
82540W        W43829   4.335  41.795   1.850
82541W        W43830  42.438  11.732   3.215
82542W        W43831  20.633  37.537  12.929
82543W        W43832   9.808  21.606  12.391
82544W        W43833  36.462   3.723  12.018
82545W        W43834  33.065   5.826  11.548
82546W        W43835   9.706  27.683  10.574
82547W        W43836  43.932   8.680   2.241
82548W        W43837   1.422   7.728   1.426
82549W        W43838  35.069  31.898  10.947
82550W        W43839  20.668  31.100   0.378
82551W        W43840  34.600  36.471   4.222
82552W        W43841  29.027  37.375  13.002
82553W        W43842  43.996  18.654  14.770
82554W        W43843  10.230  10.328  10.088
82555W        W43844  38.451  20.752  11.394
82556W        W43845  32.544  24.209   2.224
82557W        W43846  22.060  44.287   4.603
82558W        W43847  31.623  27.496   1.919
82559W        W43848  10.240  20.138  10.909
82560W        W43849  10.841  42.994   4.261
82561W        W43850   1.462  21.527   0.425
82562W        W43851  16.682  28.097   0.421
82563W        W43852  44.969   4.874   2.714
82564W        W43853  14.239  17.682   1.442
82565W        W43854  19.206  39.457   1.433
82566W        W43855  21.599   3.914  14.439
82567W        W43856  25.027  12.186   0.461
82568W        W43857  30.626  26.955   4.613
82569W        W43858  44.497  29.929   0.898
82570W        W43859  36.925  15.682  13.375
82571W        W43860   5.722  14.723  13.428
82572W        W43861   1.844  41.850   2.675
82573W        W43862   6.705  26.590  14.936
82574W        W43863  32.401  19.541   1.385
82575W        W43864   8.202  20.268   0.900
82576W        W43865   3.338  19.137   0.268
82577W        W43866  41.511  21.526  11.943
82578W        W43867  34.964  42.357   4.233
82579W        W43868  30.967  22.645  11.416
82580W        W43869  12.725   6.369  11.951
82581W        W43870   6.181  18.052   2.373
82582W        W43871  23.079   3.933  14.889
82583W        W43872  41.358  18.135   9.605
82584W        W43873  22.685  12.802  13.979
82585W        W43874  35.027  41.982  14.383
82586W        W43875   2.902  26.206   3.711
82587W        W43876   1.340  23.130  12.025
82588W        W43877  24.191  17.235  10.978
82589W        W43878   8.205  40.423  13.967
82590W        W43879  41.449  29.134   0.783
82591W        W43880  21.688   5.223   1.320
82592W        W43881  42.418  13.824   4.722
82593W        W43882  25.606  18.671   1.326
82594W        W43883  41.354  14.300  13.313
82595W        W43884   1.324  19.065  11.926
82596W        W43885  25.576  21.520  11.886
82597W        W43886   2.953  14.662  12.892
82598W        W43887  32.016  18.115  14.793
82599W        W43888  13.342  17.302   4.796
82600W        W43889  10.205   2.281   1.425
82601W        W43890  21.519  18.255  12.881
82602W        W43891  24.614  28.938  13.027
82603W        W43892  30.911  10.660   2.386
82604W        W43893   0.972  43.826  12.532
82605W        W43894   9.360  31.486   5.647
82606W        W43895   4.336  33.103  14.938
82607W        W43896  32.044  38.968   0.750
82608W        W43897  40.944  42.007  10.615
82609W        W43898   6.208  30.421  10.460
82610W        W43899  34.044  17.105  12.824
82611W        W43900  10.786  31.146   3.789
82612W        W43901  31.553   8.238  11.467
82613W        W43902  22.103  42.963   2.899
82614W        W43903  12.854  32.111   3.685
82615W        W43904  41.455  35.999   0.366
82616W        W43905  42.435  23.242   4.207
82617W        W43906  13.302  32.925  13.409
82618W        W43907   4.885  33.491   0.904
82619W        W43908  35.464  17.714  10.964
82620W        W43909  11.286  35.394   0.783
82621W        W43910  10.328  10.836   1.835
82622W        W43911  24.531   0.413  13.034
82623W        W43912   1.477  19.770   5.291
82624W        W43913  44.902  17.081   0.877
82625W        W43914  29.654  38.985  12.494
82626W        W43915  35.999  21.681  12.864
82627W        W43916  33.108  18.227   1.217
82628W        W43917  22.594  19.752  10.993
82629W        W43918  23.133  13.158  10.456
82630W        W43919  26.069   3.421  11.560
82631W        W43920  20.631  21.682   4.350
82632W        W43921  15.602  11.623   3.656
82633W        W43922  41.978  17.259  10.040
82634W        W43923  16.646   7.348  13.927
82635W        W43924  20.713  22.555  13.896
82636W        W43925   3.293  17.213  12.827
82637W        W43926  36.968  23.516   3.665
82638W        W43927  35.469   5.410   0.782
82639W        W43928   1.930   5.833   0.833
82640W        W43929  39.338  44.805   0.310
82641W        W43930  23.558  13.212   1.253
82642W        W43931  41.350  44.278   3.297
82643W        W43932  18.570  38.558   3.354
82644W        W43933  40.498  39.382   1.903
82645W        W43934  27.478  17.639   3.682
82646W        W43935  16.754  34.422   0.479
82647W        W43936   7.891   6.351   0.465
82648W        W43937  22.609  29.502   0.400
82649W        W43938  30.541  41.807   4.189
82650W        W43939   1.386   8.284   3.289
82651W        W43940  28.544  14.241  12.501
82652W        W43941  41.433   0.331   2.830
82653W        W43942  16.723  44.423   3.189
82654W        W43943  27.062  15.676  11.888
82655W        W43944   0.911  15.778  11.859
82656W        W43945   9.152  35.415  11.903
82657W        W43946   4.444  27.190   1.839
82658W        W43947  29.486  41.931   4.136
82659W        W43948  12.765  12.220  10.625
82660W        W43949   5.233   1.421   2.791
82661W        W43950   0.771   1.936  10.157
82662W        W43951   1.957  29.965   2.416
82663W        W43952  39.400  23.631   0.896
82664W        W43953   8.699  25.668  13.052
82665W        W43954  26.654  40.029   3.665
82666W        W43955  38.917  21.659   1.923
82667W        W43956   9.844  19.726  11.478
82668W        W43957   5.310  37.044  14.787
82669W        W43958   3.920  23.664   3.245
82670W        W43959  11.226  29.988  12.824
82671W        W43960  24.650  17.100   0.389
82672W        W43961  25.180   6.764  14.829
82673W        W43962   6.876  20.736   1.927
82674W        W43963  43.004  33.484   3.806
82675W        W43964   3.391  26.091  14.443
82676W        W43965  14.222  29.131   1.411
82677W        W43966   8.373  21.053  11.882
82678W        W43967  24.030   3.303  12.491
82679W        W43968   9.830  42.902   2.679
82680W        W43969  11.170  31.041   4.615
82681W        W43970   9.721  39.834  13.979
82682W        W43971  29.000  10.764   3.350
82683W        W43972  43.855  31.005   4.739
82684W        W43973   7.371  28.461   2.412
82685W        W43974  29.642  23.010  12.481
82686W        W43975  14.733  34.043  10.404
82687W        W43976   6.333   9.305   0.783
82688W        W43977  28.492  23.184   0.343
82689W        W43978   9.804  14.115   1.403
82690W        W43979  29.434  29.055   2.187
82691W        W43980   3.325   8.697  10.545
82692W        W43981  24.485  27.600  12.093
82693W        W43982  42.344  24.178  13.020
82694W        W43983  32.933   8.739   3.712
82695W        W43984  18.578  22.683  12.344
82696W        W43985  37.963  35.928  10.059
82697W        W43986   6.834  14.761   1.239
82698W        W43987  20.665   6.399   2.383
82699W        W43988   4.386   4.296   1.430
82700W        W43989  13.602  11.311   3.361
82701W        W43990   8.898  22.219  12.886
82702W        W43991   4.721   7.202   3.800
82703W        W43992  34.954  36.392   2.675
82704W        W43993  43.926  14.717   4.606
82705W        W43994  41.816  10.637   2.191
82706W        W43995  26.062  32.417   1.773
82707W        W43996  24.153  31.542  14.793
82708W        W43997  35.551   1.951   1.775
82709W        W43998  21.065  35.437   1.781
82710W        W43999   1.333  21.646  13.373
82711W        W44000  21.745   7.369  12.952
82712W        W44001   1.472   2.873   2.295
82713W        W44002  34.417  14.327   1.331
82714W        W44003  18.576  13.128  13.426
82715W        W44004   1.837   2.240  14.417
82716W        W44005  28.014  24.680  14.020
82717W        W44006   8.821  25.962   0.346
82718W        W44007  20.268   6.406  10.447
82719W        W44008  29.562  26.537  11.968
82720W        W44009  11.196  39.924  12.969
82721W        W44010  22.561  18.762   1.437
82722W        W44011  24.538   9.340  14.423
82723W        W44012  34.114  14.275   2.231
82724W        W44013  14.307  20.646   1.737
82725W        W44014   6.807  10.730  13.045
82726W        W44015  20.709  29.668  14.771
82727W        W44016  22.185  14.227   4.340
82728W        W44017  38.893  16.244  14.852
82729W        W44018   8.372  41.488  12.481
82730W        W44019  31.596   1.458   1.727
82731W        W44020  22.654  44.328  14.328
82732W        W44021  34.392  37.513   3.216
82733W        W44022  31.458  30.143  14.466
82734W        W44023  35.065  23.223  14.472
82735W        W44024  28.536  35.391   3.239
82736W        W44025  23.100   3.376   4.655
82737W        W44026  25.135   0.957  14.844
82738W        W44027  25.060  31.929   3.243
82739W        W44028  44.753  32.079   1.858
82740W        W44029  20.141  30.454   1.277
82741W        W44030   8.235  33.022   9.593
82742W        W44031   5.378  16.182   3.283
82743W        W44032   1.787  14.304   1.795
82744W        W44033  19.665   1.843   4.163
82745W        W44034  33.595  40.341  10.910
82746W        W44035  23.200   7.679   4.801
82747W        W44036  44.346   4.408  13.508
82748W        W44037  43.307   4.311  14.331
82749W        W44038  24.195   9.265   4.267
82750W        W44039   7.882  23.204   0.886
82751W        W44040  25.565   2.908  12.090
82752W        W44041   3.305   7.368  11.081
82753W        W44042  24.580  13.720   3.336
82754W        W44043  19.274   1.271   3.234
82755W        W44044  27.590  28.015   4.332
82756W        W44045  38.020  35.097  12.907
82757W        W44046  43.515  18.053  13.048
82758W        W44047   2.858  27.641   0.258
82759W        W44048  13.751  14.805  10.976
82760W        W44049  31.459   7.194  12.868
82761W        W44050  37.452  13.125  12.498
82762W        W44051  29.945  20.183  14.363
82763W        W44052  23.584  30.925   4.825
82764W        W44053  10.159  11.245   4.617
82765W        W44054  36.486  24.682   2.869
82766W        W44055  25.165  12.655   2.725
82767W        W44056   0.772   4.425   3.311
82768W        W44057  39.985  43.457  14.981
82769W        W44058  20.768  21.055  14.454
82770W        W44059  23.572  39.017  13.504
82771W        W44060   3.370   6.399   4.683
82772W        W44061  19.051  32.932  14.330
82773W        W44062  41.022  23.694   4.626
82774W        W44063  30.086  12.662   3.203
82775W        W44064  14.705   5.332   1.923
82776W        W44065   8.769   8.754  10.920
82777W        W44066  31.917  38.970   4.808
82778W        W44067  32.430   2.355  14.437
82779W        W44068  28.033  13.237   1.402
82780W        W44069   2.420  29.009   1.410
82781W        W44070  30.444  18.186  11.469
82782W        W44071   2.243  11.320   4.167
82783W        W44072   9.156  17.607   2.199
82784W        W44073  37.517  29.512  12.089
82785W        W44074  11.759   6.770   2.360
82786W        W44075  39.823  34.986   4.285
82787W        W44076  41.806   5.927   0.270
82788W        W44077  19.165  11.215  13.482
82789W        W44078   4.884  28.043  13.035
82790W        W44079   6.250  17.601   4.315
82791W        W44080   2.343  12.698  14.420
82792W        W44081  21.262   2.294   2.869
82793W        W44082  23.181  12.695  10.910
82794W        W44083  12.322  14.118  13.896
82795W        W44084  41.859  28.474  13.792
82796W        W44085  43.859  25.024  12.037
82797W        W44086  32.995  37.471   1.253
82798W        W44087  18.737  18.295  13.923
82799W        W44088  28.501  28.537  10.516
82800W        W44089  16.163  34.411   2.834
82801W        W44090   2.844   1.481   1.284
82802W        W44091   7.845  25.646   0.797
82803W        W44092   3.278  20.542  14.386
82804W        W44093   7.385  20.737  11.039
82805W        W44094  40.902  41.303   1.713
82806W        W44095  42.842  21.078  13.818
82807W        W44096  21.564  15.181  13.545
82808W        W44097  28.067  41.890   1.356
82809W        W44098  14.773   5.728  14.779
82810W        W44099  34.988  33.943   0.756
82811W        W44100   0.947  42.329   1.714
82812W        W44101  30.945  33.020   1.425
82813W        W44102   1.855   3.377   3.737
82814W        W44103  21.126  32.465   1.310
82815W        W44104  24.671  15.790  10.479
82816W        W44105  16.075   4.326   4.838
82817W        W44106  26.012  21.050   1.309
82818W        W44107  27.027  20.244   2.367
82819W        W44108  13.681  42.022  11.507
82820W        W44109  10.334  33.489  14.364
82821W        W44110  29.070  31.902   2.758
82822W        W44111   7.299  17.182   1.751
82823W        W44112  14.807   0.898   5.274
82824W        W44113  16.737   8.405  11.960
82825W        W44114  31.404  31.076   1.221
82826W        W44115  23.166  13.763   4.247
82827W        W44116  24.198  38.396  11.491
82828W        W44117  33.399  38.508  12.567
82829W        W44118   5.769  10.677   2.251
82830W        W44119  23.113  18.650   4.819
82831W        W44120   4.760   9.787   3.863
82832W        W44121  29.445   1.363   3.381
82833W        W44122   3.908  41.875  14.810
82834W        W44123   2.822   6.404   3.842
82835W        W44124  17.218  14.323  10.920
82836W        W44125   0.947  34.568  13.965
82837W        W44126  44.873  34.964  13.929
82838W        W44127  25.495   9.172  13.479
82839W        W44128  12.221  10.809  13.511
82840W        W44129  28.641  40.303  11.105
82841W        W44130   2.864   9.287   1.740
82842W        W44131  32.918  12.804   2.400
82843W        W44132  25.196   2.778   4.239
82844W        W44133  34.604  44.787   0.293
82845W        W44134  19.717  33.116   1.906
82846W        W44135  40.331  43.785   2.786
82847W        W44136  34.427  30.585  10.944
82848W        W44137   6.310  27.166  10.473
82849W        W44138   7.799  28.116  14.419
82850W        W44139  30.550  32.483   1.896
82851W        W44140  30.570  39.456   4.734
82852W        W44141  15.165   2.811  13.456
82853W        W44142  11.621  25.167  12.042
82854W        W44143   7.866  44.289  11.019
82855W        W44144  27.030  38.908   4.165
82856W        W44145   8.756  23.096   1.879
82857W        W44146   7.681  31.023  11.387
82858W        W44147  31.549  28.648  13.042
82859W        W44148  37.343  36.043  11.387
82860W        W44149   7.192  43.912   2.681
82861W        W44150  36.045  27.002   1.263
82862W        W44151   9.167  11.325   0.808
82863W        W44152  32.011  18.276  13.008
82864W        W44153   7.830   5.694   2.214
82865W        W44154  34.897  21.171  13.439
82866W        W44155  10.723  23.669  12.919
82867W        W44156  40.943  36.483   4.354
82868W        W44157   4.901   3.325  11.885
82869W        W44158  36.514  16.231   2.178
82870W        W44159   0.253  22.653   4.208
82871W        W44160  31.643  26.968  10.935
82872W        W44161  18.615  42.997  14.491
82873W        W44162   8.802  27.485   3.185
82874W        W44163  16.294  27.486  10.483
82875W        W44164  13.224  18.570  11.908
82876W        W44165   1.951  40.053   2.398
82877W        W44166   8.394  28.547   3.151
82878W        W44167  43.370  40.891   1.899
82879W        W44168   5.816  25.093   1.771
82880W        W44169  13.750  39.060   9.963
82881W        W44170  31.002  12.334   2.822
82882W        W44171   9.824  40.485   1.880
82883W        W44172  33.545  34.114   2.886
82884W        W44173   1.433  16.102  10.478
82885W        W44174  16.652   3.943  11.476
82886W        W44175   0.400  39.417   3.727
82887W        W44176   3.419  20.249  11.108
82888W        W44177  15.249  29.172  13.510
82889W        W44178  11.815   0.313  14.816
82890W        W44179  39.523   0.785  14.852
82891W        W44180  24.489  30.085   1.297
82892W        W44181  33.113  23.534  12.823
82893W        W44182  33.961  42.880   4.650
82894W        W44183  25.597  20.730   2.867
82895W        W44184   4.845  26.999   3.840
82896W        W44185  44.768  19.101  10.580
82897W        W44186  28.621  11.659   5.319
82898W        W44187  19.615  40.541  14.888
82899W        W44188  32.104   8.806   1.262
82900W        W44189  36.561  23.108  12.994
82901W        W44190  34.488  38.062  11.984
82902W        W44191  30.508  30.658   3.868
82903W        W44192  22.251  36.966   2.811
82904W        W44193  15.653  22.065   2.798
82905W        W44194   6.317  13.635   1.721
82906W        W44195  28.559  26.490   4.675
82907W        W44196   6.711   5.758  12.855
82908W        W44197  29.144  44.401  13.038
82909W        W44198  34.468  19.201  12.344
82910W        W44199   2.246  38.872   4.168
82911W        W44200  15.686  33.457   5.137
82912W        W44201  41.462  38.429   2.392
82913W        W44202  27.954  36.841  13.001
82914W        W44203  15.773  25.158   3.360
82915W        W44204  13.831   1.898   1.718
82916W        W44205  11.349  30.641  13.993
82917W        W44206   1.829  21.622   2.720
82918W        W44207   3.822  14.771   1.722
82919W        W44208  32.447  38.327   0.774
82920W        W44209  37.397   4.425   4.179
82921W        W44210  19.070  28.167  13.421
82922W        W44211   0.852   7.771  11.585
82923W        W44212  16.594  10.183  14.875
82924W        W44213  18.611  12.209  10.505
82925W        W44214  42.318  31.470   2.409
82926W        W44215  44.988  39.461  12.485
82927W        W44216  24.630  12.321   4.327
82928W        W44217   4.704  10.838  13.048
82929W        W44218  32.939  31.005  10.433
82930W        W44219   0.480   3.882  13.826
82931W        W44220  32.911  29.486  10.894
82932W        W44221  36.447   3.743  12.974
82933W        W44222   9.750  31.460   4.326
82934W        W44223  24.673   3.739   0.920
82935W        W44224  23.993  39.919  14.902
82936W        W44225  34.536  37.921  10.583
82937W        W44226  27.452   8.804  10.596
82938W        W44227  38.972  19.671  13.022
82939W        W44228  41.331  44.912   3.737
82940W        W44229  44.966  38.327  14.348
82941W        W44230  42.428  44.982   3.691
82942W        W44231  35.040  36.865   4.168
82943W        W44232   2.780  21.732   0.327
82944W        W44233   8.888  39.351   1.794
82945W        W44234   8.766  19.067   0.807
82946W        W44235   6.731  39.012  14.475
82947W        W44236  38.438   4.783   0.404
82948W        W44237  41.305   3.332  11.415
82949W        W44238  21.730  24.545   4.192
82950W        W44239  42.900  43.491  12.000
82951W        W44240  17.068  36.525  13.460
82952W        W44241  43.823   8.181   5.297
82953W        W44242  42.868   4.450   2.247
82954W        W44243  26.461  34.893  13.458
82955W        W44244  28.024  22.172  14.771
82956W        W44245  19.229  22.059   3.747
82957W        W44246  30.036  24.557   3.731
82958W        W44247  31.921   8.203  12.359
82959W        W44248  22.723  33.954  12.970
82960W        W44249  36.424  28.677  12.377
82961W        W44250   4.742  12.252  10.595
82962W        W44251  23.504  18.128  13.543
82963W        W44252  22.514  10.715   3.807
82964W        W44253  34.036  44.972   4.809
82965W        W44254  29.104  32.570   1.321
82966W        W44255   7.764   7.841  10.626
82967W        W44256  12.303   8.736   1.736
82968W        W44257  15.129   5.206   4.321
82969W        W44258   0.278   8.363   0.262
82970W        W44259   6.687  27.990   0.908
82971W        W44260   6.373   1.290   4.275
82972W        W44261   4.894  13.791  10.575
82973W        W44262  37.037   0.294  12.962
82974W        W44263  24.198  42.898   1.438
82975W        W44264   6.322  39.931   2.294
82976W        W44265  40.480  19.652  11.484
82977W        W44266  29.551  36.034  13.363
82978W        W44267  40.517   5.417   2.874
82979W        W44268  34.970  15.286   1.886
82980W        W44269   9.165  36.067   2.210
82981W        W44270  21.063  12.642  11.538
82982W        W44271  29.029  40.324   4.819
82983W        W44272  29.106  21.594   0.398
82984W        W44273  43.912  13.666  11.452
82985W        W44274  16.683  18.608   1.229
82986W        W44275  10.729   2.856   3.829
82987W        W44276  21.090   9.258   0.319
82988W        W44277  16.104   8.687   3.293
82989W        W44278  21.611  31.107  13.022
82990W        W44279  31.140  16.626  14.930
82991W        W44280  43.838  21.672   0.402
82992W        W44281  25.198  23.209   1.732
82993W        W44282  37.992  22.153   4.702
82994W        W44283   0.889  22.642  12.897
82995W        W44284   3.363  19.627  12.069
82996W        W44285   1.731  43.922   3.219
82997W        W44286  39.995  24.992   3.257
82998W        W44287  13.168  43.009   0.357
82999W        W44288  11.168  42.409   1.277
83000W        W44289   3.792  24.509  14.402
83001W        W44290  29.474   6.705  12.392
83002W        W44291  35.475   5.804  12.469
83003W        W44292  24.209  38.416  14.924
83004W        W44293  10.774  37.947  11.481
83005W        W44294   7.396  41.916  11.089
83006W        W44295  18.157  42.934   0.395
83007W        W44296  30.160  40.484  11.406
83008W        W44297   7.184  17.236  13.502
83009W        W44298  40.398  15.744  14.985
83010W        W44299   8.852  44.786   2.791
83011W        W44300   1.733   0.322  11.874
83012W        W44301   3.381  23.566  10.077
83013W        W44302  28.176  24.519   2.890
83014W        W44303  20.125  29.583   3.818
83015W        W44304  40.435  22.204   9.940
83016W        W44305  44.344  41.938  13.844
83017W        W44306   2.425  10.366   0.263
83018W        W44307  12.167  37.958   5.754
83019W        W44308  15.312   7.364  13.007
83020W        W44309  30.995  18.714   0.871
83021W        W44310  42.394  28.003   2.278
83022W        W44311  42.784  21.737   1.273
83023W        W44312   8.667  32.920  14.331
83024W        W44313  13.609  27.621   3.201
83025W        W44314  34.940  28.643  12.339
83026W        W44315   6.704   4.815   4.323
83027W        W44316  30.538   2.380   4.759
83028W        W44317  16.619  35.484  12.051
83029W        W44318  15.739  31.435  13.433
83030W        W44319  30.941  44.872  13.973
83031W        W44320  30.928  14.602  12.511
83032W        W44321  23.225  31.041   1.776
83033W        W44322  38.430   3.301   2.342
83034W        W44323  24.101   6.299  12.933
83035W        W44324  33.979  23.149  14.789
83036W        W44325  29.991   6.345  13.031
83037W        W44326  13.240  33.478  11.007
83038W        W44327  26.967  30.978   4.612
83039W        W44328  15.258  15.257  14.495
83040W        W44329  22.114  36.067   1.805
83041W        W44330  20.749  17.797   1.267
83042W        W44331  28.644  14.216   4.132
83043W        W44332  37.988   8.266   2.800
83044W        W44333  23.525  24.680  11.868
83045W        W44334   6.867  38.890   0.376
83046W        W44335  21.160  20.626   0.898
83047W        W44336   3.393  26.134   0.894
83048W        W44337  11.712  34.410   1.904
83049W        W44338  27.143  25.538   4.689
83050W        W44339  15.199  38.478   0.308
83051W        W44340  12.679  38.329   1.934
83052W        W44341  35.534   1.266  10.988
83053W        W44342   5.758  41.366   1.823
83054W        W44343  25.125  19.618   5.157
83055W        W44344  28.569   0.797  10.572
83056W        W44345   0.406  27.618  13.963
83057W        W44346  24.072  27.129   2.393
83058W        W44347   2.271  36.415   0.357
83059W        W44348   7.753  44.292  14.767
83060W        W44349  17.209  40.041  13.389
83061W        W44350  14.643   1.424  11.406
83062W        W44351  30.139  40.426  12.921
83063W        W44352  36.943  29.047   1.859
83064W        W44353   0.915  18.190  11.508
83065W        W44354  43.360  21.120   5.303
83066W        W44355  38.888   2.446  12.017
83067W        W44356  42.503   8.679   0.937
83068W        W44357  32.064  39.441  14.979
83069W        W44358  31.943  33.522  13.838
83070W        W44359  31.431  17.307   3.369
83071W        W44360  36.016  40.947  10.457
83072W        W44361  18.707   2.915   2.315
83073W        W44362  44.391  15.677  14.964
83074W        W44363  11.348  19.662   3.727
83075W        W44364   1.431  20.614   0.726
83076W        W44365  22.180  10.196   4.740
83077W        W44366  42.927   1.388  12.571
83078W        W44367  36.392  11.298   2.327
83079W        W44368  21.689  12.333   2.371
83080W        W44369  35.095  40.002   3.264
83081W        W44370  35.895  36.582   2.849
83082W        W44371   3.944  14.624   2.322
83083W        W44372  37.894   6.831   2.816
83084W        W44373  23.683  18.581  13.336
83085W        W44374  14.601   2.454  13.041
83086W        W44375  12.297  15.169   3.338
83087W        W44376  25.171  42.506  11.376
83088W        W44377  20.595   4.706   4.140
83089W        W44378  34.040  43.515   2.325
83090W        W44379   7.769  11.283   2.748
83091W        W44380  27.513  13.255   0.841
83092W        W44381  27.590  41.297  14.313
83093W        W44382  36.415   7.755  11.517
83094W        W44383  13.738  40.054  12.530
83095W        W44384  39.351   4.848  13.439
83096W        W44385  25.555  14.191  14.896
83097W        W44386  27.018   1.298   0.479
83098W        W44387  44.479  41.972   3.162
83099W        W44388  38.950  11.221   4.769
83100W        W44389  14.728  38.377   2.382
83101W        W44390  20.036  25.524  12.468
83102W        W44391  37.941  32.128   3.798
83103W        W44392  23.149  32.637  10.980
83104W        W44393  32.056  21.237  11.077
83105W        W44394  24.100  23.711  14.374
83106W        W44395   4.223   8.222  12.020
83107W        W44396  24.568   6.301  11.099
83108W        W44397  12.770  39.831   1.225
83109W        W44398  22.146  18.567  10.921
83110W        W44399  15.234  16.663  12.432
83111W        W44400  40.857  36.429   4.745
83112W        W44401  42.317  41.828   4.216
83113W        W44402  12.800  33.932  10.405
83114W        W44403   1.965  44.498  12.019
83115W        W44404  38.856  25.564   3.299
83116W        W44405  11.688   9.661  12.412
83117W        W44406  38.463  25.587  14.006
83118W        W44407  27.603  12.744  13.953
83119W        W44408   8.853  21.116   2.375
83120W        W44409  13.227   2.939  12.989
83121W        W44410  15.283  30.491  14.907
83122W        W44411   9.794  43.879  13.485
83123W        W44412  43.876  44.365  11.113
83124W        W44413  40.330   8.388  13.859
83125W        W44414  29.504  40.851  14.398
83126W        W44415  34.097  12.830   3.352
83127W        W44416  11.841  22.234  14.904
83128W        W44417   6.355  33.034   3.200
83129W        W44418  30.137   4.297  10.411
83130W        W44419   7.352  33.575   3.272
83131W        W44420  21.158  31.050  10.901
83132W        W44421  11.727  33.388  14.823
83133W        W44422  32.125  24.524   0.921
83134W        W44423   6.728  34.034   2.728
83135W        W44424  33.088   2.387   1.779
83136W        W44425  13.769  35.458  12.907
83137W        W44426  38.370   4.881  14.330
83138W        W44427  36.031   3.259   4.318
83139W        W44428   7.268   1.266   2.813
83140W        W44429  16.806  10.194   0.378
83141W        W44430  13.305  21.602  12.373
83142W        W44431  12.149  19.635   4.783
83143W        W44432  31.941  29.037   0.957
83144W        W44433  39.031  37.489   0.429
83145W        W44434  29.996  31.522   1.426
83146W        W44435   7.813  27.641  11.525
83147W        W44436  24.189   2.764   1.367
83148W        W44437  14.237  18.556  11.097
83149W        W44438  13.728  27.545  13.056
83150W        W44439   8.733  39.542  13.375
83151W        W44440  29.551  29.435  11.507
83152W        W44441  43.921   9.338   1.808
83153W        W44442  24.572  31.135   1.241
83154W        W44443  18.211  32.607   4.257
83155W        W44444  37.527  29.174  14.959
83156W        W44445  36.892  33.398   2.303
83157W        W44446  29.920   4.900   1.344
83158W        W44447  26.470  17.721  13.798
83159W        W44448  11.365  32.635   1.284
83160W        W44449  21.037   9.767   0.763
83161W        W44450   0.975  25.210   0.966
83162W        W44451  12.127  18.580  11.534
83163W        W44452  20.547  41.472   3.730
83164W        W44453  29.947  24.179   2.780
83165W        W44454   1.393  24.987   0.350
83166W        W44455  24.679  30.555   2.826
83167W        W44456  43.017  32.503  10.942
83168W        W44457  39.057  40.896  12.549
83169W        W44458  41.884  42.918   3.811
83170W        W44459  16.672   7.313  11.928
83171W        W44460   4.364  38.356   2.884
83172W        W44461   1.263  37.962  11.942
83173W        W44462  44.873  32.096   3.840
83174W        W44463  40.002   1.387   1.728
83175W        W44464  33.026  23.104  14.858
83176W        W44465  28.599  27.070  14.810
83177W        W44466  24.558  37.835   1.334
83178W        W44467  28.031  37.441  10.917
83179W        W44468  15.256   3.253  13.913
83180W        W44469  17.095  10.263  13.870
83181W        W44470   5.898   8.368  11.373
83182W        W44471  32.981  23.633   1.838
83183W        W44472  25.516  44.388  12.481
83184W        W44473  26.571  32.133   1.440
83185W        W44474  20.712  10.700  12.389
83186W        W44475   6.307  31.991   2.808
83187W        W44476  33.079   9.866  13.518
83188W        W44477   3.955  28.972  13.506
83189W        W44478  21.695  23.047   4.206
83190W        W44479  33.014   4.907   1.776
83191W        W44480  23.166   1.958   4.772
83192W        W44481  18.227  13.609   1.338
83193W        W44482  23.064   9.664  14.956
83194W        W44483   7.211  23.136   5.215
83195W        W44484  22.074  19.135  13.871
83196W        W44485  32.479  15.765  12.489
83197W        W44486  17.756   0.302   2.225
83198W        W44487  30.134  29.149  13.496
83199W        W44488  33.401   0.255  11.483
83200W        W44489  29.574  18.055   4.280
83201W        W44490  11.224  26.114   2.777
83202W        W44491  10.722  24.126  13.482
83203W        W44492   9.770  10.200  13.958
83204W        W44493   2.470   8.821   2.740
83205W        W44494   9.246  38.471   3.353
83206W        W44495  30.089  36.529  12.508
83207W        W44496   4.339  20.191   2.890
83208W        W44497  11.648  39.958   0.835
83209W        W44498  14.246  16.757   1.817
83210W        W44499   8.337  37.014   0.749
83211W        W44500  28.957  29.929   1.347
83212W        W44501  37.976  40.013  10.411
83213W        W44502  24.656  26.136  10.443
83214W        W44503  36.997  38.890   2.901
83215W        W44504   2.315  17.087   1.828
83216W        W44505  12.228  13.755   4.297
83217W        W44506  22.058  21.066   5.283
83218W        W44507  40.439  28.176  11.872
83219W        W44508  29.089   1.744   4.644
83220W        W44509  12.126  16.698   0.281
83221W        W44510   5.763  33.623   0.302
83222W        W44511  31.444  17.278   1.746
83223W        W44512  25.586   9.228  11.952
83224W        W44513  12.656  12.357   0.432
83225W        W44514   2.309   1.405   4.705
83226W        W44515  31.899  24.053  14.406
83227W        W44516  33.623  16.269   4.293
83228W        W44517  13.645  35.394   0.401
83229W        W44518  44.893  37.407  12.885
83230W        W44519  32.582  16.597   4.239
83231W        W44520  20.740   6.893  13.849
83232W        W44521   8.402  34.018   4.164
83233W        W44522  37.080  12.656  12.530
83234W        W44523  18.218   7.329   4.619
83235W        W44524  32.444   1.319   9.556
83236W        W44525  41.353  23.030   2.772
83237W        W44526   2.244   9.296  11.089
83238W        W44527   8.836  23.685  11.491
83239W        W44528  39.484   7.799  12.480
83240W        W44529  40.977  37.558  13.489
83241W        W44530  11.756  24.175  12.060
83242W        W44531  13.776   5.769   2.672
83243W        W44532  28.506  36.930   0.850
83244W        W44533   1.804   7.789  14.309
83245W        W44534  37.459  14.663   2.321
83246W        W44535  16.613  12.761   0.914
83247W        W44536  16.137  35.400  11.477
83248W        W44537   0.886  20.704   2.670
83249W        W44538  15.310  29.605   0.378
83250W        W44539  10.663   0.753  12.407
83251W        W44540  18.158  38.472   5.313
83252W        W44541  19.560  12.232  13.486
83253W        W44542  24.642  14.330   2.700
83254W        W44543   7.279  43.941  12.474
83255W        W44544  15.625  16.594  13.020
83256W        W44545  11.371  17.229   2.395
83257W        W44546   7.292  26.692  12.414
83258W        W44547  12.650   1.342  10.074
83259W        W44548   1.466  15.715  13.532
83260W        W44549  29.941  41.808  10.927
83261W        W44550  12.676  12.230   3.284
83262W        W44551   5.840  42.400   1.744
83263W        W44552  28.492  29.475  10.914
83264W        W44553   5.871   7.282  11.460
83265W        W44554  41.884   3.434   0.753
83266W        W44555  11.298   6.421  13.860
83267W        W44556  12.689  43.966   2.373
83268W        W44557  41.373  42.874  12.573
83269W        W44558  44.383   0.275   0.434
83270W        W44559   2.301  15.185   4.829
83271W        W44560   9.834  32.035   3.759
83272W        W44561  22.199  16.624   0.345
83273W        W44562  23.689   1.340   0.886
83274W        W44563  17.248  30.494   3.218
83275W        W44564  22.139  23.590   3.272
83276W        W44565  31.612  36.064   4.729
83277W        W44566  33.966  23.203  11.110
83278W        W44567   1.418   0.754  13.364
83279W        W44568   7.907  15.793  10.022
83280W        W44569  38.338   5.268   2.690
83281W        W44570  37.560  28.484  14.890
83282W        W44571   9.822  28.677   1.349
83283W        W44572  15.119  40.439   3.258
83284W        W44573  44.859  14.320  11.580
83285W        W44574  14.304   3.871  10.538
83286W        W44575   6.716   2.375  13.439
83287W        W44576   1.851   0.261   3.261
83288W        W44577  37.856  17.188   3.368
83289W        W44578  44.841  34.864   4.634
83290W        W44579  27.483   7.841  10.923
83291W        W44580   8.845  33.401  13.857
83292W        W44581  41.445  34.425  13.465
83293W        W44582  31.597   9.199  14.800
83294W        W44583  35.969  44.369  11.989
83295W        W44584  15.323  43.797  14.305
83296W        W44585   9.866  18.126   1.704
83297W        W44586  36.569  17.102   4.185
83298W        W44587  40.540   5.351  14.974
83299W        W44588   2.733   1.284  12.371
83300W        W44589  26.494  39.437  14.511
83301W        W44590  31.406  39.899   4.288
83302W        W44591   5.761  25.975  11.608
83303W        W44592  32.994   7.202   3.236
83304W        W44593  25.561  20.050   1.831
83305W        W44594  36.865   4.756  10.640
83306W        W44595  13.610  24.090  14.339
83307W        W44596  39.024   5.854  11.576
83308W        W44597  26.652  31.503   1.802
83309W        W44598  40.936   0.488   0.347
83310W        W44599  37.947   3.222   0.375
83311W        W44600  16.781  22.033  10.153
83312W        W44601  41.853  15.593  10.105
83313W        W44602  41.437  13.111  10.645
83314W        W44603  14.278  10.767   3.654
83315W        W44604  13.754  10.722  14.320
83316W        W44605   2.759  31.547   4.773
83317W        W44606   2.371  24.542  10.418
83318W        W44607  39.832  18.627  13.991
83319W        W44608  13.662  38.368   1.239
83320W        W44609   5.849  18.111   2.341
83321W        W44610  10.144  36.377  12.909
83322W        W44611   0.340   2.384  11.012
83323W        W44612   1.747  18.240   0.330
83324W        W44613  20.135  31.434   1.725
83325W        W44614  35.014  35.925   1.351
83326W        W44615  26.486  13.683   3.751
83327W        W44616  36.019  34.481  11.078
83328W        W44617   6.244  34.870   3.146
83329W        W44618   5.300  39.333  14.338
83330W        W44619  15.271  30.607  14.367
83331W        W44620  10.641   4.924  14.309
83332W        W44621  20.595  17.105   0.460
83333W        W44622  12.758  23.114  14.429
83334W        W44623  40.859  10.822   4.238
83335W        W44624  26.128   3.307   1.823
83336W        W44625  16.208  38.825   2.355
83337W        W44626  25.708  42.817  13.430
83338W        W44627  40.335  36.925  13.947
83339W        W44628  36.852  32.422  14.855
83340W        W44629   6.341  22.635  13.054
83341W        W44630  20.537  40.411   2.320
83342W        W44631  36.059  31.506   4.672
83343W        W44632   8.741  18.169   0.963
83344W        W44633  17.076   7.763   4.236
83345W        W44634   6.246  20.703  13.511
83346W        W44635  24.146  31.143   3.349
83347W        W44636  32.526  29.156  14.505
83348W        W44637  25.690  24.053  14.869
83349W        W44638  28.940   6.318   4.737
83350W        W44639  15.725  28.598  14.337
83351W        W44640   6.888  38.430  11.991
83352W        W44641  26.675  38.488  14.025
83353W        W44642   8.737  11.769   3.229
83354W        W44643  18.213  13.734   3.705
83355W        W44644  37.358   9.805  14.405
83356W        W44645   3.796  41.854   3.790
83357W        W44646  12.787  37.889   0.262
83358W        W44647  30.630   9.760   5.242
83359W        W44648  41.412  43.832   0.400
83360W        W44649  36.980  18.287  12.532
83361W        W44650  39.860  41.372  10.915
83362W        W44651  43.424  30.135  11.931
83363W        W44652  13.767  22.049   4.779
83364W        W44653  11.223  24.697  12.997
83365W        W44654   1.426   1.366  13.412
83366W        W44655  38.346  27.569   1.864
83367W        W44656  39.551  23.703  14.483
83368W        W44657  19.648  36.904   3.245
83369W        W44658  39.829  34.094  13.372
83370W        W44659  40.497  37.542  10.059
83371W        W44660  16.208  23.684   2.670
83372W        W44661   1.817   1.443  11.014
83373W        W44662  11.849  37.354  12.072
83374W        W44663  38.969  43.777   1.798
83375W        W44664  16.673  16.177  12.366
83376W        W44665  37.393  29.491  10.967
83377W        W44666   4.243  28.636  10.968
83378W        W44667  15.192  17.125   3.677
83379W        W44668   2.469  37.974  14.007
83380W        W44669  39.503  13.737   3.718
83381W        W44670  11.186  18.187   2.400
83382W        W44671   7.825  20.272   3.637
83383W        W44672  42.775  18.681   1.797
83384W        W44673   1.259  39.489  12.422
83385W        W44674  39.823  12.856  14.992
83386W        W44675  15.778  12.206   5.149
83387W        W44676  26.192  26.467   0.920
83388W        W44677  24.490   2.890   1.360
83389W        W44678  18.166  42.964  11.920
83390W        W44679  36.095  19.708   1.865
83391W        W44680   1.823  36.447  12.362
83392W        W44681  13.288   7.318   5.139
83393W        W44682   3.870  11.778  11.410
83394W        W44683  32.010  36.562   3.853
83395W        W44684  12.306  37.359  11.126
83396W        W44685  14.592  14.139  13.370
83397W        W44686  39.422  18.619  12.869
83398W        W44687  19.705  10.815  11.001
83399W        W44688  22.698  32.063  11.485
83400W        W44689   6.389  28.983  11.052
83401W        W44690  42.913  23.215  11.964
83402W        W44691  38.030   1.735  14.450
83403W        W44692  37.352  27.166  14.345
83404W        W44693  36.902   6.249  10.634
83405W        W44694   7.750   5.765   4.333
83406W        W44695  27.999  18.767  13.856
83407W        W44696  26.169  25.666  13.854
83408W        W44697  33.881   5.387  12.921
83409W        W44698  24.611  34.441   3.310
83410W        W44699  10.343  38.888  13.321
83411W        W44700  14.608  17.570   0.744
83412W        W44701   5.895  36.517  11.418
83413W        W44702  31.021  23.041   1.797
83414W        W44703  37.422   1.930   0.786
83415W        W44704  25.208  44.840   3.824
83416W        W44705  33.985  22.176   3.174
83417W        W44706  33.890   4.436  12.048
83418W        W44707  38.388  33.981   4.143
83419W        W44708  43.456  25.489  11.879
83420W        W44709  12.834  21.185   3.849
83421W        W44710  27.633  31.440   2.747
83422W        W44711  41.445   8.660   1.430
83423W        W44712   5.771  26.670   2.199
83424W        W44713  35.061   6.741   3.260
83425W        W44714  38.979  15.647   4.197
83426W        W44715  11.364  29.080  14.833
83427W        W44716  24.573  32.132  10.457
83428W        W44717  20.147  29.665   3.367
83429W        W44718  36.475  31.145   0.252
83430W        W44719  44.320   1.410   0.336
83431W        W44720  24.550   0.450  10.435
83432W        W44721   8.831  41.320   0.765
83433W        W44722  24.490  22.165  11.484
83434W        W44723  15.609  32.995  11.868
83435W        W44724  17.618   1.430  12.491
83436W        W44725  14.276  23.704   0.939
83437W        W44726   5.824  37.883  11.606
83438W        W44727   2.404   1.275  13.315
83439W        W44728  29.662  40.328   4.609
83440W        W44729   9.790   8.870   2.773
83441W        W44730  19.160   2.328  14.900
83442W        W44731  40.964  44.763   2.397
83443W        W44732  18.117  28.060   1.262
83444W        W44733   0.903   9.890  10.558
83445W        W44734  21.746  41.967  12.852
83446W        W44735   8.226   2.252  14.457
83447W        W44736  28.655  30.917  14.406
83448W        W44737  23.184  22.224  13.967
83449W        W44738  36.095  25.018   1.401
83450W        W44739  24.215  44.944   3.293
83451W        W44740  29.147  22.021   1.420
83452W        W44741  23.217  16.731  13.885
83453W        W44742  36.988  33.472  10.534
83454W        W44743  10.811  27.476   3.350
83455W        W44744  15.201  34.462   1.396
83456W        W44745  44.928   3.842   0.787
83457W        W44746  22.691  32.084   3.309
83458W        W44747   8.715  26.459   1.444
83459W        W44748  30.068  10.866  12.418
83460W        W44749   2.808   7.334   3.870
83461W        W44750  15.822   2.916   4.232
83462W        W44751  44.284  37.368  14.010
83463W        W44752  32.580   2.771   1.782
83464W        W44753   4.826  29.034  14.374
83465W        W44754   3.216   0.751  10.470
83466W        W44755  43.305  26.033  13.945
83467W        W44756  20.185  44.494  11.943
83468W        W44757  10.164  14.168  14.287
83469W        W44758  13.335  13.178   1.715
83470W        W44759   8.223  33.999  13.877
83471W        W44760  15.813  18.119  13.914
83472W        W44761   2.960  32.067  12.490
83473W        W44762  36.381  29.634   1.810
83474W        W44763  25.012   7.331  10.609
83475W        W44764  44.444  29.443   1.230
83476W        W44765  36.455  12.302   4.740
83477W        W44766  20.678  38.478  13.821
83478W        W44767  12.332  36.931   4.309
83479W        W44768  31.575   1.276   2.401
83480W        W44769  28.181  22.599  13.903
83481W        W44770   3.405  39.846  14.934
83482W        W44771  24.028  24.085   0.470
83483W        W44772  43.805  29.941  11.575
83484W        W44773  43.296  15.132   3.734
83485W        W44774   0.975  18.651  10.622
83486W        W44775  11.748  37.499   2.244
83487W        W44776  31.554  13.111   0.864
83488W        W44777   8.660  10.785   1.398
83489W        W44778  41.983   9.359  12.084
83490W        W44779  28.996   1.870  12.043
83491W        W44780  39.397   0.323  10.486
83492W        W44781  24.131  10.733   0.806
83493W        W44782   7.222  36.900  11.481
83494W        W44783  34.098  12.320  13.978
83495W        W44784   1.375  44.847   0.947
83496W        W44785  44.820   3.323   0.928
83497W        W44786  44.438  30.648  14.415
83498W        W44787  26.182  15.633  14.475
83499W        W44788  25.693  40.486  13.891
83500W        W44789  15.590  22.528   5.595
83501W        W44790  24.003  26.577  12.948
83502W        W44791  43.795  18.243  13.793
83503W        W44792  14.813  37.970   0.256
83504W        W44793   4.226  35.952   1.916
83505W        W44794  29.107  31.901   1.728
83506W        W44795  24.591  27.571   2.866
83507W        W44796   5.725   0.252   0.857
83508W        W44797  12.210  25.492  10.428
83509W        W44798  23.222  39.825  14.878
83510W        W44799  24.529  25.085  13.940
83511W        W44800  26.482   3.918  10.548
83512W        W44801   9.355  30.638   3.302
83513W        W44802  17.673  36.372   3.337
83514W        W44803  33.546  10.312   3.179
83515W        W44804  34.435  31.118   1.721
83516W        W44805  38.365  16.277   9.994
83517W        W44806  42.871  18.055  14.978
83518W        W44807   1.902   9.364  13.831
83519W        W44808  21.712   1.901  13.925
83520W        W44809  14.159  16.587   2.317
83521W        W44810   4.251  14.621  13.395
83522W        W44811   1.977  24.533  13.519
83523W        W44812   1.956   7.287  13.844
83524W        W44813  33.442  15.645  14.785
83525W        W44814  38.567  16.740  12.365
83526W        W44815   9.379   0.438  14.468
83527W        W44816  43.335  26.482  10.159
83528W        W44817  22.522   3.457   1.347
83529W        W44818  12.324  18.714   2.733
83530W        W44819  15.764  35.090   5.168
83531W        W44820   4.238  17.660  13.980
83532W        W44821  23.680   3.719  13.484
83533W        W44822  31.580  34.870  14.924
83534W        W44823   5.746  17.686  10.984
83535W        W44824  17.181  44.288  11.377
83536W        W44825  37.038   5.917   0.263
83537W        W44826  23.489  44.812  12.578
83538W        W44827  30.151  14.663  14.862
83539W        W44828  20.598   8.351  12.417
83540W        W44829  26.677  34.975  14.506
83541W        W44830  42.859  31.597   0.418
83542W        W44831  12.148  42.425   4.153
83543W        W44832  32.395   7.718   2.780
83544W        W44833  29.173  24.003   2.222
83545W        W44834  37.340  31.603  12.884
83546W        W44835   9.344  30.094   9.504
83547W        W44836  19.540  27.124  14.313
83548W        W44837  12.134  17.768  13.003
83549W        W44838  15.695  28.510  11.026
83550W        W44839   6.830  14.169  12.537
83551W        W44840  33.003  20.192   4.139
83552W        W44841  30.105  18.233   2.778
83553W        W44842   9.322   4.791  11.920
83554W        W44843   0.309   7.256  10.472
83555W        W44844  37.029  36.374   0.423
83556W        W44845  42.485  23.652  11.013
83557W        W44846  36.549  39.391  13.816
83558W        W44847   4.715  39.448   3.716
83559W        W44848  42.302  19.742  12.375
83560W        W44849  18.156  30.085  11.881
83561W        W44850  29.573  17.297   1.261
83562W        W44851  40.007  31.554   2.241
83563W        W44852  17.088   0.420   0.918
83564W        W44853  21.044   1.902  12.975
83565W        W44854  10.652  39.922  12.499
83566W        W44855  41.984   6.858   0.966
83567W        W44856  20.121  11.301   2.322
83568W        W44857  29.039  34.440  14.014
83569W        W44858  31.031   7.348  11.075
83570W        W44859  35.582  16.212  13.794
83571W        W44860  41.951  30.998  14.853
83572W        W44861  36.588  43.979  11.966
83573W        W44862  11.319  40.430   4.148
83574W        W44863  26.611  10.708   4.820
83575W        W44864  41.436   9.265  14.854
83576W        W44865  36.374  22.654  14.507
83577W        W44866  21.590   0.885   3.774
83578W        W44867  42.341  11.176  11.496
83579W        W44868   2.389  32.519  12.851
83580W        W44869  29.619   3.460   5.308
83581W        W44870  39.505  13.778  10.484
83582W        W44871   3.372  19.690  13.843
83583W        W44872  30.093   2.823  10.635
83584W        W44873  20.147  29.090   2.413
83585W        W44874  35.453  40.043   1.423
83586W        W44875   2.817  42.399  11.481
83587W        W44876  33.456  16.310  13.943
83588W        W44877  42.480   7.861  11.904
83589W        W44878   9.769  37.860   2.254
83590W        W44879  27.471  10.277   0.937
83591W        W44880  17.240   1.326  10.100
83592W        W44881  28.515  12.720   2.359
83593W        W44882  10.674   4.804   1.907
83594W        W44883  19.178  11.219  12.466
83595W        W44884  22.048  12.338  14.313
83596W        W44885  24.699  10.666   3.359
83597W        W44886  17.668  23.149  12.422
83598W        W44887  33.028  29.159  13.477
83599W        W44888  18.061  33.030  14.397
83600W        W44889   6.262  35.983  14.916
83601W        W44890  39.044   6.411   0.394
83602W        W44891  17.170  41.955  12.016
83603W        W44892  36.055  23.164  14.276
83604W        W44893  28.522  29.490  13.345
83605W        W44894  16.166  41.980  12.529
83606W        W44895  31.629  40.887   3.157
83607W        W44896   7.373  27.448   4.724
83608W        W44897  27.667  38.038   1.731
83609W        W44898  21.259   7.182  13.526
83610W        W44899  17.772  40.416   5.101
83611W        W44900  11.138  17.094  10.992
83612W        W44901  10.821  24.548  14.392
83613W        W44902  12.853  36.463   0.280
83614W        W44903  11.698  10.175   2.785
83615W        W44904  25.072  36.859  14.428
83616W        W44905   1.273  34.958  12.568
83617W        W44906  33.519   3.942   2.304
83618W        W44907  44.770  43.504  13.437
83619W        W44908   4.746   6.793  14.376
83620W        W44909  36.404  21.104   2.662
83621W        W44910   6.397  40.848  13.048
83622W        W44911  31.576  44.917   4.643
83623W        W44912   9.711  43.925   9.965
83624W        W44913  10.777  30.424   4.191
83625W        W44914  24.008   0.804   5.118
83626W        W44915  30.025   5.351   4.778
83627W        W44916  11.845  15.092  10.574
83628W        W44917  35.871  18.657   1.815
83629W        W44918  39.365  33.016  11.981
83630W        W44919  19.566   1.341   1.723
83631W        W44920  43.436  24.593  12.095
83632W        W44921  32.904  31.935   0.383
83633W        W44922   2.861  35.442   4.783
83634W        W44923  43.275  28.484  14.515
83635W        W44924  32.415   6.839  10.085
83636W        W44925  12.806  35.075   3.666
83637W        W44926  12.178  28.636  13.866
83638W        W44927  19.701  18.199   4.647
83639W        W44928   1.423  10.270  10.898
83640W        W44929  26.039  41.952  10.489
83641W        W44930   0.363   7.709   2.404
83642W        W44931   6.356   8.832   4.139
83643W        W44932   5.775  29.612   1.315
83644W        W44933  44.853  43.418   2.318
83645W        W44934  22.050  23.232  12.861
83646W        W44935   4.870  28.645  11.053
83647W        W44936  37.965  24.013   1.926
83648W        W44937   5.820  14.701  10.424
83649W        W44938   1.270   5.325  11.970
83650W        W44939   8.287  20.089   3.817
83651W        W44940  37.472  35.532   4.165
83652W        W44941  12.611  27.054   3.369
83653W        W44942  27.563  27.536   0.458
83654W        W44943  41.824  16.751  10.138
83655W        W44944   0.754  24.528   1.932
83656W        W44945   2.757  10.735   1.814
83657W        W44946  42.404  28.500   3.836
83658W        W44947  34.476  38.438  10.925
83659W        W44948  34.510  42.391   0.897
83660W        W44949  39.363  27.078  13.822
83661W        W44950   4.910  33.122   3.805
83662W        W44951   5.196  30.052  14.981
83663W        W44952  12.149   1.427   9.493
83664W        W44953  33.062  14.332  12.549
83665W        W44954  31.022  30.522   2.863
83666W        W44955   3.940  39.963  11.863
83667W        W44956   0.428   3.905  14.758
83668W        W44957   2.352   0.247  12.897
83669W        W44958  42.837  33.912  11.963
83670W        W44959   3.328  14.611  10.910
83671W        W44960  28.562  43.867  13.544
83672W        W44961  37.538   3.771   1.791
83673W        W44962  38.434  10.752  11.440
83674W        W44963  21.073  21.191   4.696
83675W        W44964  15.103  21.616  10.609
83676W        W44965  42.846   6.339   1.306
83677W        W44966  10.756   2.271   4.713
83678W        W44967  15.712  41.312   4.627
83679W        W44968  32.482   4.786   5.734
83680W        W44969   4.728  22.140   3.790
83681W        W44970  10.807   0.754   2.227
83682W        W44971  17.748  31.593   4.168
83683W        W44972  40.886  12.696   2.792
83684W        W44973  44.497   3.904  13.904
83685W        W44974  23.654  18.691  14.364
83686W        W44975  28.642  42.983   3.822
83687W        W44976  34.408  27.982  10.917
83688W        W44977  35.528   7.665   4.249
83689W        W44978  17.699  15.132  12.571
83690W        W44979  32.994  22.526  10.963
83691W        W44980   3.904  39.014  11.080
83692W        W44981  25.042  10.871  14.859
83693W        W44982  35.402  36.550  10.629
83694W        W44983  35.999   0.331   2.784
83695W        W44984  42.394  14.313  13.416
83696W        W44985  36.939  44.263  13.852
83697W        W44986   3.882  34.528  10.977
83698W        W44987  31.044  21.620  12.950
83699W        W44988   1.306  44.272   1.774
83700W        W44989   3.309  31.449  12.449
83701W        W44990  42.987   4.316  11.449
83702W        W44991  30.066   9.150   0.357
83703W        W44992  29.976  43.778   1.423
83704W        W44993  20.725  13.240  14.413
83705W        W44994  24.526  27.601   1.833
83706W        W44995  35.875  36.457  13.861
83707W        W44996  33.935  42.829  14.969
83708W        W44997  10.370  43.416  14.475
83709W        W44998   3.761  29.618  11.409
83710W        W44999  41.849   7.677  13.313
83711W        W45000  32.024   3.360  14.415
83712W        W45001  14.325  20.231   1.722
83713W        W45002   5.893  42.425   0.913
83714W        W45003  15.692  19.697   0.959
83715W        W45004  32.416   5.922  13.483
83716W        W45005  15.778  29.029   1.297
83717W        W45006  35.374  39.441   1.369
83718W        W45007  11.369  35.071  14.505
83719W        W45008  31.942  35.410  12.964
83720W        W45009  30.091  22.525  12.472
83721W        W45010  30.595  43.471  11.874
83722W        W45011  17.716   7.332   1.832
83723W        W45012  31.955  28.617  14.318
83724W        W45013  41.019   8.315   0.959
83725W        W45014  24.040  33.025   3.317
83726W        W45015  24.068  22.047  14.966
83727W        W45016  40.491  42.357  14.427
83728W        W45017  13.800  15.803  14.907
83729W        W45018  26.502  18.620   3.746
83730W        W45019  23.027   1.460   4.711
83731W        W45020  42.293  35.086  12.982
83732W        W45021   9.666  27.515   1.273
83733W        W45022  18.152  22.718   2.291
83734W        W45023  23.045  27.046  13.420
83735W        W45024  14.799   7.277   1.439
83736W        W45025   0.899  26.959  12.071
83737W        W45026  16.312  19.106   0.475
83738W        W45027   4.263  20.084   3.780
83739W        W45028  38.843  43.386   0.289
83740W        W45029  36.473   3.368   2.296
83741W        W45030  15.203  16.665   2.257
83742W        W45031   8.398  17.263   1.327
83743W        W45032  10.861  10.272   2.322
83744W        W45033   1.267  14.117   5.242
83745W        W45034  16.140  40.950  12.423
83746W        W45035  42.435  18.065  12.919
83747W        W45036  37.995  16.732  13.000
83748W        W45037  18.774  31.609   4.600
83749W        W45038  38.416  19.248  11.515
83750W        W45039  42.450   2.261   3.691
83751W        W45040  37.078  23.089   4.238
83752W        W45041  14.336  44.334  14.369
83753W        W45042  21.210  17.799  11.860
83754W        W45043  26.528  35.874  12.409
83755W        W45044  27.672  20.101   3.186
83756W        W45045  22.719   1.286  14.387
83757W        W45046  23.101   5.855  13.390
83758W        W45047  33.567  15.175   0.789
83759W        W45048  35.023  34.526  11.059
83760W        W45049  36.440  10.784   3.157
83761W        W45050  33.898  41.519  10.961
83762W        W45051  35.591  40.987   3.376
83763W        W45052   7.341  44.310   2.805
83764W        W45053  26.997   6.425   2.396
83765W        W45054  19.764   5.885  12.492
83766W        W45055  11.218  43.855   0.264
83767W        W45056   7.822  19.656   0.357
83768W        W45057  36.939  40.502   1.353
83769W        W45058  17.750   1.274   0.381
83770W        W45059  16.120  41.947   5.290
83771W        W45060   4.249  18.209  11.046
83772W        W45061  23.521   2.276   0.773
83773W        W45062  14.793   6.816  12.022
83774W        W45063  19.127   0.443   0.348
83775W        W45064  20.127   7.729  14.769
83776W        W45065  16.253  36.932   2.818
83777W        W45066  12.800  31.614   1.383
83778W        W45067  42.434  25.119   3.383
83779W        W45068  42.991  15.633   3.186
83780W        W45069  26.616  20.587  12.413
83781W        W45070  42.976  34.446  14.869
83782W        W45071  14.834  29.126   3.708
83783W        W45072   9.188   7.769  14.488
83784W        W45073   1.785   5.690  11.493
83785W        W45074  17.781  41.332  14.356
83786W        W45075  42.496  38.955   4.282
83787W        W45076  44.431   6.882  14.346
83788W        W45077  43.845  25.124  10.973
83789W        W45078   6.699  34.460  14.963
83790W        W45079   4.911  39.891   3.855
83791W        W45080  12.826  41.035   1.827
83792W        W45081   9.202  24.211  14.783
83793W        W45082  30.550  33.385   1.264
83794W        W45083  27.986   6.364  14.951
83795W        W45084  16.127  33.996  11.466
83796W        W45085  21.568  31.901   1.792
83797W        W45086  16.586  19.654   1.921
83798W        W45087   8.218  32.555  13.010
83799W        W45088  36.537  33.529  14.493
83800W        W45089  29.553  25.001  14.814
83801W        W45090  22.558  14.589   3.251
83802W        W45091  41.872   2.337  12.458
83803W        W45092  12.775  18.609   4.293
83804W        W45093  17.710  18.640   0.912
83805W        W45094  19.260  33.511  14.004
83806W        W45095  18.789  11.812  10.089
83807W        W45096   0.436  17.603  12.939
83808W        W45097  18.294  41.875   1.902
83809W        W45098  44.310  21.113  11.591
83810W        W45099  25.649  23.710   5.576
83811W        W45100  38.862  36.353   0.932
83812W        W45101  33.912  11.247   1.929
83813W        W45102  19.721  15.108   3.247
83814W        W45103   4.736  17.663   5.250
83815W        W45104   8.727  20.545   1.782
83816W        W45105  37.902  16.096   2.239
83817W        W45106  36.531  22.577   4.722
83818W        W45107  36.086  28.613  11.390
83819W        W45108  40.376  19.127   2.325
83820W        W45109   8.237  16.097  11.126
83821W        W45110  30.467   6.197  13.468
83822W        W45111  36.517  19.629  13.992
83823W        W45112  39.934  35.047   2.725
83824W        W45113  17.081   1.455   2.200
83825W        W45114  44.992  37.051   2.214
83826W        W45115  27.551  28.042   3.797
83827W        W45116  19.641  11.152  12.985
83828W        W45117  39.321   7.682   2.813
83829W        W45118  15.617  31.587  13.032
83830W        W45119  21.522  39.008   2.662
83831W        W45120  17.690   0.852  11.517
83832W        W45121  36.363  37.873   1.251
83833W        W45122   8.377  10.690  10.892
83834W        W45123  32.123   1.756   4.688
83835W        W45124  13.820  22.108   4.122
83836W        W45125   7.839   1.936  13.527
83837W        W45126  30.490  15.200   2.236
83838W        W45127  42.498  41.958  13.418
83839W        W45128  16.644  28.090  13.477
83840W        W45129  19.238  32.894  12.356
83841W        W45130  32.412   5.399   1.734
83842W        W45131  39.351   2.354  14.912
83843W        W45132  15.316  40.868   3.712
83844W        W45133  13.778  14.654  14.318
83845W        W45134  36.999  27.131  11.029
83846W        W45135  34.479  36.054  13.831
83847W        W45136  31.498  32.000  14.961
83848W        W45137  19.639  29.147  12.367
83849W        W45138   3.310  44.769  11.934
83850W        W45139  28.527   6.322  14.857
83851W        W45140  27.588  38.857   0.804
83852W        W45141  39.825  40.354  12.025
83853W        W45142  29.580  22.623  14.442
83854W        W45143  11.631  32.497  11.539
83855W        W45144  35.079   0.847   2.280
83856W        W45145  20.204  31.947   2.819
83857W        W45146  25.043  13.341   4.738
83858W        W45147  32.026  37.412   4.146
83859W        W45148   4.827  41.334  10.434
83860W        W45149  44.842   3.802  12.467
83861W        W45150  18.554   8.741   3.637
83862W        W45151  15.272  21.116   3.232
83863W        W45152  41.409  27.647   2.854
83864W        W45153  22.634  33.950  11.884
83865W        W45154  16.170   8.655   1.403
83866W        W45155   7.290  30.488  14.882
83867W        W45156   6.818  13.733   2.751
83868W        W45157  27.183  37.083   4.697
83869W        W45158  44.262  29.457   2.412
83870W        W45159  16.234  16.097  12.903
83871W        W45160  15.110  35.584  10.546
83872W        W45161  26.115  18.270  12.052
83873W        W45162  25.543  21.746   2.880
83874W        W45163  29.077  20.559   2.823
83875W        W45164  20.060  12.656  12.944
83876W        W45165  35.370  30.144  10.546
83877W        W45166  33.874  39.021   3.813
83878W        W45167  15.292  44.436  10.617
83879W        W45168  31.992  26.573  13.417
83880W        W45169  11.652  20.525  13.340
83881W        W45170  12.255  42.015  13.822
83882W        W45171   0.284  32.629   4.246
83883W        W45172  30.430  16.635   2.391
83884W        W45173  24.719  30.027  10.548
83885W        W45174  31.004   6.700   2.818
83886W        W45175   3.295  24.492  13.808
83887W        W45176  43.270   8.668   1.920
83888W        W45177  43.797  12.853   9.991
83889W        W45178  37.830   8.195   4.627
83890W        W45179  19.093   4.862  13.513
83891W        W45180  27.588  14.186   0.473
83892W        W45181  30.026  22.538  13.901
83893W        W45182  40.388  26.550   3.332
83894W        W45183  30.948  24.120   4.130
83895W        W45184   2.368   8.896  10.938
83896W        W45185  23.049  25.094  11.468
83897W        W45186  24.126   1.922   1.367
83898W        W45187  33.999   9.795  10.962
83899W        W45188  27.502  21.744   9.951
83900W        W45189  17.305  15.197   2.396
83901W        W45190  37.574  25.686  14.354
83902W        W45191  22.034  37.423   1.416
83903W        W45192   4.418   3.408   4.653
83904W        W45193  33.131   3.863   2.255
83905W        W45194  20.739  17.636  12.412
83906W        W45195  14.591  31.595   0.470
83907W        W45196   8.353  14.135   3.165
83908W        W45197   1.389  35.864  13.861
83909W        W45198   1.453   0.313  14.314
83910W        W45199  40.822  12.673   3.730
83911W        W45200  18.729  11.722   3.153
83912W        W45201  30.008   6.398  14.817
83913W        W45202  38.453  24.007  11.551
83914W        W45203  30.910  15.110  12.969
83915W        W45204  34.442  38.962   1.882
83916W        W45205  27.954   2.797  14.962
83917W        W45206  10.878  19.560  11.117
83918W        W45207  21.661  17.689   4.838
83919W        W45208  20.053  14.734   2.858
83920W        W45209  19.071  17.143  12.938
83921W        W45210   1.974  44.958  14.412
83922W        W45211  30.539   5.204  10.900
83923W        W45212  42.831   2.740   2.710
83924W        W45213  20.625  41.974   2.853
83925W        W45214   9.794  14.685  12.372
83926W        W45215  20.126  43.387  13.371
83927W        W45216  18.662   4.787   3.228
83928W        W45217  35.959  35.107  10.425
83929W        W45218  29.109  36.454  10.936
83930W        W45219  43.426  42.902  14.496
83931W        W45220   7.705   9.373   1.235
83932W        W45221  13.162  41.789  12.545
83933W        W45222  40.476   1.788  12.066
83934W        W45223  14.678  35.549  13.835
83935W        W45224  18.278  10.347   0.420
83936W        W45225  24.030  28.967   5.225
83937W        W45226  21.096  12.296   3.750
83938W        W45227  44.783  41.895   1.389
83939W        W45228  31.541  43.287   1.700
83940W        W45229  29.549  41.389   0.465
83941W        W45230  16.088  10.158   4.164
83942W        W45231  23.563  44.803   1.719
83943W        W45232   3.425  23.153  14.939
83944W        W45233  18.635  19.624  12.922
83945W        W45234   3.746  28.062  12.084
83946W        W45235  38.888  19.579   4.177
83947W        W45236   0.345  23.498   2.293
83948W        W45237  22.558  40.444   2.675
83949W        W45238   2.779  14.595   2.868
83950W        W45239   0.491  19.534   1.735
83951W        W45240  28.505   8.863   0.253
83952W        W45241  19.716  43.770   0.932
83953W        W45242  35.857  27.159  14.974
83954W        W45243  28.185  26.546  10.148
83955W        W45244   0.459   2.469   3.671
83956W        W45245  38.035  14.749  13.445
83957W        W45246   1.394  39.830   0.837
83958W        W45247  16.204  11.236   3.780
83959W        W45248  34.414  20.568  13.307
83960W        W45249  26.150  38.342  13.009
83961W        W45250   4.819  21.522  11.953
83962W        W45251  20.204   7.199  10.602
83963W        W45252  12.313  33.109   1.419
83964W        W45253   6.796  22.079   9.964
83965W        W45254  16.703   8.811   1.239
83966W        W45255  14.686  13.729  11.388
83967W        W45256  12.350  41.335  14.477
83968W        W45257  21.235  11.734   4.319
83969W        W45258  37.067  37.490   2.342
83970W        W45259  30.153  34.920  12.375
83971W        W45260  24.229  17.231  13.924
83972W        W45261  37.069  21.142   3.778
83973W        W45262  39.920  31.096   4.782
83974W        W45263  34.990   1.239   1.288
83975W        W45264  29.601  15.231   4.657
83976W        W45265  39.345  29.107  12.846
83977W        W45266   6.382  15.754   0.390
83978W        W45267  41.427  18.233  12.482
83979W        W45268  17.638   8.692  13.047
83980W        W45269  39.057  23.586  10.619
83981W        W45270  36.363  27.067   4.677
83982W        W45271   6.732   8.722   5.267
83983W        W45272  26.611  28.023   3.671
83984W        W45273  39.316  43.512  13.307
83985W        W45274  21.703  16.132   3.146
83986W        W45275  19.779  27.598  13.369
83987W        W45276  28.575   2.829   3.306
83988W        W45277  31.607  35.989   2.728
83989W        W45278  12.201  28.673  10.907
83990W        W45279   4.926   1.801   0.315
83991W        W45280   6.415  37.531  13.013
83992W        W45281   1.879  14.181  14.493
83993W        W45282  19.222   8.225  12.868
83994W        W45283  31.014  40.384  10.528
83995W        W45284  43.925   0.354  10.904
83996W        W45285  34.398  25.087   3.193
83997W        W45286  27.620  18.217   3.238
83998W        W45287   5.816  37.936   3.185
83999W        W45288   3.864  34.557  11.508
84000W        W45289  17.670   4.800  12.072
84001W        W45290  40.381  34.398  11.453
84002W        W45291  31.549  25.478   2.831
84003W        W45292  27.619  29.060   2.182
84004W        W45293  21.163  36.075   0.806
84005W        W45294  25.988  43.485  14.353
84006W        W45295  37.887  11.240   3.180
84007W        W45296  31.055  33.463  14.362
84008W        W45297  42.812  30.580   1.722
84009W        W45298  11.241  35.488  14.858
84010W        W45299  42.891  22.184   0.775
84011W        W45300  15.204  12.168  10.955
84012W        W45301   7.719  41.871   4.659
84013W        W45302  11.691  22.535   5.276
84014W        W45303  40.319  17.580   2.863
84015W        W45304  39.061  30.976  14.771
84016W        W45305  29.031  24.082  12.893
84017W        W45306   3.801  26.054  10.887
84018W        W45307   1.350  40.457  14.811
84019W        W45308   2.921  23.110  11.556
84020W        W45309   7.784  11.829   2.868
84021W        W45310  26.683  20.199  13.342
84022W        W45311  43.286   5.875   1.391
84023W        W45312  19.197   8.297   3.673
84024W        W45313  10.768  35.993  12.933
84025W        W45314   4.306   6.411   4.204
84026W        W45315  30.923   4.743  13.815
84027W        W45316  38.077  29.036  12.996
84028W        W45317  28.049  22.707  14.945
84029W        W45318  42.392  23.093   0.944
84030W        W45319   6.833  35.027  12.014
84031W        W45320  28.099  44.386   5.129
84032W        W45321  38.073  26.467   2.789
84033W        W45322  35.511  12.331   2.877
84034W        W45323  30.050   9.733  11.991
84035W        W45324  31.975   1.901   0.826
84036W        W45325  11.823  15.310  13.454
84037W        W45326   2.764   7.228  12.440
84038W        W45327  19.118  10.806   4.344
84039W        W45328   1.405  20.199   2.389
84040W        W45329  40.435  37.887   3.662
84041W        W45330  12.785  21.539   3.194
84042W        W45331   4.798  35.474  14.842
84043W        W45332  39.551   0.871   2.273
84044W        W45333  11.698  25.637   4.334
84045W        W45334   1.822  23.663   0.853
84046W        W45335  42.474   0.454   0.323
84047W        W45336  44.499  28.013  13.539
84048W        W45337  17.126  44.312  11.108
84049W        W45338  22.196  22.625   2.707
84050W        W45339  37.449  12.305   3.679
84051W        W45340  10.756  12.199   0.817
84052W        W45341   9.372  41.014   4.769
84053W        W45342  30.507   0.470  13.930
84054W        W45343  34.491   2.809  11.486
84055W        W45344  19.150  10.244   3.382
84056W        W45345  44.452  29.462  10.894
84057W        W45346  22.533  34.054   2.769
84058W        W45347  12.611  41.853  11.052
84059W        W45348  43.289  42.918  10.597
84060W        W45349  39.957   7.840   4.748
84061W        W45350  18.260  33.485   0.285
84062W        W45351  19.192  24.544  11.923
84063W        W45352  43.325  16.098   2.662
84064W        W45353  16.083   2.285  11.555
84065W        W45354  24.982  11.307   3.155
84066W        W45355   3.233   1.361  13.358
84067W        W45356  14.810   2.290  10.597
84068W        W45357  38.827  24.502  13.998
84069W        W45358  41.538   0.847  12.578
84070W        W45359  37.870   7.672  12.997
84071W        W45360  40.321  17.231  13.395
84072W        W45361  24.218  17.137  12.881
84073W        W45362  22.584   8.381  11.091
84074W        W45363  12.737   8.296  13.002
84075W        W45364  20.548   0.943  13.816
84076W        W45365   9.243  35.373   2.328
84077W        W45366  18.647   0.485  12.541
84078W        W45367  15.772  12.358   4.287
84079W        W45368  19.268  13.835   3.175
84080W        W45369  18.623  10.744   0.418
84081W        W45370  38.537  22.084   2.370
84082W        W45371   8.896  34.574  10.508
84083W        W45372  14.170  32.947  10.986
84084W        W45373  24.083  38.073   0.478
84085W        W45374  36.373  25.996   1.731
84086W        W45375  19.097  40.539   4.203
84087W        W45376  18.557  44.363  11.972
84088W        W45377  24.691  31.482   3.256
84089W        W45378  13.176   2.925  13.369
84090W        W45379   3.796  36.071  12.920
84091W        W45380  18.721  23.210  11.491
84092W        W45381  14.206  11.676  11.515
84093W        W45382  25.485   1.889  10.487
84094W        W45383   4.930  16.668  12.048
84095W        W45384  32.459  10.298  11.101
84096W        W45385   8.667   9.782  13.935
84097W        W45386   6.364  21.752  11.435
84098W        W45387  38.040  17.619   1.740
84099W        W45388  41.900  41.992  13.912
84100W        W45389  18.612  43.765  10.892
84101W        W45390   3.805  35.073   1.842
84102W        W45391   5.785   3.751  10.572
84103W        W45392   0.441  33.525  12.037
84104W        W45393  35.363  25.584   2.405
84105W        W45394  24.042  13.216   3.834
84106W        W45395  13.792  38.514  10.608
84107W        W45396  33.440  23.025  12.455
84108W        W45397  16.112  28.106  13.387
84109W        W45398  37.853  17.250  13.951
84110W        W45399  24.676  22.636   3.207
84111W        W45400   0.864  33.455  12.954
84112W        W45401  17.570  21.551  12.023
84113W        W45402  14.290   0.443   3.767
84114W        W45403  34.019  29.936  14.890
84115W        W45404   6.829  23.214   0.401
84116W        W45405  19.101  32.898   2.793
84117W        W45406   8.172  21.625   0.796
84118W        W45407  25.133   1.247   2.240
84119W        W45408  33.126  34.520  11.123
84120W        W45409  39.518  21.629   1.727
84121W        W45410  16.216  22.222   0.357
84122W        W45411  20.564  21.560  10.546
84123W        W45412  33.598  40.865   9.984
84124W        W45413  10.379  30.005   2.305
84125W        W45414  21.071   1.323   2.329
84126W        W45415  19.280  39.997   3.728
84127W        W45416  26.677  16.113   2.203
84128W        W45417  35.906  31.412  14.957
84129W        W45418  32.954  26.537   1.245
84130W        W45419   6.182  18.605  12.890
84131W        W45420   1.338  15.143   4.334
84132W        W45421  29.101   2.323   4.270
84133W        W45422  14.597  41.419  12.458
84134W        W45423  20.212  16.261   2.329
84135W        W45424  17.641  10.777  11.584
84136W        W45425   1.469   9.219   2.207
84137W        W45426  22.142  38.041   1.823
84138W        W45427  16.737  39.322  13.511
84139W        W45428  24.715   0.454   0.900
84140W        W45429  35.109  34.072   3.261
84141W        W45430  41.945   4.940  12.995
84142W        W45431  26.658  38.830   2.762
84143W        W45432   2.469   4.288   1.280
84144W        W45433  36.051   6.845   3.671
84145W        W45434  23.182   7.771  12.446
84146W        W45435  14.643   2.456  11.404
84147W        W45436  12.223  24.095   4.696
84148W        W45437  36.876  18.163  11.552
84149W        W45438  24.649   9.735  14.496
84150W        W45439  10.316  22.609  14.917
84151W        W45440  38.467  16.592   0.886
84152W        W45441  37.564  15.817  12.392
84153W        W45442  24.184   6.188  13.482
84154W        W45443   0.402  13.736   3.821
84155W        W45444  20.684  44.418   2.336
84156W        W45445  21.701  37.963  11.507
84157W        W45446  19.107  23.051  13.062
84158W        W45447  10.734  41.029  12.025
84159W        W45448  32.121  29.552  11.068
84160W        W45449  40.923   0.311   1.320
84161W        W45450  34.117  42.435   0.353
84162W        W45451  20.165  36.082  11.419
84163W        W45452  28.066  40.325   0.735
84164W        W45453  36.369  17.200  14.320
84165W        W45454   4.322   0.382   0.448
84166W        W45455  25.539   5.220  10.936
84167W        W45456   7.909  27.041   1.838
84168W        W45457  42.524   9.369  11.519
84169W        W45458   1.388   2.449  11.451
84170W        W45459  24.108  13.800   0.366
84171W        W45460   7.289   7.355   0.740
84172W        W45461  31.570  10.270  12.957
84173W        W45462  32.980  19.177   1.739
84174W        W45463  39.400  39.052   4.342
84175W        W45464  26.466  18.269   5.192
84176W        W45465  16.657  22.526  12.407
84177W        W45466  36.588  23.163  13.534
84178W        W45467  33.484  27.980  12.432
84179W        W45468  14.656   3.450  10.015
84180W        W45469   0.858  35.994   1.756
84181W        W45470  19.060   4.897  11.424
84182W        W45471  39.348   8.235   4.685
84183W        W45472  40.414  17.242  11.984
84184W        W45473  28.983  41.842   0.318
84185W        W45474  32.886  39.885   0.938
84186W        W45475  40.947  21.091  11.098
84187W        W45476  36.510  44.491   1.910
84188W        W45477  24.001   2.229   0.888
84189W        W45478  34.934  23.675   2.326
84190W        W45479  36.926   6.844   2.778
84191W        W45480   0.287  14.642   1.346
84192W        W45481  10.656   8.698  13.850
84193W        W45482  17.094  20.749   3.215
84194W        W45483  33.105  10.293  11.603
84195W        W45484  37.956  15.615   4.756
84196W        W45485  29.921  15.708  11.455
84197W        W45486  23.494  38.565  13.416
84198W        W45487  14.284   7.757  11.978
84199W        W45488  32.546   0.332  12.952
84200W        W45489  39.327   5.818   0.786
84201W        W45490  28.651  10.183  14.809
84202W        W45491  37.834  34.497   1.433
84203W        W45492  41.912  27.044   0.306
84204W        W45493  29.666  11.685  12.420
84205W        W45494  20.575  18.551   4.181
84206W        W45495   7.847  33.100   1.369
84207W        W45496   9.324   2.444  12.455
84208W        W45497  12.743  40.811  10.090
84209W        W45498  19.211   8.701  11.123
84210W        W45499   3.938  11.670  14.998
84211W        W45500  36.526  34.112   1.839
84212W        W45501   4.723  33.105   2.861
84213W        W45502  21.728  24.973  11.560
84214W        W45503   4.391  30.534  14.373
84215W        W45504   9.187  38.520  14.903
84216W        W45505  20.586   2.874  10.933
84217W        W45506  16.199  29.519  14.474
84218W        W45507  27.483  11.653   4.192
84219W        W45508   5.876  17.767   0.434
84220W        W45509   1.916   4.805  12.567
84221W        W45510  42.816  31.595  12.494
84222W        W45511  35.092  44.375   3.316
84223W        W45512  36.361  31.571  13.943
84224W        W45513   1.410  15.198   0.430
84225W        W45514  30.076  31.547  12.551
84226W        W45515  14.820  19.209  14.445
84227W        W45516  42.829  23.221  11.596
84228W        W45517  37.415  25.641  11.896
84229W        W45518  29.474  25.050  11.563
84230W        W45519  29.938  26.640  14.486
84231W        W45520  31.521  15.668   4.658
84232W        W45521  32.431  12.808   1.253
84233W        W45522  22.731  21.076   1.227
84234W        W45523  26.035  44.856  11.954
84235W        W45524  42.309  22.032   4.246
84236W        W45525   9.349  29.575  14.807
84237W        W45526  24.603  31.508   4.618
84238W        W45527  33.067  11.275  10.407
84239W        W45528   3.346  28.629   0.388
84240W        W45529  34.607  20.666  11.580
84241W        W45530  39.350  15.634   4.700
84242W        W45531  42.967  38.955   4.267
84243W        W45532  33.960  32.507   1.222
84244W        W45533  18.252  19.740  11.389
84245W        W45534  44.476  38.401   0.380
84246W        W45535  16.099  19.242  11.934
84247W        W45536  35.871  29.133  11.533
84248W        W45537  24.120  34.878   2.875
84249W        W45538  29.574   2.252   4.347
84250W        W45539  30.562   3.307  12.838
84251W        W45540  10.380  33.997  11.411
84252W        W45541  24.196  22.029   1.697
84253W        W45542   5.724   3.318  11.471
84254W        W45543  14.699  12.756   4.795
84255W        W45544  34.421  26.111  12.875
84256W        W45545  19.743  23.527   2.707
84257W        W45546   2.363  25.702   2.835
84258W        W45547  21.092  22.657   3.693
84259W        W45548  34.025  39.994   3.789
84260W        W45549  25.148   1.875  14.442
84261W        W45550  10.195  32.975   0.266
84262W        W45551   3.908  14.193   1.870
84263W        W45552   3.952  16.165   4.665
84264W        W45553  41.849  32.589  13.357
84265W        W45554   7.869   6.751   4.653
84266W        W45555   5.439  43.836   1.910
84267W        W45556  41.429  19.187  11.541
84268W        W45557  34.488  11.822  14.899
84269W        W45558  44.290  27.061   3.359
84270W        W45559  26.142  26.484   1.344
84271W        W45560  28.163  20.725  10.535
84272W        W45561  37.410  17.579  14.858
84273W        W45562   4.853  31.480  11.951
84274W        W45563  18.756  19.211   1.291
84275W        W45564  30.927   0.977  13.044
84276W        W45565  17.670  20.156   2.274
84277W        W45566  16.094  41.458   0.726
84278W        W45567  16.106  33.549   2.797
84279W        W45568  23.531  10.348   3.354
84280W        W45569  10.862  22.183  13.021
84281W        W45570  24.085   2.753   2.732
84282W        W45571  44.428  36.842   1.799
84283W        W45572  44.776   8.777  11.387
84284W        W45573  33.392   9.805   4.824
84285W        W45574  30.094  34.871  12.048
84286W        W45575  33.936   7.871   3.699
84287W        W45576   2.366  40.389   4.308
84288W        W45577  25.979   4.881   2.409
84289W        W45578  16.260  13.219  13.320
84290W        W45579  37.076   0.249  11.921
84291W        W45580  30.540  23.621   4.284
84292W        W45581  14.664  44.813   1.895
84293W        W45582  41.409  37.471  10.978
84294W        W45583  34.545   0.328  10.143
84295W        W45584  12.296  33.915  14.919
84296W        W45585  15.779  39.424   9.450
84297W        W45586  22.079  22.016   1.748
84298W        W45587   5.198  12.684  14.380
84299W        W45588  16.806  25.619  12.012
84300W        W45589  31.103   4.296   0.374
84301W        W45590  40.003  30.138   2.742
84302W        W45591  12.341  32.637   0.467
84303W        W45592   8.292   7.314  11.570
84304W        W45593  11.155  17.606   4.298
84305W        W45594  23.150   1.813   0.355
84306W        W45595  23.111  39.344   1.857
84307W        W45596   0.465   1.854   2.710
84308W        W45597   6.243   5.273   2.349
84309W        W45598   7.794  29.601   2.680
84310W        W45599   0.459  16.635  13.871
84311W        W45600  11.750  44.916  11.569
84312W        W45601  28.647  25.579   1.797
84313W        W45602  36.437   1.911   2.855
84314W        W45603  38.033  15.097   3.207
84315W        W45604   5.331  17.252  13.483
84316W        W45605  35.032   5.837   1.699
84317W        W45606  40.888  38.533   2.261
84318W        W45607  34.488   6.246   4.730
84319W        W45608   5.317  31.151  14.850
84320W        W45609  29.507  23.640  13.897
84321W        W45610  39.505  28.174   2.834
84322W        W45611  30.600  18.746  14.885
84323W        W45612  18.566  26.162  12.943
84324W        W45613  10.157  29.526   1.373
84325W        W45614   3.333  17.571  13.415
84326W        W45615   3.230  40.935  11.863
84327W        W45616  22.250  26.158   0.346
84328W        W45617  38.333  14.693  12.461
84329W        W45618  25.090   1.855  12.910
84330W        W45619  10.794  34.469   5.214
84331W        W45620  43.859  19.555  14.461
84332W        W45621   3.334  22.211   3.224
84333W        W45622  40.839   6.842  13.512
84334W        W45623  27.050  42.465  13.414
84335W        W45624  24.677   1.805  10.945
84336W        W45625  41.006  36.892  10.993
84337W        W45626  30.043   0.284   0.857
84338W        W45627  22.659  26.143  11.107
84339W        W45628  26.598  30.163  14.027
84340W        W45629  31.480  21.512  14.447
84341W        W45630  32.956   0.412  13.339
84342W        W45631  10.217  41.398   1.929
84343W        W45632  27.981  26.468   0.300
84344W        W45633  42.782  35.028   5.104
84345W        W45634  30.571  42.916   5.173
84346W        W45635  30.442  42.428  11.468
84347W        W45636   3.304  33.037   0.244
84348W        W45637  29.662   9.277   9.519
84349W        W45638  16.749  39.808  12.923
84350W        W45639  30.097  35.410  11.022
84351W        W45640   3.721  30.923   2.855
84352W        W45641  35.502   4.832  13.495
84353W        W45642   1.470  25.533  13.430
84354W        W45643  33.088  25.034   1.843
84355W        W45644  15.321   3.806  12.468
84356W        W45645  29.631  39.409  14.779
84357W        W45646  15.765  26.520  13.046
84358W        W45647  16.172   4.209   0.300
84359W        W45648  26.180  32.898   0.315
84360W        W45649  38.027  38.946   3.318
84361W        W45650  33.921   3.735   9.973
84362W        W45651  14.817  12.712   0.470
84363W        W45652  16.173  21.126  11.518
84364W        W45653  10.687  43.403  14.897
84365W        W45654  35.478   7.394   1.792
84366W        W45655  38.918  33.961  13.447
84367W        W45656  43.299  29.604   2.384
84368W        W45657  16.228   9.736  13.003
84369W        W45658   8.379  22.584   2.762
84370W        W45659  34.061   0.898  10.974
84371W        W45660   5.372  28.611  14.349
84372W        W45661  33.609  43.955  10.947
84373W        W45662  37.922  27.002   2.210
84374W        W45663   1.863  10.837  13.877
84375W        W45664  36.939   7.694  13.446
84376W        W45665  37.009  12.240   1.806
84377W        W45666  27.638  13.689  11.472
84378W        W45667   0.883  32.895   4.613
84379W        W45668  39.844  30.014   2.405
84380W        W45669  18.203  22.128  12.031
84381W        W45670  17.200  20.085  10.540
84382W        W45671  25.558  42.868   2.868
84383W        W45672  27.982  27.589  12.454
84384W        W45673  37.351  37.957  12.880
84385W        W45674  41.040  40.461  12.837
84386W        W45675  28.141  40.017   0.788
84387W        W45676  34.108  23.105  12.885
84388W        W45677   9.198  24.615   2.299
84389W        W45678   5.784  28.564  12.089
84390W        W45679  22.142  20.094  13.951
84391W        W45680   9.211   2.877  11.527
84392W        W45681  23.519  22.660  12.952
84393W        W45682  27.485   9.355  14.278
84394W        W45683  26.626  44.419   3.759
84395W        W45684  20.716  33.535  12.084
84396W        W45685  16.583  42.305  10.561
84397W        W45686  14.610  19.226   3.364
84398W        W45687  20.154  24.974  12.434
84399W        W45688  20.116  40.901  13.822
84400W        W45689  10.795  18.705  14.014
84401W        W45690  40.418  41.856  11.523
84402W        W45691  13.779   4.780   1.763
84403W        W45692  43.000  42.388  11.583
84404W        W45693  43.461  30.531   2.187
84405W        W45694   2.816   6.303   0.298
84406W        W45695  29.538  13.282   5.175
84407W        W45696  11.206  11.773  10.961
84408W        W45697  18.727  35.913  11.889
84409W        W45698  39.936  26.170   3.864
84410W        W45699  37.481   4.422   2.228
84411W        W45700  30.659  43.856   4.658
84412W        W45701  26.154  41.793  13.397
84413W        W45702   1.916  23.131   4.347
84414W        W45703  14.814  13.133  14.983
84415W        W45704  42.957  35.586   3.384
84416W        W45705  16.619  35.049  13.522
84417W        W45706   6.867  20.236   4.331
84418W        W45707   6.893  17.699  11.553
84419W        W45708   1.847  40.530  11.096
84420W        W45709  43.431   0.865  10.002
84421W        W45710  32.970  24.022   4.140
84422W        W45711  25.065  36.905   3.250
84423W        W45712  40.821  21.596  13.533
84424W        W45713  42.293  34.067  11.602
84425W        W45714  23.224  21.046   0.449
84426W        W45715  13.310   7.228  14.931
84427W        W45716  16.099  12.127   4.722
84428W        W45717   6.299   6.809  13.484
84429W        W45718   3.285  35.047  12.500
84430W        W45719  18.706  22.051   2.241
84431W        W45720   0.866  16.811  12.361
84432W        W45721  28.138   6.706   2.734
84433W        W45722  11.669  33.600   0.851
84434W        W45723  24.708  14.230   4.295
84435W        W45724  40.894  33.434  14.385
84436W        W45725  19.608  32.107  14.758
84437W        W45726  32.629  17.609  10.976
84438W        W45727  35.895  15.581   1.234
84439W        W45728  27.656  25.643  12.838
84440W        W45729   4.313  40.992   3.344
84441W        W45730  38.985   4.730   0.937
84442W        W45731  21.742  26.516   3.343
84443W        W45732   9.775  24.977  10.630
84444W        W45733  16.700   3.727  11.889
84445W        W45734  14.206  12.841   1.295
84446W        W45735  26.994  15.146  12.936
84447W        W45736  29.624   0.766   3.752
84448W        W45737  17.082  34.941   1.425
84449W        W45738  31.584   6.217   3.860
84450W        W45739   4.405  27.101  11.490
84451W        W45740  44.922   5.396  13.386
84452W        W45741  36.572  26.611  10.581
84453W        W45742  17.120  29.148   4.837
84454W        W45743  29.052  26.174   1.776
84455W        W45744  31.544  31.064   2.861
84456W        W45745  38.900  15.713  14.873
84457W        W45746  17.692  10.272   0.824
84458W        W45747  35.091  29.090   1.336
84459W        W45748   8.870  44.346   0.825
84460W        W45749  33.028  36.857   1.211
84461W        W45750  21.622  43.876  13.355
84462W        W45751  11.746  17.721   1.904
84463W        W45752  11.128  16.739   2.836
84464W        W45753  22.192  14.252   1.354
84465W        W45754  10.341  34.865   0.892
84466W        W45755  26.643   9.163  11.855
84467W        W45756  13.603  35.949   1.268
84468W        W45757  17.196   4.387   4.187
84469W        W45758  30.504  20.610   4.138
84470W        W45759  23.109   7.825   0.946
84471W        W45760   4.703  23.210   1.712
84472W        W45761   5.321   5.380   0.756
84473W        W45762   0.385  37.372  10.525
84474W        W45763   0.424  34.492  14.417
84475W        W45764  34.376  21.139   0.902
84476W        W45765  37.046  14.651  10.485
84477W        W45766   0.880   5.223  14.959
84478W        W45767  17.622  44.319  12.837
84479W        W45768  29.610  19.655  14.760
84480W        W45769  11.668  35.017  13.885
84481W        W45770  36.578   2.802   2.867
84482W        W45771   7.871  10.856   4.768
84483W        W45772  31.412  20.160  13.920
84484W        W45773  35.480  35.422  10.894
84485W        W45774  31.096  18.171  11.419
84486W        W45775  35.086  43.503   1.324
84487W        W45776  32.904  42.311  14.420
84488W        W45777  44.287  38.466  12.397
84489W        W45778  20.726  31.942  12.475
84490W        W45779   7.236  24.724   2.700
84491W        W45780   2.457  39.935  11.483
84492W        W45781  36.430  32.578   3.379
84493W        W45782  21.078  13.184   1.722
84494W        W45783  13.256  41.325   3.718
84495W        W45784   8.403  16.785  13.822
84496W        W45785  37.539  36.489  11.608
84497W        W45786   9.824  43.441   1.407
84498W        W45787  35.464  13.117  11.379
84499W        W45788  41.463  26.047  14.864
84500W        W45789  36.924  14.219   0.307
84501W        W45790  10.666  41.987   4.734
84502W        W45791  40.815  12.293  13.401
84503W        W45792  41.990  22.597  10.904
84504W        W45793  37.492  26.066   3.782
84505W        W45794  23.720   9.798   4.155
84506W        W45795   5.394  15.102  13.922
84507W        W45796  22.206  34.999  13.036
84508W        W45797  40.312  14.202   3.700
84509W        W45798  43.902  20.166  13.966
84510W        W45799  33.614   4.854  13.998
84511W        W45800  24.490  37.340   0.742
84512W        W45801  16.595  30.473  13.001
84513W        W45802  31.572  21.217   2.224
84514W        W45803  22.554  18.154   0.243
84515W        W45804  25.169  43.943  13.492
84516W        W45805   8.277  39.903   3.279
84517W        W45806  43.303  22.504  12.860
84518W        W45807  43.778  22.065  10.951
84519W        W45808  37.379  24.602   4.219
84520W        W45809  28.668  37.378   1.822
84521W        W45810  37.994  18.790  12.996
84522W        W45811  24.997  28.604   0.790
84523W        W45812  32.931  23.662   3.302
84524W        W45813  31.064  36.866   1.898
84525W        W45814  13.136  32.511   4.278
84526W        W45815  39.390   0.358  10.955
84527W        W45816  32.093  10.156   1.384
84528W        W45817  33.079  42.463   0.814
84529W        W45818  22.113   7.840   0.897
84530W        W45819  27.979  36.045  11.533
84531W        W45820  39.005  24.567   4.824
84532W        W45821   5.237  39.838   0.462
84533W        W45822   3.835   0.294   2.678
84534W        W45823  33.599  12.755  13.365
84535W        W45824   4.449  32.947  11.439
84536W        W45825  13.762  36.356   1.805
84537W        W45826   3.742  31.064  13.030
84538W        W45827   1.450  38.503  13.406
84539W        W45828  44.993  25.641  14.340
84540W        W45829   0.340  34.524  12.844
84541W        W45830   5.371  44.300  12.423
84542W        W45831  23.031  10.215   2.190
84543W        W45832  35.884  31.940   4.668
84544W        W45833  44.325  23.122   3.330
84545W        W45834  15.279  33.083   0.429
84546W        W45835  39.544  15.586  14.374
84547W        W45836   3.384  37.034  13.355
84548W        W45837  17.582  31.975   4.614
84549W        W45838  44.762  25.627   2.701
84550W        W45839  11.267  35.067   4.127
84551W        W45840  15.757  39.888   0.954
84552W        W45841  12.698  28.015  10.579
84553W        W45842  30.500  35.467  11.901
84554W        W45843  39.970  22.736   0.896
84555W        W45844   1.295  20.718  14.942
84556W        W45845   2.344  35.559  11.584
84557W        W45846  20.611  34.055  11.973
84558W        W45847  36.391   4.238   3.383
84559W        W45848  21.739  20.711  12.885
84560W        W45849  15.101  20.522   0.815
84561W        W45850  25.140  30.541  12.537
84562W        W45851  21.141  18.286   1.832
84563W        W45852  42.526  44.479  14.448
84564W        W45853  13.666  24.651   4.122
84565W        W45854   2.255  13.787   4.276
84566W        W45855  43.957  35.370  10.920
84567W        W45856  36.093  37.936   3.796
84568W        W45857  10.693  18.295  12.418
84569W        W45858  17.726  14.301  14.013
84570W        W45859   9.708  32.433   3.776
84571W        W45860  39.352  24.693  12.477
84572W        W45861  27.574  20.100   1.775
84573W        W45862   5.340  38.369   1.330
84574W        W45863  37.505  18.614   0.415
84575W        W45864  10.820  37.500  14.408
84576W        W45865  32.434  32.021  14.384
84577W        W45866   1.949  19.102   3.348
84578W        W45867   8.212   2.778  13.525
84579W        W45868  29.039  30.600   0.871
84580W        W45869  34.970  24.049   0.332
84581W        W45870  44.480  36.577  14.979
84582W        W45871  14.220  35.409   0.417
84583W        W45872   0.897  36.480  12.926
84584W        W45873  12.349  10.296  13.843
84585W        W45874   7.676  42.944  11.422
84586W        W45875  27.087  23.178  11.906
84587W        W45876  29.920  14.757  11.995
84588W        W45877  17.582  22.517  12.522
84589W        W45878   4.401   0.307   1.365
84590W        W45879  28.633   4.827  14.816
84591W        W45880  29.447   5.816  12.902
84592W        W45881  40.403  25.111  13.798
84593W        W45882  27.683   7.282  11.072
84594W        W45883  15.197   0.806   0.947
84595W        W45884  27.572  20.105  13.953
84596W        W45885  34.544  33.953  11.505
84597W        W45886  25.004  43.310  10.557
84598W        W45887  22.193   6.219  12.367
84599W        W45888   9.194  24.069  12.537
84600W        W45889  22.693   7.843  13.002
84601W        W45890   1.330  27.187   1.764
84602W        W45891   6.762  21.659   2.223
84603W        W45892  13.706   4.790  14.413
84604W        W45893  15.696  43.989  13.343
84605W        W45894  23.990  16.313  13.942
84606W        W45895  11.154  33.932   0.833
84607W        W45896  42.015  36.553  11.032
84608W        W45897  35.551   5.213   1.700
84609W        W45898  34.404  43.363   0.432
84610W        W45899   1.254   8.770   3.368
84611W        W45900  31.918  41.813  14.489
84612W        W45901   2.239  14.790   1.257
84613W        W45902  25.145  35.955  13.837
84614W        W45903  20.637  24.587  12.430
84615W        W45904   1.836  31.002   4.330
84616W        W45905  30.043  34.887  14.363
84617W        W45906  21.110  11.194  11.008
84618W        W45907  28.031   7.378  13.502
84619W        W45908  28.616  30.612  11.114
84620W        W45909  43.365  17.251   3.848
84621W        W45910  25.163   5.358   3.796
84622W        W45911   9.666  14.186  13.397
84623W        W45912  40.843  15.208  14.369
84624W        W45913   3.313   3.919   4.831
84625W        W45914  22.501  34.389  11.113
84626W        W45915  35.014  21.541  10.475
84627W        W45916  38.941  12.644   0.964
84628W        W45917  38.856  27.083   0.892
84629W        W45918   8.201   8.196   4.344
84630W        W45919  42.978  17.260  12.908
84631W        W45920   2.795  11.746   3.649
84632W        W45921   5.386   9.764  14.366
84633W        W45922  34.572  44.841  12.844
84634W        W45923  44.773  31.585   1.782
84635W        W45924  16.266   3.246   2.318
84636W        W45925  35.405  43.835   4.137
84637W        W45926  17.603  37.016   0.283
84638W        W45927  35.919  41.457  10.623
84639W        W45928  27.570   4.341   0.913
84640W        W45929  28.116  37.541   5.117
84641W        W45930  42.466  26.481   2.368
84642W        W45931  17.623  33.986   2.727
84643W        W45932  10.222   5.731  13.954
84644W        W45933  25.692   4.810   2.350
84645W        W45934  33.030  40.364   1.881
84646W        W45935  15.188  39.851  13.392
84647W        W45936   1.243  30.450   0.823
84648W        W45937   8.277  10.823  12.996
84649W        W45938  40.955  39.471  14.774
84650W        W45939  38.844   7.248  10.466
84651W        W45940   3.881  17.165  11.063
84652W        W45941   8.687   4.235  12.352
84653W        W45942   8.716   8.357  12.390
84654W        W45943  14.775  18.228  14.290
84655W        W45944  30.427  12.790   3.831
84656W        W45945  19.223  33.904   0.818
84657W        W45946  43.973  16.199  10.952
84658W        W45947   9.687   1.798   4.838
84659W        W45948  36.516   0.454  11.003
84660W        W45949  15.140   0.957   0.291
84661W        W45950  35.511  33.518   4.290
84662W        W45951  14.225   3.818   0.925
84663W        W45952   6.317  33.981   1.379
84664W        W45953  40.535  32.083  13.951
84665W        W45954  37.856  18.131   1.771
84666W        W45955  26.965  16.718   4.762
84667W        W45956  28.986  35.036   4.736
84668W        W45957  43.848  39.459  14.916
84669W        W45958  41.450   8.175   3.728
84670W        W45959   6.850  33.961  12.521
84671W        W45960  28.517  36.062  14.943
84672W        W45961  44.444   4.795  12.374
84673W        W45962  24.708  31.927  11.568
84674W        W45963  14.257  22.070   1.217
84675W        W45964   1.865  10.221  14.410
84676W        W45965  26.093  40.340  12.408
84677W        W45966  18.067   0.981   1.280
84678W        W45967  43.371  41.818   2.335
84679W        W45968  40.418  14.677  14.460
84680W        W45969  17.720  27.951  11.467
84681W        W45970  10.180   5.428   2.188
84682W        W45971  37.507  21.244   3.319
84683W        W45972  30.592  22.605   2.883
84684W        W45973  43.470  35.513   0.274
84685W        W45974   4.369  22.742  14.841
84686W        W45975  35.536   6.700   0.422
84687W        W45976  22.173  44.813  14.336
84688W        W45977   7.846  27.131  11.544
84689W        W45978  12.625  43.310   1.300
84690W        W45979  35.016   7.324  13.519
84691W        W45980  13.303  34.948  12.074
84692W        W45981   7.877  40.309  11.899
84693W        W45982  18.209   9.761   1.276
84694W        W45983  20.152  14.704  10.526
84695W        W45984  38.497  21.718  14.985
84696W        W45985   5.423   9.299  10.919
84697W        W45986  34.579   4.443   0.249
84698W        W45987  21.162   4.815  13.895
84699W        W45988  20.230  11.312  13.905
84700W        W45989   0.961   3.772   4.216
84701W        W45990  37.562  20.255  10.919
84702W        W45991  43.796   7.819  11.550
84703W        W45992  43.003   8.202  12.024
84704W        W45993  18.777  26.094   3.204
84705W        W45994  38.824  20.526   2.291
84706W        W45995  17.162  25.192  13.988
84707W        W45996  29.466  17.689  13.883
84708W        W45997  44.370  31.941   3.303
84709W        W45998  19.679  31.516  12.894
84710W        W45999  26.559  32.599   0.806
84711W        W46000  43.449  11.296  10.897
84712W        W46001   5.689  42.472  12.550
84713W        W46002  35.381   7.756  11.905
84714W        W46003   3.883  37.061  12.438
84715W        W46004  13.190  26.578   3.221
84716W        W46005  43.914  15.782   2.732
84717W        W46006  30.457  40.533  11.572
84718W        W46007  11.230  19.257  10.475
84719W        W46008  24.633  13.201   0.740
84720W        W46009  39.449   6.349   1.267
84721W        W46010  42.458  23.516   3.772
84722W        W46011  13.740  15.315  13.324
84723W        W46012  18.060  22.228  10.637
84724W        W46013  24.155   7.774  11.488
84725W        W46014  14.096  20.212  13.312
84726W        W46015   1.409  37.541   3.216
84727W        W46016  39.324  42.397  12.018
84728W        W46017  15.772  43.283   3.660
84729W        W46018   5.379  44.327  11.935
84730W        W46019  20.257  14.798   3.277
84731W        W46020  43.478  16.096  12.906
84732W        W46021  25.173  35.382   1.858
84733W        W46022  35.461  16.231   2.348
84734W        W46023  10.151  28.439  10.916
84735W        W46024  39.048  39.525  14.876
84736W        W46025  26.196  17.307   3.351
84737W        W46026  37.484  42.880  10.583
84738W        W46027  35.458  35.860  11.383
84739W        W46028  14.197   6.910   2.680
84740W        W46029  15.165   1.769   0.756
84741W        W46030  32.463  43.516  12.397
84742W        W46031  18.658  27.496   0.855
84743W        W46032  23.522   2.853   2.346
84744W        W46033  30.635  17.190  12.914
84745W        W46034   0.328  35.100   0.928
84746W        W46035   6.706  10.751   1.384
84747W        W46036   3.901  42.879  12.578
84748W        W46037  24.019  26.000  14.469
84749W        W46038  41.922   2.305   3.668
84750W        W46039   0.934  32.481  11.103
84751W        W46040   2.773  20.219   0.264
84752W        W46041  12.701  41.516  14.781
84753W        W46042   0.912  12.628  12.863
84754W        W46043  41.880  29.092  13.367
84755W        W46044  22.122  26.527  13.328
84756W        W46045  40.304  32.018   3.826
84757W        W46046  42.452  27.457  14.508
84758W        W46047  34.119  42.343   2.401
84759W        W46048   2.950  16.271   4.749
84760W        W46049   0.456  26.488   4.645
84761W        W46050  27.600  16.248   4.135
84762W        W46051  32.509  18.659  11.080
84763W        W46052  26.038  16.749  13.942
84764W        W46053  14.713  43.493  14.856
84765W        W46054  37.958  12.274  11.029
84766W        W46055  43.382   9.288  12.874
84767W        W46056  28.494  43.424  13.804
84768W        W46057  18.761  19.177   2.844
84769W        W46058  27.155  16.630   4.332
84770W        W46059  16.264  25.175   3.218
84771W        W46060  22.514   2.891   1.411
84772W        W46061  24.019  17.210   1.264
84773W        W46062  26.969  28.533   2.668
84774W        W46063   4.215  33.463  13.012
84775W        W46064  30.077   0.807  11.947
84776W        W46065  17.561  14.776   2.394
84777W        W46066  36.517  30.010  11.944
84778W        W46067   3.771  22.654   4.274
84779W        W46068  19.777   7.228  13.423
84780W        W46069  39.998   7.726  14.810
84781W        W46070  12.692  27.689  14.025
84782W        W46071  15.631  27.464   3.363
84783W        W46072  15.149   0.469  11.891
84784W        W46073  23.985  19.607   4.749
84785W        W46074  10.731  16.792  14.826
84786W        W46075  44.406  43.361  14.842
84787W        W46076  30.431   8.785  10.997
84788W        W46077  23.010  42.946   3.631
84789W        W46078  35.853  10.825   2.873
84790W        W46079  39.507   9.289  11.484
84791W        W46080  33.504  41.314   4.752
84792W        W46081  24.984  44.461   4.823
84793W        W46082  23.155  34.567   1.271
84794W        W46083  42.362   0.904   4.624
84795W        W46084  41.500  22.089  10.563
84796W        W46085   8.178  15.165   4.250
84797W        W46086  40.400  18.211   3.692
84798W        W46087  18.653   9.230  12.551
84799W        W46088   0.870  32.615   3.645
84800W        W46089  36.562  15.257  12.992
84801W        W46090  32.053   4.739   3.666
84802W        W46091  10.820  37.364   1.797
84803W        W46092   3.369  32.530   4.120
84804W        W46093  12.248  11.706  12.424
84805W        W46094  16.179   5.378  12.573
84806W        W46095  27.548   6.758   0.769
84807W        W46096  32.556  15.748   4.740
84808W        W46097  34.411  38.041  12.896
84809W        W46098   0.413  25.094   2.900
84810W        W46099   3.824  20.090  10.935
84811W        W46100  14.296  31.007   3.349
84812W        W46101  26.047  30.476  13.011
84813W        W46102  10.248  35.912   2.259
84814W        W46103  36.992   9.284   0.339
84815W        W46104  25.604  36.433  11.546
84816W        W46105  12.759  37.894   1.414
84817W        W46106  39.376  39.444  10.410
84818W        W46107  31.117   9.712   1.730
84819W        W46108  22.528  31.033   0.392
84820W        W46109  42.435  18.553  14.949
84821W        W46110  25.182  40.521  12.009
84822W        W46111  39.956  37.492   1.896
84823W        W46112  30.029  43.771   4.820
84824W        W46113  15.601  13.259  13.055
84825W        W46114   8.848   0.370  14.382
84826W        W46115  21.686  30.479   3.858
84827W        W46116  29.583  11.287  11.963
84828W        W46117   8.291   9.336   3.805
84829W        W46118  20.266  21.590   1.211
84830W        W46119   3.255  15.213   2.252
84831W        W46120  40.799  40.968  12.398
84832W        W46121   7.334  16.107  11.971
84833W        W46122   1.774   9.694  13.912
84834W        W46123  21.048   2.373   4.615
84835W        W46124  41.413  17.644  14.015
84836W        W46125  29.613   1.785   2.769
84837W        W46126   3.860  35.855   4.757
84838W        W46127   5.817   9.201  11.396
84839W        W46128  14.159  19.065   1.714
84840W        W46129  27.100  20.205   2.675
84841W        W46130  17.751  21.046   4.148
84842W        W46131  25.630  20.680   1.352
84843W        W46132  22.240  39.016   0.477
84844W        W46133  24.520   0.968   1.354
84845W        W46134  21.154  37.847   2.735
84846W        W46135   4.705   1.383  14.471
84847W        W46136  35.982  24.550   0.420
84848W        W46137  33.435   5.244  10.595
84849W        W46138   2.896   2.293  12.871
84850W        W46139  19.608  19.138   2.665
84851W        W46140  12.620  41.346   1.696
84852W        W46141  15.720  40.920   1.922
84853W        W46142  16.669  18.167   0.349
84854W        W46143  31.474   4.706  12.072
84855W        W46144  44.794  11.171  10.515
84856W        W46145  16.647   0.974   3.216
84857W        W46146  18.675  21.102   4.167
84858W        W46147   1.818  27.153   4.292
84859W        W46148  43.802  38.567  13.385
84860W        W46149  21.571  22.078  13.370
84861W        W46150  22.095  24.062   0.767
84862W        W46151  40.412  16.207   2.692
84863W        W46152  14.130  26.010  12.380
84864W        W46153  30.053  21.735  13.460
84865W        W46154  39.055  14.763   4.323
84866W        W46155  26.027  19.204   1.447
84867W        W46156   8.828  35.581   0.304
84868W        W46157  41.512  39.475   2.787
84869W        W46158   4.726  33.057  14.446
84870W        W46159  11.289  38.018  13.885
84871W        W46160  33.975  17.075  14.279
84872W        W46161  25.062   2.915  13.344
84873W        W46162  20.037   9.731   3.352
84874W        W46163  20.097   8.780   0.254
84875W        W46164  39.044   1.368  10.053
84876W        W46165   4.722  40.345   1.357
84877W        W46166  18.579  17.733   4.687
84878W        W46167  32.629   8.299  14.848
84879W        W46168  16.089  13.341   0.435
84880W        W46169  33.001  18.617  12.342
84881W        W46170  29.522  25.561  13.957
84882W        W46171  26.679   5.701   2.771
84883W        W46172   2.747   1.978  12.096
84884W        W46173  12.699   6.703   2.419
84885W        W46174  23.661  15.609   3.675
84886W        W46175  17.799  31.012  13.054
84887W        W46176  40.353  34.025   4.290
84888W        W46177  36.963  36.888  12.344
84889W        W46178  16.673   5.248   1.825
84890W        W46179  32.576  38.467  10.595
84891W        W46180  31.131  17.129   4.627
84892W        W46181  14.237  15.103  11.488
84893W        W46182  11.350   6.719   1.345
84894W        W46183  13.814  38.527   3.655
84895W        W46184  19.171  19.621   0.830
84896W        W46185  23.066  24.121   1.696
84897W        W46186  43.809  38.506   2.257
84898W        W46187  22.723  16.192  13.918
84899W        W46188  20.078  32.442  11.063
84900W        W46189  31.617  43.394   0.352
84901W        W46190  37.399  43.835  14.421
84902W        W46191   8.358  17.615  10.995
84903W        W46192  21.154   4.715   2.363
84904W        W46193   1.757   0.785   4.114
84905W        W46194  19.187   8.355  14.487
84906W        W46195   1.414   4.238  12.060
84907W        W46196   3.824  36.541   4.211
84908W        W46197  30.088  30.939   3.742
84909W        W46198  17.759  18.744  10.986
84910W        W46199   4.345   8.894   0.773
84911W        W46200  10.195  26.665  12.095
84912W        W46201  33.561   9.722  12.886
84913W        W46202   7.258  39.987  12.428
84914W        W46203  39.348  37.075  13.433
84915W        W46204  14.143  30.922   0.912
84916W        W46205  37.496  31.475  13.519
84917W        W46206  41.830  38.507   4.205
84918W        W46207  41.310  40.357   0.754
84919W        W46208  15.128   6.313  12.455
84920W        W46209   5.196  20.625   0.860
84921W        W46210  16.673  11.732   0.882
84922W        W46211  36.056  36.008   3.230
84923W        W46212  15.196  39.414  11.574
84924W        W46213  27.078  29.066  11.977
84925W        W46214  19.138  12.284  14.938
84926W        W46215  18.674  43.319   2.203
84927W        W46216  22.208  10.806   0.278
84928W        W46217   1.466  19.558   1.885
84929W        W46218  15.110  11.214   0.272
84930W        W46219  23.505  30.482  12.512
84931W        W46220  34.886   8.369  13.873
84932W        W46221  37.387   2.452   1.425
84933W        W46222  10.781  37.414  10.503
84934W        W46223   1.303   6.760  13.547
84935W        W46224  31.943   3.829  13.452
84936W        W46225   0.385  35.912   3.752
84937W        W46226  38.046  36.901  10.515
84938W        W46227   9.164   0.360  11.095
84939W        W46228  25.146  27.452   0.369
84940W        W46229  44.307  31.580   0.332
84941W        W46230  40.453  31.635   2.824
84942W        W46231  18.589  41.816  13.824
84943W        W46232  38.463  30.046   0.292
84944W        W46233  26.456  14.793   0.353
84945W        W46234  14.772  28.965  14.364
84946W        W46235  26.457  32.020   5.170
84947W        W46236   9.217  44.335  10.545
84948W        W46237  10.751  21.578   3.221
84949W        W46238  40.534  39.035   2.345
84950W        W46239  33.574   9.337  14.807
84951W        W46240   5.930   8.667  14.488
84952W        W46241  19.552   5.812   1.378
84953W        W46242   8.772  19.704  14.777
84954W        W46243  27.557   7.194  10.542
84955W        W46244  44.991   7.202   2.291
84956W        W46245  43.823   2.453  14.955
84957W        W46246  22.680  34.512   2.847
84958W        W46247  21.611  43.388   0.964
84959W        W46248  17.296  33.075  10.571
84960W        W46249   7.714   6.847  11.521
84961W        W46250  15.638  32.895  11.386
84962W        W46251  29.086   0.385   4.299
84963W        W46252   0.484  21.652   2.887
84964W        W46253  15.296  25.091   3.229
84965W        W46254  18.072   5.832   3.161
84966W        W46255  29.168   3.736   3.357
84967W        W46256  14.617  24.565   2.312
84968W        W46257  39.557  15.792   2.391
84969W        W46258  23.019  36.506  11.965
84970W        W46259  24.555  26.107   4.839
84971W        W46260  43.784  39.372   4.784
84972W        W46261  41.863   0.850  14.875
84973W        W46262  35.071   0.871   5.171
84974W        W46263  28.933  43.795  13.983
84975W        W46264   6.233  34.491  12.078
84976W        W46265   0.327  21.086   2.354
84977W        W46266  17.800  19.579   2.806
84978W        W46267  22.643  29.019  10.031
84979W        W46268   1.821  39.925   3.679
84980W        W46269   0.971   6.855   3.651
84981W        W46270  39.345  27.691  11.115
84982W        W46271  43.829  24.694  14.839
84983W        W46272  25.617  41.409  13.432
84984W        W46273  40.837  39.981  14.361
84985W        W46274  12.795   8.293  12.074
84986W        W46275  20.080  40.518  11.054
84987W        W46276  15.117  34.441   9.484
84988W        W46277  31.574  14.732  11.056
84989W        W46278  21.664  16.077   0.806
84990W        W46279  39.479  17.087  12.425
84991W        W46280  31.126   8.378   1.277
84992W        W46281  35.973   9.328  13.415
84993W        W46282   8.205  23.108  13.821
84994W        W46283   2.367   7.751  13.409
84995W        W46284   6.765  23.659  12.467
84996W        W46285  40.523  40.866  11.475
84997W        W46286   5.692   4.862   3.766
84998W        W46287   3.222  30.938  13.972
84999W        W46288   3.315  42.924  10.644
85000W        W46289  35.044  17.063   5.206
85001W        W46290  20.729  40.342   4.214
85002W        W46291  27.536  34.391  13.797
85003W        W46292  19.233  39.461   3.869
85004W        W46293   7.735  23.725   5.165
85005W        W46294   2.737  27.124   4.258
85006W        W46295  28.960  21.073  12.834
85007W        W46296  23.726  43.804  14.938
85008W        W46297  39.370  30.052  12.508
85009W        W46298   8.693  32.894  13.407
85010W        W46299   2.800  32.475   0.359
85011W        W46300  12.203  19.205   2.392
85012W        W46301  35.100  19.174   4.823
85013W        W46302  14.691  40.460  14.775
85014W        W46303  43.275  26.969  12.963
85015W        W46304  43.806  21.018  13.832
85016W        W46305  30.077  41.360  12.937
85017W        W46306  21.517  35.005  11.122
85018W        W46307  32.040  27.194   4.791
85019W        W46308  11.628   3.400   4.283
85020W        W46309  35.597  21.188   1.821
85021W        W46310  32.132  43.927  12.545
85022W        W46311  43.396  25.565  12.502
85023W        W46312  28.137  10.751   5.262
85024W        W46313  24.529  34.595  13.830
85025W        W46314  34.466  12.700  13.386
85026W        W46315  30.437  10.275  12.953
85027W        W46316  10.223   1.315   2.815
85028W        W46317  42.524  16.681  12.468
85029W        W46318  29.976  17.280  12.370
85030W        W46319  40.819  43.429   0.398
85031W        W46320  17.752  42.476  14.453
85032W        W46321  23.229  40.523   2.858
85033W        W46322   2.431   7.767  14.497
85034W        W46323  26.587  30.521   1.438
85035W        W46324   4.205  44.343   3.722
85036W        W46325   2.911   2.874   0.325
85037W        W46326  35.376   4.730   4.177
85038W        W46327  15.207  12.801  12.866
85039W        W46328   9.153  32.550   1.416
85040W        W46329  15.090  34.409   4.680
85041W        W46330  30.422   5.435   0.334
85042W        W46331  27.689  10.657   0.343
85043W        W46332  20.106  24.610   1.270
85044W        W46333  39.555  43.318  14.868
85045W        W46334  25.219  18.572   1.786
85046W        W46335  24.002  41.861  13.459
85047W        W46336   4.743  19.564   3.175
85048W        W46337  21.620  18.692  11.465
85049W        W46338  22.054  24.190   3.370
85050W        W46339  18.097   5.822  14.929
85051W        W46340   4.249   7.356   2.283
85052W        W46341  15.789  25.063  11.433
85053W        W46342  41.803  26.008  12.349
85054W        W46343   0.383  29.517  10.615
85055W        W46344  37.416  18.759   3.265
85056W        W46345   7.722  33.993  13.461
85057W        W46346  29.988  41.805   1.302
85058W        W46347  16.613  13.312   4.614
85059W        W46348  29.507   9.314   0.392
85060W        W46349   6.243  14.589  12.010
85061W        W46350  36.042  20.568  11.008
85062W        W46351  40.528  36.578   2.255
85063W        W46352  23.655  35.408   0.343
85064W        W46353  28.058  36.049   2.870
85065W        W46354  12.254  43.500   0.851
85066W        W46355   9.376   8.675  14.832
85067W        W46356  25.636   8.377  13.413
85068W        W46357  13.794  37.016   2.885
85069W        W46358  40.517  25.481   0.791
85070W        W46359  19.078  28.130   4.226
85071W        W46360  41.848  34.030   4.634
85072W        W46361  23.599   2.353   1.697
85073W        W46362  33.475   0.280  11.067
85074W        W46363  43.288   7.358   5.128
85075W        W46364  31.902  44.817   0.442
85076W        W46365  13.213  22.679  13.891
85077W        W46366   4.854  37.433  12.417
85078W        W46367  13.208  42.006   2.671
85079W        W46368  21.019  44.260  14.312
85080W        W46369  27.081   6.361   0.882
85081W        W46370  40.448  44.294  12.508
85082W        W46371  23.213  10.274   3.834
85083W        W46372  12.844  24.042  14.967
85084W        W46373   3.851  19.216  14.301
85085W        W46374  22.134   5.799  11.053
85086W        W46375  26.037   2.860  13.892
85087W        W46376   6.875  43.469  12.984
85088W        W46377  39.994   8.753  14.974
85089W        W46378  29.632  32.608  13.438
85090W        W46379  10.295  40.391  12.344
85091W        W46380  16.762   4.411  11.903
85092W        W46381  24.606   9.870  14.000
85093W        W46382  29.978  10.777  14.767
85094W        W46383  25.575  35.023  14.956
85095W        W46384  10.313  39.854   4.178
85096W        W46385  29.122   4.437  12.089
85097W        W46386  12.360   5.862  11.036
85098W        W46387  19.614  23.708  12.550
85099W        W46388  25.213   4.417  13.917
85100W        W46389  43.954  27.169  12.505
85101W        W46390  22.033  32.909   2.288
85102W        W46391  20.253  44.823   4.217
85103W        W46392  41.952   1.434  11.468
85104W        W46393  24.718  41.866  14.881
85105W        W46394   6.342   5.406  11.523
85106W        W46395  38.920  12.742   2.744
85107W        W46396  23.111  33.035  11.608
85108W        W46397  34.454  26.985   4.717
85109W        W46398  30.490  30.106  11.577
85110W        W46399  24.708   2.304  13.913
85111W        W46400  12.187  23.725  10.902
85112W        W46401   8.789  25.992  11.449
85113W        W46402   1.963  13.834   2.194
85114W        W46403  12.174  30.561  13.891
85115W        W46404  43.890  18.057   2.721
85116W        W46405   8.686  41.389  11.400
85117W        W46406  17.088  40.339   1.424
85118W        W46407   4.880  42.495  12.410
85119W        W46408  32.967  19.639  10.599
85120W        W46409  33.893  43.925   0.246
85121W        W46410  21.548  19.224   1.835
85122W        W46411  30.953  42.828   9.959
85123W        W46412  13.336  44.269  13.969
85124W        W46413  42.324  20.168   3.683
85125W        W46414  40.834  16.656   1.367
85126W        W46415   1.329   1.310   3.270
85127W        W46416  28.522   2.337  13.806
85128W        W46417  42.474  33.606   3.758
85129W        W46418  39.830   8.347   2.293
85130W        W46419  29.919   3.834   0.830
85131W        W46420  37.566  16.572  13.876
85132W        W46421  43.411   0.326  11.484
85133W        W46422  11.767  21.516  11.910
85134W        W46423  31.937   5.831  13.347
85135W        W46424   6.916  16.625  12.528
85136W        W46425  17.764  25.029  11.981
85137W        W46426  26.691   3.914  13.386
85138W        W46427  15.620  24.064  11.465
85139W        W46428  17.606  29.961  13.323
85140W        W46429   3.767   5.416  13.016
85141W        W46430   3.862  26.026   1.914
85142W        W46431  21.536  19.108   2.707
85143W        W46432  11.372  30.576   9.932
85144W        W46433   3.250  36.372   1.741
85145W        W46434  10.874  22.138   4.239
85146W        W46435  22.127  12.702   4.278
85147W        W46436  37.338   5.295  11.037
85148W        W46437   0.802  19.234   1.339
85149W        W46438  28.438  17.671   3.840
85150W        W46439  21.611  13.638   0.289
85151W        W46440  23.640  22.032   2.689
85152W        W46441  44.809  23.634   4.712
85153W        W46442  30.578  21.081   4.247
85154W        W46443  28.584   7.862  14.359
85155W        W46444   6.227  24.689  14.322
85156W        W46445  36.960  44.966  14.381
85157W        W46446   1.347   9.729  14.335
85158W        W46447   2.884  11.837  10.894
85159W        W46448  24.199  24.708  11.041
85160W        W46449  11.759  37.886   4.138
85161W        W46450  38.449   5.319   0.339
85162W        W46451  25.175  26.004   1.221
85163W        W46452   1.455  28.936  11.046
85164W        W46453   7.228  17.180  12.992
85165W        W46454   2.320  23.052  11.988
85166W        W46455  13.302   1.759  10.092
85167W        W46456  13.658  19.068  14.811
85168W        W46457  15.114  27.574   2.208
85169W        W46458  40.318  43.776  14.009
85170W        W46459   0.942  28.033   0.296
85171W        W46460  29.617   2.275   1.353
85172W        W46461   7.762  33.403  13.432
85173W        W46462  43.015  15.811  12.493
85174W        W46463  30.442  41.511  14.960
85175W        W46464  33.524   3.304  14.985
85176W        W46465   6.900  30.096  11.378
85177W        W46466  13.237  24.538  10.497
85178W        W46467  16.189  17.237   0.280
85179W        W46468  19.745  35.507   1.880
85180W        W46469  40.900  12.230   0.267
85181W        W46470  33.528  31.529  10.011
85182W        W46471  33.943   5.727   1.377
85183W        W46472   2.352   3.828   0.930
85184W        W46473   2.415   6.336   1.225
85185W        W46474  32.063   9.701   3.221
85186W        W46475  24.158  21.520   1.847
85187W        W46476   8.851   5.871  11.511
85188W        W46477  43.314  28.034   3.336
85189W        W46478  26.527   9.360   1.300
85190W        W46479  27.521  39.831   3.741
85191W        W46480  35.906   5.252  13.353
85192W        W46481  18.121   3.350   3.821
85193W        W46482  15.262  40.302  12.439
85194W        W46483  25.625  44.329  10.558
85195W        W46484  41.906  16.171  10.898
85196W        W46485  29.920  12.309  13.383
85197W        W46486   1.857   9.709  10.519
85198W        W46487   6.312  20.236   4.645
85199W        W46488  18.262  24.690  14.762
85200W        W46489  26.620  25.574  13.498
85201W        W46490  23.121  29.659   0.869
85202W        W46491  16.111   3.857   4.113
85203W        W46492  16.590  26.177   4.619
85204W        W46493  34.876   3.384  13.371
85205W        W46494  25.995  36.881  10.491
85206W        W46495   0.272  37.549  14.019
85207W        W46496  22.589  25.011   2.315
85208W        W46497  10.650  44.421   1.929
85209W        W46498   2.825  19.078  10.404
85210W        W46499  38.020  33.048   1.262
85211W        W46500  31.417  20.680   2.361
85212W        W46501   4.278  37.920  14.349
85213W        W46502  27.032  17.758   0.906
85214W        W46503  10.308  13.254   5.281
85215W        W46504   8.712  43.417  12.948
85216W        W46505  33.569  39.353   4.296
85217W        W46506  13.204  16.584  11.086
85218W        W46507  14.798  16.257   1.873
85219W        W46508  42.864  17.118  14.899
85220W        W46509  40.809   3.281  12.881
85221W        W46510  10.835   5.286  14.887
85222W        W46511  28.109   7.260  12.577
85223W        W46512   1.777  17.226  11.570
85224W        W46513  34.975  23.211   0.312
85225W        W46514  26.686  38.064   3.292
85226W        W46515  11.770  25.483   2.217
85227W        W46516  27.988  43.821  13.421
85228W        W46517  26.468  12.617   1.824
85229W        W46518  31.982  29.621  10.465
85230W        W46519  44.485  11.203   3.154
85231W        W46520  18.220  35.526   0.961
85232W        W46521  27.185  31.083  12.866
85233W        W46522   9.352   4.803   0.344
85234W        W46523  33.900  11.654  10.965
85235W        W46524  28.027  27.982   0.456
85236W        W46525  27.044  42.947   4.827
85237W        W46526  12.178  34.377   1.383
85238W        W46527  33.893   8.374  14.411
85239W        W46528  33.384  28.650   0.792
85240W        W46529  10.815   0.923   0.938
85241W        W46530  43.307  17.070   9.938
85242W        W46531  36.456  42.784   4.722
85243W        W46532  29.062  41.391  12.569
85244W        W46533  23.164  18.266  10.953
85245W        W46534   1.326  32.507  14.028
85246W        W46535  39.060  14.719  10.421
85247W        W46536  41.923  25.206   4.667
85248W        W46537  26.092  40.930  14.428
85249W        W46538  35.379  39.342  13.805
85250W        W46539  25.649  10.142  10.929
85251W        W46540   0.914  22.697   5.137
85252W        W46541   5.323  17.126  13.009
85253W        W46542  39.943  16.122   0.384
85254W        W46543   9.811  36.397  10.513
85255W        W46544   5.837  16.678  12.015
85256W        W46545  37.373   3.357  10.531
85257W        W46546  33.507  23.582   3.695
85258W        W46547  10.312  41.362   2.258
85259W        W46548  24.550  26.519  13.442
85260W        W46549  14.626   7.716  13.952
85261W        W46550  21.112  22.221  14.493
85262W        W46551  42.777  15.137  13.528
85263W        W46552  17.791  42.822   3.848
85264W        W46553   5.814  11.826  12.470
85265W        W46554  27.174  15.304  13.416
85266W        W46555  28.643  44.933   4.143
85267W        W46556  16.259  33.571   4.131
85268W        W46557  37.078   7.369   2.673
85269W        W46558   8.655   3.397  12.074
85270W        W46559  29.583  42.919   2.179
85271W        W46560   5.801   6.417   2.860
85272W        W46561  16.296   7.829  13.980
85273W        W46562  41.509  15.797  14.967
85274W        W46563  40.931  17.122   9.974
85275W        W46564   2.779  11.164  13.977
85276W        W46565  17.284   4.854  13.876
85277W        W46566  27.635  38.032   2.196
85278W        W46567  10.724  41.458   1.365
85279W        W46568  44.401  25.654   0.941
85280W        W46569  14.185  39.034  10.122
85281W        W46570  20.573   6.893   3.175
85282W        W46571  44.984   3.319   2.219
85283W        W46572  36.349   1.785   1.225
85284W        W46573   9.321   8.360  11.040
85285W        W46574  39.850   8.349   0.290
85286W        W46575  34.881  39.376  11.533
85287W        W46576  38.486   8.276  12.956
85288W        W46577  25.651  31.452   3.364
85289W        W46578  44.392   0.338  12.025
85290W        W46579  36.054  22.071   2.298
85291W        W46580  18.734  33.561   3.372
85292W        W46581  23.674  30.570   4.787
85293W        W46582  32.957  13.797  14.760
85294W        W46583   5.805  39.526  10.927
85295W        W46584   2.798  20.592  13.309
85296W        W46585  39.438   3.808   4.828
85297W        W46586   9.240  19.040  10.478
85298W        W46587  39.410  10.719   1.298
85299W        W46588  18.756  17.296   5.208
85300W        W46589  22.725  32.893  13.019
85301W        W46590   4.392   9.234  10.900
85302W        W46591  38.020  10.710   4.141
85303W        W46592   3.895  24.677  13.984
85304W        W46593  31.450  35.998  10.430
85305W        W46594  28.952  38.537   1.867
85306W        W46595  19.265   8.373  11.487
85307W        W46596  23.565   5.728   0.902
85308W        W46597  41.376   9.751  13.485
85309W        W46598  32.515  34.032  10.541
85310W        W46599  15.621  42.385  11.427
85311W        W46600  43.388   5.326  13.020
85312W        W46601  44.823   5.690   4.327
85313W        W46602  34.939   3.374  14.904
85314W        W46603  39.418  11.334   3.226
85315W        W46604  18.270   7.222   0.469
85316W        W46605  15.107  36.481   4.179
85317W        W46606  43.442  32.408   3.690
85318W        W46607  16.609  24.579  14.882
85319W        W46608   0.749  12.249   2.769
85320W        W46609  14.202  35.858   5.301
85321W        W46610   0.446  32.994  10.488
85322W        W46611   2.803  38.005   4.799
85323W        W46612  28.939  12.143  12.023
85324W        W46613  16.573   6.717   1.779
85325W        W46614  19.071  23.521  14.394
85326W        W46615  33.050  16.247  12.052
85327W        W46616   6.869  38.560   0.420
85328W        W46617  29.610  37.996  11.949
85329W        W46618  14.169   3.832  14.376
85330W        W46619  43.324  18.065   3.346
85331W        W46620  40.413  16.072  11.590
85332W        W46621   9.693  35.893  11.079
85333W        W46622  17.793  32.902  12.352
85334W        W46623  19.066  42.857   3.769
85335W        W46624  27.011   5.751   4.823
85336W        W46625  12.708  15.236  13.952
85337W        W46626  16.810  34.465   3.171
85338W        W46627  13.123  25.479  14.877
85339W        W46628  40.391  25.526   3.639
85340W        W46629  10.205  43.802   1.723
85341W        W46630  28.544  23.136  11.437
85342W        W46631  25.102   5.210   2.404
85343W        W46632   2.295   9.248   3.239
85344W        W46633  32.401   6.792  12.369
85345W        W46634  43.928  35.001   1.874
85346W        W46635  31.923  18.174  11.124
85347W        W46636  31.068  21.554   4.305
85348W        W46637  10.807   9.389   1.227
85349W        W46638  18.710  23.576   1.317
85350W        W46639  41.038   5.894   2.189
85351W        W46640  27.601  20.177  11.093
85352W        W46641  26.123   6.187   2.259
85353W        W46642  11.845  21.727  14.763
85354W        W46643   6.199  37.890  12.517
85355W        W46644  12.801  42.521   2.206
85356W        W46645  42.289   4.779   4.161
85357W        W46646  28.016  18.634  14.356
85358W        W46647  43.445  23.201  10.895
85359W        W46648  35.054  12.236  13.851
85360W        W46649  24.125   6.368   5.294
85361W        W46650  43.007  25.622  11.515
85362W        W46651   0.855   4.421  12.477
85363W        W46652  16.288  33.031   2.880
85364W        W46653  20.557  29.475  10.443
85365W        W46654   8.830  27.036   3.681
85366W        W46655  11.283  10.251  13.025
85367W        W46656  28.476  33.970  13.004
85368W        W46657   8.875  12.749   3.725
85369W        W46658  18.669  23.026   0.922
85370W        W46659   2.855   3.407  10.888
85371W        W46660  20.564  11.136   0.333
85372W        W46661   8.199  15.201  11.006
85373W        W46662  15.086   3.848   0.368
85374W        W46663  22.052  35.992  12.022
85375W        W46664  35.464   4.393   0.333
85376W        W46665   0.936   9.286  11.436
85377W        W46666  25.564  28.102  11.403
85378W        W46667   9.735  24.056  13.876
85379W        W46668  38.002  35.395  12.013
85380W        W46669  28.045   0.311  12.529
85381W        W46670  25.087  40.411   3.346
85382W        W46671  26.046  40.544   1.297
85383W        W46672  30.944  16.648  11.438
85384W        W46673  27.477  36.361   0.311
85385W        W46674  40.473   2.933   2.194
85386W        W46675  42.387   2.445   4.114
85387W        W46676  20.184  25.574   2.819
85388W        W46677  35.517  32.445  13.928
85389W        W46678  13.782   6.709   4.184
85390W        W46679  12.813   0.457  14.989
85391W        W46680  42.487  24.698  14.900
85392W        W46681  21.754   6.787  12.445
85393W        W46682  29.933  23.043  10.416
85394W        W46683  32.442  41.475  12.885
85395W        W46684  43.859  27.471   3.256
85396W        W46685  42.822  33.457  13.039
85397W        W46686  36.082  43.273  10.506
85398W        W46687  44.787  17.657  14.785
85399W        W46688   3.952  18.757   0.916
85400W        W46689  21.718   9.269  13.519
85401W        W46690  21.732  42.379  13.037
85402W        W46691   0.785  38.351   3.792
85403W        W46692  21.519  10.293   9.969
85404W        W46693  30.134  14.144  11.019
85405W        W46694   2.337  44.985   4.824
85406W        W46695  17.262   7.676  14.326
85407W        W46696  21.061  36.077  12.843
85408W        W46697  26.140  15.713   2.354
85409W        W46698  19.673   3.717   3.301
85410W        W46699  32.526  44.405   1.911
85411W        W46700  11.699  27.514  11.081
85412W        W46701  28.535  42.986   1.896
85413W        W46702   3.894  16.104  14.765
85414W        W46703   6.751  35.012   3.777
85415W        W46704   1.955  15.214   4.179
85416W        W46705  31.565   6.892  14.492
85417W        W46706  31.045  11.767  13.409
85418W        W46707  13.300  41.424  12.977
85419W        W46708  34.050  21.677  11.864
85420W        W46709  21.020  29.463   3.641
85421W        W46710  24.228  22.162   1.377
85422W        W46711   7.788   9.240   0.873
85423W        W46712  36.965  15.639   1.232
85424W        W46713  38.433   7.349   0.890
85425W        W46714  20.137   2.245  11.529
85426W        W46715  39.824  23.118   1.791
85427W        W46716   8.879  12.140   2.669
85428W        W46717  19.102  35.876  12.432
85429W        W46718   8.853  42.459   2.899
85430W        W46719  16.652  28.526   4.140
85431W        W46720  13.718  35.501   3.172
85432W        W46721   7.281  18.118   3.663
85433W        W46722   3.837  33.531   0.741
85434W        W46723  11.145  23.547  13.004
85435W        W46724  22.091  42.905   4.773
85436W        W46725   9.246  16.635  14.954
85437W        W46726  36.359  32.562  14.929
85438W        W46727  22.628  43.905  14.981
85439W        W46728   4.887  28.434  12.878
85440W        W46729  23.162  12.349  11.373
85441W        W46730  32.464  19.708  12.501
85442W        W46731  38.073  29.623  12.345
85443W        W46732  41.434  23.101  11.515
85444W        W46733  26.610  39.467  13.921
85445W        W46734  18.193  40.436  11.871
85446W        W46735  15.094  14.592  12.570
85447W        W46736   1.283  11.270  12.918
85448W        W46737   6.867  16.751   3.655
85449W        W46738  22.575  24.975  11.890
85450W        W46739  28.479  32.971   3.305
85451W        W46740   6.377   5.773  12.991
85452W        W46741  28.470  40.852   1.407
85453W        W46742   6.363  37.863  14.901
85454W        W46743   4.815  40.426  12.946
85455W        W46744  25.056  21.256  10.054
85456W        W46745  36.523  27.501   3.692
85457W        W46746   5.437  14.648  10.896
85458W        W46747  15.225  28.592  13.039
85459W        W46748  28.978  14.332  10.434
85460W        W46749  30.153   7.329  14.357
85461W        W46750   1.292  37.930   2.276
85462W        W46751  44.363  22.116   1.220
85463W        W46752  13.660  14.198  12.051
85464W        W46753  41.388   3.321  12.561
85465W        W46754  22.731  44.977  11.442
85466W        W46755   6.190  42.955   0.446
85467W        W46756  30.973  37.919   2.406
85468W        W46757  43.866  14.717   1.371
85469W        W46758  21.218   8.201  13.867
85470W        W46759  25.033  41.815   1.696
85471W        W46760  33.911  29.015   2.762
85472W        W46761  35.504  32.984  12.452
85473W        W46762   8.778  10.859   0.967
85474W        W46763  29.973  17.672  10.896
85475W        W46764   8.674  34.934  11.909
85476W        W46765   7.688  20.754  11.966
85477W        W46766  34.000   4.367  14.999
85478W        W46767  10.689   5.835  11.599
85479W        W46768  20.762  15.731   3.737
85480W        W46769   0.831  37.354   1.293
85481W        W46770  13.183  31.981   0.442
85482W        W46771  37.908  13.241   1.224
85483W        W46772  34.612   4.847  11.562
85484W        W46773  24.169   6.749   0.897
85485W        W46774  22.725   8.844   2.390
85486W        W46775  20.148   9.174  10.456
85487W        W46776  14.757  24.580  12.034
85488W        W46777  36.087  11.756   1.904
85489W        W46778  17.188   5.924  10.510
85490W        W46779  35.440   6.323   3.356
85491W        W46780  40.863  14.700  11.388
85492W        W46781  30.624  25.210   3.242
85493W        W46782  10.284   9.706  12.500
85494W        W46783   0.976  22.172  11.006
85495W        W46784  14.762  33.535  11.082
85496W        W46785  14.661  26.124  13.368
85497W        W46786   6.799  31.496  12.561
85498W        W46787  39.864  36.851   3.384
85499W        W46788   3.922  12.276  14.821
85500W        W46789  44.931  21.198   0.852
85501W        W46790  38.383  44.337   3.328
85502W        W46791  17.684  17.296   3.757
85503W        W46792  16.759  14.250   0.358
85504W        W46793  31.949  12.286  14.814
85505W        W46794   3.247   8.734  11.104
85506W        W46795  44.501  15.599   0.350
85507W        W46796  36.095  19.557  12.408
85508W        W46797   5.237  22.042   1.913
85509W        W46798   8.701   8.734   4.598
85510W        W46799  27.027  42.982   2.773
85511W        W46800  29.595  13.748  12.980
85512W        W46801  38.063  10.636   0.860
85513W        W46802  15.707  29.943   0.835
85514W        W46803   3.869  10.231   1.919
85515W        W46804  11.813  21.130  13.868
85516W        W46805   1.810   6.911   0.404
85517W        W46806  22.528  24.984  13.506
85518W        W46807   5.836  12.286  11.968
85519W        W46808  25.519   9.233   1.211
85520W        W46809  12.196  44.793   4.310
85521W        W46810  34.569  20.047  10.551
85522W        W46811  19.197  22.574  12.967
85523W        W46812  36.038  28.137   4.331
85524W        W46813  25.186  37.853  12.909
85525W        W46814  38.398   3.921  14.894
85526W        W46815   5.400   5.275   3.332
85527W        W46816  42.841  12.168   4.772
85528W        W46817  19.051  16.639  14.820
85529W        W46818  25.684  27.639  10.981
85530W        W46819   6.735  32.960   0.250
85531W        W46820  19.042  24.651   2.320
85532W        W46821  42.788  36.097   0.805
85533W        W46822  30.641   5.246  14.841
85534W        W46823  23.154   0.312  11.996
85535W        W46824  20.688  29.559   2.896
85536W        W46825  21.028  42.506   3.334
85537W        W46826   0.761   2.745   1.349
85538W        W46827   7.857  26.520  12.344
85539W        W46828  44.465   4.386   3.804
85540W        W46829  30.080  28.943  10.406
85541W        W46830  29.079   1.331  10.007
85542W        W46831  29.489  21.240  13.346
85543W        W46832   8.347  25.684  11.406
85544W        W46833  20.658  42.008   0.316
85545W        W46834  44.920  26.457  12.884
85546W        W46835  34.871  21.533   2.282
85547W        W46836  43.508  37.392  13.945
85548W        W46837  16.272  10.727   4.155
85549W        W46838  26.175  41.372  12.040
85550W        W46839  38.415   2.890   0.754
85551W        W46840  21.752  33.495   3.325
85552W        W46841  36.075  33.560   3.770
85553W        W46842  21.253  13.160  13.542
85554W        W46843  13.320  22.671  10.471
85555W        W46844  36.095   3.389  11.045
85556W        W46845  15.289  39.322  12.980
85557W        W46846   3.407  10.681   2.833
85558W        W46847   2.867  38.438   3.864
85559W        W46848  24.083  26.050  11.441
85560W        W46849  18.144  10.320  13.471
85561W        W46850  30.924  42.500  12.924
85562W        W46851  24.008  21.241  12.505
85563W        W46852  17.615  15.816   0.905
85564W        W46853  28.948  19.157   3.738
85565W        W46854   5.906  32.570   2.866
85566W        W46855  11.727  26.588  13.367
85567W        W46856  31.629  25.046  10.514
85568W        W46857  28.658  20.649   1.897
85569W        W46858  30.633  24.688  14.439
85570W        W46859  24.177  27.460   1.851
85571W        W46860  29.563   2.410  12.829
85572W        W46861  38.454   7.350  11.390
85573W        W46862  42.908  26.566   1.868
85574W        W46863   1.741  43.841   1.354
85575W        W46864   6.184  42.009  10.918
85576W        W46865  37.037  18.546   0.413
85577W        W46866  17.082  12.315   0.476
85578W        W46867  43.513  25.710   0.474
85579W        W46868  25.193  29.480   3.847
85580W        W46869  27.993  41.971   4.686
85581W        W46870  15.649  14.140  12.889
85582W        W46871   4.751  25.016   5.710
85583W        W46872  42.456  39.471  14.338
85584W        W46873  19.697   9.362   2.190
85585W        W46874  10.815   8.212  14.903
85586W        W46875  12.750  12.801  14.948
85587W        W46876  28.504   0.855   3.180
85588W        W46877  25.116  14.696  13.524
85589W        W46878  24.987   7.691   0.366
85590W        W46879  24.516  44.503  12.564
85591W        W46880   0.419  21.602  10.484
85592W        W46881  44.822  22.041   1.347
85593W        W46882  42.865  39.910   2.811
85594W        W46883  34.403   2.256   4.708
85595W        W46884  21.518  29.662   4.128
85596W        W46885   1.300  12.277  10.604
85597W        W46886   2.866  34.873   2.733
85598W        W46887  29.529  36.426  12.496
85599W        W46888  30.457   6.782  11.113
85600W        W46889   1.405  24.168  11.086
85601W        W46890  44.480  39.461  13.347
85602W        W46891   8.209  25.676  13.502
85603W        W46892  44.284  11.827   4.688
85604W        W46893  11.767   8.761   0.815
85605W        W46894  20.265  20.068   0.252
85606W        W46895  12.129  44.474   4.303
85607W        W46896  13.192  35.028   3.869
85608W        W46897  22.560  39.549  14.859
85609W        W46898  41.422  27.467  12.514
85610W        W46899  27.692  29.456   3.651
85611W        W46900   9.281  10.718  12.352
85612W        W46901  44.974   2.870  11.985
85613W        W46902  15.771   2.376   2.355
85614W        W46903  34.580  13.261  12.921
85615W        W46904  22.251   6.390   1.306
85616W        W46905  16.715   7.681   3.848
85617W        W46906  35.938  18.659  10.492
85618W        W46907  43.297  16.627  14.287
85619W        W46908   3.883  34.373   1.849
85620W        W46909  41.938  19.618   4.258
85621W        W46910  44.278   6.338   2.721
85622W        W46911  10.207  24.520   2.885
85623W        W46912   5.852  29.646  12.427
85624W        W46913  38.436  20.735  12.549
85625W        W46914  26.096  15.804  10.504
85626W        W46915   9.695  33.940   3.740
85627W        W46916   1.927  39.954  12.499
85628W        W46917  32.481  22.676  14.829
85629W        W46918  35.066   3.312   3.734
85630W        W46919  15.777  17.645   1.273
85631W        W46920  40.390  37.074  14.498
85632W        W46921  19.695  27.004  13.494
85633W        W46922   4.929   6.273   3.785
85634W        W46923  21.740  33.550   2.718
85635W        W46924   7.689   3.219  14.375
85636W        W46925  38.447  39.555   1.717
85637W        W46926   5.822  24.079  12.939
85638W        W46927  37.887  33.090  10.966
85639W        W46928  36.887  11.224  14.390
85640W        W46929  35.551   0.885   4.839
85641W        W46930  24.006  30.119  11.587
85642W        W46931  25.582  22.995  11.447
85643W        W46932   2.467  44.804   2.419
85644W        W46933   6.903  41.871   4.666
85645W        W46934  25.640  12.703   4.196
85646W        W46935  12.289   1.290  13.417
85647W        W46936  23.026   7.413   0.846
85648W        W46937  20.066  18.667  12.362
85649W        W46938  32.007  39.929   0.779
85650W        W46939  18.698   7.305  11.446
85651W        W46940  37.953   3.305   2.244
85652W        W46941  26.621  11.742  12.459
85653W        W46942  27.495  13.115  12.453
85654W        W46943  44.922  32.005   0.819
85655W        W46944   0.967   0.787   3.179
85656W        W46945  28.998  21.670   4.117
85657W        W46946  33.578  14.817   3.335
85658W        W46947   7.259  16.718  11.429
85659W        W46948  36.559  37.884   3.633
85660W        W46949  29.098   3.350   2.387
85661W        W46950  44.916  11.703  10.958
85662W        W46951  14.263  10.157   2.737
85663W        W46952   6.848  44.370   1.428
85664W        W46953   0.857  44.812  13.893
85665W        W46954   3.327  12.734  14.852
85666W        W46955  13.765  10.762   0.966
85667W        W46956  12.788  14.210   3.726
85668W        W46957  40.540  25.061  10.067
85669W        W46958  13.124   9.770   0.333
85670W        W46959  39.847  25.182  13.843
85671W        W46960   1.848  40.977  12.903
85672W        W46961  33.130   2.882  12.429
85673W        W46962   4.415  16.714   2.713
85674W        W46963  11.212  36.020   4.149
85675W        W46964  11.800   7.844  10.628
85676W        W46965  35.962  32.945  10.486
85677W        W46966  18.560  26.596   3.764
85678W        W46967   7.890   7.729  13.812
85679W        W46968  31.139  42.852   3.296
85680W        W46969   0.483  27.594  12.094
85681W        W46970  12.622   7.723   4.763
85682W        W46971   2.869  37.369   1.348
85683W        W46972  30.498  36.524  11.577
85684W        W46973   4.712   8.772   2.877
85685W        W46974  28.523  10.808  12.468
85686W        W46975  23.138  35.909  13.373
85687W        W46976  14.641  28.529  12.934
85688W        W46977  21.580  39.428  14.359
85689W        W46978  23.693  27.978   0.377
85690W        W46979  32.460  33.072   0.814
85691W        W46980  10.706  31.953   1.236
85692W        W46981  32.981  25.001   4.231
85693W        W46982   8.803  26.699   0.789
85694W        W46983   1.940   5.880   2.756
85695W        W46984   7.892  43.009  10.427
85696W        W46985  11.650  29.664  13.806
85697W        W46986  44.912   4.209  13.969
85698W        W46987   6.320   0.315   4.675
85699W        W46988  20.097  27.672  13.838
85700W        W46989  34.547  16.722   1.845
85701W        W46990  27.189  32.137   1.445
85702W        W46991  15.696  16.076   1.293
85703W        W46992  21.541  21.058  13.390
85704W        W46993  12.218  36.082  11.378
85705W        W46994  32.925  21.580   0.283
85706W        W46995  32.110  13.630  10.944
85707W        W46996  10.276  35.923   1.380
85708W        W46997   7.263  43.425   2.193
85709W        W46998  38.364  30.539  13.859
85710W        W46999  10.171  25.219   3.166
85711W        W47000   1.455  22.687  14.868
85712W        W47001  30.642  11.642   3.780
85713W        W47002  44.974   3.342  10.433
85714W        W47003   5.820  33.530  13.973
85715W        W47004  37.850  28.060  12.893
85716W        W47005  16.600  12.760   1.797
85717W        W47006   3.218   3.266   1.874
85718W        W47007  36.895  14.164  12.018
85719W        W47008  30.612  36.473  13.016
85720W        W47009  23.568  24.227  14.443
85721W        W47010   4.392  27.532  12.473
85722W        W47011  18.204  31.047   4.136
85723W        W47012  43.876  14.669  13.024
85724W        W47013  20.102  40.030   2.781
85725W        W47014  11.373  25.066   1.212
85726W        W47015  28.537  40.917   4.688
85727W        W47016   5.694   8.819   1.882
85728W        W47017  19.721  11.233   4.635
85729W        W47018  36.990  10.187   4.694
85730W        W47019  26.952  43.013   5.148
85731W        W47020  31.042  13.810   3.770
85732W        W47021  40.871  11.263  11.051
85733W        W47022  13.657  28.659  10.441
85734W        W47023  10.731   5.732  13.053
85735W        W47024  16.120   1.305   0.883
85736W        W47025  29.082  36.442   4.747
85737W        W47026  29.629  24.478  11.416
85738W        W47027  12.252  17.773  10.409
85739W        W47028   8.798  43.405  11.073
85740W        W47029  21.200   0.880  11.996
85741W        W47030  23.578  14.309   4.134
85742W        W47031  43.021  29.567   2.898
85743W        W47032  35.949   5.805   0.875
85744W        W47033  33.883  12.362   4.245
85745W        W47034   7.305  37.349   2.819
85746W        W47035  24.080   5.816  13.408
85747W        W47036  39.376  38.468  11.859
85748W        W47037  21.662  41.455   4.121
85749W        W47038  44.493  40.454  11.960
85750W        W47039  24.014  14.626   2.197
85751W        W47040  29.534  33.900  12.483
85752W        W47041   6.880  10.237   0.741
85753W        W47042  33.548  12.356  11.433
85754W        W47043  32.631   1.794   5.756
85755W        W47044  41.987  20.106   4.609
85756W        W47045  14.296  38.962   1.330
85757W        W47046  36.553  29.536  13.543
85758W        W47047  43.291  16.635   4.336
85759W        W47048   0.318   2.351  10.502
85760W        W47049  33.937   5.395   1.713
85761W        W47050  39.914  26.628  10.003
85762W        W47051  17.211  28.615   4.354
85763W        W47052  10.850  38.011   4.756
85764W        W47053  23.569   1.966  10.615
85765W        W47054  13.230  35.907   0.316
85766W        W47055   4.292  13.242  14.400
85767W        W47056  24.145  36.011  11.128
85768W        W47057  22.136   6.408   0.413
85769W        W47058  36.932   1.926  11.451
85770W        W47059  11.212  22.072   1.398
85771W        W47060  42.518  43.968   0.869
85772W        W47061  21.601  40.995  11.870
85773W        W47062   6.878  35.461   4.760
85774W        W47063  44.947  30.633   0.363
85775W        W47064  19.611  25.977  14.874
85776W        W47065  11.247   5.407   4.215
85777W        W47066  13.282   1.437  11.502
85778W        W47067  39.057  23.157  14.869
85779W        W47068  21.090  11.639   3.656
85780W        W47069  27.630  30.633  14.970
85781W        W47070  27.538   9.796   5.800
85782W        W47071  37.878  40.908  13.459
85783W        W47072  38.488  16.151   0.757
85784W        W47073  34.491   1.741   4.600
85785W        W47074   0.894  29.490  14.942
85786W        W47075   1.873  44.797  11.605
85787W        W47076  29.503   1.880   4.678
85788W        W47077  37.072   5.926  11.038
85789W        W47078  40.868  41.030  14.362
85790W        W47079   9.884  23.073   0.480
85791W        W47080  43.020  14.325  12.383
85792W        W47081  43.314  17.750  13.023
85793W        W47082  19.681   8.399  14.460
85794W        W47083  40.847   2.962   3.188
85795W        W47084  14.745  44.781  13.972
85796W        W47085  28.104  27.009  10.584
85797W        W47086   0.327  41.975  12.085
85798W        W47087  18.762  27.124  12.527
85799W        W47088  16.271  29.502  13.885
85800W        W47089   9.268   2.848  10.619
85801W        W47090  12.642  16.656   1.440
85802W        W47091  24.101  29.598  13.503
85803W        W47092  26.117  15.160   4.311
85804W        W47093  44.776  34.491   0.828
85805W        W47094  41.987  35.488   3.273
85806W        W47095   5.391  31.925  13.814
85807W        W47096  30.633  30.151  10.467
85808W        W47097  30.508  14.115   4.656
85809W        W47098  24.505  41.800   2.697
85810W        W47099  10.762  16.273  12.973
85811W        W47100  34.017   7.855   3.352
85812W        W47101  21.677  13.290  13.928
85813W        W47102  28.013  39.835  11.029
85814W        W47103   1.268  23.077   2.859
85815W        W47104  19.593  20.231   4.777
85816W        W47105  24.638  30.528   4.623
85817W        W47106   2.239  25.051  11.384
85818W        W47107  10.820  40.470  12.386
85819W        W47108  23.051  35.603   3.667
85820W        W47109  20.110  30.934   1.862
85821W        W47110  19.095   4.365   2.779
85822W        W47111  36.353  15.690   1.222
85823W        W47112  17.174  17.799  11.053
85824W        W47113   7.285  33.392  11.876
85825W        W47114  32.500  24.975  12.919
85826W        W47115  34.587  35.451   2.309
85827W        W47116  27.012   6.887  10.580
85828W        W47117  31.569  42.940  11.965
85829W        W47118  16.792  25.476   0.884
85830W        W47119  15.222  10.225  12.039
85831W        W47120  11.134  16.720  11.490
85832W        W47121  14.272  30.994  14.933
85833W        W47122  10.283  44.459   1.770
85834W        W47123   7.668  26.126   1.924
85835W        W47124  32.454  20.082   0.966
85836W        W47125  22.102  12.759  12.866
85837W        W47126  44.376  24.632  11.895
85838W        W47127  22.133  10.376  11.097
85839W        W47128  42.001  38.888   2.294
85840W        W47129  15.276  18.069   5.116
85841W        W47130  21.183  27.452  12.369
85842W        W47131  39.040   8.794  11.102
85843W        W47132  34.603  33.956   3.149
85844W        W47133   3.288  16.719  13.932
85845W        W47134  35.038  28.949  12.389
85846W        W47135   6.251  21.691   0.252
85847W        W47136   3.863  31.631   2.758
85848W        W47137   9.356   6.679  13.506
85849W        W47138  23.734   4.212   3.284
85850W        W47139  15.602  12.211  14.894
85851W        W47140  18.707  10.299   2.206
85852W        W47141   0.976   8.777  12.412
85853W        W47142  41.985  21.197   1.377
85854W        W47143  34.395   1.733  13.411
85855W        W47144  14.730   0.303  10.084
85856W        W47145   4.898  11.227  11.865
85857W        W47146  28.456   1.963  14.495
85858W        W47147  41.432   0.423   4.791
85859W        W47148  38.507  40.880   1.728
85860W        W47149   0.829  12.199   0.825
85861W        W47150  30.929  35.855  13.992
85862W        W47151  35.103  41.521  14.895
85863W        W47152  41.481  31.519   4.128
85864W        W47153  20.034  35.039  11.581
85865W        W47154  24.662   6.867   4.215
85866W        W47155  13.200  23.021   2.903
85867W        W47156  35.439  15.587   1.318
85868W        W47157   1.360  35.474  10.956
85869W        W47158  10.173  10.849   4.196
85870W        W47159  27.193   1.453  14.298
85871W        W47160  27.626  37.427  14.284
85872W        W47161  25.552  30.057  10.408
85873W        W47162  43.304  13.639  14.019
85874W        W47163   7.715  27.941  12.458
85875W        W47164  40.809  16.129   1.828
85876W        W47165  25.654  40.401  12.833
85877W        W47166   7.805  12.793  12.859
85878W        W47167   4.803   7.260  11.388
85879W        W47168  37.833  26.964  10.507
85880W        W47169  26.111  13.250   3.714
85881W        W47170   2.420  29.111  13.480
85882W        W47171  12.119  44.980  11.986
85883W        W47172  30.013  10.159  14.488
85884W        W47173  24.064   0.971   4.284
85885W        W47174  18.126  23.154   4.835
85886W        W47175  31.967  35.529  13.850
85887W        W47176  12.738  13.811  10.973
85888W        W47177  35.409  11.213   2.829
85889W        W47178  15.184  38.874   2.796
85890W        W47179  29.546  25.142   5.277
85891W        W47180   0.481  12.295   1.723
85892W        W47181   2.765  11.368   4.178
85893W        W47182  33.389  26.678  10.592
85894W        W47183  34.605  38.410   1.840
85895W        W47184  26.038  11.722  14.453
85896W        W47185   7.708  30.044   4.827
85897W        W47186  25.528  12.275   3.818
85898W        W47187  40.514  44.291   1.404
85899W        W47188  17.073  32.426  14.510
85900W        W47189   1.858   0.332  13.855
85901W        W47190  20.172  15.170  12.448
85902W        W47191   5.776  10.301  12.539
85903W        W47192  33.074  34.932   4.158
85904W        W47193   8.208  20.757  12.952
85905W        W47194  28.048  25.638  11.958
85906W        W47195  18.209   6.726   1.301
85907W        W47196  14.180  43.779   2.181
85908W        W47197  29.139  25.496   3.809
85909W        W47198   1.785  12.179   2.711
85910W        W47199  22.079  44.956  10.900
85911W        W47200   9.817  40.385   2.398
85912W        W47201  12.319  40.503  10.577
85913W        W47202  43.458  22.701   4.745
85914W        W47203  31.602   0.910   2.415
85915W        W47204  17.192  18.069   3.836
85916W        W47205  37.030  24.045  11.453
85917W        W47206  39.816   4.291  13.883
85918W        W47207  27.510  17.574  14.973
85919W        W47208  34.911  21.555  14.508
85920W        W47209  13.666   0.786   3.761
85921W        W47210  14.233  11.208   4.350
85922W        W47211  10.692  28.648  14.386
85923W        W47212   9.350   0.813  11.520
85924W        W47213  27.132   0.426   3.350
85925W        W47214  39.429  35.362  12.846
85926W        W47215  13.711  41.321  13.806
85927W        W47216  10.374   2.298  13.004
85928W        W47217   0.405   6.277  14.880
85929W        W47218   1.871   6.699   1.920
85930W        W47219  42.455  20.088   0.242
85931W        W47220   7.675  34.068  13.908
85932W        W47221  19.570   0.324   3.364
85933W        W47222  43.423  37.949   1.395
85934W        W47223  13.347  33.129  10.436
85935W        W47224  10.185   1.385  13.328
85936W        W47225   4.886  21.074   2.851
85937W        W47226  20.257  37.421  10.125
85938W        W47227  21.057   1.277  11.468
85939W        W47228  24.618  24.626  11.011
85940W        W47229  42.985  21.653  13.791
85941W        W47230  13.820  12.737  14.829
85942W        W47231  44.295  39.525  11.075
85943W        W47232  22.507   9.233  14.323
85944W        W47233  42.913   8.175   0.266
85945W        W47234  41.922   5.734  11.902
85946W        W47235   3.752  15.695  12.849
85947W        W47236   3.926   8.190  14.338
85948W        W47237   5.734   0.402   4.690
85949W        W47238  17.205  43.332   2.235
85950W        W47239  30.932  29.512   3.784
85951W        W47240   6.395  21.610   5.261
85952W        W47241   1.326   0.856   4.703
85953W        W47242  14.204   3.843   9.970
85954W        W47243   2.809  24.188   2.903
85955W        W47244   9.757   6.790   3.765
85956W        W47245  37.061   4.216  12.396
85957W        W47246  38.482  22.704   2.358
85958W        W47247  35.389  29.934  14.302
85959W        W47248  36.940   2.458  12.500
85960W        W47249  37.911   3.451   4.711
85961W        W47250   3.222  12.254   4.311
85962W        W47251  15.772  44.325   2.383
85963W        W47252  27.123  43.291   0.429
85964W        W47253  10.372  22.653  13.383
85965W        W47254  27.522  20.657  12.354
85966W        W47255  26.522  43.365   1.316
85967W        W47256  30.559  19.656  12.844
85968W        W47257  11.245   1.296   2.841
85969W        W47258  17.221  11.280  11.070
85970W        W47259   9.171  15.225   2.255
85971W        W47260  14.137  29.625  12.502
85972W        W47261  15.586  39.350   2.291
85973W        W47262   0.815   4.876   5.186
85974W        W47263   3.880  33.594   1.391
85975W        W47264  31.589   0.262  14.305
85976W        W47265  30.164  40.023   1.869
85977W        W47266  13.789   3.287   1.773
85978W        W47267  10.251  36.418  13.825
85979W        W47268   7.224  42.523  13.497
85980W        W47269  36.926   2.340   3.151
85981W        W47270  37.954  17.558  12.044
85982W        W47271   0.887  43.332  14.995
85983W        W47272  32.563  41.898   2.790
85984W        W47273  43.871   3.849  10.981
85985W        W47274  18.294  25.657  12.521
85986W        W47275  21.634  17.177  12.872
85987W        W47276   9.188  35.509   4.136
85988W        W47277  12.712   7.704  12.572
85989W        W47278  10.278  37.523   1.808
85990W        W47279  15.147  12.245  13.918
85991W        W47280  14.283   0.785   1.317
85992W        W47281  32.598   8.219  13.919
85993W        W47282  44.380  41.807   4.621
85994W        W47283   8.402  23.726   2.857
85995W        W47284  13.160  17.133   4.150
85996W        W47285  23.168  27.986   1.272
85997W        W47286  30.513   3.317  14.415
85998W        W47287  26.060  27.064   1.901
85999W        W47288   5.915  11.253  14.407
86000W        W47289  33.517  22.700  12.991
86001W        W47290   6.323  42.472  14.797
86002W        W47291  33.033   0.302  14.341
86003W        W47292   1.780   4.366   1.771
86004W        W47293  16.313  34.972  14.805
86005W        W47294  16.274   5.734   4.600
86006W        W47295  18.059  38.939   3.386
86007W        W47296  32.946   4.444   3.750
86008W        W47297  20.708  25.066  14.504
86009W        W47298  21.138  16.579   1.769
86010W        W47299  31.556   6.330   3.259
86011W        W47300  11.787   8.725   0.364
86012W        W47301   6.698  41.527  12.945
86013W        W47302  13.198  30.992  14.453
86014W        W47303   7.793  32.555  11.864
86015W        W47304  33.903  13.157   4.265
86016W        W47305  43.478  38.872   2.889
86017W        W47306  16.190  40.338   5.318
86018W        W47307  12.628  16.718  12.482
86019W        W47308  44.339  38.012  14.932
86020W        W47309  27.155  24.549   0.263
86021W        W47310  19.606  26.162  13.540
86022W        W47311  42.850  13.804  13.803
86023W        W47312   3.318  25.636  11.560
86024W        W47313  23.519  23.008   0.470
86025W        W47314  43.960   5.706   3.804
86026W        W47315   0.386  28.988   1.866
86027W        W47316  18.166  32.009  12.481
86028W        W47317  12.752  29.941  11.381
86029W        W47318  24.646  22.718  14.509
86030W        W47319  36.977   7.416   0.781
86031W        W47320  15.606  17.078   4.131
86032W        W47321  16.112  15.817  10.904
86033W        W47322  34.064  44.912  10.991
86034W        W47323   2.826  42.409   4.166
86035W        W47324   0.466  38.950   4.254
86036W        W47325  28.108  41.483   5.196
86037W        W47326  17.574  27.043   4.169
86038W        W47327   8.741  19.223  13.324
86039W        W47328  40.953  34.872   1.271
86040W        W47329  25.541  42.519   1.390
86041W        W47330  42.805  37.534   0.391
86042W        W47331  28.610  16.680   2.722
86043W        W47332  23.205   6.344  13.858
86044W        W47333  18.648  18.732  13.481
86045W        W47334   3.862  38.925   0.435
86046W        W47335   9.282   5.801  11.500
86047W        W47336   7.214  13.708  13.356
86048W        W47337   6.719   4.826   3.260
86049W        W47338  19.543  24.560  11.866
86050W        W47339  44.304  13.666  10.577
86051W        W47340  31.948  22.186   3.787
86052W        W47341  30.146  34.455  13.849
86053W        W47342   5.362  38.851  10.553
86054W        W47343  44.925   9.303  13.922
86055W        W47344  36.401  14.589  11.951
86056W        W47345  17.148  26.545  10.068
86057W        W47346  17.121  39.459   4.273
86058W        W47347  40.332  10.801   4.122
86059W        W47348  40.836  12.848  12.858
86060W        W47349   0.940  43.015   0.309
86061W        W47350   8.248  13.757  14.937
86062W        W47351  18.693  38.014   2.826
86063W        W47352   9.728  32.517   0.371
86064W        W47353  28.538  15.802   4.605
86065W        W47354  28.472  19.085  14.481
86066W        W47355  13.172  43.359  11.429
86067W        W47356  33.570  43.389  10.577
86068W        W47357  10.289  14.113   0.819
86069W        W47358   4.837  12.695   1.708
86070W        W47359  42.446  31.095   0.810
86071W        W47360  10.320  20.210   4.171
86072W        W47361  16.276  13.337  10.553
86073W        W47362  20.159  42.377  14.758
86074W        W47363   4.857  25.112   3.292
86075W        W47364   5.817  19.633  11.105
86076W        W47365  16.126  25.529  14.459
86077W        W47366  31.612  31.941  11.980
86078W        W47367  17.215  22.672   0.425
86079W        W47368  38.845  40.462  10.425
86080W        W47369  25.011  17.125   0.371
86081W        W47370   3.391  16.088   3.327
86082W        W47371  40.545  16.121  10.492
86083W        W47372   4.297  26.682   3.691
86084W        W47373  24.155  39.354  11.064
86085W        W47374  41.470  29.142  12.915
86086W        W47375  23.680   5.220  13.061
86087W        W47376  28.481  13.771  11.522
86088W        W47377  33.986  16.771  13.049
86089W        W47378  18.151   5.235   0.476
86090W        W47379  28.168  30.566   2.310
86091W        W47380  10.739  34.908  12.834
86092W        W47381   5.714  18.754   0.407
86093W        W47382  12.221   9.175  12.945
86094W        W47383  36.457  23.230   4.192
86095W        W47384  40.545  11.773  13.441
86096W        W47385  43.385  31.909  14.425
86097W        W47386  36.461  31.619  12.878
86098W        W47387  22.154   1.261  14.017
86099W        W47388  21.226  18.189   0.431
86100W        W47389  12.811  19.662   1.389
86101W        W47390  15.270  39.917   2.750
86102W        W47391  19.632  11.688   2.315
86103W        W47392   1.867  41.440   2.818
86104W        W47393  18.762  43.810  10.419
86105W        W47394   8.163   9.741  14.496
86106W        W47395  17.633  26.499   3.859
86107W        W47396   3.390  27.667   2.769
86108W        W47397  10.182  31.407  11.610
86109W        W47398  35.598  30.114   1.263
86110W        W47399  37.512  33.552   1.932
86111W        W47400  30.609  36.001  13.023
86112W        W47401   1.373  44.774   2.686
86113W        W47402  24.158  11.767   1.378
86114W        W47403  13.762  36.389  14.361
86115W        W47404  27.014   7.358   4.223
86116W        W47405  11.669  39.460  13.386
86117W        W47406  43.355   1.864   5.205
86118W        W47407  11.193  40.983  10.892
86119W        W47408   1.759  33.941  12.499
86120W        W47409  40.407  25.147  10.528
86121W        W47410   9.239   7.767   1.709
86122W        W47411  12.633  11.196   2.881
86123W        W47412  15.689  11.745   4.598
86124W        W47413  30.563  25.108   3.719
86125W        W47414  33.443  34.940   2.306
86126W        W47415  10.189   2.231   2.319
86127W        W47416  21.018  20.652   4.760
86128W        W47417  41.034  20.740   3.726
86129W        W47418  11.236  42.800  11.589
86130W        W47419   3.826   8.824   4.705
86131W        W47420  31.080  38.049   0.771
86132W        W47421  44.949  18.686  11.395
86133W        W47422  36.940   1.454  13.356
86134W        W47423  28.627  43.822   0.774
86135W        W47424  41.002   1.939   1.219
86136W        W47425   3.312  40.877   0.852
86137W        W47426  34.375   9.737  11.456
86138W        W47427   6.732  37.927   2.325
86139W        W47428  36.955   2.824  13.931
86140W        W47429   1.962  29.037  13.380
86141W        W47430  25.525  37.062  11.548
86142W        W47431  31.607  21.174   0.934
86143W        W47432  19.625  34.438  12.069
86144W        W47433  32.005  30.447  11.599
86145W        W47434  24.525  22.609  11.945
86146W        W47435  16.277   2.808  14.899
86147W        W47436  22.246  26.675   1.892
86148W        W47437  38.531  30.929  14.935
86149W        W47438  14.595  27.507   4.751
86150W        W47439  32.973   9.332  10.629
86151W        W47440  11.144  29.448  10.506
86152W        W47441  26.001  43.859  14.434
86153W        W47442  23.210  32.587   3.753
86154W        W47443  40.455   1.381   0.320
86155W        W47444  13.719  10.208   1.269
86156W        W47445  29.575  34.395   4.604
86157W        W47446  14.128  29.434  10.541
86158W        W47447   2.906   2.777  13.478
86159W        W47448  23.021  21.087   2.314
86160W        W47449  38.893   9.248  13.802
86161W        W47450  34.527  33.127   3.174
86162W        W47451  37.024  44.010   3.372
86163W        W47452   7.294  27.017  10.588
86164W        W47453  11.764  14.241   0.818
86165W        W47454  31.457  28.643  13.317
86166W        W47455  19.614  25.558   5.288
86167W        W47456  23.224   7.682  14.761
86168W        W47457  18.709   4.762  12.908
86169W        W47458   5.705   5.895  10.544
86170W        W47459  23.195  25.655  14.836
86171W        W47460  18.191  13.221   0.293
86172W        W47461  15.287   1.437   1.853
86173W        W47462  44.002  42.363  10.465
86174W        W47463   3.742  37.996   3.288
86175W        W47464  39.822  17.197   3.650
86176W        W47465  23.176  22.668  13.444
86177W        W47466  35.014   0.380  12.022
86178W        W47467  10.212  15.263   2.798
86179W        W47468  22.669  29.480   1.274
86180W        W47469  40.051   4.394   1.443
86181W        W47470  25.553  40.406   1.817
86182W        W47471  42.371  22.747   4.119
86183W        W47472  38.917  27.515  13.522
86184W        W47473  35.043  32.042   1.245
86185W        W47474  29.171  17.685   0.750
86186W        W47475   2.455   1.393   1.700
86187W        W47476  33.400  31.899   4.289
86188W        W47477  23.604  15.086   2.743
86189W        W47478   2.416  44.344   4.148
86190W        W47479  30.108  32.471  10.537
86191W        W47480  20.233  33.076   4.656
86192W        W47481  37.026  15.278   2.759
86193W        W47482  11.642   7.265  11.939
86194W        W47483  19.145   8.900   1.708
86195W        W47484  15.622   4.403   3.255
86196W        W47485   3.868  34.456   4.667
86197W        W47486  22.233  39.966  10.595
86198W        W47487   7.854  40.956   1.815
86199W        W47488  42.933  40.886   3.294
86200W        W47489  40.323  35.985   0.865
86201W        W47490  28.660  29.124  11.996
86202W        W47491  26.495  36.901   2.188
86203W        W47492  39.975  30.917   0.328
86204W        W47493  39.957  37.560   0.275
86205W        W47494   7.350  29.451   1.302
86206W        W47495  41.903  31.525  13.057
86207W        W47496  12.263  27.052   3.789
86208W        W47497   8.193  11.631  14.877
86209W        W47498  17.767  26.521  13.312
86210W        W47499  37.377  37.068   0.963
86211W        W47500  31.480  39.020  11.054
86212W        W47501  41.816  32.042  11.535
86213W        W47502  14.273  29.081  14.490
86214W        W47503  38.560  16.196  10.408
86215W        W47504  32.031   5.233  14.415
86216W        W47505   0.943  15.118   3.222
86217W        W47506   3.804   1.340   2.204
86218W        W47507   5.721  44.852  12.049
86219W        W47508  11.688  39.435  11.431
86220W        W47509  30.545   3.335  12.365
86221W        W47510  30.912  23.727  10.458
86222W        W47511  36.075  33.088   1.695
86223W        W47512  13.291  13.135  10.892
86224W        W47513   0.876  14.664   1.353
86225W        W47514   1.863  31.021   1.325
86226W        W47515   9.841  38.870   2.292
86227W        W47516  21.676  38.394   3.282
86228W        W47517  40.925  26.044  12.096
86229W        W47518   7.737  42.978   4.141
86230W        W47519   4.285  18.572   0.347
86231W        W47520  39.497  37.989   0.881
86232W        W47521   7.308   2.738   1.878
86233W        W47522  28.474   4.721   2.374
86234W        W47523  30.158   1.771  13.370
86235W        W47524   1.264   0.285   2.284
86236W        W47525  29.173   5.318   0.472
86237W        W47526  11.675   0.980  12.071
86238W        W47527  12.829  15.268   3.282
86239W        W47528   6.716  19.267   2.203
86240W        W47529   9.877   2.346  14.982
86241W        W47530  38.566  10.635   0.446
86242W        W47531  35.582  44.316  14.979
86243W        W47532  34.521  40.802  12.905
86244W        W47533  38.005  15.295   2.694
86245W        W47534  32.996  15.118   0.455
86246W        W47535  38.888  11.811  11.029
86247W        W47536  17.660   9.253   2.196
86248W        W47537  13.339  32.610   0.253
86249W        W47538  29.532  19.562   2.841
86250W        W47539  16.163   8.368  10.575
86251W        W47540   4.809   1.450   0.397
86252W        W47541  10.865  22.050  12.484
86253W        W47542   9.774  31.619  14.316
86254W        W47543  24.578  44.320   3.651
86255W        W47544  28.166   0.950   5.164
86256W        W47545  35.437  41.863  14.284
86257W        W47546  36.966   4.763  11.419
86258W        W47547  30.062  25.078   4.832
86259W        W47548  43.419  29.156   0.317
86260W        W47549  33.103  12.747   3.293
86261W        W47550  44.001  35.381   0.927
86262W        W47551   7.292  26.955   0.331
86263W        W47552  13.240  16.266   4.254
86264W        W47553  38.452  29.167   1.355
86265W        W47554  14.284  44.408   2.180
86266W        W47555  37.389   9.715   4.752
86267W        W47556  18.687  24.540   0.291
86268W        W47557  11.245   8.328  13.401
86269W        W47558   7.823  12.728  13.949
86270W        W47559  31.104  24.025  14.894
86271W        W47560  28.628  41.891  14.510
86272W        W47561  22.085  17.710  13.050
86273W        W47562  36.363  19.582   1.371
86274W        W47563  40.972  39.491  14.422
86275W        W47564   6.920   8.872  12.521
86276W        W47565  35.973  22.062   3.208
86277W        W47566  29.065  38.457  13.893
86278W        W47567  16.651  33.957  14.477
86279W        W47568  20.623  16.293  14.030
86280W        W47569  24.114  35.433  10.506
86281W        W47570  31.082  24.082  14.375
86282W        W47571  36.049  32.488   4.290
86283W        W47572   9.159   5.346  13.352
86284W        W47573  20.725  36.013  13.845
86285W        W47574  37.448  41.414   0.245
86286W        W47575   0.921  33.052   0.813
86287W        W47576   1.922  37.963   4.798
86288W        W47577   3.391  28.956  14.977
86289W        W47578  25.681  38.409   0.814
86290W        W47579  16.121  19.158   1.435
86291W        W47580  32.607   0.975   3.216
86292W        W47581   8.227  22.580  12.405
86293W        W47582  18.585  29.468  14.797
86294W        W47583  35.525  23.195   4.184
86295W        W47584  21.145  41.876   1.884
86296W        W47585   4.250  28.960  12.061
86297W        W47586  10.282  18.172   2.255
86298W        W47587  36.376  40.379  14.311
86299W        W47588   4.775  40.512   2.779
86300W        W47589   0.446  12.835  12.473
86301W        W47590   7.316  22.675   3.278
86302W        W47591  37.850  35.479  11.476
86303W        W47592  23.136   1.365  10.509
86304W        W47593  35.379  34.462  12.490
86305W        W47594   0.842  15.290  11.468
86306W        W47595  40.543   6.798  12.390
86307W        W47596  39.405  21.175  14.307
86308W        W47597  13.834   2.727   2.382
86309W        W47598  28.972  23.002   2.298
86310W        W47599  14.104  17.070   1.318
86311W        W47600   6.697   4.912  14.515
86312W        W47601  21.164   8.711   3.817
86313W        W47602  12.818  18.079   3.808
86314W        W47603  12.827   3.361  14.444
86315W        W47604  44.956  43.877  13.796
86316W        W47605   3.391  28.581  14.766
86317W        W47606   7.187  34.977   3.160
86318W        W47607   9.250  28.069  13.531
86319W        W47608   4.843  37.084   3.193
86320W        W47609  29.946   4.234   2.753
86321W        W47610  20.176   0.902   1.701
86322W        W47611  25.118  21.642  10.574
86323W        W47612  21.100  32.520   5.204
86324W        W47613  10.838   4.447   0.924
86325W        W47614  34.416  11.211  11.382
86326W        W47615  21.651  26.583  11.012
86327W        W47616   5.376  17.264  12.436
86328W        W47617  11.172  31.614  11.544
86329W        W47618  10.867  15.787   3.218
86330W        W47619  24.586  37.460   0.414
86331W        W47620   4.284  34.068   1.915
86332W        W47621  11.766  15.794   2.806
86333W        W47622   7.185  37.493   4.315
86334W        W47623   5.918  15.113  13.028
86335W        W47624  14.221  32.459  10.478
86336W        W47625  35.961  32.426   4.710
86337W        W47626  33.561   6.916   1.754
86338W        W47627  13.819  32.522   4.347
86339W        W47628  12.188  22.588   3.630
86340W        W47629  21.582  36.874   0.962
86341W        W47630  41.455   7.173  13.995
86342W        W47631   3.853  34.550  13.503
86343W        W47632   9.752   2.331   4.647
86344W        W47633  23.016  42.514  10.971
86345W        W47634   4.234   0.396   3.848
86346W        W47635  36.953  42.999  11.863
86347W        W47636  33.997  29.514  14.852
86348W        W47637  20.740  24.496   3.267
86349W        W47638  14.297   2.424   2.821
86350W        W47639  14.825  41.321   1.718
86351W        W47640  15.704  19.089  14.278
86352W        W47641  23.078  23.678   1.835
86353W        W47642   8.271  25.136   1.337
86354W        W47643   1.319  20.715   2.839
86355W        W47644  16.674  35.062  11.051
86356W        W47645  42.477   2.777  12.840
86357W        W47646   3.457   8.294   2.783
86358W        W47647   5.241   7.678   3.185
86359W        W47648  32.973  14.723   1.421
86360W        W47649   6.424  28.629   3.846
86361W        W47650  36.493   5.381  12.834
86362W        W47651   2.391  23.589   1.373
86363W        W47652  34.599  26.515   4.139
86364W        W47653  35.401  28.184   4.133
86365W        W47654  43.452  32.906   4.208
86366W        W47655  34.975   7.674   2.372
86367W        W47656   3.304   5.294  13.507
86368W        W47657  38.373  31.493   3.250
86369W        W47658  14.588  34.591  13.535
86370W        W47659  43.481  12.308  11.473
86371W        W47660  11.699  26.112  12.991
86372W        W47661  33.107   0.850  11.594
86373W        W47662  44.346  12.624   4.715
86374W        W47663  11.347  25.171   3.648
86375W        W47664  16.146  14.806  14.902
86376W        W47665  37.371  13.176  11.104
86377W        W47666  42.983  13.621  11.862
86378W        W47667  35.586  38.820   4.180
86379W        W47668  41.301   4.725   0.873
86380W        W47669  21.138  41.408   1.275
86381W        W47670  38.846  41.951  14.830
86382W        W47671  21.590  38.998  11.574
86383W        W47672   2.235  34.888  14.791
86384W        W47673  35.055   1.357   1.856
86385W        W47674  10.685   8.199  14.307
86386W        W47675  33.618  44.947   4.222
86387W        W47676  23.156  18.684   1.217
86388W        W47677  34.034  19.234  13.923
86389W        W47678   7.878  33.602   9.924
86390W        W47679  40.042  24.720  13.442
86391W        W47680   1.366  43.483   3.803
86392W        W47681   0.320  31.074   4.773
86393W        W47682   3.281   1.763  11.934
86394W        W47683  14.097  44.437   1.794
86395W        W47684   8.279  39.511   1.314
86396W        W47685  32.057  26.150  12.421
86397W        W47686  21.234  35.085  10.563
86398W        W47687  18.062  33.888   2.893
86399W        W47688  19.066   1.266   0.842
86400W        W47689  40.923  22.647   4.248
86401W        W47690   8.859   4.314  13.513
86402W        W47691   9.719   7.300   4.349
86403W        W47692  39.813  21.100  11.067
86404W        W47693  16.769  33.126  14.375
86405W        W47694   7.366  34.510   3.163
86406W        W47695  27.066  17.799  13.449
86407W        W47696  23.686  40.891  10.474
86408W        W47697   2.728   8.251   0.473
86409W        W47698  37.383  13.139   3.171
86410W        W47699  19.182  42.878  13.351
86411W        W47700  18.725   9.745  12.437
86412W        W47701  19.238  32.968   3.243
86413W        W47702  39.945  18.561   0.835
86414W        W47703  37.882  44.004   4.679
86415W        W47704  22.524  18.141   1.829
86416W        W47705  14.327  20.525  13.888
86417W        W47706  30.060  13.181   2.318
86418W        W47707  44.964   8.291  12.961
86419W        W47708   4.380  27.676   1.934
86420W        W47709   7.311  29.628   4.628
86421W        W47710  38.038  19.694  10.896
86422W        W47711  42.917  41.354   2.362
86423W        W47712   5.766  18.242  14.892
86424W        W47713  38.565  34.088   0.345
86425W        W47714  27.671  44.356   2.862
86426W        W47715   7.259  13.643  10.902
86427W        W47716   3.945  43.871  10.940
86428W        W47717  12.178  28.060   3.785
86429W        W47718   2.901  36.454   3.349
86430W        W47719   1.937   5.267  13.990
86431W        W47720  13.183  23.650  14.439
86432W        W47721   1.958  11.219  12.078
86433W        W47722  31.994   1.298   2.316
86434W        W47723  25.983  42.476   3.354
86435W        W47724   6.399  11.686   5.283
86436W        W47725   0.911  26.122  12.064
86437W        W47726  16.111   4.306   0.956
86438W        W47727  19.162  41.485   1.249
86439W        W47728   8.174  14.806  14.795
86440W        W47729  42.978  17.112  13.337
86441W        W47730  11.268  26.674   2.394
86442W        W47731  10.831  34.880   4.200
86443W        W47732  24.230  11.310  12.346
86444W        W47733  17.646   3.273  12.552
86445W        W47734  28.438  19.213  12.950
86446W        W47735  20.626  30.508  11.052
86447W        W47736   6.892   3.319   0.949
86448W        W47737   6.750  23.624  11.408
86449W        W47738   1.329  43.990  14.016
86450W        W47739  40.843  12.145  12.978
86451W        W47740  36.098   4.739  10.493
86452W        W47741  16.277  41.006   1.779
86453W        W47742  14.733   7.210   4.771
86454W        W47743  40.464  43.932   3.263
86455W        W47744  28.102  10.174   1.804
86456W        W47745  27.968   4.792   9.980
86457W        W47746  37.338   6.271   0.440
86458W        W47747  17.645  37.920  12.425
86459W        W47748   8.727   1.316  10.416
86460W        W47749   8.814  44.416   3.730
86461W        W47750  25.000   1.334   4.279
86462W        W47751  37.384   0.361   0.473
86463W        W47752   6.730  28.517   0.913
86464W        W47753   6.737  23.165   9.574
86465W        W47754  16.241  25.524   4.628
86466W        W47755  15.682   5.291  10.516
86467W        W47756  17.575  29.648  12.482
86468W        W47757  11.865  37.544   9.979
86469W        W47758  19.547  34.948   0.393
86470W        W47759  26.207  27.487  10.974
86471W        W47760   1.367  15.711   0.423
86472W        W47761  22.603  42.458  13.315
86473W        W47762  30.641  30.945  11.003
86474W        W47763  34.942  11.303   3.356
86475W        W47764  32.475   4.818   4.600
86476W        W47765  39.341  40.406  12.361
86477W        W47766  26.059  32.496   3.725
86478W        W47767  34.477  36.880  10.522
86479W        W47768  37.447  42.285   0.422
86480W        W47769  30.597  31.005  13.316
86481W        W47770  21.721  32.628   4.805
86482W        W47771  11.800  36.918   3.677
86483W        W47772  21.680  15.655   4.712
86484W        W47773   9.651  27.456  13.354
86485W        W47774  16.300  37.563   1.271
86486W        W47775   3.387  29.059  12.934
86487W        W47776  19.145  21.698   4.262
86488W        W47777  13.105  32.572  11.059
86489W        W47778  32.454  16.620  10.959
86490W        W47779  37.064  31.550   0.250
86491W        W47780  38.867   7.392   5.321
86492W        W47781   0.488  18.197  10.959
86493W        W47782   3.234  12.291  10.911
86494W        W47783   4.268   9.850   2.767
86495W        W47784  23.200   9.351  11.967
86496W        W47785  11.660  34.488  11.492
86497W        W47786  38.849  10.844   3.778
86498W        W47787  19.089  32.486  11.094
86499W        W47788   8.720  13.789  11.609
86500W        W47789  35.051   0.963   3.303
86501W        W47790  17.568  12.668  14.011
86502W        W47791  23.153   8.792  14.382
86503W        W47792  20.743   5.233   4.683
86504W        W47793  22.528  26.125  13.874
86505W        W47794   6.795   0.436   4.135
86506W        W47795  30.564  21.043  14.475
86507W        W47796  18.147  25.080  14.939
86508W        W47797  30.466  22.698  11.112
86509W        W47798   0.269  20.071  12.930
86510W        W47799   4.930  32.970  14.772
86511W        W47800  11.231  12.235  11.954
86512W        W47801  28.441  39.063   3.780
86513W        W47802  37.492  35.881   4.712
86514W        W47803   8.332   3.887  14.795
86515W        W47804  21.734  22.715   0.967
86516W        W47805   7.366  13.242   3.384
86517W        W47806   6.427  26.646   5.086
86518W        W47807  29.510  13.176  11.079
86519W        W47808  27.176  41.315  12.022
86520W        W47809  35.561   7.258  10.581
86521W        W47810  35.406  27.500  11.056
86522W        W47811  11.243  23.007  11.090
86523W        W47812   3.768  16.177  12.429
86524W        W47813  11.745   1.294  13.830
86525W        W47814  36.994  38.942   0.804
86526W        W47815  15.654  42.907   3.680
86527W        W47816  39.855  26.982   1.296
86528W        W47817  15.328  43.776  14.772
86529W        W47818  24.168  37.539  13.831
86530W        W47819   3.821  25.620  13.994
86531W        W47820  32.479   1.374  14.882
86532W        W47821  11.787  38.538   0.359
86533W        W47822  34.562  26.681   0.282
86534W        W47823  35.007   0.906  10.910
86535W        W47824  28.665  11.625  11.482
86536W        W47825  17.298  32.632   1.285
86537W        W47826  26.117  29.560   3.346
86538W        W47827  16.299  17.195   3.199
86539W        W47828  43.765   4.716   0.387
86540W        W47829  26.501  35.889   5.307
86541W        W47830  11.756  23.068  14.301
86542W        W47831  38.339  15.763   2.835
86543W        W47832  26.081   6.304   2.903
86544W        W47833  28.112  33.413  13.819
86545W        W47834  42.316   7.704   3.338
86546W        W47835   7.787  32.913   3.803
86547W        W47836  23.532   8.352  10.486
86548W        W47837  11.273  19.728  13.447
86549W        W47838  11.670  33.054  11.952
86550W        W47839  27.145  12.134  13.513
86551W        W47840  30.581  13.234  11.988
86552W        W47841  39.533  42.968   1.885
86553W        W47842  16.148  31.114   4.683
86554W        W47843   2.744  32.007   2.822
86555W        W47844  39.037   0.288   0.275
86556W        W47845  24.206   3.434   2.316
86557W        W47846  35.402  36.080   4.293
86558W        W47847  13.160   7.895  11.040
86559W        W47848   1.809  18.594   4.718
86560W        W47849  35.479  15.697   1.891
86561W        W47850  22.226  33.581  14.015
86562W        W47851  21.237  44.914   0.369
86563W        W47852   8.298  22.582   4.337
86564W        W47853  43.849   5.232   3.658
86565W        W47854  10.147   6.294  12.993
86566W        W47855   8.784  23.499  14.458
86567W        W47856  20.572  35.106  11.872
86568W        W47857  44.860   3.324  13.794
86569W        W47858   7.409  15.226   3.365
86570W        W47859   9.325  34.111   3.262
86571W        W47860  27.026  28.164   0.929
86572W        W47861  29.554  20.605   0.395
86573W        W47862  25.482  24.087   2.888
86574W        W47863  43.791  41.000  13.361
86575W        W47864  18.628  23.194   1.289
86576W        W47865  20.629   0.905  13.487
86577W        W47866  42.384  33.592   0.465
86578W        W47867  22.608   1.834   1.411
86579W        W47868  17.191  19.220   4.697
86580W        W47869  12.188   1.280   2.758
86581W        W47870  14.216  43.322   2.675
86582W        W47871   9.742  15.588  14.766
86583W        W47872   7.903  18.679  13.443
86584W        W47873  39.527  32.909   2.836
86585W        W47874  24.721  24.636  13.854
86586W        W47875  25.188  43.382   4.185
86587W        W47876  26.489  43.007   4.804
86588W        W47877  39.498  34.469  13.850
86589W        W47878  27.111  44.776   1.823
86590W        W47879  33.971  34.098   0.846
86591W        W47880   4.725   4.319  14.370
86592W        W47881   0.423  23.562   3.164
86593W        W47882  33.897  43.882  11.443
86594W        W47883  17.195  42.867  11.033
86595W        W47884  40.359  22.202  10.519
86596W        W47885  41.335  13.109   1.367
86597W        W47886  13.285   8.899  12.528
86598W        W47887  33.525  34.508   1.384
86599W        W47888  30.922  10.347  14.763
86600W        W47889  37.891   3.796  14.894
86601W        W47890   2.913  33.876   4.139
86602W        W47891  17.103  34.492  13.822
86603W        W47892  30.974  21.129  13.421
86604W        W47893  18.641   6.767  14.516
86605W        W47894  25.583  10.243   4.609
86606W        W47895  35.889   7.701  11.487
86607W        W47896   4.299  41.500   3.332
86608W        W47897   9.791  41.320   4.267
86609W        W47898   7.891  21.127   4.135
86610W        W47899  20.158  30.038  11.098
86611W        W47900  13.125  17.661  14.342
86612W        W47901  36.407  13.600   2.873
86613W        W47902  37.913   8.875  12.095
86614W        W47903  27.020  21.182   0.470
86615W        W47904  35.582   7.272  11.098
86616W        W47905   1.264  21.168  13.454
86617W        W47906  16.185  10.305  10.941
86618W        W47907  31.149  36.365  13.365
86619W        W47908  41.897  37.396  12.420
86620W        W47909  29.015   6.702  13.939
86621W        W47910   1.923  31.090  13.419
86622W        W47911   1.788  32.133  13.540
86623W        W47912  21.042  22.719   4.291
86624W        W47913  36.941   5.274   3.295
86625W        W47914  31.515   0.803  14.515
86626W        W47915  25.506  24.635   2.303
86627W        W47916   1.876  23.043  10.921
86628W        W47917   0.959  25.046   1.376
86629W        W47918   8.217  13.311   1.360
86630W        W47919  23.116  24.009   2.282
86631W        W47920   8.736  36.031  12.357
86632W        W47921  44.934  19.253   3.207
86633W        W47922   7.904  41.461   4.272
86634W        W47923  17.624  18.067  11.380
86635W        W47924  30.019  36.548   3.179
86636W        W47925   4.782  26.956   2.665
86637W        W47926  24.006  22.107   3.833
86638W        W47927  27.561  36.349   3.287
86639W        W47928  29.044  39.440  11.401
86640W        W47929  22.721  23.620  14.770
86641W        W47930   6.357  36.348   3.316
86642W        W47931  23.530  24.504   3.635
86643W        W47932  38.887  43.486   9.986
86644W        W47933  21.184  39.910  14.461
86645W        W47934  12.772  11.681   3.209
86646W        W47935  35.559   2.299  14.352
86647W        W47936  16.771   5.418  11.550
86648W        W47937  15.098  23.570   4.275
86649W        W47938  24.123  27.639   4.675
86650W        W47939  42.023  44.288  11.885
86651W        W47940  30.017   5.805  14.513
86652W        W47941   6.791  36.570  11.580
86653W        W47942  19.706  24.637  14.888
86654W        W47943  33.389  27.015   1.427
86655W        W47944   9.692  16.088  14.943
86656W        W47945  25.499   2.314  14.350
86657W        W47946  37.508  14.588  13.910
86658W        W47947  42.963  15.789   9.921
86659W        W47948  21.092  14.256  14.310
86660W        W47949  17.655   0.880   1.744
86661W        W47950  29.980  44.873   2.812
86662W        W47951  28.050  44.409   1.219
86663W        W47952   0.486   2.468   3.211
86664W        W47953  21.714  31.468   0.793
86665W        W47954  15.640  12.234  10.922
86666W        W47955  18.130   0.863  12.429
86667W        W47956  21.249  37.873  13.392
86668W        W47957  44.317  23.987  13.033
86669W        W47958  38.389   8.782   2.223
86670W        W47959  20.582  23.496   0.728
86671W        W47960  30.071   6.315   1.329
86672W        W47961   9.173  10.345  13.332
86673W        W47962  11.344  18.641  11.574
86674W        W47963  30.537  15.142  13.948
86675W        W47964   9.753   6.298   3.775
86676W        W47965   6.233  41.972   3.342
86677W        W47966  31.541  43.854  14.329
86678W        W47967  18.640  33.476  11.863
86679W        W47968  26.529  12.651   0.744
86680W        W47969  16.137  22.683   1.904
86681W        W47970  18.148  21.042  10.621
86682W        W47971  33.053  16.636  13.369
86683W        W47972  28.462  13.806  14.293
86684W        W47973  39.459  23.504  13.472
86685W        W47974  36.439  34.527  14.348
86686W        W47975   5.774  42.916   0.967
86687W        W47976  38.978   7.213  10.905
86688W        W47977  18.067  29.957   1.723
86689W        W47978  23.991  25.206   1.730
86690W        W47979  12.188  13.691  14.478
86691W        W47980  20.031  10.879  12.842
86692W        W47981  29.968  15.328   4.661
86693W        W47982  29.015  26.993   4.294
86694W        W47983  18.765  32.927  11.455
86695W        W47984  23.178  37.483   4.145
86696W        W47985  31.632  33.877   3.845
86697W        W47986  37.024   9.336  11.076
86698W        W47987  33.445  28.550   2.876
86699W        W47988   6.688   3.758  11.920
86700W        W47989  14.709  29.016  10.485
86701W        W47990  26.676  20.525  13.526
86702W        W47991  31.610   9.732   2.759
86703W        W47992  24.070  17.694  14.472
86704W        W47993  43.398  23.692  14.845
86705W        W47994  29.019   6.277   3.188
86706W        W47995   3.288  25.479  14.358
86707W        W47996  11.317  12.807  13.518
86708W        W47997  38.373  30.112  13.793
86709W        W47998  34.468   1.971  12.864
86710W        W47999  17.066   3.922   4.308
86711W        W48000  44.301  25.168  13.816
86712W        W48001  12.363  30.977  14.791
86713W        W48002  16.613  28.119   0.786
86714W        W48003   5.232  20.613   4.343
86715W        W48004   2.852  26.607   3.355
86716W        W48005  34.991  33.984   1.900
86717W        W48006  18.146  11.799  11.928
86718W        W48007  38.070   6.400   2.348
86719W        W48008  24.181   7.763  12.979
86720W        W48009  13.334  32.437  13.476
86721W        W48010  27.555  20.718   1.794
86722W        W48011   3.765   1.853  11.079
86723W        W48012  28.550  37.038   2.302
86724W        W48013   1.892  22.651   3.842
86725W        W48014  26.483   5.254  14.336
86726W        W48015   5.364  28.013   1.831
86727W        W48016  20.760  13.675  13.431
86728W        W48017  25.122  36.368  12.403
86729W        W48018  11.684  31.627   3.861
86730W        W48019  26.056  27.501  10.515
86731W        W48020  18.578   6.409   1.262
86732W        W48021   0.869  30.629   0.954
86733W        W48022   0.440  33.970  10.590
86734W        W48023  16.711  33.425   0.334
86735W        W48024   6.265  39.474   1.876
86736W        W48025   9.333  24.586  12.861
86737W        W48026  38.956  28.061   3.239
86738W        W48027  36.860   8.843  14.861
86739W        W48028  27.533  20.611  11.484
86740W        W48029  43.967   0.760   0.263
86741W        W48030  39.035   6.279   2.717
86742W        W48031   5.380  31.031   2.868
86743W        W48032  11.139  14.807   0.378
86744W        W48033  21.214   7.315  11.951
86745W        W48034  13.694   8.314   3.683
86746W        W48035  38.001  15.792  11.039
86747W        W48036  21.609  12.706  13.392
86748W        W48037   4.413  19.770   0.468
86749W        W48038  35.109  43.809   2.372
86750W        W48039  26.543   6.259   4.766
86751W        W48040  15.288   1.888  11.468
86752W        W48041   5.217  27.677   4.317
86753W        W48042  12.630   0.395  11.917
86754W        W48043  32.135   5.883   4.254
86755W        W48044   4.236  27.641   2.772
86756W        W48045  18.636  34.912   1.724
86757W        W48046  31.642   9.740  14.313
86758W        W48047   8.241  11.701   0.436
86759W        W48048  21.741  44.811  11.017
86760W        W48049  43.884  10.266   0.790
86761W        W48050  18.207  36.866  10.051
86762W        W48051  30.106  35.562  12.511
86763W        W48052  20.727  17.221  11.555
86764W        W48053  29.133  43.315  11.904
86765W        W48054  36.923  11.752   2.693
86766W        W48055   6.774  26.092   1.768
86767W        W48056  42.479  23.988   4.294
86768W        W48057   3.436  18.238  11.454
86769W        W48058  33.478  27.518  13.434
86770W        W48059  11.127  37.435  10.906
86771W        W48060  41.325   8.768   0.345
86772W        W48061  24.536   5.905   3.271
86773W        W48062  43.915   1.394  13.323
86774W        W48063   1.294  44.767  10.900
86775W        W48064  27.605  13.178  12.093
86776W        W48065  18.609  32.935   0.879
86777W        W48066  34.395  41.317  12.916
86778W        W48067  18.238  37.913   2.713
86779W        W48068  15.246  28.524   1.277
86780W        W48069  14.286  42.482   0.727
86781W        W48070  19.091  32.002   1.372
86782W        W48071  31.093  31.928   3.374
86783W        W48072  32.094  40.883  12.514
86784W        W48073   6.898  38.949  12.017
86785W        W48074  12.793  27.611  12.475
86786W        W48075  31.581  19.625  12.954
86787W        W48076  34.421  22.515  11.475
86788W        W48077  21.585  25.564   3.755
86789W        W48078  24.580   3.391   1.705
86790W        W48079  20.068  22.516   4.177
86791W        W48080  14.598  42.457  12.015
86792W        W48081   1.358   4.826  12.477
86793W        W48082  36.999  35.579  12.077
86794W        W48083  37.445  34.371  13.999
86795W        W48084  13.157  36.900  13.462
86796W        W48085  11.754  26.039  14.868
86797W        W48086  26.622  19.722   5.319
86798W        W48087  20.564  27.195   2.788
86799W        W48088  38.945  37.045  11.471
86800W        W48089  20.736  44.923  14.295
86801W        W48090  37.445  22.040   4.237
86802W        W48091  23.558   4.703  10.929
86803W        W48092   2.808   6.893  10.516
86804W        W48093  41.996  14.738  11.582
86805W        W48094  26.124  41.362   4.161
86806W        W48095  12.217  36.411   4.198
86807W        W48096  31.074  32.556   4.128
86808W        W48097  43.803  27.979  13.422
86809W        W48098  33.451  43.278  12.046
86810W        W48099  10.707  11.698   2.223
86811W        W48100  11.285  32.141  10.031
86812W        W48101  40.925  23.129   3.846
86813W        W48102  29.039  22.088   1.909
86814W        W48103  12.135  39.969  13.534
86815W        W48104  37.430  25.130  10.907
86816W        W48105   8.725  34.550   0.763
86817W        W48106  32.529  42.416   4.783
86818W        W48107  34.043  34.041  11.907
86819W        W48108   3.925  14.786  10.916
86820W        W48109  17.581   7.806  11.121
86821W        W48110  17.234  17.615   4.129
86822W        W48111   9.696   5.318   1.926
86823W        W48112   5.915  24.121   0.314
86824W        W48113  34.069   9.794   0.769
86825W        W48114  25.091  28.496  10.637
86826W        W48115  27.530  18.202  12.348
86827W        W48116  29.048   3.886   4.325
86828W        W48117  33.397  24.598   1.301
86829W        W48118   6.681  16.681   3.174
86830W        W48119   8.662   4.871  13.975
86831W        W48120   5.287  36.944  11.104
86832W        W48121  15.661  42.525  11.885
86833W        W48122  13.642  28.627   3.311
86834W        W48123  19.246  14.737   4.742
86835W        W48124   4.230  44.907   3.647
86836W        W48125   5.772  19.237   2.291
86837W        W48126  21.244  15.705   1.297
86838W        W48127  39.449  16.728  14.002
86839W        W48128  15.322  40.884  12.067
86840W        W48129  36.585  34.994   3.380
86841W        W48130   8.821  14.649  12.007
86842W        W48131  13.834  24.019  12.394
86843W        W48132  31.913  33.949   0.478
86844W        W48133   5.225  15.606   4.295
86845W        W48134  29.969  42.859   1.377
86846W        W48135  32.132   3.324   3.280
86847W        W48136  14.115  17.225   0.836
86848W        W48137  18.660  10.236  11.018
86849W        W48138  12.759  20.264   0.457
86850W        W48139  30.497   6.428   5.128
86851W        W48140  24.087  19.733   0.807
86852W        W48141  18.751  29.655   3.297
86853W        W48142  13.778  27.557   4.761
86854W        W48143  30.096  42.409   0.933
86855W        W48144  24.672  35.918   2.813
86856W        W48145   3.754  36.888  13.411
86857W        W48146  40.823   5.862  14.378
86858W        W48147  44.271  27.185  10.427
86859W        W48148  20.028  14.329   0.905
86860W        W48149  11.353  29.460   4.236
86861W        W48150  43.416  23.547  10.975
86862W        W48151   0.365  33.004  11.094
86863W        W48152  36.565  41.458  10.091
86864W        W48153   3.391  14.214   0.804
86865W        W48154  36.883  31.579   4.794
86866W        W48155  23.046   1.829   4.314
86867W        W48156  38.516  41.942  10.909
86868W        W48157  42.437  25.203   2.351
86869W        W48158   3.801  32.134   4.661
86870W        W48159  18.779   3.281  10.914
86871W        W48160  16.289   8.767  12.575
86872W        W48161  21.207  10.210  14.867
86873W        W48162  15.637  44.998   3.286
86874W        W48163  32.949   8.771  11.025
86875W        W48164   1.972  18.219  10.906
86876W        W48165   9.752  31.090   3.716
86877W        W48166  27.625  40.518  12.855
86878W        W48167  20.261  32.585  14.926
86879W        W48168   9.657  19.636   4.673
86880W        W48169  16.301  40.399   0.782
86881W        W48170  36.986   9.693   2.760
86882W        W48171  29.556  38.435   1.354
86883W        W48172  23.497   0.387  13.041
86884W        W48173   8.701  25.677  14.458
86885W        W48174   1.373   1.898   4.671
86886W        W48175  20.666  24.572   4.247
86887W        W48176  33.494  32.917  11.097
86888W        W48177  20.098  24.003  14.349
86889W        W48178  11.657  11.866   2.755
86890W        W48179  39.813  20.540   9.602
86891W        W48180  33.425  13.764   0.326
86892W        W48181  35.926  23.711   4.823
86893W        W48182   5.895   6.846  11.568
86894W        W48183  11.227  33.988   2.739
86895W        W48184   1.770  27.159   1.382
86896W        W48185  32.102  42.425   4.755
86897W        W48186  23.221  42.855   1.825
86898W        W48187   5.719   5.776  13.390
86899W        W48188  14.799  23.653   3.750
86900W        W48189  14.616  35.915  13.472
86901W        W48190  15.793   7.886  14.390
86902W        W48191   3.880  13.300  10.541
86903W        W48192  18.171  32.438   1.312
86904W        W48193   2.780  18.146   2.405
86905W        W48194  35.089  21.667  11.944
86906W        W48195  19.268  12.670   0.452
86907W        W48196  39.989  42.406  12.375
86908W        W48197   9.865   7.908   4.321
86909W        W48198  41.953  40.464   1.796
86910W        W48199  12.255  27.679   4.201
86911W        W48200   0.491  15.668   4.278
86912W        W48201   4.816   9.168   2.732
86913W        W48202  15.149  42.939   4.655
86914W        W48203  10.237  41.985   0.357
86915W        W48204  11.832   0.252   4.739
86916W        W48205  18.789  42.446   0.413
86917W        W48206  36.353  43.774   2.898
86918W        W48207  25.622  35.492   4.219
86919W        W48208  29.562  41.029   0.890
86920W        W48209  19.715  24.097   4.702
86921W        W48210   7.204   5.728  14.279
86922W        W48211   5.298  38.520  12.493
86923W        W48212  39.977  17.074  11.988
86924W        W48213  35.413   1.755   2.705
86925W        W48214  22.742  24.215  11.497
86926W        W48215   2.274   6.269  11.420
86927W        W48216  20.098  37.478   2.236
86928W        W48217  24.559  21.197  13.796
86929W        W48218  24.176  38.477  11.045
86930W        W48219  37.498   7.745  14.511
86931W        W48220  44.478  11.837   1.348
86932W        W48221   5.791  27.047  13.968
86933W        W48222   4.746  21.061   3.791
86934W        W48223  31.989   1.467  13.337
86935W        W48224  43.331  44.440   3.797
86936W        W48225  28.600  39.364  13.032
86937W        W48226  40.031  23.212   4.250
86938W        W48227  39.876  14.197   3.373
86939W        W48228  17.695  34.994   3.839
86940W        W48229  17.579  35.584  14.864
86941W        W48230  13.702   7.228  12.392
86942W        W48231  25.214  30.521  14.008
86943W        W48232  29.162  43.459  10.956
86944W        W48233  33.037  37.858  14.927
86945W        W48234  32.007  18.705  13.843
86946W        W48235  27.962  13.257   0.357
86947W        W48236  31.526  24.115  14.993
86948W        W48237  31.611  25.530  11.568
86949W        W48238  26.622  28.950   0.882
86950W        W48239  35.048  21.757   0.450
86951W        W48240  44.408   6.389  14.294
86952W        W48241  24.527   9.723  12.077
86953W        W48242  17.293  10.735   2.336
86954W        W48243  33.410  24.702  12.996
86955W        W48244   3.904  22.705  13.916
86956W        W48245  20.700  40.857   4.180
86957W        W48246  13.172   3.829   3.736
86958W        W48247  20.074   8.797   1.414
86959W        W48248  16.114  41.813   0.899
86960W        W48249  13.258  26.151   1.897
86961W        W48250  42.491  15.301   1.800
86962W        W48251  33.562  31.947   5.103
86963W        W48252   7.244  37.851  14.935
86964W        W48253  19.770  17.102  13.853
86965W        W48254  20.549  21.028  12.394
86966W        W48255  29.029  15.245  12.522
86967W        W48256   3.415   0.441   3.377
86968W        W48257  25.020  32.634   2.260
86969W        W48258  19.051  15.672  14.998
86970W        W48259   0.850  39.043   2.670
86971W        W48260  43.417   4.704  11.017
86972W        W48261   9.717  29.063   2.393
86973W        W48262   3.287  21.236   2.322
86974W        W48263   6.401  11.773  11.897
86975W        W48264  26.177   2.929   4.714
86976W        W48265  21.528  27.629  14.781
86977W        W48266  22.023  41.883  12.448
86978W        W48267   5.356  42.786  11.415
86979W        W48268  44.274  22.632   1.254
86980W        W48269  24.007  17.124   4.312
86981W        W48270   8.362   8.862  10.525
86982W        W48271   6.795  31.075  12.861
86983W        W48272  39.557  19.655  12.980
86984W        W48273  38.860  38.899   0.314
86985W        W48274  30.535  29.046   3.635
86986W        W48275  29.636   9.190  11.976
86987W        W48276  19.764  19.230   1.392
86988W        W48277  26.178  14.177  13.974
86989W        W48278  16.223  43.828   0.760
86990W        W48279  18.734   6.782   4.660
86991W        W48280  12.161  36.423  12.340
86992W        W48281  13.725  22.707   4.155
86993W        W48282  25.122  14.759  14.284
86994W        W48283  41.440   2.461  14.794
86995W        W48284  16.779  36.018   1.758
86996W        W48285  18.098  18.766   0.794
86997W        W48286  13.654  20.687  11.948
86998W        W48287  18.089   6.717  11.435
86999W        W48288  44.478  16.317  10.970
87000W        W48289  10.316  26.057  13.527
87001W        W48290  44.992  17.187  12.828
87002W        W48291   9.224  44.994  13.003
87003W        W48292   2.365   3.413  14.287
87004W        W48293  24.037  44.497  12.853
87005W        W48294  14.235  41.858   0.249
87006W        W48295  28.017   5.800   5.269
87007W        W48296   9.654  23.710   4.598
87008W        W48297  10.291  40.985  10.584
87009W        W48298  14.266   6.713  14.881
87010W        W48299  12.192  10.254   0.728
87011W        W48300  31.415  13.318   4.341
87012W        W48301  44.951  28.542   0.771
87013W        W48302  27.554  17.292  14.828
87014W        W48303  40.961  23.610  12.507
87015W        W48304  27.452  11.211   2.769
87016W        W48305   6.916  13.330  14.890
87017W        W48306   8.388   2.466  11.502
87018W        W48307   1.846  36.036  12.363
87019W        W48308   7.789  21.589  12.453
87020W        W48309   8.840  15.083   4.301
87021W        W48310   8.252   2.899   2.808
87022W        W48311  25.109   2.750   2.678
87023W        W48312   0.322   2.440   0.927
87024W        W48313  38.863  24.611  14.361
87025W        W48314   2.784  36.527   0.936
87026W        W48315  17.749  44.332   0.958
87027W        W48316  16.189  37.041  11.914
87028W        W48317   7.199  17.160   2.304
87029W        W48318  11.182  42.942  12.368
87030W        W48319  25.625  20.065   0.456
87031W        W48320  32.969  38.832  13.991
87032W        W48321  27.182   7.774  12.581
87033W        W48322  28.597  28.963  14.402
87034W        W48323   3.457   2.426   2.239
87035W        W48324  12.145  27.490   1.785
87036W        W48325  28.004  44.995  14.907
87037W        W48326  12.183  17.245   2.726
87038W        W48327  30.050  39.849  11.865
87039W        W48328  12.334  37.350   3.773
87040W        W48329   3.726  35.921  10.907
87041W        W48330  13.707   7.244  14.387
87042W        W48331  33.604  23.667  10.614
87043W        W48332  35.409  10.694  13.521
87044W        W48333  18.774  44.828   4.792
87045W        W48334  31.945   3.774  14.871
87046W        W48335   9.261  15.289   3.864
87047W        W48336  17.162  43.946   4.827
87048W        W48337  34.922  21.560   2.791
87049W        W48338  39.929   3.218  14.954
87050W        W48339   6.706   2.942   0.957
87051W        W48340  38.532  36.475  14.490
87052W        W48341  39.965  28.963   1.270
87053W        W48342   9.152  13.162   3.277
87054W        W48343  31.506  11.207   2.715
87055W        W48344  14.268   8.871  13.504
87056W        W48345  38.857  12.775  10.052
87057W        W48346  20.562   9.279  11.964
87058W        W48347  26.479  21.122  11.385
87059W        W48348  38.462  38.394   2.264
87060W        W48349   3.926   6.787  13.023
87061W        W48350  17.125   6.282  12.483
87062W        W48351  40.417   5.921  10.434
87063W        W48352  25.197   1.421  13.021
87064W        W48353  18.216  19.221   3.262
87065W        W48354  33.112   6.396   2.392
87066W        W48355  35.489  13.295  13.892
87067W        W48356  13.153  28.142   2.178
87068W        W48357  14.828  15.700   1.434
87069W        W48358  25.008  42.326   2.777
87070W        W48359   8.890  29.965  13.969
87071W        W48360   2.871  19.683  12.095
87072W        W48361  21.523   4.350   4.619
87073W        W48362   1.813  35.901  14.495
87074W        W48363  37.969  31.127  13.039
87075W        W48364  35.914   8.705  12.387
87076W        W48365  20.060  11.290  12.041
87077W        W48366   7.864   7.320  10.102
87078W        W48367  20.636  33.088  13.867
87079W        W48368   8.246  15.675   4.771
87080W        W48369  19.086  18.704   0.418
87081W        W48370  37.370  32.561  13.047
87082W        W48371  41.803  23.603   3.285
87083W        W48372   6.217  11.156  12.453
87084W        W48373   0.986  39.935  11.464
87085W        W48374  33.056  25.676  12.050
87086W        W48375  20.275  44.984  12.439
87087W        W48376  25.062  36.385  10.451
87088W        W48377  18.736  24.673   3.249
87089W        W48378  38.033  36.085   0.483
87090W        W48379  10.197  35.550   3.844
87091W        W48380  36.512  23.688   1.253
87092W        W48381  17.212   1.482  14.966
87093W        W48382  27.497  17.686  12.368
87094W        W48383  16.723  20.211  14.442
87095W        W48384   7.882  23.611   5.754
87096W        W48385   2.963  33.454   4.250
87097W        W48386  14.230   1.864   4.208
87098W        W48387  19.725  10.183   5.086
87099W        W48388  23.540  32.623  11.084
87100W        W48389  11.668   6.913   3.235
87101W        W48390   3.450  31.098   1.720
87102W        W48391  20.241   2.263   1.703
87103W        W48392  14.289  16.577   3.759
87104W        W48393  16.751   9.197  11.378
87105W        W48394   9.656  22.065   4.717
87106W        W48395  23.196  39.877   1.838
87107W        W48396  25.473   8.844  11.446
87108W        W48397   9.266  14.641   0.365
87109W        W48398  30.651  31.133   2.846
87110W        W48399  29.658  41.459  13.381
87111W        W48400   7.259  24.693   1.232
87112W        W48401  37.582  23.607   0.383
87113W        W48402  31.579  23.665   4.727
87114W        W48403  32.446  22.737   4.719
87115W        W48404  22.040  22.742   3.708
87116W        W48405   8.685  20.611  12.000
87117W        W48406  35.579  32.047  10.541
87118W        W48407  31.436  19.234   1.808
87119W        W48408  32.456  34.035   0.727
87120W        W48409   4.417  35.421  13.454
87121W        W48410  35.468  10.729   3.170
87122W        W48411  37.003  32.490  10.593
87123W        W48412  26.173   7.305   4.200
87124W        W48413   6.761  20.260  14.778
87125W        W48414  32.925  41.392  12.460
87126W        W48415  40.915  29.473  10.475
87127W        W48416  29.086   3.397   3.375
87128W        W48417  35.904  31.471   3.299
87129W        W48418  36.551  27.145   1.389
87130W        W48419  34.588   2.815  11.939
87131W        W48420  24.627  20.038   3.189
87132W        W48421  35.865   2.945  11.405
87133W        W48422  11.859  41.000   3.228
87134W        W48423  16.207  43.980   4.783
87135W        W48424   8.851  15.124  12.365
87136W        W48425  25.966  30.122   0.349
87137W        W48426   4.355   0.389   1.795
87138W        W48427  14.169  41.969   4.219
87139W        W48428  42.421  25.708   3.344
87140W        W48429  38.869  35.467   4.652
87141W        W48430  19.685  42.317   2.731
87142W        W48431   9.857  30.574   1.345
87143W        W48432  41.398  43.419  12.974
87144W        W48433  18.645  13.289  11.097
87145W        W48434  25.025   4.797  10.643
87146W        W48435  35.523  15.168   3.651
87147W        W48436   2.857   7.214   2.859
87148W        W48437  16.725  34.873  10.640
87149W        W48438   7.243  42.910   0.900
87150W        W48439  19.693  22.652   5.132
87151W        W48440  33.544  44.924   0.303
87152W        W48441   0.789  24.128  12.902
87153W        W48442  36.937  24.536  10.613
87154W        W48443  10.138  30.146   4.289
87155W        W48444  14.179  14.228   1.249
87156W        W48445  41.946  14.160  10.999
87157W        W48446  40.838  43.356  13.321
87158W        W48447  33.487  44.382   2.241
87159W        W48448  18.721  41.529  11.485
87160W        W48449   9.889  31.123  11.592
87161W        W48450   3.443   9.260  10.569
87162W        W48451   8.220  31.567  13.021
87163W        W48452  33.102  13.776   3.229
87164W        W48453   5.753  32.132   1.834
87165W        W48454  17.110  33.574   5.226
87166W        W48455  15.626  43.794   1.812
87167W        W48456  21.520  43.356  12.925
87168W        W48457  35.036   8.330  10.559
87169W        W48458  18.102   6.702   4.139
87170W        W48459   9.765  27.603  12.013
87171W        W48460  13.334  25.012   3.722
87172W        W48461   4.404  30.165  12.549
87173W        W48462  27.982  25.684  12.882
87174W        W48463  21.750   8.366  10.415
87175W        W48464   1.453  13.806   2.759
87176W        W48465   8.755  12.148  11.927
87177W        W48466  24.516  20.220   0.293
87178W        W48467   1.424  30.079   4.694
87179W        W48468  17.649   0.941  14.821
87180W        W48469  32.636  44.431   3.355
87181W        W48470  40.479   7.755   5.083
87182W        W48471  41.305  24.514   0.244
87183W        W48472  31.985   5.334   9.654
87184W        W48473  24.664  33.434   2.204
87185W        W48474  43.006  43.493   1.719
87186W        W48475  38.060  21.244   3.757
87187W        W48476  32.984   2.925   1.765
87188W        W48477  10.377   9.208   0.898
87189W        W48478  41.025  16.771   1.846
87190W        W48479  44.815   0.447  12.417
87191W        W48480  41.888  38.439  13.378
87192W        W48481  20.244  37.950  13.818
87193W        W48482  40.333   3.879  12.354
87194W        W48483  25.542  25.030   0.804
87195W        W48484  29.465  28.145  14.886
87196W        W48485  31.931  22.526  10.532
87197W        W48486  33.045   8.160   4.614
87198W        W48487  28.000  39.032  12.521
87199W        W48488   7.861  15.306   2.849
87200W        W48489  16.627   1.449   4.695
87201W        W48490  30.546  23.613  12.896
87202W        W48491  39.898  35.904   3.291
87203W        W48492   3.357   2.744  10.558
87204W        W48493  16.660   3.340  13.029
87205W        W48494  21.688  27.687   3.224
87206W        W48495  17.625   8.852   1.866
87207W        W48496  35.513  10.169  13.401
87208W        W48497  11.334  40.342  13.927
87209W        W48498  26.988  26.052   0.398
87210W        W48499   9.209  23.064  11.911
87211W        W48500  36.866  37.480  11.104
87212W        W48501  23.715  27.580   1.285
87213W        W48502  39.889  37.463   2.295
87214W        W48503   3.780   2.443  10.542
87215W        W48504  39.511   5.819   4.282
87216W        W48505   9.319  36.068   3.804
87217W        W48506   4.212  31.922   1.912
87218W        W48507  15.703  44.886  13.064
87219W        W48508  37.990   6.737   0.829
87220W        W48509  34.930  37.019   2.403
87221W        W48510  29.638  28.973   4.598
87222W        W48511   7.396  10.746   3.182
87223W        W48512  16.246   3.866   2.826
87224W        W48513  43.326  41.833  14.921
87225W        W48514  13.650   2.932   4.605
87226W        W48515   8.732  15.302   0.377
87227W        W48516  34.987  29.558   0.947
87228W        W48517  19.586  12.189  13.947
87229W        W48518  41.792  34.079   1.815
87230W        W48519  40.395  17.783   1.725
87231W        W48520  21.524  23.608  13.547
87232W        W48521   8.829  37.955  12.455
87233W        W48522  17.766  15.661   1.732
87234W        W48523   0.937   7.891  13.357
87235W        W48524  35.071  40.985   3.631
87236W        W48525   4.864   7.789  10.411
87237W        W48526  27.119  41.338  10.942
87238W        W48527  14.651  26.956   0.821
87239W        W48528   8.251   6.192  11.488
87240W        W48529  16.632  21.596  11.501
87241W        W48530  21.178  31.922   3.232
87242W        W48531  41.295  13.303   3.338
87243W        W48532  12.226  32.123   4.704
87244W        W48533   5.885  16.305  13.542
87245W        W48534  24.081  28.472  13.491
87246W        W48535  44.441  19.750   2.409
87247W        W48536  43.332  27.593  14.024
87248W        W48537  22.221  30.627   3.294
87249W        W48538   3.778  19.766  13.368
87250W        W48539  43.482  32.505  10.929
87251W        W48540  39.842  18.195   3.780
87252W        W48541  14.317  36.424  10.956
87253W        W48542  37.889  17.289   0.860
87254W        W48543  42.362  17.775   2.856
87255W        W48544   6.682   0.877  11.458
87256W        W48545  25.112  12.227   3.292
87257W        W48546  14.108  39.895  13.313
87258W        W48547  34.463  29.514   0.352
87259W        W48548  30.919  41.321  11.402
87260W        W48549  23.735  10.824   3.292
87261W        W48550  14.723  25.001   1.702
87262W        W48551  12.819  18.636   1.821
87263W        W48552  19.684  16.735  10.480
87264W        W48553  18.693  44.462  12.932
87265W        W48554  20.676  23.568   0.263
87266W        W48555  18.730   1.463  14.877
87267W        W48556  20.171   5.799  12.960
87268W        W48557  28.536  25.149  10.506
87269W        W48558  15.200  31.943  14.338
87270W        W48559  42.476  16.629   3.176
87271W        W48560  41.990  31.026   2.823
87272W        W48561  42.915   2.387  11.981
87273W        W48562   6.777  35.965  11.110
87274W        W48563  44.000  26.084   0.862
87275W        W48564  43.768   5.743  11.411
87276W        W48565  12.121  22.608   3.187
87277W        W48566  19.697  13.338   1.756
87278W        W48567  31.623  11.827  14.942
87279W        W48568   7.669   3.709   2.812
87280W        W48569  26.673  44.307   2.324
87281W        W48570  34.437  20.611  11.862
87282W        W48571  26.658  35.918  13.388
87283W        W48572  26.169  35.040  13.836
87284W        W48573  43.016  44.371  10.612
87285W        W48574  38.533  10.745   2.701
87286W        W48575  28.061  19.560  11.962
87287W        W48576   6.852  24.198   4.241
87288W        W48577  43.875  12.721  12.386
87289W        W48578  38.913  16.194   1.422
87290W        W48579   6.392   8.764  13.406
87291W        W48580  17.114  44.838   3.751
87292W        W48581  35.035  29.518   1.307
87293W        W48582  30.943  16.725  12.852
87294W        W48583   1.926  18.700  12.850
87295W        W48584  29.079  39.379  11.078
87296W        W48585  33.504  10.258   4.348
87297W        W48586  36.417  41.038  14.337
87298W        W48587   6.768  15.326  13.308
87299W        W48588   3.798  17.743  14.481
87300W        W48589   9.268  38.353   4.644
87301W        W48590  31.114   7.836   3.362
87302W        W48591  19.204  30.918   1.892
87303W        W48592  41.352  15.671   4.230
87304W        W48593  12.820   8.309  14.871
87305W        W48594  18.175  34.994  12.858
87306W        W48595  29.618  19.777  11.474
87307W        W48596  34.438  11.182  13.839
87308W        W48597   2.353   2.422  13.337
87309W        W48598  40.864  11.222  13.022
87310W        W48599  24.629  44.873  12.558
87311W        W48600  34.526  27.561  12.889
87312W        W48601  37.478  40.473   2.668
87313W        W48602   5.276  23.527   0.293
87314W        W48603  21.647  11.279   4.190
87315W        W48604  25.547  13.815   1.290
87316W        W48605  37.992  37.554   0.249
87317W        W48606   2.331  34.386   3.371
87318W        W48607  32.489  44.905  11.600
87319W        W48608  23.226  29.604  11.126
87320W        W48609  36.031  27.044  12.004
87321W        W48610  42.807  21.678  13.374
87322W        W48611  13.734   0.369   0.918
87323W        W48612  21.534  31.053   1.785
87324W        W48613  42.506  16.178   2.890
87325W        W48614  19.640  36.916  14.312
87326W        W48615   0.757  31.638  11.072
87327W        W48616  28.525  21.213   3.169
87328W        W48617  11.212   4.330   0.280
87329W        W48618  41.337  29.455   1.276
87330W        W48619  19.539  26.565   3.330
87331W        W48620   1.756  14.654  13.009
87332W        W48621  40.433  15.108  11.904
87333W        W48622  26.552   9.358   3.747
87334W        W48623  36.374  15.752   5.277
87335W        W48624  34.537   4.275   2.888
87336W        W48625  16.788  26.686   3.366
87337W        W48626  35.480  10.257   0.378
87338W        W48627  20.606   2.913   4.644
87339W        W48628  15.233  12.781  10.986
87340W        W48629  41.901  14.835  10.960
87341W        W48630  18.732   3.845   1.812
87342W        W48631  22.240  17.658   4.721
87343W        W48632  43.881  29.625  10.965
87344W        W48633  31.627  16.289  14.905
87345W        W48634  19.082  18.252  13.853
87346W        W48635  34.399  25.104  13.517
87347W        W48636  37.972  26.038  11.591
87348W        W48637  20.085  29.101   4.242
87349W        W48638   8.255  20.220  11.574
87350W        W48639   2.837  24.098  10.632
87351W        W48640  30.569  44.466  13.318
87352W        W48641  37.467  26.968  11.861
87353W        W48642  33.536  12.242  13.842
87354W        W48643  21.097  27.054   4.738
87355W        W48644  14.800  41.439  12.052
87356W        W48645  38.826   7.678  12.056
87357W        W48646  16.072  31.597   4.693
87358W        W48647  42.286  17.571  14.274
87359W        W48648  10.725   6.275   0.475
87360W        W48649  42.384  17.257   3.691
87361W        W48650  16.298  15.180  12.845
87362W        W48651  13.121   4.329   2.687
87363W        W48652   3.426  19.139   0.902
87364W        W48653  32.124  27.942   4.701
87365W        W48654   8.345  44.844   3.336
87366W        W48655  36.590  35.450  10.956
87367W        W48656  35.988  21.101   3.643
87368W        W48657  13.693  32.417   0.259
87369W        W48658  20.722  19.708   0.450
87370W        W48659   1.383   5.194   0.342
87371W        W48660   1.427   0.962   1.363
87372W        W48661  31.114  28.668   3.834
87373W        W48662  36.419   1.839   5.083
87374W        W48663   0.397   8.715  14.970
87375W        W48664  22.512   3.292   3.776
87376W        W48665  16.665  13.705   0.271
87377W        W48666  20.587  21.152   0.287
87378W        W48667  16.602  37.487   1.397
87379W        W48668  16.634  43.512   4.717
87380W        W48669  35.907  29.661  14.933
87381W        W48670  18.120   8.198  11.919
87382W        W48671   8.378  14.246   2.187
87383W        W48672   2.391  18.123  13.901
87384W        W48673  10.826  26.080   3.157
87385W        W48674  44.911  41.424  11.938
87386W        W48675   3.873  35.426  13.858
87387W        W48676  29.606  44.447   2.759
87388W        W48677  39.060   9.669   1.879
87389W        W48678  32.446  38.344  14.994
87390W        W48679  41.992  42.022   2.705
87391W        W48680  44.960  30.086   1.322
87392W        W48681  19.178  33.904  12.523
87393W        W48682  28.100  32.969   3.157
87394W        W48683  42.021  41.863  11.430
87395W        W48684  44.828  23.637  11.930
87396W        W48685  26.025  26.478  11.032
87397W        W48686  41.796  10.865   4.203
87398W        W48687  36.005   7.398  13.811
87399W        W48688  32.587  32.054   3.782
87400W        W48689  35.549  40.810  11.438
87401W        W48690  39.889  41.408  14.406
87402W        W48691  18.214  25.630  12.906
87403W        W48692   7.695   1.331   3.655
87404W        W48693   4.249   4.707  13.820
87405W        W48694  40.331  37.416   1.263
87406W        W48695  21.020   3.377   4.624
87407W        W48696  33.982  37.576   1.244
87408W        W48697  41.798  24.581  10.536
87409W        W48698   4.769  30.079   4.799
87410W        W48699   0.394  39.914  12.088
87411W        W48700  10.827  13.151  12.362
87412W        W48701  40.007  42.821   0.471
87413W        W48702  13.778  30.428   0.299
87414W        W48703  42.900   1.766   0.727
87415W        W48704  17.778  27.501  10.551
87416W        W48705  23.565  13.225   2.211
87417W        W48706   7.903  25.641   5.145
87418W        W48707   4.788  44.960  14.945
87419W        W48708  18.066   0.253   3.829
87420W        W48709  40.519   5.287   4.305
87421W        W48710   7.395  10.331  13.965
87422W        W48711  27.044  35.450   1.806
87423W        W48712   4.866  29.986   1.777
87424W        W48713  35.403  40.395  12.480
87425W        W48714  39.843  10.713  14.981
87426W        W48715   1.303  13.642  13.940
87427W        W48716  23.714   9.320  14.357
87428W        W48717   2.890  33.556  13.522
87429W        W48718  41.511  15.116   4.326
87430W        W48719  27.012  35.009  14.885
87431W        W48720   4.306  26.199  11.603
87432W        W48721  40.469  41.405  11.409
87433W        W48722  41.488  37.046  13.826
87434W        W48723  12.223  31.047  14.358
87435W        W48724   8.283  32.511  11.507
87436W        W48725   0.972  11.683   1.307
87437W        W48726   3.935  41.477   1.223
87438W        W48727  11.862  34.920  13.042
87439W        W48728   5.847  11.328   4.762
87440W        W48729   0.875  22.689  13.437
87441W        W48730  25.187   1.761   2.237
87442W        W48731   3.732  15.785   2.371
87443W        W48732   6.867  37.548   1.919
87444W        W48733  18.635  38.535  14.803
87445W        W48734  41.505   5.363  11.504
87446W        W48735   2.815  43.811  14.404
87447W        W48736  33.895  27.053  14.300
87448W        W48737  10.723  42.797  12.977
87449W        W48738  42.345  15.295  13.883
87450W        W48739   8.269  12.650   4.765
87451W        W48740  44.467  21.598   1.714
87452W        W48741  16.615  31.955  12.403
87453W        W48742   8.722   8.226   3.640
87454W        W48743   4.285  41.362   2.196
87455W        W48744  18.212  16.139   2.861
87456W        W48745  39.322   9.193  13.871
87457W        W48746  13.180  39.471  11.998
87458W        W48747  16.710  17.229  12.942
87459W        W48748  23.189  32.076  11.544
87460W        W48749   7.898  37.014   0.836
87461W        W48750   0.748   2.421  12.063
87462W        W48751  39.406  18.622   3.796
87463W        W48752  39.865  20.083  11.008
87464W        W48753  43.924  10.816   2.312
87465W        W48754  23.188  14.727  11.000
87466W        W48755  14.233  27.014   3.787
87467W        W48756  29.099  32.432  13.040
87468W        W48757  11.773  24.131   0.776
87469W        W48758  43.809   6.732  11.503
87470W        W48759  29.114  36.455  14.801
87471W        W48760  12.830   0.799   3.757
87472W        W48761  32.123  22.028  10.949
87473W        W48762  15.643  24.134   5.139
87474W        W48763  37.540   7.365   1.333
87475W        W48764  10.257  24.089   3.843
87476W        W48765  11.190   5.409  13.920
87477W        W48766  26.132  15.806   0.885
87478W        W48767  22.052  20.561   3.237
87479W        W48768  11.293  17.779  10.405
87480W        W48769  31.538  17.217  12.528
87481W        W48770  30.532  13.724  13.886
87482W        W48771  21.229   9.271  13.490
87483W        W48772  42.464  25.068  10.934
87484W        W48773  38.411   9.336   1.872
87485W        W48774  44.947   2.892   1.370
87486W        W48775  31.901   6.309  14.900
87487W        W48776   7.780  35.045  11.448
87488W        W48777  14.594   7.306  11.382
87489W        W48778  12.334   1.260  13.032
87490W        W48779  37.526  44.806  11.035
87491W        W48780  22.022  37.960  12.450
87492W        W48781   4.921  25.160  11.539
87493W        W48782   4.730  40.417   4.336
87494W        W48783  13.792  15.134   4.224
87495W        W48784  37.374  26.976   3.774
87496W        W48785  19.756  10.377  12.532
87497W        W48786  31.436  28.087   3.383
87498W        W48787  14.733  39.553   4.650
87499W        W48788  35.545   0.880   4.297
87500W        W48789  33.088  12.797   3.676
87501W        W48790  18.753  29.437  11.543
87502W        W48791  27.190  22.602  11.884
87503W        W48792  23.234  14.607   3.377
87504W        W48793   8.300  11.148   3.828
87505W        W48794  12.710  24.059   3.846
87506W        W48795  19.664  44.458   1.315
87507W        W48796  24.056   6.766   1.887
87508W        W48797  30.970  12.251   0.321
87509W        W48798  15.268  44.347  14.354
87510W        W48799  23.678   9.708  13.995
87511W        W48800  13.176  31.499  11.404
87512W        W48801   8.206  19.748  14.999
87513W        W48802  11.320  27.068   1.308
87514W        W48803  13.653  28.950   2.361
87515W        W48804  26.990  27.143   4.127
87516W        W48805  16.267  19.207  11.466
87517W        W48806  13.210  26.136  12.958
87518W        W48807  44.913  21.205   1.895
87519W        W48808   5.825  31.450  12.931
87520W        W48809  25.477  37.390   2.216
87521W        W48810  20.650   2.455   4.193
87522W        W48811  26.700  22.082  14.293
87523W        W48812  31.510   9.378   1.266
87524W        W48813  29.977   5.766   2.252
87525W        W48814   9.722   6.211  14.935
87526W        W48815  12.178   0.437   0.471
87527W        W48816  18.143  29.133   2.305
87528W        W48817  22.093  37.025  14.015
87529W        W48818  23.206  17.575   2.221
87530W        W48819   9.194  40.846  13.831
87531W        W48820  41.368   2.800  13.060
87532W        W48821  16.314   4.757   0.310
87533W        W48822  19.231  17.180   1.213
87534W        W48823  34.961  44.437   2.243
87535W        W48824  13.741  38.414   4.738
87536W        W48825  26.629  13.237  11.506
87537W        W48826  30.966  39.868   4.172
87538W        W48827  25.476  43.928   3.741
87539W        W48828   0.895   9.708  11.869
87540W        W48829  17.781   5.820  14.470
87541W        W48830  10.224  36.945  14.009
87542W        W48831  33.615   5.270  14.794
87543W        W48832  10.195  40.044  11.537
87544W        W48833  28.519  42.999  12.081
87545W        W48834  41.904  12.200  10.504
87546W        W48835   7.293  30.082   1.767
87547W        W48836  29.947  13.245  12.074
87548W        W48837  43.766  15.189  14.799
87549W        W48838  32.581  18.248   1.438
87550W        W48839  25.074  18.075   4.304
87551W        W48840  32.476  13.743   4.168
87552W        W48841  44.968   9.769   3.862
87553W        W48842  19.683  33.481  10.979
87554W        W48843  23.068  37.041   4.654
87555W        W48844  16.567   4.757  13.835
87556W        W48845  32.609   5.742   3.305
87557W        W48846  43.009  38.330  11.465
87558W        W48847  40.477   5.892  14.798
87559W        W48848  25.144  18.096  10.525
87560W        W48849  12.318  15.244  11.445
87561W        W48850  18.732  16.249   3.823
87562W        W48851  15.769  32.947   0.313
87563W        W48852  43.448  26.056   3.658
87564W        W48853  27.053  17.593  14.477
87565W        W48854  27.007   1.950   5.221
87566W        W48855   5.325  19.140  10.639
87567W        W48856  28.615  26.620   3.855
87568W        W48857  17.742   5.271   4.229
87569W        W48858  41.954  18.157   0.904
87570W        W48859   5.304  43.823   0.378
87571W        W48860  15.208  37.427   1.778
87572W        W48861  33.928   0.866   0.373
87573W        W48862   0.344   6.233   0.381
87574W        W48863  32.441  29.666   1.415
87575W        W48864   2.367   6.287   4.837
87576W        W48865  34.425  35.048   0.383
87577W        W48866  24.674   7.271   0.924
87578W        W48867  13.190  33.891   1.254
87579W        W48868  17.270  39.468  11.897
87580W        W48869  10.878   2.819   4.299
87581W        W48870  43.888  23.588  11.458
87582W        W48871  35.422  32.469  14.372
87583W        W48872   7.774  38.378   0.781
87584W        W48873  20.712   4.736  12.512
87585W        W48874  31.068   3.914  13.534
87586W        W48875  12.233  42.926   2.802
87587W        W48876  38.415  21.649  11.929
87588W        W48877   3.943  17.216   2.722
87589W        W48878  29.022  31.484  13.537
87590W        W48879  38.989  44.361  12.989
87591W        W48880   4.861  32.631  13.523
87592W        W48881  15.814  17.623   1.746
87593W        W48882  29.165  25.106  11.909
87594W        W48883  14.633  15.784  14.451
87595W        W48884  37.981   2.942  10.555
87596W        W48885  38.409  24.983   0.404
87597W        W48886  16.275  43.960   0.302
87598W        W48887   7.220  38.076   2.741
87599W        W48888  44.814  19.650   2.333
87600W        W48889  17.294  31.953  13.928
87601W        W48890   0.485  18.056  10.558
87602W        W48891  17.769  42.784  13.862
87603W        W48892  11.638  39.378  12.908
87604W        W48893  15.102   5.893  10.967
87605W        W48894  21.707  12.179  11.062
87606W        W48895   6.795  21.750   1.295
87607W        W48896  14.784  12.845  14.801
87608W        W48897   0.410   2.838   0.277
87609W        W48898  15.184  19.722   0.409
87610W        W48899  32.983  33.926  11.124
87611W        W48900  19.040  30.916   3.750
87612W        W48901  10.197  23.669   0.467
87613W        W48902   5.852   7.874  11.060
87614W        W48903  32.497  11.368  12.484
87615W        W48904  37.874   3.303  14.434
87616W        W48905  23.001  39.331   2.702
87617W        W48906   3.938  27.452   2.323
87618W        W48907  35.854  10.638   3.766
87619W        W48908   8.230  23.575   2.337
87620W        W48909  21.055  12.745   4.259
87621W        W48910  28.560   3.843   2.226
87622W        W48911   7.265  32.978   0.345
87623W        W48912  26.617  23.109  10.435
87624W        W48913  19.564   2.244   3.166
87625W        W48914  37.384   1.338  13.003
87626W        W48915  15.748  25.518  13.419
87627W        W48916  13.229  43.390   3.228
87628W        W48917  41.890  27.462   2.698
87629W        W48918  21.240  43.516   1.865
87630W        W48919  17.573  37.464  14.482
87631W        W48920   4.442  18.203   0.773
87632W        W48921  27.477   6.317   0.903
87633W        W48922  42.329  42.352  12.077
87634W        W48923   6.343   1.313  13.445
87635W        W48924  42.988  35.363   1.928
87636W        W48925  27.169  24.015   2.700
87637W        W48926  10.223  10.383   2.388
87638W        W48927  38.020   1.969  12.554
87639W        W48928  18.703  38.537  13.457
87640W        W48929  13.310  37.370  14.900
87641W        W48930  16.681  44.877   1.245
87642W        W48931  16.314   3.273  14.847
87643W        W48932   1.328  14.612   1.343
87644W        W48933   4.416  20.112   1.816
87645W        W48934  29.951  31.461   2.268
87646W        W48935  29.522  40.976  12.946
87647W        W48936   5.212  30.139   1.832
87648W        W48937   0.264  33.996  12.526
87649W        W48938  22.206  44.344  12.047
87650W        W48939  34.570  37.037   3.798
87651W        W48940  32.893   0.932   1.741
87652W        W48941  21.140  37.363  12.347
87653W        W48942  36.495   0.905   1.211
87654W        W48943   9.841  18.179   4.833
87655W        W48944  44.762  31.903   4.666
87656W        W48945  26.198  28.028   3.763
87657W        W48946   7.725   7.866   1.807
87658W        W48947  23.657   7.684  12.499
87659W        W48948  18.112  28.081   0.460
87660W        W48949  10.722   7.318  12.040
87661W        W48950   9.173  44.819   3.256
87662W        W48951  34.372  24.051  10.418
87663W        W48952   7.758  21.019   4.803
87664W        W48953  15.260  37.369  13.977
87665W        W48954   2.777  26.574   3.805
87666W        W48955  18.207  17.563  12.836
87667W        W48956   1.892  10.693   1.923
87668W        W48957  33.111   5.329  11.939
87669W        W48958   4.740  39.815   4.252
87670W        W48959   4.396  16.245  12.088
87671W        W48960   0.814  39.942   1.839
87672W        W48961  44.364  41.302  12.381
87673W        W48962  31.148  36.383   0.473
87674W        W48963   0.278   4.842  12.890
87675W        W48964   0.405   1.745   4.125
87676W        W48965  16.589  42.527  11.864
87677W        W48966  44.761  24.226   1.352
87678W        W48967   1.825   8.263  14.778
87679W        W48968  35.923  24.083   2.695
87680W        W48969  26.522  36.039   0.857
87681W        W48970  12.803  17.687   3.190
87682W        W48971  37.457  27.174  13.793
87683W        W48972   0.863  20.142   0.291
87684W        W48973  37.047  23.523  12.093
87685W        W48974  31.442  25.198  14.891
87686W        W48975  39.406   9.246   3.293
87687W        W48976  14.206   5.279   1.363
87688W        W48977  21.520  27.979   3.776
87689W        W48978  28.627  41.417  13.446
87690W        W48979  35.888  18.095  11.066
87691W        W48980  21.630   9.664  12.558
87692W        W48981   5.756   3.874   3.650
87693W        W48982  16.688  15.240   0.306
87694W        W48983  42.340  39.419   3.727
87695W        W48984  16.754  10.299  13.977
87696W        W48985  18.164   0.782  11.476
87697W        W48986  14.294  37.968  13.475
87698W        W48987   1.849  43.464   4.139
87699W        W48988  28.003  36.881   0.924
87700W        W48989  44.831  20.106   2.363
87701W        W48990   5.899   1.294  14.864
87702W        W48991  20.644  21.211  11.866
87703W        W48992   9.369  39.004   0.867
87704W        W48993  22.616  25.979   0.446
87705W        W48994  43.446   6.413   4.334
87706W        W48995  40.482  20.091   1.871
87707W        W48996   7.772  18.670   0.398
87708W        W48997  18.605   4.888   0.794
87709W        W48998   9.250  27.004  12.950
87710W        W48999  12.658  30.659  12.349
87711W        W49000  11.209   5.934  11.441
87712W        W49001  22.044   4.358   4.324
87713W        W49002  26.693  25.487   2.378
87714W        W49003  40.477  13.297  14.859
87715W        W49004  10.169  18.674   1.726
87716W        W49005  37.568  34.947   4.773
87717W        W49006   7.339  19.698   0.866
87718W        W49007   9.888  36.992  13.312
87719W        W49008  16.719  11.624   2.265
87720W        W49009  35.418  30.000   4.287
87721W        W49010  12.229  31.421   4.652
87722W        W49011  12.230   8.792  13.353
87723W        W49012   2.865  30.023  11.463
87724W        W49013  15.304  40.026   3.734
87725W        W49014  17.600  39.056   0.912
87726W        W49015   7.338  12.199  10.904
87727W        W49016  38.987   3.802   0.826
87728W        W49017  42.456  36.402  10.961
87729W        W49018   3.225   4.851  12.580
87730W        W49019  23.637  38.513   1.276
87731W        W49020  28.676  14.612  12.343
87732W        W49021   7.343   0.256   0.953
87733W        W49022  24.022   8.248   2.807
87734W        W49023  40.509   4.451   0.744
87735W        W49024  36.465  40.455  14.974
87736W        W49025   3.419  22.620  13.035
87737W        W49026  13.336   0.342  12.975
87738W        W49027  10.205  33.006   2.244
87739W        W49028   1.426  34.906  11.922
87740W        W49029   7.414  44.361  11.107
87741W        W49030   3.398  20.126  14.373
87742W        W49031  38.934  28.073  13.468
87743W        W49032  37.036  37.521  14.003
87744W        W49033   7.213  12.823   3.187
87745W        W49034  27.150  11.282   4.256
87746W        W49035   0.352  22.662  10.958
87747W        W49036  10.720  42.325   1.770
87748W        W49037  23.050  20.201   0.246
87749W        W49038  36.017   1.816  13.814
87750W        W49039  21.217  26.586  10.416
87751W        W49040  43.889  42.973   1.244
87752W        W49041  23.566  40.336   0.796
87753W        W49042  11.681  12.202  13.010
87754W        W49043  44.319  34.563   4.817
87755W        W49044  23.009  20.061  13.504
87756W        W49045  43.774  29.166  12.378
87757W        W49046  37.541  12.843   2.724
87758W        W49047  13.613  38.447   3.350
87759W        W49048  19.101  40.869   1.224
87760W        W49049  16.083  14.199  11.107
87761W        W49050  43.396   3.451  12.899
87762W        W49051  44.908  23.530   0.790
87763W        W49052  37.867  41.024   4.611
87764W        W49053  36.496  40.862   1.706
87765W        W49054   8.233  39.533   0.317
87766W        W49055  33.550  25.096   3.377
87767W        W49056   9.377  14.730   2.207
87768W        W49057  12.636  16.073   4.790
87769W        W49058  21.752  33.903   1.380
87770W        W49059  20.702  33.617   1.259
87771W        W49060  27.954   1.476   4.805
87772W        W49061  28.149  31.531   3.196
87773W        W49062  36.904  13.248   3.675
87774W        W49063  41.297  20.745   2.279
87775W        W49064  41.493  17.629  12.448
87776W        W49065  40.527  12.713  13.448
87777W        W49066  29.009  41.822   3.339
87778W        W49067  21.237   0.325  12.900
87779W        W49068   4.817  38.474  12.900
87780W        W49069   9.182  39.390  12.846
87781W        W49070   3.909   9.287   2.764
87782W        W49071  13.124  31.447   1.813
87783W        W49072  44.769  34.036  12.924
87784W        W49073  27.946  23.127   0.904
87785W        W49074   4.417  14.628  13.941
87786W        W49075   6.762  11.143  10.521
87787W        W49076   2.429  38.959   1.267
87788W        W49077   7.710  10.222   9.930
87789W        W49078  35.449   0.265   4.767
87790W        W49079  43.910  20.191   3.691
87791W        W49080  10.338  42.964   1.795
87792W        W49081  22.108  25.150  13.488
87793W        W49082  29.666   9.180  10.890
87794W        W49083  13.801  33.429  10.905
87795W        W49084  22.689  32.024   1.402
87796W        W49085  21.603   5.800  13.019
87797W        W49086   3.266  38.417   3.245
87798W        W49087  34.872  15.792   3.769
87799W        W49088  31.580   8.291   0.900
87800W        W49089  23.629  17.155  12.973
87801W        W49090  42.400   1.856  13.963
87802W        W49091  10.211   6.827  11.498
87803W        W49092  12.220  23.713  10.404
87804W        W49093  40.359   3.765   1.246
87805W        W49094  42.945   1.268   1.731
87806W        W49095  26.201   8.307   2.754
87807W        W49096  10.875  20.198   0.409
87808W        W49097   5.796  38.515  11.411
87809W        W49098   3.710  23.681   2.693
87810W        W49099  34.508  31.502   1.746
87811W        W49100  21.595   6.231  11.602
87812W        W49101  40.350  32.917   4.309
87813W        W49102  13.662  15.586  12.023
87814W        W49103   7.234   5.202   3.210
87815W        W49104  43.477  21.245   3.326
87816W        W49105  28.534  33.445  10.587
87817W        W49106  40.941  23.645  14.012
87818W        W49107  31.618  40.486   3.201
87819W        W49108  12.255  12.830  14.818
87820W        W49109  39.376   2.774   1.863
87821W        W49110   0.952  39.979   3.148
87822W        W49111  30.602   6.882  12.038
87823W        W49112  22.033  25.148  10.643
87824W        W49113  28.026  22.236  12.958
87825W        W49114  33.056   3.269  11.895
87826W        W49115  10.632  24.136   2.844
87827W        W49116  20.235  35.957  13.350
87828W        W49117  21.186  37.342  11.571
87829W        W49118  17.096  34.100   4.250
87830W        W49119   3.248  39.353  10.481
87831W        W49120  21.111  18.219   2.214
87832W        W49121  13.807  27.592   0.333
87833W        W49122  21.712   9.859   1.931
87834W        W49123  33.626  29.635  11.471
87835W        W49124  22.629  37.445  13.427
87836W        W49125   2.305  22.220  10.472
87837W        W49126   6.766   2.462   1.299
87838W        W49127   9.269  14.284  14.311
87839W        W49128  20.615  19.606  11.596
87840W        W49129   2.369  36.562   4.261
87841W        W49130  23.589  27.099  10.466
87842W        W49131   8.355  23.079  11.938
87843W        W49132  21.651  42.481  11.583
87844W        W49133  26.656  15.114  11.947
87845W        W49134  20.119  34.876   0.862
87846W        W49135  43.855  24.557  12.572
87847W        W49136   7.766  21.170  11.444
87848W        W49137  17.196  17.191   5.126
87849W        W49138   5.861  22.116  14.470
87850W        W49139  10.342  25.045   3.722
87851W        W49140  34.910   2.283   0.340
87852W        W49141  15.228   0.291   2.221
87853W        W49142  42.847  11.168   3.299
87854W        W49143  41.488  41.479   2.750
87855W        W49144  16.156  37.540  14.796
87856W        W49145   3.800  14.154  10.471
87857W        W49146  35.574   5.767  13.539
87858W        W49147   9.783  25.097  10.012
87859W        W49148  31.481  23.617   3.293
87860W        W49149  38.476  44.292   4.346
87861W        W49150  23.668   7.860   0.358
87862W        W49151  35.475   4.253   1.815
87863W        W49152  39.515   7.894  11.000
87864W        W49153   2.788  43.939  11.420
87865W        W49154  17.063  44.909   3.364
87866W        W49155  39.457   4.356   2.268
87867W        W49156  20.178  18.652   4.160
87868W        W49157  22.166  44.890  10.450
87869W        W49158  35.884  34.076  14.423
87870W        W49159  43.485  21.037  13.905
87871W        W49160   1.290  16.590  11.978
87872W        W49161  41.506   8.713  12.384
87873W        W49162  38.559   9.371   2.791
87874W        W49163   2.903  39.974   3.215
87875W        W49164  39.841  35.403   2.288
87876W        W49165  42.853   6.902   5.128
87877W        W49166  42.827  42.453   9.964
87878W        W49167   5.879  14.119   0.263
87879W        W49168  29.143  28.573   4.695
87880W        W49169  34.613  42.935  14.428
87881W        W49170  18.120  24.670  12.430
87882W        W49171   9.777  28.556  13.343
87883W        W49172  37.858  44.933   3.848
87884W        W49173  44.469  32.635  12.020
87885W        W49174  37.980  40.460   0.947
87886W        W49175   2.394  20.128   2.335
87887W        W49176  27.505  24.585  10.505
87888W        W49177  42.482  28.507  11.962
87889W        W49178   0.411   6.302  11.885
87890W        W49179   1.350  12.719   0.431
87891W        W49180   6.780  14.177  10.504
87892W        W49181  14.185   2.271   4.324
87893W        W49182  12.211   8.676   3.682
87894W        W49183  11.814   9.344  12.993
87895W        W49184   9.370  33.918   0.245
87896W        W49185   5.194  41.363   2.178
87897W        W49186   4.419  28.655  13.432
87898W        W49187   1.455  25.218  14.908
87899W        W49188   6.680  14.256   0.348
87900W        W49189   5.808   0.941  14.869
87901W        W49190   3.837  10.811  14.290
87902W        W49191   9.178  44.933  12.525
87903W        W49192  20.107  37.965   3.161
87904W        W49193   3.399  41.306   0.809
87905W        W49194  37.357  30.986   1.381
87906W        W49195  42.925   0.279  13.905
87907W        W49196  34.537  26.065  14.969
87908W        W49197  41.412  29.923   2.806
87909W        W49198  18.594  17.066  14.852
87910W        W49199  28.529  29.488   0.771
87911W        W49200  44.830   0.984  11.556
87912W        W49201   4.939  38.935   4.665
87913W        W49202  12.194   6.207   2.346
87914W        W49203  22.145  29.034   2.818
87915W        W49204  27.537  35.547   0.802
87916W        W49205   5.201  21.660   1.928
87917W        W49206   8.251  10.865   4.191
87918W        W49207  37.832  33.988  13.024
87919W        W49208  14.734  20.031  12.489
87920W        W49209  19.678  36.384   5.088
87921W        W49210  40.390   8.821   4.121
87922W        W49211  39.486  10.372   4.240
87923W        W49212  16.120  13.351   4.143
87924W        W49213  18.125  39.336   4.127
87925W        W49214  33.598  36.388   3.681
87926W        W49215  26.071  33.106  13.529
87927W        W49216  36.887  29.579   0.454
87928W        W49217   6.898   9.661  11.107
87929W        W49218  31.617   3.778   2.804
87930W        W49219  24.615   1.792  14.346
87931W        W49220  42.526  11.680   1.290
87932W        W49221  25.694  12.819   4.651
87933W        W49222  40.858  20.741  14.432
87934W        W49223  11.705   7.766  12.091
87935W        W49224   9.821  17.215   2.371
87936W        W49225  31.033   3.867  12.478
87937W        W49226  28.440  36.057  10.616
87938W        W49227  15.132   8.182  13.343
87939W        W49228  26.174  12.723   0.384
87940W        W49229  11.778   2.271   5.239
87941W        W49230  34.113  35.945   3.680
87942W        W49231  16.291  41.873   1.423
87943W        W49232   5.318  17.687   4.197
87944W        W49233  33.118  12.696   1.745
87945W        W49234  10.223  16.186  13.913
87946W        W49235  10.694  13.627  11.951
87947W        W49236  16.675   7.835   4.241
87948W        W49237  33.527   1.290  13.432
87949W        W49238  12.227  41.367   0.269
87950W        W49239  27.184   4.430  11.483
87951W        W49240  15.610  28.953  12.549
87952W        W49241   0.425  39.901   3.302
87953W        W49242  18.699  39.548   3.288
87954W        W49243  33.606   1.821   4.774
87955W        W49244  28.091  31.115   0.259
87956W        W49245  40.048  31.512  12.404
87957W        W49246   2.439  11.226  11.585
87958W        W49247  41.413  33.604   1.347
87959W        W49248   8.850  43.404   2.686
87960W        W49249  34.496  11.805  13.964
87961W        W49250  37.062  18.588   3.158
87962W        W49251   1.459  15.776  11.394
87963W        W49252  11.729   6.773  10.435
87964W        W49253  17.294  29.450   0.370
87965W        W49254   9.308  22.668   1.694
87966W        W49255  22.176   4.445  10.913
87967W        W49256  41.461  11.138   2.767
87968W        W49257  36.896  16.251   4.162
87969W        W49258  22.174  25.587  11.070
87970W        W49259  13.602  24.608  11.098
87971W        W49260  24.178  34.910   4.352
87972W        W49261  19.076  34.896   0.401
87973W        W49262  13.325  43.808   0.423
87974W        W49263  31.441  11.754  10.615
87975W        W49264  23.221  28.982   3.219
87976W        W49265  17.270  21.600   1.231
87977W        W49266   5.228  19.092   4.347
87978W        W49267  34.005  13.260   0.412
87979W        W49268   3.745  25.968  11.909
87980W        W49269  27.649  18.658  12.425
87981W        W49270  42.369  11.175  10.439
87982W        W49271   1.966  29.138   1.321
87983W        W49272  17.307  43.797   2.205
87984W        W49273  39.031  30.062   3.762
87985W        W49274  10.798  43.963   4.735
87986W        W49275  23.506   7.198   2.853
87987W        W49276  11.273  16.261   1.338
87988W        W49277  13.242   1.847  11.591
87989W        W49278  18.591  13.631  13.454
87990W        W49279  21.246  30.564  14.317
87991W        W49280  38.546  30.497  11.029
87992W        W49281  37.439  14.726  12.526
87993W        W49282   9.268  21.171   2.208
87994W        W49283  20.214  38.546  13.532
87995W        W49284  22.569  10.313   3.250
87996W        W49285   3.305   2.920   3.245
87997W        W49286  21.086  26.647  10.123
87998W        W49287  41.845  16.218   4.781
87999W        W49288   9.354  28.959   3.357
88000W        W49289  23.660  43.803  12.365
88001W        W49290  41.306  32.929   3.156
88002W        W49291  13.776  34.994   4.170
88003W        W49292  30.164  40.967  12.047
88004W        W49293  12.818   3.370   9.495
88005W        W49294  40.866   4.390   4.642
88006W        W49295  12.713  36.403  10.563
88007W        W49296  38.369  44.424   0.842
88008W        W49297  35.916  11.826   5.268
88009W        W49298  41.842  25.615  14.841
88010W        W49299  26.984  13.206  10.570
88011W        W49300  42.788  41.944  12.556
88012W        W49301  40.502   6.809  12.919
88013W        W49302  34.477  36.025  12.916
88014W        W49303  34.021  10.348  13.041
88015W        W49304   2.315  21.614  11.413
88016W        W49305   3.913   4.373  12.360
88017W        W49306  44.923  11.228  12.888
88018W        W49307   8.231  32.536   1.895
88019W        W49308   8.820  38.870  14.399
88020W        W49309   6.802   7.299  12.083
88021W        W49310  28.155  27.944  14.469
88022W        W49311   0.764  26.045  12.902
88023W        W49312  28.994   0.339  11.925
88024W        W49313  41.034  39.416   0.346
88025W        W49314  16.147   3.235   3.681
88026W        W49315  24.700  44.810  12.872
88027W        W49316  25.993  29.949  13.498
88028W        W49317  44.403   2.872   1.703
88029W        W49318  10.257  18.092  13.519
88030W        W49319  22.504  38.336  12.009
88031W        W49320  36.043  29.115  12.500
88032W        W49321  19.553  33.501   4.295
88033W        W49322  34.069   7.213  13.890
88034W        W49323  11.698  26.019   4.709
88035W        W49324  11.239  43.336  12.991
88036W        W49325  34.976   2.430   4.189
88037W        W49326  31.907  14.254  14.970
88038W        W49327  40.323  18.770  14.463
88039W        W49328  16.620  20.173   4.643
88040W        W49329  28.969  17.191  11.470
88041W        W49330   9.863  26.994  12.959
88042W        W49331  19.579  13.198  11.897
88043W        W49332  34.466  22.054   2.842
88044W        W49333  22.628   7.787   3.660
88045W        W49334  15.669  21.055  14.955
88046W        W49335  36.855  16.683  12.342
88047W        W49336  22.579  14.164  10.546
88048W        W49337   4.842  39.928  14.819
88049W        W49338  13.335  35.579  13.340
88050W        W49339   9.351  13.223   2.264
88051W        W49340  41.845   4.833  12.498
88052W        W49341  15.228  10.668  12.923
88053W        W49342   5.351   4.820   4.146
88054W        W49343  32.004  24.523  13.419
88055W        W49344  37.055   1.314  12.459
88056W        W49345  43.884  14.680   2.337
88057W        W49346  17.291  20.192  12.073
88058W        W49347  27.178  18.212  12.936
88059W        W49348  31.450   0.848  13.336
88060W        W49349  15.194  27.501  13.001
88061W        W49350  35.580  35.529  12.515
88062W        W49351  44.463   1.793   3.854
88063W        W49352   3.890  15.620   0.896
88064W        W49353  20.523  21.617   3.644
88065W        W49354  25.070   9.723   4.815
88066W        W49355  14.690  42.863   5.259
88067W        W49356  41.022  25.709   3.763
88068W        W49357  32.925   9.645   1.388
88069W        W49358  14.663  34.533   5.629
88070W        W49359  11.761   1.901   4.295
88071W        W49360   5.755  12.220  10.924
88072W        W49361  31.410   9.341  12.934
88073W        W49362  10.233  13.706   4.624
88074W        W49363  41.406  24.095  12.859
88075W        W49364  16.102   8.839   2.399
88076W        W49365  24.667   3.949   3.164
88077W        W49366  34.571  40.463   2.676
88078W        W49367   6.389  28.630   0.945
88079W        W49368  33.968   3.824  11.046
88080W        W49369  16.265  19.554  11.871
88081W        W49370   1.238   9.764  13.524
88082W        W49371  26.059  34.403  13.372
88083W        W49372   9.673  10.860   1.726
88084W        W49373  30.502  31.033   3.176
88085W        W49374   7.172  43.973   3.282
88086W        W49375  41.924   2.919  11.118
88087W        W49376   4.840   0.489  10.607
88088W        W49377  14.250  23.220  12.473
88089W        W49378  37.017  32.027   3.299
88090W        W49379  38.383  42.281   0.750
88091W        W49380  30.466   5.845  13.036
88092W        W49381  11.775   5.357  13.502
88093W        W49382  42.888  20.031   5.186
88094W        W49383  35.438  13.110   2.254
88095W        W49384   6.765  36.432  14.919
88096W        W49385  34.589   1.913   0.398
88097W        W49386  43.400   5.891   4.200
88098W        W49387  44.402  18.728   3.786
88099W        W49388   2.351   8.206   3.227
88100W        W49389   4.322  44.009   2.882
88101W        W49390  20.654  30.504   4.169
88102W        W49391   0.773   1.866  12.578
88103W        W49392  20.274  39.835   3.153
88104W        W49393  32.491  18.691   0.319
88105W        W49394  17.296   9.191  14.511
88106W        W49395  24.583   8.737  13.869
88107W        W49396  14.172  13.747   0.397
88108W        W49397  34.534   4.324  10.605
88109W        W49398  16.604   6.892   2.682
88110W        W49399  17.801  44.923   4.666
88111W        W49400  20.247  28.122  11.883
88112W        W49401   6.363  21.619  14.882
88113W        W49402  15.652  22.131  10.986
88114W        W49403  31.129  19.705  10.569
88115W        W49404  28.534  19.597  11.101
88116W        W49405  35.991  43.814   1.934
88117W        W49406  42.450  18.087   0.442
88118W        W49407  11.638  20.236   0.932
88119W        W49408   5.886  33.418   4.802
88120W        W49409  35.027  18.244  12.353
88121W        W49410  29.426  44.475  11.899
88122W        W49411   0.472  19.660   3.686
88123W        W49412   5.779  18.293   1.801
88124W        W49413  33.479  43.411  12.997
88125W        W49414  24.104  14.708  13.363
88126W        W49415   0.454  23.196   2.891
88127W        W49416  26.091  12.330  11.055
88128W        W49417  21.695  33.907   2.397
88129W        W49418  40.992  37.886   1.900
88130W        W49419  28.080  42.988  10.507
88131W        W49420  39.397  43.912   1.258
88132W        W49421  28.564   6.351   2.292
88133W        W49422  15.798  22.672   4.784
88134W        W49423  16.749   8.352   2.796
88135W        W49424  39.532  30.076   2.792
88136W        W49425  12.744  30.058   4.666
88137W        W49426  29.513  28.110   3.796
88138W        W49427  15.171  36.004  10.972
88139W        W49428  13.116  27.519   0.320
88140W        W49429  29.655  10.669   2.385
88141W        W49430  21.516  19.227  12.503
88142W        W49431  30.926  26.479   4.650
88143W        W49432   5.241  21.039   4.168
88144W        W49433  42.466  10.827  14.300
88145W        W49434  24.695  15.771  13.410
88146W        W49435  14.121  40.337   0.797
88147W        W49436   9.207  21.122  12.573
88148W        W49437  29.969  23.163  11.012
88149W        W49438  12.264  35.980  13.405
88150W        W49439  30.949  19.260  13.439
88151W        W49440  39.331  23.601  10.498
88152W        W49441  43.291   0.860  11.543
88153W        W49442  23.057  14.306  13.041
88154W        W49443  29.475   8.826   3.199
88155W        W49444  23.588  37.081  13.059
88156W        W49445  29.545  20.670  10.913
88157W        W49446  12.768  23.497   3.155
88158W        W49447  10.739   3.862   4.300
88159W        W49448  43.301  21.531   1.391
88160W        W49449  38.420  41.968   1.348
88161W        W49450  25.648  14.272  13.375
88162W        W49451  40.946   2.929   3.747
88163W        W49452  42.355  22.560   0.264
88164W        W49453  30.104  28.519  11.399
88165W        W49454  16.155  20.590   3.282
88166W        W49455  14.286  39.313  13.431
88167W        W49456  11.736  32.943   0.279
88168W        W49457   1.399  23.571  12.421
88169W        W49458  15.684  13.131  14.789
88170W        W49459  24.634  41.845  12.034
88171W        W49460   5.254  33.999  12.462
88172W        W49461  27.108  19.574   0.734
88173W        W49462   4.382  32.021  13.429
88174W        W49463  16.087  24.095  10.152
88175W        W49464   5.711  18.266  12.968
88176W        W49465   2.814  24.997   1.920
88177W        W49466  19.159  28.972   1.436
88178W        W49467  34.395  40.538   1.885
88179W        W49468  18.125  16.713   2.860
88180W        W49469   9.751  40.990   3.797
88181W        W49470   7.245  40.535   3.780
88182W        W49471  10.190  39.995   9.929
88183W        W49472   8.689  32.517  12.960
88184W        W49473  37.572  13.604   4.248
88185W        W49474  39.993  14.625  12.060
88186W        W49475  36.578  43.502   1.271
88187W        W49476  29.561  28.961  14.490
88188W        W49477  31.570  18.229  11.386
88189W        W49478  34.983  25.650  14.871
88190W        W49479  11.239  36.460  12.368
88191W        W49480  25.681  19.540  11.481
88192W        W49481  42.951  35.017  11.895
88193W        W49482  44.885  24.003  14.877
88194W        W49483   7.689   7.679   0.892
88195W        W49484  37.976  33.915   2.901
88196W        W49485  11.762  43.818   0.317
88197W        W49486  28.001  20.722  11.105
88198W        W49487   2.959   2.303   4.641
88199W        W49488  21.700  33.117   2.371
88200W        W49489  43.369  17.718  10.551
88201W        W49490  17.685  40.908   1.369
88202W        W49491  43.494  10.651  10.940
88203W        W49492  35.077  24.210   2.328
88204W        W49493  36.003  33.515  13.949
88205W        W49494  33.613  11.193  12.899
88206W        W49495  31.006  36.459   2.321
88207W        W49496  29.583  43.298   4.121
88208W        W49497  42.307   2.892   1.849
88209W        W49498  31.922   4.859   0.377
88210W        W49499  23.025  25.702  12.856
88211W        W49500  14.818  26.980  13.381
88212W        W49501  18.248  21.591   3.349
88213W        W49502  10.802  23.558  11.126
88214W        W49503   2.747  32.474   3.793
88215W        W49504   2.959  36.431  11.513
88216W        W49505  28.156  30.099   4.734
88217W        W49506   2.419  36.549   2.248
88218W        W49507  39.927  41.979  13.022
88219W        W49508  14.161   0.258   5.706
88220W        W49509  21.565  17.220  14.885
88221W        W49510  29.963   3.717  10.988
88222W        W49511   5.867  11.204   2.799
88223W        W49512  19.638  43.430   4.687
88224W        W49513  37.475  33.463   4.750
88225W        W49514  13.790  19.207   4.249
88226W        W49515  25.070  26.543  11.510
88227W        W49516   0.465   0.912  13.961
88228W        W49517  25.050  17.776   1.340
88229W        W49518  31.012  29.662   2.671
88230W        W49519   7.385  27.466  14.844
88231W        W49520  12.738  35.066  14.504
88232W        W49521   8.728  33.500   3.365
88233W        W49522  32.059  31.147  10.493
88234W        W49523  14.145  33.027  14.421
88235W        W49524  27.110  32.591  13.441
88236W        W49525  40.528   7.839   3.655
88237W        W49526   0.817  24.640   1.292
88238W        W49527  35.393  29.079  14.834
88239W        W49528  25.563  34.554  14.503
88240W        W49529  18.709  22.627  10.558
88241W        W49530   1.935  32.890   4.755
88242W        W49531   5.225  16.629  11.979
88243W        W49532   7.675  32.557  10.560
88244W        W49533   8.311  15.326  11.889
88245W        W49534  16.689  15.174  10.504
88246W        W49535  22.654  14.821  14.934
88247W        W49536  25.063  17.155  14.997
88248W        W49537  22.079   4.836   0.398
88249W        W49538  23.088  10.143   3.167
88250W        W49539  17.110  39.508  12.829
88251W        W49540  13.241  14.700  13.308
88252W        W49541   7.902  36.592  13.356
88253W        W49542   5.404   1.464   1.720
88254W        W49543  38.553  37.485   0.272
88255W        W49544  30.117  35.071   1.397
88256W        W49545  31.542  27.090  13.030
88257W        W49546   1.791   0.320  13.477
88258W        W49547  20.687   0.457   4.729
88259W        W49548  27.662   5.435  10.918
88260W        W49549   7.247  28.546   0.790
88261W        W49550  13.246  22.674  11.604
88262W        W49551  19.626  11.664  11.091
88263W        W49552  10.332   1.880  11.378
88264W        W49553  12.830  28.673   3.291
88265W        W49554  11.360  44.455   0.325
88266W        W49555   7.905  13.749  12.544
88267W        W49556  37.856  31.975   3.253
88268W        W49557  31.116  23.666   1.711
88269W        W49558   0.442   5.767   2.347
88270W        W49559  30.985  19.623  12.928
88271W        W49560  44.391  33.103   4.673
88272W        W49561  28.031  27.501   1.775
88273W        W49562  10.718  37.387   3.147
88274W        W49563  30.987   6.218   9.926
88275W        W49564  39.831  40.501  10.510
88276W        W49565  25.146   1.454   3.726
88277W        W49566   0.754   9.695   0.461
88278W        W49567  13.679  31.137  14.934
88279W        W49568   6.883  27.594   0.269
88280W        W49569  30.043  42.800   1.728
88281W        W49570  31.023  16.717  13.470
88282W        W49571  35.906  44.483   3.350
88283W        W49572  14.214   7.831  12.847
88284W        W49573  40.417  40.533   4.744
88285W        W49574  36.914   3.760  11.499
88286W        W49575  33.518  38.878   0.482
88287W        W49576  24.007   5.436  11.416
88288W        W49577   7.270  29.510   0.445
88289W        W49578   1.267  43.347  14.963
88290W        W49579  33.442  23.092   2.396
88291W        W49580  26.032  17.287  10.458
88292W        W49581   8.191   1.825  14.930
88293W        W49582  27.145  31.418  12.447
88294W        W49583  33.022  32.512  11.866
88295W        W49584  19.140   7.787  13.829
88296W        W49585  38.529  41.410   1.893
88297W        W49586   2.843  14.635   3.323
88298W        W49587   6.391  24.614   0.292
88299W        W49588  27.492  15.629   2.724
88300W        W49589  13.149   7.700   0.795
88301W        W49590  26.059  39.558   4.281
88302W        W49591  17.128   1.863   4.817
88303W        W49592  13.324   9.844   2.812
88304W        W49593  36.081  19.196   5.797
88305W        W49594  13.833   9.389  11.010
88306W        W49595   6.319  21.526  10.938
88307W        W49596  10.302   8.868   2.767
88308W        W49597  34.507  18.722  14.985
88309W        W49598  29.969  40.870   4.640
88310W        W49599  33.915  15.716   2.879
88311W        W49600  29.093  37.524  11.958
88312W        W49601   5.719  12.324   1.338
88313W        W49602  14.649  11.176  13.049
88314W        W49603  37.875  40.513   1.334
88315W        W49604  29.134   7.706  12.429
88316W        W49605   0.804  22.103  12.931
88317W        W49606  21.032   4.388  11.532
88318W        W49607  40.946  26.478  14.811
88319W        W49608   3.321  25.593  13.869
88320W        W49609  41.806  11.839  14.012
88321W        W49610  22.637  18.574   2.738
88322W        W49611  11.272  22.220   2.399
88323W        W49612   2.372   0.336  14.927
88324W        W49613  13.696  23.133   1.342
88325W        W49614  38.003  31.064  11.566
88326W        W49615  30.921  38.487  10.637
88327W        W49616  21.622  27.063   0.732
88328W        W49617  27.150  44.930  12.465
88329W        W49618  29.431  32.975  11.524
88330W        W49619  14.216  44.375   3.317
88331W        W49620  27.070  29.080  11.603
88332W        W49621  21.657  31.430  12.921
88333W        W49622  10.144  10.208  14.516
88334W        W49623  21.200  15.670  12.547
88335W        W49624  17.201  29.028  12.375
88336W        W49625   9.194  30.006  10.915
88337W        W49626  40.012  24.123   1.910
88338W        W49627  28.064  12.239  12.998
88339W        W49628   7.301  41.451   3.834
88340W        W49629   0.402   7.689  10.623
88341W        W49630  25.513  30.617   1.262
88342W        W49631   5.863  29.608  13.972
88343W        W49632  23.685  34.003   1.847
88344W        W49633  17.268  41.968   2.812
88345W        W49634   3.830   0.941  10.981
88346W        W49635  14.775  29.150   0.442
88347W        W49636  38.022   8.868   3.867
88348W        W49637  23.142  18.053   3.294
88349W        W49638  32.954  16.806   0.837
88350W        W49639   2.243   3.314  12.064
88351W        W49640  30.142  13.203  14.443
88352W        W49641   4.226  28.622  14.288
88353W        W49642  25.600  26.640  13.458
88354W        W49643   0.387   7.713   0.307
88355W        W49644  21.222  21.615   0.802
88356W        W49645  22.628  18.662  13.949
88357W        W49646   3.826  16.800  11.018
88358W        W49647   1.869  15.121  14.297
88359W        W49648  16.243  27.657   1.437
88360W        W49649  41.515   6.343  11.434
88361W        W49650   5.764  33.087   1.874
88362W        W49651  12.348  25.575  11.901
88363W        W49652  15.212  38.562  11.124
88364W        W49653  27.688  15.693  12.478
88365W        W49654  16.212  43.475  11.878
88366W        W49655  14.181   0.911  14.932
88367W        W49656  16.302  13.153  13.805
88368W        W49657  40.401  39.974   0.862
88369W        W49658  32.417  27.626   0.410
88370W        W49659  26.616  14.221   1.225
88371W        W49660  33.526  10.382   5.254
88372W        W49661  26.971  23.490  14.462
88373W        W49662  24.716  20.642  13.314
88374W        W49663  29.574  12.303  12.055
88375W        W49664   3.729  21.680  14.275
88376W        W49665  37.573  22.215   3.189
88377W        W49666  18.701  40.489  14.933
88378W        W49667  21.614  22.080   4.328
88379W        W49668  25.713  23.696   1.905
88380W        W49669  38.996  35.906   5.248
88381W        W49670  34.899  44.468  12.905
88382W        W49671  42.823  19.254   4.665
88383W        W49672  28.104  20.243  11.528
88384W        W49673  22.028  35.043  12.390
88385W        W49674  20.540   2.442   2.341
88386W        W49675   8.889  18.682  11.467
88387W        W49676  30.144  28.943  12.899
88388W        W49677  30.637  27.188  13.018
88389W        W49678  37.421  27.027   2.837
88390W        W49679  10.721  44.970   2.319
88391W        W49680   3.459  36.075  12.827
88392W        W49681  35.084   6.321   0.283
88393W        W49682  40.806  44.342  11.073
88394W        W49683   6.745  31.402  11.588
88395W        W49684  37.025   1.793  12.023
88396W        W49685  25.629   6.384  12.856
88397W        W49686  12.197  36.855   1.263
88398W        W49687   3.849  37.916  12.427
88399W        W49688  12.678  29.435   0.441
88400W        W49689  44.364  28.500  14.789
88401W        W49690  17.126   1.274  13.875
88402W        W49691  21.069  37.450   1.270
88403W        W49692  20.650  18.724   4.720
88404W        W49693  42.348  39.851  12.006
88405W        W49694   5.295  42.463   1.791
88406W        W49695  27.629  33.523  13.043
88407W        W49696  17.211  37.926  12.853
88408W        W49697  43.309  39.466   1.352
88409W        W49698  14.266  13.820   1.325
88410W        W49699  11.832  10.788  11.386
88411W        W49700  40.920   4.838   2.730
88412W        W49701   9.732  31.465   1.930
88413W        W49702   3.323  17.778  14.887
88414W        W49703  30.944  17.210   2.699
88415W        W49704  24.648  30.412  11.586
88416W        W49705  16.260  37.976  13.376
88417W        W49706  35.574  40.843   0.941
88418W        W49707  35.076  38.510  14.291
88419W        W49708  34.547  36.580   2.330
88420W        W49709  25.075   9.149   3.829
88421W        W49710  17.686  27.950  11.927
88422W        W49711  11.667  42.776   0.424
88423W        W49712  28.983   4.752  10.063
88424W        W49713   5.757   7.376  13.460
88425W        W49714  28.946  32.961  13.358
88426W        W49715  41.034   8.162   1.302
88427W        W49716   3.402  38.852  10.521
88428W        W49717  27.692  31.536   1.242
88429W        W49718  28.545  40.367   0.921
88430W        W49719  31.952  29.949  12.048
88431W        W49720  21.743  30.013   4.284
88432W        W49721   6.828  29.591   1.305
88433W        W49722  39.877   0.773  11.877
88434W        W49723  38.341  37.929   3.191
88435W        W49724  35.096  38.405   0.806
88436W        W49725  38.424  21.517   9.986
88437W        W49726   2.921  42.780   0.887
88438W        W49727   3.822  42.988  10.901
88439W        W49728   8.767  31.428   1.361
88440W        W49729   4.743  32.928   1.782
88441W        W49730  14.136   2.244   0.923
88442W        W49731  40.949  15.125  13.851
88443W        W49732   0.383  28.094  13.909
88444W        W49733  44.274  24.173  13.911
88445W        W49734   0.892  26.546  11.573
88446W        W49735  39.418  28.515  14.284
88447W        W49736   2.822  17.655   3.259
88448W        W49737   3.450   5.864  13.438
88449W        W49738  29.047  43.939   0.315
88450W        W49739  14.334  12.683  14.808
88451W        W49740  22.042   4.706  11.399
88452W        W49741  19.137  16.088   3.295
88453W        W49742  23.170  23.571  10.619
88454W        W49743  17.106  38.834  12.952
88455W        W49744  32.064  14.340   3.363
88456W        W49745  29.109  20.106   4.187
88457W        W49746  36.571   9.168  11.956
88458W        W49747   1.470  24.713  13.457
88459W        W49748  11.195  11.285  12.824
88460W        W49749   6.843   9.670   0.801
88461W        W49750  33.419   6.765   4.341
88462W        W49751  10.790  16.311  13.901
88463W        W49752  11.712   5.245   0.930
88464W        W49753  26.007  17.567   1.921
88465W        W49754  31.954   3.755  12.351
88466W        W49755  24.693  31.017  12.984
88467W        W49756  20.619   5.394   2.698
88468W        W49757  28.538   1.415  14.786
88469W        W49758   4.805  23.507   0.368
88470W        W49759  35.949  27.057  13.990
88471W        W49760   7.670  19.686  11.007
88472W        W49761  28.971   7.764  13.057
88473W        W49762  16.159  20.762  12.403
88474W        W49763  29.560  41.433  11.511
88475W        W49764  15.754  26.616   2.256
88476W        W49765  32.890  37.352   2.720
88477W        W49766   4.447  25.157   2.859
88478W        W49767  14.712  31.441  13.518
88479W        W49768   0.448  14.106   3.244
88480W        W49769   9.311  37.492   1.277
88481W        W49770  37.353   6.233   0.879
88482W        W49771  25.538   5.243  14.877
88483W        W49772  10.744  12.762  14.409
88484W        W49773   1.907  34.081  13.999
88485W        W49774  33.953   4.804  12.447
88486W        W49775   7.829   2.909   3.159
88487W        W49776  34.518  31.923  13.381
88488W        W49777  16.232  35.929  13.453
88489W        W49778  35.989  31.909   3.857
88490W        W49779  27.989   1.294   0.248
88491W        W49780  30.008   2.310   0.835
88492W        W49781  21.066  13.693   2.247
88493W        W49782  43.350  13.306  13.507
88494W        W49783  29.473  41.872  14.874
88495W        W49784  37.508   5.353  14.800
88496W        W49785   4.835  25.545   1.811
88497W        W49786   3.838  27.099   9.517
88498W        W49787  20.070   4.887   2.279
88499W        W49788  35.431  23.047   3.731
88500W        W49789  25.061  19.597   2.827
88501W        W49790   3.420  20.079   5.250
88502W        W49791  24.984  36.425   4.246
88503W        W49792   9.847   0.965   3.287
88504W        W49793  32.511  41.843   2.298
88505W        W49794  16.317  12.316  13.368
88506W        W49795  18.151  22.569  14.941
88507W        W49796  38.370  16.104   3.719
88508W        W49797  11.849   8.886  11.521
88509W        W49798  44.478  11.764   0.425
88510W        W49799  22.543  15.155  14.292
88511W        W49800  36.890  38.403  12.962
88512W        W49801  40.461  32.620  12.439
88513W        W49802   8.727  39.925   2.711
88514W        W49803   8.288  43.498   1.322
88515W        W49804  28.131  41.456  10.979
88516W        W49805  17.776  31.984   1.830
88517W        W49806  13.252   5.215  10.443
88518W        W49807   4.788  23.541   3.792
88519W        W49808  27.034  42.430   4.675
88520W        W49809  24.584  23.630  12.351
88521W        W49810  20.731  15.161  12.863
88522W        W49811  11.809  44.288  11.428
88523W        W49812  27.942  15.258   4.181
88524W        W49813  29.467  33.921   3.811
88525W        W49814  24.581  43.784   3.347
88526W        W49815  21.260  21.109   4.170
88527W        W49816   7.833  23.515  13.423
88528W        W49817  31.514  26.008  14.876
88529W        W49818  15.599  37.027  12.481
88530W        W49819  37.521  21.520   1.445
88531W        W49820  16.732  31.931  10.603
88532W        W49821  11.826  37.505   1.231
88533W        W49822  12.707  43.306   1.827
88534W        W49823  44.278  10.242  12.981
88535W        W49824  43.376   2.922  11.106
88536W        W49825  23.507  10.306   3.675
88537W        W49826  21.516   8.897   4.169
88538W        W49827  19.248  15.789  10.611
88539W        W49828   5.877  18.751   0.854
88540W        W49829  35.504   1.949  10.568
88541W        W49830  41.355  12.198   0.310
88542W        W49831   2.878  23.106   0.938
88543W        W49832  20.613   0.362   1.863
88544W        W49833  17.196  13.203   3.322
88545W        W49834  15.208  21.641  12.524
88546W        W49835  36.940  11.716   0.840
88547W        W49836  20.694  28.660  11.574
88548W        W49837   3.304  40.537   4.665
88549W        W49838   1.421  24.531  13.954
88550W        W49839  38.899  42.367   0.766
88551W        W49840  39.984  37.898  14.863
88552W        W49841  36.883  27.514  14.936
88553W        W49842  22.612  15.264  12.937
88554W        W49843  27.106  15.116   1.338
88555W        W49844   8.227  31.431  12.417
88556W        W49845  22.056   1.957  14.994
88557W        W49846  23.591  12.189   4.301
88558W        W49847  29.141  15.726  10.934
88559W        W49848   9.309  21.087   4.293
88560W        W49849  41.982   8.746  12.542
88561W        W49850  31.613  41.337   2.292
88562W        W49851  35.980  14.173  10.984
88563W        W49852  10.187  31.424   5.608
88564W        W49853  44.283  26.540   5.215
88565W        W49854  40.992  23.055  12.012
88566W        W49855  30.591   5.717  13.919
88567W        W49856  34.044  11.704  11.919
88568W        W49857  11.240  14.718   1.801
88569W        W49858   7.368  30.978  14.306
88570W        W49859  35.596  21.168   0.468
88571W        W49860  40.833  44.873  13.954
88572W        W49861  36.359  28.074   1.916
88573W        W49862  37.950  32.429   0.839
88574W        W49863   0.284   1.310  11.094
88575W        W49864  43.768  11.263  12.513
88576W        W49865   4.330  12.219  11.002
88577W        W49866  28.156  31.993  14.447
88578W        W49867   8.223  14.651   2.797
88579W        W49868  17.656  17.739   0.855
88580W        W49869   8.840  43.773   3.146
88581W        W49870   8.360  10.230   0.288
88582W        W49871  27.131   1.889  11.378
88583W        W49872   8.706  27.097  10.038
88584W        W49873  10.708  36.976  10.948
88585W        W49874  18.720  27.993  13.054
88586W        W49875  26.975  23.066   0.864
88587W        W49876  43.017   6.423  11.986
88588W        W49877  38.875  43.428   4.650
88589W        W49878  21.132  19.247  13.417
88590W        W49879  19.693  30.914  13.356
88591W        W49880  16.620  10.702  11.441
88592W        W49881  38.463   9.189   4.299
88593W        W49882  41.958   0.299  11.510
88594W        W49883  43.924  36.968  14.029
88595W        W49884  30.524  12.615   2.868
88596W        W49885   7.820   1.875   1.440
88597W        W49886  16.266  38.550   3.291
88598W        W49887   0.367  24.095   4.761
88599W        W49888   7.736  19.197  10.458
88600W        W49889  21.688  20.153   3.279
88601W        W49890  31.503  25.689  12.874
88602W        W49891  29.046  38.989   2.300
88603W        W49892   1.346   4.210   1.448
88604W        W49893  13.136  12.791   2.816
88605W        W49894  34.581   4.709   2.397
88606W        W49895  16.183  19.572  14.971
88607W        W49896  33.956  13.294  12.573
88608W        W49897  10.173   9.644  14.369
88609W        W49898  10.260  42.795  11.116
88610W        W49899  27.617   2.880   2.240
88611W        W49900  40.871  12.805  10.439
88612W        W49901  37.985  42.977   1.218
88613W        W49902  29.098  25.698  11.406
88614W        W49903  19.193  17.271   2.408
88615W        W49904  28.039  38.962  13.972
88616W        W49905  22.704  17.263   0.415
88617W        W49906  30.471  28.103   4.165
88618W        W49907   2.441   3.723   1.290
88619W        W49908  42.794  27.556  13.511
88620W        W49909  25.983  11.328  13.525
88621W        W49910  37.051  39.560   2.206
88622W        W49911   8.358  29.538   3.698
88623W        W49912  29.932  19.694  11.016
88624W        W49913  36.932  39.445  14.773
88625W        W49914  25.130  12.820  12.509
88626W        W49915  20.182  12.735   1.334
88627W        W49916  32.993  34.992   1.913
88628W        W49917  26.996  44.494   1.794
88629W        W49918  22.130  36.436   4.230
88630W        W49919  32.622  33.059  14.442
88631W        W49920  18.781  23.702   4.780
88632W        W49921  44.350  13.629   5.269
88633W        W49922   8.799  39.348  11.996
88634W        W49923  42.439  16.188   4.311
88635W        W49924  16.169  24.986  14.457
88636W        W49925  23.590  32.587  11.437
88637W        W49926  13.133  43.792  11.595
88638W        W49927   9.166  43.462  13.997
88639W        W49928  13.253   1.293   0.257
88640W        W49929  19.553   0.329  11.569
88641W        W49930  23.712  28.940   0.821
88642W        W49931  42.945  43.491  12.510
88643W        W49932  17.263   1.468   4.307
88644W        W49933  31.423   2.451   0.940
88645W        W49934  29.169   4.854   5.151
88646W        W49935   6.228  41.511   5.262
88647W        W49936  18.694  24.512  11.878
88648W        W49937  41.293   4.229   3.762
88649W        W49938  18.097   0.784   4.699
88650W        W49939   0.412   2.864   0.924
88651W        W49940  12.713  17.069   4.606
88652W        W49941  24.995  28.164  11.542
88653W        W49942  34.920  20.619  13.374
88654W        W49943   9.330   9.294  13.404
88655W        W49944   2.817   6.323  13.796
88656W        W49945  39.445  15.327  13.313
88657W        W49946  43.868  13.742  14.488
88658W        W49947  35.035  26.547   4.267
88659W        W49948  15.653   9.716   4.353
88660W        W49949  38.485  36.528  10.444
88661W        W49950  33.983  18.625   0.727
88662W        W49951  38.413  38.849  12.448
88663W        W49952  27.599  24.654  10.949
88664W        W49953  21.199  32.955   2.257
88665W        W49954   9.334  29.535   2.802
88666W        W49955  26.670  30.066  13.384
88667W        W49956   1.902  16.265   0.251
88668W        W49957  12.651  10.760  12.392
88669W        W49958  21.025  43.773   3.702
88670W        W49959  33.556  23.051  11.427
88671W        W49960  26.568  21.242   0.434
88672W        W49961  12.769  10.641  14.368
88673W        W49962   0.259  22.021   4.769
88674W        W49963  34.466  30.945  12.995
88675W        W49964  11.265  35.360  12.353
88676W        W49965  21.053  38.897  10.489
88677W        W49966  25.197  30.431  10.518
88678W        W49967   7.243  32.100  12.834
88679W        W49968  33.999  16.271  14.293
88680W        W49969  19.605   6.336  12.861
88681W        W49970  10.683  39.905  11.122
88682W        W49971  16.198  36.899  13.347
88683W        W49972  34.864  25.616   1.437
88684W        W49973  30.441  26.479   2.752
88685W        W49974  16.125  26.703  13.991
88686W        W49975  14.144   7.344  10.403
88687W        W49976   7.905  32.970  14.457
88688W        W49977  25.015  41.921  10.916
88689W        W49978  24.723   9.224  13.430
88690W        W49979   7.785  43.348   0.925
88691W        W49980  41.512  21.241  10.519
88692W        W49981   8.719   2.358  10.144
88693W        W49982   0.784  36.425  11.403
88694W        W49983  25.166   9.395  14.986
88695W        W49984  34.012  40.488  13.418
88696W        W49985   2.384  43.877   1.711
88697W        W49986  34.976  18.685   0.932
88698W        W49987  10.863  26.101   1.321
88699W        W49988   0.858   5.790  13.847
88700W        W49989  41.988  23.205  12.830
88701W        W49990  24.118  27.197  11.509
88702W        W49991  37.459  25.636   3.380
88703W        W49992   4.713  31.411   0.920
88704W        W49993  13.265   3.340   0.297
88705W        W49994  33.962  44.390  10.916
88706W        W49995   0.865   8.771   4.741
88707W        W49996  23.607  17.279  10.577
88708W        W49997  15.669  19.074  12.388
88709W        W49998  16.284  41.806   2.207
88710W        W49999  21.737   1.355   1.429
88711W        W50000   8.163   5.393  13.324
88712W        W50001   4.813   5.691   9.922
88713W        W50002  14.137  44.484   0.739
88714W        W50003  16.085  35.012   4.113
88715W        W50004  21.513  39.864   2.246
88716W        W50005  24.164   2.419  12.031
88717W        W50006  31.131  40.952   0.902
88718W        W50007  36.515  19.724   3.702
88719W        W50008  30.954  13.141  11.533
88720W        W50009  17.679  27.104   2.829
88721W        W50010  10.201  23.538  14.940
88722W        W50011   2.261  31.004  11.902
88723W        W50012  31.898  27.146   0.793
88724W        W50013  41.339  43.326  12.496
88725W        W50014  23.044  14.337   3.211
88726W        W50015   0.284   8.230   3.856
88727W        W50016  30.937  44.780   4.187
88728W        W50017   6.894  19.185   1.933
88729W        W50018  18.622  31.562  11.941
88730W        W50019  18.706  17.156   1.748
88731W        W50020  31.977   1.966   2.238
88732W        W50021  25.992  39.957  11.050
88733W        W50022  19.766  35.366   1.383
88734W        W50023  13.816   7.232   3.774
88735W        W50024  27.599  37.875   0.273
88736W        W50025   7.824   6.316   3.642
88737W        W50026  28.601   0.482  13.058
88738W        W50027  39.037  22.651   0.766
88739W        W50028  11.793  32.481  12.417
88740W        W50029   9.308  28.965   5.285
88741W        W50030  31.440   0.938  14.781
88742W        W50031  14.665  22.122  12.970
88743W        W50032  31.054  28.642   1.727
88744W        W50033  39.017  30.654   2.369
88745W        W50034  44.002  41.457  12.832
88746W        W50035  36.969   7.215  10.622
88747W        W50036   4.853   6.848   4.260
88748W        W50037   2.386  24.559  14.857
88749W        W50038   2.817  18.273  14.311
88750W        W50039  23.137  21.166   0.768
88751W        W50040  37.528   9.190   3.863
88752W        W50041  23.150   6.230   3.246
88753W        W50042  42.782  43.901   1.399
88754W        W50043   9.801   3.379  12.858
88755W        W50044   5.781  20.581  12.006
88756W        W50045  32.021  18.791  14.806
88757W        W50046  37.448  18.777   2.882
88758W        W50047  25.558   6.744  14.867
88759W        W50048  43.293  36.574  10.984
88760W        W50049  26.478  16.637  13.858
88761W        W50050  37.520  18.745  11.867
88762W        W50051  42.963  25.531   2.789
88763W        W50052  25.085  36.026   1.432
88764W        W50053  26.970  29.144   2.217
88765W        W50054  17.283   9.372   0.949
88766W        W50055   9.701  35.598   3.160
88767W        W50056   2.276   0.979  12.857
88768W        W50057  31.964  39.409  14.396
88769W        W50058  41.463  15.312  14.424
88770W        W50059  32.611  16.260   3.793
88771W        W50060   3.279  28.160   3.334
88772W        W50061  36.962  26.091   2.788
88773W        W50062   6.294   8.691  10.153
88774W        W50063  15.626   1.349  13.365
88775W        W50064  37.848   5.334  14.347
88776W        W50065  10.291   1.910   0.303
88777W        W50066  33.415  30.579  12.486
88778W        W50067  37.568   8.671  11.932
88779W        W50068  21.546  30.587  11.914
88780W        W50069  16.257  11.293   1.933
88781W        W50070  32.567  14.124  10.617
88782W        W50071  22.677  10.802  11.112
88783W        W50072   2.261  38.526  11.569
88784W        W50073  22.036  37.872  14.839
88785W        W50074  11.186   2.839  13.825
88786W        W50075  40.032  32.630   3.303
88787W        W50076   6.270  16.640  10.450
88788W        W50077  42.863  16.659  11.528
88789W        W50078  42.920  15.204  12.867
88790W        W50079  32.073  25.076   2.724
88791W        W50080  20.133  11.337   0.845
88792W        W50081  36.465  31.628  10.978
88793W        W50082  22.543   5.870   0.407
88794W        W50083  28.665  11.807   1.746
88795W        W50084  34.932  27.682   4.716
88796W        W50085  11.847  23.234   3.857
88797W        W50086  24.020  26.538  14.024
88798W        W50087  20.625  11.249   4.191
88799W        W50088  25.695  11.302  13.905
88800W        W50089  30.658  17.191   2.726
88801W        W50090  40.034  44.803  14.956
88802W        W50091   5.320  27.472   0.346
88803W        W50092  32.978  43.430  12.986
88804W        W50093  13.606  30.955   1.729
88805W        W50094  11.278  12.651   4.215
88806W        W50095  17.200  38.941   1.309
88807W        W50096  39.411  11.820   2.798
88808W        W50097   1.948  41.985  14.949
88809W        W50098  33.394  23.984  13.793
88810W        W50099  15.758   6.290  12.051
88811W        W50100  10.185  30.511   3.180
88812W        W50101  32.529  31.144   1.752
88813W        W50102  37.340   8.284   4.271
88814W        W50103  40.349  44.258   0.938
88815W        W50104  11.835  29.026  10.925
88816W        W50105   7.346   4.846   4.598
88817W        W50106  16.775   8.261  14.500
88818W        W50107  23.134  25.566   1.698
88819W        W50108  39.379  26.604   1.889
88820W        W50109  20.631  37.535  14.420
88821W        W50110   9.833  18.563  13.525
88822W        W50111  11.805  18.763   3.731
88823W        W50112  33.583  15.752   5.263
88824W        W50113   6.302  31.424   4.303
88825W        W50114  33.935  23.090   2.708
88826W        W50115  16.299  20.658   1.857
88827W        W50116   5.301  36.452   0.873
88828W        W50117  39.983   8.676  13.049
88829W        W50118  29.518  27.553   0.249
88830W        W50119  41.028  10.321  14.356
88831W        W50120  26.615  12.739   2.322
88832W        W50121   8.203  28.131  13.855
88833W        W50122  34.571  12.344   3.837
88834W        W50123  43.270  19.583   1.248
88835W        W50124  22.558   4.282  10.523
88836W        W50125   3.790   9.155  10.934
88837W        W50126  34.383  16.110   1.313
88838W        W50127  12.623  26.630   1.813
88839W        W50128  13.641  35.870  13.048
88840W        W50129  32.534  24.104  10.609
88841W        W50130  40.498  10.318   3.165
88842W        W50131   2.263  42.375   2.317
88843W        W50132  20.196  22.229   3.795
88844W        W50133  27.088  12.800   0.395
88845W        W50134  30.559  24.650  12.384
88846W        W50135  34.552  42.480  12.930
88847W        W50136  37.904  14.313   2.390
88848W        W50137   3.915   6.213  14.862
88849W        W50138  28.046  32.025  12.949
88850W        W50139  36.969  28.637   1.769
88851W        W50140  17.110   3.801   0.917
88852W        W50141  23.578   1.917  14.415
88853W        W50142   8.254  18.289  11.446
88854W        W50143  21.110  30.088  13.917
88855W        W50144  17.286  18.290  10.144
88856W        W50145  36.557  14.285  10.981
88857W        W50146  38.424  18.083   2.349
88858W        W50147  33.559   3.436  11.970
88859W        W50148  19.705  16.615   3.283
88860W        W50149  18.604  44.502  11.503
88861W        W50150  32.407  35.505  14.509
88862W        W50151  44.849  17.161  14.025
88863W        W50152  40.833  10.199  11.572
88864W        W50153  16.640  40.034   3.712
88865W        W50154  17.110  25.163  14.774
88866W        W50155  23.197   9.264   0.424
88867W        W50156  37.847  39.045   0.381
88868W        W50157  16.805  25.487  14.458
88869W        W50158  14.200  34.883   4.685
88870W        W50159   0.344  18.169  11.994
88871W        W50160  22.656  38.509   2.754
88872W        W50161  37.502  31.959   2.378
88873W        W50162   5.813  34.534   4.252
88874W        W50163  44.848  43.367   3.347
88875W        W50164  14.713  39.535  13.039
88876W        W50165  33.401  21.656   5.296
88877W        W50166   6.888  44.394  12.410
88878W        W50167  40.376   7.276  12.469
88879W        W50168  32.513  35.951   4.161
88880W        W50169  40.989  19.544  10.898
88881W        W50170  43.937  15.235  12.867
88882W        W50171  11.863  13.307  14.888
88883W        W50172  41.033  14.125   3.242
88884W        W50173   1.972  29.169  11.402
88885W        W50174  23.516   4.286   3.778
88886W        W50175   9.382  15.650   0.396
88887W        W50176   6.781   0.408   2.412
88888W        W50177  16.734  36.873   3.375
88889W        W50178   9.859  39.059  10.958
88890W        W50179  22.213  32.040   2.187
88891W        W50180  20.202  33.937   4.721
88892W        W50181  34.542  39.550   1.710
88893W        W50182  39.049  29.034  10.014
88894W        W50183  44.439  19.689  12.071
88895W        W50184   9.773   3.820  13.867
88896W        W50185  42.326  10.727   0.751
88897W        W50186   7.697  27.542  14.018
88898W        W50187  18.585  10.636   2.809
88899W        W50188  40.433   0.264  11.612
88900W        W50189  42.864  44.867  12.830
88901W        W50190  14.709  32.083  11.911
88902W        W50191  40.017  22.581   4.204
88903W        W50192  10.783  44.407   2.215
88904W        W50193  35.907  37.061  14.792
88905W        W50194   8.722  28.472  14.346
88906W        W50195  16.298  26.198   3.291
88907W        W50196   3.928  20.701  12.968
88908W        W50197  17.149  10.339   4.164
88909W        W50198   4.710  15.654   3.642
88910W        W50199  35.911   8.287  10.603
88911W        W50200   9.726  12.731  13.817
88912W        W50201  37.981   5.909   4.821
88913W        W50202  19.067  13.326   1.223
88914W        W50203  39.846   9.196  11.532
88915W        W50204  22.682  22.584   1.249
88916W        W50205   4.249  14.189   1.694
88917W        W50206  42.492  31.121  10.617
88918W        W50207  44.285   0.899  14.805
88919W        W50208  32.461  23.658  11.419
88920W        W50209  16.706  38.370   1.758
88921W        W50210   6.242   6.358  12.537
88922W        W50211  20.082  17.753  12.570
88923W        W50212  16.194  28.640  11.411
88924W        W50213   0.365  34.595  10.929
88925W        W50214  40.802  14.163   4.644
88926W        W50215  40.346  31.530  12.550
88927W        W50216  38.532   0.846   3.686
88928W        W50217  26.517  36.023  11.925
88929W        W50218  12.726  37.374  14.976
88930W        W50219  29.136  42.942   4.211
88931W        W50220  23.603  24.137   1.349
88932W        W50221  14.269  16.099  13.902
88933W        W50222  37.925   9.372   1.883
88934W        W50223   8.256  17.621  12.023
88935W        W50224  25.668   6.809   3.173
88936W        W50225  19.218  33.410  11.121
88937W        W50226  34.890   7.803   0.354
88938W        W50227  13.335   7.403  10.049
88939W        W50228  33.068   5.230  10.421
88940W        W50229  14.114  11.675   3.864
88941W        W50230  20.066   6.774  14.304
88942W        W50231  19.756   9.370   0.933
88943W        W50232  36.073  26.496   3.755
88944W        W50233  23.240  10.285  11.460
88945W        W50234   1.310  26.570  10.938
88946W        W50235  42.413  22.540  12.395
88947W        W50236  34.583  31.588   4.771
88948W        W50237  21.653  31.053  12.081
88949W        W50238  26.681   1.779  11.045
88950W        W50239   8.880   7.731  11.868
88951W        W50240  33.428  25.565   1.821
88952W        W50241  12.179   0.983   1.276
88953W        W50242  20.035  30.461  12.887
88954W        W50243   3.217  14.754   2.193
88955W        W50244  40.935  13.691  10.912
88956W        W50245   0.305   8.218   2.801
88957W        W50246  17.691  38.064   3.682
88958W        W50247  34.865  32.896  14.429
88959W        W50248  12.815  29.966   4.204
88960W        W50249  15.116   2.393  13.005
88961W        W50250  14.225  25.049   4.342
88962W        W50251  43.837  26.663  11.409
88963W        W50252   3.449   0.784   0.402
88964W        W50253   8.234  25.965  14.412
88965W        W50254  17.711  19.223  10.128
88966W        W50255  21.538  36.019  14.500
88967W        W50256  28.494  35.928   2.898
88968W        W50257  24.515  37.856  14.433
88969W        W50258   4.241  40.032   1.695
88970W        W50259   1.912  33.400  14.505
88971W        W50260  16.793  10.714  14.443
88972W        W50261  24.104   6.759   3.770
88973W        W50262  13.296  20.532  11.118
88974W        W50263  32.580  26.200   0.333
88975W        W50264  14.128  39.913  13.805
88976W        W50265  36.963  37.443  10.637
88977W        W50266  11.257  18.268  12.861
88978W        W50267  32.075   5.328  13.473
88979W        W50268  43.388  42.991  14.941
88980W        W50269  33.437  24.199   1.248
88981W        W50270  25.578  29.584  14.473
88982W        W50271  13.330  30.916  11.906
88983W        W50272  28.659  22.504  10.609
88984W        W50273  12.793  37.519  14.312
88985W        W50274  21.116  17.201  12.894
88986W        W50275  28.658  31.116   3.342
88987W        W50276  39.811  36.474  10.948
88988W        W50277  25.196   0.795   4.754
88989W        W50278  13.651   0.960   0.798
88990W        W50279  12.277  16.630   3.828
88991W        W50280   5.709  23.709  11.420
88992W        W50281   1.947  39.990  10.550
88993W        W50282  31.594   3.734  11.884
88994W        W50283   9.392  20.207   1.903
88995W        W50284  41.039  17.226  12.884
88996W        W50285  17.560  21.578   0.418
88997W        W50286  22.190  35.446   2.215
88998W        W50287   9.276  31.024  14.513
88999W        W50288  39.845  33.891  14.964
89000W        W50289  13.281  15.672   2.301
89001W        W50290  26.480   7.289  12.565
89002W        W50291  14.181  20.112  11.870
89003W        W50292   3.903  42.976   0.854
89004W        W50293   9.374   4.267  13.007
89005W        W50294  25.092  10.649   1.376
89006W        W50295  20.201  22.125   4.148
89007W        W50296   6.759  24.715  14.846
89008W        W50297  32.530  14.330   0.435
89009W        W50298  21.249  18.656   1.842
89010W        W50299  12.320  23.116   2.707
89011W        W50300  28.014   7.689  12.882
89012W        W50301  30.616  10.689  10.526
89013W        W50302  24.178  44.380  14.895
89014W        W50303  39.928  32.975  11.092
89015W        W50304  41.327  39.315  10.909
89016W        W50305  36.941   4.331   1.842
89017W        W50306   5.211  39.864  14.481
89018W        W50307  12.345  19.770  12.421
89019W        W50308  23.492  14.259   2.811
89020W        W50309  19.174  33.916  14.797
89021W        W50310  17.648  29.435  10.983
89022W        W50311   0.372  30.494  11.861
89023W        W50312  32.589  42.018  13.870
89024W        W50313  15.137  29.926   2.384
89025W        W50314  13.206  36.881   5.713
89026W        W50315  10.742   5.403  12.558
89027W        W50316  16.120  13.236   1.891
89028W        W50317  28.481  41.835   1.417
89029W        W50318   4.920  37.407   2.242
89030W        W50319  39.550  16.140  13.365
89031W        W50320  20.077  41.866  12.941
89032W        W50321  40.357  32.493  13.426
89033W        W50322  24.603  21.573   1.288
89034W        W50323   8.762  42.021  10.555
89035W        W50324  19.664  15.243  13.418
89036W        W50325  37.965  32.392   1.930
89037W        W50326  30.643   1.392  14.898
89038W        W50327   2.951  29.076   4.335
89039W        W50328  24.075  29.611  14.368
89040W        W50329   9.151  20.640  13.959
89041W        W50330  32.453  34.501   2.703
89042W        W50331  34.016   1.792   1.368
89043W        W50332  34.386  28.169   1.777
89044W        W50333  35.006  31.140   2.702
89045W        W50334  26.980  38.378  14.935
89046W        W50335  14.825  12.738  12.523
89047W        W50336  33.511  11.286  13.356
89048W        W50337  15.188  19.596   9.658
89049W        W50338  42.298   6.360   1.747
89050W        W50339  27.664  27.557  13.441
89051W        W50340  13.648  33.976  11.898
89052W        W50341  42.845  43.879   1.708
89053W        W50342  16.806   4.941   4.720
89054W        W50343   9.320  23.517  14.785
89055W        W50344   3.318  30.007  11.885
89056W        W50345   7.852  37.369   0.790
89057W        W50346  38.955  18.694  14.908
89058W        W50347  34.964  26.492   1.900
89059W        W50348  42.955  43.350   4.834
89060W        W50349  30.994  40.959  11.453
89061W        W50350  40.918  14.157  12.931
89062W        W50351  28.093  25.046   0.858
89063W        W50352   4.920   0.866   3.383
89064W        W50353   9.700  20.172   0.839
89065W        W50354  13.670  18.596   1.712
89066W        W50355  44.385  36.475   3.654
89067W        W50356  10.707  28.482   3.277
89068W        W50357  32.001  21.566  12.984
89069W        W50358   6.863  14.618   1.704
89070W        W50359  22.738  18.621  14.379
89071W        W50360  21.067  39.861  12.897
89072W        W50361  42.905   6.895  13.821
89073W        W50362  15.256  32.622  10.524
89074W        W50363  44.350  44.477  12.837
89075W        W50364  17.258   8.240   0.956
89076W        W50365  23.615  43.435   3.179
89077W        W50366   6.253  39.464  10.572
89078W        W50367  20.755  25.115  11.962
89079W        W50368  38.981  39.525  12.495
89080W        W50369  30.986  19.549   3.310
89081W        W50370  27.127  44.369  11.048
89082W        W50371  31.004   2.946   1.857
89083W        W50372  40.850  22.649   2.264
89084W        W50373  36.447  32.532   2.183
89085W        W50374  39.335  11.767  14.850
89086W        W50375  37.992  42.915   2.258
89087W        W50376  24.696  15.803   9.992
89088W        W50377  29.991  23.537   1.394
89089W        W50378  16.262  15.772   0.450
89090W        W50379  44.771   1.349  13.008
89091W        W50380  38.532  37.568  13.313
89092W        W50381  14.655   5.387   0.946
89093W        W50382  10.203  29.483  10.446
89094W        W50383  14.164  37.362  11.410
89095W        W50384  33.000   5.400  13.516
89096W        W50385  13.600  26.483   4.280
89097W        W50386  25.165  30.464   3.802
89098W        W50387   0.826   7.905   2.689
89099W        W50388  24.200  27.004   1.805
89100W        W50389  44.823  11.645  11.559
89101W        W50390  18.549   4.279   4.203
89102W        W50391  23.019  19.638   4.655
89103W        W50392  20.085  36.411   0.729
89104W        W50393  19.083  41.440  14.305
89105W        W50394  43.776  23.725  13.995
89106W        W50395  40.314  10.162   2.285
89107W        W50396  39.545  31.907  13.945
89108W        W50397  35.025  36.876   1.732
89109W        W50398  22.237  15.160  11.504
89110W        W50399   4.771  31.054  13.495
89111W        W50400   4.330   4.402   0.936
89112W        W50401   9.840  26.576   4.720
89113W        W50402  37.976  44.004   4.136
89114W        W50403  33.623  28.098   0.469
89115W        W50404  31.086   5.708   1.885
89116W        W50405  37.447  27.669  13.813
89117W        W50406   8.733   9.174   3.695
89118W        W50407  24.704  25.176   3.798
89119W        W50408   6.205  15.710   1.914
89120W        W50409  19.638  27.190  13.914
89121W        W50410  23.082  26.579  11.880
89122W        W50411  31.025  29.103   4.714
89123W        W50412  21.561  34.999  12.835
89124W        W50413   4.304   7.700  13.887
89125W        W50414  30.494  35.511  11.068
89126W        W50415  32.924  37.542   0.431
89127W        W50416  43.386  26.462  13.399
89128W        W50417  16.580  11.813  11.424
89129W        W50418  38.389  22.244   3.321
89130W        W50419   1.795  21.224   3.320
89131W        W50420  35.358  44.345  11.969
89132W        W50421   8.778   8.307   0.254
89133W        W50422  27.969   2.398  11.058
89134W        W50423  10.841  19.242  14.825
89135W        W50424  26.521  12.237   0.379
89136W        W50425  43.306   3.759   2.692
89137W        W50426  31.633  10.860   1.881
89138W        W50427   2.839  11.688  14.012
89139W        W50428  18.709  29.117   4.834
89140W        W50429   6.402  38.882   3.259
89141W        W50430  30.554  23.645  13.349
89142W        W50431  22.120  10.834  14.777
89143W        W50432  30.136   0.915   2.753
89144W        W50433  29.435  31.549  12.513
89145W        W50434  22.662   2.925  13.523
89146W        W50435  44.783   1.872  11.935
89147W        W50436   6.714  24.192   4.729
89148W        W50437  32.401  24.105  10.014
89149W        W50438   2.232   9.290   0.261
89150W        W50439  37.546   8.194  14.942
89151W        W50440   1.835  24.021  14.473
89152W        W50441  26.476  18.128  13.864
89153W        W50442   0.336  23.116  13.430
89154W        W50443  41.890  30.524   9.947
89155W        W50444  34.028  32.541   3.185
89156W        W50445  38.028   4.233   3.261
89157W        W50446   1.803   8.180   4.689
89158W        W50447   5.724  44.985   4.158
89159W        W50448   9.764  26.658   0.881
89160W        W50449  19.171  33.003  12.985
89161W        W50450  37.973  10.861  13.887
89162W        W50451  11.663  22.688  11.955
89163W        W50452   2.849  36.895  14.501
89164W        W50453  23.181  11.709   1.327
89165W        W50454   4.385   3.344   2.827
89166W        W50455  17.221  43.343  11.609
89167W        W50456   5.689  11.245   4.256
89168W        W50457  33.505  44.888  11.457
89169W        W50458  27.452   8.396   1.265
89170W        W50459  22.590   0.877   1.262
89171W        W50460  37.425  17.080   0.933
89172W        W50461  29.659   7.318  13.365
89173W        W50462  12.240   7.889   2.750
89174W        W50463   6.805   5.880  14.374
89175W        W50464   0.256  32.927   1.242
89176W        W50465  41.350  21.084   2.349
89177W        W50466  22.626  22.219  14.817
89178W        W50467  15.171  30.418  11.067
89179W        W50468  33.418   2.467  13.942
89180W        W50469  37.421  29.425  14.867
89181W        W50470   3.872  31.437   2.309
89182W        W50471  20.613  11.770   2.229
89183W        W50472  18.761   2.350  14.326
89184W        W50473  39.862  21.111   5.112
89185W        W50474  11.283  19.099   2.266
89186W        W50475  25.210  35.467  11.602
89187W        W50476  19.226  20.227  14.984
89188W        W50477  13.159  10.676   0.809
89189W        W50478   1.817  38.940  10.440
89190W        W50479   1.422  18.151  10.917
89191W        W50480   7.413  23.702   0.843
89192W        W50481  33.593   9.778  10.552
89193W        W50482  33.522  40.906  11.863
89194W        W50483  42.352  30.606   1.299
89195W        W50484   7.895  34.972   3.774
89196W        W50485   7.775  23.713  12.546
89197W        W50486  10.154   7.713   3.858
89198W        W50487  40.805  11.711   0.271
89199W        W50488  40.922  13.793  10.470
89200W        W50489  37.485  41.336  11.501
89201W        W50490  25.025  11.267   2.395
89202W        W50491  23.573  39.901  14.008
89203W        W50492  44.785  37.973  14.849
89204W        W50493   4.838   7.235  14.863
89205W        W50494  28.531  41.507   2.351
89206W        W50495  28.943   4.874   2.847
89207W        W50496  18.670  29.546  14.325
89208W        W50497   0.978   3.407   3.658
89209W        W50498  38.982  11.283   2.824
89210W        W50499  32.007   0.890   4.633
89211W        W50500  43.886  10.757  11.403
89212W        W50501  34.901  37.903   2.866
89213W        W50502  33.027  14.768   3.182
89214W        W50503   3.342   3.832   3.785
89215W        W50504  39.401  23.572  13.849
89216W        W50505  17.687  28.643   3.669
89217W        W50506  43.971  34.464  11.574
89218W        W50507   4.753  14.256  12.384
89219W        W50508  39.328  14.787   1.761
89220W        W50509   6.797  27.619  10.645
89221W        W50510   1.832  22.074  11.894
89222W        W50511   6.759  26.599   0.366
89223W        W50512  35.374  24.599  11.100
89224W        W50513  12.189   7.208   0.875
89225W        W50514   0.413  42.484   4.837
89226W        W50515  44.485  17.109  11.079
89227W        W50516  18.678   6.817   1.726
89228W        W50517   4.262  19.069  13.500
89229W        W50518  21.577   4.708  12.859
89230W        W50519  15.819  35.561   1.396
89231W        W50520  26.029  25.086   9.458
89232W        W50521  22.156  30.954   4.131
89233W        W50522   4.391  35.560   1.425
89234W        W50523   2.843   9.168   4.222
89235W        W50524  26.645   9.356  14.372
89236W        W50525  41.884   7.689  11.501
89237W        W50526  34.021  25.973  14.888
89238W        W50527  35.913  11.779   4.662
89239W        W50528   5.241   2.725  11.376
89240W        W50529  25.976   1.790   3.656
89241W        W50530  15.759  20.229   2.222
89242W        W50531  30.477  42.796  11.502
89243W        W50532  13.339  29.524  14.880
89244W        W50533  38.892  40.367   0.357
89245W        W50534  36.384   7.329   3.695
89246W        W50535  10.379  36.589   1.891
89247W        W50536   0.473  40.477  10.522
89248W        W50537  10.723  29.074   3.666
89249W        W50538   8.806  28.130  10.593
89250W        W50539  13.602  22.547   3.181
89251W        W50540  15.213  19.611  11.576
89252W        W50541   9.694  26.632   5.199
89253W        W50542  34.402  27.652   4.664
89254W        W50543  10.873  28.612  12.046
89255W        W50544  18.279  19.683  10.888
89256W        W50545   1.945   8.219  13.799
89257W        W50546  44.999   4.342   3.230
89258W        W50547  18.763   6.726  14.759
89259W        W50548  27.505  18.112  10.572
89260W        W50549  22.720   6.345  14.412
89261W        W50550  27.040  38.468  10.958
89262W        W50551  19.612  17.671  13.541
89263W        W50552  13.152   4.337  12.024
89264W        W50553  22.216   7.390  10.565
89265W        W50554  39.461  32.075   2.815
89266W        W50555  42.905  31.076  12.019
89267W        W50556  19.119  30.427  13.002
89268W        W50557   6.738  10.745   4.330
89269W        W50558  15.238   4.741   1.289
89270W        W50559  44.791  30.070  12.521
89271W        W50560  28.539  40.394  13.043
89272W        W50561   8.281  41.829  13.500
89273W        W50562  37.833  44.370  14.383
89274W        W50563  18.770  37.042   5.172
89275W        W50564  12.663  32.036   4.796
89276W        W50565  11.215  42.831  12.830
89277W        W50566  10.853  25.533   1.324
89278W        W50567   5.274  36.518   2.198
89279W        W50568   9.821   3.899   3.183
89280W        W50569  14.318  28.090   3.226
89281W        W50570  28.175  14.708   1.246
89282W        W50571  14.202  10.168  14.836
89283W        W50572   5.739  31.896  13.981
89284W        W50573  15.245  43.856  11.910
89285W        W50574  10.372  40.052   0.908
89286W        W50575   0.479  35.024   2.310
89287W        W50576  22.741  16.072   2.809
89288W        W50577  44.824  23.167   4.602
89289W        W50578  11.666  10.151  11.947
89290W        W50579  44.861   5.825  11.921
89291W        W50580  32.934  16.756  13.030
89292W        W50581   9.257   3.340   2.240
89293W        W50582   2.938  27.138  13.901
89294W        W50583  37.335   6.677   2.409
89295W        W50584  29.168  25.000   2.676
89296W        W50585  23.706  16.185  14.901
89297W        W50586   5.866  21.652   4.819
89298W        W50587  13.801  19.638  10.553
89299W        W50588  38.856  44.458  13.486
89300W        W50589  33.490  10.319   0.774
89301W        W50590  42.364   9.393   3.161
89302W        W50591  43.860   6.287  11.970
89303W        W50592  14.338  32.981  14.888
89304W        W50593  36.889  23.190  12.417
89305W        W50594  18.567  17.306   2.750
89306W        W50595  27.082   3.277  10.631
89307W        W50596   6.790  41.811  10.973
89308W        W50597  39.984   3.862  11.905
89309W        W50598  27.526   5.847   0.475
89310W        W50599  24.000  30.547  11.032
89311W        W50600   3.382   9.878   0.276
89312W        W50601  21.738   4.213   2.791
89313W        W50602  25.210   1.372   1.788
89314W        W50603  31.089   4.789  10.956
89315W        W50604  11.633  21.723  13.405
89316W        W50605   7.220   2.268  11.463
89317W        W50606  18.564  35.429  12.074
89318W        W50607  22.509  27.490   2.182
89319W        W50608   6.189  31.443  10.944
89320W        W50609  27.158  28.148  13.458
89321W        W50610  25.037  30.103   0.778
89322W        W50611  40.422  34.510   2.399
89323W        W50612  43.450  44.818  13.805
89324W        W50613  21.737  12.284   0.335
89325W        W50614  16.594  19.098   4.705
89326W        W50615   4.823  14.691  14.907
89327W        W50616   0.405  16.287  10.617
89328W        W50617  41.309  42.820  13.808
89329W        W50618   6.875  19.214   0.941
89330W        W50619   7.723  18.565   2.894
89331W        W50620  40.964  24.058  14.436
89332W        W50621  21.608  13.687   1.768
89333W        W50622  29.644  27.576   3.348
89334W        W50623  38.407  25.627   1.731
89335W        W50624  42.349  42.832   9.993
89336W        W50625   7.768  12.765  11.054
89337W        W50626   7.783   9.811  12.363
89338W        W50627  24.624  19.241   0.831
89339W        W50628  27.080  37.069  10.932
89340W        W50629  34.067  20.716   3.202
89341W        W50630  35.376   8.681   0.797
89342W        W50631  25.993  29.546   0.955
89343W        W50632  35.454  42.008   2.244
89344W        W50633  18.187  39.361  11.083
89345W        W50634   6.263  40.445   4.666
89346W        W50635  16.242  44.294  12.459
89347W        W50636  30.477   9.825   0.297
89348W        W50637  30.161   7.207  12.057
89349W        W50638  14.784   7.814   3.793
89350W        W50639  31.923  41.467  12.939
89351W        W50640  20.525  38.377   4.353
89352W        W50641  37.882   6.838   3.222
89353W        W50642  37.950  32.442  12.845
89354W        W50643  40.323   5.801   0.754
89355W        W50644  36.470  24.587   0.824
89356W        W50645  10.352  16.596   3.271
89357W        W50646  12.207  43.490   2.670
89358W        W50647  14.154  31.455  14.031
89359W        W50648  18.655  41.928   4.290
89360W        W50649  15.180   4.778   0.457
89361W        W50650  32.499  38.351  11.902
89362W        W50651  29.455  29.116  13.427
89363W        W50652  17.642  18.059  12.931
89364W        W50653  10.218  41.003  13.332
89365W        W50654   6.831  19.171  11.864
89366W        W50655  10.742   9.318  10.550
89367W        W50656  26.002  31.905   3.270
89368W        W50657  36.980  32.979   3.847
89369W        W50658  12.757  15.605  12.995
89370W        W50659   4.242  32.493  13.008
89371W        W50660  34.554  21.740   2.836
89372W        W50661   2.855  25.515   3.789
89373W        W50662   7.357  14.286   0.385
89374W        W50663  24.057  28.988   0.882
89375W        W50664  13.776  22.643   3.639
89376W        W50665  40.441  29.664  12.345
89377W        W50666  11.656   3.377  10.974
89378W        W50667  12.826   2.306  13.020
89379W        W50668   0.786  36.587   0.959
89380W        W50669   4.931   7.337  13.857
89381W        W50670   3.426  40.961  12.937
89382W        W50671  25.192  15.147  12.824
89383W        W50672  11.335  25.525  13.321
89384W        W50673  36.473   8.665  11.499
89385W        W50674  21.044   5.313   1.362
89386W        W50675  28.947  30.548  10.643
89387W        W50676  30.092  23.177   2.247
89388W        W50677  13.132  35.564   4.217
89389W        W50678  21.547  28.626   3.737
89390W        W50679  15.308  27.495   0.396
89391W        W50680  36.850  13.279   4.242
89392W        W50681  25.495  33.431  10.038
89393W        W50682  30.431  22.080  14.843
89394W        W50683  28.969  13.308  10.613
89395W        W50684  15.744  33.061   2.404
89396W        W50685  26.179  26.457   1.724
89397W        W50686   0.456  29.138  10.497
89398W        W50687  36.434  39.053  10.028
89399W        W50688  40.867  35.930  11.474
89400W        W50689  13.287  23.050   0.290
89401W        W50690  26.964   2.370   2.685
89402W        W50691  37.885  43.286  13.526
89403W        W50692  17.606  18.714  14.331
89404W        W50693  26.469  25.521  11.409
89405W        W50694   6.853   3.349  13.385
89406W        W50695  26.684   9.155   2.409
89407W        W50696  41.335  13.688   0.899
89408W        W50697   9.779  36.075  11.413
89409W        W50698  19.197  23.166   3.819
89410W        W50699  39.055  34.418   4.285
89411W        W50700  32.504  22.697   0.953
89412W        W50701  13.833  22.594  14.319
89413W        W50702  24.218  28.953  10.902
89414W        W50703  32.897  24.072  11.948
89415W        W50704   2.266   1.783   5.302
89416W        W50705   9.648   0.917   0.817
89417W        W50706   6.322   8.331  14.314
89418W        W50707  40.858  38.044  11.515
89419W        W50708  20.755  27.097   3.278
89420W        W50709  28.078  31.931   4.620
89421W        W50710   4.234  11.281  13.444
89422W        W50711  40.872  17.645   1.409
89423W        W50712  23.503  38.876   4.740
89424W        W50713  21.077  16.765  10.915
89425W        W50714  39.443  42.989  11.586
89426W        W50715  20.683  30.417  10.586
89427W        W50716  14.731  35.884  12.942
89428W        W50717  14.188   2.767   0.323
89429W        W50718  14.719   4.807  13.063
89430W        W50719  44.807  18.115   2.183
89431W        W50720  37.059  37.981  12.460
89432W        W50721   7.415  18.136   1.359
89433W        W50722  33.397  25.471  12.971
89434W        W50723  34.894  32.076   2.822
89435W        W50724  44.811  37.381   2.403
89436W        W50725  34.390  12.153   2.871
89437W        W50726   0.967  43.802  13.804
89438W        W50727  27.067  24.214  13.906
89439W        W50728  26.590  14.834   1.251
89440W        W50729   5.227  37.903  12.008
89441W        W50730  44.852  26.182  13.509
89442W        W50731  38.518  40.996  14.462
89443W        W50732  19.243  30.090   4.330
89444W        W50733  19.542  35.430  11.862
89445W        W50734   3.757  18.571  11.860
89446W        W50735  21.626  42.461  13.878
89447W        W50736  34.039  13.661   4.126
89448W        W50737  19.676   4.890   1.337
89449W        W50738   9.268  42.827   0.848
89450W        W50739   1.296  29.156   3.727
89451W        W50740  28.626  10.377  11.383
89452W        W50741  26.543  23.714  11.916
89453W        W50742  34.614   7.356  13.892
89454W        W50743  32.925   7.182  11.092
89455W        W50744   9.164  26.696  14.803
89456W        W50745  25.631  11.273   1.816
89457W        W50746   0.747   3.342   1.265
89458W        W50747  21.631  21.089  14.495
89459W        W50748  36.876  36.031  14.462
89460W        W50749  24.641  19.594   9.994
89461W        W50750  26.518  16.571   3.155
89462W        W50751   4.865  33.940   3.657
89463W        W50752  17.086   0.453  14.905
89464W        W50753   0.874  31.124   9.966
89465W        W50754  30.610  41.928   5.276
89466W        W50755  23.092  19.706   2.200
89467W        W50756  36.024  16.649   2.264
89468W        W50757  42.916  10.262  11.442
89469W        W50758   9.260  17.100  10.952
89470W        W50759   9.839  30.506  12.539
89471W        W50760  40.514  44.805   2.807
89472W        W50761   5.861  40.498  12.580
89473W        W50762  41.401  25.584  11.492
89474W        W50763  25.994  11.286   1.244
89475W        W50764  27.633  27.040  12.426
89476W        W50765   9.232   0.283   0.437
89477W        W50766   0.915  43.886   0.376
89478W        W50767  10.660  25.064  13.876
89479W        W50768  31.571   3.358   3.743
89480W        W50769  39.514  19.718   1.324
89481W        W50770  20.182  16.593  13.509
89482W        W50771   0.747   5.246   2.704
89483W        W50772  31.904   8.881   1.894
89484W        W50773  27.128  23.652   4.335
89485W        W50774  18.563  15.770   3.145
89486W        W50775  33.594  31.100   4.345
89487W        W50776   0.443  25.052   3.667
89488W        W50777  14.177  37.570  12.986
89489W        W50778   9.345  42.523  12.350
89490W        W50779  42.494  17.684  11.069
89491W        W50780  31.987  38.032   1.233
89492W        W50781   8.795  27.957   1.238
89493W        W50782  22.108  31.120  14.943
89494W        W50783  21.229   6.201  10.556
89495W        W50784  25.136   7.741  13.827
89496W        W50785  34.456   4.896   2.768
89497W        W50786  11.207   6.731   2.754
89498W        W50787   2.726  39.527   3.732
89499W        W50788  13.680   6.323  14.981
89500W        W50789  15.243  36.973  14.842
89501W        W50790  13.790  26.662   0.360
89502W        W50791  29.021  11.233  14.417
89503W        W50792  32.470   3.370  11.426
89504W        W50793  29.650  12.799   3.842
89505W        W50794  14.760  35.877   5.288
89506W        W50795   4.932  18.254  10.109
89507W        W50796   0.252  27.085   3.219
89508W        W50797   4.376  43.848   1.307
89509W        W50798  36.479  30.429   3.802
89510W        W50799   4.845  27.162  11.533
89511W        W50800  15.089   8.290  10.642
89512W        W50801  43.849  42.862  10.994
89513W        W50802  31.130  19.574   4.240
89514W        W50803  37.518  25.572   2.700
89515W        W50804  40.974  30.932  11.100
89516W        W50805  23.721   0.954  11.889
89517W        W50806   6.840  40.807  10.987
89518W        W50807  39.361  25.153  14.286
89519W        W50808   3.845   2.751   2.193
89520W        W50809  25.558   5.723  13.016
89521W        W50810  10.811   5.339  12.955
89522W        W50811   5.868  40.402  14.944
89523W        W50812   6.303  12.847  12.962
89524W        W50813   6.846   8.376   4.182
89525W        W50814  19.724   6.746  13.346
89526W        W50815  10.244  43.421   0.930
89527W        W50816  35.407   4.743  11.904
89528W        W50817  33.405   8.385   1.402
89529W        W50818   5.313  28.126   4.685
89530W        W50819  38.866  25.532  12.400
89531W        W50820  37.538  28.089   1.831
89532W        W50821   1.911   8.212  11.553
89533W        W50822  20.536  23.213  12.868
89534W        W50823  36.973  40.003   2.661
89535W        W50824   2.921  15.597   4.748
89536W        W50825  34.536   0.968   0.852
89537W        W50826  18.718  41.887   3.638
89538W        W50827  21.690   6.288   0.450
89539W        W50828  26.967   9.345   2.222
89540W        W50829  14.679   8.371  13.887
89541W        W50830  27.525  36.961  12.557
89542W        W50831  26.643  39.356   2.720
89543W        W50832  12.774  16.315   4.338
89544W        W50833  36.544  21.623  12.385
89545W        W50834  14.714  40.365  10.619
89546W        W50835  35.858   0.951   2.320
89547W        W50836  28.088  11.621   2.692
89548W        W50837  22.231  37.532   0.392
89549W        W50838   3.276  41.302  12.580
89550W        W50839  21.092  10.335   4.239
89551W        W50840  35.446  29.503  14.424
89552W        W50841   3.838  21.742   4.726
89553W        W50842   0.985   7.282   1.421
89554W        W50843  38.826   6.908  13.020
89555W        W50844  38.906  32.603  11.432
89556W        W50845  14.745  11.270   0.926
89557W        W50846  21.678  21.722   5.770
89558W        W50847  21.545  44.291  13.042
89559W        W50848  21.099  31.447  14.343
89560W        W50849  10.150  16.194  11.923
89561W        W50850  13.190  25.007   1.324
89562W        W50851   4.736  28.179  11.491
89563W        W50852  38.392  31.950  14.841
89564W        W50853  12.722  27.142   4.788
89565W        W50854  14.718  14.251  12.578
89566W        W50855  24.702  40.895  14.826
89567W        W50856  10.241  25.600   3.177
89568W        W50857   7.718  12.310   2.689
89569W        W50858  25.560   7.787  13.955
89570W        W50859   6.192  43.474  14.403
89571W        W50860   4.840  23.193   4.353
89572W        W50861  41.532  12.238   4.115
89573W        W50862  16.763  18.290  11.609
89574W        W50863  30.931  22.632  13.039
89575W        W50864   6.730  33.540  11.911
89576W        W50865  14.325  42.438  12.052
89577W        W50866  25.056  25.508  12.473
89578W        W50867  17.294  12.745   3.781
89579W        W50868  20.169  42.806   0.812
89580W        W50869  17.600  12.735   2.178
89581W        W50870  43.938  25.973  11.373
89582W        W50871   6.329  23.079  10.977
89583W        W50872  29.538  31.613  12.873
89584W        W50873   3.722  14.649  12.859
89585W        W50874  28.017  34.933  11.486
89586W        W50875  15.110  41.466   1.817
89587W        W50876   2.723  17.068   1.823
89588W        W50877  18.148  31.412  12.443
89589W        W50878  31.153  32.977  14.420
89590W        W50879  43.901  26.679   3.655
89591W        W50880  16.805  19.726   3.315
89592W        W50881  14.811  12.209   4.803
89593W        W50882  25.183   9.343   5.189
89594W        W50883  39.469  15.089  12.845
89595W        W50884  20.047  25.663  14.504
89596W        W50885   8.702  44.844  14.466
89597W        W50886   1.937  24.016  13.354
89598W        W50887   0.254  22.615   1.402
89599W        W50888  29.159   0.774  12.541
89600W        W50889  33.075  35.434  14.466
89601W        W50890  21.598  35.545   4.308
89602W        W50891  19.164  13.733   2.329
89603W        W50892  42.889  37.878   4.807
89604W        W50893  24.680  17.770  14.941
89605W        W50894  21.179   9.276  11.499
89606W        W50895   4.243  24.499   5.799
89607W        W50896  37.996  33.614   0.339
89608W        W50897  22.210  23.198  12.080
89609W        W50898   9.240   1.771   9.994
89610W        W50899  44.868  34.490  14.504
89611W        W50900  43.019  12.835   0.752
89612W        W50901  25.701   0.976   2.193
89613W        W50902  18.668  36.366  13.929
89614W        W50903  39.476  19.662   4.119
89615W        W50904  39.984   9.888  13.912
89616W        W50905  13.773  43.322   4.306
89617W        W50906  26.067  20.059   0.283
89618W        W50907  14.830  33.467   3.308
89619W        W50908   6.700  32.426  14.023
89620W        W50909  30.526  21.721  13.820
89621W        W50910  29.527  19.621  14.449
89622W        W50911  37.952   0.455  10.512
89623W        W50912  22.059  23.069  14.822
89624W        W50913  40.509  41.427   4.671
89625W        W50914  22.605  22.747   4.654
89626W        W50915  44.966  33.481   3.866
89627W        W50916  39.328  36.846  13.045
89628W        W50917   4.437   4.324  12.914
89629W        W50918  20.581   9.327  12.892
89630W        W50919  11.127  20.262   1.871
89631W        W50920  11.772  25.625  14.931
89632W        W50921  31.584  18.288   2.794
89633W        W50922  15.664  19.265  10.914
89634W        W50923  27.586  27.459   4.800
89635W        W50924   6.391  39.983  10.950
89636W        W50925  13.175  23.537  11.403
89637W        W50926  29.066  18.140  12.998
89638W        W50927  42.805  21.554  11.560
89639W        W50928   5.779  19.045   1.891
89640W        W50929   1.398  26.002   2.864
89641W        W50930  18.060  34.594   3.302
89642W        W50931  11.151  20.639   4.311
89643W        W50932  32.039   1.972  12.339
89644W        W50933  41.293  30.093  14.283
89645W        W50934  32.542  44.835   4.820
89646W        W50935  16.277   7.840   3.212
89647W        W50936  24.505  29.637  14.951
89648W        W50937   9.838  32.609  12.930
89649W        W50938  21.093   7.342  14.352
89650W        W50939  11.225  36.929   3.371
89651W        W50940  35.486  28.586  14.302
89652W        W50941  34.519   6.232   1.803
89653W        W50942  42.940   6.733   0.800
89654W        W50943  16.606  16.238  10.484
89655W        W50944  20.619   6.390  11.922
89656W        W50945   9.153   2.444  14.456
89657W        W50946   9.845   7.348  12.090
89658W        W50947  31.047  28.465  11.937
89659W        W50948  21.702   6.858   4.256
89660W        W50949  10.342  30.994   4.210
89661W        W50950  37.439  40.463   3.195
89662W        W50951  13.636  44.397  13.875
89663W        W50952  43.480  27.565   3.772
89664W        W50953   0.887   9.780  10.928
89665W        W50954   2.930  31.071  12.992
89666W        W50955  24.500  27.100   1.853
89667W        W50956  30.482  35.403   2.351
89668W        W50957   9.238  12.624  10.465
89669W        W50958  43.292  42.983  11.111
89670W        W50959   0.437  14.292  11.590
89671W        W50960  14.604  35.418   3.203
89672W        W50961  15.180  36.885   1.318
89673W        W50962  12.612   9.275  14.879
89674W        W50963  10.145  14.300   1.933
89675W        W50964  15.151  43.394  13.865
89676W        W50965  15.097  35.568  11.058
89677W        W50966  11.332  24.623  13.494
89678W        W50967   6.777  35.987  14.275
89679W        W50968  11.652  27.044  11.490
89680W        W50969  29.940  30.487   3.764
89681W        W50970  12.276   6.856  12.073
89682W        W50971  36.377  25.159   1.252
89683W        W50972  40.394  16.207   1.862
89684W        W50973   0.955  41.942  10.479
89685W        W50974  23.141  27.170   1.256
89686W        W50975  10.816  14.295  10.949
89687W        W50976  37.847   5.857   4.227
89688W        W50977  16.635  33.470  14.871
89689W        W50978   1.837  38.399   2.773
89690W        W50979  14.161  21.079   0.307
89691W        W50980  25.974   7.846   4.814
89692W        W50981  43.409   3.870   4.350
89693W        W50982  38.825  44.767   1.879
89694W        W50983   3.816  43.389   0.318
89695W        W50984  19.261  18.681  11.486
89696W        W50985   6.209  22.512  13.368
89697W        W50986  31.416  39.035   1.322
89698W        W50987  42.348  11.738   2.723
89699W        W50988  19.116  12.839   3.750
89700W        W50989  31.536  19.153  12.851
89701W        W50990  35.068  43.442  13.046
89702W        W50991  37.427  21.712  10.564
89703W        W50992  36.884  41.024  13.377
89704W        W50993  31.085  38.838   5.209
89705W        W50994   0.951  11.330   4.747
89706W        W50995  33.992   4.337  14.347
89707W        W50996  33.588  36.444   1.789
89708W        W50997  42.851  29.074  10.564
89709W        W50998  10.685  15.321   3.252
89710W        W50999  18.226  38.921  12.391
89711W        W51000  30.501  44.260   2.769
89712W        W51001  44.858  32.086   4.350
89713W        W51002  11.332  38.377  12.880
89714W        W51003  42.461  15.173  14.491
89715W        W51004   1.757  43.476   2.206
89716W        W51005  31.574   0.455  10.064
89717W        W51006  17.690  23.062   2.300
89718W        W51007  31.506  25.090   1.799
89719W        W51008   2.789  22.552  11.450
89720W        W51009   4.297  39.973  12.411
89721W        W51010  18.756  40.797   1.910
89722W        W51011   1.975   1.356  13.993
89723W        W51012  24.130  44.467   4.792
89724W        W51013   9.280   6.347   1.905
89725W        W51014  17.633  11.209   0.318
89726W        W51015  17.752   0.854  12.427
89727W        W51016  17.773  17.796  14.289
89728W        W51017  31.484  36.522   3.649
89729W        W51018  13.625  38.890   4.671
89730W        W51019  13.802  32.888  12.927
89731W        W51020  16.586  20.264   2.888
89732W        W51021  44.935  21.146  12.518
89733W        W51022  10.295  11.690  13.328
89734W        W51023   9.806  43.816   1.385
89735W        W51024  18.612   8.361   1.798
89736W        W51025  25.672  12.191   0.893
89737W        W51026   0.467  18.096  11.455
89738W        W51027  39.829  12.740  12.063
89739W        W51028  33.972  40.858  12.952
89740W        W51029  29.010  25.151  11.477
89741W        W51030  23.560  10.736  13.860
89742W        W51031   9.852  14.150  11.974
89743W        W51032   1.862  12.721  14.291
89744W        W51033  32.054  22.168  14.029
89745W        W51034  19.572  12.816   2.747
89746W        W51035  29.055   8.391   4.613
89747W        W51036  12.694   1.279  10.517
89748W        W51037  44.782  33.596  10.159
89749W        W51038  31.054  40.455  12.853
89750W        W51039  24.620  20.247  10.915
89751W        W51040  37.497  11.193  14.386
89752W        W51041  22.149  14.098   2.760
89753W        W51042  40.388  44.925   0.747
89754W        W51043  11.359  35.104  11.452
89755W        W51044  20.273  34.521  10.109
89756W        W51045  10.230  26.525   4.620
89757W        W51046  38.073  13.709  10.493
89758W        W51047  43.949   7.786   0.945
89759W        W51048  32.965  11.681  11.567
89760W        W51049  13.320  13.771  12.024
89761W        W51050   8.656  20.209   4.768
89762W        W51051   6.315  20.116   0.376
89763W        W51052  15.679  40.838  13.004
89764W        W51053  23.171   3.789   0.808
89765W        W51054  41.853   3.255  12.056
89766W        W51055  30.162  27.172  13.401
89767W        W51056   7.291  10.693   4.290
89768W        W51057  22.103  33.098   1.225
89769W        W51058  34.495  27.159   1.449
89770W        W51059  32.476   3.416   4.805
89771W        W51060  29.483  33.488   9.940
89772W        W51061  16.659   7.753  14.475
89773W        W51062  33.580  40.482   2.749
89774W        W51063   4.718  36.972  13.425
89775W        W51064  30.003  17.267  11.884
89776W        W51065   2.400  25.475   1.402
89777W        W51066  40.814   2.232  13.837
89778W        W51067  41.951   9.699  11.404
89779W        W51068   4.337  29.426   1.409
89780W        W51069  13.190  33.563   4.184
89781W        W51070  34.950  17.126   4.308
89782W        W51071  39.387   3.711   2.282
89783W        W51072   3.726  34.523   4.275
89784W        W51073  20.232  30.633  12.551
89785W        W51074  33.875  26.989   3.718
89786W        W51075  41.538  11.859   1.770
89787W        W51076  37.914  36.583  12.832
89788W        W51077   5.916  29.045  14.350
89789W        W51078   6.697  42.365   1.334
89790W        W51079   2.350   5.365   4.753
89791W        W51080   9.870  17.286  12.353
89792W        W51081  29.555  23.232  11.040
89793W        W51082  33.045   5.273  11.572
89794W        W51083   5.294  10.214   2.409
89795W        W51084  41.349  28.062  10.933
89796W        W51085  38.427  19.604  13.930
89797W        W51086  26.662  41.984   4.301
89798W        W51087  23.041  15.104  12.530
89799W        W51088   0.328  13.809   0.473
89800W        W51089  16.257  39.853   1.384
89801W        W51090   1.304  11.149   4.143
89802W        W51091   5.370  14.685  12.969
89803W        W51092  26.109  30.145   4.229
89804W        W51093  24.679  26.095   5.200
89805W        W51094  19.758   7.382  12.486
89806W        W51095  10.279   5.837  10.970
89807W        W51096   3.803  24.627   2.717
89808W        W51097  37.929  35.095   3.345
89809W        W51098   2.885   3.264  12.539
89810W        W51099   7.406   5.349  14.446
89811W        W51100   0.397  15.267   2.319
89812W        W51101   9.369  20.243   2.804
89813W        W51102  35.410  12.256  13.411
89814W        W51103  41.321  18.617   2.779
89815W        W51104  13.215  26.185  13.945
89816W        W51105  25.592  30.127  12.401
89817W        W51106  20.114  35.989  14.906
89818W        W51107   6.378  44.825   2.214
89819W        W51108  34.519  32.051   2.302
89820W        W51109  23.182  11.780  13.809
89821W        W51110  33.956   0.779   1.339
89822W        W51111  14.108  18.688   2.875
89823W        W51112   6.414  11.350  12.041
89824W        W51113  34.462   7.825   3.300
89825W        W51114  30.919   2.891  11.974
89826W        W51115   2.758  44.334   3.345
89827W        W51116  40.398  40.472   0.250
89828W        W51117   2.904  40.013   3.834
89829W        W51118  11.222  16.157   2.373
89830W        W51119  24.707  25.606   1.918
89831W        W51120  28.104   1.898  14.924
89832W        W51121  17.135  40.397   5.199
89833W        W51122  25.707  18.163  12.085
89834W        W51123  29.655  30.920   1.244
89835W        W51124  40.324  38.508  11.425
89836W        W51125  27.619  10.248  10.623
89837W        W51126  11.686  31.043  11.926
89838W        W51127  27.084   0.388  10.966
89839W        W51128  22.101  15.219  12.966
89840W        W51129   1.915  40.809  11.007
89841W        W51130  10.300  40.473   4.691
89842W        W51131  40.947   5.288  14.854
89843W        W51132  16.596  17.142   1.906
89844W        W51133  32.137   0.769   5.209
89845W        W51134  38.385  19.652   4.693
89846W        W51135   5.376  14.168   3.160
89847W        W51136  32.109  13.841  12.071
89848W        W51137   4.440  33.011   2.289
89849W        W51138   0.382   0.416  14.973
89850W        W51139   5.411  23.155   0.296
89851W        W51140   3.789   9.160  13.846
89852W        W51141  19.556  35.034   3.760
89853W        W51142   5.328  40.522  10.921
89854W        W51143  31.934  34.891  13.930
89855W        W51144  22.095  15.243   1.812
89856W        W51145  43.816  39.864  11.033
89857W        W51146  19.564  27.005  12.415
89858W        W51147  30.040   8.819   1.411
89859W        W51148  26.525   7.769  11.408
89860W        W51149  21.535   2.924  11.448
89861W        W51150  26.959  41.397   3.240
89862W        W51151  40.464  13.218  13.512
89863W        W51152  36.522  27.600  12.883
89864W        W51153  30.928  22.075  10.465
89865W        W51154  17.103  31.502  13.387
89866W        W51155  31.918  42.926  14.468
89867W        W51156  12.644   4.216  10.434
89868W        W51157  24.536  27.642  13.328
89869W        W51158  35.003   2.373   0.920
89870W        W51159  18.609  19.766  14.452
89871W        W51160  23.583   2.919  13.503
89872W        W51161   1.361  16.766   4.603
89873W        W51162  25.190  39.057  13.326
89874W        W51163  12.268   9.196  13.941
89875W        W51164   2.364  17.773   0.865
89876W        W51165   0.324  32.569   1.239
89877W        W51166   6.253  20.171   1.820
89878W        W51167  27.053  39.967  11.927
89879W        W51168  15.195  13.734  11.410
89880W        W51169  30.965  39.526  12.859
89881W        W51170  24.155  18.287  12.957
89882W        W51171   9.363  20.081   0.911
89883W        W51172  10.811  25.656  11.444
89884W        W51173  44.882  25.693   1.894
89885W        W51174  29.498  26.067   4.790
89886W        W51175   5.240  15.095  13.028
89887W        W51176   9.687  25.065  14.835
89888W        W51177  32.886  26.041   1.930
89889W        W51178  37.463  25.569   4.279
89890W        W51179  25.047  22.536   5.115
89891W        W51180   2.452  18.264   3.634
89892W        W51181  30.107  31.509  12.885
89893W        W51182   6.319  35.537   1.763
89894W        W51183  28.496   6.919   1.862
89895W        W51184  28.126  22.206  13.403
89896W        W51185   7.232  10.340   2.271
89897W        W51186  28.493  17.794  10.992
89898W        W51187   1.422   7.336   1.794
89899W        W51188  43.506   6.301  12.057
89900W        W51189   1.446  10.379   3.233
89901W        W51190  37.461  43.821   4.696
89902W        W51191   9.709   0.922  12.935
89903W        W51192  40.999  31.418  14.981
89904W        W51193  37.499   1.441  14.819
89905W        W51194  24.664  32.557   2.835
89906W        W51195  29.618  37.963   1.781
89907W        W51196  18.233  18.695  10.928
89908W        W51197  38.008   0.465   4.686
89909W        W51198  12.718  37.414   2.321
89910W        W51199  42.469   5.421  14.958
89911W        W51200  44.793   3.884  10.948
89912W        W51201  21.654  24.027  11.569
89913W        W51202  28.973  23.084   3.858
89914W        W51203  16.762   8.771  13.467
89915W        W51204  33.413  13.606  12.011
89916W        W51205   8.301   9.736  12.881
89917W        W51206  16.802  29.607   0.440
89918W        W51207  11.296   3.937  11.976
89919W        W51208  42.828  12.636  10.902
89920W        W51209   2.361  18.587  11.515
89921W        W51210  18.181  13.136  13.487
89922W        W51211  19.177  30.427  11.448
89923W        W51212   8.232  12.709   2.310
89924W        W51213   2.291   7.895  14.820
89925W        W51214  43.887  36.078   0.843
89926W        W51215   6.766  31.461   2.216
89927W        W51216   2.331   3.399   3.256
89928W        W51217  38.426  30.002   3.632
89929W        W51218  33.606  38.913  12.921
89930W        W51219  15.260   9.263   4.634
89931W        W51220  42.490  33.925  10.495
89932W        W51221  39.836  18.182  11.380
89933W        W51222  27.127  37.003   0.894
89934W        W51223  33.018  44.405  12.890
89935W        W51224  33.529   0.301   4.126
89936W        W51225  22.200  10.224  14.362
89937W        W51226  38.567   1.742   3.721
89938W        W51227  15.668  22.681  11.507
89939W        W51228  35.553  16.775   1.303
89940W        W51229   3.407   9.201   0.417
89941W        W51230   3.740  27.160  14.396
89942W        W51231  43.510   4.254   3.343
89943W        W51232  28.677   5.723   4.149
89944W        W51233   3.234   9.354   2.883
89945W        W51234  42.374  23.119   4.836
89946W        W51235   6.282  25.100  11.406
89947W        W51236   4.939  34.602   2.791
89948W        W51237  21.223  30.074   4.338
89949W        W51238  41.791   8.256  12.829
89950W        W51239  18.116  24.187  11.952
89951W        W51240   3.806  27.554  10.999
89952W        W51241  20.541  22.154  13.857
89953W        W51242  16.121  25.714   2.875
89954W        W51243   4.390  20.211  14.842
89955W        W51244  25.079  10.635  11.436
89956W        W51245  14.151   4.405  14.820
89957W        W51246  17.237  16.111  11.516
89958W        W51247   5.300  10.181   0.754
89959W        W51248  20.229   4.299  13.801
89960W        W51249  10.264  37.537  12.513
89961W        W51250  29.024  37.406  14.513
89962W        W51251  42.519   7.261  12.383
89963W        W51252  17.714  27.546  13.822
89964W        W51253   6.788   9.802   3.752
89965W        W51254   2.758  13.208  10.544
89966W        W51255  16.073  16.132   0.309
89967W        W51256  11.291  31.626   0.740
89968W        W51257   3.390  27.157  10.069
89969W        W51258  10.144  21.643   4.810
89970W        W51259  22.528  36.852  10.894
89971W        W51260  14.246   3.241  11.596
89972W        W51261   2.238  14.813  11.891
89973W        W51262   6.857   7.358   3.657
89974W        W51263  19.646  40.469   5.081
89975W        W51264  30.583  21.640   4.771
89976W        W51265  20.240  16.250  14.473
89977W        W51266   9.334  37.936  14.433
89978W        W51267  21.050   1.796  14.348
89979W        W51268   4.792  10.718  11.539
89980W        W51269  34.923   3.407  11.547
89981W        W51270  13.235  26.622  11.101
89982W        W51271   2.457  40.530  14.295
89983W        W51272  32.075  40.506   2.373
89984W        W51273  22.692  21.535  14.958
89985W        W51274  25.528  15.251   3.639
89986W        W51275  39.406  13.811   4.272
89987W        W51276   8.203  38.370  14.790
89988W        W51277  31.480   1.450  13.399
89989W        W51278  17.724  36.468   4.708
89990W        W51279   2.778  24.987   1.215
89991W        W51280  18.641  39.431   4.236
89992W        W51281  41.462  38.451  13.891
89993W        W51282   0.954  40.827   2.217
89994W        W51283  20.751   1.401  12.565
89995W        W51284  10.712   7.900   4.624
89996W        W51285  41.375  31.095   0.935
89997W        W51286  12.262  23.720   2.879
89998W        W51287  35.433  28.048   1.446
89999W        W51288   4.346  16.576  12.497
90000W        W51289  13.200  40.968   3.316
90001W        W51290  42.386  39.540  13.455
90002W        W51291  17.635  30.602  12.832
90003W        W51292   2.246  19.606   5.219
90004W        W51293  28.610  11.136   9.677
90005W        W51294  33.525  11.241   1.800
90006W        W51295  18.710  39.504  11.090
90007W        W51296   2.273  30.923  11.584
90008W        W51297  42.391  27.583   0.451
90009W        W51298  39.872   4.827  13.862
90010W        W51299  12.145   0.413  12.430
90011W        W51300  20.246  29.469  12.409
90012W        W51301  19.742  18.745   4.603
90013W        W51302  28.637  21.060   1.348
90014W        W51303  42.843   8.787   1.406
90015W        W51304  19.083  18.121   3.833
90016W        W51305   0.301  40.531   0.950
90017W        W51306  10.632  17.610  13.346
90018W        W51307  32.049  43.399   4.351
90019W        W51308  22.043  27.127  14.309
90020W        W51309   9.863  10.856  14.299
90021W        W51310  28.065  43.387  12.844
90022W        W51311  17.181  21.179  14.856
90023W        W51312   5.737  28.122   0.389
90024W        W51313   5.769  19.190  11.455
90025W        W51314  33.513   3.765   5.741
90026W        W51315  13.225   5.747  13.484
90027W        W51316  39.371  26.155  11.487
90028W        W51317  11.361   7.197  11.601
90029W        W51318  40.015  29.133   2.684
90030W        W51319   4.368  32.951  13.534
90031W        W51320  22.525  35.861  13.999
90032W        W51321  29.453  11.833  11.399
90033W        W51322  38.418  31.451  11.458
90034W        W51323  41.012  26.511  13.418
90035W        W51324   9.349   4.856  13.481
90036W        W51325   7.197  11.690   4.287
90037W        W51326  35.052   5.797   2.201
90038W        W51327  33.988  14.160   3.827
90039W        W51328   2.882  40.857   3.739
90040W        W51329  15.205  39.413   5.741
90041W        W51330   0.296  21.600   1.218
90042W        W51331  17.236   9.199   4.619
90043W        W51332  29.599  37.857   4.713
90044W        W51333  11.838  41.799  12.364
90045W        W51334  35.046   1.260   2.815
90046W        W51335  21.222  31.497   2.378
90047W        W51336  15.718  43.377   0.345
90048W        W51337  42.429  24.686  13.970
90049W        W51338   2.345   7.792  13.830
90050W        W51339  42.835  20.660  11.101
90051W        W51340  37.869  18.123   1.240
90052W        W51341  11.678  39.902   1.247
90053W        W51342  24.146  36.938   0.338
90054W        W51343  44.368  18.295  12.885
90055W        W51344   8.329  42.963  11.859
90056W        W51345   3.761  24.607   0.893
90057W        W51346   1.747  20.621   4.783
90058W        W51347  16.101   2.912  11.606
90059W        W51348  26.118  21.709   2.803
90060W        W51349   8.304  27.507  11.412
90061W        W51350  37.437   2.721  12.560
90062W        W51351  44.783  29.978  11.459
90063W        W51352  31.920  25.557   3.729
90064W        W51353  24.666  30.135   0.374
90065W        W51354  21.578  15.153  14.388
90066W        W51355  35.965  27.179   4.277
90067W        W51356  11.760  23.207  14.882
90068W        W51357   6.846  10.859  11.589
90069W        W51358   0.324  28.611   3.720
90070W        W51359  19.657   3.451   2.757
90071W        W51360   1.248   7.702  11.025
90072W        W51361  41.818  30.440  11.981
90073W        W51362  44.882  27.526  13.451
90074W        W51363   0.782  44.965   1.844
90075W        W51364  19.745  39.869  13.887
90076W        W51365   3.812  34.995   2.224
90077W        W51366  34.047  12.630   2.369
90078W        W51367  43.390   1.876   2.391
90079W        W51368  41.374  21.690  12.453
90080W        W51369  27.004   7.364  12.982
90081W        W51370  36.465   2.468   3.732
90082W        W51371  22.093  38.910  11.937
90083W        W51372  25.601   5.764   1.243
90084W        W51373  37.401  34.467   2.850
90085W        W51374  17.575  17.236   1.757
90086W        W51375  28.145  29.074  12.562
90087W        W51376   7.193  38.370   1.755
90088W        W51377  36.932   5.357  11.478
90089W        W51378  24.510  32.138  12.041
90090W        W51379  36.559  34.893   2.859
90091W        W51380  44.423  18.584  11.004
90092W        W51381  44.927  20.724  13.016
90093W        W51382  11.794  30.135  10.592
90094W        W51383   4.903  13.638  11.879
90095W        W51384  32.444  30.935  13.484
90096W        W51385  17.757   9.220   1.376
90097W        W51386  38.448  38.927  14.780
90098W        W51387  44.885   1.789   1.289
90099W        W51388  30.010  19.155  10.409
90100W        W51389  39.457  28.667   1.744
90101W        W51390   8.176  22.024   2.901
90102W        W51391  36.936  14.825  14.490
90103W        W51392  13.252  18.789   4.150
90104W        W51393  40.445   2.436  14.451
90105W        W51394  12.775  43.782  11.878
90106W        W51395  10.669  39.514   3.235
90107W        W51396   9.193  35.363   0.903
90108W        W51397  26.522  29.147  14.353
90109W        W51398  40.449  44.272   1.710
90110W        W51399  19.583  18.718  10.910
90111W        W51400  35.108  21.688  13.384
90112W        W51401  29.009   0.452   4.707
90113W        W51402   6.810  27.475  12.491
90114W        W51403  13.718  20.522   1.811
90115W        W51404  42.957   6.242   1.801
90116W        W51405  12.624  24.195   2.262
90117W        W51406  31.450  14.766   2.284
90118W        W51407  24.081   2.831  10.537
90119W        W51408  17.752  26.192  14.507
90120W        W51409   0.278  18.620  14.795
90121W        W51410  39.407   5.700   1.758
90122W        W51411  30.626  26.482   3.228
90123W        W51412   2.308  11.805  10.461
90124W        W51413  36.026  27.561  10.909
90125W        W51414  13.685  32.574  11.924
90126W        W51415  10.143  33.569  10.125
90127W        W51416  38.985  32.062   2.390
90128W        W51417  28.675  17.715   0.460
90129W        W51418   2.362  17.774  13.482
90130W        W51419  14.119  25.219   1.272
90131W        W51420  39.870   3.709   2.221
90132W        W51421   3.282  34.527  14.949
90133W        W51422  38.454   7.875  10.619
90134W        W51423  34.394  25.009   2.376
90135W        W51424  28.480  31.942  12.419
90136W        W51425   5.709  29.644  10.645
90137W        W51426  27.613  33.999  14.800
90138W        W51427  33.041  20.576  12.826
90139W        W51428  10.815  20.646   1.275
90140W        W51429  16.309  35.512  12.083
90141W        W51430  34.485   5.263  13.319
90142W        W51431  38.010  35.037   0.369
90143W        W51432  36.918  41.517  12.855
90144W        W51433  17.627  27.479  12.858
90145W        W51434  23.733  43.852  14.499
90146W        W51435  26.544   5.353   2.776
90147W        W51436  40.436  42.884  11.926
90148W        W51437  32.527  37.479   4.222
90149W        W51438  34.904  20.687  14.023
90150W        W51439  38.471   6.229   3.272
90151W        W51440  31.433  31.602  12.552
90152W        W51441  32.425  19.072   2.309
90153W        W51442  17.093  14.159   0.787
90154W        W51443   9.715  32.040  13.447
90155W        W51444   7.809  18.690  13.994
90156W        W51445  18.744  16.132   0.781
90157W        W51446   0.312  23.018  14.889
90158W        W51447   7.317  13.730  11.492
90159W        W51448  21.566  25.656  13.347
90160W        W51449   4.393  22.109   5.213
90161W        W51450   5.369   8.745   1.252
90162W        W51451  12.249   2.897   3.747
90163W        W51452  33.879  33.091  14.386
90164W        W51453  35.385   9.847   3.173
90165W        W51454  26.547  18.057   3.317
90166W        W51455  22.160  35.962  12.974
90167W        W51456  27.659   0.844   0.867
90168W        W51457  12.688  30.589   2.288
90169W        W51458  11.308  31.954  13.008
90170W        W51459   1.800  30.446  14.476
90171W        W51460  11.226   5.888   4.654
90172W        W51461   0.826  28.142   5.303
90173W        W51462  23.663   2.763   1.765
90174W        W51463  30.133  39.450   0.731
90175W        W51464  40.042  32.528  11.593
90176W        W51465  15.247  40.397   2.178
90177W        W51466  33.416   7.381   2.880
90178W        W51467   6.223   1.802   4.245
90179W        W51468  22.515  32.971   3.356
90180W        W51469  28.517   8.786  13.337
90181W        W51470  23.069   7.412  12.991
90182W        W51471  41.519  25.087  14.822
90183W        W51472   8.754  18.640   4.639
90184W        W51473  37.957  34.085  14.922
90185W        W51474  27.595  29.968   3.211
90186W        W51475  16.087  14.257   4.733
90187W        W51476   2.812  15.284   1.775
90188W        W51477  35.551  17.576  12.065
90189W        W51478  20.084  30.491  11.464
90190W        W51479  16.780   4.376   1.706
90191W        W51480  26.988  35.416  14.862
90192W        W51481  43.291  20.689   3.251
90193W        W51482  43.498  24.652   3.724
90194W        W51483  43.323  40.518  14.349
90195W        W51484  34.981   0.909   0.786
90196W        W51485  12.755  27.138  13.373
90197W        W51486  27.565  21.065  12.396
90198W        W51487  26.165   6.887   0.258
90199W        W51488  32.469  42.496   3.843
90200W        W51489  29.126  22.660  10.494
90201W        W51490  12.688  23.241  13.819
90202W        W51491  13.319  42.789   3.847
90203W        W51492  39.952  27.676  13.987
90204W        W51493   4.433  39.551   3.796
90205W        W51494  28.444   8.171  14.299
90206W        W51495  13.778  31.466  13.547
90207W        W51496  28.579  12.226  10.599
90208W        W51497  42.879   7.768   2.678
90209W        W51498  40.974  32.010  11.537
90210W        W51499  24.599  38.403   2.703
90211W        W51500  22.219   9.804   3.346
90212W        W51501   5.731  26.625  13.884
90213W        W51502  18.615  33.443  13.881
90214W        W51503   8.765  35.889   1.218
90215W        W51504  11.828  39.410   1.806
90216W        W51505  17.699  14.191   1.447
90217W        W51506  22.506  40.423   4.790
90218W        W51507   9.314  33.495   2.222
90219W        W51508   4.931  37.427   5.304
90220W        W51509  27.522  24.051  14.502
90221W        W51510  18.662   5.809  12.857
90222W        W51511  31.967  15.811   5.170
90223W        W51512   2.457  39.949  13.353
90224W        W51513  15.747  22.139   1.336
90225W        W51514  26.190  34.563   1.416
90226W        W51515  43.875  36.932  10.536
90227W        W51516  38.820   2.960   1.734
90228W        W51517  31.973   7.758  13.995
90229W        W51518  11.350   2.236  13.984
90230W        W51519  36.926  15.794   1.811
90231W        W51520  14.318  25.486   4.728
90232W        W51521   4.792  11.754  12.829
90233W        W51522  15.288  20.638  11.450
90234W        W51523  33.035   5.726  12.370
90235W        W51524  21.165  35.013  11.530
90236W        W51525  36.036  34.545   0.827
90237W        W51526  33.383  25.002   1.411
90238W        W51527  26.491  42.376   3.749
90239W        W51528   2.770  10.369  11.401
90240W        W51529  27.523   3.758  11.471
90241W        W51530  24.226  37.501  11.526
90242W        W51531  38.974  19.120   1.268
90243W        W51532  18.607  30.077   1.702
90244W        W51533  29.536   0.848   0.345
90245W        W51534  26.688  32.031   2.338
90246W        W51535  22.057  25.112  14.817
90247W        W51536   0.318  36.936  12.944
90248W        W51537  18.153  31.048  11.974
90249W        W51538   8.279  37.877   0.432
90250W        W51539  41.498  44.948   4.124
90251W        W51540   2.245  30.445  14.891
90252W        W51541   9.738  39.982   4.324
90253W        W51542  37.868  21.093   4.728
90254W        W51543  36.484  13.705   0.891
90255W        W51544  11.249  22.053  12.467
90256W        W51545  17.194  21.526  12.400
90257W        W51546  36.566  34.581  10.516
90258W        W51547  19.167  27.607   0.797
90259W        W51548   0.298  31.975   1.296
90260W        W51549  42.952  39.932  10.967
90261W        W51550  10.370   9.203  10.904
90262W        W51551  38.010  12.699  12.569
90263W        W51552   9.282  27.480  10.437
90264W        W51553   7.748  39.013  14.472
90265W        W51554   5.903  43.430  12.929
90266W        W51555   5.788  43.428  10.635
90267W        W51556  19.685   8.706   1.254
90268W        W51557  39.547  16.286  11.116
90269W        W51558  16.660   8.674   1.749
90270W        W51559  15.743  34.376   5.124
90271W        W51560  18.548  10.368   4.632
90272W        W51561  22.570  26.104  12.864
90273W        W51562  23.727  17.790  11.947
90274W        W51563  33.450  25.050  14.507
90275W        W51564  37.461  39.963   4.681
90276W        W51565   0.881  17.078  12.438
90277W        W51566  16.609   9.732  13.861
90278W        W51567  37.412  43.947   4.330
90279W        W51568  21.587  34.414  10.967
90280W        W51569  21.637  27.661  13.398
90281W        W51570  20.694  38.003   0.866
90282W        W51571   8.257  42.903   2.418
90283W        W51572  33.471  25.151   3.793
90284W        W51573  30.116  30.538   0.428
90285W        W51574  34.571  14.789  11.893
90286W        W51575  24.005   7.795  10.916
90287W        W51576   0.253  31.495   0.803
90288W        W51577  44.403  19.199   2.335
90289W        W51578  13.261   5.800  12.979
90290W        W51579  15.304   0.482  13.828
90291W        W51580   3.871  35.874  13.996
90292W        W51581   2.850  14.276   0.756
90293W        W51582  31.904  20.581  12.516
90294W        W51583  29.071   3.321   2.681
90295W        W51584  15.653  14.830   3.714
90296W        W51585  38.018  12.706   0.276
90297W        W51586  22.036  44.764   4.808
90298W        W51587  14.312  38.017   2.793
90299W        W51588  19.122  12.698  12.482
90300W        W51589  37.062  44.343   1.892
90301W        W51590  19.706   7.226  10.104
90302W        W51591  41.906  20.694   0.318
90303W        W51592   4.286   5.922   2.772
90304W        W51593   9.223  34.445   2.689
90305W        W51594  43.395  23.625  10.521
90306W        W51595  41.837   4.433   2.209
90307W        W51596  24.230  30.009   2.412
90308W        W51597  29.476  30.629   5.239
90309W        W51598  17.246  39.923  10.942
90310W        W51599   9.701   2.949   3.150
90311W        W51600  25.593  28.987   2.274
90312W        W51601   3.395   5.324   2.280
90313W        W51602   6.328  33.977   4.134
90314W        W51603  13.763  25.613   3.727
90315W        W51604  44.008  42.399   0.424
90316W        W51605  31.447  23.988   2.292
90317W        W51606  36.426   3.950  14.850
90318W        W51607  10.682  21.104  10.620
90319W        W51608  37.404   1.965  11.012
90320W        W51609  39.865  29.435  12.406
90321W        W51610  17.228   7.819  14.023
90322W        W51611  27.098   5.705   1.696
90323W        W51612  18.666  13.332   1.443
90324W        W51613  14.627   2.952   1.369
90325W        W51614   3.757   3.304  12.490
90326W        W51615  37.951  25.631  12.364
90327W        W51616  16.172  10.372  12.841
90328W        W51617  14.227  31.085   3.704
90329W        W51618   5.398  41.936  10.949
90330W        W51619  30.447   9.763   4.683
90331W        W51620  21.051  30.417  11.495
90332W        W51621   2.402  26.174   2.858
90333W        W51622  27.675  32.457   1.292
90334W        W51623  25.123   6.798   0.857
90335W        W51624  23.628  43.772   2.685
90336W        W51625  16.294  43.495  10.639
90337W        W51626   6.829   4.390  12.052
90338W        W51627  12.720  27.980  14.967
90339W        W51628  16.625   9.729  13.471
90340W        W51629  31.560  14.684  13.807
90341W        W51630   9.382  11.292   4.782
90342W        W51631  29.439  22.107   1.265
90343W        W51632  23.023  31.123  12.497
90344W        W51633  34.914  16.631   0.457
90345W        W51634  25.673  41.855   4.277
90346W        W51635  16.626   0.867   2.374
90347W        W51636  12.826  29.526   5.271
90348W        W51637  39.949  26.477   1.428
90349W        W51638  29.634   3.222  11.485
90350W        W51639  35.580  28.598  13.416
90351W        W51640  24.207   0.888  14.017
90352W        W51641  32.986  17.203   3.200
90353W        W51642  16.109  23.207   1.230
90354W        W51643  41.383   0.267  13.897
90355W        W51644  23.606  32.958  10.645
90356W        W51645  19.552  38.511  14.017
90357W        W51646  35.059  41.994  14.874
90358W        W51647  40.357  20.169   2.207
90359W        W51648   3.425  39.547   4.691
90360W        W51649   4.281  31.949  13.796
90361W        W51650  41.899  37.869  13.828
90362W        W51651  44.871  17.732   2.323
90363W        W51652   0.276  24.633   1.441
90364W        W51653  27.104  35.463  13.410
90365W        W51654  24.018   6.839  10.939
90366W        W51655  42.372  11.292   0.343
90367W        W51656   3.407  28.489  13.394
90368W        W51657   0.258  11.313  11.538
90369W        W51658   3.919  17.574   0.772
90370W        W51659   8.813  44.813  12.954
90371W        W51660  19.554  43.879  13.419
90372W        W51661  11.129  13.149  13.895
90373W        W51662  14.264  18.685   9.996
90374W        W51663   7.860  25.187  14.332
90375W        W51664  34.976  18.158   3.660
90376W        W51665  25.496  35.953  14.948
90377W        W51666  35.097  13.785   4.329
90378W        W51667  18.239   1.781   2.736
90379W        W51668  37.959  26.478   4.667
90380W        W51669  28.615  43.369  14.804
90381W        W51670   4.716  11.372   1.740
90382W        W51671  25.103  13.173  12.444
90383W        W51672  36.447  35.998   0.767
90384W        W51673  16.655  28.475   4.802
90385W        W51674  21.233   0.826  12.406
90386W        W51675  38.358   9.802   4.235
90387W        W51676   4.404  18.212  14.306
90388W        W51677  42.931   7.901   4.210
90389W        W51678   4.859  33.437  14.367
90390W        W51679  17.210   4.727  11.962
90391W        W51680  27.640  23.542  10.423
90392W        W51681  11.250  27.552   2.690
90393W        W51682  30.940   6.390  11.413
90394W        W51683  38.425  24.657  13.462
90395W        W51684  16.586   7.894   0.798
90396W        W51685  29.559  28.982  10.473
90397W        W51686  14.274   4.354   3.309
90398W        W51687   2.355   5.329  12.918
90399W        W51688  38.413  18.682   3.843
90400W        W51689   5.380   3.407  14.394
90401W        W51690  38.424  14.287  11.920
90402W        W51691  34.066  31.907  12.419
90403W        W51692  35.541  34.917   3.376
90404W        W51693  43.465  24.003  14.844
90405W        W51694  11.635  41.037   0.789
90406W        W51695  44.996  12.187  11.454
90407W        W51696  37.972  31.582  13.310
90408W        W51697  10.267  32.406   0.407
90409W        W51698  11.850  11.718   1.706
90410W        W51699  17.274  34.493   0.419
90411W        W51700  31.512  23.536   1.384
90412W        W51701  43.957   8.293   1.413
90413W        W51702  33.384   8.698   4.322
90414W        W51703   4.315   6.238  12.579
90415W        W51704  26.491  33.105   1.432
90416W        W51705  28.152  29.622   0.951
90417W        W51706   9.332  24.666  14.505
90418W        W51707  40.345  20.522   4.660
90419W        W51708  12.196   7.667   0.475
90420W        W51709  33.541  12.717   4.699
90421W        W51710   4.849   2.858  10.442
90422W        W51711  22.230  21.183   0.951
90423W        W51712  26.557   8.757  13.847
90424W        W51713   2.253  10.169   3.324
90425W        W51714  41.928  30.959   4.675
90426W        W51715  40.509   7.835   4.254
90427W        W51716   1.458  22.708  13.793
90428W        W51717  30.458  33.903  10.905
90429W        W51718   9.732  36.539   1.292
90430W        W51719  13.840  19.047   0.746
90431W        W51720  18.206   4.295  14.804
90432W        W51721  21.209  44.804  12.978
90433W        W51722  38.553  18.087   3.786
90434W        W51723  16.314  41.327  10.158
90435W        W51724  15.312  36.514   2.307
90436W        W51725   2.880  18.128   4.657
90437W        W51726  12.189   1.912  12.912
90438W        W51727  30.137   4.706  14.930
90439W        W51728   8.714  21.160  14.506
90440W        W51729  37.868  27.956  10.506
90441W        W51730  31.583  14.789  13.019
90442W        W51731  30.436  24.528  13.480
90443W        W51732  28.548  30.611  12.559
90444W        W51733  38.545   3.735   4.756
90445W        W51734  25.203  20.054  10.608
90446W        W51735   0.259   7.893   1.929
90447W        W51736  21.107   1.419  14.949
90448W        W51737  35.424  32.460   0.345
90449W        W51738  24.545  11.753   1.829
90450W        W51739   7.680  15.688  14.877
90451W        W51740  35.871   2.748   2.414
90452W        W51741  27.036  34.503  11.410
90453W        W51742  44.797   7.782  14.494
90454W        W51743  12.199  31.409   3.835
90455W        W51744  23.022  26.018   4.166
90456W        W51745   2.840   1.940   1.853
90457W        W51746  11.671  29.620   0.902
90458W        W51747  11.722  22.579   3.773
90459W        W51748  13.116   8.818   3.306
90460W        W51749  35.484  10.843  12.397
90461W        W51750  37.991  12.664  13.417
90462W        W51751  18.597  30.562   3.274
90463W        W51752  26.560  20.190   0.795
90464W        W51753  31.451  19.078   0.855
90465W        W51754  15.578   1.450   2.823
90466W        W51755  18.653  15.637   0.271
90467W        W51756  43.309   7.819  10.414
90468W        W51757   7.208  30.083  14.500
90469W        W51758  12.246   5.373   3.755
90470W        W51759   2.317  16.611  12.345
90471W        W51760  35.054  23.654  10.505
90472W        W51761   6.189  15.723  13.939
90473W        W51762  27.667  28.155   0.861
90474W        W51763   9.677  11.367   0.442
90475W        W51764  14.311  19.687  12.888
90476W        W51765  42.009  24.570   4.220
90477W        W51766  35.581  15.717  10.495
90478W        W51767   9.190   0.780  13.525
90479W        W51768   1.311  26.599   1.257
90480W        W51769  22.119  13.223   1.451
90481W        W51770  18.628  12.275   3.370
90482W        W51771  40.891  32.464   2.226
90483W        W51772  10.315  36.432  13.528
90484W        W51773  35.556   8.900  14.902
90485W        W51774   7.882  13.230  13.994
90486W        W51775  28.014   9.385  14.877
90487W        W51776  23.021  43.505   0.373
90488W        W51777  11.667  11.344   3.669
90489W        W51778  43.882   9.826   3.354
90490W        W51779  27.473  36.859  14.275
90491W        W51780   4.811  20.161  11.071
90492W        W51781  32.980   2.954   1.239
90493W        W51782  24.198   0.759  14.452
90494W        W51783  23.182  41.863   1.716
90495W        W51784  24.004  38.863  13.514
90496W        W51785  38.065  36.063  10.541
90497W        W51786  39.900  36.384  12.828
90498W        W51787  12.315  16.787  10.545
90499W        W51788   3.810   2.893   0.757
90500W        W51789  43.398  32.106  10.085
90501W        W51790  23.632  42.475   4.168
90502W        W51791   7.770  38.039   3.203
90503W        W51792  34.966   1.902   3.211
90504W        W51793  11.274  21.533  14.378
90505W        W51794  35.881  36.973   0.953
90506W        W51795  41.309  39.845   4.668
90507W        W51796  23.148   1.452   4.347
90508W        W51797  17.135  24.659   3.359
90509W        W51798  15.119  24.523  13.471
90510W        W51799  35.505  25.044   1.769
90511W        W51800  20.680   6.709   0.473
90512W        W51801  29.156  13.141   3.290
90513W        W51802  13.137   4.777   1.738
90514W        W51803  13.342  17.763   0.901
90515W        W51804  33.017   6.904   2.683
90516W        W51805  14.606   2.260   4.699
90517W        W51806   8.247  16.080   3.776
90518W        W51807  10.304  13.112  13.524
90519W        W51808  22.651  27.118  10.979
90520W        W51809  34.106  26.118  14.343
90521W        W51810  20.086  22.701  12.854
90522W        W51811  11.731  43.944   3.163
90523W        W51812  30.442   1.848   0.751
90524W        W51813   0.825  43.017  13.005
90525W        W51814  20.562  24.087  13.888
90526W        W51815  19.541  35.427   3.701
90527W        W51816  30.949  26.544  14.005
90528W        W51817  23.525   3.333  10.578
90529W        W51818   6.681   3.350   1.378
90530W        W51819  43.005  12.237  14.298
90531W        W51820  33.465  22.218  14.955
90532W        W51821   1.433  42.859  10.488
90533W        W51822  29.034  15.259   4.209
90534W        W51823   4.291  19.731   1.887
90535W        W51824  14.589   1.281  11.924
90536W        W51825   8.779   0.268   3.325
90537W        W51826  21.094   0.390  12.548
90538W        W51827  18.592   5.774  11.542
90539W        W51828  37.913  20.040   1.883
90540W        W51829  44.773  35.864   0.400
90541W        W51830   2.327  36.524  10.961
90542W        W51831  20.235  41.368  13.400
90543W        W51832  27.518  40.518   3.651
90544W        W51833   4.865  23.030  12.005
90545W        W51834  23.124   5.435   4.238
90546W        W51835  35.440  16.641   4.228
90547W        W51836  40.402  29.176   4.827
90548W        W51837   1.339  37.450  13.517
90549W        W51838  41.857  21.582   0.337
90550W        W51839  15.816  21.242  13.791
90551W        W51840  18.766  25.677  14.424
90552W        W51841  35.450  15.090   3.370
90553W        W51842  28.456   7.740   2.661
90554W        W51843   5.833   6.907  12.554
90555W        W51844  26.655   6.827   9.667
90556W        W51845   9.204  31.096  11.872
90557W        W51846   0.819  32.977   2.731
90558W        W51847  10.652   8.869  11.988
90559W        W51848  31.645   3.259   0.273
90560W        W51849   8.189  44.953  10.429
90561W        W51850  36.449  20.649  14.023
90562W        W51851  25.984   7.841   3.348
90563W        W51852  26.657   5.827   3.171
90564W        W51853  26.049  43.350   2.803
90565W        W51854  10.308  43.353  14.785
90566W        W51855  44.265  10.357   1.813
90567W        W51856  40.951   7.314   0.888
90568W        W51857  22.143  37.468   1.854
90569W        W51858  18.691   8.822  10.546
90570W        W51859  22.537   1.964  12.078
90571W        W51860  36.062  30.550  14.317
90572W        W51861  37.555  41.469   4.181
90573W        W51862  36.499   5.784   1.707
90574W        W51863  40.947  31.950   2.863
90575W        W51864  32.397  32.599   0.372
90576W        W51865  17.250  20.715   3.782
90577W        W51866  25.139   7.231   2.894
90578W        W51867  39.992  29.059  13.043
90579W        W51868   0.373  41.905  11.075
90580W        W51869  34.587  40.543  13.875
90581W        W51870  42.931  41.979   0.478
90582W        W51871  38.387  35.490  11.024
90583W        W51872  40.419  39.060   4.686
90584W        W51873  40.912  12.828  12.033
90585W        W51874  25.156   4.861   3.711
90586W        W51875  16.669  23.000  11.906
90587W        W51876  29.618  30.619   3.832
90588W        W51877   2.310  38.827   4.611
90589W        W51878   1.817  17.093   0.928
90590W        W51879  21.119  19.753  11.517
90591W        W51880  16.285  12.117  10.441
90592W        W51881   5.870   0.848  12.423
90593W        W51882  35.949  27.005  12.942
90594W        W51883  35.595  18.275  14.887
90595W        W51884   8.172  25.478  14.905
90596W        W51885  22.117  15.740   2.254
90597W        W51886  18.275  14.242  12.465
90598W        W51887  40.453   1.246   3.193
90599W        W51888   7.313  34.916   9.545
90600W        W51889  28.585  31.623   3.741
90601W        W51890  37.562  36.392  14.339
90602W        W51891  33.566   7.228  10.491
90603W        W51892  16.598  18.179   3.870
90604W        W51893  43.995  20.150   3.289
90605W        W51894  33.097  41.446  12.878
90606W        W51895   5.330  37.991   0.946
90607W        W51896  31.011  43.871  12.993
90608W        W51897  22.551   3.795  11.077
90609W        W51898  41.807  10.658   0.823
90610W        W51899  42.888  23.614   2.846
90611W        W51900  37.352  18.778   1.298
90612W        W51901  24.982  26.982  10.444
90613W        W51902   4.933  43.474   2.857
90614W        W51903  17.121  15.217  12.384
90615W        W51904  43.801  20.247  13.035
90616W        W51905   3.387  38.461   0.321
90617W        W51906  16.671  30.938  12.049
90618W        W51907   8.323  26.146   0.823
90619W        W51908  42.297  34.383  14.859
90620W        W51909  29.620  27.070   1.278
90621W        W51910  35.589  27.502  10.514
90622W        W51911  29.927  31.060   2.788
90623W        W51912   6.815   8.260  10.442
90624W        W51913  15.756  26.116   4.250
90625W        W51914  12.765  36.966  12.919
90626W        W51915  19.138  29.097  10.565
90627W        W51916  12.295  39.930   9.531
90628W        W51917  40.535   7.732  12.039
90629W        W51918   7.404  19.762   4.664
90630W        W51919  31.932  42.486   1.906
90631W        W51920  28.035   5.898  11.404
90632W        W51921  25.085  30.517   3.326
90633W        W51922  25.523  30.969   4.759
90634W        W51923  10.697  12.658  13.833
90635W        W51924  20.621  27.553   0.399
90636W        W51925  18.752  26.470   3.358
90637W        W51926  38.889  33.514   4.599
90638W        W51927  38.360  14.675   1.926
90639W        W51928   0.830  41.900  12.060
90640W        W51929  10.719  35.373   2.733
90641W        W51930  35.555  30.552  13.853
90642W        W51931  17.132  28.118   1.266
90643W        W51932   0.279  40.546  11.391
90644W        W51933   2.422  13.810  14.460
90645W        W51934  39.370   2.771   1.283
90646W        W51935   6.303  30.994   2.338
90647W        W51936  25.120   6.240   4.233
90648W        W51937  11.836  41.034  14.417
90649W        W51938  43.276   5.374   4.727
90650W        W51939  24.622   2.878   2.194
90651W        W51940  28.575  28.101   0.383
90652W        W51941  15.775  37.578   1.857
90653W        W51942   4.919  40.899   3.215
90654W        W51943   0.979  41.956  14.497
90655W        W51944  16.680  38.569   5.266
90656W        W51945  38.964  33.087  13.488
90657W        W51946  35.923   9.385  11.457
90658W        W51947  19.660  42.883  10.426
90659W        W51948  38.369  43.403  11.529
90660W        W51949  38.956  38.961   1.935
90661W        W51950   7.317  10.676  13.429
90662W        W51951  34.506  26.135  14.014
90663W        W51952  10.770  30.945   4.246
90664W        W51953  18.766  17.218   0.355
90665W        W51954  15.798  16.275  10.564
90666W        W51955  32.487  16.072   2.840
90667W        W51956  43.773   5.208  13.911
90668W        W51957  36.039   8.686  14.472
90669W        W51958  25.646  34.089   3.377
90670W        W51959  24.011   9.710  11.003
90671W        W51960   6.819  42.389  11.066
90672W        W51961  29.147  13.740  13.329
90673W        W51962   2.386  25.127  12.986
90674W        W51963  37.053  35.045  14.506
90675W        W51964  35.862  39.024  10.533
90676W        W51965   9.168  14.673  11.098
90677W        W51966   4.292  42.324  14.292
90678W        W51967  44.381  38.388  14.028
90679W        W51968  28.995  16.796  13.545
90680W        W51969  23.694  35.433   4.725
90681W        W51970   8.764  14.634  14.298
90682W        W51971  19.136  37.836  10.912
90683W        W51972  20.113   0.267   1.756
90684W        W51973  23.603  30.130  14.507
90685W        W51974   7.714  43.868  13.032
90686W        W51975  41.298  42.961  10.995
90687W        W51976  31.058  32.886  13.889
90688W        W51977  39.844  16.306  14.351
90689W        W51978   7.726   4.761   4.211
90690W        W51979  25.669   0.982   3.236
90691W        W51980  37.021  22.620  13.031
90692W        W51981   8.878  37.075  13.525
90693W        W51982  27.576  38.863  10.953
90694W        W51983  44.767  14.107   0.437
90695W        W51984  20.684  18.274   4.605
90696W        W51985  15.739  44.822  11.871
90697W        W51986  30.969  17.764  14.371
90698W        W51987  20.723  28.539  14.788
90699W        W51988  31.127  19.654  14.767
90700W        W51989  28.496  33.036   0.853
90701W        W51990  37.869  20.190  13.883
90702W        W51991   5.749  17.173  10.535
90703W        W51992   7.243  31.932  13.507
90704W        W51993  10.841  39.975   4.721
90705W        W51994  44.360   2.414  14.304
90706W        W51995  27.571  25.015   0.960
90707W        W51996   7.890  21.067   3.148
90708W        W51997   8.859  30.434  13.875
90709W        W51998  32.944  17.280  10.903
90710W        W51999  28.025  42.861  14.355
90711W        W52000   2.907  19.059  13.017
90712W        W52001  39.960  34.943   3.843
90713W        W52002  29.071  17.155  10.551
90714W        W52003  31.988  22.632  11.018
90715W        W52004   4.818  39.921  11.450
90716W        W52005  38.446  27.149   1.729
90717W        W52006  18.085  16.105   3.238
90718W        W52007  19.106  18.690  14.946
90719W        W52008  11.637   8.738  13.546
90720W        W52009  17.620  29.531   0.377
90721W        W52010  19.239  30.533  13.849
90722W        W52011  38.892  21.098  11.022
90723W        W52012   4.803  30.535  12.966
90724W        W52013  16.272   8.284   3.281
90725W        W52014   1.842  21.051  10.569
90726W        W52015  14.327  23.103  13.963
90727W        W52016   2.257  25.707   0.456
90728W        W52017   7.194  12.716   3.711
90729W        W52018   0.953   4.778  10.415
90730W        W52019   4.362  27.556  14.817
90731W        W52020   3.926  26.601  12.451
90732W        W52021  25.522  26.633  14.853
90733W        W52022  21.180  11.707   1.427
90734W        W52023  13.730  35.574  10.580
90735W        W52024  40.882  30.486  13.359
90736W        W52025  37.061  34.467  12.571
90737W        W52026  35.441  38.031   2.838
90738W        W52027  18.109  20.059   2.385
90739W        W52028  12.347   4.306  12.361
90740W        W52029  25.189   5.712  13.873
90741W        W52030   4.926   9.156  12.494
90742W        W52031   6.324  17.299   5.237
90743W        W52032  23.118  38.991  11.540
90744W        W52033  38.455  36.003  12.874
90745W        W52034  41.389  20.059  10.417
90746W        W52035  27.167   7.172  13.926
90747W        W52036  34.496  33.086   4.271
90748W        W52037   2.384  35.062  11.893
90749W        W52038  11.192  19.750   0.428
90750W        W52039   7.896  21.534   3.338
90751W        W52040  33.060  10.728  10.594
90752W        W52041  37.541  43.494  14.416
90753W        W52042  25.205   5.282   0.861
90754W        W52043  33.462  32.583  13.903
90755W        W52044  11.246  40.864  12.944
90756W        W52045  35.555   3.722  11.388
90757W        W52046  12.191  37.993   0.397
90758W        W52047  39.438  23.688   2.793
90759W        W52048  44.907  34.496  10.974
90760W        W52049  25.125  26.020   2.386
90761W        W52050   6.184  31.910   9.992
90762W        W52051  12.180  12.781  12.401
90763W        W52052  12.827  27.522  10.631
90764W        W52053  14.177  42.938   1.724
90765W        W52054  12.297  36.504  14.374
90766W        W52055   6.406   2.763   0.760
90767W        W52056  43.005  11.260   3.750
90768W        W52057   0.467  11.280  14.454
90769W        W52058   2.810  39.811   0.457
90770W        W52059  11.332   7.314   1.823
90771W        W52060   7.887  31.536  14.921
90772W        W52061  44.800  17.066  10.506
90773W        W52062  32.439  25.035  12.478
90774W        W52063   8.193   1.310   1.704
90775W        W52064  15.314  18.707   5.242
90776W        W52065  36.856   6.242  14.426
90777W        W52066  19.143  37.501  14.808
90778W        W52067   4.448   8.899  10.525
90779W        W52068  35.399   4.822   0.805
90780W        W52069  44.888  37.864  14.474
90781W        W52070  33.472  36.916   4.671
90782W        W52071  25.544  43.972  11.527
90783W        W52072   2.359  21.213  12.003
90784W        W52073   5.358  41.953   0.451
90785W        W52074  40.478  42.290  10.555
90786W        W52075  21.734  39.952  14.032
90787W        W52076  30.417  39.058  14.799
90788W        W52077  35.878  23.630   1.743
90789W        W52078  34.879  28.503   3.356
90790W        W52079  12.329  12.764   0.298
90791W        W52080  29.117  30.092  14.279
90792W        W52081  16.214  34.498   3.781
90793W        W52082  19.599  26.475  10.406
90794W        W52083  26.475   9.748   1.712
90795W        W52084   7.352  10.830  14.421
90796W        W52085  34.386   9.281  14.402
90797W        W52086  36.843   8.296   0.440
90798W        W52087  43.319  17.144   3.231
90799W        W52088  12.671  15.585  13.501
90800W        W52089  16.186  20.230  10.973
90801W        W52090  31.542  27.638   2.795
90802W        W52091  14.719   3.890   1.271
90803W        W52092  36.369   7.862   2.766
90804W        W52093  33.113  35.986  11.592
90805W        W52094  12.170   4.426   2.681
90806W        W52095  37.010  25.608  13.798
90807W        W52096  37.529   0.963   4.665
90808W        W52097  15.225  15.177   3.208
90809W        W52098   3.320  11.812  12.867
90810W        W52099   3.290   6.819  13.904
90811W        W52100  30.590  21.665  11.923
90812W        W52101  26.958   3.711   3.654
90813W        W52102   3.370  42.900  10.093
90814W        W52103  11.684   4.241   1.719
90815W        W52104  11.201  10.175  11.474
90816W        W52105  37.032  26.208   4.298
90817W        W52106  27.630   7.256   0.389
90818W        W52107  17.084   1.875  10.488
90819W        W52108  15.234  23.112  10.622
90820W        W52109  39.923  41.447  14.993
90821W        W52110  22.563   9.249   4.768
90822W        W52111  21.029  38.049   4.809
90823W        W52112  11.186  43.373  11.887
90824W        W52113  38.440  23.684  11.935
90825W        W52114  30.649  13.130   2.184
90826W        W52115  20.215   0.750  11.955
90827W        W52116   0.777  36.368   3.799
90828W        W52117  38.962  29.538  14.823
90829W        W52118  15.134  21.743   1.281
90830W        W52119   6.696  25.162  14.007
90831W        W52120  10.641  22.221  13.949
90832W        W52121  14.105   6.839   1.446
90833W        W52122  40.904  21.193  13.482
90834W        W52123  11.132  21.259  11.592
90835W        W52124  41.940  21.209  12.428
90836W        W52125  18.788   3.948  10.616
90837W        W52126   6.246   2.361  11.499
90838W        W52127  25.179  24.076   2.254
90839W        W52128  37.498  21.211   0.250
90840W        W52129  36.991  28.647  12.852
90841W        W52130  39.947  40.485  11.501
90842W        W52131  28.996   8.262   0.436
90843W        W52132  27.968  22.646   0.304
90844W        W52133  22.061   8.359  13.429
90845W        W52134  28.037  17.773  14.348
90846W        W52135  19.614  37.967   0.808
90847W        W52136  22.527   8.863  12.911
90848W        W52137  12.673  37.343   1.895
90849W        W52138  17.094  20.088   0.886
90850W        W52139   5.436  37.011  14.489
90851W        W52140  15.157  40.488  11.422
90852W        W52141  40.946  22.071  11.874
90853W        W52142  10.316  25.106  13.828
90854W        W52143  39.996  43.924   3.234
90855W        W52144  34.026  39.504  13.367
90856W        W52145  21.652  10.238   2.842
90857W        W52146  34.379  20.152  11.944
90858W        W52147   7.272  22.673   0.324
90859W        W52148  28.570  20.691   0.763
90860W        W52149   7.758  32.555  11.416
90861W        W52150  16.736  19.251  13.449
90862W        W52151  26.699  37.958   2.200
90863W        W52152   9.165  25.578   3.635
90864W        W52153  17.272  13.349   3.641
90865W        W52154   9.650  20.585  14.486
90866W        W52155  22.692   2.962  11.958
90867W        W52156  14.109  12.706  10.543
90868W        W52157  35.572  15.604  11.950
90869W        W52158  44.268   7.675  10.412
90870W        W52159  12.228   1.845   5.591
90871W        W52160   0.846   0.940  10.904
90872W        W52161  16.139  15.188   4.115
90873W        W52162  14.201  34.978   0.464
90874W        W52163  18.561  39.842   3.184
90875W        W52164  26.008   9.314  12.396
90876W        W52165  18.056  13.171  14.489
90877W        W52166  19.726  33.540  13.490
90878W        W52167  25.633  21.091  12.924
90879W        W52168  42.447   7.225  11.572
90880W        W52169   3.341  35.575  10.514
90881W        W52170   6.199  29.581  12.071
90882W        W52171   4.833   4.892  13.055
90883W        W52172  33.889  40.974   0.920
90884W        W52173  41.441  22.164  12.025
90885W        W52174  27.965  44.782  12.078
90886W        W52175  31.595  22.697   1.308
90887W        W52176  32.517  29.993  14.774
90888W        W52177   8.837  38.357  14.508
90889W        W52178   7.863  42.031   4.320
90890W        W52179  21.655  38.492  14.920
90891W        W52180  32.434  12.739   3.698
90892W        W52181  11.350  37.540  10.000
90893W        W52182  34.967  25.683   4.177
90894W        W52183  35.900  31.585   2.779
90895W        W52184   4.766  41.522  14.399
90896W        W52185   4.814   1.757   0.944
90897W        W52186   2.294  41.842  10.591
90898W        W52187  14.173  36.991   3.275
90899W        W52188  27.472  43.847  14.391
90900W        W52189  30.419  22.529  14.350
90901W        W52190  43.372  30.650   0.813
90902W        W52191  10.322  42.292  14.770
90903W        W52192  15.315   7.192  14.969
90904W        W52193  32.605  13.241  14.362
90905W        W52194  17.666  34.109  13.342
90906W        W52195  11.664  30.984  12.393
90907W        W52196  27.665  10.756   2.417
90908W        W52197   9.234  15.757  10.422
90909W        W52198  17.235   3.261  12.494
90910W        W52199  13.798  39.526  13.317
90911W        W52200  42.348  36.367  11.979
90912W        W52201  43.918  27.582  10.497
90913W        W52202  30.500  27.965   1.218
90914W        W52203  32.431  40.338   0.399
90915W        W52204   2.305  13.647   0.788
90916W        W52205  34.072  42.422   0.903
90917W        W52206   1.261   8.817  10.078
90918W        W52207  16.731   2.301   1.699
90919W        W52208  44.832  10.822  14.513
90920W        W52209  16.759  18.568   4.752
90921W        W52210  25.007   1.264  14.428
90922W        W52211  30.425  17.653  12.576
90923W        W52212  33.962   2.390   5.792
90924W        W52213  28.161  38.939   4.611
90925W        W52214  15.776  14.699   4.630
90926W        W52215   5.257  43.509  11.529
90927W        W52216  31.606  16.115   3.266
90928W        W52217  40.488  11.302  10.580
90929W        W52218   1.860  22.171  11.547
90930W        W52219   8.793   4.748  13.039
90931W        W52220  11.292  40.874   0.376
90932W        W52221  11.758  18.257  12.830
90933W        W52222  38.371   8.890  13.959
90934W        W52223   3.775   8.654  14.358
90935W        W52224  40.919  28.515  14.885
90936W        W52225   4.224   1.308  12.393
90937W        W52226  35.907  11.174   2.324
90938W        W52227   5.246  34.546  10.623
90939W        W52228  37.338  12.658   1.336
90940W        W52229  44.858  10.182   3.791
90941W        W52230   8.758  22.668   3.159
90942W        W52231   1.359  28.011   2.223
90943W        W52232  18.208  36.571  10.478
90944W        W52233   2.314  42.421   4.142
90945W        W52234  17.299  40.916  12.073
90946W        W52235   0.959  20.185  13.864
90947W        W52236  35.943  16.741  13.400
90948W        W52237   6.202  33.972   3.207
90949W        W52238  41.454  27.541   3.865
90950W        W52239  23.129  33.986   1.425
90951W        W52240  42.916  10.210   1.309
90952W        W52241  20.060  36.520  10.618
90953W        W52242  29.590   7.773   4.321
90954W        W52243  24.180  14.605   1.739
90955W        W52244  43.808   3.289   5.211
90956W        W52245   8.660  16.644  13.021
90957W        W52246  29.986  10.368   1.779
90958W        W52247  20.255   8.733   4.266
90959W        W52248  27.186  35.381   1.257
90960W        W52249  31.523  29.490   3.232
90961W        W52250   4.415   4.303   2.353
90962W        W52251   8.845  40.512  14.491
90963W        W52252  30.977  25.666  14.417
90964W        W52253   9.249  12.362  12.912
90965W        W52254  18.148  32.521  11.413
90966W        W52255  18.550  44.499   1.396
90967W        W52256  18.275  17.090  11.009
90968W        W52257   0.483  19.156   0.789
90969W        W52258  15.781  34.889   1.905
90970W        W52259  27.942  13.702   0.843
90971W        W52260  36.438  14.709   2.892
90972W        W52261  37.543  25.081   4.297
90973W        W52262  31.601  20.674  14.976
90974W        W52263  23.166  21.222   2.864
90975W        W52264   3.260  32.903   4.830
90976W        W52265   4.236  37.885  10.998
90977W        W52266   3.368  26.108   3.737
90978W        W52267  34.371  39.446  14.979
90979W        W52268  10.696  26.490   2.212
90980W        W52269  43.451  10.747   3.785
90981W        W52270   9.742   0.419  14.449
90982W        W52271   5.213   9.838   0.373
90983W        W52272   8.244  31.564   2.745
90984W        W52273   7.699   1.413   1.445
90985W        W52274  18.126  27.690   2.737
90986W        W52275  25.643  21.622  13.446
90987W        W52276  23.715   9.747  12.373
90988W        W52277  44.934  13.293   3.180
90989W        W52278  15.649  43.905  14.496
90990W        W52279  24.496  15.703   3.680
90991W        W52280   6.201  42.359  10.612
90992W        W52281   9.283  30.015   1.439
90993W        W52282  20.192  30.979   2.253
90994W        W52283  32.970  26.006  14.859
90995W        W52284  11.280  26.680   4.751
90996W        W52285  31.141   6.864   3.247
90997W        W52286  29.963  37.859   2.300
90998W        W52287  38.840  34.867  13.528
90999W        W52288  34.506  10.794  13.363
91000W        W52289  12.701  10.714  13.870
91001W        W52290  23.637  33.101  14.375
91002W        W52291  22.054  44.303  14.983
91003W        W52292   3.309  30.940  13.455
91004W        W52293   6.309  20.095   4.170
91005W        W52294  43.495  22.098  11.898
91006W        W52295   8.743   8.313   1.364
91007W        W52296  32.078  21.524   3.646
91008W        W52297  44.961  19.616  11.090
91009W        W52298   7.836   4.781  11.106
91010W        W52299  21.730  31.549   2.838
91011W        W52300  28.550  43.414   1.322
91012W        W52301  14.322  13.296   1.883
91013W        W52302  11.794  19.246   3.238
91014W        W52303  38.075   4.896   2.396
91015W        W52304  20.617  30.915   1.316
91016W        W52305  16.166   0.395  12.854
91017W        W52306  31.097  20.230  11.104
91018W        W52307  21.170  13.842   1.304
91019W        W52308  44.299  20.233   1.821
91020W        W52309   6.276  19.633   1.359
91021W        W52310  40.316   2.925   0.267
91022W        W52311  41.018  31.992   2.193
91023W        W52312  38.932  11.260  12.438
91024W        W52313  18.061   4.727   1.265
91025W        W52314  36.515   6.371   2.294
91026W        W52315   8.242  38.043  14.938
91027W        W52316   3.445   3.835   0.296
91028W        W52317  17.184  32.042   0.904
91029W        W52318  42.960  10.700   2.797
91030W        W52319  31.148   7.296  12.048
91031W        W52320  17.637  39.003  11.933
91032W        W52321   2.436  29.057  13.913
91033W        W52322  21.026  11.720  11.054
91034W        W52323  25.052  23.628   0.332
91035W        W52324  34.560  37.557  13.378
91036W        W52325  24.533  25.610  11.543
91037W        W52326  32.557  30.554  12.025
91038W        W52327  20.085  36.421   2.671
91039W        W52328  33.921  28.553   1.324
91040W        W52329  24.724  11.334  11.060
91041W        W52330  14.609  19.724  12.048
91042W        W52331  36.587   7.688  11.984
91043W        W52332  33.603  25.971  13.381
91044W        W52333  32.531  12.197  14.010
91045W        W52334  37.477  15.185  14.388
91046W        W52335   2.472  38.564   4.800
91047W        W52336  31.479  36.457  10.908
91048W        W52337  24.487  13.717   2.663
91049W        W52338  12.720  13.839  12.087
91050W        W52339   0.747   5.852   0.382
91051W        W52340  40.886  24.564   3.294
91052W        W52341  41.446  20.640   3.205
91053W        W52342  14.751  23.595   3.349
91054W        W52343  37.476  14.786   1.922
91055W        W52344  28.983  18.175   0.451
91056W        W52345  31.084  27.585   4.264
91057W        W52346  18.716  42.354  12.538
91058W        W52347  10.777  37.961   1.256
91059W        W52348   3.932  43.010  11.894
91060W        W52349  32.590  36.935  13.985
91061W        W52350   3.339  30.439   3.827
91062W        W52351  37.851  15.088   0.360
91063W        W52352  26.642  38.419  13.327
91064W        W52353  14.129  36.352  13.487
91065W        W52354  22.571  40.384   3.212
91066W        W52355  35.911  28.071   1.869
91067W        W52356  34.050  20.073   3.348
91068W        W52357  28.681  20.759   2.186
91069W        W52358  12.731  21.027   1.727
91070W        W52359  14.098  12.125  11.062
91071W        W52360  44.394  16.624  12.497
91072W        W52361  21.090  27.460   0.266
91073W        W52362  43.451  32.446  11.963
91074W        W52363  25.075  12.300   2.847
91075W        W52364   3.262  27.487  12.480
91076W        W52365  34.086  26.589   2.849
91077W        W52366   0.903  24.058   4.619
91078W        W52367  33.408  24.514  14.946
91079W        W52368  16.158  29.058   2.353
91080W        W52369   2.905  20.125   4.631
91081W        W52370   3.845   9.770  13.005
91082W        W52371  36.020  25.705  10.467
91083W        W52372  14.263  37.477   3.307
91084W        W52373   2.274  25.548  13.010
91085W        W52374   7.735  13.677   3.708
91086W        W52375  41.394  39.475   1.897
91087W        W52376  29.626   5.223   9.937
91088W        W52377   1.742  29.543  10.999
91089W        W52378  22.718  32.585  11.074
91090W        W52379  30.546   7.804  14.953
91091W        W52380   5.929  23.997  12.500
91092W        W52381   2.875  10.719   0.324
91093W        W52382  24.019  33.968  13.328
91094W        W52383  23.513  30.026   4.725
91095W        W52384   1.242  24.617  10.473
91096W        W52385  10.281  29.578  11.967
91097W        W52386   4.367  34.953   1.702
91098W        W52387  38.077  27.627  13.541
91099W        W52388  32.476   7.417   1.395
91100W        W52389  32.127  40.308  10.523
91101W        W52390  25.989  43.356   4.726
91102W        W52391   5.280   5.406   3.840
91103W        W52392  14.209  27.475  12.475
91104W        W52393  43.509  27.178  14.945
91105W        W52394   4.722   2.417  14.409
91106W        W52395  22.641   6.913  11.999
91107W        W52396  30.634  27.619   0.751
91108W        W52397  21.659  36.357   3.827
91109W        W52398  31.982  38.371   1.215
91110W        W52399   0.883  14.217  10.973
91111W        W52400  18.174  11.313   2.780
91112W        W52401  17.266  17.692  14.429
91113W        W52402  30.609  16.268  10.900
91114W        W52403  21.183  23.551   1.847
91115W        W52404  29.949   2.278   5.092
91116W        W52405   5.208  40.032  13.541
91117W        W52406  10.768  37.383  12.894
91118W        W52407  26.458  39.823  12.447
91119W        W52408   6.806  25.027   0.420
91120W        W52409  31.039  15.819   4.178
91121W        W52410   4.287  34.435  13.539
91122W        W52411   5.696   1.457  12.575
91123W        W52412  41.896  37.552   3.163
91124W        W52413  18.070   5.880   1.381
91125W        W52414  35.070  41.449   3.852
91126W        W52415  37.527  16.770   3.339
91127W        W52416  25.967  15.235   4.811
91128W        W52417  27.127  24.008   4.146
91129W        W52418  10.778  20.645   1.705
91130W        W52419  35.991  34.372   4.628
91131W        W52420  40.041  15.272  11.988
91132W        W52421  20.184  32.585  13.845
91133W        W52422  37.553  24.552  10.960
91134W        W52423   3.809  25.183   1.310
91135W        W52424  14.709  35.391  14.779
91136W        W52425   2.858   7.810   1.927
91137W        W52426  33.076  13.835  11.858
91138W        W52427  15.605  36.885  11.428
91139W        W52428  27.148  12.749   0.871
91140W        W52429   0.970  30.599   2.334
91141W        W52430  22.572  12.294  11.004
91142W        W52431  13.339  41.013   1.408
91143W        W52432  19.103  32.009  12.410
91144W        W52433  41.407  37.941   3.368
91145W        W52434   9.243  28.080  10.615
91146W        W52435  30.965  13.274   1.910
91147W        W52436  18.062  17.591  11.452
91148W        W52437  35.894  19.602   4.197
91149W        W52438  39.974  32.050  11.895
91150W        W52439  18.757  10.284  12.421
91151W        W52440  34.944  11.774   1.853
91152W        W52441  38.514  30.041  13.047
91153W        W52442  26.018   5.798  14.987
91154W        W52443  37.887  20.570   0.824
91155W        W52444  21.095  24.723  11.599
91156W        W52445   2.808  24.479   3.672
91157W        W52446  38.063  25.621  14.762
91158W        W52447  17.172  35.602   1.242
91159W        W52448  11.265  24.545   4.122
91160W        W52449   0.363   7.800  12.846
91161W        W52450  34.920  42.992  13.424
91162W        W52451   4.894   0.446  12.862
91163W        W52452  23.594  25.169  14.021
91164W        W52453  12.200   5.712   3.849
91165W        W52454  13.599   0.903  13.309
91166W        W52455  25.685   1.812   3.796
91167W        W52456  36.497   8.667  10.940
91168W        W52457  15.136  15.677   4.163
91169W        W52458  23.691  30.555  10.550
91170W        W52459   1.772  42.830   1.390
91171W        W52460  27.184  26.558   4.647
91172W        W52461  11.668  25.985   4.152
91173W        W52462  34.556   9.866  13.493
91174W        W52463  41.913  23.573  11.464
91175W        W52464  16.753  35.058   3.253
91176W        W52465  27.120  20.568  14.974
91177W        W52466  18.644  14.181   0.481
91178W        W52467   7.710   2.273  10.437
91179W        W52468  19.245  39.021  10.083
91180W        W52469  11.697   6.704   0.400
91181W        W52470  41.375  35.554  13.805
91182W        W52471  16.633  12.141   1.916
91183W        W52472   6.912  44.325   0.435
91184W        W52473  43.418  13.299   1.899
91185W        W52474   4.756  34.094  11.420
91186W        W52475  16.672  17.098   4.155
91187W        W52476   0.950  15.651  10.097
91188W        W52477  18.063  28.465  13.364
91189W        W52478  33.007  40.809   4.191
91190W        W52479  14.209  34.456   2.333
91191W        W52480  35.384   3.816  14.024
91192W        W52481   9.366  18.111   2.302
91193W        W52482  22.733   8.362  14.305
91194W        W52483   3.929  29.057  10.526
91195W        W52484  11.812  35.494   1.839
91196W        W52485  10.824   3.385  11.577
91197W        W52486  28.579  13.764  13.866
91198W        W52487   9.845  32.491   3.264
91199W        W52488  19.603  35.503  12.831
91200W        W52489  12.226  25.143   2.185
91201W        W52490  17.214  10.368   0.753
91202W        W52491  23.592  19.757   4.334
91203W        W52492  16.691  41.941  11.587
91204W        W52493  43.294   8.890  11.493
91205W        W52494  13.345   6.333   1.439
91206W        W52495  23.687  10.350  12.926
91207W        W52496  21.545  19.557  14.023
91208W        W52497   2.877  20.558   4.603
91209W        W52498  21.746  41.335  12.021
91210W        W52499  44.499  12.205   3.779
91211W        W52500  23.171  18.134   2.381
91212W        W52501  14.209  23.207   4.138
91213W        W52502   0.936  18.093  14.006
91214W        W52503   5.754  37.852   4.636
91215W        W52504  38.053  27.098   1.401
91216W        W52505  35.445   3.938   0.264
91217W        W52506  20.765  31.579   4.617
91218W        W52507  40.039  31.529  14.277
91219W        W52508  31.910  34.572   3.789
91220W        W52509   5.877  20.141  13.903
91221W        W52510  11.229  13.265  10.592
91222W        W52511   0.372  37.064   1.731
91223W        W52512  18.670  33.108   1.438
91224W        W52513  35.392  25.639  14.475
91225W        W52514  34.865  26.075   4.757
91226W        W52515  40.918  15.158   1.291
91227W        W52516  29.529  40.979   3.224
91228W        W52517  13.727  10.878   4.793
91229W        W52518  33.971  37.439   1.837
91230W        W52519  35.093   8.399   1.820
91231W        W52520  29.629  40.442   5.295
91232W        W52521  14.118  18.665  12.024
91233W        W52522  11.345  44.356  10.038
91234W        W52523  15.093  40.438   2.795
91235W        W52524  14.216  33.105   3.638
91236W        W52525   8.766  38.071   0.874
91237W        W52526  35.020  31.014  12.039
91238W        W52527   0.356  36.514  14.936
91239W        W52528  25.051  11.851  11.393
91240W        W52529  11.268  13.812  13.062
91241W        W52530   7.746  39.450   2.750
91242W        W52531   5.414  27.622  13.383
91243W        W52532   4.328   4.292  12.397
91244W        W52533   3.778  39.496   4.283
91245W        W52534  38.859  16.091  14.352
91246W        W52535  37.560  22.181  12.011
91247W        W52536  27.645  16.220   0.932
91248W        W52537  29.095  19.636   3.630
91249W        W52538  12.656  29.090   1.301
91250W        W52539  44.400   4.450  10.001
91251W        W52540   4.837   6.880   3.268
91252W        W52541  32.471  22.630   2.878
91253W        W52542  29.481  34.102   1.755
91254W        W52543  43.977   3.956   2.824
91255W        W52544  13.202  29.578   3.856
91256W        W52545  43.766  38.371  14.902
91257W        W52546  10.217   3.786  13.399
91258W        W52547  42.472  22.225  14.413
91259W        W52548  35.561  12.659   0.406
91260W        W52549  25.478  20.048  12.019
91261W        W52550  12.807  21.064   2.245
91262W        W52551  31.995  20.737   2.403
91263W        W52552  10.170  10.771  14.488
91264W        W52553  32.923  26.071  14.327
91265W        W52554  31.957  19.602   4.227
91266W        W52555  40.395  24.659   0.735
91267W        W52556   9.199  32.100  14.319
91268W        W52557  18.615  19.685  13.928
91269W        W52558  44.892  11.662  14.888
91270W        W52559  17.175  22.597   4.690
91271W        W52560  14.822  34.095   0.383
91272W        W52561  44.855  29.075  10.974
91273W        W52562   5.262   3.883  14.975
91274W        W52563  35.394  32.122   1.260
91275W        W52564  29.459  15.697   1.259
91276W        W52565  24.015  23.995  14.864
91277W        W52566  19.570   8.805  14.988
91278W        W52567   6.411  36.041  13.374
91279W        W52568   4.895   3.734  11.099
91280W        W52569  15.297   8.828  12.393
91281W        W52570  32.007  40.016  11.509
91282W        W52571  34.867  28.079   0.333
91283W        W52572   9.365   4.441   4.816
91284W        W52573   5.288   5.920  12.946
91285W        W52574  18.668  30.081  14.816
91286W        W52575  23.629  39.538  10.618
91287W        W52576  44.008  26.142   2.346
91288W        W52577  44.366   5.787   0.963
91289W        W52578   4.738  19.653   9.932
91290W        W52579  30.108  15.138   0.938
91291W        W52580  10.749   9.654   0.338
91292W        W52581  28.057  22.052   3.731
91293W        W52582  39.001  23.514  12.411
91294W        W52583  12.138   3.447  13.959
91295W        W52584  36.098   7.785   3.381
91296W        W52585  21.538  15.265  12.051
91297W        W52586  12.672  26.649   4.259
91298W        W52587   8.717  18.222   4.348
91299W        W52588  22.679  37.990   2.350
91300W        W52589   0.443   7.297   1.297
91301W        W52590  15.645   2.730  10.894
91302W        W52591   5.220   6.249  11.075
91303W        W52592  33.004  10.820   1.371
91304W        W52593   3.251  18.263   3.230
91305W        W52594  17.146  22.097   4.718
91306W        W52595  37.021   8.169   1.858
91307W        W52596  10.251  42.475  10.965
91308W        W52597   3.383  35.386   2.682
91309W        W52598  32.988  35.593  12.487
91310W        W52599  38.337  37.429   1.450
91311W        W52600  14.151   3.307   3.282
91312W        W52601  30.587  12.242  13.325
91313W        W52602   6.755  30.622   2.205
91314W        W52603   1.781  44.901  11.893
91315W        W52604  27.556  41.831  11.906
91316W        W52605  43.960   4.341   1.410
91317W        W52606  40.537  38.535  13.807
91318W        W52607  41.974   0.897   4.628
91319W        W52608   5.249  16.160   0.441
91320W        W52609  17.066  30.472  11.095
91321W        W52610  23.702  16.095   4.756
91322W        W52611  20.744  40.894   4.609
91323W        W52612  19.170  18.207   2.390
91324W        W52613  24.220  15.728  10.106
91325W        W52614   3.866  28.054   4.158
91326W        W52615  29.460   8.399  12.580
91327W        W52616   9.352  27.164   2.394
91328W        W52617  17.719  37.453   3.717
91329W        W52618  20.094   8.287   1.248
91330W        W52619  34.056   7.372   3.713
91331W        W52620  21.219   4.846   3.854
91332W        W52621  43.902  42.466   3.210
91333W        W52622   8.787   1.383  12.556
91334W        W52623  21.541  17.695   2.902
91335W        W52624  10.856   5.274   0.913
91336W        W52625  12.672  42.782   5.223
91337W        W52626  12.715  14.176   2.874
91338W        W52627  39.826  20.107   2.317
91339W        W52628  43.918  26.141   4.736
91340W        W52629   6.685   9.742  14.891
91341W        W52630  17.135  11.354  14.967
91342W        W52631  43.793  17.232   1.727
91343W        W52632  18.068  40.966   0.778
91344W        W52633  42.452  32.607  12.544
91345W        W52634  14.607  25.520  10.933
91346W        W52635   9.793  19.759   1.729
91347W        W52636  25.123  13.735  10.510
91348W        W52637  42.818  15.759  12.992
91349W        W52638  17.637  11.846  11.920
91350W        W52639  15.583  40.836  14.425
91351W        W52640  39.503   7.688   3.809
91352W        W52641   9.697  35.881  14.935
91353W        W52642  31.125  19.210   0.248
91354W        W52643  20.766   5.274  11.973
91355W        W52644  25.999  43.826  14.834
91356W        W52645  23.728  37.362  11.074
91357W        W52646  30.153  34.062   2.819
91358W        W52647  13.205   9.209  10.520
91359W        W52648  37.924  43.503  11.598
91360W        W52649  18.635  30.608  12.851
91361W        W52650   3.835  20.741   3.652
91362W        W52651  17.737  16.295   4.824
91363W        W52652  29.602  28.673  14.499
91364W        W52653  34.958  29.997   3.224
91365W        W52654  25.510   5.305   3.286
91366W        W52655  20.231  12.703  12.457
91367W        W52656  39.047   1.387   4.601
91368W        W52657  13.683   0.297  11.892
91369W        W52658  19.159  30.157   1.312
91370W        W52659  23.070  32.136   2.795
91371W        W52660  21.644  15.815   2.234
91372W        W52661  11.826  20.252   3.656
91373W        W52662  43.483  10.877   4.763
91374W        W52663   5.357  35.362   0.796
91375W        W52664  33.442  24.722   2.803
91376W        W52665  12.199  34.588   2.330
91377W        W52666  20.050  16.204  13.382
91378W        W52667  20.686  38.883   0.283
91379W        W52668  36.027  22.695  13.494
91380W        W52669  35.063  32.551  10.919
91381W        W52670   0.483  37.514   4.121
91382W        W52671  21.062  33.897   2.724
91383W        W52672  11.186  31.962   3.286
91384W        W52673  20.229   1.909   4.825
91385W        W52674  39.917  32.062   3.759
91386W        W52675  26.101  21.248   0.297
91387W        W52676   2.246   3.865   4.619
91388W        W52677  34.522  18.250  11.377
91389W        W52678  36.381  17.694   0.315
91390W        W52679  16.789   7.773   2.257
91391W        W52680   5.377  27.066   2.349
91392W        W52681  13.180  14.784  11.051
91393W        W52682   5.849  25.091   3.345
91394W        W52683  41.031  43.336   3.816
91395W        W52684  16.224  30.123  14.486
91396W        W52685  39.348  33.940  14.002
91397W        W52686   0.315  37.473  10.924
91398W        W52687  44.805   8.164   5.164
91399W        W52688   6.831  14.763  13.364
91400W        W52689   7.721  34.395   4.775
91401W        W52690  30.132  44.268  13.359
91402W        W52691  42.292  11.751   2.231
91403W        W52692  38.977  21.077  11.862
91404W        W52693  13.265  28.959   0.955
91405W        W52694  38.928  29.958  12.854
91406W        W52695  14.767   3.344   1.282
91407W        W52696   7.909  25.617  13.539
91408W        W52697  30.154  17.208  10.434
91409W        W52698  39.338  13.653  14.872
91410W        W52699  17.153  34.405   1.247
91411W        W52700  14.821  18.749  14.810
91412W        W52701  31.561  25.058   3.665
91413W        W52702  37.060   8.852   0.840
91414W        W52703  43.871  16.799  11.894
91415W        W52704   8.839  23.185   4.284
91416W        W52705  19.122   2.310  14.318
91417W        W52706  34.943  31.582  10.540
91418W        W52707  10.774   4.727   3.256
91419W        W52708   6.278   6.865   3.809
91420W        W52709  27.486  25.195  12.026
91421W        W52710   6.833  20.148   4.768
91422W        W52711   1.871  17.254  12.370
91423W        W52712  35.921   6.739  13.480
91424W        W52713   7.893   9.656   3.305
91425W        W52714  30.983  22.742   2.238
91426W        W52715  13.229   0.824  11.460
91427W        W52716  13.819  14.100   4.709
91428W        W52717  29.606  42.872  11.999
91429W        W52718  31.407  37.907   1.860
91430W        W52719  25.208  32.987  13.505
91431W        W52720  15.129  26.609  11.113
91432W        W52721  25.523  27.678   0.434
91433W        W52722  38.873   5.787  12.863
91434W        W52723  26.619  37.870  13.494
91435W        W52724   2.909  13.816   0.349
91436W        W52725  12.233  18.278   0.737
91437W        W52726  44.811   0.925   2.764
91438W        W52727   8.791  12.354  10.942
91439W        W52728  33.947  13.149  13.795
91440W        W52729  13.238  25.162   0.732
91441W        W52730   8.362  32.055  10.606
91442W        W52731  15.234   3.865   0.868
91443W        W52732  29.995   6.386  10.426
91444W        W52733  15.770  21.249   3.340
91445W        W52734  28.599  21.086  12.942
91446W        W52735  23.042   6.424   0.740
91447W        W52736  28.664  27.540   1.798
91448W        W52737  34.461  41.524  10.629
91449W        W52738  26.120  34.493  14.762
91450W        W52739  16.248  33.453   1.227
91451W        W52740  10.662  24.082   0.808
91452W        W52741   1.802  41.490   1.712
91453W        W52742   8.398  30.923  11.096
91454W        W52743  13.800  37.932  14.993
91455W        W52744  40.836  22.100   4.723
91456W        W52745  30.994  12.643  11.922
91457W        W52746   0.983  44.383  10.949
91458W        W52747  26.203  19.589  10.599
91459W        W52748  20.136  30.137  13.924
91460W        W52749  34.435  42.806  12.469
91461W        W52750   1.277  17.727   4.790
91462W        W52751  34.050  42.378  13.967
91463W        W52752  39.917  35.361   4.678
91464W        W52753  28.594  22.198   1.292
91465W        W52754  19.713  17.138   3.816
91466W        W52755   6.812  24.495  10.083
91467W        W52756  23.635   6.746   3.288
91468W        W52757  17.064  38.015   2.854
91469W        W52758  44.857  17.135  13.363
91470W        W52759  40.865  32.945   1.852
91471W        W52760  11.625  32.960   1.832
91472W        W52761  17.188   4.929  10.118
91473W        W52762  35.582  19.119   1.764
91474W        W52763  42.948  30.916   3.819
91475W        W52764  21.158  17.759  12.927
91476W        W52765  17.760  35.574   2.866
91477W        W52766  18.259  23.033   4.313
91478W        W52767  25.650  43.328   1.217
91479W        W52768  32.911  20.716   1.241
91480W        W52769   7.675   3.752  12.502
91481W        W52770   5.781  12.834  12.998
91482W        W52771  20.755  34.958  12.580
91483W        W52772  35.443  27.613   0.392
91484W        W52773  43.770  31.467   3.820
91485W        W52774  20.631   4.408   3.825
91486W        W52775   0.856  12.316  11.467
91487W        W52776  14.144  19.187  12.516
91488W        W52777  26.965   4.837   4.161
91489W        W52778  44.951  33.600  12.921
91490W        W52779  12.776   1.968   0.387
91491W        W52780  12.658  35.093  14.827
91492W        W52781  43.873  10.771   3.867
91493W        W52782  44.787  38.483   0.330
91494W        W52783   1.960  42.520  13.863
91495W        W52784  12.612  25.529   4.185
91496W        W52785  37.060  43.338  11.465
91497W        W52786  15.133  18.110  12.009
91498W        W52787  18.626   3.410   2.708
91499W        W52788   8.320  29.498  13.335
91500W        W52789  40.947  33.417  11.609
91501W        W52790  23.079  35.483   3.361
91502W        W52791  40.808  44.431  10.593
91503W        W52792  28.569  19.677   0.733
91504W        W52793   9.750   1.872   3.215
91505W        W52794  39.369   4.337   1.934
91506W        W52795  24.698  43.844   3.695
91507W        W52796  36.885  40.031  14.379
91508W        W52797   2.388  44.332   3.191
91509W        W52798  15.164   7.189  11.547
91510W        W52799   4.313  23.619  11.881
91511W        W52800  19.777  44.758  12.504
91512W        W52801   4.315  42.933   2.200
91513W        W52802   6.273   0.946  13.319
91514W        W52803  11.807  20.527  13.057
91515W        W52804  18.109  17.599   2.335
91516W        W52805  35.085  34.579  12.886
91517W        W52806  24.157  27.668  10.978
91518W        W52807  33.433  10.293   0.359
91519W        W52808  17.224  22.633  12.390
91520W        W52809  28.022   3.902  11.548
91521W        W52810   8.826  13.271  14.853
91522W        W52811  36.936   3.354   2.190
91523W        W52812   5.240  15.648   3.148
91524W        W52813   9.222  43.453  12.040
91525W        W52814   2.226   0.407   3.175
91526W        W52815  18.259   1.950  13.840
91527W        W52816  36.386  35.903  12.982
91528W        W52817   5.392  24.631  13.444
91529W        W52818  34.014  19.229   0.854
91530W        W52819  11.321  43.967  10.941
91531W        W52820  22.621   5.774   1.838
91532W        W52821   1.895   2.814   0.470
91533W        W52822   2.934  40.487   0.349
91534W        W52823  43.350  11.666  14.771
91535W        W52824  38.445  27.094  12.834
91536W        W52825  43.367  18.558  13.964
91537W        W52826  35.516  36.497  12.402
91538W        W52827   7.876  27.582   4.781
91539W        W52828   9.384  23.708   0.740
91540W        W52829  23.525  11.813  11.567
91541W        W52830  22.243  15.602   0.248
91542W        W52831  15.774  12.785   3.800
91543W        W52832  29.172   7.835   5.286
91544W        W52833   2.430  34.479  13.415
91545W        W52834   3.876  32.539  12.982
91546W        W52835   0.444  19.080  14.320
91547W        W52836   4.336  31.439   4.326
91548W        W52837   6.230  42.292   3.743
91549W        W52838  22.119  29.106   1.737
91550W        W52839  10.323  41.538   0.956
91551W        W52840   0.433  33.497  12.827
91552W        W52841   8.893  22.686  13.803
91553W        W52842  28.573   7.230  12.370
91554W        W52843  21.677  16.724   2.283
91555W        W52844  42.945  22.605   1.843
91556W        W52845  39.009  24.529   3.221
91557W        W52846   5.791   6.261  14.937
91558W        W52847  37.581  40.840  13.000
91559W        W52848  42.016  35.876  13.907
91560W        W52849  11.349  43.951   2.677
91561W        W52850  38.893  35.081  14.350
91562W        W52851  18.782   3.320  14.875
91563W        W52852  39.835  19.629  14.000
91564W        W52853   5.208  39.992   3.295
91565W        W52854  27.559  44.328   0.391
91566W        W52855  28.461  28.671  10.927
91567W        W52856   0.406  28.022  12.401
91568W        W52857  17.273  26.107  13.316
91569W        W52858  30.601   8.778   1.815
91570W        W52859   9.777  21.720  14.872
91571W        W52860   6.316  25.595   0.303
91572W        W52861   9.674  25.586  13.901
91573W        W52862  25.663  15.207   2.891
91574W        W52863  29.512   5.864   4.731
91575W        W52864  38.375   5.880  14.784
91576W        W52865  14.760  25.091   1.287
91577W        W52866  21.620  12.788  12.521
91578W        W52867  36.438  42.290  14.764
91579W        W52868  19.045   5.726   0.479
91580W        W52869   8.772   0.453  14.854
91581W        W52870   4.356  25.119   4.261
91582W        W52871  19.626   0.936  13.325
91583W        W52872  42.527  38.451   2.861
91584W        W52873  41.914  14.240  12.917
91585W        W52874  16.140  21.568  10.011
91586W        W52875   6.408   9.190  11.969
91587W        W52876  12.738  21.729  14.359
91588W        W52877  16.082  23.071   3.219
91589W        W52878  26.207  34.456   3.772
91590W        W52879  20.118  10.652   4.260
91591W        W52880  43.311  31.012   1.264
91592W        W52881  43.916   2.279  11.954
91593W        W52882   7.261   4.854  14.003
91594W        W52883   2.375   9.748   2.699
91595W        W52884  37.549  19.649   3.377
91596W        W52885  37.345   4.267   9.939
91597W        W52886   0.249  15.726  10.404
91598W        W52887  13.655  24.045   4.299
91599W        W52888   6.880  22.243  12.424
91600W        W52889  13.195  15.139   1.837
91601W        W52890  21.252   4.784  14.448
91602W        W52891   5.439   7.686   2.229
91603W        W52892  30.005  23.034  11.996
91604W        W52893  36.841   4.443  13.024
91605W        W52894  11.248  23.518  14.351
91606W        W52895  44.928  40.515  11.910
91607W        W52896   0.756  11.742  14.955
91608W        W52897  43.325  10.299   1.232
91609W        W52898  23.216  22.146  13.367
91610W        W52899  44.827  37.879  11.505
91611W        W52900  44.879  21.070  11.968
91612W        W52901  38.831  14.110  13.985
91613W        W52902  42.026  43.295  10.412
91614W        W52903  21.117  15.721   0.962
91615W        W52904  17.655  24.050  13.797
91616W        W52905  14.196  13.703   4.250
91617W        W52906  38.412  23.677   4.733
91618W        W52907  19.043  35.556  12.484
91619W        W52908  36.458   9.722   4.758
91620W        W52909   3.840  36.971   3.317
91621W        W52910  26.056  30.057  14.948
91622W        W52911   3.712   3.219  11.548
91623W        W52912  36.463  37.387  14.426
91624W        W52913  33.434   9.382  12.421
91625W        W52914   3.827  28.144   3.360
91626W        W52915  10.745   4.389  10.438
91627W        W52916  21.558  31.436   4.821
91628W        W52917  15.308  25.110   1.901
91629W        W52918  33.498  39.820  11.887
91630W        W52919  16.133  32.503  10.526
91631W        W52920  42.341   4.310   1.771
91632W        W52921  13.200  18.749  13.408
91633W        W52922  14.612  22.024   0.819
91634W        W52923  40.344  10.781   0.432
91635W        W52924  21.524  42.310  11.868
91636W        W52925   8.888  29.622   3.165
91637W        W52926   7.849  20.203  13.003
91638W        W52927  35.457  16.200   3.774
91639W        W52928  15.281  43.345  12.067
91640W        W52929  38.067  26.074   4.256
91641W        W52930  28.669  26.112   2.321
91642W        W52931  18.560  40.522  11.940
91643W        W52932   4.932  41.479   2.324
91644W        W52933  38.897  35.393   1.925
91645W        W52934  21.599   1.411   1.845
91646W        W52935  19.040  41.464   2.733
91647W        W52936  40.851  10.153   0.917
91648W        W52937  13.807  11.845  10.578
91649W        W52938  42.881  17.571   4.181
91650W        W52939  43.312  16.157   4.718
91651W        W52940  23.169  18.089   0.845
91652W        W52941   8.740  14.316  13.007
91653W        W52942  21.077  24.085  13.846
91654W        W52943  17.104   4.388  11.012
91655W        W52944  27.470  17.658  13.812
91656W        W52945  29.641   5.326  13.352
91657W        W52946  25.979  33.914   1.913
91658W        W52947  21.189  42.784   2.312
91659W        W52948  26.555  27.033   5.318
91660W        W52949  40.880  38.430  14.812
91661W        W52950  31.446   1.969   2.185
91662W        W52951  32.055   0.777   2.382
91663W        W52952  10.243  27.495  11.456
91664W        W52953  22.628  23.158  12.562
91665W        W52954  43.472  33.500  13.956
91666W        W52955  23.006   8.773  10.943
91667W        W52956  25.189  20.727   5.288
91668W        W52957  26.067  13.826  13.455
91669W        W52958  13.211   4.446  13.381
91670W        W52959  35.600   0.825  10.465
91671W        W52960  19.220   9.281  12.003
91672W        W52961  14.834   4.404  10.947
91673W        W52962  29.147   5.269  12.343
91674W        W52963  15.147  20.064   3.199
91675W        W52964  17.280   3.433   5.224
91676W        W52965  35.078  38.922   4.287
91677W        W52966  27.988   8.402   1.283
91678W        W52967  35.416  11.315  13.539
91679W        W52968  31.092  19.203  14.374
91680W        W52969   0.963   5.893  12.550
91681W        W52970   3.907   2.303  12.921
91682W        W52971  36.033   5.887   1.838
91683W        W52972  22.194  36.521   0.738
91684W        W52973  41.993  22.196   1.328
91685W        W52974   7.242  13.704   3.849
91686W        W52975  34.513  32.480  10.961
91687W        W52976  14.783   0.302  11.019
91688W        W52977  18.164  44.816  11.470
91689W        W52978  23.619  22.162  14.917
91690W        W52979  29.435   4.253   5.721
91691W        W52980  18.676   0.282  14.918
91692W        W52981   7.705  34.404  14.774
91693W        W52982  20.040  27.584  10.535
91694W        W52983  29.437   4.905  14.280
91695W        W52984  37.853  25.624  10.424
91696W        W52985  37.926  28.053  13.396
91697W        W52986  31.921  41.906  13.311
91698W        W52987  14.737  29.038  14.998
91699W        W52988   6.372  31.984   1.764
91700W        W52989  17.108  42.895   2.671
91701W        W52990  25.524  35.427   0.289
91702W        W52991  23.080  14.291  11.920
91703W        W52992  28.099   6.424  14.338
91704W        W52993   2.313  26.974   2.205
91705W        W52994  23.564  14.659   4.735
91706W        W52995  38.353   4.213  12.477
91707W        W52996  18.606  13.316  13.806
91708W        W52997   0.777  33.509   3.827
91709W        W52998  13.173  33.928  13.484
91710W        W52999  20.659  27.569  14.512
91711W        W53000  41.988  42.022  14.782
91712W        W53001   6.910  27.523  11.587
91713W        W53002  44.414  20.679  14.471
91714W        W53003   3.823  19.596  12.075
91715W        W53004  21.191   3.256  13.973
91716W        W53005  37.364   3.229   1.384
91717W        W53006  24.681  26.664  11.545
91718W        W53007  21.156  18.097   3.307
91719W        W53008  33.892  28.555  12.424
91720W        W53009  44.777   4.363  10.443
91721W        W53010  43.904  15.728  12.561
91722W        W53011   7.280  36.873   1.405
91723W        W53012  16.198   2.914  13.422
91724W        W53013  28.564  15.699   3.776
91725W        W53014   1.910   8.690  13.523
91726W        W53015   8.826   7.752  12.995
91727W        W53016  14.649  31.145  13.856
91728W        W53017   3.229  20.106   4.749
91729W        W53018  28.041  34.979  11.976
91730W        W53019  41.358  19.763   4.206
91731W        W53020  14.822   8.201  14.384
91732W        W53021  11.171  11.179   0.268
91733W        W53022  38.459  15.266  10.025
91734W        W53023  29.110  13.628   2.687
91735W        W53024  14.667   2.921  10.465
91736W        W53025   2.879  15.176  10.987
91737W        W53026   6.720   8.731   9.987
91738W        W53027  35.044   2.817  11.389
91739W        W53028  40.961  38.396   3.230
91740W        W53029   1.958  26.053  12.480
91741W        W53030  18.577  10.163   2.776
91742W        W53031  13.660  31.528  13.008
91743W        W53032  40.890  20.180  12.041
91744W        W53033   1.245  37.060   4.718
91745W        W53034  19.752  19.596   0.436
91746W        W53035  36.441  29.544  14.954
91747W        W53036  38.887  29.559  10.952
91748W        W53037   7.722  36.503  11.889
91749W        W53038  28.967  25.504   1.426
91750W        W53039  42.318  23.632   1.337
91751W        W53040   4.322  11.367  14.470
91752W        W53041  16.305  27.180   0.958
91753W        W53042  13.155  40.018   0.865
91754W        W53043  11.811   0.971  14.904
91755W        W53044  30.603  23.566   2.826
91756W        W53045  15.654  36.878   2.824
91757W        W53046   0.309   5.786  13.818
91758W        W53047   9.874  22.068   4.139
91759W        W53048   3.905  24.648   9.580
91760W        W53049  31.457  41.826  13.514
91761W        W53050   6.346  25.533  11.470
91762W        W53051  24.557  28.971  11.868
91763W        W53052   0.473  32.974   0.302
91764W        W53053  29.169  22.660  11.124
91765W        W53054  11.148  29.034   3.183
91766W        W53055  28.519  11.623   3.245
91767W        W53056  10.324  36.940   1.737
91768W        W53057  44.414  13.718   4.642
91769W        W53058  23.579  44.892  14.975
91770W        W53059  38.838  16.634  11.977
91771W        W53060   1.768  15.592  11.569
91772W        W53061  38.961   2.293  14.974
91773W        W53062  44.450  13.665  11.402
91774W        W53063  26.665   4.843   4.835
91775W        W53064  30.927   0.904   1.847
91776W        W53065  19.243  14.704   4.229
91777W        W53066   6.400  20.055  12.830
91778W        W53067  20.266  29.520   2.212
91779W        W53068  20.215  21.747  13.925
91780W        W53069  41.406  22.238  11.112
91781W        W53070  19.542  34.889  13.923
91782W        W53071  12.291  15.097  13.359
91783W        W53072   6.299  19.592   4.311
91784W        W53073  14.651   3.942   9.651
91785W        W53074  34.951  38.348   3.359
91786W        W53075  17.617   4.411  14.400
91787W        W53076  33.000  44.890  14.398
91788W        W53077   7.671  34.955  14.307
91789W        W53078  25.666  22.743  11.113
91790W        W53079   2.736   0.950   3.854
91791W        W53080   5.828   9.864  12.087
91792W        W53081  35.921  27.053   4.600
91793W        W53082  34.032  26.694  10.104
91794W        W53083  25.023  13.820   4.733
91795W        W53084  43.472  17.112  11.386
91796W        W53085  21.575  29.012  14.011
91797W        W53086  14.169  20.654  13.331
91798W        W53087  20.581  39.345   0.386
91799W        W53088  16.236  20.056   1.888
91800W        W53089  27.060  21.107   5.167
91801W        W53090  20.200   2.286  12.399
91802W        W53091  41.375  16.807  10.438
91803W        W53092  12.141  36.918  13.364
91804W        W53093   6.867  17.119  14.807
91805W        W53094  14.166  31.414  10.118
91806W        W53095  22.590   1.437  14.840
91807W        W53096  24.672  25.609  11.073
91808W        W53097  44.002  17.186   3.665
91809W        W53098   7.680  44.839   1.821
91810W        W53099  12.243  20.607   9.514
91811W        W53100  16.603  28.523  11.465
91812W        W53101  15.779  10.667  13.052
91813W        W53102   2.806   4.258   3.156
91814W        W53103  40.845   8.190   3.760
91815W        W53104   8.752  43.995  11.878
91816W        W53105  19.177   1.902   2.798
91817W        W53106  16.309  35.433  12.975
91818W        W53107  21.599  15.754  14.947
91819W        W53108  28.535  19.284   2.225
91820W        W53109  31.609   7.358  10.937
91821W        W53110  21.519  28.617   1.782
91822W        W53111  33.473   0.914  10.976
91823W        W53112  27.994  23.241   3.741
91824W        W53113   5.427  31.424  12.844
91825W        W53114  34.091   1.290  13.826
91826W        W53115  25.658   6.283   2.780
91827W        W53116   9.684   2.359  14.457
91828W        W53117  12.689  16.685  13.397
91829W        W53118  41.301  22.047  13.808
91830W        W53119  34.472  11.163   1.905
91831W        W53120   6.238  19.749  11.953
91832W        W53121   5.218   2.841  12.924
91833W        W53122   6.839  36.075  11.373
91834W        W53123   4.843  11.852  12.340
91835W        W53124  20.603  30.979   1.789
91836W        W53125  44.007  30.470   3.642
91837W        W53126   4.770  38.432  10.127
91838W        W53127  37.575   5.246  11.565
91839W        W53128  44.393  22.199   0.468
91840W        W53129   6.235  19.059  11.423
91841W        W53130  17.229  32.472   3.856
91842W        W53131  41.329  16.585  12.426
91843W        W53132  29.571  16.757   0.287
91844W        W53133   9.233  28.652   3.179
91845W        W53134   1.346  22.056   2.887
91846W        W53135   4.901  44.000   0.934
91847W        W53136  21.193  34.912   1.373
91848W        W53137  16.162  11.639  13.393
91849W        W53138  33.383  20.227   2.199
91850W        W53139   5.838  22.238   9.566
91851W        W53140  28.015  33.529  11.571
91852W        W53141  25.218   4.378  13.383
91853W        W53142  18.154   0.264   4.649
91854W        W53143  38.378  13.229   0.819
91855W        W53144  32.080   1.380  10.489
91856W        W53145   8.858   3.289   2.309
91857W        W53146   8.219  41.818  10.996
91858W        W53147   6.351  25.980  13.514
91859W        W53148  27.157   7.701  14.512
91860W        W53149  39.025   1.477   2.842
91861W        W53150  13.670  24.022   3.866
91862W        W53151   1.348  25.476  12.525
91863W        W53152   7.339  29.925   4.815
91864W        W53153  33.522  18.073  11.415
91865W        W53154  25.035   7.823  12.894
91866W        W53155  42.017  12.281  10.960
91867W        W53156  14.226  11.246   3.346
91868W        W53157   6.188   5.306  12.827
91869W        W53158  28.598  37.066  11.902
91870W        W53159  36.068  27.061   3.294
91871W        W53160  38.909   4.286   3.805
91872W        W53161  17.744  13.618  13.808
91873W        W53162  40.955  16.734   2.389
91874W        W53163  15.278  38.488   1.262
91875W        W53164  21.581  33.900   4.640
91876W        W53165  13.672   8.217   1.331
91877W        W53166  21.036   0.980  13.376
91878W        W53167   8.892   2.403  13.826
91879W        W53168  27.154  16.645   0.812
91880W        W53169  36.032   7.898  14.950
91881W        W53170   7.188   2.251   0.728
91882W        W53171   7.281  36.094  12.088
91883W        W53172  30.942  37.014  14.504
91884W        W53173  16.217   8.342   0.786
91885W        W53174  22.995  24.482   2.664
91886W        W53175   6.774  30.430  13.011
91887W        W53176  13.172  17.186  12.542
91888W        W53177  42.472  30.622   2.701
91889W        W53178   0.866  34.082  11.446
91890W        W53179   9.702  40.377  12.042
91891W        W53180  36.536  15.140   4.682
91892W        W53181  14.633  41.452   3.700
91893W        W53182  29.513  32.490   2.253
91894W        W53183   2.362  43.939  14.851
91895W        W53184  36.381  36.884   0.936
91896W        W53185   9.735  36.371   2.190
91897W        W53186  34.118  10.876   0.753
91898W        W53187  16.622   8.223   0.343
91899W        W53188  11.208  41.439  11.035
91900W        W53189  28.600  26.625   0.763
91901W        W53190  23.010  13.845   0.799
91902W        W53191  23.540  43.353   1.791
91903W        W53192   3.419  23.654  10.600
91904W        W53193  33.010  23.015   4.152
91905W        W53194  36.533  15.260  14.388
91906W        W53195  36.571  18.703  10.452
91907W        W53196   9.844  15.085   3.235
91908W        W53197  20.685  32.528  10.579
91909W        W53198  25.171  18.785  12.056
91910W        W53199   4.734  30.450  12.407
91911W        W53200  37.389  25.616  14.882
91912W        W53201  25.018  20.717  14.781
91913W        W53202   4.765  29.604   4.648
91914W        W53203   0.771  17.801  12.052
91915W        W53204  22.179  25.208   2.367
91916W        W53205  13.164  10.212   0.775
91917W        W53206  39.952  20.706  11.019
91918W        W53207  32.514  30.147   4.753
91919W        W53208  43.905   4.759  10.051
91920W        W53209  19.605  39.387  14.507
91921W        W53210  12.248  32.628   9.568
91922W        W53211  37.430  36.062   2.257
91923W        W53212  17.680   4.441   4.733
91924W        W53213   2.787  33.594  12.503
91925W        W53214  39.413  18.605   0.400
91926W        W53215  39.406  32.906  10.956
91927W        W53216   9.890  34.069  14.371
91928W        W53217  38.446  40.382  12.401
91929W        W53218  15.250  26.064   3.271
91930W        W53219  21.655  23.124   3.744
91931W        W53220  30.126  40.856  12.521
91932W        W53221  11.156  20.765   3.268
91933W        W53222  29.539  30.995  14.794
91934W        W53223  25.542   0.778  13.377
91935W        W53224  16.131  27.571  13.924
91936W        W53225  18.161  41.836   2.684
91937W        W53226  31.135  38.402   3.166
91938W        W53227   0.765   1.342   2.885
91939W        W53228  11.863  41.863   2.881
91940W        W53229  11.322  31.985   4.282
91941W        W53230  34.530   9.786   1.935
91942W        W53231   8.362  12.700  11.007
91943W        W53232  30.083   5.330  13.008
91944W        W53233  13.215  13.229   3.339
91945W        W53234  25.995  23.492  12.388
91946W        W53235   0.796   2.299  13.508
91947W        W53236   8.170  27.068  14.914
91948W        W53237  14.723  31.608   2.385
91949W        W53238   4.420  29.015   1.361
91950W        W53239   0.366  39.935  12.386
91951W        W53240  38.026  10.668   4.804
91952W        W53241  19.092  25.101  13.057
91953W        W53242  29.007   0.304   3.208
91954W        W53243  37.519   4.777   1.852
91955W        W53244   8.184  28.972   2.245
91956W        W53245  15.816  18.249   9.535
91957W        W53246  18.773   0.818   1.801
91958W        W53247   0.326  14.246  13.978
91959W        W53248  18.111  39.328  11.924
91960W        W53249  37.025  42.463  12.823
91961W        W53250  40.831  14.725   1.381
91962W        W53251   2.962  24.648  11.436
91963W        W53252  41.941  20.250   3.209
91964W        W53253  36.357  39.354   1.400
91965W        W53254  43.983  10.142   2.406
91966W        W53255   6.372   7.700  12.881
91967W        W53256  21.064  40.952   0.397
91968W        W53257  27.979  19.279  10.053
91969W        W53258  35.060  28.459   2.672
91970W        W53259   5.693  34.014   1.397
91971W        W53260  41.357  11.676   0.917
91972W        W53261   8.219   1.905  14.416
91973W        W53262  11.243  19.721  11.492
91974W        W53263   9.340   0.327   4.800
91975W        W53264  33.459  39.856   0.766
91976W        W53265  13.327  16.637   0.338
91977W        W53266  29.978   5.405  11.070
91978W        W53267  31.034  22.548   4.264
91979W        W53268   2.233   0.780   0.423
91980W        W53269  31.588   9.205   3.164
91981W        W53270  14.217   9.383  11.471
91982W        W53271  20.036   3.299   2.408
91983W        W53272   1.933  32.490  13.360
91984W        W53273  38.055   0.882   4.253
91985W        W53274   7.259   6.885  12.402
91986W        W53275  37.474  15.771   4.701
91987W        W53276  29.125   6.327   0.244
91988W        W53277  42.337  38.986   4.820
91989W        W53278   0.814  24.599   2.667
91990W        W53279  24.188  30.946   0.735
91991W        W53280  25.571  21.665  12.567
91992W        W53281  26.073  30.062   3.781
91993W        W53282  30.563   5.341   1.423
91994W        W53283  42.406  38.847   2.800
91995W        W53284  12.668  43.369   0.446
91996W        W53285  10.227  38.382  10.562
91997W        W53286  13.602  19.150  13.871
91998W        W53287   9.168  26.159  12.044
91999W        W53288  14.807   5.879   2.192
92000W        W53289  26.600   0.764  12.904
92001W        W53290  41.491   7.731   3.327
92002W        W53291   9.650  10.808   4.636
92003W        W53292  26.563  42.912  11.585
92004W        W53293  31.955  19.630  12.016
92005W        W53294  13.736   0.250  12.888
92006W        W53295  18.070  23.715   0.284
92007W        W53296  11.759  36.855  13.437
92008W        W53297  32.585   2.922   4.175
92009W        W53298  35.397   4.751  12.936
92010W        W53299   2.959  18.557  14.883
92011W        W53300  28.973  10.356   0.394
92012W        W53301  37.024  39.366  10.493
92013W        W53302  22.215  11.171  13.535
92014W        W53303  38.462  30.016   4.188
92015W        W53304   2.840  30.441   0.313
92016W        W53305  32.071  24.066   1.398
92017W        W53306  40.470   9.275   1.853
92018W        W53307   5.348  25.551  14.442
92019W        W53308   2.946  16.294   3.646
92020W        W53309  41.934  11.689   0.911
92021W        W53310  33.993  10.702  12.917
92022W        W53311  33.438  16.734  11.044
92023W        W53312  18.107  25.712   2.305
92024W        W53313  14.788  36.401  11.902
92025W        W53314   4.836  40.503  11.032
92026W        W53315  26.586   6.377  12.083
92027W        W53316   6.677   5.244   4.630
92028W        W53317  26.964   8.832   2.893
92029W        W53318  43.415  42.441   4.780
92030W        W53319  24.600  13.268   4.287
92031W        W53320  42.842  37.533   1.925
92032W        W53321  38.846  21.743   1.383
92033W        W53322   9.757  42.015  10.966
92034W        W53323   9.673  20.226   3.848
92035W        W53324  19.128   0.837  14.371
92036W        W53325  22.178  19.650  13.999
92037W        W53326  15.206  29.001  14.311
92038W        W53327  44.995  41.402   2.806
92039W        W53328  32.116  26.573   1.403
92040W        W53329  13.304  44.315  12.504
92041W        W53330  15.132   4.729  11.524
92042W        W53331   6.194  20.051  14.954
92043W        W53332  28.550  15.310   3.788
92044W        W53333   5.792  42.401  11.394
92045W        W53334  41.028   7.906  12.563
92046W        W53335  44.260  41.836  14.775
92047W        W53336   5.766  11.299   3.631
92048W        W53337  28.060  11.746   0.915
92049W        W53338  23.539  42.927   2.669
92050W        W53339  36.985  14.249  11.577
92051W        W53340  30.505  18.182   3.207
92052W        W53341  33.550  27.647  12.348
92053W        W53342  14.143  26.160  10.889
92054W        W53343   9.172  34.041  13.973
92055W        W53344   7.354  27.022   4.131
92056W        W53345  24.510  35.554  13.009
92057W        W53346  40.048   2.761   1.836
92058W        W53347  16.136   3.317   3.146
92059W        W53348  31.035  41.420   2.677
92060W        W53349  34.863   4.321  12.059
92061W        W53350  23.241  19.693   5.291
92062W        W53351   7.905  38.978  10.012
92063W        W53352  44.951   0.339   4.660
92064W        W53353  33.939  24.980  10.423
92065W        W53354  40.936  42.983  11.564
92066W        W53355  25.610  41.418  10.444
92067W        W53356  40.416   4.838  11.053
92068W        W53357   2.780  22.174   3.318
92069W        W53358  19.256  10.739  10.892
92070W        W53359   0.776  32.519  13.027
92071W        W53360  34.593  43.507  13.337
92072W        W53361  26.052  32.413   2.838
92073W        W53362  30.446  14.653  14.301
92074W        W53363  36.074  23.682   2.884
92075W        W53364  38.881   7.747  11.008
92076W        W53365  34.948  44.271  11.061
92077W        W53366  21.061  38.840   3.812
92078W        W53367   8.388  10.353   4.302
92079W        W53368  14.649  18.126   0.826
92080W        W53369  26.169   4.743  10.483
92081W        W53370  27.596  39.037   3.829
92082W        W53371  15.247  37.423   0.280
92083W        W53372  16.658  30.544   2.779
92084W        W53373  19.704  27.546   0.738
92085W        W53374  42.395  28.538  11.121
92086W        W53375  37.050   2.941  14.507
92087W        W53376  26.181  35.068   0.933
92088W        W53377   6.341  21.532  13.862
92089W        W53378  26.032   6.804  14.329
92090W        W53379   0.324   0.929   1.744
92091W        W53380  14.791  12.733   0.731
92092W        W53381  35.408   7.370  14.939
92093W        W53382  13.711  10.301  14.344
92094W        W53383  30.090  28.550  14.780
92095W        W53384  34.913  34.595  10.491
92096W        W53385  21.044   2.915  14.948
92097W        W53386  40.414  14.714  12.973
92098W        W53387  34.037  16.641   3.821
92099W        W53388   5.904  11.299   0.812
92100W        W53389  14.772  21.521  13.854
92101W        W53390  42.924  30.080   0.870
92102W        W53391  14.670   2.827   3.239
92103W        W53392  39.024  29.161  11.564
92104W        W53393   9.888  36.002   2.723
92105W        W53394  19.614  32.476  14.871
92106W        W53395  25.091  12.718  13.543
92107W        W53396  23.732  35.059  12.835
92108W        W53397  14.826  41.875   3.272
92109W        W53398  17.186  25.606   4.215
92110W        W53399  32.948  22.142   3.233
92111W        W53400  27.643  44.315  10.422
92112W        W53401  19.192   4.880  11.095
92113W        W53402  39.017  19.607  10.932
92114W        W53403   2.930   7.880  10.533
92115W        W53404  22.719  28.441  13.801
92116W        W53405   2.938  21.653  14.838
92117W        W53406  13.600   3.305   4.330
92118W        W53407   4.738  29.447   3.330
92119W        W53408  12.167  44.803   4.829
92120W        W53409   9.671  12.308  14.914
92121W        W53410   1.842   5.362  10.892
92122W        W53411  44.503  40.026  10.082
92123W        W53412  26.675  21.149   4.193
92124W        W53413  39.377  38.858   3.217
92125W        W53414   0.921  18.607  12.544
92126W        W53415   9.165  14.306  12.557
92127W        W53416  29.639  29.017  10.043
92128W        W53417  18.671  13.689   2.178
92129W        W53418  32.086  26.161  13.801
92130W        W53419  36.085   0.787   3.676
92131W        W53420  31.088   9.800  12.475
92132W        W53421  10.845  44.462  13.910
92133W        W53422   9.813  39.415   4.229
92134W        W53423  12.658  11.290  14.403
92135W        W53424  40.524  14.113  10.011
92136W        W53425   6.265  23.634   0.829
92137W        W53426  26.679  37.834  11.445
92138W        W53427  26.135  23.117   3.292
92139W        W53428  13.123  20.155  13.844
92140W        W53429  30.055  23.551   1.783
92141W        W53430  34.433  28.068   2.831
92142W        W53431  32.908  25.565   4.207
92143W        W53432  11.727  10.319  13.480
92144W        W53433  38.336  25.157  14.489
92145W        W53434  17.101  22.158  11.074
92146W        W53435  31.129  27.999  10.113
92147W        W53436   1.249  30.648   3.189
92148W        W53437   5.691  18.223  12.575
92149W        W53438  24.990   2.933  12.388
92150W        W53439   4.841  42.832  12.095
92151W        W53440   9.824  44.504   4.752
92152W        W53441   1.276  32.091   5.189
92153W        W53442  19.681  34.982  11.037
92154W        W53443  28.681  44.841   2.697
92155W        W53444  28.616  10.150   4.140
92156W        W53445  25.168  26.623   0.393
92157W        W53446  42.783  23.635   4.633
92158W        W53447  43.495  43.505   0.481
92159W        W53448  10.185  28.096  14.488
92160W        W53449   3.790  26.185   3.345
92161W        W53450  26.486  16.118  10.607
92162W        W53451  21.158  26.153  13.420
92163W        W53452  13.660  39.990  11.502
92164W        W53453   5.427  10.189  12.959
92165W        W53454  39.337  43.896   4.651
92166W        W53455  13.747  13.112   0.808
92167W        W53456  25.534  14.736  11.864
92168W        W53457  21.625  26.672  13.340
92169W        W53458   1.414   5.875  13.967
92170W        W53459  18.284  22.214  14.399
92171W        W53460  10.215  13.698   1.288
92172W        W53461  11.850  42.790   4.800
92173W        W53462  40.317  43.386  12.968
92174W        W53463  24.048  39.463  11.571
92175W        W53464   5.384  31.896  12.930
92176W        W53465  39.560  12.614  14.366
92177W        W53466  37.471  29.008   1.278
92178W        W53467  33.426  26.698  11.987
92179W        W53468  37.462  14.280  11.031
92180W        W53469   1.394  30.908   1.880
92181W        W53470  42.925  17.677  14.795
92182W        W53471  19.254  21.242   4.621
92183W        W53472  16.208   0.281  14.009
92184W        W53473  29.550  14.109   3.243
92185W        W53474   7.910  15.612   2.710
92186W        W53475  15.302  24.631   2.710
92187W        W53476  11.223  37.933   0.966
92188W        W53477  23.715  40.935  14.497
92189W        W53478  29.945   2.892   2.820
92190W        W53479  44.432  12.281   4.781
92191W        W53480   7.258  35.028   1.743
92192W        W53481  30.538   7.411   3.780
92193W        W53482  29.476  29.139   0.270
92194W        W53483  28.462  34.411  13.369
92195W        W53484   1.432  15.208  13.328
92196W        W53485  10.638  20.760  13.927
92197W        W53486  39.367  18.573  11.985
92198W        W53487   2.313   7.304   3.206
92199W        W53488   4.862   3.452   2.229
92200W        W53489  36.503  10.159  10.150
92201W        W53490  17.093  28.145  13.049
92202W        W53491  41.365  42.842   2.725
92203W        W53492  39.972  32.395   1.426
92204W        W53493   2.956  42.026  12.030
92205W        W53494  38.034  25.032   1.432
92206W        W53495  44.887  12.137   0.736
92207W        W53496  31.644  15.593  13.881
92208W        W53497   0.925  23.506   4.597
92209W        W53498  15.284   0.377  14.861
92210W        W53499  44.938  44.471  12.359
92211W        W53500   2.855  33.946  13.000
92212W        W53501  24.155  20.612  13.532
92213W        W53502  31.551  19.753  14.877
92214W        W53503  10.316  41.823  14.964
92215W        W53504   2.244   9.277   3.838
92216W        W53505   9.772   9.166   2.179
92217W        W53506  17.775  22.633   3.386
92218W        W53507  41.413  28.074  13.333
92219W        W53508  36.962   5.838  10.537
92220W        W53509   6.286  30.055   2.796
92221W        W53510  39.896  27.577   0.919
92222W        W53511  29.116  11.368   0.944
92223W        W53512  13.705   4.718   0.751
92224W        W53513  22.626  34.409  14.910
92225W        W53514  39.914   1.855   0.855
92226W        W53515   8.213  20.114  10.502
92227W        W53516  17.292   1.256   0.748
92228W        W53517  13.717  16.268   1.762
92229W        W53518  25.121  41.370  14.906
92230W        W53519  42.940  41.862   5.213
92231W        W53520   0.330  25.017  11.509
92232W        W53521  30.580   3.741   4.598
92233W        W53522  28.041   2.268   0.280
92234W        W53523   1.776  28.527   4.816
92235W        W53524   1.881  27.015  11.076
92236W        W53525  17.730  12.139  12.859
92237W        W53526  34.877  28.584   0.320
92238W        W53527  40.519  43.873   2.373
92239W        W53528  41.795  42.420  14.993
92240W        W53529  17.733  39.818  10.602
92241W        W53530  15.224  13.731  10.569
92242W        W53531   8.755   5.417   2.321
92243W        W53532  21.633   9.845  11.028
92244W        W53533   4.835  30.607   0.797
92245W        W53534  16.118  40.397  13.981
92246W        W53535   8.691  19.562  12.350
92247W        W53536  32.123  10.380   4.621
92248W        W53537   5.773  20.179  13.347
92249W        W53538  10.139   3.741  12.544
92250W        W53539  12.243  37.993  14.388
92251W        W53540  33.025  23.623  13.468
92252W        W53541  11.782  31.403   0.901
92253W        W53542   5.708   1.460  12.052
92254W        W53543   9.277   2.237  13.981
92255W        W53544  27.057  20.151   4.633
92256W        W53545   6.188   9.694  11.924
92257W        W53546  40.358  33.423  10.582
92258W        W53547  18.686  25.967   1.850
92259W        W53548  25.204  34.013   4.200
92260W        W53549  27.666  26.983   1.259
92261W        W53550   4.285  39.989  13.792
92262W        W53551  30.629  29.670  11.376
92263W        W53552  38.848   1.841   2.736
92264W        W53553  43.292   7.231   0.756
92265W        W53554  32.619   6.858   0.910
92266W        W53555  34.084  22.607  13.972
92267W        W53556  39.999  28.547   2.363
92268W        W53557  39.928  11.652   2.808
92269W        W53558  39.832  18.734   1.440
92270W        W53559  19.042  16.718   0.786
92271W        W53560   8.276   4.328   1.728
92272W        W53561   1.265  15.664  11.113
92273W        W53562  23.553  29.617   1.824
92274W        W53563   7.333  13.807   1.394
92275W        W53564  33.931  39.011   0.380
92276W        W53565  30.443  19.596  10.499
92277W        W53566  34.883  25.976   0.362
92278W        W53567   5.286   8.658   3.757
92279W        W53568  19.575  18.086  11.866
92280W        W53569  37.406  24.095   0.483
92281W        W53570  26.525  14.201  11.996
92282W        W53571  30.931  29.465   1.846
92283W        W53572   2.845  18.092  10.973
92284W        W53573  38.345   0.763   1.258
92285W        W53574  37.481  37.939   3.311
92286W        W53575  16.164  21.708  11.956
92287W        W53576  30.524  11.225  13.875
92288W        W53577  29.091  44.832   3.784
92289W        W53578  33.506  30.446  13.467
92290W        W53579  32.609  18.194   4.683
92291W        W53580   9.720  26.653  11.040
92292W        W53581  43.865  12.706  11.449
92293W        W53582  31.960   1.357   0.315
92294W        W53583  32.090  16.810  11.863
92295W        W53584  38.410  44.951   2.289
92296W        W53585  11.663  10.831  10.917
92297W        W53586  34.397  34.881  10.936
92298W        W53587  14.297   9.268   3.205
92299W        W53588   5.325   9.290   2.407
92300W        W53589  14.182  18.079   5.149
92301W        W53590  29.048   3.415  11.573
92302W        W53591  21.663  16.779   4.333
92303W        W53592   2.739   8.389  14.417
92304W        W53593  34.423  10.711  14.450
92305W        W53594  42.814  34.934  12.565
92306W        W53595  20.759  37.477   3.369
92307W        W53596  29.670   4.342  12.093
92308W        W53597   6.367  17.172   4.804
92309W        W53598  26.129  21.043   2.893
92310W        W53599  28.984  40.385  13.381
92311W        W53600  34.958  24.702  13.494
92312W        W53601   1.860   4.407   0.745
92313W        W53602  36.947  36.417  14.399
92314W        W53603  24.564  13.195  11.413
92315W        W53604  18.260  17.154   4.604
92316W        W53605  30.148   2.397   1.281
92317W        W53606  17.226  30.930  12.873
92318W        W53607   1.757  12.699   0.925
92319W        W53608  43.282  39.410  14.959
92320W        W53609  35.505   3.276   3.334
92321W        W53610   3.409  13.759   3.280
92322W        W53611  30.419  33.894   0.776
92323W        W53612  11.694  25.587   0.371
92324W        W53613   3.928  24.021  13.950
92325W        W53614  34.542  27.450   1.297
92326W        W53615  26.654  42.891   5.088
92327W        W53616  37.893  43.946   0.409
92328W        W53617  42.297  32.573   4.613
92329W        W53618  12.213  37.041  10.893
92330W        W53619   4.277   3.439  14.317
92331W        W53620  22.589  36.465  11.964
92332W        W53621  35.933   6.262  14.458
92333W        W53622  18.112   3.304   1.762
92334W        W53623  39.357  38.919  12.885
92335W        W53624  19.612  16.723  14.378
92336W        W53625  21.619   7.798   4.308
92337W        W53626  21.057  42.965  11.409
92338W        W53627   9.205  13.252  10.929
92339W        W53628  40.460  29.989   1.817
92340W        W53629  36.487   7.208  14.358
92341W        W53630  20.679  38.494   1.862
92342W        W53631  10.180   3.305  11.422
92343W        W53632  29.570  42.377   4.736
92344W        W53633  18.119  39.042  13.456
92345W        W53634  11.247   0.438  12.477
92346W        W53635  39.837  41.966   0.399
92347W        W53636  24.522  18.733  12.485
92348W        W53637  13.298  25.151  13.843
92349W        W53638  34.948  40.026  13.919
92350W        W53639  31.639  24.107  13.059
92351W        W53640  41.040  10.311   2.697
92352W        W53641  26.527   4.277  12.083
92353W        W53642   0.365  24.174   1.372
92354W        W53643  13.690  28.963  13.935
92355W        W53644  17.144  37.039   5.263
92356W        W53645   2.776  26.958  13.450
92357W        W53646  11.655  10.711   3.835
92358W        W53647   5.722  14.151   2.804
92359W        W53648  28.553  32.542  12.077
92360W        W53649  33.401  35.548   1.869
92361W        W53650  36.865  40.035  11.103
92362W        W53651  38.379   1.802  10.627
92363W        W53652  44.871  28.098   3.204
92364W        W53653   6.193  20.671   4.689
92365W        W53654  34.026  44.921  10.505
92366W        W53655  16.211  38.995   0.887
92367W        W53656  44.322   3.419  12.443
92368W        W53657  35.438  23.507   4.753
92369W        W53658  43.338  17.087   4.285
92370W        W53659   4.307  41.042   2.687
92371W        W53660  13.230   9.196  12.571
92372W        W53661  35.404  40.923   2.286
92373W        W53662  23.999  16.568   3.812
92374W        W53663   9.650  42.302   4.267
92375W        W53664  37.345  21.111   2.812
92376W        W53665  40.841   9.210  12.823
92377W        W53666  19.563  32.920  13.034
92378W        W53667  21.751  25.673  11.579
92379W        W53668   8.748  44.784   3.153
92380W        W53669  30.077   9.783  14.319
92381W        W53670  31.472  20.071  10.934
92382W        W53671  34.907  19.758   1.880
92383W        W53672  38.888  16.251  10.491
92384W        W53673  26.106  26.174  12.409
92385W        W53674  15.749  29.053  13.986
92386W        W53675  36.370  44.417  12.575
92387W        W53676  32.021  28.009  14.393
92388W        W53677  36.970  19.743  14.840
92389W        W53678   7.292  26.467  10.896
92390W        W53679   6.811  42.921  12.489
92391W        W53680  12.774  21.673   5.163
92392W        W53681  13.346  33.438  14.488
92393W        W53682  42.841  10.757  10.480
92394W        W53683  26.121  43.975   2.188
92395W        W53684  22.229   3.926   2.804
92396W        W53685  30.084  22.684  11.459
92397W        W53686  20.523  25.610   0.827
92398W        W53687  23.089  13.134   0.869
92399W        W53688  29.457   7.213  11.505
92400W        W53689  39.344  39.926  10.980
92401W        W53690  14.787  19.130  12.082
92402W        W53691  39.980  10.682  11.994
92403W        W53692  14.627  43.008  11.961
92404W        W53693  27.076  27.608  12.383
92405W        W53694  37.357   2.405   4.812
92406W        W53695  16.260  17.169  11.109
92407W        W53696   9.199  26.010  13.812
92408W        W53697  39.887  29.589  11.483
92409W        W53698  20.122  41.836   2.224
92410W        W53699  13.314  30.051  12.845
92411W        W53700  42.364  40.911  12.472
92412W        W53701   7.832  11.713  14.411
92413W        W53702  28.985  22.206   2.259
92414W        W53703  16.601  28.435  12.381
92415W        W53704  23.021   2.279   3.703
92416W        W53705  20.524   5.729   2.268
92417W        W53706  17.771  18.155  11.982
92418W        W53707  19.048  39.326   1.895
92419W        W53708  25.210  20.106   0.294
92420W        W53709   7.250  21.233   0.761
92421W        W53710  18.557  23.138   1.736
92422W        W53711  21.705  32.577   1.365
92423W        W53712  31.611  21.745   2.804
92424W        W53713  44.350  27.518   2.389
92425W        W53714  32.994   1.423   3.800
92426W        W53715   4.380  19.240  10.429
92427W        W53716  13.330  19.282  10.006
92428W        W53717   4.417  28.617   2.692
92429W        W53718  22.505  32.419   2.756
92430W        W53719  43.341  28.004   2.878
92431W        W53720  39.358  38.456   0.778
92432W        W53721  23.118  41.911   3.293
92433W        W53722  25.107   7.269  12.503
92434W        W53723   4.801  38.546   0.306
92435W        W53724  11.152  34.575  13.887
92436W        W53725  31.925  32.976  10.911
92437W        W53726  23.543   1.321   4.224
92438W        W53727  27.041  30.002  13.470
92439W        W53728  26.070  42.896   2.393
92440W        W53729   7.354  42.514  11.873
92441W        W53730  33.410   7.769  13.982
92442W        W53731  30.489  25.988   3.264
92443W        W53732   8.225   0.416  14.281
92444W        W53733  18.118  32.891   0.916
92445W        W53734  19.196  32.005  14.345
92446W        W53735   0.453  21.076  10.079
92447W        W53736   4.802  26.044   2.387
92448W        W53737   5.304  16.122  11.596
92449W        W53738  35.526  40.455   4.310
92450W        W53739  20.033  31.558  10.947
92451W        W53740  33.944  31.110  13.887
92452W        W53741  27.649  27.482  14.416
92453W        W53742  40.934   5.891   4.261
92454W        W53743  30.495  20.147   4.149
92455W        W53744   3.812  29.596  14.020
92456W        W53745  32.468  33.005  12.401
92457W        W53746  21.172  17.175   3.348
92458W        W53747  38.482  24.196   3.188
92459W        W53748  31.916  27.511   3.682
92460W        W53749  24.602  39.552  14.889
92461W        W53750  27.533   4.935   3.273
92462W        W53751   9.178  39.364   0.420
92463W        W53752  33.037  35.444  11.412
92464W        W53753  26.518   2.462   4.715
92465W        W53754  37.579   8.757   1.884
92466W        W53755  17.215  30.015  11.547
92467W        W53756  10.814   7.256  13.810
92468W        W53757   7.725  24.519  11.990
92469W        W53758   7.855  32.516   9.528
92470W        W53759  38.356  18.105  14.288
92471W        W53760  29.486  18.684   1.272
92472W        W53761  18.722  38.833  11.020
92473W        W53762   1.368  38.548  11.442
92474W        W53763  23.054  44.864  14.906
92475W        W53764  18.066  15.662   1.391
92476W        W53765   0.321  10.774  13.319
92477W        W53766  28.501  11.338  11.599
92478W        W53767  19.237  40.523  14.997
92479W        W53768  10.331  30.553   0.926
92480W        W53769   6.903  31.616   3.326
92481W        W53770  32.067  26.607  11.067
92482W        W53771   5.838  30.464  14.367
92483W        W53772  19.161  36.407   1.220
92484W        W53773  39.027  15.800  14.287
92485W        W53774  22.070   4.886  13.815
92486W        W53775  26.612  15.094  11.087
92487W        W53776   4.398   5.425   3.369
92488W        W53777  24.015  37.083  13.420
92489W        W53778  29.669  33.985   2.763
92490W        W53779  10.745  15.649  12.580
92491W        W53780   5.390  16.171  13.972
92492W        W53781  20.663  10.671   3.709
92493W        W53782   7.893  28.589  12.357
92494W        W53783  25.575  31.072   0.299
92495W        W53784   1.778  42.838  13.893
92496W        W53785  13.157  25.071   4.220
92497W        W53786  34.982   9.222  10.449
92498W        W53787  16.744  20.569  12.361
92499W        W53788  35.379  26.700   3.319
92500W        W53789  31.564  34.405  13.018
92501W        W53790   6.875  16.101   2.185
92502W        W53791   7.821  28.966  13.869
92503W        W53792  14.291  17.222   5.307
92504W        W53793   9.197  39.018   4.165
92505W        W53794  23.033  41.873  11.480
92506W        W53795  26.195  12.215   2.348
92507W        W53796  36.039  43.467  13.992
92508W        W53797  28.167  13.615  14.906
92509W        W53798  15.766  13.785   0.343
92510W        W53799  21.026  22.728  11.442
92511W        W53800  37.573   0.249   2.895
92512W        W53801  44.369   9.846  14.011
92513W        W53802  18.166  22.136   1.312
92514W        W53803  10.665  31.429  13.033
92515W        W53804  34.563  40.869  10.929
92516W        W53805  27.138  11.697  14.001
92517W        W53806  44.439  15.659  12.385
92518W        W53807   0.364  17.109  12.941
92519W        W53808  44.263  20.186  12.009
92520W        W53809   3.793  44.470  13.903
92521W        W53810  35.919  41.369  11.487
92522W        W53811  30.016  35.969   2.891
92523W        W53812  34.876  29.001   0.253
92524W        W53813  27.988   0.983   4.730
92525W        W53814  41.443  38.875   3.717
92526W        W53815  43.422  32.970   0.931
92527W        W53816  36.483  26.577  13.931
92528W        W53817  41.026  28.536   2.330
92529W        W53818  15.731   2.427  12.444
92530W        W53819  21.073  18.783   2.381
92531W        W53820  25.070  38.450   4.693
92532W        W53821  36.351   1.976  12.441
92533W        W53822   7.767  44.364   2.771
92534W        W53823   0.953  20.119  12.994
92535W        W53824   1.477  44.266   3.386
92536W        W53825  36.429   7.370  14.831
92537W        W53826   0.787  33.895   2.403
92538W        W53827  21.757  39.482  13.409
92539W        W53828  22.054  17.195  12.912
92540W        W53829  42.805  14.155  14.879
92541W        W53830  11.225  27.543  14.962
92542W        W53831  31.407   2.740  12.967
92543W        W53832  34.893  34.955  11.478
92544W        W53833   5.276   6.223   1.871
92545W        W53834   7.767   7.290  11.394
92546W        W53835  28.950   7.250   3.182
92547W        W53836   8.693  38.036   3.696
92548W        W53837  13.327  12.789   4.327
92549W        W53838   1.408  44.284  12.065
92550W        W53839   9.279  25.087   0.390
92551W        W53840  26.980  20.561   4.320
92552W        W53841  24.694   5.224   2.384
92553W        W53842  31.508  24.980  11.564
92554W        W53843   9.681  42.826  12.854
92555W        W53844  33.066  29.629  13.400
92556W        W53845  40.922   3.389   0.746
92557W        W53846  24.692  12.256  14.330
92558W        W53847  32.023   9.224  12.458
92559W        W53848  12.638  43.504   3.671
92560W        W53849  43.985  24.095  13.351
92561W        W53850  25.531  15.263  11.118
92562W        W53851  43.853  34.559  13.503
92563W        W53852  31.467  11.794  11.530
92564W        W53853  44.426  14.152   0.363
92565W        W53854   7.383  43.320   3.251
92566W        W53855  23.008  38.421  11.129
92567W        W53856  21.252  31.466  10.944
92568W        W53857  10.834  36.849   1.826
92569W        W53858  43.898  24.210  14.900
92570W        W53859  32.093  41.799  12.542
92571W        W53860   4.927  38.410   2.855
92572W        W53861  32.904  43.764   4.726
92573W        W53862  41.485  25.089  13.036
92574W        W53863   4.817  25.529   1.365
92575W        W53864  44.291  10.322   5.233
92576W        W53865  33.518  18.207  10.613
92577W        W53866   0.767  13.793   0.792
92578W        W53867  31.509  17.095   2.717
92579W        W53868  34.517  20.113   0.873
92580W        W53869  29.093   7.387  12.004
92581W        W53870  16.284  27.466   0.391
92582W        W53871   3.267   4.939  11.551
92583W        W53872  37.871   1.422  14.843
92584W        W53873   5.268  19.769   0.797
92585W        W53874  33.093  11.273  14.411
92586W        W53875  42.802  25.134  10.586
92587W        W53876  33.486  42.973   2.700
92588W        W53877  13.648  15.818  12.908
92589W        W53878  31.524  35.431   1.826
92590W        W53879  44.433  34.952  10.636
92591W        W53880   1.434  42.995   0.946
92592W        W53881  11.691  40.310  12.436
92593W        W53882  23.532   8.320   1.795
92594W        W53883  40.033  41.466   2.204
92595W        W53884  29.989  32.456   4.644
92596W        W53885  13.642  31.573  14.388
92597W        W53886  29.634  39.512   0.435
92598W        W53887   3.430  32.121   1.800
92599W        W53888   2.444  20.080   2.740
92600W        W53889  24.993  42.023  14.922
92601W        W53890  34.571   9.291  10.909
92602W        W53891   9.661  20.230  13.837
92603W        W53892  13.194  10.285   1.747
92604W        W53893  14.643  11.233  11.063
92605W        W53894  40.877   4.858  12.062
92606W        W53895  16.686   3.426  13.877
92607W        W53896  28.031  15.626  11.909
92608W        W53897  34.563   7.685  13.957
92609W        W53898   2.252   4.808  12.478
92610W        W53899   5.902  20.589   0.473
92611W        W53900  43.469  26.501  11.576
92612W        W53901  18.121   0.336  13.007
92613W        W53902  40.041  36.873   0.831
92614W        W53903   7.306  27.552  11.903
92615W        W53904   5.417  40.478   9.923
92616W        W53905   3.407  23.985  11.973
92617W        W53906  38.024  29.942  10.511
92618W        W53907  29.983  21.554   3.768
92619W        W53908  40.424  35.507  13.837
92620W        W53909  40.999  44.312  14.983
92621W        W53910  11.764  19.126  13.387
92622W        W53911  24.031  18.574   4.621
92623W        W53912  39.996  22.689   3.703
92624W        W53913  35.908   4.752   2.192
92625W        W53914  21.615  10.154  14.769
92626W        W53915   2.946   3.247  12.050
92627W        W53916  22.692  21.139   4.289
92628W        W53917  13.601  31.481  10.925
92629W        W53918  10.241  18.211  10.418
92630W        W53919   4.212  29.041  12.976
92631W        W53920   8.160   0.808  11.043
92632W        W53921   9.297   0.344   1.859
92633W        W53922  12.186  16.233   4.263
92634W        W53923  31.488  36.065   0.286
92635W        W53924  30.138  23.580   0.430
92636W        W53925  10.159  20.035  13.330
92637W        W53926  18.250  22.020   3.383
92638W        W53927  42.301  32.076   3.816
92639W        W53928  31.096   1.352   2.414
92640W        W53929   5.902  18.244  10.466
92641W        W53930  21.197  18.765  10.540
92642W        W53931  26.124  21.743   2.256
92643W        W53932  24.086   9.827   2.320
92644W        W53933  22.597   5.381  10.936
92645W        W53934   6.244   9.862   0.464
92646W        W53935  34.081  44.992   2.243
92647W        W53936   6.332  10.863   1.442
92648W        W53937   6.282  10.812   0.393
92649W        W53938   5.284  26.624   2.390
92650W        W53939  41.493   8.850  13.476
92651W        W53940   4.800  36.949  11.407
92652W        W53941  11.139   9.345   2.739
92653W        W53942  28.657   4.405   4.127
92654W        W53943  11.846  41.379   5.091
92655W        W53944  14.220  10.376  14.473
92656W        W53945  33.931  33.408  11.468
92657W        W53946  17.753  17.291   4.602
92658W        W53947  22.684  17.644   2.716
92659W        W53948  39.893  28.104  10.451
92660W        W53949  28.971  20.763   3.766
92661W        W53950   4.738  26.483  10.488
92662W        W53951  32.899  27.632  14.936
92663W        W53952  32.929   9.149   0.911
92664W        W53953  32.067  15.634  13.468
92665W        W53954  24.017   6.369  14.409
92666W        W53955   7.838  30.946   0.327
92667W        W53956  32.104  34.060   1.374
92668W        W53957   1.381   9.294   5.200
92669W        W53958  34.497  35.447  13.996
92670W        W53959   9.369  40.038  14.975
92671W        W53960  19.732   5.869   2.827
92672W        W53961  14.675   1.759   1.856
92673W        W53962  44.348  10.796  14.398
92674W        W53963  31.411  30.980  14.332
92675W        W53964  27.522   7.397  10.129
92676W        W53965  13.115  36.582   3.841
92677W        W53966   8.218  13.672   4.623
92678W        W53967  40.986  23.668  11.521
92679W        W53968  44.350   8.229  10.027
92680W        W53969  25.030  10.249   3.304
92681W        W53970  28.460  18.209  11.009
92682W        W53971   6.326   6.734   0.886
92683W        W53972  38.024  38.031   2.315
92684W        W53973   3.712  16.072  11.989
92685W        W53974  31.582  26.064   0.802
92686W        W53975  15.319  39.328   1.393
92687W        W53976  42.327  36.092  10.576
92688W        W53977  10.378  23.519  10.898
92689W        W53978  29.170  25.708   4.252
92690W        W53979  15.699  17.237  10.157
92691W        W53980  38.381  17.222   2.884
92692W        W53981  42.000   3.368  12.385
92693W        W53982   8.180  40.855  10.912
92694W        W53983  20.629  35.434   1.270
92695W        W53984  19.069  44.794  12.376
92696W        W53985   0.469  26.093   1.814
92697W        W53986  36.482  39.956   1.759
92698W        W53987   2.245   2.848   3.773
92699W        W53988  15.221  18.578   1.842
92700W        W53989   1.439   9.276  13.954
92701W        W53990  33.105  25.032   3.823
92702W        W53991  17.290  28.011   2.288
92703W        W53992  24.680   9.289   4.251
92704W        W53993  37.998  37.511   4.301
92705W        W53994   8.177   4.851   1.328
92706W        W53995   4.272  22.539  13.339
92707W        W53996  35.037  23.029  10.608
92708W        W53997   8.761  33.064   2.306
92709W        W53998  21.214  23.643   3.669
92710W        W53999  12.629  27.538   3.732
92711W        W54000  16.250  43.948  12.476
92712W        W54001   7.252  26.161   0.475
92713W        W54002   0.311  33.902   1.440
92714W        W54003  24.489   2.951  13.325
92715W        W54004  36.008  21.142   1.355
92716W        W54005  44.908  20.239  13.973
92717W        W54006  36.988   9.170   3.174
92718W        W54007  20.677  30.463  11.579
92719W        W54008  39.365  13.209   4.278
92720W        W54009  21.242  19.223  10.940
92721W        W54010  41.896   4.898  14.915
92722W        W54011  36.896  14.797  13.793
92723W        W54012  33.874  41.474  11.511
92724W        W54013   2.950  43.824   3.201
92725W        W54014  44.354  32.610  10.138
92726W        W54015  19.262  37.501   0.450
92727W        W54016  17.689  30.099  11.428
92728W        W54017  36.948  16.086   2.706
92729W        W54018  14.232  17.187  10.565
92730W        W54019  11.758  10.259   4.639
92731W        W54020  22.145  10.238   0.462
92732W        W54021  26.683  42.485  11.955
92733W        W54022  39.930  44.933   1.380
92734W        W54023  35.565   8.776   4.248
92735W        W54024  33.604  24.094  11.126
92736W        W54025  42.424  21.685   3.803
92737W        W54026  19.547  13.263   3.829
92738W        W54027   7.201   7.883   0.352
92739W        W54028  12.295  37.938   2.683
92740W        W54029  23.011  28.527  11.108
92741W        W54030  39.487   3.732  14.870
92742W        W54031   5.415  12.144  12.368
92743W        W54032  34.570  35.375   0.482
92744W        W54033  38.556  22.515  12.982
92745W        W54034  14.831   9.210   2.751
92746W        W54035  31.536  14.134   0.449
92747W        W54036  31.153  41.454  14.854
92748W        W54037  23.133  37.002  10.635
92749W        W54038  41.323  23.646   2.386
92750W        W54039  23.127  42.837   0.821
92751W        W54040  17.295  15.697  11.122
92752W        W54041  37.042  29.548   2.787
92753W        W54042  38.445   7.666   1.324
92754W        W54043  40.936  37.389  10.947
92755W        W54044  33.505   3.387   0.303
92756W        W54045  14.603   7.874  13.548
92757W        W54046  13.334  16.688  13.464
92758W        W54047   1.831  41.032   1.270
92759W        W54048  13.615  11.677   4.253
92760W        W54049  12.794  28.460  10.506
92761W        W54050   9.877  17.734  13.359
92762W        W54051   3.250  23.072  12.029
92763W        W54052  13.810  18.133   4.291
92764W        W54053  10.181   6.281  12.416
92765W        W54054  39.532  34.001   2.746
92766W        W54055  37.074  22.014  14.773
92767W        W54056   6.788   4.846  14.768
92768W        W54057  27.125   5.842  14.801
92769W        W54058  21.586  42.938  13.897
92770W        W54059  32.619  24.172   4.825
92771W        W54060  24.023  34.584   0.768
92772W        W54061  26.639  34.395  14.825
92773W        W54062   9.348  28.561  12.400
92774W        W54063  15.819   6.336  12.415
92775W        W54064   3.419  36.029  13.805
92776W        W54065   3.233  42.353  13.446
92777W        W54066  42.444  22.126   0.923
92778W        W54067  37.478  41.322   3.689
92779W        W54068  17.571  13.702  10.564
92780W        W54069  44.372   4.255  13.872
92781W        W54070  29.666   5.709  13.434
92782W        W54071  16.788  40.937   0.884
92783W        W54072  36.588  24.698  13.794
92784W        W54073   2.380   7.364  10.449
92785W        W54074   1.850  26.602   4.700
92786W        W54075   2.965  33.579  14.433
92787W        W54076  17.642  20.148  11.957
92788W        W54077  35.949  37.379  12.092
92789W        W54078  17.617   1.364  13.051
92790W        W54079   8.223  11.181   2.184
92791W        W54080  29.979  10.317   2.246
92792W        W54081  11.826  36.489  13.963
92793W        W54082   8.212  15.622   3.308
92794W        W54083  35.452  39.014  14.426
92795W        W54084  11.287  29.496  13.864
92796W        W54085  17.661   5.308  11.097
92797W        W54086  39.955  30.550   4.745
92798W        W54087  18.196  18.106   4.113
92799W        W54088  34.437  21.724  10.406
92800W        W54089   4.844  24.979  11.023
92801W        W54090  30.448  27.542   0.343
92802W        W54091   7.229   5.821  13.491
92803W        W54092  39.512   7.883  13.797
92804W        W54093  26.967   3.935  11.457
92805W        W54094   9.208  13.234   0.347
92806W        W54095   0.827  39.499   0.938
92807W        W54096  18.680  24.582   1.297
92808W        W54097  28.074  14.589  10.977
92809W        W54098  34.516  20.763   1.292
92810W        W54099  13.298   6.905  11.910
92811W        W54100  37.851  21.679  13.825
92812W        W54101  14.727  35.852   3.198
92813W        W54102  18.741   7.296   3.854
92814W        W54103  32.894  39.906   4.306
92815W        W54104  25.085   4.821  10.945
92816W        W54105   1.840  36.933  10.619
92817W        W54106   8.285  41.325   1.920
92818W        W54107  13.334  17.141  10.083
92819W        W54108  18.148  19.587  12.387
92820W        W54109  13.727  42.409  14.311
92821W        W54110  42.322  11.727   4.801
92822W        W54111   7.770  10.342  10.967
92823W        W54112  32.094  12.745  11.504
92824W        W54113   6.377  34.914   1.409
92825W        W54114   0.432   6.696  13.370
92826W        W54115  35.518  19.628  14.986
92827W        W54116  22.246  36.006   3.177
92828W        W54117  10.702   5.900  13.907
92829W        W54118  24.606  18.606   2.723
92830W        W54119  35.871  27.461  14.396
92831W        W54120   9.229   8.326   3.850
92832W        W54121  19.127  12.611  13.442
92833W        W54122   6.873  11.223   3.260
92834W        W54123  17.170   6.417   9.958
92835W        W54124  16.084  43.274   0.273
92836W        W54125  10.672  38.844  12.475
92837W        W54126  10.847  42.399   4.260
92838W        W54127  17.276  35.446   3.374
92839W        W54128  25.692  17.209  14.782
92840W        W54129  22.199   4.706   1.740
92841W        W54130  30.513  44.909   0.259
92842W        W54131  37.426  41.949   2.322
92843W        W54132   3.774  17.714   1.447
92844W        W54133  32.909  35.514  14.878
92845W        W54134   0.452  41.868  13.856
92846W        W54135  44.481  32.072  12.943
92847W        W54136  24.229  36.458   0.353
92848W        W54137   6.682  20.766  12.547
92849W        W54138  38.820   7.791   1.896
92850W        W54139  41.324  27.042   0.247
92851W        W54140   4.873   4.370  12.987
92852W        W54141  14.726   8.231   1.897
92853W        W54142  11.712  20.651   0.383
92854W        W54143   9.881  19.688  13.884
92855W        W54144   1.965  16.807   2.256
92856W        W54145  37.457   9.357  13.471
92857W        W54146  17.259   8.244  12.538
92858W        W54147  25.625  40.862  12.042
92859W        W54148  38.929   0.346   3.374
92860W        W54149   2.722  16.296  14.317
92861W        W54150  18.664  22.174  10.085
92862W        W54151  41.461  33.982  11.108
92863W        W54152  39.316  31.089   3.681
92864W        W54153  37.455   1.394  14.392
92865W        W54154   0.899  39.355  11.061
92866W        W54155  25.188  29.064   0.828
92867W        W54156  42.486  20.717   1.288
92868W        W54157  21.089  39.995  10.888
92869W        W54158  39.883   5.430   1.821
92870W        W54159  17.105  41.912  14.350
92871W        W54160   3.812   2.261  14.888
92872W        W54161  28.146  23.656   3.354
92873W        W54162   7.360  31.615  11.524
92874W        W54163  27.518   4.402  13.795
92875W        W54164   3.380  29.094  11.612
92876W        W54165  20.746  30.102   3.266
92877W        W54166  22.211  12.708   2.402
92878W        W54167   3.885  43.022   5.107
92879W        W54168  26.079  42.521  13.547
92880W        W54169   5.251  23.065  13.476
92881W        W54170  18.069   0.321  10.942
92882W        W54171  41.897   7.702   3.665
92883W        W54172  17.191  33.556  10.156
92884W        W54173  10.737   0.376   1.829
92885W        W54174  15.600  31.948   1.774
92886W        W54175   3.280   4.890  14.932
92887W        W54176  19.674  23.019   4.149
92888W        W54177  28.451  21.739   0.337
92889W        W54178  37.970  26.985  12.472
92890W        W54179   3.346   0.335   3.811
92891W        W54180  30.016  10.351   1.368
92892W        W54181  18.141  21.614  11.869
92893W        W54182  34.467  13.647  11.452
92894W        W54183  26.653  27.067  11.973
92895W        W54184  26.040  20.267   2.881
92896W        W54185  40.048  43.774  11.464
92897W        W54186  19.684  40.372  12.049
92898W        W54187  27.047  24.979  10.051
92899W        W54188  25.592  37.029   3.146
92900W        W54189  24.074  24.651  14.400
92901W        W54190  28.929  33.521   1.813
92902W        W54191  12.809  23.562  12.094
92903W        W54192  29.595   6.255   1.236
92904W        W54193   9.794  25.118   5.229
92905W        W54194   1.407  43.464   3.232
92906W        W54195  42.805  31.527   2.199
92907W        W54196  36.511  26.498  11.607
92908W        W54197  31.563  35.937  14.994
92909W        W54198   9.859  41.405  13.897
92910W        W54199  18.194  25.985   1.399
92911W        W54200  18.067  42.496  11.408
92912W        W54201  32.092  14.593  11.397
92913W        W54202  35.474  43.320  12.856
92914W        W54203  27.662  28.166   0.379
92915W        W54204   0.370  26.518  13.403
92916W        W54205  17.261   1.863  12.954
92917W        W54206  32.128   1.916  12.843
92918W        W54207  43.358  10.667   1.835
92919W        W54208   6.291   0.448  13.507
92920W        W54209  38.898  17.752   2.181
92921W        W54210  35.370  13.122  13.441
92922W        W54211   2.954  23.690  11.059
92923W        W54212   8.696  19.130   3.378
92924W        W54213  16.664  32.935   3.691
92925W        W54214  21.566  33.087   1.343
92926W        W54215  10.353  23.230  14.454
92927W        W54216  18.220  21.099   3.212
92928W        W54217  22.727  20.212   4.792
92929W        W54218  30.024  43.995   0.459
92930W        W54219  10.644  16.291   4.660
92931W        W54220  32.978  27.070   3.751
92932W        W54221  33.575  15.681  13.882
92933W        W54222  43.927  36.968   0.890
92934W        W54223  42.383  29.077  12.467
92935W        W54224  32.048  15.587   3.801
92936W        W54225   4.864   6.251  14.937
92937W        W54226  31.988  41.350   0.846
92938W        W54227  35.948  31.532   1.275
92939W        W54228  12.183  33.444  14.844
92940W        W54229   9.674   7.288   3.218
92941W        W54230  42.806  30.591   0.761
92942W        W54231  17.184  22.657   3.352
92943W        W54232   9.386  26.985   9.953
92944W        W54233  13.247  13.622  10.966
92945W        W54234  23.098  33.942  13.016
92946W        W54235   8.364  12.130  14.978
92947W        W54236  28.024  14.139  12.525
92948W        W54237  32.099  15.673   3.160
92949W        W54238  39.964   3.271  11.396
92950W        W54239  18.165   2.827  13.863
92951W        W54240  21.022   2.450  14.971
92952W        W54241  30.031  18.249  13.510
92953W        W54242   5.877  32.992  13.844
92954W        W54243   9.773   8.308  14.353
92955W        W54244   0.490   6.416  10.425
92956W        W54245  29.441   2.225  13.344
92957W        W54246  40.908  24.085  11.500
92958W        W54247  17.092  42.994  11.429
92959W        W54248  22.194   7.383   1.309
92960W        W54249  39.958  21.108   4.278
92961W        W54250  34.966  36.047   0.729
92962W        W54251  11.839  39.496   0.264
92963W        W54252   2.333  17.768  11.381
92964W        W54253   4.848  25.972  13.333
92965W        W54254  37.337  23.545   1.781
92966W        W54255  34.989   8.858  13.519
92967W        W54256  11.696  40.358  14.874
92968W        W54257  18.712   1.413   0.734
92969W        W54258   6.358  26.532  14.870
92970W        W54259  40.050   1.344   3.804
92971W        W54260  32.517  28.577   0.889
92972W        W54261  22.546   6.760   0.343
92973W        W54262  14.633  21.756  12.057
92974W        W54263  18.112  29.117  10.580
92975W        W54264  28.605  31.583   2.755
92976W        W54265  30.987  21.191  11.924
92977W        W54266  39.836  21.232   2.344
92978W        W54267  16.149   6.334  14.974
92979W        W54268  25.569   5.244  10.413
92980W        W54269  43.909  26.086   3.378
92981W        W54270  37.035  15.217   1.341
92982W        W54271   2.783  37.363  12.433
92983W        W54272  33.487  39.355  13.420
92984W        W54273   3.812  28.462  13.374
92985W        W54274  33.411  13.834   5.107
92986W        W54275   7.840  43.306  14.305
92987W        W54276   9.174   7.249  10.462
92988W        W54277   3.760   6.760  10.968
92989W        W54278   4.843   5.742   2.342
92990W        W54279  36.989  21.580   2.401
92991W        W54280   7.378   1.947  11.486
92992W        W54281  44.853  15.196   0.370
92993W        W54282  42.000  37.908   2.291
92994W        W54283  31.066   7.876   2.751
92995W        W54284  44.761  36.087  13.841
92996W        W54285   2.438  42.912  13.955
92997W        W54286  36.867  44.973   0.467
92998W        W54287  43.346  29.922  12.990
92999W        W54288  15.767   5.262   4.219
93000W        W54289  18.108   3.811   3.724
93001W        W54290  35.373  32.088   4.337
93002W        W54291  23.669   0.827   3.206
93003W        W54292  13.179  27.983   5.209
93004W        W54293  26.636  23.072   3.254
93005W        W54294  27.159   2.951  14.392
93006W        W54295  22.628  23.171   3.858
93007W        W54296  12.819  34.597   0.767
93008W        W54297  21.639  10.681   4.678
93009W        W54298  11.720   9.726  14.474
93010W        W54299  25.199  20.767   2.834
93011W        W54300  32.891  10.354  14.760
93012W        W54301  42.814  16.243  10.917
93013W        W54302  12.808  18.689  13.464
93014W        W54303  32.584  36.921   3.238
93015W        W54304  19.684  22.230  10.607
93016W        W54305  24.209  31.090   2.798
93017W        W54306  23.099  32.399   0.390
93018W        W54307  22.108   3.745  11.542
93019W        W54308  29.026  15.184   1.429
93020W        W54309   8.708  18.607   2.882
93021W        W54310  28.493  21.138   4.148
93022W        W54311  12.310   8.768  14.368
93023W        W54312  24.037  29.038   2.292
93024W        W54313  29.668  32.613  12.089
93025W        W54314   8.717  27.648  14.820
93026W        W54315  41.907  23.989  10.549
93027W        W54316  37.350  44.764   2.353
93028W        W54317   5.235  35.048  12.912
93029W        W54318   0.793  22.241   1.832
93030W        W54319  13.804  26.075   3.187
93031W        W54320  15.130   4.755   3.753
93032W        W54321  25.206  12.842  13.889
93033W        W54322   3.869  31.913   4.130
93034W        W54323   1.937  25.476   1.919
93035W        W54324  15.617  21.667   2.888
93036W        W54325  33.024  34.561   0.436
93037W        W54326  34.395  40.474  11.474
93038W        W54327  32.592  32.529  10.636
93039W        W54328   2.414  37.032   4.321
93040W        W54329  17.067  36.548   4.687
93041W        W54330  17.297   6.709   1.372
93042W        W54331  24.692   4.424  13.430
93043W        W54332  26.083  16.773   4.668
93044W        W54333  13.722  17.754  12.925
93045W        W54334  37.931  11.756   4.317
93046W        W54335   5.736  41.849  11.960
93047W        W54336  11.203  11.774  12.921
93048W        W54337   3.919  14.725  13.957
93049W        W54338  30.983  44.813  14.384
93050W        W54339   5.849  35.381   1.695
93051W        W54340  29.595  32.123  10.017
93052W        W54341   4.945  20.735  10.601
93053W        W54342  22.176  43.286  12.365
93054W        W54343  18.777  30.564  11.507
93055W        W54344   0.417  16.747  13.336
93056W        W54345   5.260  23.036   2.711
93057W        W54346   0.851   4.846  12.408
93058W        W54347   1.767  33.099   0.836
93059W        W54348  17.775  23.183   1.921
93060W        W54349  30.135  31.117  11.001
93061W        W54350  22.040  38.347  11.940
93062W        W54351  21.129  15.233   2.316
93063W        W54352  27.532  16.617  14.428
93064W        W54353  10.755  39.011   0.827
93065W        W54354  37.036  21.587  13.542
93066W        W54355  35.584  26.204   1.861
93067W        W54356  26.520  35.553   0.345
93068W        W54357  16.657  34.898  12.449
93069W        W54358  29.158   7.812   2.183
93070W        W54359  18.715  21.580  13.034
93071W        W54360  38.506  33.011  13.909
93072W        W54361  16.681  19.673  12.555
93073W        W54362  36.977  20.229  10.133
93074W        W54363   6.684  25.713   5.316
93075W        W54364  18.745   9.720   4.136
93076W        W54365  25.966  19.267  12.940
93077W        W54366  41.505   4.858  11.950
93078W        W54367  25.545   8.167   5.802
93079W        W54368  11.321   6.898   2.328
93080W        W54369  10.249  32.089   1.378
93081W        W54370  14.621  44.292  13.458
93082W        W54371   3.309  41.001  13.992
93083W        W54372  29.513  37.438  10.639
93084W        W54373  10.144  14.791  14.292
93085W        W54374  44.260  14.225  10.406
93086W        W54375   3.875  26.184   2.386
93087W        W54376  36.346  14.269  13.470
93088W        W54377  34.461  11.346   0.948
93089W        W54378  36.066  41.960  10.563
93090W        W54379  33.441   6.765   5.099
93091W        W54380  30.644  29.540   2.882
93092W        W54381  44.413  17.687   2.900
93093W        W54382  35.059   6.329   1.399
93094W        W54383   7.364  17.721   0.258
93095W        W54384  13.115  21.050  12.389
93096W        W54385   2.739  20.087   1.364
93097W        W54386  40.924  36.503   3.685
93098W        W54387  44.438  27.663   3.324
93099W        W54388  25.585  12.811  10.906
93100W        W54389  12.808   4.804  14.412
93101W        W54390  38.855  30.016   0.364
93102W        W54391  31.132  30.160  12.509
93103W        W54392  17.620  44.950   1.249
93104W        W54393  30.106  42.992  12.026
93105W        W54394   9.720  11.324   3.227
93106W        W54395  14.810   3.760  14.313
93107W        W54396  25.529  14.700   3.796
93108W        W54397  38.938  24.548  12.546
93109W        W54398  40.331   0.754   2.226
93110W        W54399  18.053  31.437   4.728
93111W        W54400  17.187   2.365   5.224
93112W        W54401  22.719  29.000  11.906
93113W        W54402  17.302  12.336   0.929
93114W        W54403   5.312  43.824  14.473
93115W        W54404  29.446  27.560   2.679
93116W        W54405  42.949  44.292   5.131
93117W        W54406  22.553  26.047  12.513
93118W        W54407   3.766  39.906  14.866
93119W        W54408  36.904   9.749  11.058
93120W        W54409  36.463   8.750   2.886
93121W        W54410  23.569  28.985  10.554
93122W        W54411  13.629   4.794   3.255
93123W        W54412  29.957  23.595  13.529
93124W        W54413   8.219   2.314   0.390
93125W        W54414  34.596  29.995  10.410
93126W        W54415   7.318   4.765   1.865
93127W        W54416  30.113   3.408  13.436
93128W        W54417  33.081  27.638   2.380
93129W        W54418  22.205  25.993   3.377
93130W        W54419  19.683   1.329   0.449
93131W        W54420  18.718  11.323  11.506
93132W        W54421  37.036  24.603  11.864
93133W        W54422  21.678  44.807  14.891
93134W        W54423  13.299  30.933   4.768
93135W        W54424  41.319  14.809   0.736
93136W        W54425  20.696  11.346  12.547
93137W        W54426  26.667  33.908   1.291
93138W        W54427  18.723  34.060   2.293
93139W        W54428   2.904  11.149  14.833
93140W        W54429  10.158  27.575   1.816
93141W        W54430  24.217  37.008  10.623
93142W        W54431  12.330  23.178   2.208
93143W        W54432  36.935  37.565   5.301
93144W        W54433  36.508  10.773   1.791
93145W        W54434  31.107  23.079   0.821
93146W        W54435   6.282   1.914   5.236
93147W        W54436  38.972   0.789  13.308
93148W        W54437  35.573  32.110   0.822
93149W        W54438  26.597  33.582   3.753
93150W        W54439   3.937  18.259   3.280
93151W        W54440  14.611  14.186   1.811
93152W        W54441  35.051  35.985   3.357
93153W        W54442  29.059  30.638  12.522
93154W        W54443  23.208   0.960  10.894
93155W        W54444   8.167  17.593  14.472
93156W        W54445   3.420  35.551  11.084
93157W        W54446  30.933  44.279   2.268
93158W        W54447  12.361  23.038  14.286
93159W        W54448  28.620  11.791   2.834
93160W        W54449  40.530  32.936  12.831
93161W        W54450  44.764   3.348  14.297
93162W        W54451   6.260  28.598  10.452
93163W        W54452  26.638   3.916   4.129
93164W        W54453   3.786  26.512   0.938
93165W        W54454  20.621   9.877  11.968
93166W        W54455  12.841  31.598  13.798
93167W        W54456  25.531  24.994   2.231
93168W        W54457   8.739  16.160   2.259
93169W        W54458  32.607  39.347  10.974
93170W        W54459  28.017  26.135  11.086
93171W        W54460  17.591  32.406   1.319
93172W        W54461  25.633  19.773   4.666
93173W        W54462  27.508  40.356  11.923
93174W        W54463  21.045  43.354  12.387
93175W        W54464  26.584  42.891   3.668
93176W        W54465  18.616  16.132   1.866
93177W        W54466   4.769   5.275  12.025
93178W        W54467  21.719  38.343   0.957
93179W        W54468  14.132  42.435  13.850
93180W        W54469  24.518   1.880   4.798
93181W        W54470  38.920   6.789  14.858
93182W        W54471  18.555  26.952   3.220
93183W        W54472   5.424  22.509  12.828
93184W        W54473  14.143   3.421  11.035
93185W        W54474  41.517   9.708   0.959
93186W        W54475  37.458  10.337  10.912
93187W        W54476  20.657  26.048  11.026
93188W        W54477  11.708  16.624   1.276
93189W        W54478  35.057  27.612  12.511
93190W        W54479   0.811   7.854  10.522
93191W        W54480  36.360  27.578  11.969
93192W        W54481   9.289  34.084   9.932
93193W        W54482  15.735  27.188  13.479
93194W        W54483  24.167  38.966   5.083
93195W        W54484  22.135  10.811  13.886
93196W        W54485  36.068  19.223  13.964
93197W        W54486  22.505  14.329   2.321
93198W        W54487   1.746  20.632   2.249
93199W        W54488   5.204  13.288   4.336
93200W        W54489  44.980  25.997  11.042
93201W        W54490  39.985  23.043  11.601
93202W        W54491  44.823  22.577  13.947
93203W        W54492  16.251  15.737  14.770
93204W        W54493   7.863  16.735   0.938
93205W        W54494   2.727  36.358  10.448
93206W        W54495  40.881  28.130  11.101
93207W        W54496  21.024  14.311   4.174
93208W        W54497   8.161   3.727  12.963
93209W        W54498   4.721  16.153   2.223
93210W        W54499  15.227  30.962  14.952
93211W        W54500  23.673  20.233  10.955
93212W        W54501  10.316  15.720   2.866
93213W        W54502  28.084  18.165  11.954
93214W        W54503  42.777  12.823  11.517
93215W        W54504  30.432   8.212   2.725
93216W        W54505  40.968  33.617  13.437
93217W        W54506   6.225  20.710  14.321
93218W        W54507  32.406  27.096  12.937
93219W        W54508  39.926  26.513   4.288
93220W        W54509   5.302  23.512   5.128
93221W        W54510  17.211  19.216   0.268
93222W        W54511  33.099  30.144   4.725
93223W        W54512   3.835  39.020  13.521
93224W        W54513  34.483  41.899  12.009
93225W        W54514  17.249  24.723   4.647
93226W        W54515  15.185  16.271  12.510
93227W        W54516   4.211  31.076   4.666
93228W        W54517  41.513  25.615   0.279
93229W        W54518  39.036  11.135   5.130
93230W        W54519  13.799  41.935   3.805
93231W        W54520  34.038  11.164  11.470
93232W        W54521  38.521  33.989   1.839
93233W        W54522   7.703  30.055  14.007
93234W        W54523  42.799  21.040   4.613
93235W        W54524  10.320  25.020  12.891
93236W        W54525  13.781   1.323  12.533
93237W        W54526  12.848  11.226   3.864
93238W        W54527  16.637  43.328  12.359
93239W        W54528  14.141  17.137   2.389
93240W        W54529   0.864  40.360  12.015
93241W        W54530  10.822  22.247   2.250
93242W        W54531  28.055  17.238  12.971
93243W        W54532   7.791  26.601   2.297
93244W        W54533   0.469  44.429  14.831
93245W        W54534  32.621   7.824  11.963
93246W        W54535  14.775  11.851   2.774
93247W        W54536  15.700  10.745  11.929
93248W        W54537   9.370  28.462  13.868
93249W        W54538  44.275  21.547  10.148
93250W        W54539   4.320  27.957   3.643
93251W        W54540  21.757  34.440  11.494
93252W        W54541   6.216   8.349  13.528
93253W        W54542  41.484  17.075  11.860
93254W        W54543  23.641   0.383   4.235
93255W        W54544  16.740  38.515   0.360
93256W        W54545  25.666  15.743   4.642
93257W        W54546  38.351  21.202  13.490
93258W        W54547  30.105  44.966  13.448
93259W        W54548  25.002  18.773   3.251
93260W        W54549  30.598   8.228  11.084
93261W        W54550  44.470  38.526   1.867
93262W        W54551  15.326  27.509   4.619
93263W        W54552   3.716  26.691   0.268
93264W        W54553  29.941  29.026   3.707
93265W        W54554  18.206   7.839  13.888
93266W        W54555  38.528  43.800   2.724
93267W        W54556  10.354   1.287  12.988
93268W        W54557  39.525  13.777  11.946
93269W        W54558  12.773  31.478  14.370
93270W        W54559  18.684  15.710   4.654
93271W        W54560  26.596  15.245   4.294
93272W        W54561  10.759  23.690   4.272
93273W        W54562   2.362   7.243  12.515
93274W        W54563  21.530  21.693  13.793
93275W        W54564  33.453  15.323   3.647
93276W        W54565  23.507  39.822   4.741
93277W        W54566  41.350  26.694   4.212
93278W        W54567  17.259   0.775   5.228
93279W        W54568  42.954  15.092   1.363
93280W        W54569  16.662  40.010   0.946
93281W        W54570  14.196  16.799   2.804
93282W        W54571  24.481  14.254   1.800
93283W        W54572  40.419  35.369   4.233
93284W        W54573   7.373  16.275  14.321
93285W        W54574   0.344  18.087   2.326
93286W        W54575  43.904  43.979  14.367
93287W        W54576  10.324  29.124   4.325
93288W        W54577  26.474  20.149   4.728
93289W        W54578  26.607  19.766   0.448
93290W        W54579   7.338  20.672   1.353
93291W        W54580  23.194  37.868   0.763
93292W        W54581  19.116  28.093  14.843
93293W        W54582  21.546  22.711  14.432
93294W        W54583  15.657  14.110   3.641
93295W        W54584  38.990  28.623  14.783
93296W        W54585  24.079  22.669   3.233
93297W        W54586  33.908  24.595   0.787
93298W        W54587  32.919  16.174   2.833
93299W        W54588  37.841  30.070   4.620
93300W        W54589  14.225  20.559   9.665
93301W        W54590   5.247  40.806  13.851
93302W        W54591  31.968  20.158  14.804
93303W        W54592  31.940  34.538  11.421
93304W        W54593  18.562  16.737   4.266
93305W        W54594   7.713  20.605  13.003
93306W        W54595  10.637  15.793  11.392
93307W        W54596  35.444  19.160  10.907
93308W        W54597  19.657  12.306  12.876
93309W        W54598  10.765  25.681   4.749
93310W        W54599  43.959   1.789  12.579
93311W        W54600  22.077  19.265   0.472
93312W        W54601   9.649  13.277  12.079
93313W        W54602   6.238  16.731  12.340
93314W        W54603  18.115  34.917   3.351
93315W        W54604   0.272  26.095  13.025
93316W        W54605  11.189  31.570  11.096
93317W        W54606  28.013   7.360   1.340
93318W        W54607   0.950   8.180  14.861
93319W        W54608  14.715  26.687   3.237
93320W        W54609  18.159   3.247   1.310
93321W        W54610  12.173  10.155  12.997
93322W        W54611  25.611  40.545   3.297
93323W        W54612  41.928  24.650  14.012
93324W        W54613   7.205  41.321  14.441
93325W        W54614  38.429  27.062  14.468
93326W        W54615  22.150   5.725   1.227
93327W        W54616  44.493  22.728   0.860
93328W        W54617  38.365  36.374   4.304
93329W        W54618  30.020  20.679  12.933
93330W        W54619  16.739   4.420  14.349
93331W        W54620  17.689  11.229  14.406
93332W        W54621  22.029  15.763   1.292
93333W        W54622  17.157  44.816   2.359
93334W        W54623  14.302   7.182  10.125
93335W        W54624  40.826  30.438   4.807
93336W        W54625   3.844  25.508  11.894
93337W        W54626  28.536  35.864   1.773
93338W        W54627   7.211  23.025   4.804
93339W        W54628  18.263  19.541   1.823
93340W        W54629  15.681  35.403   0.467
93341W        W54630  30.475  18.252   4.830
93342W        W54631  23.728  15.705   2.720
93343W        W54632  23.001   0.840   4.720
93344W        W54633  24.980   1.770   1.418
93345W        W54634  20.744  15.823   2.742
93346W        W54635  39.062  36.427  14.307
93347W        W54636  24.491   8.335  13.455
93348W        W54637  12.727  12.771   1.722
93349W        W54638   1.865   3.862  12.388
93350W        W54639  38.866  44.972  10.532
93351W        W54640  17.632  41.921   0.904
93352W        W54641  16.080   0.337   1.909
93353W        W54642  30.094  44.500  13.980
93354W        W54643  35.362   2.847   3.316
93355W        W54644  42.301  37.861  11.857
93356W        W54645  12.715  26.470   4.713
93357W        W54646  42.830   2.282  12.994
93358W        W54647  10.668  41.830   1.798
93359W        W54648  14.760  25.003   5.150
93360W        W54649   1.402  18.263   4.122
93361W        W54650  44.307  33.099   0.908
93362W        W54651   9.286  33.555  12.544
93363W        W54652  14.235  41.009   2.381
93364W        W54653   0.980  13.294   3.204
93365W        W54654  42.972  12.817   4.810
93366W        W54655  44.948  26.037   2.282
93367W        W54656   3.316  29.452  12.844
93368W        W54657  21.723  22.138  12.925
93369W        W54658  44.313  37.066  10.967
93370W        W54659   3.255  17.167  14.862
93371W        W54660  33.536   0.447  14.348
93372W        W54661  22.123  36.554  14.428
93373W        W54662  34.974   0.355  13.842
93374W        W54663  16.647  27.692   0.415
93375W        W54664  19.156  44.977   4.748
93376W        W54665  13.243  25.685   3.630
93377W        W54666  37.076  35.578  13.401
93378W        W54667  22.579   8.654  13.832
93379W        W54668  38.476  18.594  11.996
93380W        W54669  38.880   6.269  10.132
93381W        W54670  12.282  37.562  14.827
93382W        W54671  25.030  28.485   1.903
93383W        W54672  31.510   7.832   3.782
93384W        W54673  10.256  18.767  11.594
93385W        W54674  21.048  25.524   0.919
93386W        W54675  18.747   6.791   0.946
93387W        W54676  18.266  42.393  11.038
93388W        W54677  20.207  32.596  10.509
93389W        W54678   8.849  38.832  12.041
93390W        W54679   2.892  41.389  14.022
93391W        W54680  24.040  26.198   2.218
93392W        W54681  25.671   3.916  14.286
93393W        W54682  44.413  37.952  13.361
93394W        W54683  34.421   6.886  11.863
93395W        W54684  44.379  42.292   0.245
93396W        W54685  44.400  25.183  10.045
93397W        W54686   3.360  39.942   1.734
93398W        W54687  44.801  30.937  10.431
93399W        W54688  31.984  40.412  10.922
93400W        W54689  29.447  15.183  12.387
93401W        W54690  41.356  21.534   1.295
93402W        W54691   5.324   9.759  10.555
93403W        W54692  36.887  34.912  11.126
93404W        W54693  27.481  32.579  13.792
93405W        W54694  14.133   8.715   2.200
93406W        W54695  35.466  18.733   1.697
93407W        W54696  26.070  35.461  13.804
93408W        W54697  41.436  28.436  10.490
93409W        W54698   1.406  43.343  13.885
93410W        W54699  14.260  44.858  14.790
93411W        W54700   6.723  43.934   2.218
93412W        W54701   9.687   3.813   0.287
93413W        W54702  12.170   1.333   3.653
93414W        W54703  22.602  32.434  13.025
93415W        W54704   8.303  37.467  14.305
93416W        W54705  31.084  31.012  14.886
93417W        W54706  28.492   0.782  14.928
93418W        W54707  27.191  42.984  10.932
93419W        W54708  23.182   2.928  10.895
93420W        W54709  19.698  27.641  11.060
93421W        W54710   1.954  22.707  12.520
93422W        W54711  33.556  38.937  12.495
93423W        W54712   7.327  34.104  10.426
93424W        W54713  20.240  14.664   4.722
93425W        W54714  28.932  13.183   4.753
93426W        W54715   7.841   0.973   5.224
93427W        W54716  23.176  33.022   2.785
93428W        W54717  37.552  39.027  14.858
93429W        W54718  20.646  16.648   1.870
93430W        W54719  30.497   7.725  10.895
93431W        W54720   4.891   2.296   4.826
93432W        W54721  23.221  21.121  13.996
93433W        W54722  12.174  35.485   2.734
93434W        W54723   6.753  18.292   1.222
93435W        W54724  27.143   0.754  14.816
93436W        W54725  33.403  12.705   0.459
93437W        W54726  42.975  21.070   2.305
93438W        W54727   7.272  43.356   4.762
93439W        W54728  28.930  14.612   4.795
93440W        W54729  25.146  33.072  11.939
93441W        W54730  27.575  35.934   1.885
93442W        W54731   1.348  33.879   3.736
93443W        W54732  40.345  40.444   0.786
93444W        W54733  35.435   1.319   2.221
93445W        W54734  18.759  34.454  11.004
93446W        W54735  19.548  11.807   0.801
93447W        W54736  11.313  29.525  11.374
93448W        W54737  24.576   7.884   3.682
93449W        W54738  42.904  27.520   2.309
93450W        W54739  39.824  31.939   1.347
93451W        W54740  29.500  30.127  11.028
93452W        W54741   7.237  20.169  13.912
93453W        W54742  32.062   0.316   5.320
93454W        W54743   9.746   3.299  11.550
93455W        W54744  33.071   1.793  10.139
93456W        W54745  23.534  14.169  12.898
93457W        W54746   7.796  17.161   1.443
93458W        W54747  18.113   3.714   4.130
93459W        W54748   9.815   3.824   2.212
93460W        W54749  28.563  26.086  10.980
93461W        W54750   4.367  12.360  10.600
93462W        W54751  36.412  11.669   4.795
93463W        W54752  28.085   8.176  14.513
93464W        W54753  44.361  16.596  10.633
93465W        W54754  24.052  10.756  14.350
93466W        W54755  12.133  21.742   4.202
93467W        W54756  14.279  10.189  11.581
93468W        W54757  17.584  10.752   2.668
93469W        W54758  34.960  38.937  11.569
93470W        W54759  38.515  36.558   2.384
93471W        W54760  24.227  18.746  11.981
93472W        W54761  10.351  10.866  13.939
93473W        W54762  28.560  40.345  14.351
93474W        W54763  41.319  31.426   2.870
93475W        W54764  14.195  34.904  12.048
93476W        W54765   6.344  25.968   9.983
93477W        W54766  44.333  28.064   4.749
93478W        W54767  22.570  13.203  14.986
93479W        W54768   8.655   0.462  10.080
93480W        W54769  20.254  31.118  11.480
93481W        W54770  42.411  12.727   0.317
93482W        W54771   0.772  21.159   0.258
93483W        W54772   1.879  36.905  13.013
93484W        W54773  24.043  16.195  12.092
93485W        W54774  34.984  42.883   3.279
93486W        W54775  13.770  13.313   4.777
93487W        W54776  15.782  22.026   4.218
93488W        W54777  36.852   1.931   1.362
93489W        W54778  31.907  11.231  13.456
93490W        W54779  19.730  27.143   4.733
93491W        W54780  32.045  14.648  14.514
93492W        W54781  28.177  30.133   4.343
93493W        W54782  41.935   8.884  10.138
93494W        W54783  30.989  34.097   3.733
93495W        W54784   1.883  12.716  13.518
93496W        W54785  43.341  43.840  13.378
93497W        W54786   0.260  31.000   2.840
93498W        W54787  11.855  40.411   1.363
93499W        W54788  37.395   7.679  14.785
93500W        W54789  38.849  24.181   1.349
93501W        W54790  30.133  14.800  10.469
93502W        W54791  25.059  13.759  12.347
93503W        W54792  29.493   7.206  14.903
93504W        W54793  27.545   1.335   0.305
93505W        W54794   9.369   9.865   1.365
93506W        W54795  44.786  16.619   2.888
93507W        W54796  24.620   6.728  13.931
93508W        W54797   5.203  39.009  12.862
93509W        W54798  22.714  35.365   0.423
93510W        W54799  17.147  44.268  14.293
93511W        W54800  28.949  28.063   3.712
93512W        W54801  35.977   0.829   1.779
93513W        W54802  34.924   8.194  13.359
93514W        W54803  23.066  25.536   2.232
93515W        W54804  13.735  32.506   2.803
93516W        W54805   6.189  29.657  13.962
93517W        W54806  26.117  28.173   2.324
93518W        W54807   8.275   2.836   4.773
93519W        W54808  38.821  23.191   0.320
93520W        W54809  12.144   2.815   2.707
93521W        W54810  32.085  23.182   1.842
93522W        W54811  43.462  11.718   0.311
93523W        W54812   0.355  20.649  13.985
93524W        W54813  13.819  38.028  11.074
93525W        W54814  34.588  41.447   0.881
93526W        W54815  38.434  43.396  13.404
93527W        W54816  28.623  19.740   4.775
93528W        W54817   8.888  13.128   3.794
93529W        W54818  22.080  25.109   0.849
93530W        W54819  23.092  21.648  13.931
93531W        W54820  19.702  44.010  12.502
93532W        W54821  32.097  14.598   4.347
93533W        W54822  13.705   7.703   0.321
93534W        W54823  16.126  44.949  12.391
93535W        W54824  18.679  31.601  11.491
93536W        W54825  31.101   4.357  11.548
93537W        W54826  41.378  28.672  12.010
93538W        W54827  23.527   9.843   3.374
93539W        W54828  22.176  16.303   0.327
93540W        W54829  38.888  13.605   1.928
93541W        W54830   9.869   2.288  13.354
93542W        W54831   9.844  42.434  11.428
93543W        W54832  38.924  38.934   1.236
93544W        W54833  11.703  19.654   4.226
93545W        W54834  44.488  10.299  11.559
93546W        W54835  39.467   8.386  10.619
93547W        W54836  22.209  27.197   4.665
93548W        W54837  41.423  13.758  13.380
93549W        W54838   9.649   7.293   1.703
93550W        W54839  13.687  13.805   3.214
93551W        W54840  10.685  17.720  14.909
93552W        W54841  44.290  33.506  13.377
93553W        W54842  30.477  18.074   1.385
93554W        W54843  30.034  20.101   1.264
93555W        W54844  36.557  22.223   0.268
93556W        W54845  18.184   2.740   1.753
93557W        W54846   8.655  17.183   3.666
93558W        W54847   4.872  13.256  12.524
93559W        W54848  25.657  42.922   1.743
93560W        W54849  18.116  34.407  13.379
93561W        W54850   4.397   2.459   1.775
93562W        W54851   3.884   3.731   3.789
93563W        W54852  16.241  32.561  14.434
93564W        W54853  35.428  29.039  13.450
93565W        W54854  12.776  22.723   1.704
93566W        W54855  36.504  16.091   0.780
93567W        W54856  22.692  21.568  12.396
93568W        W54857  21.520  37.861   2.700
93569W        W54858   1.355   0.896  13.800
93570W        W54859   1.883  14.685   2.186
93571W        W54860  27.059  23.146  14.492
93572W        W54861  18.613   9.820   0.260
93573W        W54862  18.252  19.253   0.263
93574W        W54863  28.603   6.688  11.417
93575W        W54864  30.919  27.456  12.347
93576W        W54865  30.466  43.995  13.383
93577W        W54866  22.201  34.972   0.413
93578W        W54867  44.438  14.657  12.341
93579W        W54868  17.127  38.565  10.030
93580W        W54869  18.707  34.377  12.470
93581W        W54870  13.830  23.604  13.926
93582W        W54871   1.422   6.773   4.170
93583W        W54872  25.030  11.149  11.446
93584W        W54873   1.926  22.226   3.817
93585W        W54874  18.643  36.379  12.880
93586W        W54875  17.693  24.543  14.015
93587W        W54876   5.834  37.382   2.219
93588W        W54877  29.157  12.834  11.956
93589W        W54878  22.244  26.116   3.823
93590W        W54879   6.220  12.728   3.156
93591W        W54880   3.923  17.290   0.947
93592W        W54881   7.867  32.076   3.312
93593W        W54882   5.429  13.713  13.424
93594W        W54883  29.138  44.478  11.504
93595W        W54884  24.538  31.902   0.936
93596W        W54885   9.200  15.602  11.536
93597W        W54886  38.857  37.498   4.285
93598W        W54887   3.339  17.120  13.511
93599W        W54888  11.654  21.532   2.249
93600W        W54889  12.226  19.282   3.803
93601W        W54890  24.721  38.382   0.783
93602W        W54891  30.053  12.851  11.565
93603W        W54892   4.260   3.745  11.573
93604W        W54893  25.102  16.632   4.654
93605W        W54894  31.484  17.161  10.584
93606W        W54895  12.207  25.214   3.731
93607W        W54896   1.354  15.673   3.806
93608W        W54897   2.250  22.202   2.899
93609W        W54898  30.092  20.122   0.882
93610W        W54899  35.531  31.938   4.788
93611W        W54900  10.256  23.593  10.032
93612W        W54901  14.139  31.621   4.133
93613W        W54902   9.362   2.845  12.544
93614W        W54903   2.859  24.509   0.327
93615W        W54904  16.296   9.347   2.366
93616W        W54905  10.845  14.168   1.896
93617W        W54906   6.775  33.988  12.961
93618W        W54907  29.482  20.028   3.673
93619W        W54908   0.315  31.528   3.352
93620W        W54909  20.584  35.441   2.387
93621W        W54910   5.866  28.536  13.419
93622W        W54911  19.609  12.316  10.990
93623W        W54912  27.979  31.471  10.951
93624W        W54913  16.804  26.458   0.952
93625W        W54914  12.225  43.976   0.303
93626W        W54915   6.693  14.798   2.204
93627W        W54916   4.245  23.703  14.435
93628W        W54917  12.275  22.034  10.913
93629W        W54918  21.195  16.633  14.804
93630W        W54919  22.653  30.519   4.245
93631W        W54920  43.976  19.276  14.846
93632W        W54921  23.106  44.777  11.067
93633W        W54922  22.591   9.889  14.854
93634W        W54923  29.121  38.480   0.810
93635W        W54924  32.415  39.809  10.525
93636W        W54925  42.894  13.133  14.274
93637W        W54926  12.756  33.109   2.874
93638W        W54927  15.767  32.522  12.963
93639W        W54928  38.387  19.536  10.615
93640W        W54929  28.056  26.594   1.349
93641W        W54930  13.713  29.628  10.430
93642W        W54931  38.362  32.887  12.964
93643W        W54932  32.524  17.251   4.330
93644W        W54933   3.796  40.354   4.725
93645W        W54934  13.343  33.423   1.805
93646W        W54935  18.284   9.743   4.837
93647W        W54936  10.655  28.984  11.932
93648W        W54937  32.428  10.691   4.219
93649W        W54938   0.967  36.505   4.284
93650W        W54939  18.619   3.787  11.880
93651W        W54940   9.782  44.915   2.779
93652W        W54941   2.321   3.789  13.979
93653W        W54942  13.640   9.363   4.300
93654W        W54943   3.732  41.406   0.738
93655W        W54944  24.158   8.380   0.863
93656W        W54945  25.009  31.487   1.355
93657W        W54946  36.569  13.222  11.898
93658W        W54947  27.032  42.977   1.370
93659W        W54948   4.736  17.185  11.011
93660W        W54949  17.185   1.919   0.796
93661W        W54950   8.876  17.079  12.852
93662W        W54951   6.838  28.119  10.414
93663W        W54952  23.729  44.888   3.273
93664W        W54953  38.042  36.436   0.841
93665W        W54954  10.384   5.881   0.878
93666W        W54955  27.662  27.116   0.827
93667W        W54956  36.488  14.661  14.494
93668W        W54957  34.037  23.637   0.731
93669W        W54958  10.834  41.387   4.343
93670W        W54959  18.173  39.991   2.716
93671W        W54960  39.950  34.899  14.950
93672W        W54961  32.023  25.650  13.337
93673W        W54962  12.207  31.581  14.323
93674W        W54963  37.424  32.457   3.722
93675W        W54964  36.032  18.666   1.236
93676W        W54965  37.377  37.350  11.979
93677W        W54966   1.859   2.304   2.386
93678W        W54967  33.874  38.058   2.829
93679W        W54968  13.127  32.897   3.245
93680W        W54969  36.054  38.528  12.863
93681W        W54970  10.383  34.553   5.092
93682W        W54971  42.852  27.518  12.370
93683W        W54972  15.602  23.010   3.329
93684W        W54973   4.799   6.308   4.720
93685W        W54974  42.435  19.592   1.291
93686W        W54975  24.616  42.944   0.405
93687W        W54976  16.589  25.062   2.720
93688W        W54977  33.561  41.406   3.277
93689W        W54978   0.388  15.179  14.877
93690W        W54979   1.777  21.527   0.814
93691W        W54980  10.306   8.803   4.734
93692W        W54981  38.424   4.233   2.419
93693W        W54982  23.200   3.456   0.896
93694W        W54983  39.365  29.662  12.507
93695W        W54984  24.508   1.336   0.797
93696W        W54985   0.337  27.964  10.558
93697W        W54986  28.106   1.779   4.757
93698W        W54987  19.105   8.343  11.943
93699W        W54988  20.266  42.776  12.955
93700W        W54989  14.710   4.880   4.302
93701W        W54990   6.375  31.551  10.547
93702W        W54991  31.554  12.324   0.946
93703W        W54992  16.276  40.539   4.144
93704W        W54993  24.623  10.859  10.894
93705W        W54994  44.830  32.518  12.065
93706W        W54995   1.759  28.630   0.468
93707W        W54996  35.865   2.810   0.825
93708W        W54997  13.601   1.921   0.792
93709W        W54998  12.766   1.968   1.215
93710W        W54999  39.514  16.665  14.868
93711W        W55000   0.846  30.102   2.858
93712W        W55001  19.659  17.666   4.640
93713W        W55002   4.808  38.975   0.827
93714W        W55003  38.880  11.698   2.778
93715W        W55004   6.747  39.925  12.982
93716W        W55005  30.113  39.876   3.767
93717W        W55006  40.963  32.023   0.838
93718W        W55007  44.821  40.047   3.754
93719W        W55008  43.438   6.805  14.774
93720W        W55009  26.651   0.742  14.345
93721W        W55010  41.328  38.459   0.909
93722W        W55011   2.910  36.467  12.479
93723W        W55012  38.463  27.632   0.269
93724W        W55013  11.827  20.273  10.985
93725W        W55014   2.233  26.031  14.956
93726W        W55015  32.495   3.897  14.014
93727W        W55016   0.812  44.938   4.663
93728W        W55017   8.393  18.182   0.332
93729W        W55018  26.155   3.766   1.926
93730W        W55019  28.969  23.513  14.836
93731W        W55020  24.597  44.854  10.572
93732W        W55021  39.978  25.195  14.867
93733W        W55022  32.995  11.761   2.206
93734W        W55023  20.622  42.893  14.991
93735W        W55024  43.987  32.901   1.276
93736W        W55025   8.725  32.939   0.897
93737W        W55026  24.989  12.637  14.378
93738W        W55027   7.892  18.718   1.219
93739W        W55028  21.649  17.128  11.530
93740W        W55029  44.346  12.288   0.250
93741W        W55030  20.034  32.891   1.418
93742W        W55031  21.599  31.574   2.252
93743W        W55032   3.223  38.941   5.169
93744W        W55033  25.203   9.863   2.340
93745W        W55034  14.307  25.703  14.811
93746W        W55035  18.770  41.437  11.014
93747W        W55036  25.182  33.532  14.937
93748W        W55037   6.813  11.294  11.454
93749W        W55038  39.894   0.446   4.611
93750W        W55039  29.132  17.237   4.776
93751W        W55040  15.193  12.714   1.773
93752W        W55041  18.606  41.359  14.758
93753W        W55042  13.651  24.161  14.773
93754W        W55043  12.305   3.833   1.797
93755W        W55044   0.928  13.715   1.783
93756W        W55045   7.220  24.490   0.941
93757W        W55046   7.827   1.867   4.127
93758W        W55047  42.506  34.100   1.366
93759W        W55048  41.803  32.578  12.347
93760W        W55049  12.122   6.878  11.023
93761W        W55050  16.809   8.364   3.208
93762W        W55051   6.249  15.264   2.335
93763W        W55052  31.980  28.630   3.721
93764W        W55053  28.576  39.513   1.852
93765W        W55054  17.079  16.294   4.621
93766W        W55055  17.635  19.683   2.359
93767W        W55056   4.862  44.280  10.057
93768W        W55057  14.690  19.565   1.257
93769W        W55058   7.277  23.214  11.461
93770W        W55059  30.029  15.229   0.353
93771W        W55060  40.933  39.455   1.431
93772W        W55061   6.186  36.026  11.070
93773W        W55062  16.139  33.530  11.976
93774W        W55063   1.282  39.884   2.200
93775W        W55064  27.615  18.294  14.388
93776W        W55065  10.686  34.066  13.326
93777W        W55066  35.086   0.852   0.431
93778W        W55067  15.619  16.746   2.740
93779W        W55068  40.999  44.271   3.335
93780W        W55069  22.059  14.257  11.941
93781W        W55070  40.370  21.693  12.494
93782W        W55071  38.409   3.392  14.338
93783W        W55072  20.170  38.549   4.156
93784W        W55073  20.641  26.673  13.966
93785W        W55074  41.987  44.354   0.403
93786W        W55075  33.569  18.245   5.268
93787W        W55076  38.061  11.865   2.405
93788W        W55077  28.674   6.915  13.061
93789W        W55078  33.945  12.312   1.379
93790W        W55079  23.564  26.043  11.124
93791W        W55080  14.776  16.630  14.383
93792W        W55081  26.609   4.779  12.577
93793W        W55082  13.247   1.479   2.898
93794W        W55083  41.008  26.974  11.935
93795W        W55084  25.502  27.547  13.496
93796W        W55085  13.736  25.216   0.377
93797W        W55086  21.531  11.691   2.267
93798W        W55087  29.663  29.065   4.122
93799W        W55088  31.109  12.218   4.649
93800W        W55089  39.448  36.375  10.597
93801W        W55090  25.980   0.931   0.842
93802W        W55091  24.610  42.028   1.903
93803W        W55092  11.658  26.643   3.298
93804W        W55093  38.884   0.370  14.290
93805W        W55094  14.110  43.000   3.147
93806W        W55095  44.433  15.158  14.447
93807W        W55096  41.411  11.814  11.432
93808W        W55097  25.509   9.776   2.285
93809W        W55098   6.309  13.690   1.411
93810W        W55099  17.197  10.170  10.567
93811W        W55100  10.371   1.732   2.773
93812W        W55101  30.598  22.041  13.505
93813W        W55102  27.993   4.720  14.879
93814W        W55103  15.794  13.262   3.663
93815W        W55104  13.673   1.942  14.510
93816W        W55105   1.754   4.244   2.309
93817W        W55106   6.744  23.113  11.436
93818W        W55107  34.946  16.236   3.173
93819W        W55108  36.436  13.706  12.853
93820W        W55109  10.876  31.150  13.859
93821W        W55110   1.415   2.875  11.484
93822W        W55111   0.920  35.502  13.859
93823W        W55112  23.700  17.625   3.289
93824W        W55113  29.948   4.436   0.262
93825W        W55114  15.681  25.982  11.588
93826W        W55115  25.600   8.161   2.702
93827W        W55116  33.422  37.891   2.831
93828W        W55117  40.412  27.490   0.757
93829W        W55118  12.642   2.449   2.869
93830W        W55119  35.541  26.029   4.698
93831W        W55120  42.412   9.162   1.795
93832W        W55121  25.153  15.806   1.754
93833W        W55122  25.631  15.170  11.481
93834W        W55123   8.806   8.207  11.997
93835W        W55124  28.450  10.856  11.522
93836W        W55125   0.801   7.781   3.194
93837W        W55126  34.514  37.423  12.886
93838W        W55127  19.583   8.177  11.466
93839W        W55128  43.372  19.549   4.147
93840W        W55129  36.534  43.285   3.714
93841W        W55130  18.733  28.460  10.890
93842W        W55131  42.973  29.453  10.545
93843W        W55132  29.558  14.150   5.093
93844W        W55133  29.496   0.767  13.034
93845W        W55134  31.443   3.318   1.735
93846W        W55135   5.930   2.779  12.032
93847W        W55136   4.791  18.121  13.036
93848W        W55137  19.079  38.971  11.553
93849W        W55138  20.113  42.906   2.284
93850W        W55139  42.953  37.358   3.719
93851W        W55140  25.492   4.926  14.949
93852W        W55141   9.867   9.795  11.394
93853W        W55142   7.186  23.082  13.903
93854W        W55143  22.688  28.535  10.620
93855W        W55144  31.639  29.511   0.442
93856W        W55145  25.981  21.192  14.821
93857W        W55146  30.430  29.455  12.085
93858W        W55147  44.989  42.506   1.264
93859W        W55148  41.980  38.900  13.929
93860W        W55149   6.265   8.770   1.859
93861W        W55150  41.312  14.208   4.221
93862W        W55151  12.341   3.220   0.283
93863W        W55152  19.206  12.199   1.449
93864W        W55153   0.832  35.542   2.247
93865W        W55154  42.518  31.107  13.831
93866W        W55155  23.552  16.736  11.883
93867W        W55156  37.386  38.371   4.777
93868W        W55157  43.405  16.071   3.716
93869W        W55158  22.640   4.776   5.284
93870W        W55159   8.167  17.210  13.806
93871W        W55160   5.745  36.841  13.463
93872W        W55161  18.617  29.148   1.441
93873W        W55162  16.149   6.182   0.341
93874W        W55163  24.124  31.001  14.012
93875W        W55164  11.281   8.817  11.867
93876W        W55165   4.413   4.889  13.430
93877W        W55166  33.617   7.790  14.382
93878W        W55167  23.714  13.837  14.771
93879W        W55168  22.071  43.843  14.336
93880W        W55169  38.980  38.398   4.824
93881W        W55170  28.521  26.107  14.450
93882W        W55171  13.679  26.608  13.480
93883W        W55172  37.521   5.247  14.279
93884W        W55173   9.310  30.575   5.317
93885W        W55174  43.393  43.386   4.767
93886W        W55175  16.210  36.938   2.309
93887W        W55176  34.062  29.042   1.351
93888W        W55177  35.395   3.855  11.094
93889W        W55178  18.081  17.185  11.516
93890W        W55179   3.760  44.912  12.829
93891W        W55180  17.285  43.442   1.396
93892W        W55181  33.568  23.022   1.823
93893W        W55182   2.253  32.555   1.400
93894W        W55183  20.571  35.103  11.499
93895W        W55184  39.419  40.979  11.053
93896W        W55185  13.626  25.561   0.308
93897W        W55186  36.017  23.193  10.438
93898W        W55187   2.887   6.286  14.957
93899W        W55188   5.285  21.225  14.847
93900W        W55189  30.617  14.781   0.405
93901W        W55190  10.822  43.351   0.923
93902W        W55191  37.038  24.622   3.245
93903W        W55192  10.672   1.875  13.478
93904W        W55193   6.857  23.985  12.405
93905W        W55194  42.312  30.091  14.847
93906W        W55195  17.192  39.470  11.605
93907W        W55196   5.315   4.332  14.759
93908W        W55197  40.346  42.869   0.808
93909W        W55198   4.893   5.755  11.449
93910W        W55199  20.636   5.762  10.507
93911W        W55200  41.414  20.728   1.384
93912W        W55201   0.412   2.790   4.202
93913W        W55202  28.486   1.474   2.744
93914W        W55203  23.701  44.354   2.311
93915W        W55204  23.510  43.907   3.261
93916W        W55205  20.670  13.220   3.737
93917W        W55206  35.038  29.446   2.216
93918W        W55207  37.962  42.495   2.370
93919W        W55208   4.883  24.630   3.838
93920W        W55209   1.279  18.095   4.705
93921W        W55210  24.642  15.804  12.559
93922W        W55211  20.540  28.458   1.364
93923W        W55212  16.313  29.663  13.465
93924W        W55213  12.291  31.635  13.804
93925W        W55214  26.151  18.549   2.701
93926W        W55215  34.615  17.217   3.372
93927W        W55216  22.019  20.218  13.012
93928W        W55217  40.349  19.620   4.272
93929W        W55218  43.799  38.866   0.410
93930W        W55219  40.305  36.874  10.574
93931W        W55220  40.512  18.785  11.410
93932W        W55221  38.987  14.143   1.254
93933W        W55222  23.628  44.972   2.767
93934W        W55223  23.500  29.981   2.670
93935W        W55224   4.431  15.116  12.500
93936W        W55225  14.596  10.363  14.962
93937W        W55226  24.991  43.463  14.865
93938W        W55227  38.526   6.197  14.956
93939W        W55228  27.090  38.329   2.281
93940W        W55229  42.903  24.509   4.157
93941W        W55230  36.407  34.001  13.310
93942W        W55231  19.659  29.663   4.777
93943W        W55232  26.010  20.204   4.662
93944W        W55233  32.559  18.180  14.424
93945W        W55234  30.093  21.261  14.409
93946W        W55235  17.710  24.004   0.327
93947W        W55236  30.543  26.201   4.818
93948W        W55237   7.262  10.165   0.900
93949W        W55238  40.811  10.307   4.209
93950W        W55239   6.911  15.309   1.722
93951W        W55240  15.786  11.312   1.216
93952W        W55241  22.224  39.470  14.788
93953W        W55242  24.079   8.369   9.576
93954W        W55243  41.799   8.177   0.731
93955W        W55244   8.682  28.064   3.216
93956W        W55245   6.251   4.861   1.697
93957W        W55246  27.688  12.804  11.034
93958W        W55247  40.534  19.045   1.283
93959W        W55248   0.985  43.510  12.034
93960W        W55249   7.345  26.570   3.715
93961W        W55250  31.074   5.741   3.359
93962W        W55251  14.752  38.526   0.300
93963W        W55252  26.559  16.098  12.943
93964W        W55253  40.519  43.788  11.606
93965W        W55254   2.866  38.968  13.319
93966W        W55255   5.199  30.641   0.380
93967W        W55256  37.013   8.358  13.921
93968W        W55257  27.609  34.988   4.717
93969W        W55258  27.474   0.345   4.285
93970W        W55259  35.978  44.337  13.501
93971W        W55260   8.311  15.222  12.346
93972W        W55261  31.588  39.436  11.892
93973W        W55262  42.504  37.451   9.930
93974W        W55263  32.493  42.947   4.659
93975W        W55264  41.835  21.179  10.607
93976W        W55265   7.738  22.544  12.830
93977W        W55266   0.905  25.633   1.796
93978W        W55267  36.066  25.485  14.328
93979W        W55268  28.466   4.352   1.863
93980W        W55269  15.674   8.320   3.267
93981W        W55270  42.781   5.435  13.333
93982W        W55271   2.451  38.399   0.464
93983W        W55272  17.155  26.590  12.444
93984W        W55273  35.582  18.276   2.670
93985W        W55274  35.448   8.722  11.004
93986W        W55275  31.955   8.894   3.152
93987W        W55276  10.186  18.270  14.825
93988W        W55277  26.501  20.745  13.816
93989W        W55278   8.759  17.078   1.911
93990W        W55279  33.928  16.242   2.369
93991W        W55280  11.792  36.075   1.250
93992W        W55281   3.899  27.560   3.297
93993W        W55282  21.596   2.412   4.749
93994W        W55283  21.579  35.580   4.666
93995W        W55284  34.522  31.128  13.414
93996W        W55285  36.861  18.701   2.682
93997W        W55286  30.973  38.514  14.985
93998W        W55287   0.791  44.917  10.902
93999W        W55288  30.524  28.489  14.419
94000W        W55289  20.727  12.172  13.926
94001W        W55290   6.211  15.133  12.033
94002W        W55291  30.988  19.256  11.058
94003W        W55292   8.761  42.952  14.944
94004W        W55293  22.187   2.265  10.644
94005W        W55294  42.945  38.995   2.239
94006W        W55295  37.383  42.415   3.338
94007W        W55296  38.910  17.666  14.784
94008W        W55297  30.635  17.140  14.908
94009W        W55298  38.064   0.453   4.135
94010W        W55299  17.604  16.310  11.401
94011W        W55300  29.966  13.160  14.990
94012W        W55301  28.441  18.735  12.435
94013W        W55302  37.556  11.277   4.219
94014W        W55303  19.552  20.554   4.831
94015W        W55304  31.998   3.795   2.828
94016W        W55305  26.642  21.021  11.001
94017W        W55306  32.404   2.234   0.416
94018W        W55307   0.409  20.722   1.874
94019W        W55308  18.236  16.627   1.849
94020W        W55309  37.951  42.343  10.599
94021W        W55310   5.739  19.248  14.440
94022W        W55311  40.424  16.113   4.186
94023W        W55312   1.955  42.296  12.376
94024W        W55313  30.021   8.897  11.613
94025W        W55314  19.701  18.218   1.817
94026W        W55315   7.276  36.415   0.876
94027W        W55316   6.787  39.911   1.801
94028W        W55317   4.938  14.725  13.856
94029W        W55318   3.873  23.060  13.381
94030W        W55319   3.932   2.825   4.597
94031W        W55320  44.418   2.784  12.364
94032W        W55321  24.538   9.702  13.372
94033W        W55322  25.652   1.937   2.306
94034W        W55323  20.049  13.267  11.949
94035W        W55324  31.573   7.305   1.340
94036W        W55325  30.088   2.838   3.701
94037W        W55326  44.467  35.584  14.343
94038W        W55327  37.344  37.877  13.912
94039W        W55328  43.322   2.749   3.816
94040W        W55329  12.782   5.275   2.877
94041W        W55330  25.969  31.154  11.110
94042W        W55331  29.987   2.323  11.423
94043W        W55332   9.661  41.426  12.991
94044W        W55333   1.955  32.071  10.449
94045W        W55334  39.864  25.017   1.808
94046W        W55335  10.656  33.456  11.512
94047W        W55336  41.901   1.942   3.238
94048W        W55337   8.291  31.920   2.291
94049W        W55338  20.655  23.208  14.324
94050W        W55339  38.984  32.026  11.594
94051W        W55340   3.811  43.375   1.433
94052W        W55341  43.958  12.214   5.146
94053W        W55342  43.872  25.004  11.395
94054W        W55343  32.449  20.548   4.187
94055W        W55344   7.681   9.152   3.351
94056W        W55345   8.361   8.837   2.361
94057W        W55346   5.384  22.550  11.905
94058W        W55347  30.625   8.196   4.762
94059W        W55348  40.004  22.238  11.053
94060W        W55349  16.222  21.653  13.461
94061W        W55350  24.092  34.105  14.307
94062W        W55351  31.463  14.273   0.833
94063W        W55352  26.179  29.028   1.364
94064W        W55353  42.829  28.480   1.440
94065W        W55354  15.614  34.910  11.594
94066W        W55355  16.593  44.466   0.935
94067W        W55356  39.847  34.523   1.381
94068W        W55357  29.058  26.657  10.098
94069W        W55358  14.111  31.062   4.331
94070W        W55359  13.794   5.267   2.721
94071W        W55360  43.292   1.243   0.867
94072W        W55361  26.543   5.408  11.919
94073W        W55362   1.388  32.120  13.433
94074W        W55363  20.624  42.808   4.654
94075W        W55364   9.760  10.373  12.013
94076W        W55365  10.858  20.079  11.909
94077W        W55366   2.296  44.353  10.088
94078W        W55367  37.058   6.263   1.326
94079W        W55368  19.750  38.060   2.891
94080W        W55369  40.385  44.409  13.513
94081W        W55370  43.460   5.799  11.476
94082W        W55371  21.252  33.120   9.959
94083W        W55372   7.321  38.463  13.531
94084W        W55373  28.017  34.609  14.768
94085W        W55374  10.640  17.225  13.822
94086W        W55375  29.569  38.944  12.986
94087W        W55376   4.207   2.370  13.447
94088W        W55377  18.251  41.386   2.194
94089W        W55378  43.474  20.175   4.338
94090W        W55379  19.276   9.237  13.517
94091W        W55380   5.211   0.898   3.218
94092W        W55381  38.931  43.302   4.344
94093W        W55382   0.434  18.689  10.590
94094W        W55383  36.430  15.779  12.950
94095W        W55384  22.229  29.432  10.423
94096W        W55385   8.887  23.494  12.473
94097W        W55386  42.375  35.489   1.912
94098W        W55387  28.122  25.043   0.327
94099W        W55388  36.438  12.786   4.609
94100W        W55389  17.753   2.436   3.778
94101W        W55390  36.931  27.464  13.060
94102W        W55391  43.764  11.209  10.134
94103W        W55392  26.657  42.444   3.323
94104W        W55393   2.306  23.087   2.726
94105W        W55394  35.443  17.097   1.860
94106W        W55395  39.899  36.384  12.502
94107W        W55396  42.527  16.633   4.766
94108W        W55397   5.905   7.204  11.015
94109W        W55398  25.100   2.774   1.786
94110W        W55399  27.070  32.926  11.111
94111W        W55400  12.182  42.525  13.321
94112W        W55401  31.586  37.003  14.403
94113W        W55402  34.996  26.699  14.442
94114W        W55403  33.996  43.966   3.702
94115W        W55404  36.961   6.346   3.192
94116W        W55405  36.502  34.975   4.115
94117W        W55406  27.129  34.032   1.279
94118W        W55407  33.594  35.520  11.032
94119W        W55408  31.970  37.013   3.843
94120W        W55409  32.416  16.294  12.388
94121W        W55410   0.250   7.189  13.965
94122W        W55411   6.775  11.740   3.710
94123W        W55412  40.455   8.253   0.473
94124W        W55413  13.734  36.083  11.899
94125W        W55414  19.670  25.583   2.205
94126W        W55415  30.619   4.842  14.879
94127W        W55416   2.283   6.219  13.309
94128W        W55417  44.494  38.569   2.827
94129W        W55418  12.333  36.851  14.412
94130W        W55419  18.208  24.682  12.977
94131W        W55420  22.584  40.807   1.867
94132W        W55421  30.001   7.216  14.854
94133W        W55422  20.522  37.477  11.936
94134W        W55423  33.956  11.310  14.851
94135W        W55424  26.143  35.878   3.370
94136W        W55425  36.849  38.066   4.319
94137W        W55426  30.131  27.058  14.405
94138W        W55427   8.844  20.186  11.076
94139W        W55428  10.637  22.691  12.922
94140W        W55429   4.839  13.346   0.442
94141W        W55430  13.839  12.176  11.536
94142W        W55431  36.461  39.338  14.858
94143W        W55432  21.136  14.261   2.205
94144W        W55433   6.382   7.758   4.681
94145W        W55434   4.849   1.884   2.695
94146W        W55435  43.970  39.940  13.409
94147W        W55436  34.547  21.756  14.762
94148W        W55437   7.400   8.742   4.793
94149W        W55438   8.182  16.770  13.042
94150W        W55439  40.436  35.884  14.960
94151W        W55440  36.954  11.844   0.296
94152W        W55441   6.402  33.389   3.223
94153W        W55442   1.401   9.174   0.330
94154W        W55443  26.062  13.705  14.284
94155W        W55444  33.920  33.942  13.961
94156W        W55445   1.816   9.806   1.806
94157W        W55446  28.462  34.006  13.371
94158W        W55447  25.608  23.730   5.207
94159W        W55448  16.254  34.101  14.835
94160W        W55449  30.439  26.552  13.330
94161W        W55450   8.673  43.852  13.984
94162W        W55451  11.843   3.219   3.787
94163W        W55452  29.604  40.357  12.417
94164W        W55453  30.632  12.837  13.435
94165W        W55454   3.384  29.156  10.434
94166W        W55455   2.410  18.166   1.864
94167W        W55456  27.024  25.672   1.273
94168W        W55457  25.500  13.609  11.463
94169W        W55458   5.426  13.758  14.868
94170W        W55459  20.725  10.753   2.728
94171W        W55460   2.904  29.429  11.998
94172W        W55461  20.122  30.117   4.190
94173W        W55462  38.406  38.401   3.240
94174W        W55463  17.600   9.280   4.822
94175W        W55464  35.480   7.371  13.828
94176W        W55465  37.028  43.972   4.688
94177W        W55466  38.006  27.143  14.385
94178W        W55467  25.061  32.983  13.004
94179W        W55468  26.536  13.273  13.987
94180W        W55469  39.494  26.609  14.361
94181W        W55470  41.385  10.860  13.363
94182W        W55471  34.958  21.079   2.415
94183W        W55472  14.636  24.633  14.402
94184W        W55473  28.100  24.514   1.350
94185W        W55474  11.275  13.819   2.205
94186W        W55475  21.074  39.032  10.115
94187W        W55476   2.407  14.303   4.249
94188W        W55477  43.771  29.041   0.389
94189W        W55478   6.800  37.514  14.933
94190W        W55479  26.958  18.575  14.885
94191W        W55480  10.678  35.053   5.645
94192W        W55481  37.869  27.619   2.203
94193W        W55482  27.618  15.128   4.226
94194W        W55483  29.155  41.015  13.935
94195W        W55484  27.120  36.588   4.760
94196W        W55485  16.805   6.698  10.921
94197W        W55486   3.420  28.681   2.332
94198W        W55487  28.158  18.160  12.473
94199W        W55488   9.709  32.086   4.140
94200W        W55489  20.240  29.090  11.489
94201W        W55490  40.393  42.875  11.581
94202W        W55491  36.444  41.447   3.214
94203W        W55492   6.214   1.241  10.631
94204W        W55493   7.901   6.261   4.731
94205W        W55494   0.955  22.165   0.917
94206W        W55495  23.594   6.361  13.829
94207W        W55496  17.085  23.202  14.990
94208W        W55497  16.735  12.684   3.677
94209W        W55498   8.795  23.698   0.852
94210W        W55499  36.546  34.453   4.610
94211W        W55500   4.736  27.619  10.590
94212W        W55501  34.938   5.197   4.787
94213W        W55502  44.272  36.385   2.711
94214W        W55503  23.543  29.563   1.261
94215W        W55504  15.175  39.994  11.506
94216W        W55505  22.080  31.560  14.421
94217W        W55506  34.487  43.422  14.494
94218W        W55507  43.339  38.940   1.228
94219W        W55508  29.621  32.430   0.323
94220W        W55509  42.928  43.808  11.052
94221W        W55510  33.114  12.163   0.908
94222W        W55511  25.106  36.474   1.235
94223W        W55512  44.896  42.009   1.898
94224W        W55513   5.789  43.871   3.757
94225W        W55514  12.243  41.508   0.868
94226W        W55515  16.782  37.397   0.280
94227W        W55516  21.178   3.386   3.271
94228W        W55517  10.303  24.182  14.373
94229W        W55518   7.226  13.223  13.980
94230W        W55519   1.740   1.246  13.411
94231W        W55520   4.274  36.097  13.320
94232W        W55521  10.711  32.036   3.191
94233W        W55522  27.050  37.006   2.358
94234W        W55523  40.363  18.181   5.659
94235W        W55524  29.040  23.594   1.325
94236W        W55525  15.654  21.209   4.169
94237W        W55526  22.733  26.618   0.258
94238W        W55527  33.516  36.356   1.301
94239W        W55528  44.341  21.054   1.320
94240W        W55529  34.555  38.541  13.357
94241W        W55530  14.274  21.106  12.359
94242W        W55531  13.657  10.725   2.723
94243W        W55532  14.767  40.990   3.349
94244W        W55533  22.155   3.361  13.865
94245W        W55534  29.039  15.092   2.885
94246W        W55535  39.065  20.158   2.811
94247W        W55536  35.050   4.852   1.836
94248W        W55537  16.734   4.422   3.665
94249W        W55538   5.424  32.081  14.460
94250W        W55539  40.996  44.390  10.119
94251W        W55540  32.495  39.837   4.218
94252W        W55541  26.135  27.633  11.410
94253W        W55542  40.338  31.615  10.448
94254W        W55543  14.119  38.461  13.342
94255W        W55544  27.612  25.974   1.359
94256W        W55545  14.097  37.454  13.401
94257W        W55546  40.953   2.928  12.957
94258W        W55547  10.828  18.164   0.908
94259W        W55548  22.641  37.016  13.063
94260W        W55549  35.565  12.848   4.712
94261W        W55550  30.972   0.275  13.907
94262W        W55551  11.866   2.469  12.982
94263W        W55552  12.136  39.971  10.982
94264W        W55553  24.722  40.472  11.392
94265W        W55554  27.454   9.714  13.857
94266W        W55555  25.113  32.920  10.477
94267W        W55556  34.076  43.510  12.473
94268W        W55557  22.573  16.090   3.360
94269W        W55558  10.292  28.165  13.837
94270W        W55559   8.689   7.830  14.411
94271W        W55560  37.347  31.122   3.804
94272W        W55561  34.968  13.317  13.020
94273W        W55562  11.230   8.286  12.939
94274W        W55563  20.708   8.272  14.937
94275W        W55564  39.941  25.481  11.484
94276W        W55565  21.226  24.177  12.496
94277W        W55566  27.112   2.890  11.913
94278W        W55567  27.619   0.258  14.321
94279W        W55568  33.096  19.685  14.873
94280W        W55569  15.271   4.726   2.733
94281W        W55570  17.770  11.160   2.221
94282W        W55571  28.571  27.174   3.639
94283W        W55572  11.226  22.026  13.416
94284W        W55573  14.708  40.015  10.472
94285W        W55574  17.240  44.829  10.528
94286W        W55575   0.490  16.270   3.787
94287W        W55576  25.606  39.056   1.421
94288W        W55577  31.106  42.909   0.734
94289W        W55578  12.856   9.199  12.374
94290W        W55579  32.990  42.304   2.232
94291W        W55580  15.581  32.069  14.812
94292W        W55581  11.700  23.586   2.841
94293W        W55582  10.732   0.981  12.966
94294W        W55583  41.347  30.122  11.405
94295W        W55584  38.425  34.933  11.539
94296W        W55585  17.115  35.106   9.993
94297W        W55586  26.657  17.801   2.346
94298W        W55587  18.241  34.504  11.384
94299W        W55588  30.527  23.157   0.753
94300W        W55589  32.531   3.940  14.943
94301W        W55590  35.890  44.441  12.905
94302W        W55591  21.173  14.291   2.840
94303W        W55592  31.908  14.166   4.277
94304W        W55593  27.092   4.419  13.985
94305W        W55594  31.462  15.323  13.012
94306W        W55595  29.991  40.876   2.418
94307W        W55596  22.561  13.234  12.488
94308W        W55597  17.281   0.474  10.435
94309W        W55598  44.267  16.319   3.645
94310W        W55599  44.474  38.394  12.042
94311W        W55600  20.094  28.561  11.869
94312W        W55601   9.161  14.798   1.735
94313W        W55602  38.507  11.187   2.858
94314W        W55603  17.063  22.079   4.244
94315W        W55604  35.919  32.412   1.224
94316W        W55605  44.959  39.884  11.561
94317W        W55606  24.542  10.300  10.602
94318W        W55607   0.382   9.660   5.582
94319W        W55608  35.480  36.007   1.836
94320W        W55609  43.468  14.144   1.425
94321W        W55610   2.336  13.306   3.752
94322W        W55611  29.100  33.977  10.433
94323W        W55612   5.339  40.511   1.299
94324W        W55613  31.505  34.561  14.358
94325W        W55614  44.282  22.022  14.512
94326W        W55615  32.023  11.173   2.323
94327W        W55616  21.613  19.641  13.363
94328W        W55617   1.755  34.405   1.446
94329W        W55618  39.993  37.484   0.966
94330W        W55619  26.958   1.878   9.982
94331W        W55620   5.751   7.233   0.302
94332W        W55621  16.741   2.321  13.495
94333W        W55622  10.353  38.915   3.213
94334W        W55623  39.004  29.052   0.807
94335W        W55624  32.432  31.918   1.448
94336W        W55625  42.431   1.809   3.199
94337W        W55626  35.033  38.398   1.212
94338W        W55627  30.016  28.139   2.219
94339W        W55628  11.701   1.806  11.382
94340W        W55629   8.670   9.757  11.975
94341W        W55630   2.767  39.474   4.300
94342W        W55631  25.490  15.185   3.223
94343W        W55632  15.274  22.661   3.761
94344W        W55633   6.286   5.697   3.791
94345W        W55634  12.179   1.795   1.430
94346W        W55635  32.577  36.564   3.823
94347W        W55636  10.293   5.430  11.933
94348W        W55637  16.176  23.612   0.328
94349W        W55638   2.753   5.323  14.920
94350W        W55639  15.273  13.263  12.500
94351W        W55640  26.020   5.312   3.864
94352W        W55641   6.746   7.359   2.674
94353W        W55642  11.284  14.782  14.886
94354W        W55643  33.063  36.491  13.925
94355W        W55644   2.311  41.925  14.505
94356W        W55645  12.301  17.157   3.748
94357W        W55646  29.996   3.836   1.702
94358W        W55647  35.037  10.257   0.287
94359W        W55648  18.597  38.504  12.928
94360W        W55649   2.852  15.142   0.808
94361W        W55650  29.490   2.292   3.247
94362W        W55651  43.898  11.220  13.408
94363W        W55652   3.773  22.557  12.541
94364W        W55653  34.459  20.640   3.364
94365W        W55654   7.891  18.611  11.546
94366W        W55655  10.652  29.148   0.945
94367W        W55656  35.966  24.586  14.299
94368W        W55657  17.760  28.961  12.981
94369W        W55658   7.689  43.962  11.882
94370W        W55659  21.610  22.027   0.349
94371W        W55660  27.532  36.076  13.411
94372W        W55661  12.259  44.856  14.821
94373W        W55662  23.706   6.722  14.290
94374W        W55663  11.267  42.816   4.734
94375W        W55664  31.913  40.941   3.380
94376W        W55665  19.105   0.461  13.365
94377W        W55666  14.144  16.283  10.584
94378W        W55667  18.646  30.562  13.440
94379W        W55668  16.592  15.267   4.223
94380W        W55669  23.596  17.109  13.315
94381W        W55670  13.241   7.256   1.241
94382W        W55671  43.367  44.846   2.187
94383W        W55672   0.816  27.010  10.422
94384W        W55673  33.429  24.567   3.765
94385W        W55674  42.347   0.348   1.338
94386W        W55675  39.477  42.349   3.316
94387W        W55676  44.910  42.448  12.929
94388W        W55677  16.762  10.840  10.962
94389W        W55678  36.014  44.858   4.665
94390W        W55679   2.918  21.103  14.309
94391W        W55680  32.930  24.108  11.508
94392W        W55681  17.562  18.093   0.960
94393W        W55682  35.941  44.832   3.639
94394W        W55683  42.496   8.835   2.374
94395W        W55684  19.131   8.882   1.355
94396W        W55685   5.816  20.617   4.699
94397W        W55686  42.828  40.822   0.875
94398W        W55687  30.524  39.941   2.693
94399W        W55688  32.988   2.378  11.464
94400W        W55689   9.824  11.239   3.810
94401W        W55690  43.377  12.732  11.578
94402W        W55691  41.974  31.100  14.419
94403W        W55692  34.929  17.276  13.439
94404W        W55693  43.928   0.972  14.833
94405W        W55694  44.494  37.506  11.420
94406W        W55695  14.152  10.780   2.721
94407W        W55696  36.364  16.660  12.058
94408W        W55697  22.716  20.753  12.887
94409W        W55698   2.389   3.931  14.865
94410W        W55699  42.482   9.890   0.478
94411W        W55700   2.851  15.755  14.025
94412W        W55701  16.244   3.409  10.644
94413W        W55702  18.245  35.498  11.895
94414W        W55703  17.287  11.251   1.262
94415W        W55704  34.603  27.524   4.128
94416W        W55705  31.121   0.326   1.889
94417W        W55706  32.908   0.319   4.253
94418W        W55707  12.358  22.053   4.724
94419W        W55708   6.803  34.998   1.268
94420W        W55709  33.503   8.807  14.328
94421W        W55710   7.228   7.771  11.929
94422W        W55711  11.205  14.296  13.982
94423W        W55712  40.818  21.066   2.849
94424W        W55713  26.459  34.586  10.506
94425W        W55714  23.190  31.508  12.991
94426W        W55715  28.474  27.008   4.624
94427W        W55716   5.779  36.424   4.296
94428W        W55717  30.141  44.782   0.443
94429W        W55718  22.741  23.072  11.502
94430W        W55719  33.011  28.102   2.296
94431W        W55720  21.749  10.722   0.861
94432W        W55721  11.186  12.217  11.117
94433W        W55722  41.420   5.707  14.845
94434W        W55723  23.633  41.313   0.267
94435W        W55724  29.156  26.185  13.805
94436W        W55725  38.560   2.922  14.350
94437W        W55726  31.540  32.990   0.800
94438W        W55727  14.228  38.361   2.282
94439W        W55728  20.236   6.833  14.879
94440W        W55729  16.674  31.517   1.783
94441W        W55730  40.990  31.422  11.010
94442W        W55731  10.774  24.677  13.020
94443W        W55732   5.783  42.002   2.896
94444W        W55733   3.306  11.191   3.381
94445W        W55734  26.649  17.194  11.384
94446W        W55735  16.779  42.496  13.354
94447W        W55736   1.367  40.966   0.352
94448W        W55737  36.038  10.873   4.164
94449W        W55738  28.496  18.229  10.469
94450W        W55739  15.100  31.916   2.799
94451W        W55740  25.078  19.055  12.856
94452W        W55741  32.088   5.266   5.254
94453W        W55742  18.100  10.699   1.275
94454W        W55743  30.453   7.347   1.887
94455W        W55744  15.692  17.172  14.762
94456W        W55745   6.229  42.798  10.912
94457W        W55746  37.415  27.947   4.300
94458W        W55747  29.464  22.115  14.808
94459W        W55748  31.957  30.497  12.481
94460W        W55749  44.753  14.187  14.946
94461W        W55750   6.894  22.647  12.082
94462W        W55751  27.968  31.148  13.371
94463W        W55752   6.734  41.830   1.928
94464W        W55753   9.201  28.589  11.411
94465W        W55754  17.180   0.842   0.802
94466W        W55755  35.580  12.713  13.989
94467W        W55756  10.161  11.217   3.673
94468W        W55757   4.876   5.909  13.494
94469W        W55758  25.517  44.885  13.354
94470W        W55759  26.657  11.848   4.707
94471W        W55760   1.827   3.243  14.897
94472W        W55761   7.268   3.893   4.679
94473W        W55762  30.017  25.708   0.315
94474W        W55763  16.288  38.940  13.013
94475W        W55764   5.788  44.410   0.399
94476W        W55765  10.226  33.382  11.952
94477W        W55766  43.384  39.006  10.595
94478W        W55767  23.501  38.394   4.230
94479W        W55768  33.609  12.285  10.582
94480W        W55769  31.089  33.464   2.708
94481W        W55770  16.307  40.850   5.084
94482W        W55771  26.597  10.322   4.168
94483W        W55772  13.786  15.088  14.914
94484W        W55773  18.194  26.066  11.114
94485W        W55774   5.357   8.660   1.832
94486W        W55775  20.153  33.942  12.022
94487W        W55776   0.274  20.169   0.867
94488W        W55777  44.491   9.821  11.016
94489W        W55778  41.340   2.755  10.995
94490W        W55779  39.366  29.664  11.473
94491W        W55780  18.638  44.810  11.606
94492W        W55781  27.096  23.200   2.721
94493W        W55782  21.103  35.019  12.539
94494W        W55783  17.712  27.975   4.197
94495W        W55784  38.842  33.462   0.887
94496W        W55785  35.572   0.804   3.219
94497W        W55786  38.981  44.763  12.509
94498W        W55787  15.279  12.765   3.689
94499W        W55788   1.856  40.366  13.421
94500W        W55789  31.573  24.137   4.630
94501W        W55790   1.477  15.726   3.262
94502W        W55791   5.776  33.128  14.850
94503W        W55792  40.961  31.921  13.307
94504W        W55793  24.703  24.684  13.514
94505W        W55794   8.797  17.121  14.022
94506W        W55795  35.039  33.899  11.886
94507W        W55796   9.239  42.369  11.431
94508W        W55797  23.122  28.654   1.377
94509W        W55798   9.814  22.536   2.753
94510W        W55799  24.684  12.686   1.831
94511W        W55800  21.654  10.632   2.185
94512W        W55801  24.074  33.058   0.862
94513W        W55802  17.064  13.805  10.466
94514W        W55803  20.699   6.288   4.346
94515W        W55804  20.154   1.937   1.747
94516W        W55805  10.739  13.183   3.189
94517W        W55806  30.120  16.229  14.984
94518W        W55807  18.736  27.667   2.279
94519W        W55808  34.392   5.824   3.147
94520W        W55809  18.148  33.904  14.928
94521W        W55810   9.357  21.660  11.404
94522W        W55811   7.216  12.331   3.818
94523W        W55812  25.118  17.559   1.763
94524W        W55813  29.568  29.511   0.326
94525W        W55814  37.339  27.466  12.900
94526W        W55815  27.667  32.573   0.815
94527W        W55816   9.828  24.999  11.887
94528W        W55817  15.088  20.058  13.978
94529W        W55818  31.458   3.917   3.222
94530W        W55819  20.072  18.242   3.640
94531W        W55820  10.827  35.599   1.287
94532W        W55821  28.079   5.746   3.215
94533W        W55822  31.530  30.968  12.557
94534W        W55823  25.523  36.897  11.903
94535W        W55824  23.135   5.705  12.061
94536W        W55825  31.905  26.138   1.883
94537W        W55826  11.190  33.896   2.383
94538W        W55827  32.499  44.308   1.407
94539W        W55828  30.069  25.057   1.370
94540W        W55829  41.308   5.842  10.988
94541W        W55830   1.858  17.769  11.544
94542W        W55831   1.460  10.224   1.364
94543W        W55832   0.917   4.809  12.824
94544W        W55833  10.814   6.818   1.415
94545W        W55834  21.103  43.271   2.376
94546W        W55835   7.238  18.714  13.370
94547W        W55836  14.124   2.310  12.359
94548W        W55837  39.338  40.980  14.314
94549W        W55838  35.852  22.189  11.072
94550W        W55839  20.666   3.238  14.396
94551W        W55840  32.074  33.483   3.663
94552W        W55841  10.788  41.022  10.912
94553W        W55842  35.903  14.313   2.691
94554W        W55843  26.208  43.446   1.210
94555W        W55844  44.357  16.586   0.902
94556W        W55845  27.084   6.351   3.193
94557W        W55846  13.719  28.565   1.921
94558W        W55847   7.183   8.748  14.894
94559W        W55848   6.841  42.890  10.978
94560W        W55849  41.880   2.728   1.735
94561W        W55850  38.884  32.955  10.495
94562W        W55851  33.518  11.148  10.131
94563W        W55852   4.299  16.242   2.846
94564W        W55853  29.515  44.930  10.424
94565W        W55854  32.568   3.908   5.254
94566W        W55855   6.895  30.491   0.867
94567W        W55856  41.835  36.900   1.399
94568W        W55857  17.571  14.776   1.750
94569W        W55858  20.145  10.197  10.124
94570W        W55859  16.729  39.551  14.496
94571W        W55860   6.715  16.297   0.934
94572W        W55861  33.582  41.527  11.982
94573W        W55862  29.430  34.019  10.508
94574W        W55863   1.850  32.088   2.681
94575W        W55864   0.905  20.709  12.482
94576W        W55865  16.768  10.663  10.558
94577W        W55866  18.244  27.492  11.398
94578W        W55867  24.583  32.082   2.392
94579W        W55868  25.030  40.910  11.997
94580W        W55869   8.770  30.029   0.734
94581W        W55870   7.722   3.882  12.082
94582W        W55871  20.143  34.867  13.885
94583W        W55872   1.402  42.430   1.362
94584W        W55873  15.093  22.137  12.344
94585W        W55874  28.653  16.214   3.669
94586W        W55875  24.553  32.538  12.060
94587W        W55876  26.610  11.326  14.423
94588W        W55877  13.640  14.311   2.686
94589W        W55878   4.377  29.936  10.478
94590W        W55879  10.346  37.496   2.702
94591W        W55880   3.814  26.127  14.935
94592W        W55881  26.206  22.731   2.245
94593W        W55882  14.675   6.208   1.365
94594W        W55883  30.461   8.794   3.715
94595W        W55884  24.660  15.632  11.485
94596W        W55885  15.086  25.684   0.460
94597W        W55886  40.349   3.918  14.426
94598W        W55887   8.811   1.743  11.083
94599W        W55888  21.731   3.945  11.084
94600W        W55889   0.267   4.327   1.389
94601W        W55890   3.444  28.151   1.724
94602W        W55891   7.213   0.316   4.307
94603W        W55892  32.630  28.054   2.267
94604W        W55893  20.168   3.756   2.255
94605W        W55894   4.333  23.510   1.234
94606W        W55895   6.856  38.971   0.897
94607W        W55896  42.410   2.441   2.861
94608W        W55897  29.540  28.101  11.002
94609W        W55898  40.420   9.386  10.552
94610W        W55899  14.236  12.334   4.331
94611W        W55900  14.309  17.110  13.062
94612W        W55901  13.330   5.215  11.551
94613W        W55902  36.495   6.275   2.719
94614W        W55903   2.904  22.600   2.245
94615W        W55904  11.646  18.196   4.748
94616W        W55905   9.242  16.584  13.873
94617W        W55906   3.361   3.265  11.473
94618W        W55907  28.092  30.932  12.501
94619W        W55908   0.971   3.332  14.962
94620W        W55909  29.115  40.359  10.513
94621W        W55910  43.323   0.807  11.965
94622W        W55911  14.701  28.934   3.330
94623W        W55912   5.768   8.385   4.165
94624W        W55913  30.079  13.265  12.369
94625W        W55914   4.436   0.937   3.823
94626W        W55915  27.114  29.440   3.858
94627W        W55916   9.305  20.242   4.722
94628W        W55917   6.290  10.669  13.450
94629W        W55918   7.263  36.400  12.047
94630W        W55919  18.653   4.850   1.347
94631W        W55920  25.594  36.467   1.906
94632W        W55921  27.630  22.160   3.363
94633W        W55922  44.868  43.766   2.209
94634W        W55923   3.249   9.235   1.780
94635W        W55924  21.171  25.468  12.552
94636W        W55925  21.711  15.671   3.707
94637W        W55926   9.213  21.628   2.288
94638W        W55927  44.383  39.453   4.151
94639W        W55928  11.163   4.207   3.727
94640W        W55929  21.050  21.667  14.429
94641W        W55930   1.354  39.377   4.270
94642W        W55931  17.181  31.966  14.853
94643W        W55932   1.782   3.315  11.919
94644W        W55933  25.967   0.438  12.554
94645W        W55934  37.994  31.559  14.817
94646W        W55935  14.652  42.957  14.999
94647W        W55936  26.161  29.947  13.848
94648W        W55937   5.723  11.845  13.317
94649W        W55938  29.070  24.529   3.379
94650W        W55939   4.240  11.722  10.429
94651W        W55940  24.694  23.186   2.664
94652W        W55941  36.927  44.818   0.854
94653W        W55942  21.063  22.552   3.375
94654W        W55943  33.388  19.716  13.413
94655W        W55944  31.097   1.318  12.897
94656W        W55945  12.649  37.836  12.449
94657W        W55946  20.229  21.757  10.440
94658W        W55947  29.128  37.555  12.388
94659W        W55948   4.703  42.887   0.334
94660W        W55949  34.552  31.418   3.847
94661W        W55950  15.680  40.526   2.896
94662W        W55951  43.418  28.452  10.638
94663W        W55952  13.728  32.035   3.642
94664W        W55953  12.758  38.042  10.010
94665W        W55954  31.484   8.166  11.120
94666W        W55955  20.262   3.346  12.857
94667W        W55956  39.347  12.813   3.377
94668W        W55957  20.663  44.819  12.958
94669W        W55958  34.591  16.236   0.290
94670W        W55959  16.297  27.059   4.258
94671W        W55960  23.202  41.797  13.360
94672W        W55961  21.193  18.647   3.360
94673W        W55962  31.074  40.451   4.804
94674W        W55963   2.271  29.495  14.001
94675W        W55964  25.670  41.945  10.939
94676W        W55965  34.486  40.815   1.864
94677W        W55966  32.428   1.475  14.515
94678W        W55967  19.670  21.663   3.754
94679W        W55968  14.798   6.405  12.009
94680W        W55969  33.043  36.954   3.155
94681W        W55970  36.479  37.457   3.712
94682W        W55971  25.641   2.289  11.535
94683W        W55972   3.754  37.353  13.968
94684W        W55973  20.679   5.869   2.867
94685W        W55974   9.238  30.157  12.972
94686W        W55975  14.750   1.738   3.219
94687W        W55976   9.779   0.780   2.665
94688W        W55977  11.762  33.900  14.340
94689W        W55978  26.970  26.633   0.271
94690W        W55979  42.917  23.691   2.367
94691W        W55980  30.156  29.655   4.757
94692W        W55981  12.240  22.534  11.534
94693W        W55982   6.201  15.729  14.951
94694W        W55983  23.627  44.359  12.902
94695W        W55984  10.844  18.126  13.459
94696W        W55985  11.148   6.302   2.261
94697W        W55986  11.799  21.257   1.240
94698W        W55987  32.592  41.843   3.335
94699W        W55988  39.013  22.203   4.715
94700W        W55989  33.020   9.666  12.421
94701W        W55990  43.876  37.441   4.283
94702W        W55991   3.942  39.900  12.565
94703W        W55992   3.416  44.269  11.871
94704W        W55993  17.619  10.287   4.673
94705W        W55994  31.933   4.204  13.406
94706W        W55995   9.693  26.977   4.234
94707W        W55996   3.742  29.132   9.992
94708W        W55997  26.105  26.666   3.243
94709W        W55998  38.368  23.539  12.495
94710W        W55999  12.187  44.299   3.294
94711W        W56000   5.269  28.586  11.513
94712W        W56001  35.487   7.710  13.475
94713W        W56002  33.583   2.878   3.187
94714W        W56003  10.357  32.117  12.381
94715W        W56004  43.309  20.178   4.787
94716W        W56005  22.163  37.855  11.126
94717W        W56006  26.608   2.227  13.042
94718W        W56007   4.347   3.265  13.831
94719W        W56008   3.859  10.366  10.592
94720W        W56009  24.003  20.233  11.090
94721W        W56010  16.758  33.623   4.118
94722W        W56011  15.754  38.347  14.305
94723W        W56012  11.727  38.395   3.162
94724W        W56013   8.714  29.981  11.536
94725W        W56014  29.558  21.513  12.009
94726W        W56015   8.837  22.684   4.780
94727W        W56016  43.396  13.350   1.259
94728W        W56017  25.528  15.703  13.825
94729W        W56018  33.380  37.456   1.814
94730W        W56019  11.710  29.631  12.413
94731W        W56020  31.513  15.294   1.773
94732W        W56021  23.063  28.501  13.830
94733W        W56022  11.304   9.220  14.915
94734W        W56023  16.608  10.225  13.478
94735W        W56024  43.845  29.950   1.426
94736W        W56025  32.478  30.615  14.782
94737W        W56026  44.444  30.956  11.413
94738W        W56027  18.236  15.782  11.554
94739W        W56028  41.432  42.840   2.282
94740W        W56029   8.203  44.824   3.668
94741W        W56030  35.010  42.021  13.974
94742W        W56031  42.955  16.718  13.345
94743W        W56032  16.226   0.947  14.795
94744W        W56033   5.362  21.182  13.877
94745W        W56034  19.689  25.993  13.828
94746W        W56035   1.810  19.101  12.888
94747W        W56036  28.149  11.729   1.845
94748W        W56037  37.497  23.599   4.754
94749W        W56038   6.725   3.827   1.382
94750W        W56039  23.708  19.268  12.887
94751W        W56040   2.808  44.856  13.949
94752W        W56041  30.631   2.258  11.048
94753W        W56042  17.073  32.967   0.426
94754W        W56043  44.335  32.542   4.294
94755W        W56044  13.775  25.525  10.991
94756W        W56045  31.626  41.382  10.547
94757W        W56046  33.583  23.039  10.559
94758W        W56047  40.969  19.275   1.252
94759W        W56048  39.323  36.366   4.766
94760W        W56049  30.489  36.030   3.630
94761W        W56050  28.031  38.918  10.486
94762W        W56051  31.492   9.395   2.853
94763W        W56052  20.177  14.591  13.541
94764W        W56053  20.549  17.639   3.366
94765W        W56054  18.207  24.670   1.895
94766W        W56055  18.740   9.875  11.023
94767W        W56056  42.945  10.841  13.397
94768W        W56057  14.683   3.743  11.070
94769W        W56058  15.719  36.349   1.865
94770W        W56059   3.296  26.640  11.941
94771W        W56060   0.755  21.100  13.979
94772W        W56061  36.458  33.930   3.685
94773W        W56062  21.681  12.136   2.819
94774W        W56063  12.741   9.733  10.420
94775W        W56064  23.032  27.971   3.674
94776W        W56065   3.917  44.817  14.842
94777W        W56066  35.000  10.250  10.539
94778W        W56067  43.402  11.187  11.500
94779W        W56068   2.958  34.420   1.256
94780W        W56069  22.670  39.940  11.051
94781W        W56070  23.166  31.434   2.797
94782W        W56071   1.461  10.830   3.722
94783W        W56072   2.268   0.309   4.720
94784W        W56073  25.006  38.393  12.415
94785W        W56074  38.999  12.674  12.437
94786W        W56075  22.729   9.190  10.892
94787W        W56076  11.842  14.626   4.291
94788W        W56077  28.142   4.753  13.952
94789W        W56078  15.663   4.916   0.795
94790W        W56079  12.315  21.730   0.401
94791W        W56080  37.931   7.180  13.820
94792W        W56081  33.998  27.071   2.378
94793W        W56082  43.303  31.904   2.193
94794W        W56083  22.506  20.032   3.312
94795W        W56084  12.280  15.268   1.269
94796W        W56085  31.925  18.729  10.437
94797W        W56086  39.461  38.980  13.458
94798W        W56087  43.772  39.556  11.998
94799W        W56088  34.504  20.255  12.410
94800W        W56089  21.127  41.372   2.292
94801W        W56090   6.359  23.634   2.238
94802W        W56091  36.001   0.884  11.918
94803W        W56092  35.539  19.644   1.769
94804W        W56093  43.370  37.954  13.918
94805W        W56094  15.210  21.737   0.901
94806W        W56095  11.305  10.161   1.232
94807W        W56096  14.170   6.218   1.447
94808W        W56097  16.117  24.500   4.150
94809W        W56098   5.437  39.464  11.524
94810W        W56099   6.247  21.512  12.982
94811W        W56100   4.305  40.336   1.338
94812W        W56101  17.221  12.323  10.572
94813W        W56102   2.354   8.208   2.779
94814W        W56103  31.088  23.019  12.922
94815W        W56104  24.144  14.831   3.377
94816W        W56105   9.843   8.225  14.013
94817W        W56106   8.868  37.394   0.414
94818W        W56107  37.021  41.441   3.379
94819W        W56108  35.375   1.298  10.487
94820W        W56109   9.654  29.940  12.379
94821W        W56110  12.843  24.022  12.913
94822W        W56111  20.670  20.051  11.978
94823W        W56112  20.621   1.297   4.209
94824W        W56113  41.920  33.078   1.883
94825W        W56114  21.262  26.496   4.308
94826W        W56115  12.124  23.553   2.294
94827W        W56116  15.753  42.449   3.641
94828W        W56117  38.537  36.970   4.311
94829W        W56118  14.300  31.557  11.511
94830W        W56119   4.265  10.639   2.702
94831W        W56120  28.966   3.867  12.074
94832W        W56121  21.115  14.149   0.818
94833W        W56122  31.956  33.469  10.584
94834W        W56123  42.492  39.920  14.838
94835W        W56124  15.109  23.498   3.729
94836W        W56125  34.552   5.905   2.263
94837W        W56126   5.708  28.021   2.259
94838W        W56127   4.779  25.676  10.987
94839W        W56128  24.713  35.897   2.342
94840W        W56129  22.013  23.681  11.042
94841W        W56130  32.083   7.687   3.756
94842W        W56131   3.813  17.773   3.660
94843W        W56132  40.389  26.647  14.951
94844W        W56133   8.730  37.039   0.409
94845W        W56134  28.026  43.982  10.123
94846W        W56135  18.753  43.946  14.797
94847W        W56136  27.017  22.140   3.381
94848W        W56137  18.671   9.749  11.449
94849W        W56138  14.209  14.725  11.553
94850W        W56139  16.596  34.586  11.442
94851W        W56140  29.646   2.937   2.284
94852W        W56141   6.360  41.021   4.192
94853W        W56142  17.282  13.222  10.454
94854W        W56143  25.608  34.605  10.458
94855W        W56144  19.104  13.250  12.408
94856W        W56145   8.249  20.680   2.196
94857W        W56146   3.933  32.485   3.833
94858W        W56147  11.709  15.731   0.911
94859W        W56148  29.451   5.201  12.546
94860W        W56149  14.200  16.585   0.729
94861W        W56150   2.727  37.541  10.928
94862W        W56151  42.894  42.381  13.965
94863W        W56152  26.011   3.344   1.260
94864W        W56153  29.590  43.890   1.708
94865W        W56154  31.120  37.398  13.052
94866W        W56155  41.015  21.064   3.302
94867W        W56156  39.463  15.206  12.554
94868W        W56157  44.987  16.225   2.371
94869W        W56158  41.884  44.940  12.442
94870W        W56159   2.328  26.491   1.930
94871W        W56160   8.190  23.674   3.270
94872W        W56161   9.865   8.705  13.010
94873W        W56162  31.966  12.290   0.819
94874W        W56163  25.048   8.205  11.536
94875W        W56164   4.712   4.281  12.080
94876W        W56165  41.530  26.009   3.222
94877W        W56166  33.432   1.475  11.904
94878W        W56167  13.675   4.832  11.082
94879W        W56168   9.829  32.139  12.030
94880W        W56169  24.066  25.962   2.830
94881W        W56170   4.708  14.642   1.391
94882W        W56171  43.479   2.270  14.765
94883W        W56172  24.626  20.129   1.854
94884W        W56173  27.657  31.966  12.380
94885W        W56174  22.159  23.497  14.830
94886W        W56175  41.917  43.769   1.903
94887W        W56176  19.087  17.692  11.005
94888W        W56177  43.457   8.766   0.874
94889W        W56178  33.549   1.471   4.628
94890W        W56179   0.816   0.279  14.007
94891W        W56180  17.716   1.753  13.029
94892W        W56181  10.799  10.152  14.903
94893W        W56182  25.674  41.019   1.384
94894W        W56183  11.769  20.648   1.738
94895W        W56184  32.051  10.800  10.474
94896W        W56185  41.426   2.271   0.792
94897W        W56186  28.502  39.862  14.463
94898W        W56187  16.222   0.748   0.363
94899W        W56188  43.358   3.352   2.826
94900W        W56189  16.741   9.842  12.950
94901W        W56190  43.441  30.472  12.427
94902W        W56191   0.467  18.107  14.777
94903W        W56192  35.470   8.676   2.193
94904W        W56193  21.145  11.705   1.728
94905W        W56194   0.744   5.916  11.099
94906W        W56195  18.624  30.159   2.757
94907W        W56196   2.281  34.907   3.758
94908W        W56197   5.353  16.637  14.995
94909W        W56198  40.434  39.399  11.902
94910W        W56199  26.079  39.899   0.769
94911W        W56200   1.961  23.528   3.687
94912W        W56201  28.582   7.839   5.140
94913W        W56202  31.015  36.358   2.864
94914W        W56203  17.258  34.874  11.447
94915W        W56204  18.690  35.435   4.334
94916W        W56205   6.681  14.776  14.363
94917W        W56206  29.512  11.281  13.383
94918W        W56207   0.898  38.822  14.278
94919W        W56208  11.852  14.781  10.506
94920W        W56209  25.622  20.583  11.566
94921W        W56210  16.220  13.627  10.410
94922W        W56211  30.117  17.650   2.797
94923W        W56212   4.280  37.493   3.663
94924W        W56213  42.508  28.050  11.465
94925W        W56214  17.105   5.737  13.409
94926W        W56215   7.362  25.110  13.971
94927W        W56216   7.345  10.707  12.838
94928W        W56217  14.644  42.295   4.228
94929W        W56218   3.811  37.007  11.463
94930W        W56219  17.106   5.278   1.438
94931W        W56220  43.835   4.247   4.299
94932W        W56221  39.344   1.950   1.315
94933W        W56222   1.294  42.780   0.386
94934W        W56223   2.373  13.234   3.301
94935W        W56224   1.964   9.731  12.893
94936W        W56225  37.384  19.222   0.303
94937W        W56226  44.819   6.704   0.893
94938W        W56227  39.026  31.555   9.977
94939W        W56228   7.836  29.467  14.347
94940W        W56229   1.880  41.337   0.285
94941W        W56230  11.705   2.914  13.424
94942W        W56231   7.290  11.141   1.261
94943W        W56232  11.862  17.062  11.957
94944W        W56233   0.464  29.621  13.313
94945W        W56234  11.859  16.639   4.183
94946W        W56235   9.815  22.506   4.751
94947W        W56236  15.234  12.757  12.375
94948W        W56237  34.539  40.933  11.576
94949W        W56238  28.066  36.004   3.663
94950W        W56239  40.312  35.903  14.364
94951W        W56240  36.898  23.505  11.493
94952W        W56241  32.015   4.359  14.883
94953W        W56242  30.467  20.150   3.298
94954W        W56243  11.834  35.996   5.225
94955W        W56244  14.104  36.004   4.343
94956W        W56245   5.747  31.580  14.455
94957W        W56246  33.901  28.101   3.647
94958W        W56247   4.264   9.246  14.959
94959W        W56248  23.644   4.754   2.371
94960W        W56249  31.078   8.350   1.887
94961W        W56250  36.363  35.082  13.800
94962W        W56251   3.318  21.219   0.792
94963W        W56252  17.745   1.474   3.203
94964W        W56253  28.593   3.920  12.559
94965W        W56254  18.067  30.123  12.493
94966W        W56255  43.972  27.544  13.844
94967W        W56256   9.385  32.020   5.174
94968W        W56257  23.217  26.682  10.523
94969W        W56258  15.591  41.902   1.840
94970W        W56259  38.503   7.225   1.814
94971W        W56260  28.988  19.676  13.959
94972W        W56261  23.105  35.038   3.176
94973W        W56262   7.731   3.392  13.395
94974W        W56263  16.627  16.623  12.990
94975W        W56264  13.273  21.023   1.318
94976W        W56265  13.703  41.383  14.875
94977W        W56266  36.973  41.517  11.913
94978W        W56267  13.619  17.179   2.322
94979W        W56268   1.405  30.986   0.730
94980W        W56269  10.179  16.165   0.304
94981W        W56270  19.053  14.323  10.644
94982W        W56271  30.017  39.528   2.758
94983W        W56272  38.938  28.015   5.159
94984W        W56273  28.528  24.986   1.338
94985W        W56274  20.122  32.944   2.288
94986W        W56275  27.050   8.832  10.504
94987W        W56276  11.344  42.458  10.408
94988W        W56277  23.118  26.512   1.218
94989W        W56278  37.950   0.871  10.521
94990W        W56279  43.977  33.500   3.330
94991W        W56280  14.727  43.871   0.358
94992W        W56281  34.081  12.823  12.078
94993W        W56282  28.527  27.532   1.221
94994W        W56283  21.738  19.703   3.653
94995W        W56284  22.539  39.454   3.268
94996W        W56285  22.613  34.442   4.206
94997W        W56286  11.134  31.404   3.702
94998W        W56287  11.344  10.803   4.695
94999W        W56288  25.547   0.359  14.904
95000W        W56289  29.657   7.751   2.393
95001W        W56290  36.347  32.409   2.863
95002W        W56291  38.069  13.237  10.618
95003W        W56292  43.929  42.986   1.831
95004W        W56293  16.718  42.794   0.847
95005W        W56294  20.208  20.265   4.115
95006W        W56295  31.134  18.084   3.312
95007W        W56296   1.865  35.586  14.299
95008W        W56297  29.996   8.372   2.376
95009W        W56298  27.087  38.970   3.356
95010W        W56299  31.598  40.511  14.322
95011W        W56300   7.359  13.164   1.244
95012W        W56301  19.703  23.073   1.839
95013W        W56302   2.429   5.278  11.960
95014W        W56303  10.754  20.079   0.759
95015W        W56304  23.195  30.054  13.446
95016W        W56305  18.064  44.894  12.031
95017W        W56306  13.802  10.770   4.208
95018W        W56307   3.825  35.416  13.444
95019W        W56308  36.574  17.148   3.294
95020W        W56309  29.429  11.141  11.088
95021W        W56310  39.018  29.517   5.310
95022W        W56311   9.213   2.414   3.826
95023W        W56312  29.013  30.603   2.374
95024W        W56313  43.465  42.385  12.013
95025W        W56314  10.738  12.624   4.804
95026W        W56315   9.701  42.968   4.647
95027W        W56316   1.959  21.263   4.610
95028W        W56317  44.291   9.266   1.780
95029W        W56318  26.207  14.709   1.726
95030W        W56319  15.594  42.976   1.241
95031W        W56320  25.561  39.426  13.048
95032W        W56321  28.595  12.169   2.353
95033W        W56322  42.424   6.840   4.353
95034W        W56323  18.060  17.213   0.484
95035W        W56324  29.621  20.755   2.670
95036W        W56325  41.808  40.464   4.825
95037W        W56326  10.681  31.971  12.408
95038W        W56327  34.603  10.645  14.780
95039W        W56328  41.027  26.104  11.376
95040W        W56329  33.583  18.665   0.920
95041W        W56330  26.675  14.646   1.781
95042W        W56331   4.879  11.232  13.452
95043W        W56332  10.141  24.178  14.845
95044W        W56333  10.771  35.394  13.393
95045W        W56334  35.014  26.048   2.696
95046W        W56335  15.773   8.730   1.741
95047W        W56336   6.796  42.932  13.916
95048W        W56337  24.985   6.342  14.396
95049W        W56338  30.910  11.314   3.314
95050W        W56339  16.755  41.949  12.028
95051W        W56340  19.590  24.212  10.629
95052W        W56341  21.722  20.554   4.178
95053W        W56342  21.751  13.780  13.480
95054W        W56343  22.619  30.117  11.110
95055W        W56344  12.214  20.119   9.444
95056W        W56345   8.801  23.211  11.030
95057W        W56346  20.152  41.988   2.713
95058W        W56347   3.403  34.380   3.381
95059W        W56348  32.575  36.404   4.666
95060W        W56349  30.477  32.606   4.726
95061W        W56350  40.426  43.349   2.234
95062W        W56351   6.899   6.333   0.883
95063W        W56352   1.463  22.079  11.960
95064W        W56353  18.591  20.644  11.535
95065W        W56354   3.428  40.472   3.305
95066W        W56355  40.937  23.136  10.983
95067W        W56356   5.240  34.584   4.658
95068W        W56357   7.306  10.221   5.177
95069W        W56358  20.168   7.905   5.157
95070W        W56359   9.693  31.500   5.787
95071W        W56360  31.976  11.741  11.373
95072W        W56361   3.459  31.488   3.232
95073W        W56362   2.790  41.486  11.008
95074W        W56363  13.794  11.740  14.875
95075W        W56364   5.341   6.344   2.740
95076W        W56365  12.616  24.994   4.615
95077W        W56366  15.632  14.112   1.446
95078W        W56367  36.841  13.650  14.436
95079W        W56368  19.284  19.652  14.963
95080W        W56369  26.969  23.124  10.554
95081W        W56370  19.622  19.694   1.749
95082W        W56371  15.121  38.936   4.696
95083W        W56372   8.697   1.242   0.826
95084W        W56373  15.792  10.193   1.417
95085W        W56374  41.927   8.839   0.323
95086W        W56375   3.418   0.398  10.517
95087W        W56376  36.892  22.055   4.234
95088W        W56377   9.747  25.968   3.688
95089W        W56378  14.618   9.755  14.440
95090W        W56379  41.988   8.166  14.944
95091W        W56380  25.032  23.175  13.832
95092W        W56381  10.694  38.840  14.288
95093W        W56382  38.364  17.136  14.355
95094W        W56383  22.090   5.921   0.803
95095W        W56384  20.030  14.214  14.843
95096W        W56385  21.627  17.209  12.488
95097W        W56386   5.364  43.352  12.408
95098W        W56387  15.217  32.025  10.115
95099W        W56388  28.114  42.428   0.841
95100W        W56389  11.232   9.812  10.965
95101W        W56390  44.755  11.221  12.428
95102W        W56391  24.666  11.684  10.956
95103W        W56392  36.848  26.604  13.485
95104W        W56393  33.040  14.682  10.897
95105W        W56394  29.539  35.052   1.715
95106W        W56395  22.062  34.487   2.807
95107W        W56396  16.605  13.692  13.964
95108W        W56397   8.772  44.957  13.971
95109W        W56398  33.954  35.107   2.338
95110W        W56399  10.685  31.407  12.469
95111W        W56400  29.653  24.646  11.945
95112W        W56401  26.617  40.373   4.794
95113W        W56402   0.257   8.696   1.272
95114W        W56403  41.389  33.914   3.729
95115W        W56404  31.091  14.745   3.173
95116W        W56405  27.009  42.809  12.564
95117W        W56406  18.177  40.394  13.388
95118W        W56407  40.467  16.598  11.974
95119W        W56408  13.264  36.034   2.765
95120W        W56409  34.006  27.023  11.544
95121W        W56410  21.217  11.706   4.675
95122W        W56411  42.507   2.265  13.358
95123W        W56412   2.737  32.585   4.643
95124W        W56413  19.695  15.285   0.301
95125W        W56414  30.613  39.549  11.958
95126W        W56415  16.720  43.512   0.288
95127W        W56416  22.173  11.685  11.037
95128W        W56417  19.668  26.970   3.721
95129W        W56418   9.340  42.978   4.699
95130W        W56419   9.719  19.134   4.290
95131W        W56420  27.091   2.437  10.897
95132W        W56421  26.044  13.284   1.394
95133W        W56422  30.104  32.105   0.952
95134W        W56423  32.084  23.661  12.359
95135W        W56424  21.249  31.082   3.343
95136W        W56425  27.006  29.093  13.983
95137W        W56426  37.530   4.910  13.346
95138W        W56427  11.151  44.920  12.478
95139W        W56428  37.383  33.427  11.902
95140W        W56429   3.414  14.270  14.031
95141W        W56430  24.564  37.533   4.660
95142W        W56431  22.694  22.148  13.490
95143W        W56432  43.402  10.322  11.935
95144W        W56433   0.853  10.206   0.410
95145W        W56434   3.921   8.379   2.667
95146W        W56435  10.769  21.549   0.794
95147W        W56436  15.309  14.619  12.055
95148W        W56437  12.304  12.752  11.984
95149W        W56438  19.126  12.748  10.998
95150W        W56439  23.627  40.359   3.291
95151W        W56440  38.052  20.763   1.294
95152W        W56441  31.575   8.315  14.345
95153W        W56442   4.808  32.582   1.710
95154W        W56443  44.442   7.215   1.888
95155W        W56444  21.185  24.128  11.972
95156W        W56445  27.516  15.104   2.803
95157W        W56446  28.562  40.843  11.999
95158W        W56447  16.160  14.737  10.518
95159W        W56448  33.468  36.931   3.778
95160W        W56449  10.753  44.826   9.980
95161W        W56450  19.073   1.287   1.784
95162W        W56451   0.261  10.198  13.418
95163W        W56452  19.559   0.281   3.755
95164W        W56453   9.722  20.642  12.093
95165W        W56454  18.113   0.355  13.988
95166W        W56455   2.251  19.639  10.041
95167W        W56456  36.574  16.085  11.943
95168W        W56457  11.264  15.579  10.968
95169W        W56458  23.614   9.251  12.927
95170W        W56459  26.119  30.605   0.889
95171W        W56460  15.751  15.782  12.003
95172W        W56461   8.202  34.921   2.876
95173W        W56462  25.164  25.994   4.622
95174W        W56463  26.602  21.165   2.753
95175W        W56464  20.614  10.732  10.503
95176W        W56465  11.664  25.994   1.842
95177W        W56466   5.366  43.834   3.260
95178W        W56467  19.568  38.392  14.459
95179W        W56468  19.156  22.138  14.371
95180W        W56469  24.185  36.986   4.669
95181W        W56470  15.236  23.566   5.104
95182W        W56471  21.094  34.391   2.769
95183W        W56472  31.428  31.942   5.225
95184W        W56473   3.827   0.754   2.196
95185W        W56474  34.497  30.913   0.445
95186W        W56475  10.245  35.900  11.392
95187W        W56476  19.194   3.377  13.848
95188W        W56477   1.944  34.566   1.717
95189W        W56478  34.035  31.518   2.848
95190W        W56479  38.439   8.250  10.486
95191W        W56480   4.276  43.869   3.632
95192W        W56481  44.490  21.046  12.829
95193W        W56482  23.167   4.888   3.205
95194W        W56483   5.869   2.368   0.313
95195W        W56484  16.287  44.289   2.302
95196W        W56485  10.859  32.569  14.978
95197W        W56486  34.388  27.024   2.187
95198W        W56487   8.901  10.223   1.285
95199W        W56488   0.986  26.048   3.337
95200W        W56489   3.412  27.496   3.664
95201W        W56490  19.279  20.170   0.917
95202W        W56491  11.155  43.787   4.598
95203W        W56492  37.046  29.109   0.364
95204W        W56493  29.527   2.735   3.285
95205W        W56494  12.170  10.677  10.459
95206W        W56495  15.228   8.731   3.849
95207W        W56496  37.949  19.546   1.420
95208W        W56497  28.668  38.048   2.238
95209W        W56498  39.361  27.086  10.545
95210W        W56499  29.647  25.596  10.590
95211W        W56500   7.904  11.790  13.964
95212W        W56501  30.512  41.871  10.437
95213W        W56502  11.744   3.425   1.335
95214W        W56503  44.853  39.902  12.448
95215W        W56504   1.827  23.583  11.941
95216W        W56505  30.482  23.595   1.385
95217W        W56506  21.519  42.017  13.991
95218W        W56507   5.243  33.408  10.538
95219W        W56508  35.364  36.915   0.931
95220W        W56509   6.331  16.581   2.718
95221W        W56510  19.045   3.826   0.878
95222W        W56511  28.974  13.768   4.279
95223W        W56512  32.551   0.930   4.162
95224W        W56513  34.485   0.317   2.348
95225W        W56514  27.677  38.381   4.322
95226W        W56515  29.938  13.668  14.789
95227W        W56516  19.235  24.643   2.790
95228W        W56517   5.840  24.665   2.741
95229W        W56518  44.491  20.693  14.945
95230W        W56519  44.812  34.451  13.313
95231W        W56520  17.086  32.433  13.853
95232W        W56521  26.138   9.657  14.904
95233W        W56522  33.123   5.282  11.006
95234W        W56523  25.144  44.874  14.401
95235W        W56524  19.056  32.130   3.852
95236W        W56525  28.986  32.142  12.872
95237W        W56526  27.476  21.656   1.772
95238W        W56527  40.303  27.079  11.876
95239W        W56528  13.287  10.221   1.232
95240W        W56529  42.324  39.048   2.253
95241W        W56530  29.985  33.996   4.812
95242W        W56531  36.520   1.913  10.492
95243W        W56532   3.931   8.727   2.397
95244W        W56533  18.272   1.351  10.512
95245W        W56534   2.412  44.337  13.886
95246W        W56535   9.797  27.124   3.713
95247W        W56536  32.591  10.822   2.692
95248W        W56537   4.823  42.509  14.933
95249W        W56538  24.120  17.718   4.151
95250W        W56539   6.286  16.788   3.729
95251W        W56540  27.551  17.136  13.500
95252W        W56541  15.617  23.554  13.964
95253W        W56542  27.969   6.362  11.884
95254W        W56543  41.951  35.366  12.463
95255W        W56544  43.898   8.378   1.823
95256W        W56545  44.764  12.841  14.991
95257W        W56546  37.542  16.790  14.956
95258W        W56547  39.491  39.452  13.818
95259W        W56548   3.457   7.228  13.792
95260W        W56549   9.652  12.248   3.681
95261W        W56550  42.804   2.314  10.551
95262W        W56551   1.944  28.072   1.376
95263W        W56552  28.131   4.392  10.977
95264W        W56553  27.501   4.831   3.759
95265W        W56554  32.962  22.647  11.465
95266W        W56555  43.337  11.740   3.175
95267W        W56556  36.522  31.920   1.716
95268W        W56557  38.546  10.351   0.786
95269W        W56558  11.767  25.045   3.316
95270W        W56559  41.910   1.375   4.181
95271W        W56560  31.087   4.862  14.820
95272W        W56561  15.314  37.508   3.770
95273W        W56562  44.341  10.688  12.883
95274W        W56563  21.253  21.108  11.111
95275W        W56564  15.216  23.191  14.867
95276W        W56565  30.461   2.740  12.885
95277W        W56566  19.681  42.784   0.765
95278W        W56567  25.078   3.719  12.496
95279W        W56568  12.631  43.393   4.820
95280W        W56569   3.772  14.340  13.438
95281W        W56570   0.417  36.486   2.286
95282W        W56571   9.241  27.163  11.549
95283W        W56572   0.397  21.233   4.281
95284W        W56573  26.095  17.702  13.979
95285W        W56574  27.157  43.992  12.450
95286W        W56575  10.264  11.744   2.199
95287W        W56576  36.557   4.300  12.027
95288W        W56577  30.049  29.563   1.920
95289W        W56578  34.460  16.657  12.933
95290W        W56579  15.794  41.480   9.926
95291W        W56580  41.383  13.757  14.338
95292W        W56581  31.592  11.699   4.333
95293W        W56582  43.380  34.943  10.137
95294W        W56583  30.520  29.074   1.806
95295W        W56584  26.112  18.771  13.047
95296W        W56585  32.542  36.371   4.174
95297W        W56586  35.419  40.307   2.854
95298W        W56587  42.430   6.415   4.313
95299W        W56588  26.611  19.618  14.464
95300W        W56589  16.278  15.273  13.978
95301W        W56590  14.315  11.751   1.327
95302W        W56591  26.534   7.872  13.815
95303W        W56592   4.887  33.973   2.236
95304W        W56593  40.920  12.178  11.120
95305W        W56594  26.611  37.048   0.858
95306W        W56595  40.837   2.447  13.375
95307W        W56596   9.845   1.861   2.741
95308W        W56597  32.568   7.232   1.715
95309W        W56598  25.549  17.665  11.915
95310W        W56599  43.996  41.457  10.543
95311W        W56600  31.403  22.186  11.031
95312W        W56601  38.476  41.008  14.776
95313W        W56602  33.981  29.987  12.520
95314W        W56603  37.386   2.791   0.315
95315W        W56604  26.121  30.579   1.696
95316W        W56605  20.044  27.054  14.015
95317W        W56606   1.831  27.455   1.932
95318W        W56607  21.247  43.361   3.798
95319W        W56608   6.704  34.542   3.159
95320W        W56609  13.696  39.987   1.241
95321W        W56610  15.709  26.695   9.942
95322W        W56611  40.323   9.859   0.469
95323W        W56612  10.152  33.117  13.420
95324W        W56613  35.509   3.717  12.506
95325W        W56614  18.238   7.852   4.259
95326W        W56615  35.027   6.709  13.934
95327W        W56616   1.855  38.036  12.540
95328W        W56617  44.856  37.561  14.808
95329W        W56618  35.941  36.860   3.189
95330W        W56619  30.481  34.956   1.225
95331W        W56620   3.332   4.785   2.194
95332W        W56621  40.011  39.548  11.946
95333W        W56622  20.620  16.242   0.469
95334W        W56623  23.579  33.484  14.409
95335W        W56624  22.740  36.048   5.128
95336W        W56625  10.788   1.425   2.211
95337W        W56626  15.126  34.470   1.880
95338W        W56627  37.518  39.441   4.639
95339W        W56628  28.012   6.227   5.154
95340W        W56629  35.551  38.489  12.470
95341W        W56630   5.250  18.630   3.689
95342W        W56631  20.158  14.760  11.571
95343W        W56632  31.404  33.946   1.281
95344W        W56633  40.825   7.799  14.458
95345W        W56634  13.822  18.754  11.857
95346W        W56635  24.649  19.134  12.986
95347W        W56636  18.551  35.962  13.489
95348W        W56637   9.808  26.505  13.374
95349W        W56638  25.632  17.579  10.950
95350W        W56639  29.522  21.053  13.806
95351W        W56640  26.623  32.131  12.827
95352W        W56641  24.501  36.462  12.425
95353W        W56642   7.787  11.718   4.601
95354W        W56643   7.182  10.179   0.432
95355W        W56644  33.064   4.407   5.680
95356W        W56645   8.848  34.907  13.050
95357W        W56646  32.052  39.503   0.354
95358W        W56647  35.865  26.503   2.873
95359W        W56648  41.903  35.447   3.763
95360W        W56649  31.945  35.077  10.615
95361W        W56650  36.909  21.076   0.415
95362W        W56651   1.468   4.375  12.863
95363W        W56652  18.139  12.220  11.399
95364W        W56653  34.539  12.153  14.899
95365W        W56654  31.563  44.922   0.884
95366W        W56655  36.013  24.655   4.153
95367W        W56656  41.868  30.959   2.353
95368W        W56657  19.720  27.596   3.373
95369W        W56658  20.076  15.795   3.856
95370W        W56659  22.212  36.507  13.003
95371W        W56660   3.819   7.273   1.909
95372W        W56661   6.216  22.658   4.168
95373W        W56662  18.208   5.924  14.417
95374W        W56663  16.657   5.827   2.663
95375W        W56664  16.689  14.761   4.152
95376W        W56665  42.990   2.442   3.651
95377W        W56666  31.104   4.782   4.713
95378W        W56667  12.611  41.497  12.063
95379W        W56668  34.484  31.953   0.432
95380W        W56669  32.007  29.119   0.427
95381W        W56670   5.824  12.758  14.849
95382W        W56671  11.649  43.296  11.081
95383W        W56672  37.531  16.744   0.815
95384W        W56673  12.237  29.426   4.284
95385W        W56674  13.186  33.471   3.657
95386W        W56675  25.042   9.158  13.330
95387W        W56676  28.606  27.625  10.497
95388W        W56677  35.569  22.093   4.765
95389W        W56678  15.278  26.988  12.439
95390W        W56679  17.764  41.904  10.932
95391W        W56680  39.550  24.077   1.422
95392W        W56681  13.773  34.574   2.836
95393W        W56682  39.818   9.157  12.933
95394W        W56683  36.525  21.066  13.993
95395W        W56684  11.799  10.656   2.303
95396W        W56685  14.211   5.852   1.424
95397W        W56686  39.530  22.562  13.329
95398W        W56687   7.329   5.353  12.580
95399W        W56688  42.315  20.053  12.883
95400W        W56689  22.216  42.861  14.973
95401W        W56690  11.718  14.153  14.492
95402W        W56691  33.051   0.965   5.125
95403W        W56692  12.230  11.222  10.536
95404W        W56693  27.601  21.245  11.994
95405W        W56694  13.206  26.151  14.936
95406W        W56695  25.123  10.182  11.569
95407W        W56696  20.064  29.561   0.837
95408W        W56697   3.793  13.225   1.218
95409W        W56698  30.442  34.489  10.575
95410W        W56699  43.840   1.287  14.378
95411W        W56700  21.618  25.476   2.679
95412W        W56701  26.598  27.564  13.042
95413W        W56702  38.439  29.625  12.927
95414W        W56703  31.957  21.566  11.581
95415W        W56704  21.712  30.986   1.325
95416W        W56705  27.080  28.632   1.225
95417W        W56706  11.692  23.007   1.299
95418W        W56707  35.588  23.609   1.397
95419W        W56708  34.612  41.388   4.155
95420W        W56709   9.312  15.716  12.518
95421W        W56710   1.241  24.161  14.847
95422W        W56711  22.665  13.745  13.468
95423W        W56712   5.694  11.247  14.993
95424W        W56713   9.867   2.346  13.839
95425W        W56714  32.931  13.312  10.948
95426W        W56715  12.244   8.674  11.981
95427W        W56716  20.156   4.289   2.864
95428W        W56717  44.888  11.690   0.354
95429W        W56718   6.395  29.472   0.269
95430W        W56719  24.492   6.342  11.469
95431W        W56720  23.622  29.509   2.266
95432W        W56721  43.941  40.428  12.518
95433W        W56722  36.489  33.009   0.855
95434W        W56723  33.109  16.234  11.612
95435W        W56724  11.695  35.962  13.029
95436W        W56725  36.427  39.867  12.929
95437W        W56726  12.784  31.088  14.307
95438W        W56727  29.655  14.605  13.518
95439W        W56728  21.647  36.422   0.962
95440W        W56729  39.326  23.991  14.500
95441W        W56730  13.274  42.458   1.283
95442W        W56731  27.026  44.921  14.387
95443W        W56732  29.074  33.969   0.280
95444W        W56733  28.578  16.126   4.733
95445W        W56734  15.137   6.829   3.245
95446W        W56735  41.293  44.897  11.502
95447W        W56736   7.833   1.809  14.488
95448W        W56737   1.361  11.138   1.346
95449W        W56738   5.693  14.639   0.899
95450W        W56739   6.240  40.035  13.328
95451W        W56740  32.097  10.875  14.769
95452W        W56741  39.036   7.360   3.315
95453W        W56742  20.551  36.505  11.113
95454W        W56743  25.593   8.205   3.217
95455W        W56744   1.358  24.193   1.322
95456W        W56745  18.598  18.241   4.175
95457W        W56746  12.710  37.921  12.001
95458W        W56747  34.600   0.439  14.402
95459W        W56748  28.598   0.875   0.752
95460W        W56749  40.998   1.396  10.459
95461W        W56750   6.702  15.121   0.355
95462W        W56751   7.672  18.142  13.427
95463W        W56752   7.677   1.432  10.432
95464W        W56753  39.016  15.594  13.374
95465W        W56754  10.269  22.031  11.380
95466W        W56755  34.483  15.237  13.794
95467W        W56756  40.885  29.171   0.400
95468W        W56757  43.793  29.582   2.361
95469W        W56758  10.194  30.022  13.497
95470W        W56759  34.374  15.777  13.503
95471W        W56760   1.858  12.358  11.122
95472W        W56761  31.433  15.183  13.534
95473W        W56762  41.039  24.548  12.405
95474W        W56763  13.644  42.512   2.307
95475W        W56764  18.695  23.050   4.658
95476W        W56765  20.695  32.977   2.304
95477W        W56766  32.141  10.375   1.874
95478W        W56767  42.787  42.314  11.032
95479W        W56768  30.583   1.962  13.871
95480W        W56769  24.188   9.668  10.475
95481W        W56770  13.169   1.860   0.806
95482W        W56771  31.583  38.065  10.540
95483W        W56772  10.353  24.227  12.029
95484W        W56773   3.351  43.442   2.900
95485W        W56774  34.022  32.970  10.473
95486W        W56775  12.150  10.144  10.911
95487W        W56776  19.268   2.749   2.363
95488W        W56777  34.513  16.165   1.782
95489W        W56778  13.299   7.399  10.894
95490W        W56779  43.840  38.044   0.950
95491W        W56780   7.677  36.436  14.993
95492W        W56781   0.824  32.408   2.221
95493W        W56782   3.822  19.591  13.852
95494W        W56783  22.128  28.438  13.966
95495W        W56784  13.778   5.846   0.795
95496W        W56785  38.868  30.431  11.501
95497W        W56786  16.569  21.710  12.023
95498W        W56787  26.696   6.920  12.899
95499W        W56788  34.422  20.739  11.048
95500W        W56789  20.115  34.391  10.915
95501W        W56790  19.701  20.649   3.221
95502W        W56791   3.439   4.908   4.275
95503W        W56792  33.910  19.147  14.982
95504W        W56793  32.969   6.853  10.059
95505W        W56794  28.598   3.776  10.891
95506W        W56795  42.948  18.700   4.817
95507W        W56796  23.715  42.791  14.827
95508W        W56797  21.211  42.002  10.478
95509W        W56798   7.296  35.855   2.752
95510W        W56799  18.567  14.222  12.575
95511W        W56800  21.061   4.225   0.270
95512W        W56801  42.320  15.178   4.766
95513W        W56802  23.072  20.133  11.012
95514W        W56803   6.369   9.221   4.335
95515W        W56804  17.130  26.158  10.475
95516W        W56805  43.957   1.774  10.408
95517W        W56806   0.988  11.223  13.481
95518W        W56807   9.871  20.724   4.191
95519W        W56808  13.307  24.690  12.500
95520W        W56809  12.187  24.566  13.027
95521W        W56810  40.935  33.879  11.006
95522W        W56811  28.158  40.477   1.710
95523W        W56812  25.994  38.357  14.769
95524W        W56813  39.352  29.006  11.022
95525W        W56814  20.659  25.597  11.938
95526W        W56815  28.048   4.284   9.981
95527W        W56816  14.690   6.243   4.801
95528W        W56817  16.597  15.644  14.310
95529W        W56818   3.782   6.336   4.601
95530W        W56819   0.484  24.601  10.506
95531W        W56820   0.384  41.363   4.239
95532W        W56821  38.513  25.184  12.906
95533W        W56822  13.262  44.391   3.748
95534W        W56823  21.615  33.129  14.472
95535W        W56824  37.989  26.561  10.033
95536W        W56825  33.554  13.213   2.330
95537W        W56826  30.085  43.948   4.281
95538W        W56827  12.268  44.870  13.496
95539W        W56828  19.101  28.969  11.859
95540W        W56829   9.792   7.245   4.731
95541W        W56830   7.907   8.698   4.762
95542W        W56831  21.248  36.381   0.808
95543W        W56832  35.496   8.263  13.014
95544W        W56833   0.494  27.456   4.729
95545W        W56834  30.983  14.801  14.281
95546W        W56835  34.551  23.736  12.077
95547W        W56836   0.333  19.594  13.368
95548W        W56837  22.546   1.832   0.800
95549W        W56838   7.794  35.860  14.912
95550W        W56839  29.070   9.747   4.714
95551W        W56840  29.664   9.360   1.414
95552W        W56841   4.735   0.851  14.482
95553W        W56842   9.703  17.299  11.596
95554W        W56843   4.775  31.066   2.850
95555W        W56844  35.456  30.907   2.305
95556W        W56845  11.327   1.944   2.207
95557W        W56846  15.763  15.193   2.249
95558W        W56847   8.321   7.342   2.758
95559W        W56848  14.251  11.325   0.310
95560W        W56849  14.109  15.625  10.083
95561W        W56850   1.298  11.633  13.546
95562W        W56851  32.400  28.572   2.681
95563W        W56852  28.017  14.624  14.291
95564W        W56853   1.312  31.906   4.330
95565W        W56854  10.652  27.185  14.422
95566W        W56855  29.654  15.728   2.815
95567W        W56856  29.132  32.583  14.777
95568W        W56857  11.683  24.076  14.793
95569W        W56858  36.955  25.599  11.489
95570W        W56859   0.436  10.694   1.451
95571W        W56860   4.214   6.313   2.773
95572W        W56861   7.814   3.766   1.364
95573W        W56862  21.068  38.938   1.923
95574W        W56863  31.028  33.975   2.887
95575W        W56864  31.586  11.210   4.341
95576W        W56865   3.322  19.657   3.672
95577W        W56866  28.988  17.773   0.417
95578W        W56867  22.642  23.531  12.375
95579W        W56868  20.539  44.469   1.845
95580W        W56869  40.829   1.764  12.961
95581W        W56870  38.999  11.832   5.091
95582W        W56871  29.603  19.246   0.844
95583W        W56872  38.362  29.507  11.412
95584W        W56873  30.023  12.350  14.448
95585W        W56874  42.846   9.847  12.447
95586W        W56875  20.764   9.234   1.800
95587W        W56876  36.022  41.489  11.029
95588W        W56877  23.991  40.945   4.280
95589W        W56878  42.510   9.701  14.406
95590W        W56879  11.704  22.531  14.320
95591W        W56880  39.402   8.790   0.910
95592W        W56881  44.490  44.475  14.990
95593W        W56882  27.073  34.891  12.574
95594W        W56883  10.710  35.536   2.353
95595W        W56884  43.326  18.788   0.730
95596W        W56885  17.109  11.248   2.394
95597W        W56886  29.063   5.422  13.431
95598W        W56887  29.563   0.252   1.815
95599W        W56888  19.556   9.858  13.013
95600W        W56889   4.327  18.723  10.984
95601W        W56890   4.837   1.290  13.412
95602W        W56891  30.979  23.552  14.969
95603W        W56892  16.637   1.902  14.792
95604W        W56893  25.214  34.448   2.859
95605W        W56894  34.927  31.036   1.781
95606W        W56895   4.921  12.610   2.239
95607W        W56896  39.843   6.799  10.944
95608W        W56897  30.461  27.083   1.434
95609W        W56898  32.897  36.363  14.439
95610W        W56899  43.907  17.701  10.942
95611W        W56900  13.258  17.785  11.597
95612W        W56901  11.645  11.369   4.277
95613W        W56902  42.909   4.735  11.070
95614W        W56903  32.053  14.802   2.720
95615W        W56904  19.112  13.134   4.129
95616W        W56905  38.420  11.325   3.293
95617W        W56906  44.878   1.377  11.555
95618W        W56907  16.299  33.501  13.812
95619W        W56908  29.541   1.850  10.143
95620W        W56909  17.647  10.751   2.360
95621W        W56910  24.536   6.814  12.085
95622W        W56911   3.415  17.568  13.863
95623W        W56912  26.078   8.267  14.769
95624W        W56913  41.325  15.158   3.300
95625W        W56914  11.658  35.007  11.923
95626W        W56915  36.985  23.693   0.359
95627W        W56916  29.166  35.412  14.991
95628W        W56917  44.311  28.181   2.731
95629W        W56918  43.802  25.037  13.021
95630W        W56919  17.780  38.348   4.151
95631W        W56920  42.504  12.144  11.014
95632W        W56921  12.265  40.543   3.865
95633W        W56922   9.708  12.821   4.834
95634W        W56923  39.478  14.095  11.410
95635W        W56924  13.317  33.911  11.060
95636W        W56925  42.437  34.868   0.421
95637W        W56926   5.322  28.441  14.022
95638W        W56927  38.905  18.249  12.355
95639W        W56928  25.134   2.340  12.061
95640W        W56929  42.383  15.723  14.306
95641W        W56930  39.484   9.848  12.827
95642W        W56931   2.828  39.914   2.219
95643W        W56932   8.844   5.270   3.691
95644W        W56933  21.088   7.862  13.048
95645W        W56934  23.525  30.125  11.944
95646W        W56935  24.083  11.837   1.814
95647W        W56936  42.005  24.017   0.807
95648W        W56937  26.550  40.372  13.467
95649W        W56938  14.124  33.117  13.806
95650W        W56939  28.173  30.625   4.293
95651W        W56940   9.211  12.232  10.992
95652W        W56941  10.331  26.531   3.176
95653W        W56942  14.732  39.357  13.971
95654W        W56943  37.359  18.114   0.430
95655W        W56944  10.710  31.977   2.792
95656W        W56945  32.478   9.344   1.773
95657W        W56946  11.173  33.963   3.355
95658W        W56947  35.372  40.387  13.904
95659W        W56948  10.811  14.672   3.662
95660W        W56949  28.451  25.608  12.944
95661W        W56950  14.145  23.518   1.383
95662W        W56951  14.756  30.413  12.987
95663W        W56952  24.531  42.457   2.753
95664W        W56953  26.663  39.892  10.146
95665W        W56954  17.767  17.185  11.891
95666W        W56955   3.310  21.636   0.385
95667W        W56956  14.221  30.119   4.832
95668W        W56957   5.883  42.364  10.586
95669W        W56958  40.941  19.670   4.189
95670W        W56959  35.084   9.739  11.409
95671W        W56960   1.754  28.620  13.335
95672W        W56961   7.690   0.894   2.899
95673W        W56962  33.070  35.389  12.050
95674W        W56963  15.166  16.160   1.393
95675W        W56964  10.273  38.461   4.275
95676W        W56965  15.654  39.534  10.028
95677W        W56966  34.864  35.501   3.288
95678W        W56967  43.790  19.549  10.503
95679W        W56968   8.716  34.101   4.719
95680W        W56969   7.694  28.039   2.189
95681W        W56970  40.930  37.459  10.404
95682W        W56971  40.864  38.534   1.717
95683W        W56972  33.079  12.656  14.943
95684W        W56973  35.428  38.513  13.408
95685W        W56974  17.610  29.952  14.321
95686W        W56975  23.682  35.026   2.821
95687W        W56976   8.854   9.725   4.278
95688W        W56977  40.528  37.363   3.305
95689W        W56978  43.893  25.041  13.815
95690W        W56979   4.918  33.622  12.902
95691W        W56980   3.255  20.188  11.968
95692W        W56981   3.877  22.741  10.461
95693W        W56982  10.259  43.346   2.302
95694W        W56983  18.134  19.057  11.080
95695W        W56984   4.914  29.065   1.378
95696W        W56985   7.411  41.806   2.415
95697W        W56986   5.751  40.543   0.783
95698W        W56987  39.968  24.161  10.570
95699W        W56988  43.376  30.445   0.331
95700W        W56989  20.032  11.296  12.556
95701W        W56990  43.783  39.856   1.906
95702W        W56991  27.998  28.677  13.394
95703W        W56992  30.153  29.053   0.289
95704W        W56993  41.947   5.746  11.113
95705W        W56994  27.131  36.502   2.394
95706W        W56995  32.495   5.199  14.819
95707W        W56996  24.227  27.036   2.890
95708W        W56997  40.964  38.381  13.812
95709W        W56998  42.500  37.000   0.818
95710W        W56999   3.913  12.643  12.943
95711W        W57000  30.066  42.033  12.945
95712W        W57001  28.988  20.736   1.344
95713W        W57002  19.099  20.537  10.891
95714W        W57003  26.523   4.421   4.653
95715W        W57004   0.886  22.554  12.035
95716W        W57005   2.734  27.116   2.191
95717W        W57006  30.990  34.030   2.355
95718W        W57007  19.682  30.505  14.952
95719W        W57008  13.245  14.192   1.890
95720W        W57009  26.598  10.676  14.892
95721W        W57010   7.777  23.525  10.500
95722W        W57011  27.490  14.135   2.338
95723W        W57012  14.753  18.064   4.641
95724W        W57013  39.418  33.021   4.797
95725W        W57014  30.092  41.899  11.570
95726W        W57015  23.530  37.840  12.890
95727W        W57016  21.166  13.809  14.340
95728W        W57017  44.473  15.804  12.043
95729W        W57018   1.739   4.798   1.413
95730W        W57019  43.513   8.229   3.282
95731W        W57020   2.904  34.594   3.783
95732W        W57021  12.614  29.630  14.373
95733W        W57022  30.034  24.686   1.757
95734W        W57023   3.822  19.136   3.322
95735W        W57024  18.545  18.779   4.683
95736W        W57025  32.532  23.508  14.972
95737W        W57026  27.039  19.224  12.963
95738W        W57027  33.942  44.310   2.253
95739W        W57028  38.343   8.744  11.404
95740W        W57029  24.019  37.965   4.195
95741W        W57030  13.215  38.846   4.784
95742W        W57031  16.130  40.985  10.922
95743W        W57032  20.261  32.474  12.037
95744W        W57033  29.089   7.763  11.502
95745W        W57034  16.768   8.787   3.249
95746W        W57035  21.576   1.758   0.315
95747W        W57036  34.924   0.745   4.243
95748W        W57037   3.401  42.979  10.933
95749W        W57038  28.049  34.002  14.374
95750W        W57039   7.196  27.570  11.022
95751W        W57040  43.441  23.078  12.888
95752W        W57041   3.427   2.447   0.299
95753W        W57042   0.406  40.529   1.871
95754W        W57043  40.827  43.469   0.782
95755W        W57044  19.226  26.551  11.054
95756W        W57045  33.438   6.332  13.972
95757W        W57046  20.695  43.357   4.219
95758W        W57047   9.280  12.252   1.806
95759W        W57048  30.427  21.228  13.005
95760W        W57049   8.370   4.738  13.310
95761W        W57050   8.843   8.744   3.694
95762W        W57051  35.881   0.349   4.240
95763W        W57052  34.596   1.375  12.840
95764W        W57053  26.039  13.125  11.398
95765W        W57054  40.391  40.465  12.868
95766W        W57055  16.202   8.761   5.127
95767W        W57056  35.563   8.683  13.908
95768W        W57057  27.636  11.372   4.600
95769W        W57058  42.927  42.945  14.952
95770W        W57059  27.495  22.695  12.855
95771W        W57060  38.418  16.262  12.910
95772W        W57061   8.258  40.305  13.040
95773W        W57062  20.192  11.310   3.277
95774W        W57063  11.318   9.247   1.400
95775W        W57064  34.081  43.313   0.918
95776W        W57065  40.965   4.282  12.928
95777W        W57066  38.553  12.176   1.899
95778W        W57067  21.024  11.652   3.152
95779W        W57068  44.962   4.880   4.651
95780W        W57069   7.767  26.101   2.400
95781W        W57070  14.668  25.203   4.121
95782W        W57071   6.366   6.318  12.069
95783W        W57072  31.542  37.555  13.406
95784W        W57073  31.083   8.759   9.983
95785W        W57074  38.002  40.842  14.891
95786W        W57075   6.401  30.154   1.818
95787W        W57076  10.873  17.186  13.471
95788W        W57077  15.316  12.739   0.263
95789W        W57078  41.417  18.096  14.368
95790W        W57079   6.901  22.249   1.695
95791W        W57080   4.932  28.606  10.558
95792W        W57081  20.651  26.103  12.536
95793W        W57082  14.620  23.104  14.429
95794W        W57083   5.773   6.902   1.424
95795W        W57084  15.313  21.210   9.970
95796W        W57085  10.711  44.816   2.792
95797W        W57086  10.174  25.473  13.457
95798W        W57087  21.181  16.315   3.683
95799W        W57088  41.914  20.187  11.058
95800W        W57089  39.477  38.565  10.529
95801W        W57090  41.526   7.698  14.007
95802W        W57091  20.235  24.652   2.746
95803W        W57092  39.484  37.938  14.795
95804W        W57093  16.308  33.990  12.440
95805W        W57094  23.580  41.898  10.957
95806W        W57095  32.436  42.352   0.418
95807W        W57096  27.630   1.746  13.389
95808W        W57097  18.201  38.969  11.038
95809W        W57098  39.459  31.981  11.099
95810W        W57099  16.674   6.740  10.513
95811W        W57100  26.989  20.153  12.084
95812W        W57101  20.168   2.326   1.419
95813W        W57102  19.130  15.312   2.692
95814W        W57103   0.886  39.452   3.674
95815W        W57104  26.078  25.674  13.016
95816W        W57105   6.231  27.683   0.436
95817W        W57106  27.555  29.029  14.905
95818W        W57107  19.579  39.919  12.927
95819W        W57108  24.648   7.385  13.504
95820W        W57109   5.730  10.637  13.337
95821W        W57110  10.723  24.693   0.262
95822W        W57111  41.315  28.590  14.928
95823W        W57112  27.659  24.190   3.726
95824W        W57113   9.749  11.256  13.360
95825W        W57114  27.517  12.308  14.801
95826W        W57115   0.374  22.160   0.927
95827W        W57116  16.650  19.153  14.373
95828W        W57117  28.978   8.774  14.024
95829W        W57118  25.004  42.925   1.822
95830W        W57119  14.253  13.687  13.961
95831W        W57120   6.267   0.965   5.228
95832W        W57121   9.287  35.073  14.328
95833W        W57122  11.667  14.725  11.448
95834W        W57123  23.517  25.696  11.957
95835W        W57124  17.726   4.354   2.285
95836W        W57125   9.711   0.830  11.524
95837W        W57126  15.239  30.959   0.467
95838W        W57127   8.796   7.232   1.737
95839W        W57128   5.698  20.266  10.581
95840W        W57129   5.390  26.111   3.642
95841W        W57130  12.137   4.437   3.736
95842W        W57131  13.328  16.644   2.251
95843W        W57132  44.810  31.466  10.566
95844W        W57133   3.240  28.559  12.498
95845W        W57134  41.818  26.092   4.224
95846W        W57135  33.978  38.467   4.127
95847W        W57136  34.458  10.294  13.893
95848W        W57137  31.038   8.781  11.981
95849W        W57138  33.915  19.061  11.922
95850W        W57139   9.220  17.734   1.253
95851W        W57140  26.531   8.269  14.781
95852W        W57141  28.006  43.423   3.175
95853W        W57142  13.210  15.787   0.740
95854W        W57143   0.422  26.076   2.194
95855W        W57144  23.040  30.574  11.947
95856W        W57145  42.826  31.501  12.999
95857W        W57146  24.042  24.186   0.944
95858W        W57147  35.968  11.850   2.255
95859W        W57148  10.365  14.779   4.189
95860W        W57149  40.026   2.402   3.311
95861W        W57150  40.505  11.161  13.041
95862W        W57151  35.421  22.235   1.284
95863W        W57152   6.326  30.597   4.117
95864W        W57153  20.067  33.039  14.918
95865W        W57154  18.278  14.270   3.161
95866W        W57155   7.691  21.239   2.235
95867W        W57156   5.726  20.240  11.997
95868W        W57157  34.451  30.008  14.935
95869W        W57158  11.740  19.182   0.853
95870W        W57159   3.771  23.023  14.851
95871W        W57160  21.556  26.140  11.867
95872W        W57161  17.623   2.839   4.182
95873W        W57162  36.387   3.880   3.266
95874W        W57163  16.628  28.140   1.385
95875W        W57164   4.282  31.506   0.918
95876W        W57165  40.917   1.971   1.703
95877W        W57166  18.171   4.433   3.846
95878W        W57167   8.213  35.976   2.190
95879W        W57168   4.260  12.830   0.388
95880W        W57169  32.907  18.648   0.740
95881W        W57170  42.850   7.204   2.791
95882W        W57171  11.272  23.066   1.403
95883W        W57172   8.710  20.559  14.400
95884W        W57173  21.034  22.524   1.346
95885W        W57174  33.910  28.561   4.792
95886W        W57175   5.248  36.951   3.859
95887W        W57176   6.730   4.281  13.442
95888W        W57177  31.101  41.880   3.839
95889W        W57178  20.122  16.209   3.695
95890W        W57179  41.476  43.355   4.761
95891W        W57180   5.409  19.698  13.841
95892W        W57181  15.274   3.256   3.226
95893W        W57182  36.012   4.779   2.821
95894W        W57183  20.226  27.524  14.961
95895W        W57184   0.780  34.518   1.424
95896W        W57185  11.624   8.695  14.803
95897W        W57186  36.869   3.749   2.834
95898W        W57187  22.154   3.829  12.996
95899W        W57188  41.857  27.955   4.665
95900W        W57189  26.480  34.084   4.150
95901W        W57190   7.714  30.558  10.134
95902W        W57191  31.473  14.656   0.470
95903W        W57192  36.414   8.165  13.372
95904W        W57193  35.498  37.077   2.416
95905W        W57194  25.540  11.753   5.229
95906W        W57195  17.293  26.642   3.334
95907W        W57196  38.037  24.130  13.367
95908W        W57197  42.932  21.234   2.808
95909W        W57198  36.866  41.019   2.880
95910W        W57199  14.773  28.463  10.565
95911W        W57200  17.102  33.905   2.798
95912W        W57201  24.652  41.447  11.012
95913W        W57202  16.756  25.069  10.601
95914W        W57203  22.177  21.667  13.878
95915W        W57204  31.458  31.559  13.854
95916W        W57205  35.567  29.449  11.387
95917W        W57206  28.504  20.719   3.163
95918W        W57207  17.105  17.121   2.836
95919W        W57208   5.898   6.704   1.834
95920W        W57209  37.048  39.063  13.332
95921W        W57210  19.694  36.497   1.330
95922W        W57211  28.162  37.498  14.005
95923W        W57212  17.687   8.328  14.375
95924W        W57213  36.844  12.175   0.263
95925W        W57214  19.132   2.834  11.415
95926W        W57215   7.417   1.329  12.848
95927W        W57216  22.124  17.611   4.256
95928W        W57217  17.633  38.869   1.903
95929W        W57218  34.102  13.658   4.611
95930W        W57219  33.381  39.400  11.439
95931W        W57220   8.785  27.158   0.412
95932W        W57221   1.772  32.604  10.541
95933W        W57222  20.152  19.599  13.824
95934W        W57223  10.812   8.869   3.674
95935W        W57224  44.403  35.036   4.114
95936W        W57225  38.963  20.260  10.582
95937W        W57226  13.229  10.656   2.189
95938W        W57227  28.493  43.431  13.047
95939W        W57228  24.536   7.409   4.751
95940W        W57229  27.973  34.081   1.702
95941W        W57230   9.757  15.786   3.800
95942W        W57231   7.781  11.730   0.399
95943W        W57232  26.022  34.096  14.871
95944W        W57233   5.413   9.715  14.833
95945W        W57234  38.518  37.081  10.549
95946W        W57235  33.891  32.120  10.592
95947W        W57236  41.336  33.935  13.428
95948W        W57237   6.898  22.244   2.898
95949W        W57238  12.660   9.155  13.516
95950W        W57239  21.652  32.545   0.766
95951W        W57240  22.188  26.108  13.515
95952W        W57241  17.698  11.131   0.817
95953W        W57242  27.113   3.845   0.805
95954W        W57243  12.639  12.188  13.538
95955W        W57244  36.079  42.951   0.913
95956W        W57245  27.516  11.732   3.782
95957W        W57246  15.191   4.825  11.915
95958W        W57247  39.054  22.051  10.628
95959W        W57248  39.906  27.162   4.811
95960W        W57249   5.731  36.927   4.207
95961W        W57250  14.270  27.649  10.031
95962W        W57251  28.624  23.062  13.898
95963W        W57252  29.497  18.637   4.787
95964W        W57253  21.039  37.436   0.898
95965W        W57254  35.593  15.088  12.968
95966W        W57255  22.163  35.404   1.896
95967W        W57256  13.646   2.788   0.798
95968W        W57257  12.185  20.049  12.470
95969W        W57258  22.591  26.580  13.992
95970W        W57259  21.723   1.736  10.489
95971W        W57260  40.361  36.053   4.290
95972W        W57261  30.588  10.259  11.530
95973W        W57262  43.001  39.421  14.858
95974W        W57263  16.701  26.020   1.266
95975W        W57264  19.770  14.648   4.794
95976W        W57265  33.562  26.465   0.954
95977W        W57266  13.763  18.205   4.772
95978W        W57267  20.031  16.074  12.068
95979W        W57268  10.729  22.599   4.600
95980W        W57269  13.689  35.586   4.598
95981W        W57270  34.573   4.226  11.441
95982W        W57271  16.615  12.321  12.426
95983W        W57272  31.488  37.381  11.444
95984W        W57273   1.416   9.261   2.844
95985W        W57274  28.130  24.717   0.838
95986W        W57275   5.858  17.259  11.046
95987W        W57276   1.853   1.786   3.224
95988W        W57277  21.127  29.143  14.992
95989W        W57278  10.362   1.950  13.892
95990W        W57279  30.581  13.115  13.474
95991W        W57280  33.069  36.439  12.905
95992W        W57281  30.649  19.110   3.208
95993W        W57282  26.518  25.021   4.267
95994W        W57283  24.647  36.873   1.274
95995W        W57284   7.908  43.007   2.294
95996W        W57285  37.061  16.618   2.248
95997W        W57286  29.999  44.829   0.939
95998W        W57287  40.828   9.247   0.829
95999W        W57288  27.524  23.146   3.221
96000W        W57289  37.875   0.776   4.716
96001W        W57290  40.924  27.592  13.826
96002W        W57291  38.002  23.555   0.340
96003W        W57292  44.315  35.551   2.412
96004W        W57293  18.150  37.499   2.811
96005W        W57294   1.837  41.027  10.515
96006W        W57295  39.495  29.487  14.456
96007W        W57296  17.221  36.068   9.921
96008W        W57297  33.430  22.178  14.458
96009W        W57298  17.221  35.390  11.598
96010W        W57299  23.044  25.503   5.119
96011W        W57300  39.061   6.871   3.769
96012W        W57301  20.570  12.349   0.282
96013W        W57302  43.778  13.111  13.932
96014W        W57303  42.822  43.418   0.911
96015W        W57304  42.864  22.059   4.718
96016W        W57305   8.351   0.985   4.247
96017W        W57306  10.682  31.081  14.864
96018W        W57307   0.807  42.973  11.374
96019W        W57308  14.759  22.704   1.848
96020W        W57309  26.637   5.893  14.504
96021W        W57310  18.055  31.425   3.215
96022W        W57311  25.054  16.077   4.731
96023W        W57312  22.126  14.676  11.562
96024W        W57313  25.088   9.763  13.426
96025W        W57314   5.758   8.166  10.485
96026W        W57315   8.371  13.736  12.896
96027W        W57316  31.152  39.864   1.400
96028W        W57317  16.220   9.307   4.300
96029W        W57318  30.526  20.645  12.380
96030W        W57319   9.295  25.596   2.353
96031W        W57320  15.645  38.830  11.911
96032W        W57321  41.912  43.978   0.833
96033W        W57322  38.446  31.080   4.132
96034W        W57323  35.927  34.581   0.375
96035W        W57324  14.777  24.989  10.889
96036W        W57325   7.205  34.120   2.358
96037W        W57326  44.927  27.601  10.907
96038W        W57327  42.944  13.157   5.145
96039W        W57328  39.976  21.670  13.453
96040W        W57329  18.176  38.329   3.734
96041W        W57330   7.807  28.120  11.910
96042W        W57331   6.195  27.518   2.870
96043W        W57332   4.736  30.940   0.412
96044W        W57333  31.486  23.525  10.956
96045W        W57334  23.670  22.608   3.212
96046W        W57335  19.098   3.404  14.458
96047W        W57336  11.166  36.514   1.932
96048W        W57337  34.522  30.485   2.717
96049W        W57338  12.132  43.873  10.026
96050W        W57339   1.468  40.963  12.514
96051W        W57340   7.869   8.209  10.939
96052W        W57341  31.116  25.488  13.842
96053W        W57342  31.628  27.144  12.456
96054W        W57343  44.396  43.318   1.785
96055W        W57344  38.550  35.587  13.859
96056W        W57345  42.978  37.500  10.645
96057W        W57346  17.266   2.875  13.044
96058W        W57347  10.328  23.139   2.743
96059W        W57348  40.810  27.594   2.254
96060W        W57349  40.945  43.466   4.762
96061W        W57350  40.323  31.057   3.366
96062W        W57351   5.923  15.125   3.819
96063W        W57352   6.422  37.870  11.595
96064W        W57353  23.204  36.081   0.402
96065W        W57354  22.147  33.040   4.295
96066W        W57355  24.513   8.363   1.384
96067W        W57356  25.548   6.424   0.739
96068W        W57357  17.775  40.856  12.942
96069W        W57358  33.074  18.053  12.368
96070W        W57359  26.466  16.775  12.047
96071W        W57360  38.923  31.423  12.019
96072W        W57361   7.391  20.125   0.747
96073W        W57362  42.918  29.625   0.921
96074W        W57363   0.294  44.959   2.818
96075W        W57364  15.739  26.523   0.341
96076W        W57365  14.272  15.640  13.960
96077W        W57366  33.402  36.576  10.502
96078W        W57367   9.797   3.229   2.370
96079W        W57368  16.156  33.932  13.466
96080W        W57369  42.017  33.535   1.272
96081W        W57370  20.631  11.826   1.910
96082W        W57371  40.436  37.391  13.439
96083W        W57372  34.992  10.301   3.701
96084W        W57373  11.785  14.825  14.319
96085W        W57374  25.196   8.777   2.238
96086W        W57375   6.904   3.852  14.763
96087W        W57376  19.652   4.258   4.163
96088W        W57377  18.249  41.354  12.057
96089W        W57378  31.467  22.726   3.705
96090W        W57379  44.759  21.106  14.021
96091W        W57380  28.021  17.592  13.854
96092W        W57381  41.526  15.192   3.743
96093W        W57382   0.359  30.981   1.811
96094W        W57383  29.501  32.929  12.354
96095W        W57384  40.893  15.143  11.396
96096W        W57385  30.520  40.879  13.414
96097W        W57386  41.836  30.649   0.900
96098W        W57387  30.965  15.749  14.348
96099W        W57388  26.199  44.755   1.217
96100W        W57389  15.664  39.064   0.291
96101W        W57390  21.157  39.470   2.890
96102W        W57391   0.920  36.384   3.242
96103W        W57392   4.744   6.724   1.338
96104W        W57393  19.675  28.568   3.791
96105W        W57394  17.156  35.546  11.876
96106W        W57395  28.578  38.428   3.224
96107W        W57396  37.008   2.891  12.573
96108W        W57397  38.025  18.657   0.254
96109W        W57398  24.108  32.630  12.927
96110W        W57399   2.433  12.742  13.347
96111W        W57400  23.010  32.564   0.815
96112W        W57401  22.095  22.028  14.298
96113W        W57402  10.698  11.189  12.579
96114W        W57403  40.848  27.090   3.169
96115W        W57404  44.777  24.676  13.903
96116W        W57405  37.057   9.684   4.675
96117W        W57406  13.297  18.295  12.452
96118W        W57407  31.138   6.681  11.125
96119W        W57408  30.528  24.682  11.075
96120W        W57409  19.548  10.677  12.927
96121W        W57410  18.584   4.422   4.795
96122W        W57411  10.677  41.490   0.302
96123W        W57412  30.092  11.207  10.448
96124W        W57413  17.788   4.347  11.934
96125W        W57414  36.379  41.995   2.725
96126W        W57415  21.730  14.613  14.847
96127W        W57416  10.299   6.204   2.682
96128W        W57417  21.707  24.196   0.861
96129W        W57418  19.586  16.683  11.911
96130W        W57419  40.341  26.583   9.972
96131W        W57420  11.748  34.562  11.029
96132W        W57421  21.717   7.291   2.831
96133W        W57422  35.969   0.472   2.242
96134W        W57423   7.315  31.414  11.088
96135W        W57424  36.503  25.469  12.455
96136W        W57425  16.638   7.391  14.880
96137W        W57426  39.365   1.893  13.889
96138W        W57427  44.796  32.085   0.475
96139W        W57428  26.997  28.647  13.884
96140W        W57429  24.603  21.539   0.267
96141W        W57430  38.562  44.891  14.984
96142W        W57431  26.951  22.242   2.221
96143W        W57432  20.191   2.805   3.287
96144W        W57433  34.475   0.316  13.417
96145W        W57434  12.219  29.545   0.383
96146W        W57435  21.230  43.353  11.570
96147W        W57436  34.580   6.231  11.101
96148W        W57437  40.401  27.168  14.761
96149W        W57438   5.761   1.792  10.419
96150W        W57439  22.197  20.579   0.422
96151W        W57440  16.135   2.923   1.857
96152W        W57441  13.343  29.143  11.547
96153W        W57442  14.831  39.044  10.441
96154W        W57443  43.307  41.335   4.640
96155W        W57444  22.541  16.585  13.890
96156W        W57445  21.718   7.676  11.075
96157W        W57446  25.123   1.400  13.814
96158W        W57447  18.056  38.379  12.024
96159W        W57448  32.039   9.377   2.782
96160W        W57449  44.897   7.850   2.814
96161W        W57450  30.913  41.395  12.438
96162W        W57451  44.912  32.022   2.215
96163W        W57452  34.539  43.879  11.015
96164W        W57453  26.143   5.328  14.830
96165W        W57454  24.505   2.793   4.727
96166W        W57455  32.605  23.665  10.453
96167W        W57456  18.550  14.134  11.031
96168W        W57457  20.730  13.272   0.375
96169W        W57458  20.214  11.634  13.890
96170W        W57459  35.365  33.543  13.947
96171W        W57460  30.988  34.370  10.535
96172W        W57461  39.980  26.681  13.051
96173W        W57462  30.563  35.024  13.318
96174W        W57463  18.618   9.292  13.829
96175W        W57464  10.773  20.629   2.334
96176W        W57465  43.847  15.719   0.351
96177W        W57466  37.030  24.165  12.018
96178W        W57467  22.078  29.593   1.812
96179W        W57468   3.449  22.506  11.431
96180W        W57469  40.922  29.926   3.715
96181W        W57470  18.615   5.825   4.694
96182W        W57471   9.380  22.591  12.082
96183W        W57472  34.887   2.829   0.761
96184W        W57473  19.693  27.544   2.861
96185W        W57474  37.000  15.627  14.021
96186W        W57475  37.402  34.433  11.891
96187W        W57476  10.291  22.561   0.452
96188W        W57477  16.248  28.990  11.575
96189W        W57478   8.665  17.565  12.387
96190W        W57479  44.008   9.843  10.939
96191W        W57480  17.743  34.422   1.913
96192W        W57481  10.818  39.922   2.363
96193W        W57482   6.872   1.839   2.719
96194W        W57483  35.925   3.911   4.342
96195W        W57484  41.884  40.802  14.420
96196W        W57485  26.131  36.925  14.359
96197W        W57486   7.748  10.745  13.008
96198W        W57487  41.889   8.718   3.263
96199W        W57488   9.385   2.904   1.320
96200W        W57489  19.621  29.096   1.700
96201W        W57490  14.284  30.531  10.978
96202W        W57491  27.959  27.459  11.584
96203W        W57492  38.460  30.454   2.806
96204W        W57493  27.568   0.854   3.851
96205W        W57494  24.225   4.357   3.659
96206W        W57495  38.936  21.035  11.493
96207W        W57496   6.303   7.379   3.700
96208W        W57497  37.388  19.536  14.868
96209W        W57498  14.304  44.949  14.294
96210W        W57499  19.060  10.792  14.318
96211W        W57500  30.505  44.846  11.886
96212W        W57501   8.815  30.957  12.881
96213W        W57502  19.056  21.568  10.549
96214W        W57503  41.803   6.736   3.830
96215W        W57504   7.744  42.525  12.469
96216W        W57505   0.384  41.415  12.829
96217W        W57506   8.339  25.185  13.332
96218W        W57507   1.836  34.093   1.261
96219W        W57508  10.313  34.102   5.639
96220W        W57509   0.276  37.570  12.347
96221W        W57510  21.182  19.552   5.091
96222W        W57511  42.508  20.094   2.192
96223W        W57512  30.510  37.846   4.346
96224W        W57513  23.155  31.584  11.482
96225W        W57514  42.516  42.920   0.476
96226W        W57515   1.291  30.568  11.042
96227W        W57516   1.739  18.634   3.349
96228W        W57517  29.504  34.461   2.889
96229W        W57518  18.654   1.247   1.227
96230W        W57519   7.839  30.646   5.314
96231W        W57520  44.451  41.533   4.619
96232W        W57521  35.604  27.528  13.027
96233W        W57522   2.426  15.124   3.256
96234W        W57523  26.573  35.029  12.951
96235W        W57524   9.191  22.608  14.790
96236W        W57525  20.091  27.166   4.168
96237W        W57526   7.727   6.347   1.358
96238W        W57527  39.391  43.859   3.740
96239W        W57528  34.433  17.583  14.310
96240W        W57529  44.823  26.593   3.717
96241W        W57530  22.117  39.381  13.342
96242W        W57531  36.049  25.978   0.355
96243W        W57532  22.686  31.434  12.489
96244W        W57533  31.427   7.759   4.598
96245W        W57534  10.249  27.985   4.148
96246W        W57535  33.916   2.755   0.964
96247W        W57536  32.045  17.599   2.180
96248W        W57537   7.820  27.522   4.284
96249W        W57538   7.828   8.281   2.785
96250W        W57539  43.912  22.732   0.299
96251W        W57540  18.187  44.429   0.420
96252W        W57541  38.942   8.219   0.364
96253W        W57542  33.074  20.530  11.922
96254W        W57543  12.786  23.573  14.404
96255W        W57544  33.380  19.238  10.904
96256W        W57545  34.905   0.873  12.876
96257W        W57546  37.568  10.140  12.077
96258W        W57547  16.653  33.507  11.590
96259W        W57548  18.576  16.251  13.800
96260W        W57549   5.340  11.198   2.670
96261W        W57550  16.129  15.610   2.863
96262W        W57551  10.677  40.492   9.946
96263W        W57552  40.510  30.929   3.760
96264W        W57553  42.000  29.980   1.410
96265W        W57554   5.869  13.318   1.354
96266W        W57555  16.678  41.885   1.308
96267W        W57556  11.243   7.809  10.975
96268W        W57557  20.067  18.121  11.578
96269W        W57558  10.302  23.028   3.381
96270W        W57559  15.318  42.905  14.781
96271W        W57560  42.904  16.165  11.413
96272W        W57561  20.758  25.481  11.025
96273W        W57562   8.673  13.213  10.441
96274W        W57563  10.341  11.196   0.932
96275W        W57564  29.525  25.198   0.465
96276W        W57565   5.850  10.213   1.767
96277W        W57566   6.852   1.462   0.758
96278W        W57567  41.885  25.201  10.898
96279W        W57568  16.289  21.743   2.202
96280W        W57569  14.098  37.535   1.228
96281W        W57570  41.889   4.707   0.328
96282W        W57571  11.328  13.622  10.548
96283W        W57572  19.268  10.246   1.380
96284W        W57573  39.034   5.410   4.188
96285W        W57574  41.988  25.020   1.376
96286W        W57575  14.783  32.061  13.464
96287W        W57576  29.105   3.900   3.819
96288W        W57577  27.535  38.969  12.868
96289W        W57578  31.121  19.202   2.714
96290W        W57579   9.775  26.506  12.427
96291W        W57580  17.224  42.825   2.195
96292W        W57581  17.637  23.099  11.536
96293W        W57582  17.277  37.919   2.419
96294W        W57583  26.133  42.927   1.869
96295W        W57584  20.113  33.389  11.523
96296W        W57585  23.214   9.679  11.419
96297W        W57586  37.874   0.254   5.209
96298W        W57587  36.526  23.200   0.789
96299W        W57588   2.386  35.008   2.325
96300W        W57589  28.071   8.257  13.410
96301W        W57590  34.439   1.364  11.608
96302W        W57591  28.116  38.879  14.299
96303W        W57592  17.115  15.125  11.980
96304W        W57593  27.614  43.005  10.900
96305W        W57594  27.517  30.579  12.362
96306W        W57595  44.324  25.487   3.672
96307W        W57596  14.594  26.156   4.835
96308W        W57597   2.379  36.873  13.827
96309W        W57598  41.479  18.552   0.289
96310W        W57599  29.085  12.735  14.329
96311W        W57600   0.451  12.118  11.073
96312W        W57601  25.698  40.506  11.071
96313W        W57602   6.882   1.863  12.862
96314W        W57603  27.108  24.186  14.360
96315W        W57604  23.101  27.466   0.907
96316W        W57605  39.329  37.923  10.535
96317W        W57606  15.800  39.382  14.023
96318W        W57607  35.975  15.138  10.889
96319W        W57608  37.871  35.372   0.248
96320W        W57609  12.225   8.376  14.467
96321W        W57610  21.593   2.873   4.218
96322W        W57611  37.527  40.024   2.289
96323W        W57612  44.370  17.628   1.924
96324W        W57613  25.127  29.556  13.936
96325W        W57614  17.080  13.653  14.845
96326W        W57615  15.162  14.206  10.494
96327W        W57616   5.715  33.910  10.582
96328W        W57617   2.954   2.779  13.795
96329W        W57618   5.394   3.421  13.833
96330W        W57619   9.771  28.460  14.432
96331W        W57620  42.487  44.962  14.465
96332W        W57621  21.736  29.048  14.865
96333W        W57622   9.644  29.519  11.523
96334W        W57623  26.498  37.390   1.279
96335W        W57624  38.923  14.257   2.226
96336W        W57625   5.211   2.465   1.753
96337W        W57626  36.545  35.538   2.194
96338W        W57627  26.530  21.245  14.891
96339W        W57628   8.720  43.935   3.803
96340W        W57629   2.940  22.138   0.482
96341W        W57630  37.412  26.124  13.822
96342W        W57631   1.854  37.494  14.283
96343W        W57632  44.307   9.371   2.386
96344W        W57633  19.567  15.631  10.138
96345W        W57634  16.090  26.185  13.997
96346W        W57635  24.086  30.593  12.085
96347W        W57636  25.048  16.080   4.207
96348W        W57637  22.173  32.971   3.775
96349W        W57638  10.742  40.813   3.835
96350W        W57639  41.499  14.588   1.305
96351W        W57640  37.007  36.400  13.430
96352W        W57641  44.443   9.780   0.835
96353W        W57642   4.738  30.420  10.485
96354W        W57643  28.567  27.065   2.751
96355W        W57644  14.240  16.079   4.206
96356W        W57645  10.820  36.401  12.887
96357W        W57646  21.241  44.442  12.023
96358W        W57647  16.803  36.974  10.054
96359W        W57648  13.320  23.098  11.108
96360W        W57649  14.128  38.413  13.827
96361W        W57650   9.777  41.454  13.439
96362W        W57651  33.440   0.369   4.829
96363W        W57652   1.459  26.200   1.792
96364W        W57653  35.596  25.669  14.982
96365W        W57654  10.282  44.963   4.635
96366W        W57655   3.332  41.427   3.162
96367W        W57656  44.340  15.706  11.586
96368W        W57657  13.651   6.699   3.160
96369W        W57658  20.703   1.849  14.830
96370W        W57659   5.806  24.089   1.872
96371W        W57660  22.625  38.819   2.179
96372W        W57661  33.577  21.526   2.389
96373W        W57662   2.337  18.290  10.989
96374W        W57663  24.977  37.466  12.554
96375W        W57664   3.933  19.187  10.493
96376W        W57665  33.897   8.246  14.868
96377W        W57666  13.752  30.563  12.048
96378W        W57667  40.982  25.574  14.395
96379W        W57668  19.127  33.074  10.635
96380W        W57669  36.870  41.308   0.967
96381W        W57670  37.518   4.761   0.398
96382W        W57671  33.428  27.680  10.486
96383W        W57672  35.478   7.726  12.400
96384W        W57673   4.352  34.991   1.213
96385W        W57674  23.000  34.908   3.849
96386W        W57675   1.850  12.313   0.876
96387W        W57676  39.934  41.482  11.966
96388W        W57677  12.316  17.215   0.308
96389W        W57678  25.539  16.301   2.714
96390W        W57679  40.022  32.997   1.806
96391W        W57680  38.910  38.066  11.413
96392W        W57681  24.162  32.422  11.040
96393W        W57682  42.319  10.374   1.277
96394W        W57683  11.806  13.628   1.318
96395W        W57684  28.999   1.307  13.863
96396W        W57685  11.290  34.528   4.251
96397W        W57686   2.855  20.576   4.269
96398W        W57687  36.906  41.391  11.485
96399W        W57688  21.513  16.575   1.382
96400W        W57689  39.815   7.188   3.248
96401W        W57690  36.053  41.905  13.994
96402W        W57691  28.127  10.812  13.895
96403W        W57692  41.442  31.517   4.663
96404W        W57693  24.121  35.488   4.180
96405W        W57694  42.358  38.541  10.522
96406W        W57695  21.256   9.299  10.441
96407W        W57696   7.359  39.969   0.899
96408W        W57697  29.550  14.208   0.860
96409W        W57698  43.300   2.908  13.480
96410W        W57699  13.285   0.858   4.163
96411W        W57700   7.890  15.692   4.626
96412W        W57701  29.121   4.277   1.739
96413W        W57702  17.636  39.062  11.472
96414W        W57703   2.306  39.382   3.256
96415W        W57704  20.115  41.919  11.451
96416W        W57705  13.246   0.306  12.364
96417W        W57706  22.127   5.312   1.284
96418W        W57707   4.870  37.496  12.057
96419W        W57708  13.805  29.556  10.947
96420W        W57709  41.440  39.340   3.155
96421W        W57710  24.694   9.736   0.427
96422W        W57711  18.130  37.080   0.746
96423W        W57712   5.788  36.079   4.258
96424W        W57713  23.071  18.189   3.740
96425W        W57714  19.152  41.965  11.895
96426W        W57715   3.860   2.791  10.904
96427W        W57716  19.224  29.607  12.948
96428W        W57717   0.374  24.698  13.501
96429W        W57718  37.567   6.213   5.261
96430W        W57719  18.226   0.955   3.303
96431W        W57720  43.408  39.814   4.130
96432W        W57721  30.080   3.451  11.977
96433W        W57722   9.643  39.475  12.842
96434W        W57723  36.051  37.389   0.777
96435W        W57724  23.151   8.885   2.178
96436W        W57725  26.041  44.503   4.795
96437W        W57726  29.108  44.459   4.775
96438W        W57727  25.612  18.068   3.693
96439W        W57728  32.427  25.665  14.469
96440W        W57729  32.521  22.639   1.713
96441W        W57730   0.893  26.480  11.052
96442W        W57731   9.748  39.316  14.360
96443W        W57732  11.789   7.683   1.851
96444W        W57733  20.642  37.025   1.313
96445W        W57734  11.288  18.759  13.880
96446W        W57735   5.768  41.036  13.507
96447W        W57736   0.901  33.557   1.416
96448W        W57737  17.570  41.838  13.876
96449W        W57738   2.867  42.942   1.367
96450W        W57739  26.056  40.519   1.923
96451W        W57740  20.245   7.210   0.730
96452W        W57741   1.461  13.172  14.488
96453W        W57742  20.574  16.316  14.783
96454W        W57743  32.410  33.398  11.554
96455W        W57744  25.036  34.602  14.944
96456W        W57745   4.324  12.806  12.089
96457W        W57746   5.218  27.194   0.332
96458W        W57747  39.437  27.059   2.212
96459W        W57748  29.154  29.031   1.735
96460W        W57749  14.732   1.243   1.754
96461W        W57750  32.558  41.517  14.483
96462W        W57751  23.997  43.516  10.926
96463W        W57752  26.983  11.784  12.956
96464W        W57753  41.446  40.967   4.736
96465W        W57754  23.172  15.677   0.760
96466W        W57755  30.648   1.748   1.761
96467W        W57756  32.452  10.321  12.378
96468W        W57757  23.040   8.169   2.701
96469W        W57758   2.324  33.106   2.339
96470W        W57759  39.320  33.451   2.821
96471W        W57760  40.848  11.315  10.505
96472W        W57761  31.898   1.955   3.341
96473W        W57762  16.095   5.257  13.035
96474W        W57763  25.974  25.962   3.642
96475W        W57764  37.366  29.088  14.314
96476W        W57765  12.203   6.693   4.649
96477W        W57766  19.678  29.427  13.905
96478W        W57767   6.771   4.728  12.971
96479W        W57768  38.995  13.121   9.953
96480W        W57769  32.489  24.182  14.880
96481W        W57770  34.963  43.499  13.867
96482W        W57771  36.066   4.328  11.076
96483W        W57772  43.483  36.372   4.691
96484W        W57773  34.877   0.468  14.293
96485W        W57774  39.877   8.828   2.828
96486W        W57775   0.748   4.841  11.046
96487W        W57776  14.146   1.927   1.247
96488W        W57777  10.374   1.892   5.121
96489W        W57778  10.248  33.970   0.958
96490W        W57779  31.568   3.788   0.255
96491W        W57780  39.427   1.365   0.779
96492W        W57781  28.678  41.464   2.800
96493W        W57782  11.255  39.548   2.320
96494W        W57783   6.766   3.400  10.893
96495W        W57784   2.885  27.093   4.779
96496W        W57785  12.135  19.722   9.924
96497W        W57786  16.691  38.859   9.921
96498W        W57787   3.330   7.270   3.368
96499W        W57788  10.141  44.755  13.411
96500W        W57789   8.379  19.114  13.518
96501W        W57790  35.012   7.371  11.109
96502W        W57791  30.621  25.967   4.145
96503W        W57792  39.410  23.042  10.597
96504W        W57793  26.118  29.498  11.010
96505W        W57794  44.412   2.302   4.247
96506W        W57795   5.318   0.385   1.304
96507W        W57796  17.165   4.762   2.401
96508W        W57797   0.906  12.802   3.635
96509W        W57798  41.865  36.407  12.554
96510W        W57799  29.993  35.495  11.533
96511W        W57800   8.671  40.325   3.827
96512W        W57801   9.171   5.200  14.018
96513W        W57802  24.061  13.124  10.888
96514W        W57803  19.277  41.006  10.576
96515W        W57804  43.929  37.867  14.830
96516W        W57805   0.970  24.631   2.386
96517W        W57806   7.795  18.066  14.997
96518W        W57807   7.224  34.419  13.985
96519W        W57808  37.498   4.842   3.317
96520W        W57809  34.374  22.040  13.806
96521W        W57810  35.984  21.148  14.845
96522W        W57811  37.364  32.600  11.487
96523W        W57812  35.537  10.732   3.825
96524W        W57813  38.936  35.043   2.778
96525W        W57814   4.206  37.368   1.888
96526W        W57815  34.073  39.837   2.200
96527W        W57816  43.841  44.950   2.233
96528W        W57817  11.865  35.877   3.151
96529W        W57818  24.202  32.938   0.437
96530W        W57819  15.747   3.296   0.766
96531W        W57820  12.786  21.031  12.910
96532W        W57821  24.658   0.872   2.282
96533W        W57822  26.140   2.404  11.878
96534W        W57823  14.337  19.252  11.551
96535W        W57824  40.797   1.329   3.180
96536W        W57825  19.079  40.049   4.353
96537W        W57826  26.551  33.608   2.270
96538W        W57827  35.568   8.816   3.654
96539W        W57828  20.606  36.954  10.912
96540W        W57829  11.776  41.419   4.184
96541W        W57830  10.315   6.230   2.206
96542W        W57831  44.321  28.931   3.633
96543W        W57832  37.941   7.378   4.335
96544W        W57833  17.248   5.815  11.424
96545W        W57834  28.655  37.840  11.971
96546W        W57835   0.819  27.668  11.507
96547W        W57836  27.551  41.989  10.441
96548W        W57837  23.194  27.116   2.231
96549W        W57838  20.568  14.252  13.051
96550W        W57839  37.341  26.648   1.706
96551W        W57840   8.806   9.658   4.753
96552W        W57841   7.813  13.303   1.895
96553W        W57842   0.759  40.021   2.843
96554W        W57843  17.209  23.218   0.749
96555W        W57844  37.504  34.564  12.569
96556W        W57845  37.451  28.531  11.966
96557W        W57846  12.711  25.493   2.332
96558W        W57847  15.802  27.995  10.468
96559W        W57848  13.844  34.417  10.945
96560W        W57849  12.255   8.200  13.928
96561W        W57850  37.033  35.470  11.110
96562W        W57851  26.034  38.935   1.730
96563W        W57852  21.564  38.477  11.002
96564W        W57853  18.740  22.222   0.298
96565W        W57854  36.409  15.236   3.806
96566W        W57855   5.771   2.325   1.760
96567W        W57856  12.768  38.532  12.457
96568W        W57857  17.757   5.306   0.322
96569W        W57858  36.927  41.978   2.216
96570W        W57859  40.469   3.852   4.350
96571W        W57860   6.883  37.567  11.452
96572W        W57861  16.580  30.143   0.962
96573W        W57862   1.294  23.084  14.763
96574W        W57863   9.718   1.423   4.294
96575W        W57864  44.339  17.263   4.707
96576W        W57865  35.374  28.087   3.206
96577W        W57866  40.426  35.481  11.984
96578W        W57867   0.355  33.499   2.877
96579W        W57868  33.940  26.501   3.636
96580W        W57869  17.102  43.358  12.547
96581W        W57870  31.037   1.384  11.481
96582W        W57871  29.088  21.171  10.440
96583W        W57872  24.097   1.889   0.315
96584W        W57873  32.500  44.284  11.385
96585W        W57874  19.131   0.916   4.332
96586W        W57875  36.591   7.405   4.344
96587W        W57876  36.086  25.168  11.427
96588W        W57877  18.769  15.775   0.883
96589W        W57878  14.781  38.039   2.260
96590W        W57879   9.676  10.285  11.085
96591W        W57880  22.222  41.028   3.799
96592W        W57881  41.799   0.971   3.843
96593W        W57882  44.777  10.651   4.752
96594W        W57883  36.542  40.996   4.250
96595W        W57884  30.625   7.237   1.339
96596W        W57885  25.475  29.546   2.416
96597W        W57886  29.612  18.203  12.443
96598W        W57887   5.693  41.925   0.761
96599W        W57888  33.953   9.731  13.854
96600W        W57889  43.894  31.439   0.380
96601W        W57890  27.193  23.993  14.825
96602W        W57891   5.785  36.413   1.250
96603W        W57892  22.612  39.400  10.406
96604W        W57893  26.540  21.120   3.765
96605W        W57894  34.571  19.062   1.431
96606W        W57895   8.693  22.212  13.983
96607W        W57896  28.670   3.786  14.994
96608W        W57897  44.942   2.229  12.972
96609W        W57898  27.689  26.583  12.986
96610W        W57899   6.248  10.812  12.866
96611W        W57900  33.610  24.087  14.864
96612W        W57901   2.332  39.386  11.483
96613W        W57902  16.248  25.018   1.935
96614W        W57903  43.281  11.744   0.867
96615W        W57904  32.142  12.764  10.568
96616W        W57905   2.316  15.799  12.450
96617W        W57906  24.985  23.095   2.685
96618W        W57907  37.441  23.564  10.541
96619W        W57908  41.977  22.558  10.041
96620W        W57909   9.710  18.688   2.262
96621W        W57910  27.637   6.427  12.830
96622W        W57911  28.540  32.116  10.475
96623W        W57912  15.755  16.176  12.078
96624W        W57913   7.196  36.997  10.464
96625W        W57914  20.149  35.885   0.416
96626W        W57915  19.191  35.989   2.722
96627W        W57916  13.116  21.025  14.389
96628W        W57917  37.478  19.065  11.021
96629W        W57918   4.403   4.420  13.796
96630W        W57919  40.545  17.761   0.387
96631W        W57920  30.479  13.716  12.975
96632W        W57921  31.599  31.561   0.297
96633W        W57922  13.618   2.265  10.417
96634W        W57923  11.214  13.182  14.488
96635W        W57924  13.241   3.950   0.864
96636W        W57925  32.408  33.445  11.943
96637W        W57926  18.607  30.162  13.809
96638W        W57927  41.982   6.305   4.274
96639W        W57928  16.657  34.113   1.912
96640W        W57929  37.568  43.929   0.348
96641W        W57930  44.910  28.437   1.890
96642W        W57931   2.857  43.508   3.304
96643W        W57932  10.297   9.783   0.748
96644W        W57933  24.210  40.856   4.759
96645W        W57934  13.249   1.920   0.282
96646W        W57935  29.095  33.956   1.245
96647W        W57936   5.702  34.971  11.406
96648W        W57937  24.067  40.420   2.678
96649W        W57938  36.866   0.316   2.752
96650W        W57939  42.330  32.913   0.451
96651W        W57940  19.615  37.478   0.461
96652W        W57941  42.783  20.622   2.283
96653W        W57942  26.961   1.285  12.918
96654W        W57943  38.357  13.208   1.281
96655W        W57944  16.186  21.579  12.915
96656W        W57945  24.178  10.353  13.965
96657W        W57946  30.504  29.068   2.801
96658W        W57947  36.560  21.089  13.044
96659W        W57948  29.074  41.897   2.383
96660W        W57949  10.185   8.247  10.968
96661W        W57950  19.162  38.537  12.008
96662W        W57951  37.930  12.180  12.401
96663W        W57952  10.796   2.427  11.897
96664W        W57953  44.314  37.543   9.960
96665W        W57954  43.472   7.870  14.385
96666W        W57955  30.654  19.046   4.207
96667W        W57956   8.184   0.746   2.846
96668W        W57957  38.970  24.222   2.810
96669W        W57958  33.026  29.141   4.274
96670W        W57959  30.109  43.288  14.842
96671W        W57960  27.157  20.657  11.088
96672W        W57961  40.914  35.049  14.349
96673W        W57962  32.979  33.923   4.672
96674W        W57963  21.593  44.814  12.358
96675W        W57964  44.864   5.743   1.864
96676W        W57965  19.218  30.984  11.889
96677W        W57966  25.576  13.625  13.504
96678W        W57967  43.275  24.625  14.898
96679W        W57968  21.652   7.683   0.743
96680W        W57969   7.352   0.247  13.422
96681W        W57970  43.944  32.073  11.984
96682W        W57971  37.580  39.476  14.947
96683W        W57972  41.350  22.501   2.386
96684W        W57973  29.584  10.677  13.015
96685W        W57974  15.235  32.935  14.463
96686W        W57975   7.334  15.822   2.779
96687W        W57976  25.206  34.447   1.293
96688W        W57977   3.922  44.335   0.811
96689W        W57978  27.456   5.397   2.264
96690W        W57979   1.328  30.054   4.142
96691W        W57980  15.682  13.660  12.058
96692W        W57981  40.543  10.370   1.234
96693W        W57982   8.853  13.776  14.313
96694W        W57983  34.910  15.119  14.356
96695W        W57984   1.788   3.911   4.671
96696W        W57985  33.110   1.761   1.888
96697W        W57986   1.474   6.227   0.436
96698W        W57987  14.801  14.270  12.903
96699W        W57988  43.906  37.394   0.421
96700W        W57989  30.993  14.720  10.585
96701W        W57990  20.713   2.956   3.380
96702W        W57991  39.452  15.636  11.008
96703W        W57992  35.518  33.623  12.063
96704W        W57993   9.318  39.037   1.827
96705W        W57994  26.546  37.371   2.682
96706W        W57995  44.339  43.514  13.486
96707W        W57996  25.062  20.035  14.320
96708W        W57997   5.394  26.569  10.892
96709W        W57998  35.540  28.177  13.860
96710W        W57999  40.805  25.154   4.674
96711W        W58000  30.150  14.625  10.961
96712W        W58001  33.015  30.497  14.408
96713W        W58002   9.779  37.372  14.849
96714W        W58003  29.085  28.022   0.895
96715W        W58004  26.537  20.241  11.988
96716W        W58005  10.818  41.363   2.822
96717W        W58006  11.145  43.282  11.077
96718W        W58007  34.529   9.225  13.850
96719W        W58008  35.917  30.467   1.710
96720W        W58009  22.213  39.885  13.886
96721W        W58010  11.206  44.834   2.866
96722W        W58011  35.971  37.929  12.082
96723W        W58012  21.669  42.371  13.424
96724W        W58013  15.691  37.882  10.452
96725W        W58014   1.300  33.874   0.376
96726W        W58015   5.802  18.068   4.175
96727W        W58016  42.932  21.055  11.571
96728W        W58017  31.139  33.929   3.334
96729W        W58018   0.967  44.832   0.922
96730W        W58019  33.489  35.862   4.130
96731W        W58020  30.990   0.870   4.822
96732W        W58021  40.974  25.643  13.481
96733W        W58022  26.473  33.019  12.393
96734W        W58023  38.986   8.690   2.681
96735W        W58024  44.288  35.935   2.743
96736W        W58025   2.437   4.902  14.834
96737W        W58026   6.188  17.061   3.293
96738W        W58027  32.931  13.237  12.400
96739W        W58028   1.968  35.052   4.611
96740W        W58029   7.304  21.735   1.270
96741W        W58030  39.958  26.045   4.641
96742W        W58031  29.953  29.020  11.012
96743W        W58032  20.191  22.214   1.403
96744W        W58033  19.635   2.362   0.886
96745W        W58034  44.885   0.463  13.419
96746W        W58035  43.936  10.705   1.798
96747W        W58036  25.052   7.683  14.870
96748W        W58037  22.635  38.827   2.710
96749W        W58038  23.034  27.452  13.937
96750W        W58039  30.948  23.593  13.010
96751W        W58040   1.253  20.210   1.374
96752W        W58041  44.864  21.036   2.848
96753W        W58042  26.554  41.365  13.971
96754W        W58043  31.492  17.069   4.781
96755W        W58044  39.470  11.621  10.592
96756W        W58045  39.907  43.437  14.025
96757W        W58046   9.713  15.776  13.354
96758W        W58047  25.684  34.033   1.340
96759W        W58048  30.550  10.361   1.243
96760W        W58049   4.379  23.658   0.800
96761W        W58050  10.859   7.679   3.218
96762W        W58051  41.940  18.122  10.475
96763W        W58052  36.927  13.839   2.840
96764W        W58053  44.303  43.929   3.271
96765W        W58054   6.413  42.301  14.023
96766W        W58055  41.424  25.058  11.374
96767W        W58056  26.131  27.146   1.399
96768W        W58057  31.611  27.611  11.129
96769W        W58058   6.739   4.330  10.430
96770W        W58059  24.010  13.826   0.871
96771W        W58060  30.417  37.395  13.386
96772W        W58061  21.164   4.413   9.950
96773W        W58062  11.351  13.245   1.802
96774W        W58063  24.038  28.476   2.664
96775W        W58064  26.018  41.991   0.774
96776W        W58065  30.138  44.000  12.543
96777W        W58066  38.509  31.924   0.305
96778W        W58067   5.302  10.744   1.321
96779W        W58068  10.365  26.004  13.922
96780W        W58069  42.344  33.962   2.217
96781W        W58070  34.049  32.503   0.321
96782W        W58071  42.322   6.872   0.884
96783W        W58072  30.041  38.448   0.766
96784W        W58073  24.570  34.576   1.773
96785W        W58074  35.862  39.954   1.785
96786W        W58075  36.450  16.676   1.713
96787W        W58076  32.946  44.978  10.488
96788W        W58077  41.838   4.432   0.302
96789W        W58078   9.768  20.113  14.870
96790W        W58079  26.168  20.255  10.992
96791W        W58080  21.646   1.270   3.217
96792W        W58081  38.861  19.250  11.945
96793W        W58082  20.150  44.304   1.444
96794W        W58083  19.581  25.139   0.927
96795W        W58084  36.080  35.369  10.931
96796W        W58085  28.627  37.460  13.928
96797W        W58086   4.808  25.507  13.910
96798W        W58087  12.202   9.273   0.961
96799W        W58088  30.485   8.677  12.872
96800W        W58089  36.467  42.893  14.303
96801W        W58090   9.682  19.621   0.246
96802W        W58091  25.064  22.650   4.705
96803W        W58092  30.618  44.882   2.220
96804W        W58093  10.635  23.066  13.470
96805W        W58094  14.623  18.662   4.193
96806W        W58095  27.075  10.696   4.255
96807W        W58096  41.483  16.765  11.561
96808W        W58097  18.558   5.400  11.540
96809W        W58098  28.655  22.149   1.893
96810W        W58099   3.422   8.279   4.348
96811W        W58100  24.021   4.797   0.320
96812W        W58101  37.408   9.160   4.625
96813W        W58102  32.591  32.129  10.082
96814W        W58103  25.472  30.060  14.910
96815W        W58104  16.635   4.391   2.316
96816W        W58105  42.978  44.993  11.879
96817W        W58106  44.767  29.963  13.376
96818W        W58107  43.325  23.560   3.680
96819W        W58108  16.653  37.019   3.868
96820W        W58109  36.946  17.108  10.153
96821W        W58110  23.237  43.469   4.320
96822W        W58111  24.624  16.146   2.878
96823W        W58112  11.661  35.403  12.878
96824W        W58113  15.097  35.894   2.743
96825W        W58114  28.549   9.173  12.083
96826W        W58115  38.050  26.586  11.004
96827W        W58116  42.892  22.085  10.996
96828W        W58117  15.110  13.614  13.975
96829W        W58118  11.701  27.171   4.603
96830W        W58119  31.575   6.397  12.931
96831W        W58120   1.442   0.279   0.736
96832W        W58121   1.308  10.805  14.838
96833W        W58122  28.990   4.242   1.218
96834W        W58123  37.357   0.806   3.199
96835W        W58124  22.142  35.594  11.518
96836W        W58125   0.441  25.525   1.871
96837W        W58126   9.185  15.725  10.028
96838W        W58127  44.382  30.076   0.362
96839W        W58128  14.630  25.220   0.965
96840W        W58129  35.459   3.332   4.816
96841W        W58130  37.575  25.987   3.331
96842W        W58131  26.096  25.581  14.515
96843W        W58132  28.006   7.739   4.150
96844W        W58133   0.932  35.452  11.895
96845W        W58134  14.616  21.684   2.804
96846W        W58135   1.452  28.113  11.563
96847W        W58136  43.401  40.398  10.513
96848W        W58137  34.018  28.067   2.786
96849W        W58138   8.756  25.486   1.742
96850W        W58139   0.316  36.097   1.839
96851W        W58140  13.631  20.739   2.256
96852W        W58141  10.321  35.057  11.955
96853W        W58142  14.192  15.293   0.327
96854W        W58143   2.951  38.513  13.809
96855W        W58144  29.586   8.404  10.944
96856W        W58145  38.982  23.230  12.339
96857W        W58146  41.367  30.460   3.737
96858W        W58147  40.496  12.260  14.933
96859W        W58148  37.361  32.541   4.620
96860W        W58149  11.325  33.422  13.352
96861W        W58150  22.118  16.112   0.836
96862W        W58151  30.444  10.779  13.795
96863W        W58152  42.460   1.479  11.917
96864W        W58153  36.568  33.618  11.579
96865W        W58154  23.587   8.723  13.535
96866W        W58155   6.421  15.265  12.460
96867W        W58156  41.916  11.181  13.044
96868W        W58157  32.515   9.364   3.382
96869W        W58158  37.443   7.862   3.647
96870W        W58159   0.288  30.051  14.497
96871W        W58160   5.426   3.944  12.977
96872W        W58161  36.578  26.084   1.332
96873W        W58162  14.173  37.505   3.816
96874W        W58163  33.918  22.239  10.477
96875W        W58164   3.847  10.778   1.888
96876W        W58165   2.859  34.455  11.978
96877W        W58166  14.240  31.524   1.427
96878W        W58167   0.943  11.854  10.586
96879W        W58168  19.105   3.870  12.974
96880W        W58169  25.565  38.548  14.277
96881W        W58170   8.668  38.511  12.970
96882W        W58171  43.498  16.649  12.011
96883W        W58172  13.286   8.690   4.235
96884W        W58173  28.040  17.204   4.694
96885W        W58174   0.415  22.037   1.260
96886W        W58175   4.266  23.033  14.331
96887W        W58176  31.411   1.284   3.201
96888W        W58177   8.297   8.293  12.551
96889W        W58178  22.691  14.302  11.558
96890W        W58179  38.372  32.010   1.709
96891W        W58180  44.288  11.149   4.829
96892W        W58181  40.903  18.136  13.388
96893W        W58182  41.803  23.233  13.497
96894W        W58183   8.802  38.446   0.894
96895W        W58184  17.633  20.684  10.635
96896W        W58185  17.260  23.184   2.716
96897W        W58186  19.744  14.621   5.320
96898W        W58187  24.003  10.661  14.822
96899W        W58188  23.625  30.988   3.296
96900W        W58189  27.193  22.055  13.814
96901W        W58190   7.761  19.600   2.758
96902W        W58191  19.188  41.428   0.333
96903W        W58192  25.110  42.457   3.804
96904W        W58193  29.133  12.302  14.793
96905W        W58194   7.354  29.929   3.798
96906W        W58195  19.048  28.680  14.929
96907W        W58196  27.187  13.790   2.296
96908W        W58197  25.611  30.511  10.496
96909W        W58198  39.513   4.298   0.751
96910W        W58199  26.034  20.545  11.593
96911W        W58200  36.880  19.627  12.928
96912W        W58201   4.441  10.712   4.123
96913W        W58202  23.553  41.427  14.806
96914W        W58203  20.144  43.507   3.802
96915W        W58204   7.172  24.584   0.366
96916W        W58205  25.493  28.165  13.927
96917W        W58206  35.485  13.106   4.181
96918W        W58207   6.213   3.736   2.795
96919W        W58208   1.389  44.833  11.927
96920W        W58209  41.513  25.661  10.944
96921W        W58210  40.977  43.348  11.975
96922W        W58211  21.737  16.304  10.412
96923W        W58212  12.131  32.483   5.641
96924W        W58213  30.018  27.528   2.815
96925W        W58214  21.527  26.542  12.827
96926W        W58215  19.551   0.349  14.994
96927W        W58216   4.779  19.147  10.900
96928W        W58217  28.983   5.928  14.032
96929W        W58218  27.462  27.672  11.431
96930W        W58219  44.845  26.137  14.373
96931W        W58220  21.019   5.303   3.808
96932W        W58221   8.694  25.708   0.352
96933W        W58222  36.408  24.636  13.445
96934W        W58223  38.541  11.753  12.491
96935W        W58224   9.326  10.741   3.200
96936W        W58225  40.938   1.439   4.128
96937W        W58226  38.028  18.672   1.861
96938W        W58227  43.514  27.457  12.896
96939W        W58228  26.138  12.322   3.235
96940W        W58229   1.739  42.508   1.353
96941W        W58230   5.850  30.056  13.407
96942W        W58231  15.751  35.951  12.519
96943W        W58232   8.806  16.665   2.303
96944W        W58233   8.180  39.481  13.459
96945W        W58234   3.829   1.761   1.227
96946W        W58235  38.836   9.388   1.711
96947W        W58236   9.690  30.151  11.037
96948W        W58237   5.401  30.627   2.802
96949W        W58238  38.502  38.403  12.947
96950W        W58239  35.880  30.449  10.630
96951W        W58240  19.533   9.808   0.350
96952W        W58241   4.439  27.979  11.922
96953W        W58242  28.520  13.123  11.558
96954W        W58243  36.374  16.143  11.597
96955W        W58244   8.197  36.375  13.331
96956W        W58245  42.525   4.245  12.528
96957W        W58246  26.457  26.132  12.968
96958W        W58247  18.714   1.452  13.362
96959W        W58248  28.468   7.676   0.259
96960W        W58249  44.306  31.516   3.711
96961W        W58250  12.223  34.994  11.399
96962W        W58251  15.291  29.537  10.614
96963W        W58252  19.540  29.648  11.006
96964W        W58253  40.908  37.060  12.972
96965W        W58254  37.074  12.675  13.831
96966W        W58255  44.318  44.803   0.477
96967W        W58256  18.661  17.070  11.906
96968W        W58257  15.625  35.424   2.682
96969W        W58258  15.313  37.989   4.215
96970W        W58259  30.949  44.829  10.488
96971W        W58260  28.476  10.720  14.388
96972W        W58261  13.146  12.179   2.372
96973W        W58262  19.174  34.042   2.300
96974W        W58263  16.591  32.470   3.310
96975W        W58264  38.463   8.876  10.984
96976W        W58265  36.072  17.776  14.406
96977W        W58266   5.355  19.582   2.201
96978W        W58267  20.071  29.072  10.600
96979W        W58268  10.160  16.625   0.803
96980W        W58269  10.791  25.008  11.385
96981W        W58270  26.497  24.703  14.367
96982W        W58271   5.918  33.976  11.593
96983W        W58272  25.713  30.943  14.468
96984W        W58273  42.484   2.456  11.569
96985W        W58274  32.043  12.803   2.849
96986W        W58275   1.932   3.419  10.468
96987W        W58276  44.363  24.554   0.909
96988W        W58277  20.543   9.786  14.895
96989W        W58278  10.778   9.708  14.758
96990W        W58279  13.252  28.041  14.403
96991W        W58280  20.666   6.731   0.764
96992W        W58281   1.264  30.462  13.374
96993W        W58282  27.486  18.721   4.181
96994W        W58283  28.170  18.157  14.990
96995W        W58284   5.354  35.406  11.902
96996W        W58285  29.934  13.263  13.536
96997W        W58286  42.331  24.665   3.840
96998W        W58287   7.300  23.228   0.899
96999W        W58288  32.040  40.478   2.827
97000W        W58289  28.522   9.256  12.536
97001W        W58290  43.344  29.109  10.074
97002W        W58291   2.744   3.252   2.269
97003W        W58292  19.168  18.725  14.343
97004W        W58293  31.941   1.768  10.408
97005W        W58294  10.187  13.727   2.365
97006W        W58295  28.024  19.753  13.853
97007W        W58296  21.738  20.742   3.864
97008W        W58297  34.408  10.343   4.706
97009W        W58298   2.462  41.831  12.578
97010W        W58299  18.153  42.825  14.874
97011W        W58300  17.186   3.840  13.815
97012W        W58301  33.435  34.067   0.411
97013W        W58302   1.744   9.848   0.908
97014W        W58303  27.032   5.688   0.864
97015W        W58304  17.679  41.011  10.992
97016W        W58305  39.477  16.641   3.203
97017W        W58306  32.915  24.174   0.764
97018W        W58307  24.188  18.642  13.541
97019W        W58308  12.275  17.251  14.501
97020W        W58309   9.376  26.160   0.937
97021W        W58310   6.891   4.821  13.831
97022W        W58311  14.107   6.228   0.416
97023W        W58312  34.069  13.121  10.557
97024W        W58313  12.224  20.636  12.080
97025W        W58314  19.722  41.507   0.764
97026W        W58315  14.164  11.660  10.902
97027W        W58316   2.856   1.933   2.394
97028W        W58317  37.915  24.065   4.662
97029W        W58318  37.441  10.711  10.526
97030W        W58319  30.433  41.529  11.473
97031W        W58320   6.189  11.173   4.325
97032W        W58321  39.541  18.148   3.681
97033W        W58322  37.368  29.062   3.383
97034W        W58323  12.160  32.101  14.999
97035W        W58324  13.653  32.431  10.905
97036W        W58325  17.149  19.143   4.244
97037W        W58326  26.072  16.174   3.371
97038W        W58327  42.013  13.785  11.961
97039W        W58328  10.667   8.817   0.480
97040W        W58329  10.197  28.070   2.716
97041W        W58330  15.137  40.372   4.649
97042W        W58331  25.689   8.740  12.444
97043W        W58332  41.309  37.062  12.007
97044W        W58333  16.602  23.111  14.030
97045W        W58334  34.391  43.978   4.630
97046W        W58335  15.196  42.338  14.281
97047W        W58336  24.153  12.178   1.786
97048W        W58337  33.382  24.181   1.709
97049W        W58338  27.024  31.504   2.772
97050W        W58339  39.444  12.324  11.884
97051W        W58340  25.482  42.506   4.691
97052W        W58341  34.866   3.794  10.407
97053W        W58342  43.321  24.543  13.332
97054W        W58343  11.341  27.631   4.344
97055W        W58344  36.028   7.778  10.485
97056W        W58345   0.878  20.706   1.905
97057W        W58346  30.958  44.949  13.024
97058W        W58347  24.124  15.598  12.375
97059W        W58348  14.273  18.208   4.247
97060W        W58349  25.073  22.033   0.294
97061W        W58350  21.620  14.266  11.528
97062W        W58351  18.133  15.750  10.993
97063W        W58352  20.652   5.304   2.374
97064W        W58353  10.718   3.874  11.075
97065W        W58354  37.384  23.213   1.854
97066W        W58355  18.771  30.912   0.881
97067W        W58356   2.312  44.340  13.430
97068W        W58357  19.184  12.659   4.250
97069W        W58358  37.528  27.662   4.302
97070W        W58359  14.251  32.130   3.297
97071W        W58360  41.351  36.018  11.923
97072W        W58361  14.107  34.089  11.993
97073W        W58362  24.061  26.535   2.817
97074W        W58363  43.994  21.084   2.213
97075W        W58364   5.694  33.499  12.436
97076W        W58365  27.038  24.166  11.049
97077W        W58366   9.166  37.847  15.000
97078W        W58367  24.215   7.275  11.002
97079W        W58368  23.534  24.017   3.171
97080W        W58369  10.212   8.331  11.580
97081W        W58370  38.868  11.748  12.483
97082W        W58371   8.769  37.400   0.942
97083W        W58372  32.023  21.588   5.209
97084W        W58373  19.063   2.862  10.580
97085W        W58374  12.181  33.543   3.675
97086W        W58375  11.305  36.485   3.656
97087W        W58376  18.274  40.517   1.822
97088W        W58377  42.490  30.446  11.056
97089W        W58378  29.979  31.043   2.201
97090W        W58379  41.360  23.499   3.689
97091W        W58380  14.597  36.514  11.595
97092W        W58381   1.824  37.361  11.442
97093W        W58382  36.065  39.860   4.714
97094W        W58383   8.224  21.695   2.839
97095W        W58384  34.929  13.229  11.104
97096W        W58385   9.192  37.885   0.942
97097W        W58386  21.186  23.671   4.292
97098W        W58387  27.690  28.555  14.513
97099W        W58388  39.944  26.175  14.486
97100W        W58389  27.997  39.556  13.875
97101W        W58390   3.736   6.862   2.387
97102W        W58391  13.809  38.474  14.988
97103W        W58392   5.198   4.778  11.021
97104W        W58393  19.664   2.803  11.522
97105W        W58394  39.532  34.872  13.992
97106W        W58395  15.318  43.366   4.238
97107W        W58396  33.479  14.599  11.476
97108W        W58397  38.408  21.155   4.641
97109W        W58398  35.081  30.040  11.089
97110W        W58399  26.140   2.450  11.434
97111W        W58400  21.705  37.474  11.379
97112W        W58401  27.960  17.129   1.786
97113W        W58402  13.716  20.082   3.726
97114W        W58403   8.890  28.517   0.913
97115W        W58404  29.520  26.038  13.530
97116W        W58405  18.782  29.642  11.000
97117W        W58406   4.258  24.502   2.347
97118W        W58407  34.883  40.509   1.720
97119W        W58408   4.874  44.408   0.946
97120W        W58409  25.991  13.134   4.326
97121W        W58410  16.286   7.304  12.952
97122W        W58411  37.993  14.172   1.840
97123W        W58412   3.350  24.056  13.064
97124W        W58413  30.988  26.494  11.400
97125W        W58414   8.817   0.278   2.696
97126W        W58415  33.943   3.462  13.425
97127W        W58416  33.055  15.297   1.845
97128W        W58417  30.133   7.189   1.320
97129W        W58418   2.770  21.690   4.171
97130W        W58419  15.236  22.169  13.064
97131W        W58420  36.356  30.551  14.993
97132W        W58421  14.815  37.577   1.343
97133W        W58422   7.765  23.736   9.657
97134W        W58423  21.182  25.507   4.312
97135W        W58424  34.972  23.051   2.788
97136W        W58425  30.508  44.839   1.697
97137W        W58426  32.128  10.179   9.993
97138W        W58427   4.421  19.581  13.318
97139W        W58428  24.195   0.953   3.669
97140W        W58429  12.123   5.886  11.938
97141W        W58430  39.026  32.923   0.825
97142W        W58431  38.516  16.097   2.405
97143W        W58432  32.047  43.479  10.516
97144W        W58433  44.338  41.917   1.772
97145W        W58434  23.571  20.538   0.921
97146W        W58435   7.347  22.237   2.290
97147W        W58436  43.966  20.760   2.231
97148W        W58437  18.700  30.432  14.811
97149W        W58438  31.904   9.875  14.288
97150W        W58439  38.475  35.083   2.687
97151W        W58440  38.489   1.765   1.933
97152W        W58441   9.646  39.387   3.811
97153W        W58442  37.015  42.939  14.443
97154W        W58443  14.113  27.602  13.049
97155W        W58444  36.086  15.774  11.988
97156W        W58445   5.273  30.047  12.987
97157W        W58446   3.723  25.511  14.322
97158W        W58447  13.636   4.841  13.970
97159W        W58448   4.718  40.341  13.941
97160W        W58449  44.350  10.755   2.199
97161W        W58450  23.592   4.364  14.912
97162W        W58451  19.763  42.981  11.395
97163W        W58452  26.104  26.995  12.482
97164W        W58453  11.635  39.472   2.321
97165W        W58454   3.297  19.766  12.401
97166W        W58455   1.441  27.986  14.977
97167W        W58456  10.689  30.583  14.841
97168W        W58457  14.276  36.426   5.791
97169W        W58458  28.056  15.198  13.349
97170W        W58459   4.753  40.519  12.483
97171W        W58460  13.620   7.694  14.386
97172W        W58461  21.230  16.199   1.265
97173W        W58462   3.229  12.828  14.380
97174W        W58463  33.890  25.155   0.784
97175W        W58464  17.750  16.720  13.916
97176W        W58465  10.809  13.606   3.728
97177W        W58466  16.227  26.166   1.400
97178W        W58467  43.994  38.910  12.086
97179W        W58468   3.743   9.713  10.583
97180W        W58469  43.978  12.689  13.037
97181W        W58470  37.509   2.353  12.090
97182W        W58471   2.831  23.003  14.331
97183W        W58472  16.254  13.760  14.474
97184W        W58473  35.033  42.841   4.129
97185W        W58474  37.907  20.688  12.511
97186W        W58475   0.758   4.793  11.957
97187W        W58476  41.401   9.758  12.856
97188W        W58477   3.866  23.678   4.780
97189W        W58478  19.658  29.074  14.934
97190W        W58479  18.696  40.383   4.177
97191W        W58480  27.512   5.239  11.376
97192W        W58481  32.631   0.410   5.185
97193W        W58482  26.177  24.572   1.745
97194W        W58483   8.820  37.364  14.019
97195W        W58484   2.945  18.661   4.159
97196W        W58485  15.190  29.970  13.972
97197W        W58486  10.209   5.775   0.350
97198W        W58487  42.958   8.218   2.234
97199W        W58488  40.343   4.764   1.379
97200W        W58489  43.825  25.684   1.285
97201W        W58490  43.982  28.469  12.340
97202W        W58491   6.325  10.284   0.428
97203W        W58492  33.957  36.424  14.002
97204W        W58493   2.750  31.123   1.796
97205W        W58494  28.067   9.751   1.926
97206W        W58495  43.817   1.872   3.744
97207W        W58496  15.158  20.732  14.901
97208W        W58497  19.254  20.121  11.957
97209W        W58498  21.059  41.323   3.731
97210W        W58499  17.098  42.318  10.617
97211W        W58500   8.226   8.211  14.888
97212W        W58501  41.470  20.093  14.347
97213W        W58502  37.836  42.934  13.916
97214W        W58503  40.999  33.553  12.361
97215W        W58504  30.569  31.446  10.448
97216W        W58505  40.837  28.676  13.440
97217W        W58506  26.499  14.697  12.479
97218W        W58507   8.204  11.656   2.706
97219W        W58508  42.325   4.733   2.849
97220W        W58509   0.856  16.152   2.797
97221W        W58510  36.583   4.228   3.806
97222W        W58511  18.091  20.197   1.284
97223W        W58512  24.974  11.622  10.481
97224W        W58513   3.913  24.602   0.465
97225W        W58514  20.239   2.889  12.869
97226W        W58515  11.208   3.329  12.857
97227W        W58516   7.679  30.037   3.313
97228W        W58517  17.727   6.326  12.936
97229W        W58518   5.928  22.074   5.805
97230W        W58519   5.711  20.123   2.748
97231W        W58520  24.988  37.551  14.804
97232W        W58521  18.665  34.010   3.162
97233W        W58522  30.449  10.382   5.277
97234W        W58523   2.301  40.907   0.415
97235W        W58524  22.571  23.735   4.701
97236W        W58525   6.684  15.706  12.502
97237W        W58526  39.973  40.861  11.122
97238W        W58527  20.761  15.585   0.317
97239W        W58528  15.698  39.988  10.086
97240W        W58529  18.747  28.104   3.320
97241W        W58530  30.447  20.526   3.829
97242W        W58531  19.074  13.296   4.671
97243W        W58532  44.434  24.206   2.192
97244W        W58533   2.760  20.210  14.999
97245W        W58534  36.411  40.455  12.932
97246W        W58535  44.782  17.138   3.352
97247W        W58536  38.506  42.338  13.819
97248W        W58537  26.997   8.382   1.744
97249W        W58538  12.729  28.467  13.508
97250W        W58539   7.846  18.270   3.634
97251W        W58540  21.642  17.294   4.255
97252W        W58541  16.172  44.858   4.149
97253W        W58542  27.544  17.651   0.881
97254W        W58543   1.320  27.627   1.269
97255W        W58544  12.660  40.466   2.856
97256W        W58545  21.526  43.864   2.355
97257W        W58546  32.067  32.566   1.386
97258W        W58547   4.443  14.730  14.280
97259W        W58548  28.618  24.551  10.533
97260W        W58549  12.359  43.403   4.167
97261W        W58550  42.031   5.254  14.345
97262W        W58551  30.008  19.167  12.051
97263W        W58552   9.259   3.857  14.297
97264W        W58553  25.488   0.962  12.382
97265W        W58554   5.283  12.806  12.844
97266W        W58555   2.254   8.329  13.014
97267W        W58556  30.456   7.722   4.209
97268W        W58557   0.904  18.748   1.429
97269W        W58558  28.484  11.229   1.887
97270W        W58559  28.586  16.722   4.683
97271W        W58560  31.047  13.718  11.987
97272W        W58561  21.753   7.378   5.198
97273W        W58562   8.720  21.134   2.871
97274W        W58563  38.827   1.829   3.663
97275W        W58564  44.819   7.826  14.773
97276W        W58565  30.016   6.424  14.019
97277W        W58566  35.595  21.149  11.111
97278W        W58567  22.535  10.243   1.756
97279W        W58568  37.912  16.106   1.810
97280W        W58569  30.488  37.019   4.638
97281W        W58570  12.358   8.333  11.379
97282W        W58571  14.291  15.600   2.899
97283W        W58572  42.386  19.601   2.783
97284W        W58573  34.051   1.856   4.780
97285W        W58574   8.406  26.974   1.439
97286W        W58575  37.514  38.528  12.406
97287W        W58576  21.125   3.786   1.718
97288W        W58577  27.148  36.502   1.700
97289W        W58578  33.015  27.539  14.355
97290W        W58579  23.554  35.991  14.844
97291W        W58580  19.658  25.052  11.102
97292W        W58581  16.803  39.410   1.282
97293W        W58582  16.682  11.177   3.271
97294W        W58583  15.715  37.863   1.732
97295W        W58584  42.916  22.222  13.507
97296W        W58585  20.251  17.249   0.784
97297W        W58586  32.974  17.598  14.352
97298W        W58587  28.066  26.637  13.056
97299W        W58588   7.194  22.583  12.936
97300W        W58589  35.058  14.651   4.780
97301W        W58590  17.578  32.630  14.330
97302W        W58591  13.672  29.924   1.259
97303W        W58592  33.414  13.148  12.956
97304W        W58593  23.107  12.320  12.869
97305W        W58594  36.884  20.158  11.051
97306W        W58595  37.917  43.398  12.032
97307W        W58596   9.710  21.604  12.048
97308W        W58597  15.177   9.338  12.980
97309W        W58598  41.993  22.090   0.356
97310W        W58599  10.239  36.020  12.869
97311W        W58600  18.717  40.877   3.701
97312W        W58601   8.396   8.383  12.069
97313W        W58602  31.001  22.536  13.912
97314W        W58603  33.513  24.500  10.609
97315W        W58604  42.931  29.997   0.349
97316W        W58605  18.237  29.084   0.451
97317W        W58606  35.513  12.181   0.386
97318W        W58607  27.639   1.923   3.206
97319W        W58608  16.245  24.139  10.912
97320W        W58609  21.079  25.135   2.327
97321W        W58610  42.880  20.633  13.792
97322W        W58611   5.264  11.312  13.358
97323W        W58612   3.717  22.578  14.514
97324W        W58613  25.138  20.743  11.012
97325W        W58614  24.631  37.477   1.921
97326W        W58615   1.964   7.876  12.444
97327W        W58616  39.417  24.994  11.609
97328W        W58617  36.058  22.640  11.530
97329W        W58618  37.984   1.877  12.091
97330W        W58619  39.960  20.542   9.923
97331W        W58620  24.145  31.046   2.223
97332W        W58621  15.260  15.308   0.377
97333W        W58622   5.838  26.041  13.378
97334W        W58623  36.443  41.324  14.766
97335W        W58624  23.011  20.643  11.121
97336W        W58625  18.173  39.004  12.966
97337W        W58626   1.874  30.138  13.386
97338W        W58627   0.298  28.599   3.340
97339W        W58628  27.477  19.156  13.970
97340W        W58629  20.228   9.276  11.997
97341W        W58630  11.759  19.674  13.056
97342W        W58631   8.208  18.729   2.213
97343W        W58632   5.238  19.664   5.208
97344W        W58633  26.980  30.143  11.908
97345W        W58634  32.111  43.766  14.435
97346W        W58635  38.395  34.423  13.998
97347W        W58636   8.816  22.024   3.659
97348W        W58637  24.626  34.116   4.294
97349W        W58638  10.239  30.134   0.306
97350W        W58639  43.768   7.373  12.346
97351W        W58640   7.248  38.861  14.309
97352W        W58641  19.159  16.604  13.037
97353W        W58642  21.614  28.635   2.707
97354W        W58643  36.932  23.626  14.812
97355W        W58644  27.103  17.198   0.337
97356W        W58645  11.844  41.504  10.526
97357W        W58646  22.716  41.857  13.411
97358W        W58647   6.186  28.658  11.929
97359W        W58648  24.116  30.048   0.750
97360W        W58649  26.634  10.839  11.945
97361W        W58650  43.816  11.789   2.410
97362W        W58651  12.201   4.778   3.714
97363W        W58652  11.775   2.920   2.372
97364W        W58653  18.679  11.259  12.904
97365W        W58654  42.403   4.437  14.366
97366W        W58655  12.794  10.247   4.248
97367W        W58656  35.379  41.465  11.484
97368W        W58657  37.570   8.216   0.483
97369W        W58658  18.568  26.544   9.983
97370W        W58659  20.188  23.002  11.602
97371W        W58660  26.027  17.676  12.069
97372W        W58661   4.745  24.515   9.465
97373W        W58662   1.763  21.126  14.941
97374W        W58663  17.278  43.291   3.273
97375W        W58664  14.621  40.832  10.639
97376W        W58665  28.479  17.585  12.933
97377W        W58666  22.631  10.351  12.524
97378W        W58667  23.547  44.767  11.875
97379W        W58668  25.130  32.495   1.743
97380W        W58669  38.342  27.007  13.830
97381W        W58670  31.045  17.774  11.495
97382W        W58671  15.279  29.959   1.248
97383W        W58672  23.501  28.106  13.994
97384W        W58673  21.580  35.050  11.868
97385W        W58674  13.811  41.356   4.739
97386W        W58675  32.574  12.822  13.327
97387W        W58676  18.577  44.307  12.350
97388W        W58677  35.951  34.039  11.560
97389W        W58678  11.136  40.970   2.769
97390W        W58679  31.061  33.460   4.770
97391W        W58680  42.872  20.152  14.849
97392W        W58681  28.028   6.830   0.803
97393W        W58682   7.727  40.304   5.187
97394W        W58683   5.381  22.142  12.367
97395W        W58684   7.685   0.456   0.462
97396W        W58685  20.603   0.783   3.356
97397W        W58686  30.531  43.392  13.365
97398W        W58687  26.554  31.030   4.628
97399W        W58688   4.912  40.910   1.741
97400W        W58689  35.087   1.874  11.023
97401W        W58690   4.779  40.527  14.946
97402W        W58691   6.209  29.136   0.765
97403W        W58692  44.382  10.258   0.365
97404W        W58693  30.556  37.565   5.112
97405W        W58694  24.134  18.054   3.182
97406W        W58695   7.753   1.410  11.126
97407W        W58696  25.623  40.350  11.929
97408W        W58697   9.747  31.024  12.891
97409W        W58698  28.639   9.775  12.370
97410W        W58699  32.911  36.032   3.785
97411W        W58700  20.611  38.075  12.495
97412W        W58701  20.072  40.497   0.763
97413W        W58702  23.625  27.644   2.192
97414W        W58703  27.473  30.997   2.840
97415W        W58704  16.574   0.356   3.809
97416W        W58705  36.855  15.642   2.270
97417W        W58706  18.642  34.033  10.940
97418W        W58707   6.872   4.769  12.581
97419W        W58708  19.255  24.023  12.854
97420W        W58709   5.360  29.021  10.925
97421W        W58710   2.358   2.298   3.865
97422W        W58711  19.248  26.041   3.684
97423W        W58712  27.007   1.738  12.093
97424W        W58713  37.897  11.192   4.671
97425W        W58714  43.910  23.048  13.538
97426W        W58715  26.534  33.023   3.816
97427W        W58716  39.458   2.945   4.645
97428W        W58717  31.944  26.207  11.379
97429W        W58718   2.732   6.818   0.307
97430W        W58719  21.112   3.280   5.127
97431W        W58720   6.288   1.897  13.865
97432W        W58721  23.188  44.954   0.398
97433W        W58722  25.544  31.911  12.974
97434W        W58723  39.820  27.619   1.934
97435W        W58724  41.945  28.492   4.640
97436W        W58725  34.997  40.426  11.118
97437W        W58726  21.152  34.943  14.782
97438W        W58727  41.464  12.159  11.587
97439W        W58728  29.987   0.827  11.536
97440W        W58729  33.029  30.998   1.385
97441W        W58730  23.661  36.092   3.728
97442W        W58731  10.646  27.031  11.480
97443W        W58732  22.543   0.331  13.458
97444W        W58733  40.799  17.755   3.203
97445W        W58734  32.430   2.408   1.308
97446W        W58735  39.020  42.521  12.462
97447W        W58736  36.913  44.375   4.122
97448W        W58737   4.437   3.731  13.895
97449W        W58738  11.679  30.590  12.853
97450W        W58739   7.372  12.851  14.943
97451W        W58740  12.309  34.614  13.946
97452W        W58741  33.482   7.685  12.058
97453W        W58742  14.142  31.034  12.515
97454W        W58743   6.833  17.743   1.409
97455W        W58744  35.542   6.831   4.339
97456W        W58745  34.470  24.161   3.212
97457W        W58746   6.852  22.097  12.997
97458W        W58747  38.031  23.649   3.189
97459W        W58748  38.962  30.439  12.003
97460W        W58749   6.738  43.956  13.428
97461W        W58750   8.669  31.120  14.420
97462W        W58751  41.499  11.239   4.636
97463W        W58752  37.401  11.769  12.955
97464W        W58753  39.957   0.878   0.896
97465W        W58754   8.369  34.086  13.396
97466W        W58755  37.989   2.384   4.608
97467W        W58756   4.339  17.701   3.242
97468W        W58757  37.420  22.615  13.341
97469W        W58758  20.101  29.105   1.889
97470W        W58759  13.823   8.820  14.499
97471W        W58760  42.287  17.722  12.838
97472W        W58761  11.822  42.004   4.647
97473W        W58762  40.449   3.768   2.688
97474W        W58763  32.472  31.472  13.043
97475W        W58764  18.097  20.143   1.894
97476W        W58765  44.434  26.207   1.749
97477W        W58766  33.051   9.173   0.381
97478W        W58767  43.921  19.664  13.871
97479W        W58768  38.408  30.649   4.828
97480W        W58769  43.947  31.122  11.900
97481W        W58770  37.434  37.449   3.213
97482W        W58771  39.321  29.960   4.786
97483W        W58772  34.997  24.505   4.116
97484W        W58773  23.618   4.372  11.022
97485W        W58774   0.776   2.935   2.721
97486W        W58775  18.265  24.085   4.654
97487W        W58776  38.454  42.819   1.435
97488W        W58777  22.639  13.230  14.442
97489W        W58778  37.953  39.065  13.372
97490W        W58779  20.674  31.447  14.437
97491W        W58780  28.150  14.098  14.373
97492W        W58781  12.188  14.736   3.702
97493W        W58782  32.490  34.534   3.288
97494W        W58783   8.848   2.843   4.749
97495W        W58784  41.873  11.636  13.387
97496W        W58785  36.006   8.840  10.626
97497W        W58786  13.345  13.786  10.404
97498W        W58787  38.483  32.537  14.805
97499W        W58788  16.090  38.336  10.145
97500W        W58789  10.857  27.457  10.918
97501W        W58790  24.995  16.763   2.260
97502W        W58791  26.146   6.852  11.440
97503W        W58792   4.780  42.344   1.874
97504W        W58793   5.753  30.957   1.441
97505W        W58794  23.732  34.477   2.314
97506W        W58795  30.000  39.037  11.886
97507W        W58796  23.128  11.177  13.437
97508W        W58797  26.525  40.331  11.451
97509W        W58798  17.639   4.889   4.147
97510W        W58799   7.740  34.909   1.216
97511W        W58800  44.870  32.995  10.428
97512W        W58801   4.832   3.374   1.439
97513W        W58802  38.462  43.938   1.430
97514W        W58803  14.145  32.074  14.882
97515W        W58804  20.591   4.216   4.700
97516W        W58805  17.181  38.454   3.372
97517W        W58806   5.743  12.274   4.663
97518W        W58807  22.103   2.780  12.852
97519W        W58808  17.210  34.989  14.782
97520W        W58809  32.885   6.693   9.579
97521W        W58810  43.349  21.162  10.929
97522W        W58811  19.684  38.048   3.716
97523W        W58812  40.978  42.790   1.418
97524W        W58813  30.971  31.441   4.272
97525W        W58814  43.855  42.378  11.417
97526W        W58815  30.984  41.992  11.405
97527W        W58816  15.171  26.647   2.192
97528W        W58817  12.315   5.699  13.507
97529W        W58818   7.783   7.279  13.535
97530W        W58819  18.166  40.932  14.299
97531W        W58820  32.953  17.676   3.212
97532W        W58821  26.963  38.904  11.563
97533W        W58822  22.157  25.489   4.158
97534W        W58823  25.546  26.544  11.511
97535W        W58824   5.748   8.299  13.917
97536W        W58825  43.814  36.544   0.801
97537W        W58826  22.999  12.333   0.910
97538W        W58827  31.044  31.077   0.849
97539W        W58828  43.860  15.230   3.713
97540W        W58829  31.546  16.614  14.464
97541W        W58830   2.338  44.777  11.037
97542W        W58831  28.436   4.859  10.520
97543W        W58832   4.820  42.304  12.941
97544W        W58833  18.083  19.587   0.920
97545W        W58834  44.395  30.544   0.375
97546W        W58835  37.371   6.909  12.825
97547W        W58836  35.394  33.097  14.372
97548W        W58837   7.305  25.011  12.457
97549W        W58838  25.553  35.055  12.348
97550W        W58839  13.764   7.185   2.785
97551W        W58840  27.059   3.815  14.984
97552W        W58841  17.670  11.181   4.789
97553W        W58842   3.247   8.249   4.640
97554W        W58843  14.827  36.489  10.089
97555W        W58844  23.555   2.304  13.889
97556W        W58845  29.568  15.286   2.332
97557W        W58846  37.870  32.141   4.198
97558W        W58847  23.726   3.800  12.077
97559W        W58848   9.820   5.807  13.904
97560W        W58849  15.230  25.161   5.174
97561W        W58850  19.260  15.133  11.413
97562W        W58851  39.982  26.164  12.355
97563W        W58852   6.807   8.751   2.718
97564W        W58853  25.112   8.401  14.847
97565W        W58854   9.876  24.021  11.941
97566W        W58855  37.898   7.718   3.310
97567W        W58856   2.428  19.046  13.344
97568W        W58857  16.675  30.004   1.229
97569W        W58858  30.959  30.465  10.022
97570W        W58859  18.294  21.097  12.533
97571W        W58860   4.784  28.080   1.252
97572W        W58861  43.971  28.151   4.213
97573W        W58862  23.522  24.503  11.550
97574W        W58863  39.911  31.463   4.801
97575W        W58864   7.177  10.161   3.701
97576W        W58865  10.168  31.101   1.433
97577W        W58866  32.530   3.802   2.690
97578W        W58867   7.884  19.195   1.361
97579W        W58868  13.256  37.987   0.475
97580W        W58869  43.966   3.846  14.984
97581W        W58870   5.196  10.754  10.488
97582W        W58871   2.887  18.145   3.723
97583W        W58872  22.709  12.645  12.905
97584W        W58873  13.110  16.698   2.667
97585W        W58874  38.858   1.835   4.608
97586W        W58875  37.027   0.466   1.739
97587W        W58876  35.476  41.478   4.835
97588W        W58877  11.306  39.361   2.741
97589W        W58878  29.009  35.046  14.508
97590W        W58879  13.179   7.852   4.672
97591W        W58880   9.807  40.884   4.333
97592W        W58881  42.856  12.695   0.474
97593W        W58882  11.174  33.089  11.423
97594W        W58883  35.492  32.903   3.678
97595W        W58884   2.811  12.304   3.631
97596W        W58885  36.447  30.963  14.959
97597W        W58886   9.876   4.708   1.306
97598W        W58887  25.488  44.812   3.789
97599W        W58888  19.248  37.380   1.790
97600W        W58889  14.730   3.756  13.322
97601W        W58890  36.549  31.462  14.931
97602W        W58891  16.157  10.271  12.489
97603W        W58892   4.861  18.137  12.378
97604W        W58893  16.228  38.493  12.346
97605W        W58894   3.406  15.617   0.477
97606W        W58895  14.652  20.174  14.479
97607W        W58896  30.091  19.175   2.286
97608W        W58897   4.875  38.367  14.762
97609W        W58898   1.795  23.561  14.381
97610W        W58899  35.575  39.857  12.984
97611W        W58900   0.930  31.999  13.369
97612W        W58901  17.244   3.447   1.213
97613W        W58902  41.787   0.461  14.802
97614W        W58903  43.806   8.723   1.219
97615W        W58904   9.280  20.556  11.468
97616W        W58905  26.476  12.254   2.894
97617W        W58906   5.758  17.223   4.767
97618W        W58907  41.864  26.104   4.710
97619W        W58908  11.716   0.254  13.892
97620W        W58909   5.239  40.054  10.429
97621W        W58910  28.487  18.151   0.895
97622W        W58911  32.001  43.805   4.635
97623W        W58912  18.060   8.884   2.292
97624W        W58913  28.951  10.149  14.801
97625W        W58914  18.197  27.499  10.554
97626W        W58915  12.629  42.338  10.485
97627W        W58916  17.182  44.340   4.718
97628W        W58917   1.468  28.106   1.362
97629W        W58918   6.737  25.064   5.266
97630W        W58919  18.189  32.095   3.197
97631W        W58920  19.246   5.910   1.694
97632W        W58921   1.833  21.527   3.352
97633W        W58922  15.323  21.157   0.348
97634W        W58923   7.837  16.168  11.431
97635W        W58924   1.425  37.560  11.071
97636W        W58925  13.750  22.218  10.631
97637W        W58926  42.019   2.437   4.728
97638W        W58927  31.425   7.699  12.015
97639W        W58928  18.128  32.480  13.057
97640W        W58929   1.952  24.011   3.675
97641W        W58930  11.166  39.342   0.470
97642W        W58931  31.405  26.607  13.931
97643W        W58932  35.988  30.133   2.768
97644W        W58933  33.531  41.336   3.786
97645W        W58934  31.051   7.782  14.891
97646W        W58935  11.305   2.832   2.365
97647W        W58936  35.924  31.640   4.189
97648W        W58937  35.416   2.739   0.351
97649W        W58938  13.619  39.889   3.221
97650W        W58939  34.383  35.870   3.727
97651W        W58940  31.477  40.046   1.388
97652W        W58941  37.071  37.397   3.179
97653W        W58942  10.303  35.492  13.914
97654W        W58943  27.679  18.711   0.766
97655W        W58944   7.299  44.772  10.449
97656W        W58945  37.450  35.886   1.732
97657W        W58946  35.423   1.912  11.993
97658W        W58947   8.736  32.037   0.413
97659W        W58948  26.999  13.663   0.878
97660W        W58949  25.180  36.946   0.799
97661W        W58950  20.576  32.472  10.927
97662W        W58951  39.556  37.076   3.864
97663W        W58952   5.355  37.884   2.725
97664W        W58953   0.403  35.924  11.019
97665W        W58954   3.387  19.641   0.381
97666W        W58955   6.747  17.627  11.871
97667W        W58956   5.378  20.583   4.674
97668W        W58957  33.563  41.384   1.354
97669W        W58958  31.419   6.913   4.179
97670W        W58959  40.322  10.696  12.838
97671W        W58960   5.307  18.586  11.115
97672W        W58961  36.892  33.877  14.469
97673W        W58962  40.992  10.660  14.981
97674W        W58963   6.306  14.171  10.985
97675W        W58964   9.370  39.447   2.871
97676W        W58965  15.616  11.833  14.899
97677W        W58966  22.105  24.146  13.496
97678W        W58967   1.430   0.423  12.986
97679W        W58968  17.798  42.893  12.070
97680W        W58969  44.367  27.637   4.783
97681W        W58970   3.883  25.490  11.552
97682W        W58971  26.489  24.499   0.246
97683W        W58972  37.014  11.281  13.964
97684W        W58973  44.392  40.428   2.770
97685W        W58974  35.567   3.762   4.284
97686W        W58975   4.916  31.911  11.128
97687W        W58976  39.988  21.570  11.121
97688W        W58977  39.912  30.601  11.043
97689W        W58978  43.994  41.410   1.771
97690W        W58979  27.014  12.639   2.327
97691W        W58980  12.230  28.011  13.333
97692W        W58981  20.596  37.892  14.977
97693W        W58982   4.298  19.670   1.293
97694W        W58983   2.919  10.258  14.859
97695W        W58984  39.959  17.696   1.300
97696W        W58985   0.743  36.953   1.715
97697W        W58986  19.273  37.417   2.669
97698W        W58987  18.751  19.779  10.601
97699W        W58988  17.190  40.014  12.901
97700W        W58989   4.807  39.416   3.336
97701W        W58990  18.731  11.229  13.857
97702W        W58991   2.290  39.436  14.856
97703W        W58992  40.991  26.485  12.874
97704W        W58993  26.641  17.599   0.938
97705W        W58994  40.464  30.597   3.753
97706W        W58995  13.782  34.527   4.352
97707W        W58996  28.597  36.481  12.544
97708W        W58997   7.703   1.806  14.848
97709W        W58998   3.871  41.358  14.792
97710W        W58999  40.448  20.554  11.497
97711W        W59000  41.905  17.186   0.910
97712W        W59001  16.709  30.929   2.777
97713W        W59002  12.238   2.262  12.513
97714W        W59003  28.451  13.280  14.307
97715W        W59004  18.249  34.864  13.342
97716W        W59005  19.091  30.621  12.012
97717W        W59006  35.047  13.311  14.447
97718W        W59007  28.547  10.788   1.764
97719W        W59008  16.267  23.194  14.780
97720W        W59009  33.051  40.921   2.391
97721W        W59010  14.626  31.054   1.933
97722W        W59011  16.597  31.148  14.463
97723W        W59012  41.805  36.465  14.434
97724W        W59013  17.084  28.098  12.352
97725W        W59014  27.510  36.559  11.442
97726W        W59015  15.178  36.413  13.888
97727W        W59016  21.520  13.813   1.407
97728W        W59017   0.494  22.664  11.998
97729W        W59018  12.738   4.786  12.963
97730W        W59019   2.264  20.621  10.631
97731W        W59020  41.527  19.706   0.740
97732W        W59021  42.514  27.950  13.472
97733W        W59022  29.597  35.503   0.313
97734W        W59023  34.580   5.327   0.447
97735W        W59024  17.085  22.215  10.154
97736W        W59025  34.897  33.609  12.527
97737W        W59026   2.388  31.597  13.376
97738W        W59027  40.326  10.773  14.298
97739W        W59028  33.997  14.122   4.320
97740W        W59029   9.149  43.872   2.784
97741W        W59030  10.174   1.328  12.498
97742W        W59031  24.716  16.319   1.255
97743W        W59032  27.184   4.768   1.239
97744W        W59033  26.568  16.266   1.243
97745W        W59034   0.339  42.483  11.604
97746W        W59035  19.055  41.373  11.398
97747W        W59036  14.664  22.011   2.664
97748W        W59037  36.017   2.428  13.990
97749W        W59038  13.303  32.632   5.588
97750W        W59039   1.313  41.519   4.834
97751W        W59040  19.122  36.493   0.416
97752W        W59041  10.713  39.815   1.886
97753W        W59042   1.440   6.746  14.919
97754W        W59043  33.118  28.642  14.934
97755W        W59044   2.876  12.688   0.923
97756W        W59045  41.396  42.026  12.445
97757W        W59046   1.732  17.744  10.963
97758W        W59047  16.099  18.722   2.764
97759W        W59048  25.199  29.045  14.881
97760W        W59049  22.148  38.961   4.340
97761W        W59050  32.534  35.430   2.369
97762W        W59051  26.056  40.809   0.775
97763W        W59052  20.035  32.970  14.333
97764W        W59053  17.599  36.941  13.309
97765W        W59054  34.460   1.818   3.189
97766W        W59055  18.089  14.096  14.483
97767W        W59056  17.173  16.176   2.402
97768W        W59057  24.089  43.977  14.808
97769W        W59058   0.341  40.357   1.405
97770W        W59059   2.468  39.040   9.922
97771W        W59060   0.940  33.482   1.852
97772W        W59061  29.644  19.697   3.366
97773W        W59062  21.122  32.008   9.973
97774W        W59063  42.290  33.435  10.588
97775W        W59064  19.239  27.049  13.979
97776W        W59065  41.981  42.799   2.723
97777W        W59066  37.067  40.999   3.799
97778W        W59067  35.951  22.506   2.208
97779W        W59068   2.952   5.745  10.505
97780W        W59069  24.185  30.473   3.270
97781W        W59070  26.670   5.353  12.925
97782W        W59071   2.276  33.018   2.772
97783W        W59072  12.265  41.819   1.905
97784W        W59073  27.644  16.278   1.340
97785W        W59074  31.490  35.009   0.760
97786W        W59075   9.352  12.347  11.999
97787W        W59076  27.623  19.189   1.405
97788W        W59077  43.976  28.064   3.280
97789W        W59078  34.465  20.536   0.889
97790W        W59079  31.550  22.212  12.003
97791W        W59080  19.041  17.262   4.251
97792W        W59081   8.191  44.806  11.375
97793W        W59082  21.536  15.294   1.842
97794W        W59083  31.628  31.553   4.799
97795W        W59084  38.534  19.066  14.935
97796W        W59085  35.490   3.412   9.946
97797W        W59086  42.297  10.737  13.439
97798W        W59087  42.889   5.802  14.479
97799W        W59088  41.027  38.874  12.937
97800W        W59089  22.211   0.982  13.813
97801W        W59090  23.241  18.772   2.390
97802W        W59091  16.223  35.456  10.575
97803W        W59092  33.401   5.278   2.820
97804W        W59093  28.994  34.515  13.019
97805W        W59094   7.337   8.312  14.327
97806W        W59095  41.887  28.948  11.957
97807W        W59096   8.222  24.056   4.304
97808W        W59097  11.354  10.159   3.365
97809W        W59098  16.130  37.470   3.737
97810W        W59099  28.975  24.048   4.149
97811W        W59100   4.264  29.478   4.610
97812W        W59101  10.849  25.536   0.919
97813W        W59102  38.029  17.148  14.287
97814W        W59103  39.355  22.176   3.181
97815W        W59104  11.276   0.333  13.335
97816W        W59105  15.738  14.788  13.959
97817W        W59106  44.394  13.791   4.331
97818W        W59107   7.806  10.838  12.556
97819W        W59108   1.454   5.381  14.015
97820W        W59109  36.896   8.847   4.624
97821W        W59110   2.934  35.859  13.440
97822W        W59111  15.139  23.225   2.177
97823W        W59112  21.045  32.559   2.755
97824W        W59113  22.156   4.325   4.729
97825W        W59114  23.241  44.280   4.770
97826W        W59115  16.315   2.908   4.624
97827W        W59116  15.257  38.064  10.102
97828W        W59117  20.566  26.611   2.343
97829W        W59118   7.785  43.843  14.391
97830W        W59119  40.908  24.603   4.224
97831W        W59120  24.062   6.718  10.499
97832W        W59121  36.865  38.383  13.411
97833W        W59122  35.012  41.369   3.355
97834W        W59123   5.221  10.649   3.762
97835W        W59124  23.535   4.287   0.247
97836W        W59125  33.091  35.064   0.949
97837W        W59126  36.887  33.531   1.929
97838W        W59127  24.614   7.722   4.642
97839W        W59128  28.038  10.643   2.293
97840W        W59129   7.678  38.970  13.818
97841W        W59130  27.642   6.360  12.495
97842W        W59131  18.156  26.064  11.941
97843W        W59132  44.840  43.873  11.109
97844W        W59133   6.248  11.127  13.399
97845W        W59134  14.672  32.484   3.853
97846W        W59135  37.354  44.284   1.435
97847W        W59136   9.849  41.872  12.898
97848W        W59137  26.613  11.827  14.493
97849W        W59138  20.650  12.793  13.407
97850W        W59139  15.220  21.077   1.775
97851W        W59140  35.044  11.351  13.982
97852W        W59141  37.530  14.663   0.463
97853W        W59142  17.659  40.356  13.986
97854W        W59143  12.162  13.788   3.648
97855W        W59144  28.554  17.583   1.697
97856W        W59145  33.590  19.209   4.136
97857W        W59146  37.527  18.258   0.812
97858W        W59147  44.905  10.299  10.967
97859W        W59148  12.693  22.532  13.884
97860W        W59149  27.070  17.766  10.430
97861W        W59150  32.090  19.100  14.911
97862W        W59151  42.442  22.017  12.579
97863W        W59152  15.117   1.929   2.323
97864W        W59153   1.422  31.499  10.947
97865W        W59154   3.766   8.319  14.005
97866W        W59155  11.295  20.070  12.482
97867W        W59156  42.295  25.133   1.744
97868W        W59157  37.840   1.861   3.327
97869W        W59158  19.721  13.293   4.600
97870W        W59159   7.414   0.925  12.432
97871W        W59160  21.210  40.918   3.214
97872W        W59161   8.331  36.942  12.936
97873W        W59162  24.616  39.027   0.800
97874W        W59163   5.840   5.904   4.804
97875W        W59164  29.485  27.482  14.855
97876W        W59165  33.915  41.898   2.331
97877W        W59166  22.197   4.431  10.502
97878W        W59167  31.107  25.521  11.935
97879W        W59168  32.040   5.319  14.978
97880W        W59169   3.435   5.819  14.328
97881W        W59170  13.162   0.796  14.832
97882W        W59171  36.924  23.228  11.543
97883W        W59172   3.804   5.840   0.812
97884W        W59173   4.208  41.823  11.929
97885W        W59174   7.890   5.747  11.456
97886W        W59175  26.991  42.394   1.909
97887W        W59176  19.569   8.836   3.691
97888W        W59177  38.885  44.003   4.659
97889W        W59178  29.972  14.176  12.372
97890W        W59179  44.931  39.064  10.603
97891W        W59180  44.979  29.447   1.355
97892W        W59181  42.380  30.000  12.534
97893W        W59182   0.406  31.091  12.352
97894W        W59183  32.474  39.371   2.746
97895W        W59184  28.678  20.038  14.863
97896W        W59185  31.000   9.699   2.737
97897W        W59186  43.917   4.743  11.373
97898W        W59187   1.910  40.375  10.539
97899W        W59188   1.278  33.414  14.857
97900W        W59189  30.630  15.234   4.114
97901W        W59190  14.659  17.661  14.443
97902W        W59191  41.986  28.483  10.510
97903W        W59192  25.030  44.269   3.826
97904W        W59193   7.191  16.314   4.141
97905W        W59194  18.675   0.818   4.830
97906W        W59195   9.273  13.165   1.743
97907W        W59196  33.925  29.107  12.562
97908W        W59197  38.983  14.298   2.763
97909W        W59198  35.542  29.969  13.033
97910W        W59199  30.438   9.650   0.872
97911W        W59200  29.001  33.408  14.885
97912W        W59201  14.148  26.074   4.210
97913W        W59202  25.193  32.132   4.741
97914W        W59203  14.768   8.755   2.243
97915W        W59204   7.675   9.684  14.952
97916W        W59205  29.650  31.957   1.210
97917W        W59206  31.916  29.598  14.807
97918W        W59207   1.310   4.248  14.425
97919W        W59208  11.753  41.296  13.027
97920W        W59209   6.746  30.136   0.337
97921W        W59210  10.320  36.358   4.681
97922W        W59211  25.148  34.947   1.409
97923W        W59212  25.197  20.202  11.600
97924W        W59213   1.402  34.570  13.052
97925W        W59214  12.282   4.376  14.447
97926W        W59215  36.519  24.210   3.328
97927W        W59216  43.493   7.814   2.352
97928W        W59217  19.734  20.544   1.234
97929W        W59218   8.238  28.523  12.009
97930W        W59219  10.234  13.272   3.171
97931W        W59220  32.439  19.061   2.725
97932W        W59221  10.703  33.539   0.837
97933W        W59222   5.752  18.212  14.027
97934W        W59223  28.591  21.639  12.509
97935W        W59224  12.210  33.604   2.373
97936W        W59225   5.768  20.744  13.820
97937W        W59226  25.129  24.657  11.043
97938W        W59227  39.401  33.563   2.357
97939W        W59228  22.224  18.217   2.354
97940W        W59229  28.092   6.281   3.793
97941W        W59230  24.559  26.559   5.188
97942W        W59231   5.868  25.039   0.434
97943W        W59232  33.095  28.105  13.815
97944W        W59233  35.440  21.111   4.313
97945W        W59234  14.662  26.460   0.963
97946W        W59235   1.286  10.289   0.423
97947W        W59236  44.371   6.411   0.946
97948W        W59237  30.995   8.175   0.365
97949W        W59238   4.756  29.643  11.430
97950W        W59239  36.023  29.464  10.542
97951W        W59240  24.170  36.949   2.316
97952W        W59241  44.815  34.601   1.814
97953W        W59242  43.975  42.919  13.841
97954W        W59243  14.741   8.348  11.487
97955W        W59244  23.059  10.864  13.818
97956W        W59245  33.083  29.496   3.308
97957W        W59246  32.465  35.998  13.450
97958W        W59247  40.450   1.309  12.932
97959W        W59248  28.108  20.140  12.860
97960W        W59249   9.826  29.622   1.794
97961W        W59250  41.358  24.681  12.065
97962W        W59251   1.460   3.766  10.889
97963W        W59252  14.335  34.001  12.522
97964W        W59253  41.040  14.753  13.346
97965W        W59254  24.697  22.085   3.189
97966W        W59255  20.673  23.576  13.437
97967W        W59256  24.022  23.214   1.877
97968W        W59257  25.180  20.673   4.770
97969W        W59258   3.309   2.721   1.801
97970W        W59259  10.337   4.785  14.960
97971W        W59260  37.430  26.666  14.772
97972W        W59261   3.240  26.192   4.817
97973W        W59262  16.145  28.438  13.964
97974W        W59263  20.177  37.383  13.456
97975W        W59264  41.977  17.166  13.389
97976W        W59265  10.711  13.302   1.899
97977W        W59266  30.919  19.580  12.353
97978W        W59267   0.340  34.991   1.376
97979W        W59268  11.374  21.665  13.332
97980W        W59269   9.778  23.708  11.991
97981W        W59270  25.980  21.734   0.843
97982W        W59271  34.000  22.509   0.728
97983W        W59272  13.287  28.440   1.446
97984W        W59273   2.882   3.782   1.728
97985W        W59274  12.127  28.523   2.274
97986W        W59275  32.052  37.386   5.119
97987W        W59276  10.377  29.482   4.636
97988W        W59277  12.352  26.105  15.000
97989W        W59278  21.714  42.007   1.280
97990W        W59279  41.965  43.504   2.737
97991W        W59280  23.197   0.827  12.552
97992W        W59281  26.544  36.089   9.923
97993W        W59282  22.626   3.334  12.891
97994W        W59283   3.218  18.119  12.433
97995W        W59284  11.250  24.129   3.354
97996W        W59285  11.292  36.587  11.881
97997W        W59286  32.968  23.157  12.517
97998W        W59287   3.867  32.924   3.344
97999W        W59288   5.367  15.772  11.425
98000W        W59289  30.946   8.241  10.595
98001W        W59290  41.461  34.434   1.928
98002W        W59291   7.834  39.943  13.455
98003W        W59292  36.039  44.874  11.549
98004W        W59293  30.083  17.567   4.825
98005W        W59294  32.605  32.475  14.997
98006W        W59295  21.754  24.221   4.341
98007W        W59296  10.737   4.799   3.638
98008W        W59297   4.284   1.383  10.981
98009W        W59298   6.233  18.774   0.285
98010W        W59299  38.436  44.350  13.989
98011W        W59300  44.907  11.128  14.787
98012W        W59301  41.505  24.171   2.183
98013W        W59302  20.036  42.006  13.808
98014W        W59303   6.411  33.038  11.535
98015W        W59304   9.297   8.319  12.045
98016W        W59305  42.799  23.993   4.316
98017W        W59306  10.194   2.730  12.453
98018W        W59307  31.445   3.357   3.311
98019W        W59308  23.680  34.962  12.479
98020W        W59309  27.676   3.762  14.764
98021W        W59310  36.989  21.059   1.900
98022W        W59311  29.573  33.098   1.256
98023W        W59312  35.867  13.126   1.794
98024W        W59313  19.047  31.046   0.887
98025W        W59314  11.730  38.970   3.322
98026W        W59315  20.070  38.046  14.889
98027W        W59316  43.349   0.871   1.450
98028W        W59317  10.309  24.686   3.378
98029W        W59318  16.134  22.252   3.196
98030W        W59319  26.598  24.204  10.596
98031W        W59320  17.620  21.073   3.218
98032W        W59321   6.387  16.639  13.333
98033W        W59322  32.142  11.347   4.801
98034W        W59323  29.919   3.228   1.790
98035W        W59324   6.720  23.155   4.750
98036W        W59325  30.439  27.179   0.822
98037W        W59326  11.749  42.996  11.526
98038W        W59327  44.391  44.474  13.938
98039W        W59328  44.002  18.201   1.702
98040W        W59329   6.349  22.180  11.546
98041W        W59330  12.672   4.796   4.204
98042W        W59331   6.703  22.560  12.467
98043W        W59332  13.244  35.442  11.409
98044W        W59333  39.820  36.442  13.796
98045W        W59334  17.240   0.867  12.403
98046W        W59335  28.112  32.616   4.151
98047W        W59336  13.826  39.442  11.945
98048W        W59337  37.572  29.430   4.198
98049W        W59338   3.339  33.494  11.439
98050W        W59339  43.454  22.705   2.404
98051W        W59340   2.266   0.258  13.346
98052W        W59341   2.448  30.465   5.140
98053W        W59342  38.994  39.393   5.133
98054W        W59343  18.065  38.509  12.943
98055W        W59344  43.831   6.313  10.973
98056W        W59345  14.604  37.428  12.576
98057W        W59346   3.862  23.099  10.136
98058W        W59347   7.724   5.808   4.695
98059W        W59348  17.708  19.635   3.374
98060W        W59349  30.598  26.085   2.725
98061W        W59350  29.560  36.025   3.258
98062W        W59351   1.844  25.478  13.539
98063W        W59352  15.689  44.350   1.778
98064W        W59353   1.739   0.903  11.948
98065W        W59354  33.482  24.021   3.708
98066W        W59355  37.043  42.511   3.271
98067W        W59356  11.256   7.784  13.919
98068W        W59357  12.351  15.150  11.976
98069W        W59358   8.747   0.983   3.758
98070W        W59359  39.989   5.714  12.856
98071W        W59360  14.706  13.828  14.353
98072W        W59361   3.389  17.088   0.318
98073W        W59362   7.809  21.706   4.613
98074W        W59363  41.839  12.250  14.440
98075W        W59364  38.882  10.816  10.960
98076W        W59365  22.080  21.546   9.493
98077W        W59366  37.517  31.022   2.324
98078W        W59367  29.605  32.040  13.827
98079W        W59368  31.937  24.514  12.984
98080W        W59369  16.728  41.535   3.841
98081W        W59370  36.069  34.106  11.025
98082W        W59371  32.606  21.555   4.120
98083W        W59372   3.941   8.247  12.566
98084W        W59373  43.901  13.733   2.345
98085W        W59374  43.452  38.014  11.903
98086W        W59375  36.474  42.919   1.315
98087W        W59376  22.214  14.102  12.915
98088W        W59377  43.409  42.798  13.397
98089W        W59378   8.859   2.382  11.899
98090W        W59379  39.046  34.886  12.982
98091W        W59380  12.757   8.843   0.944
98092W        W59381  23.996   9.784   1.432
98093W        W59382  43.958   0.956   4.189
98094W        W59383  34.567  30.413  13.319
98095W        W59384  25.527  18.109  11.534
98096W        W59385  31.105  26.984  10.952
98097W        W59386  37.991  18.679  14.984
98098W        W59387   8.201  24.124   0.905
98099W        W59388  14.141  32.561  12.980
98100W        W59389  13.703  38.527   1.814
98101W        W59390  29.918  10.311  10.573
98102W        W59391   5.767  28.590  10.615
98103W        W59392  25.690   3.327  13.496
98104W        W59393  22.571  35.889  12.987
98105W        W59394   2.370  39.381  10.905
98106W        W59395  36.584  10.376   2.185
98107W        W59396  36.422  13.707   3.206
98108W        W59397  33.988   2.762   2.888
98109W        W59398  14.238   1.938  11.049
98110W        W59399  10.680  40.053   3.646
98111W        W59400  44.316  25.049  11.474
98112W        W59401  35.482  39.013  11.099
98113W        W59402  12.206  26.685   4.815
98114W        W59403  20.042   0.369  14.410
98115W        W59404   6.728  26.470   2.355
98116W        W59405  34.450   8.235  13.792
98117W        W59406  22.167  30.063  14.432
98118W        W59407  22.199  23.700   5.694
98119W        W59408  20.589   1.410  11.875
98120W        W59409  10.228  11.350  13.870
98121W        W59410   6.762  37.434   0.861
98122W        W59411  11.830   4.724   3.784
98123W        W59412  13.192  17.169   5.087
98124W        W59413  44.418  31.008   3.846
98125W        W59414  20.028  24.138   3.831
98126W        W59415   0.308  29.474  14.400
98127W        W59416  36.505   7.397   2.345
98128W        W59417  25.646   6.360  13.885
98129W        W59418  40.013   3.438   2.861
98130W        W59419  37.408  21.069  13.331
98131W        W59420  42.914  20.601   1.278
98132W        W59421  12.749   5.917  10.994
98133W        W59422  42.477   4.222  11.013
98134W        W59423  17.650   6.725   4.663
98135W        W59424  25.016  10.230  10.454
98136W        W59425   3.389  30.553  14.516
98137W        W59426  15.324  22.721  14.973
98138W        W59427  15.737   5.307   2.252
98139W        W59428  15.233   6.761   2.788
98140W        W59429  35.899   6.214  14.914
98141W        W59430  32.593  39.366  14.440
98142W        W59431  36.434  41.996  11.982
98143W        W59432  40.870   3.418  11.070
98144W        W59433  15.578  20.529   1.863
98145W        W59434   3.381  34.099  11.453
98146W        W59435  43.356  27.487  14.931
98147W        W59436  27.509  25.652   2.357
98148W        W59437   0.411  11.775  12.361
98149W        W59438  10.206  21.065   3.272
98150W        W59439  13.620  34.390   3.178
98151W        W59440  13.235  17.589   3.149
98152W        W59441  44.785  10.649  10.143
98153W        W59442   5.422  40.936  12.021
98154W        W59443   7.766  27.966  12.994
98155W        W59444  10.196  21.100   0.403
98156W        W59445  23.527  31.972  13.367
98157W        W59446  36.915  29.596  12.051
98158W        W59447  18.108   9.776  11.572
98159W        W59448   9.864  33.111   4.233
98160W        W59449  15.712  39.852  12.380
98161W        W59450  38.508  43.953   0.810
98162W        W59451  28.996  22.079  11.879
98163W        W59452  22.157  36.030  11.071
98164W        W59453  22.715  17.725  13.025
98165W        W59454  18.762  24.536  12.558
98166W        W59455   2.894  20.566  11.955
98167W        W59456   5.910  43.882  12.368
98168W        W59457   8.786   0.950   2.200
98169W        W59458  44.993  20.561   0.886
98170W        W59459  17.571  26.482   4.790
98171W        W59460  32.090  33.955  12.396
98172W        W59461  36.561   7.200   1.802
98173W        W59462  40.876  44.502   1.884
98174W        W59463  40.840  33.982  12.567
98175W        W59464  17.294  24.159   4.310
98176W        W59465  15.668  28.080   0.265
98177W        W59466  39.028   5.835  14.922
98178W        W59467  32.969  26.159  12.068
98179W        W59468  14.686  34.440   3.850
98180W        W59469  40.443  35.500  11.457
98181W        W59470  11.641  20.612  11.460
98182W        W59471  35.576   6.233   2.349
98183W        W59472  39.479  44.343  13.353
98184W        W59473  14.766  18.166  12.410
98185W        W59474  24.222   9.184  14.856
98186W        W59475  18.774  34.607  14.374
98187W        W59476  39.459   0.494  13.047
98188W        W59477  23.086  44.357   1.411
98189W        W59478  19.130  17.087   3.149
98190W        W59479  44.917  31.633   0.764
98191W        W59480   1.862   6.753   4.809
98192W        W59481  37.085  41.877   4.178
98193W        W59482  36.030   4.841   5.263
98194W        W59483  21.598  23.626   1.304
98195W        W59484  42.993  13.755  12.555
98196W        W59485  27.549  34.910   3.283
98197W        W59486  31.603  43.848  11.451
98198W        W59487  36.585  34.042   2.315
98199W        W59488  42.981   7.365  12.547
98200W        W59489  11.825  16.803  14.424
98201W        W59490  13.326  19.646   2.373
98202W        W59491   4.786   0.839  10.960
98203W        W59492  16.254  17.129   0.828
98204W        W59493   2.763  29.605  14.438
98205W        W59494   0.926  25.175   4.771
98206W        W59495  31.479  18.566  10.938
98207W        W59496  35.501  28.576   1.340
98208W        W59497  43.953  14.680  10.980
98209W        W59498  15.092  36.966   1.900
98210W        W59499  34.113  31.507  12.030
98211W        W59500  29.596  15.106  11.879
98212W        W59501   0.467  13.829  11.440
98213W        W59502  20.531  24.141   1.424
98214W        W59503  21.033  18.252  13.512
98215W        W59504  41.532  21.088  13.837
98216W        W59505  44.434  35.459   3.360
98217W        W59506  20.643   9.390   1.387
98218W        W59507  42.826  22.037  12.074
98219W        W59508   4.341  24.208   9.672
98220W        W59509  19.594   3.728  13.033
98221W        W59510  27.557  26.537  13.339
98222W        W59511  30.521   3.845   1.380
98223W        W59512  12.123  15.640   4.192
98224W        W59513   3.784  33.519   0.280
98225W        W59514  10.677  16.758  12.948
98226W        W59515   4.880   7.296  12.419
98227W        W59516  15.313   1.915  13.539
98228W        W59517  44.475   8.188   4.656
98229W        W59518  39.334  12.683   2.811
98230W        W59519  41.407   7.277   3.869
98231W        W59520  11.178  35.533   0.375
98232W        W59521   0.884  18.262   1.436
98233W        W59522  10.379  44.326  12.344
98234W        W59523  34.598  24.707   2.712
98235W        W59524   1.340  37.956   3.674
98236W        W59525  12.744  12.267  14.316
98237W        W59526  20.592  40.966  11.569
98238W        W59527  15.191  13.792  11.018
98239W        W59528  35.090  39.556  13.404
98240W        W59529  27.561  21.599  11.413
98241W        W59530  18.200  29.493  12.871
98242W        W59531  40.322  35.471  14.515
98243W        W59532  26.583  18.586  14.421
98244W        W59533  10.707  16.598  14.448
98245W        W59534  23.642  35.023  14.897
98246W        W59535  13.240  36.461   2.235
98247W        W59536  32.413  18.132  13.986
98248W        W59537  20.176  39.823  14.303
98249W        W59538  22.651  13.659   1.353
98250W        W59539  24.975   4.926   4.243
98251W        W59540  30.479  29.116  11.889
98252W        W59541  10.338  20.589   0.895
98253W        W59542  24.707  32.428  13.354
98254W        W59543  11.855   1.961   0.823
98255W        W59544  31.941  14.182   0.269
98256W        W59545  18.666  33.625   4.318
98257W        W59546  21.684  37.015  13.491
98258W        W59547   1.400  34.096  13.470
98259W        W59548  23.516  21.139   0.828
98260W        W59549   4.257  31.509  11.122
98261W        W59550  26.169  17.655   4.785
98262W        W59551  26.595  41.410   4.793
98263W        W59552   5.816  33.536  14.316
98264W        W59553  25.196   9.263   9.671
98265W        W59554  24.571  32.009  13.533
98266W        W59555  38.374  17.126  12.403
98267W        W59556  34.105  12.658   1.419
98268W        W59557  37.361  40.047   3.648
98269W        W59558  41.319  15.189  10.626
98270W        W59559  10.315  37.453   3.305
98271W        W59560  31.012  25.207   2.221
98272W        W59561  17.242  21.253   2.807
98273W        W59562  24.066  26.645  11.880
98274W        W59563  43.779  31.406  13.016
98275W        W59564  14.309  42.924   1.299
98276W        W59565  22.148   6.875  13.863
98277W        W59566  13.637  33.589   1.728
98278W        W59567   4.366  27.662  10.598
98279W        W59568   2.877  17.275   2.695
98280W        W59569  12.222   2.729   4.355
98281W        W59570   3.317  19.660   2.679
98282W        W59571   3.825  19.169   4.249
98283W        W59572  34.937  27.006  12.995
98284W        W59573  29.027  28.662  11.422
98285W        W59574  37.431  18.132   1.335
98286W        W59575  19.042  43.368  13.011
98287W        W59576  17.606  23.525   4.288
98288W        W59577  32.912  39.349   4.648
98289W        W59578  24.082   2.767   4.153
98290W        W59579  11.652  26.475   5.256
98291W        W59580  12.191  38.372   0.935
98292W        W59581   1.263  16.193  14.293
98293W        W59582   5.274  11.246   2.185
98294W        W59583  25.129   4.380   1.410
98295W        W59584  40.326   3.249   2.299
98296W        W59585  23.552  35.391   3.215
98297W        W59586  44.486  27.668   3.865
98298W        W59587  20.265  36.992   2.394
98299W        W59588   7.846   1.283  12.827
98300W        W59589   6.338   2.868   2.186
98301W        W59590  28.513  28.099  12.844
98302W        W59591  15.639  36.479  13.515
98303W        W59592  13.815  11.818   3.186
98304W        W59593  27.496  43.880  13.032
98305W        W59594  44.949  40.893  12.567
98306W        W59595  11.843  30.050   0.445
98307W        W59596   2.307  15.705   1.326
98308W        W59597  38.834  15.675  11.124
98309W        W59598  20.250  41.816  10.897
98310W        W59599   1.802  18.718   1.829
98311W        W59600   6.394  30.010  10.966
98312W        W59601  14.318  30.624  10.531
98313W        W59602   9.686  18.080  13.352
98314W        W59603  38.867  36.576  13.803
98315W        W59604   8.659  18.722  13.464
98316W        W59605  16.213  25.552  13.419
98317W        W59606  43.385  29.476  10.578
98318W        W59607  19.742  26.085  12.500
98319W        W59608  30.042  18.255  13.881
98320W        W59609  19.585  23.068   4.648
98321W        W59610   0.419  34.900   1.734
98322W        W59611   8.291  21.209  13.804
98323W        W59612   5.309  12.740  12.409
98324W        W59613  35.374  33.025  10.916
98325W        W59614  31.928   1.322   1.213
98326W        W59615  42.033  23.572  10.608
98327W        W59616  26.055  20.130  11.566
98328W        W59617   8.377  30.511  13.352
98329W        W59618   2.260  39.829   1.745
98330W        W59619  41.873   4.444  11.532
98331W        W59620   1.425  12.660   3.852
98332W        W59621  11.828  32.086   1.794
98333W        W59622  14.658  44.463  11.072
98334W        W59623   9.251  12.134  13.796
98335W        W59624  34.052  40.474   1.219
98336W        W59625  24.092  11.205  11.958
98337W        W59626   0.985  34.578  11.078
98338W        W59627  19.110  29.563  11.067
98339W        W59628   4.734  33.060  11.061
98340W        W59629  16.162  13.617   0.479
98341W        W59630  16.220   5.780  13.869
98342W        W59631   2.381  26.470  13.314
98343W        W59632  28.975  15.199   4.737
98344W        W59633  25.140   7.189  11.584
98345W        W59634  43.842  30.037  12.986
98346W        W59635  12.175  27.070  13.394
98347W        W59636   1.363  44.271   2.782
98348W        W59637  17.677   5.288  13.389
98349W        W59638   7.844  37.482  12.369
98350W        W59639  34.052  21.180   4.287
98351W        W59640  44.767  31.897   2.756
98352W        W59641  16.597  12.748  11.467
98353W        W59642  43.000  36.536  11.873
98354W        W59643  18.221  32.947   4.750
98355W        W59644  40.023  21.063  11.567
98356W        W59645  25.656  22.064   0.936
98357W        W59646   6.762  14.669  10.935
98358W        W59647  16.075  26.079  14.866
98359W        W59648  28.123  19.041   2.391
98360W        W59649  13.677  16.706  11.504
98361W        W59650  32.497  13.283  13.044
98362W        W59651  30.107  24.989   4.250
98363W        W59652  20.175   8.236   2.217
98364W        W59653   2.912  36.879   0.335
98365W        W59654  33.389  25.532   5.280
98366W        W59655   9.204  39.368   1.772
98367W        W59656   7.769   4.765   3.257
98368W        W59657  21.650   4.911  10.969
98369W        W59658  39.528   3.235  13.989
98370W        W59659  42.899  26.703  10.137
98371W        W59660  39.843   6.235  10.970
98372W        W59661  30.456  42.357  10.507
98373W        W59662  38.928  35.552   0.475
98374W        W59663   8.845  23.047   2.803
98375W        W59664  31.436   4.308  14.907
98376W        W59665  23.165   5.271   4.794
98377W        W59666  38.485  41.894   3.323
98378W        W59667   8.213   3.765   2.875
98379W        W59668   6.321  17.757  11.545
98380W        W59669   3.907  12.676   0.420
98381W        W59670  18.090  34.404   4.824
98382W        W59671  32.979  12.291  14.942
98383W        W59672  34.004  16.587  10.531
98384W        W59673  10.218   5.737   3.827
98385W        W59674  25.627  30.916  10.917
98386W        W59675  39.007   4.214   0.909
98387W        W59676   8.802   0.840   3.325
98388W        W59677  38.377  27.114  11.479
98389W        W59678  28.101  28.033  11.074
98390W        W59679  16.187   6.257   2.671
98391W        W59680  17.738  13.134  12.829
98392W        W59681  34.578  35.891  13.336
98393W        W59682  31.020  34.890  12.344
98394W        W59683  23.984   1.784  10.109
98395W        W59684  40.419  13.194   4.676
98396W        W59685  13.251  28.159   4.801
98397W        W59686   1.794  38.539   1.710
98398W        W59687   3.927  19.100  14.861
98399W        W59688  25.599  10.227  14.842
98400W        W59689  44.347  42.878   1.902
98401W        W59690  26.138  30.529  11.122
98402W        W59691  23.239  26.953   3.180
98403W        W59692  13.790  23.511   3.292
98404W        W59693  43.507  40.888  12.358
98405W        W59694  39.494  43.765   0.764
98406W        W59695  27.076  39.454  11.021
98407W        W59696   1.884  22.603   0.398
98408W        W59697  40.456  15.314  11.008
98409W        W59698  30.655  25.118  13.847
98410W        W59699  22.558   6.821   4.789
98411W        W59700  31.612  26.642  10.126
98412W        W59701  26.982  40.805  13.429
98413W        W59702  32.418   8.233   1.783
98414W        W59703  36.425  32.616  12.392
98415W        W59704  21.103  13.788   0.372
98416W        W59705  37.853  20.564  13.352
98417W        W59706  34.052   9.259   4.769
98418W        W59707   8.346  36.048   2.700
98419W        W59708   3.711  19.084   4.658
98420W        W59709  29.021  20.176   1.870
98421W        W59710  25.067  22.107  10.086
98422W        W59711  32.411  27.562   4.222
98423W        W59712  22.653   3.899   0.477
98424W        W59713  34.917  38.846  14.797
98425W        W59714  41.892   7.362   3.740
98426W        W59715   5.923   6.222   0.778
98427W        W59716  14.188  34.081   3.671
98428W        W59717   9.311  13.770   4.303
98429W        W59718  11.805  11.827  13.542
98430W        W59719  24.001  43.833  12.555
98431W        W59720  19.191  32.924   1.791
98432W        W59721  37.920  33.467   4.319
98433W        W59722  23.032  29.980  11.952
98434W        W59723  12.843  27.009  10.927
98435W        W59724   2.230  10.309  13.435
98436W        W59725  30.125  40.990  11.391
98437W        W59726  26.504  13.302   4.206
98438W        W59727  31.568   2.405  13.351
98439W        W59728  25.208   0.926   5.131
98440W        W59729   3.423  40.326   2.685
98441W        W59730   5.408  37.473   4.700
98442W        W59731  11.664  32.022   0.729
98443W        W59732   3.320  21.548   1.918
98444W        W59733  37.897  13.153   4.243
98445W        W59734  28.562  42.525  13.903
98446W        W59735  32.564  39.923  13.864
98447W        W59736   8.842   1.384  13.846
98448W        W59737  13.190  14.226   3.754
98449W        W59738   9.644   7.884  13.446
98450W        W59739  38.330   8.887   3.681
98451W        W59740  42.452   7.887   9.983
98452W        W59741  12.172   3.254   0.942
98453W        W59742  25.707  34.086   1.783
98454W        W59743  11.860  28.440  14.461
98455W        W59744  23.555  11.158  13.479
98456W        W59745  21.188  30.597   4.601
98457W        W59746  40.908  36.451  11.894
98458W        W59747  40.374  36.019  13.326
98459W        W59748  11.289  25.687   3.229
98460W        W59749  29.077  26.504  11.860
98461W        W59750  38.018  15.745  11.467
98462W        W59751  26.554  19.073  12.564
98463W        W59752  40.304   8.685   1.899
98464W        W59753  13.608   1.386   2.370
98465W        W59754  22.594   6.250   5.166
98466W        W59755  41.489   3.246  14.959
98467W        W59756   4.737  43.947  11.863
98468W        W59757  12.701  39.894  10.619
98469W        W59758  19.662  24.228  12.922
98470W        W59759  28.032  32.468  11.610
98471W        W59760  20.135  44.966  14.881
98472W        W59761  27.581  30.447   2.696
98473W        W59762  22.684  30.007   4.286
98474W        W59763  40.993  29.450  14.413
98475W        W59764   5.415  40.342   0.300
98476W        W59765  16.651  37.341  11.987
98477W        W59766  43.773   7.838  11.973
98478W        W59767  11.819  11.794  10.409
98479W        W59768  29.563  40.968   1.395
98480W        W59769  27.538  21.524   4.812
98481W        W59770  21.226  19.765  11.095
98482W        W59771  28.027  19.740  14.904
98483W        W59772  41.404  15.266   1.865
98484W        W59773  37.922  19.693  10.567
98485W        W59774   9.695  42.877  13.489
98486W        W59775  41.408   7.804  14.428
98487W        W59776  32.085  36.430   4.285
98488W        W59777  21.719  14.291  13.988
98489W        W59778  34.030   4.718   1.893
98490W        W59779  42.288  22.210  11.582
98491W        W59780  18.231  28.152   4.238
98492W        W59781  26.083   4.376   3.221
98493W        W59782  35.486  30.476   2.830
98494W        W59783  14.600  26.593   1.445
98495W        W59784  21.633   3.869   2.766
98496W        W59785   6.194   1.866  13.417
98497W        W59786  12.623  11.628  14.023
98498W        W59787  21.732  40.041   1.824
98499W        W59788  16.673  11.329   1.767
98500W        W59789  42.316  44.419   0.333
98501W        W59790  44.820  24.150   3.817
98502W        W59791  44.301  23.492  12.452
98503W        W59792  39.915  39.353  14.499
98504W        W59793  39.899  38.926  13.862
98505W        W59794  30.523  35.388   0.726
98506W        W59795  20.763  42.492  11.909
98507W        W59796  40.385  29.129   3.632
98508W        W59797  35.492   8.380   2.417
98509W        W59798  14.229  22.114   1.801
98510W        W59799  44.391  23.004   2.201
98511W        W59800   3.275   6.310   3.150
98512W        W59801   9.193  16.198   0.918
98513W        W59802  26.968   4.884   0.265
98514W        W59803   0.823  31.454   4.635
98515W        W59804  29.619  26.136   4.296
98516W        W59805  42.872  21.659  10.904
98517W        W59806  25.100  12.723   1.910
98518W        W59807  24.553   3.447  10.496
98519W        W59808  19.188   3.234   0.334
98520W        W59809   0.781  26.640  14.339
98521W        W59810  17.267  26.489   4.294
98522W        W59811  41.002   6.262   2.707
98523W        W59812  40.917  20.150  14.404
98524W        W59813  34.018  24.629  13.465
98525W        W59814  27.459   8.384  11.440
98526W        W59815  23.130  35.896  10.541
98527W        W59816  31.008   6.357   2.337
98528W        W59817  39.409  18.731   5.114
98529W        W59818  35.406  33.488  10.155
98530W        W59819  25.701  13.231  11.597
98531W        W59820  38.057  38.449  13.798
98532W        W59821   8.688  31.051  13.336
98533W        W59822  21.567  31.928   0.328
98534W        W59823  31.002  38.412  11.596
98535W        W59824   0.838  24.092  10.942
98536W        W59825  39.517  29.137   4.638
98537W        W59826   8.760   6.877  12.028
98538W        W59827  35.881  41.345  13.013
98539W        W59828  23.008  42.023  10.410
98540W        W59829  28.974  20.590  10.542
98541W        W59830  27.517  17.279   1.860
98542W        W59831  34.981  26.627  13.053
98543W        W59832   8.776  27.091  10.502
98544W        W59833  43.828   2.812   1.429
98545W        W59834   9.804  34.596   4.807
98546W        W59835  44.436  28.441  11.554
98547W        W59836  42.867  12.664  14.886
98548W        W59837  20.057   5.852   3.742
98549W        W59838   4.303  23.670  10.411
98550W        W59839  13.731   7.857   1.926
98551W        W59840  33.461  14.730  12.480
98552W        W59841  38.490  16.311   3.387
98553W        W59842  25.674   7.299   1.337
98554W        W59843  17.123  24.702  13.872
98555W        W59844  18.209  39.845  14.851
98556W        W59845   8.886  43.943   1.282
98557W        W59846  29.929   0.319   2.875
98558W        W59847  43.279  38.367  10.994
98559W        W59848  23.574  15.085  13.522
98560W        W59849  34.866  25.148   5.322
98561W        W59850  36.546  28.183   0.424
98562W        W59851  44.285   4.898  11.468
98563W        W59852   7.742  15.164  13.413
98564W        W59853  18.785  31.033   1.417
98565W        W59854   5.346  14.728   0.788
98566W        W59855  21.572  23.129  11.454
98567W        W59856  12.735  44.974   1.905
98568W        W59857  14.773  19.141   2.748
98569W        W59858  39.032   2.322   2.756
98570W        W59859  41.376  13.219  11.445
98571W        W59860  41.523   1.826  14.513
98572W        W59861  40.003  27.449   0.333
98573W        W59862  34.870  15.771   1.765
98574W        W59863  40.881  42.502  12.354
98575W        W59864  15.814  35.944  11.600
98576W        W59865  26.186   0.445   0.819
98577W        W59866  32.428   7.342   9.922
98578W        W59867  34.048  23.655   0.349
98579W        W59868   5.741   5.795  11.923
98580W        W59869  32.928  16.285   3.277
98581W        W59870  26.118  29.057   1.748
98582W        W59871  42.962  27.573   0.245
98583W        W59872  24.512  29.533   4.672
98584W        W59873  43.856  33.123   3.355
98585W        W59874  43.422  42.969   4.116
98586W        W59875  31.953  42.450   0.789
98587W        W59876  41.970   1.861  14.470
98588W        W59877  35.943  33.585  14.502
98589W        W59878  16.297   2.318   4.198
98590W        W59879  32.092  44.272  14.813
98591W        W59880  44.932  38.391   2.296
98592W        W59881  28.479   7.354  11.609
98593W        W59882  22.083  28.446  13.327
98594W        W59883  14.799   8.370   3.807
98595W        W59884  44.863   5.395   2.795
98596W        W59885   9.671  28.533  12.938
98597W        W59886  31.146   0.912   2.384
98598W        W59887   5.242  37.009   2.407
98599W        W59888  11.771  11.331  11.489
98600W        W59889  27.573  23.012  14.373
98601W        W59890  43.998  30.642  10.965
98602W        W59891  30.937  21.714   1.407
98603W        W59892  24.581  10.194  13.963
98604W        W59893  28.505  18.209   3.196
98605W        W59894  30.918   2.757   0.839
98606W        W59895  25.996  40.929  11.381
98607W        W59896   4.701   3.734   5.081
98608W        W59897  16.660  42.281  13.984
98609W        W59898  11.759  11.286   1.901
98610W        W59899  32.537   4.271   5.107
98611W        W59900  41.294  23.132   1.928
98612W        W59901  32.427  30.081  12.531
98613W        W59902  25.130  19.621  12.927
98614W        W59903  31.461  26.546  10.560
98615W        W59904   7.264  28.144  12.873
98616W        W59905  29.593  24.551   4.769
98617W        W59906   3.951  20.648  14.896
98618W        W59907   0.333  38.533  12.411
98619W        W59908  36.420   0.935  11.514
98620W        W59909  20.622   3.823   4.218
98621W        W59910  10.211  21.739  13.905
98622W        W59911  25.548   1.838  11.390
98623W        W59912  42.489  28.119  14.292
98624W        W59913  25.053  37.841   4.737
98625W        W59914  24.482   7.854   9.936
98626W        W59915  17.614   9.822   3.313
98627W        W59916  43.360  39.953  10.611
98628W        W59917   4.268  35.563   2.338
98629W        W59918  37.357  25.064  10.533
98630W        W59919  10.651  19.205  13.977
98631W        W59920   8.250  36.057  14.395
98632W        W59921  26.975   0.751  13.309
98633W        W59922  13.794  12.197  12.973
98634W        W59923  21.209  14.216  12.029
98635W        W59924  21.708  10.861   3.745
98636W        W59925  44.842  30.647   2.860
98637W        W59926  43.861  44.773   3.303
98638W        W59927  26.193  23.188  11.925
98639W        W59928  10.865  37.477   1.427
98640W        W59929  12.723  38.878   4.655
98641W        W59930  26.699  26.048   2.331
98642W        W59931   3.442  16.788   1.730
98643W        W59932  16.285  34.462   4.808
98644W        W59933  30.620  24.657   2.342
98645W        W59934   0.936  27.633   2.666
98646W        W59935  32.484   1.345   4.664
98647W        W59936  27.638  43.426   0.956
98648W        W59937   2.448  23.609   0.858
98649W        W59938  25.644   0.319   3.384
98650W        W59939  34.943  14.793  13.408
98651W        W59940  34.487   5.397   2.318
98652W        W59941  30.618  30.985   5.134
98653W        W59942  36.521  15.772  11.459
98654W        W59943   1.266  30.015  10.643
98655W        W59944  18.222  16.233  14.388
98656W        W59945  26.189   2.840   1.922
98657W        W59946  23.525  30.126  12.395
98658W        W59947  17.756  17.721  12.084
98659W        W59948  27.500   1.286  13.975
98660W        W59949  39.370   1.243  14.943
98661W        W59950   8.734  24.989   1.358
98662W        W59951   2.306  35.991  14.339
98663W        W59952  39.019  32.478   2.799
98664W        W59953   7.288  26.683  12.966
98665W        W59954  28.606   9.252  13.865
98666W        W59955   8.860  32.034   2.376
98667W        W59956  44.760  38.984   3.630
98668W        W59957  44.973  30.130   3.254
98669W        W59958  35.074  43.901  13.333
98670W        W59959  40.874  26.968  14.449
98671W        W59960  19.723  20.664   4.148
98672W        W59961  12.304  42.477  11.122
98673W        W59962  42.963  19.153  11.576
98674W        W59963  35.444  24.151   3.769
98675W        W59964   8.870  37.941  13.903
98676W        W59965  41.986  42.491   4.613
98677W        W59966   8.283   2.869  12.903
98678W        W59967  25.159  11.191   1.712
98679W        W59968  32.047   5.359  13.915
98680W        W59969  35.975  41.989   2.776
98681W        W59970  37.857  29.546   4.297
98682W        W59971   3.937  42.302   1.795
98683W        W59972   0.827   3.853   1.720
98684W        W59973   5.418   8.888  10.975
98685W        W59974  28.515  39.493  13.451
98686W        W59975  41.330  10.196   5.271
98687W        W59976  23.697   7.262  12.505
98688W        W59977   9.870  40.354   4.249
98689W        W59978  29.540  40.364  12.997
98690W        W59979  17.150   3.325  13.958
98691W        W59980  22.503  30.646  11.567
98692W        W59981   7.203  26.578   0.449
98693W        W59982   3.316  36.413  12.943
98694W        W59983   7.357  12.785   4.701
98695W        W59984  35.016  23.587   0.804
98696W        W59985  18.070  38.348  10.555
98697W        W59986  10.363  10.237  11.058
98698W        W59987  14.771  11.236  13.912
98699W        W59988  26.955   6.738  13.921
98700W        W59989  27.047  17.602  14.966
98701W        W59990  39.409   2.827  12.033
98702W        W59991  27.094  27.004   3.327
98703W        W59992  24.997   7.222   1.760
98704W        W59993  10.174  40.466   5.309
98705W        W59994  35.073  37.567   0.393
98706W        W59995  28.183   3.829  12.535
98707W        W59996   4.348  20.613  13.047
98708W        W59997  15.175   8.196   1.437
98709W        W59998  39.319   1.848   2.203
98710W        W59999   3.388  28.612  11.493
98711W        W60000   4.268  11.243   0.757
98712W        W60001   4.939  24.175   4.766
98713W        W60002  27.674  18.133  13.040
98714W        W60003  14.627   2.229  13.866
98715W        W60004  42.394  30.515  14.956
98716W        W60005  33.591  18.554  11.926
98717W        W60006  15.654  27.992   1.336
98718W        W60007   4.812  12.162   4.257
98719W        W60008  18.181  18.100  10.609
98720W        W60009   5.753   2.956  10.462
98721W        W60010   1.286   9.843   3.355
98722W        W60011  14.103  21.628   1.722
98723W        W60012  11.696  23.676  14.924
98724W        W60013  38.843  31.014   1.781
98725W        W60014  31.961   7.828   3.246
98726W        W60015  17.629  18.122  13.420
98727W        W60016   0.757  42.465  13.460
98728W        W60017   1.921  12.712   0.276
98729W        W60018   4.396  39.454  10.982
98730W        W60019  39.047  30.922   1.344
98731W        W60020  26.138  35.404  10.906
98732W        W60021  29.588   7.902  12.444
98733W        W60022  21.609  39.886   3.339
98734W        W60023  23.185  10.754  14.477
98735W        W60024  16.603   7.193   4.263
98736W        W60025  31.911  27.965   4.263
98737W        W60026  35.957  35.376   0.911
98738W        W60027   1.477  33.089   4.213
98739W        W60028   3.393  13.726  13.402
98740W        W60029  44.359  14.095  11.469
98741W        W60030  39.524   2.871   2.401
98742W        W60031  28.541  40.975  12.453
98743W        W60032  13.227   1.411  12.077
98744W        W60033   4.282  40.500   1.911
98745W        W60034   9.159  24.680   0.903
98746W        W60035  19.071  35.995   1.786
98747W        W60036  14.138  20.168   2.252
98748W        W60037  23.122  28.991  14.780
98749W        W60038  27.101   2.408   0.849
98750W        W60039   3.352  29.925  10.509
98751W        W60040   8.796  23.523  11.074
98752W        W60041  44.397  17.656   9.991
98753W        W60042  22.180  30.134   1.792
98754W        W60043  15.604  23.007   0.406
98755W        W60044  39.367  21.245   0.871
98756W        W60045  10.738  34.973  10.600
98757W        W60046  28.555   2.430  10.966
98758W        W60047  12.768  32.402  11.522
98759W        W60048  31.443  12.254   1.788
98760W        W60049  39.026  32.444   4.281
98761W        W60050  20.199  14.129   2.377
98762W        W60051  28.955  37.466   0.857
98763W        W60052  22.580  38.397   3.804
98764W        W60053  32.459  39.935   1.799
98765W        W60054   0.750  19.765  10.531
98766W        W60055  36.062   9.683   1.373
98767W        W60056  38.547  16.642   2.852
98768W        W60057  11.356  28.540  14.336
98769W        W60058  20.720   2.257   0.365
98770W        W60059  25.680   7.686   1.407
98771W        W60060  44.416  26.030  12.051
98772W        W60061  17.566  11.303   2.892
98773W        W60062  21.193  18.554   3.639
98774W        W60063   9.364  27.051  13.873
98775W        W60064  13.337  40.395   5.251
98776W        W60065  28.570  18.283   5.297
98777W        W60066  11.198  39.840   0.347
98778W        W60067  35.082  32.447   0.328
98779W        W60068   8.810  17.240   2.838
98780W        W60069  40.303   3.226   3.167
98781W        W60070  35.930  29.160  11.984
98782W        W60071  36.470  10.326   2.682
98783W        W60072  36.561  44.816  11.098
98784W        W60073  29.148  13.303   4.285
98785W        W60074  40.945  40.403   0.359
98786W        W60075   3.230  43.348   1.289
98787W        W60076   6.799   6.398   4.239
98788W        W60077   4.878  32.598  10.987
98789W        W60078  43.395  37.998   0.811
98790W        W60079   8.654  30.514  12.083
98791W        W60080  25.149   8.794  11.383
98792W        W60081  44.371  37.484   1.330
98793W        W60082   1.479  37.375  12.957
98794W        W60083  22.184  16.154  14.397
98795W        W60084  13.164  26.091   1.428
98796W        W60085  35.477   3.783   9.594
98797W        W60086   5.307   5.436   1.810
98798W        W60087  39.061  18.630   1.906
98799W        W60088   8.288  38.035  10.622
98800W        W60089   6.262  23.992  12.902
98801W        W60090   8.361  23.022   1.409
98802W        W60091  41.824   8.350  14.350
98803W        W60092  20.557  44.386   0.272
98804W        W60093  31.137  11.250   4.264
98805W        W60094  12.750   6.331  11.099
98806W        W60095  20.210  14.319   4.312
98807W        W60096  33.118  17.785  12.950
98808W        W60097  16.318  12.244   3.181
98809W        W60098  36.582   6.886   1.307
98810W        W60099   7.320  31.512   4.252
98811W        W60100  44.381  21.521   3.733
98812W        W60101  34.905  44.824  11.050
98813W        W60102  24.112  25.156  13.014
98814W        W60103   2.866  11.693   2.210
98815W        W60104  30.955   5.786  13.315
98816W        W60105  35.550  13.625   3.709
98817W        W60106  39.929   0.344   2.315
98818W        W60107  38.999  13.261  14.516
98819W        W60108   7.694   1.466   2.899
98820W        W60109  36.521  28.153  12.025
98821W        W60110  33.014  39.542  14.308
98822W        W60111  13.177  40.917   4.153
98823W        W60112   7.885  35.929  14.433
98824W        W60113  34.098   1.376   2.400
98825W        W60114  10.689  22.582   4.161
98826W        W60115   6.186  29.144   2.194
98827W        W60116  19.245  21.064   0.463
98828W        W60117  32.994   8.261   3.345
98829W        W60118   7.337  29.623  12.376
98830W        W60119  16.709  17.661  14.514
98831W        W60120  13.188  31.432   3.863
98832W        W60121  20.664  32.052   0.925
98833W        W60122  23.674  41.415  12.084
98834W        W60123  31.622  19.214  14.430
98835W        W60124  36.515  40.957  12.899
98836W        W60125  39.477  12.714   0.795
98837W        W60126   7.793  41.478   3.786
98838W        W60127  28.083  15.105  10.431
98839W        W60128   0.472  37.546   3.364
98840W        W60129  19.256  24.062   2.867
98841W        W60130  25.617   9.682   1.822
98842W        W60131  35.965   0.826  11.569
98843W        W60132  31.524  38.829   0.738
98844W        W60133   6.807  28.579   2.356
98845W        W60134  25.051  41.320  13.523
98846W        W60135  18.596  18.634  12.070
98847W        W60136  42.987  24.149  12.459
98848W        W60137  41.363  40.395   3.387
98849W        W60138  41.029  17.302   5.178
98850W        W60139  31.606   7.725  12.966
98851W        W60140  40.947  41.322   0.934
98852W        W60141  29.577  12.345  14.777
98853W        W60142  38.456  27.095   2.770
98854W        W60143  20.636  10.801  13.433
98855W        W60144  20.232   9.298  10.916
98856W        W60145  32.059   8.310  11.084
98857W        W60146  42.825   4.427  13.870
98858W        W60147  31.106  41.384   4.634
98859W        W60148   6.875   2.889   1.776
98860W        W60149  36.579  14.832   1.327
98861W        W60150   6.223  40.898   2.871
98862W        W60151  28.024  14.769  13.391
98863W        W60152  18.177   3.918   2.320
98864W        W60153  19.042  13.685  14.813
98865W        W60154  25.215  44.442  14.826
98866W        W60155  27.460  39.914   0.336
98867W        W60156  14.168  33.016  12.858
98868W        W60157  15.680  40.900  14.004
98869W        W60158  33.509  43.389   0.454
98870W        W60159   6.297  40.811   1.295
98871W        W60160  38.368  33.494  13.810
98872W        W60161   2.319   2.856  10.520
98873W        W60162  27.449   6.895   5.113
98874W        W60163  25.509  36.016   1.892
98875W        W60164   1.793  22.582   0.887
98876W        W60165  43.768  17.264  11.526
98877W        W60166  14.281  13.190  10.936
98878W        W60167  36.974   5.220   4.341
98879W        W60168   8.768   2.247  10.523
98880W        W60169  16.801  27.174  12.888
98881W        W60170   1.367  40.375  11.475
98882W        W60171  29.091  32.922  11.121
98883W        W60172  40.009  37.541   4.799
98884W        W60173  23.104  20.567   2.274
98885W        W60174  23.731  44.395  13.961
98886W        W60175  29.075   2.414  10.598
98887W        W60176  25.010  35.022  11.518
98888W        W60177  27.586  38.066  11.419
98889W        W60178   0.263  10.866   0.415
98890W        W60179  20.565   4.702   1.227
98891W        W60180  33.432  31.051   3.797
98892W        W60181   5.810   6.403  12.057
98893W        W60182   0.408  44.838   4.135
98894W        W60183  26.477  43.939  10.942
98895W        W60184  34.996   7.813   3.827
98896W        W60185  42.360   1.941  12.064
98897W        W60186   2.323  14.156  12.363
98898W        W60187  38.392   7.701   2.362
98899W        W60188  26.026   4.793  14.974
98900W        W60189  20.581  38.532  11.530
98901W        W60190  30.463   8.847   2.721
98902W        W60191  38.513  43.948  14.313
98903W        W60192  40.876   0.790   0.412
98904W        W60193  11.181  11.187   3.630
98905W        W60194  39.407   6.236   2.216
98906W        W60195  17.775   1.246   1.858
98907W        W60196  21.550  14.644   1.411
98908W        W60197   4.862   6.691  13.902
98909W        W60198   3.217  35.969  13.497
98910W        W60199  43.305   8.269   0.328
98911W        W60200   1.462  36.510  12.574
98912W        W60201  36.030  23.133  11.593
98913W        W60202  37.573  27.190  11.387
98914W        W60203  44.497  36.591   1.805
98915W        W60204  26.533  28.008   5.304
98916W        W60205  26.119  37.355   2.774
98917W        W60206  38.064  12.192  12.990
98918W        W60207  17.636  43.783  14.925
98919W        W60208  14.340  21.631   2.416
98920W        W60209  37.065  44.839   3.269
98921W        W60210  35.591  23.035   0.733
98922W        W60211  29.094   1.339   1.744
98923W        W60212  37.554  40.405   3.797
98924W        W60213  11.313  42.821  14.770
98925W        W60214  40.358  37.896   0.243
98926W        W60215   2.965  13.269   3.770
98927W        W60216  29.174  10.379  10.440
98928W        W60217   8.231  31.983   4.171
98929W        W60218   1.447  14.793  11.112
98930W        W60219  29.582   1.892  14.455
98931W        W60220  24.115  43.336  11.544
98932W        W60221   4.379  25.051   3.375
98933W        W60222  36.419  42.805   3.180
98934W        W60223   7.171  20.106  12.517
98935W        W60224   8.260  37.841   4.228
98936W        W60225  33.025  12.339  12.047
98937W        W60226  35.986   8.670  11.912
98938W        W60227  14.691   7.381   3.247
98939W        W60228  36.518   2.724  12.447
98940W        W60229  13.120  18.126  14.849
98941W        W60230   5.245  32.580  12.545
98942W        W60231  27.052  25.486   3.367
98943W        W60232  40.799   5.820  12.884
98944W        W60233  27.632   8.692  11.985
98945W        W60234   0.320  39.855   0.308
98946W        W60235  12.750  39.841   0.288
98947W        W60236  42.444  42.392   2.255
98948W        W60237  27.561  11.754  14.759
98949W        W60238  40.483  13.250  14.423
98950W        W60239  28.012   7.667   5.164
98951W        W60240  33.131  31.906  11.402
98952W        W60241  17.665  42.792  14.885
98953W        W60242  17.066  14.160   1.297
98954W        W60243  16.785  11.867  13.854
98955W        W60244  38.332  39.914  12.858
98956W        W60245  12.204   6.420   2.678
98957W        W60246   5.726  24.557   3.251
98958W        W60247  41.930  37.919   1.828
98959W        W60248  25.202  31.451   0.327
98960W        W60249  21.724  44.497   4.145
98961W        W60250   7.890  24.146  11.532
98962W        W60251  33.061  21.589   0.733
98963W        W60252  33.461  22.685  10.042
98964W        W60253   7.904  27.677   9.930
98965W        W60254  41.936  34.873   3.306
98966W        W60255  34.554  34.586  11.591
98967W        W60256  33.994  17.617   2.261
98968W        W60257  32.463  42.431   0.871
98969W        W60258  18.710  12.318   0.912
98970W        W60259  41.007   6.208   4.177
98971W        W60260   2.759   9.674  10.909
98972W        W60261  34.981   9.743   4.599
98973W        W60262  27.518  31.531   4.205
98974W        W60263  20.677  33.380  11.127
98975W        W60264  24.135  14.331   2.218
98976W        W60265  12.205  37.936   4.817
98977W        W60266   5.802   0.272  12.461
98978W        W60267  29.609  26.499   0.388
98979W        W60268   5.207  41.363  12.983
98980W        W60269   8.671  10.802   1.825
98981W        W60270  40.500   1.462  14.482
98982W        W60271  11.164  14.254   2.863
98983W        W60272  26.047  13.143  13.814
98984W        W60273   5.809   5.866   1.267
98985W        W60274  12.182  43.012   4.597
98986W        W60275  24.534  11.687   2.241
98987W        W60276  41.937   4.437  13.936
98988W        W60277  39.932  24.006   3.357
98989W        W60278  12.221   9.740   3.313
98990W        W60279   9.233  42.368  13.357
98991W        W60280  32.489  25.123   2.363
98992W        W60281   7.216   3.949   2.331
98993W        W60282  10.352  28.564  14.913
98994W        W60283  44.981  25.112   2.266
98995W        W60284  22.538  13.162   4.249
98996W        W60285  33.107  40.807  14.403
98997W        W60286   5.773   6.293   1.855
98998W        W60287  10.138  16.592   0.308
98999W        W60288  16.228  29.482  11.416
99000W        W60289  27.185  37.546  11.405
99001W        W60290  42.411   3.799   1.728
99002W        W60291  26.539   2.451  11.504
99003W        W60292  14.753   1.825   0.264
99004W        W60293  39.519  37.861  13.329
99005W        W60294  10.208  10.210   4.746
99006W        W60295  23.511  15.663  12.873
99007W        W60296  14.815  14.658  11.531
99008W        W60297  22.190  39.449   0.729
99009W        W60298  28.023  20.109  13.509
99010W        W60299  24.220  40.869   1.832
99011W        W60300   2.783   2.338  10.960
99012W        W60301  15.580  31.902   2.331
99013W        W60302   6.287  23.101   0.738
99014W        W60303   8.762  33.882  12.073
99015W        W60304  38.027  13.244   2.899
99016W        W60305  26.618  10.148   4.798
99017W        W60306   0.388   3.271   3.189
99018W        W60307  38.868  26.667   1.796
99019W        W60308  13.655  10.652  14.858
99020W        W60309  30.106  10.726  12.860
99021W        W60310  26.602  17.288  12.938
99022W        W60311  44.830  21.105  13.009
99023W        W60312  41.367  38.337  12.846
99024W        W60313   2.310   5.240   0.440
99025W        W60314  42.345  23.072   2.233
99026W        W60315  30.123   5.357  10.559
99027W        W60316  31.138   9.735   1.386
99028W        W60317  41.483  39.857  10.518
99029W        W60318  42.792  34.465  13.059
99030W        W60319  44.437  12.731  10.983
99031W        W60320  44.313   6.235   3.153
99032W        W60321  42.965  32.035  14.470
99033W        W60322  40.425  31.992  12.417
99034W        W60323  44.831  23.517   1.211
99035W        W60324   9.691  44.957  12.055
99036W        W60325  35.014  14.597   3.635
99037W        W60326  24.206  22.128  13.013
99038W        W60327  11.844  19.719   1.326
99039W        W60328  21.578   5.777   4.252
99040W        W60329   9.339  28.509   2.846
99041W        W60330  33.593  12.297  13.508
99042W        W60331  20.693  36.578  14.897
99043W        W60332  35.566   5.827   1.440
99044W        W60333   8.166  15.137   1.935
99045W        W60334  14.833  17.640  14.025
99046W        W60335   8.799  41.802   3.245
99047W        W60336   6.854  17.569  12.426
99048W        W60337   6.861   9.735   1.853
99049W        W60338   9.254   8.843  14.280
99050W        W60339  13.737  23.060  13.512
99051W        W60340  35.016   2.415  10.496
99052W        W60341  31.928  38.826  11.542
99053W        W60342  10.769  37.934   0.898
99054W        W60343  25.051   4.337  11.896
99055W        W60344  30.004  20.567  12.544
99056W        W60345  39.477  30.119   1.868
99057W        W60346   7.857  41.331   2.225
99058W        W60347  21.511  33.125  13.020
99059W        W60348   9.184  10.196  11.537
99060W        W60349   2.282  34.548   1.792
99061W        W60350  17.753   9.380  13.856
99062W        W60351  39.536  34.561   3.217
99063W        W60352  30.061   2.771   2.275
99064W        W60353  30.575  27.146   2.194
99065W        W60354  37.404   0.408   2.186
99066W        W60355  24.527  14.758  12.933
99067W        W60356  19.088  13.638  13.814
99068W        W60357   2.415  38.984   0.745
99069W        W60358  18.561  30.602  12.408
99070W        W60359   0.924   7.882   1.403
99071W        W60360  27.172  42.515  13.010
99072W        W60361   6.922  42.983   5.181
99073W        W60362  36.879   5.711  13.965
99074W        W60363   3.413  21.558  14.375
99075W        W60364   3.922  28.619  14.948
99076W        W60365  33.624  37.059   3.232
99077W        W60366  17.301  32.609   4.315
99078W        W60367  15.685  44.828  13.865
99079W        W60368  19.710   1.440  14.387
99080W        W60369  33.026  11.804  14.783
99081W        W60370   9.656  21.183   2.821
99082W        W60371  42.506   5.853   1.329
99083W        W60372  23.565   6.776  12.974
99084W        W60373  31.930  17.678  11.004
99085W        W60374  12.787  33.109   3.646
99086W        W60375   1.914  42.360  13.461
99087W        W60376  24.019   9.825  14.782
99088W        W60377  44.809  36.446   3.214
99089W        W60378  19.656   4.235   4.604
99090W        W60379  43.866  43.406   4.780
99091W        W60380  18.205  34.021  12.481
99092W        W60381  27.186  40.338  12.964
99093W        W60382   9.768   6.865   1.339
99094W        W60383  26.604  41.432   4.211
99095W        W60384  29.592  18.204   0.846
99096W        W60385  20.725  23.595  14.505
99097W        W60386  14.776  18.558  13.865
99098W        W60387  12.297  39.344  12.561
99099W        W60388  37.917  22.657   0.780
99100W        W60389   9.653  42.325  11.910
99101W        W60390  34.034  26.670  14.963
99102W        W60391  15.789  32.506   4.836
99103W        W60392   0.763  12.140  12.855
99104W        W60393   1.863  24.993  10.891
99105W        W60394  19.617  25.551   1.449
99106W        W60395  25.511  37.336   0.288
99107W        W60396  33.607  21.669  12.044
99108W        W60397  24.533  27.464  14.480
99109W        W60398   5.283  21.753  12.058
99110W        W60399  28.649  24.667   2.357
99111W        W60400  22.184  29.934  11.950
99112W        W60401  31.605  32.563   2.179
99113W        W60402  41.847  41.879  10.907
99114W        W60403  20.270  20.534  10.944
99115W        W60404  41.957  22.208  14.018
99116W        W60405   7.882  28.533   4.796
99117W        W60406  22.052  35.450  12.075
99118W        W60407   2.868  24.624   3.201
99119W        W60408  35.096  38.981   4.608
99120W        W60409  25.640  19.244  13.924
99121W        W60410  33.450  27.552  13.922
99122W        W60411  26.484  44.939  12.421
99123W        W60412  34.580  31.439  13.056
99124W        W60413  29.956   7.287   4.710
99125W        W60414  15.669  38.468  12.906
99126W        W60415  39.408  39.387  11.909
99127W        W60416   7.796   4.891   0.786
99128W        W60417  39.818  11.367   0.475
99129W        W60418  11.336  10.840   4.129
99130W        W60419  43.311  20.586  10.967
99131W        W60420  24.595   2.805   3.196
99132W        W60421  29.031  40.394   0.288
99133W        W60422  22.128  10.702  14.436
99134W        W60423   4.832   6.856   1.729
99135W        W60424  35.951  43.277   1.376
99136W        W60425   6.362  28.629  13.987
99137W        W60426  12.648  30.498  14.412
99138W        W60427  19.737  13.831   3.867
99139W        W60428  37.917  22.182  13.010
99140W        W60429  26.555  41.876  14.433
99141W        W60430   0.396  41.836   1.881
99142W        W60431   1.800  12.117  10.619
99143W        W60432  42.352  27.967   0.312
99144W        W60433   2.286  44.878  13.051
99145W        W60434  41.860  24.540   1.727
99146W        W60435   6.190  25.142  14.352
99147W        W60436   4.791  17.670  10.445
99148W        W60437  34.390  32.958   2.833
99149W        W60438  43.993  24.660   4.296
99150W        W60439  10.659  14.640  11.378
99151W        W60440  10.663   3.376  12.408
99152W        W60441  44.830  44.422   0.788
99153W        W60442  43.963  40.835  11.557
99154W        W60443   4.234  21.181  12.395
99155W        W60444  40.831  40.837   4.323
99156W        W60445   9.362  18.208   1.223
99157W        W60446  33.624  34.494  12.018
99158W        W60447  29.172  31.087   3.176
99159W        W60448  30.910  20.575   0.442
99160W        W60449   3.929   0.951   2.868
99161W        W60450  35.516  35.005   4.650
99162W        W60451  17.075  23.618  10.924
99163W        W60452  32.909   6.422  14.914
99164W        W60453  34.116  43.921  14.399
99165W        W60454  21.159  23.622   4.684
99166W        W60455  42.901  18.140  14.279
99167W        W60456   9.355   2.777   1.750
99168W        W60457  35.074  25.035  13.504
99169W        W60458  42.472  28.079   4.198
99170W        W60459  31.922  24.500  11.528
99171W        W60460   7.708   1.471   2.392
99172W        W60461  33.996  10.238  11.499
99173W        W60462  24.019  12.737  10.898
99174W        W60463  30.468  26.543  13.929
99175W        W60464  10.170  38.837  14.339
99176W        W60465  40.509  21.055  14.392
99177W        W60466  20.716  19.692   2.214
99178W        W60467  38.992   2.418   3.736
99179W        W60468  15.668  29.931   3.292
99180W        W60469  15.810  25.084   2.378
99181W        W60470  33.608   9.700   2.740
99182W        W60471   6.743  44.896  14.985
99183W        W60472  12.331   3.892  13.338
99184W        W60473  18.676  37.028   0.790
99185W        W60474  21.057  17.277   5.132
99186W        W60475  33.619  13.328   4.659
99187W        W60476  39.347   3.391  12.895
99188W        W60477  29.933   7.885  14.451
99189W        W60478  37.906  27.610  11.906
99190W        W60479   1.322  37.458   3.778
99191W        W60480  39.964  31.455   3.728
99192W        W60481  28.468  29.014  10.909
99193W        W60482  43.427  43.925  12.856
99194W        W60483  34.433   2.472  10.635
99195W        W60484  40.327  37.069  11.599
99196W        W60485  28.061   8.883   0.752
99197W        W60486  27.631   7.308  14.975
99198W        W60487  31.535  17.696   3.858
99199W        W60488  27.109   2.740   1.421
99200W        W60489  36.495  27.525   2.847
99201W        W60490  32.104  14.101  10.912
99202W        W60491  20.135  20.062  12.416
99203W        W60492  18.752  41.442  14.480
99204W        W60493  32.009  35.443  14.876
99205W        W60494   2.231  13.612   1.310
99206W        W60495  11.830   9.379  10.531
99207W        W60496  43.005  21.545   3.631
99208W        W60497  23.229  37.846  13.964
99209W        W60498  23.019  13.641   4.740
99210W        W60499  30.651  36.962   4.332
99211W        W60500   2.414  42.851  14.417
99212W        W60501  14.150  42.776   2.716
99213W        W60502  34.038  33.563  10.603
99214W        W60503  44.411  38.452  14.476
99215W        W60504   8.191   6.860   4.605
99216W        W60505   5.372  20.182  14.334
99217W        W60506  18.120  38.907   2.417
99218W        W60507  26.077   9.686   1.922
99219W        W60508   6.688   0.466  14.513
99220W        W60509  10.230  42.295  11.414
99221W        W60510  43.992  19.161  13.454
99222W        W60511  36.003  18.150  12.006
99223W        W60512  15.160  34.972   2.377
99224W        W60513   6.889   3.833   0.817
99225W        W60514  27.176  36.469   4.330
99226W        W60515   1.329   9.685  13.042
99227W        W60516  19.285  13.197   1.912
99228W        W60517  14.616  25.489  12.054
99229W        W60518  34.054   5.343  14.811
99230W        W60519  34.596  10.653   2.382
99231W        W60520  23.648  34.934   4.196
99232W        W60521   4.859  20.573  14.385
99233W        W60522  13.788  35.089  10.419
99234W        W60523   0.310  31.463   2.663
99235W        W60524  17.727  18.240  13.907
99236W        W60525   3.399  41.856  11.400
99237W        W60526  21.652  22.130   1.332
99238W        W60527  38.412  12.285  13.027
99239W        W60528  18.279  16.649   4.810
99240W        W60529  11.766  15.640  11.473
99241W        W60530   0.355  32.076  10.892
99242W        W60531  30.594  41.014   4.261
99243W        W60532  10.323   0.779  12.881
99244W        W60533   6.270  13.626  12.916
99245W        W60534  44.954  25.501  13.878
99246W        W60535   5.795  39.344  10.487
99247W        W60536  35.535  16.162  11.477
99248W        W60537   0.786  35.591   0.868
99249W        W60538  27.950  21.018   3.866
99250W        W60539   2.286  11.736   0.319
99251W        W60540  37.483  38.819   3.758
99252W        W60541  34.912  42.381   3.367
99253W        W60542   2.775  36.848  13.971
99254W        W60543   2.329  35.916  13.317
99255W        W60544  43.471  33.931   1.741
99256W        W60545   0.269   4.205   4.773
99257W        W60546  13.165  14.763   4.338
99258W        W60547  34.028  42.406  12.459
99259W        W60548  10.256  35.979   0.391
99260W        W60549  41.415  37.455  12.467
99261W        W60550   2.429  25.037   0.943
99262W        W60551  26.582  14.810  14.442
99263W        W60552  43.919   3.355   0.877
99264W        W60553  33.049  26.091   4.333
99265W        W60554  33.562  30.437  12.074
99266W        W60555  39.013   1.300  13.914
99267W        W60556  42.817  31.600   3.204
99268W        W60557  30.061  13.295   4.609
99269W        W60558  25.965  12.362  12.442
99270W        W60559  30.160  17.174  13.954
99271W        W60560  36.960  26.665   4.269
99272W        W60561  34.063  29.442   4.322
99273W        W60562  37.982  35.506   3.308
99274W        W60563  37.571  28.162  11.112
99275W        W60564  23.599  20.732  11.977
99276W        W60565  34.888  12.630  14.948
99277W        W60566  33.122   8.177  10.911
99278W        W60567   7.386  43.002   2.853
99279W        W60568  33.068   7.698  13.024
99280W        W60569  15.090  22.179  10.626
99281W        W60570   5.433  38.851  14.855
99282W        W60571  34.010  13.236  11.416
99283W        W60572  12.786  18.146   2.737
99284W        W60573  37.418  43.921  10.636
99285W        W60574  33.435  16.703  10.410
99286W        W60575  43.509  34.560   5.102
99287W        W60576  18.211  27.482   0.470
99288W        W60577   4.327  32.579   3.689
99289W        W60578  29.487  43.980   2.300
99290W        W60579   0.271  35.889   2.317
99291W        W60580  29.459   2.373   0.884
99292W        W60581  29.142  21.050  14.801
99293W        W60582  30.571  34.388   1.366
99294W        W60583  41.861   0.909   2.889
99295W        W60584   3.900  27.618  14.966
99296W        W60585   4.805   9.223  10.933
99297W        W60586  21.046  36.881   3.199
99298W        W60587  40.317   2.929  13.870
99299W        W60588   7.768  27.150   0.418
99300W        W60589  20.246  17.226  11.594
99301W        W60590  11.672  41.796  10.620
99302W        W60591  37.417  29.543   5.132
99303W        W60592  18.594  25.062  14.804
99304W        W60593  14.138  29.920  12.981
99305W        W60594   7.251   4.346  12.021
99306W        W60595  11.835  25.041   0.292
99307W        W60596  41.504   8.235   4.198
99308W        W60597  34.457   8.754   3.707
99309W        W60598   6.849   4.904  11.970
99310W        W60599  35.004   3.457  13.046
99311W        W60600  37.936  28.117   1.926
99312W        W60601  30.500  28.583   1.372
99313W        W60602   5.770   3.907  14.860
99314W        W60603  25.134  44.481  13.523
99315W        W60604  43.022   0.976   3.647
99316W        W60605  36.960  10.658   4.762
99317W        W60606  16.194  41.474  11.966
99318W        W60607  33.571  23.187   0.420
99319W        W60608  40.375  11.819   2.366
99320W        W60609   3.755  16.072  11.500
99321W        W60610  12.707  41.986  12.361
99322W        W60611   7.790  14.111   1.338
99323W        W60612  29.487  21.242   0.846
99324W        W60613  30.011   6.792   1.755
99325W        W60614  26.555  14.098  12.904
99326W        W60615  17.274  24.207   1.725
99327W        W60616  32.445   1.758  12.550
99328W        W60617  30.534  26.625   1.415
99329W        W60618  44.474   6.298   3.822
99330W        W60619  12.719  13.745  12.347
99331W        W60620   3.714  32.551   1.292
99332W        W60621  15.703  14.661   0.818
99333W        W60622   9.369  24.982  14.369
99334W        W60623  43.283  25.184   0.949
99335W        W60624  13.793  44.383  13.539
99336W        W60625  39.445  30.441  13.491
99337W        W60626  19.137  25.546  10.897
99338W        W60627  13.664  19.111   1.276
99339W        W60628  16.261  28.062  14.510
99340W        W60629  23.712  13.658  12.576
99341W        W60630   2.845  10.814   1.253
99342W        W60631  32.436  17.679   1.386
99343W        W60632   1.821  28.008   1.708
99344W        W60633   0.306  14.157   0.824
99345W        W60634  31.012  12.166  12.531
99346W        W60635   2.786  14.770  14.481
99347W        W60636  12.203   0.258  10.944
99348W        W60637  14.734   3.404  10.500
99349W        W60638  30.446  15.800   2.797
99350W        W60639   3.369   9.195   3.355
99351W        W60640  10.143  20.684  13.403
99352W        W60641  11.156  43.000   1.298
99353W        W60642  30.043  19.064  12.968
99354W        W60643   4.341  43.487   4.745
99355W        W60644  37.517  41.787  11.121
99356W        W60645   2.778   2.835   4.805
99357W        W60646   0.769  37.005  13.351
99358W        W60647  43.956   0.884  14.412
99359W        W60648  24.503  19.616   2.398
99360W        W60649  22.539  31.012   0.897
99361W        W60650  22.066   8.206  10.545
99362W        W60651   6.899   5.882  14.918
99363W        W60652   7.366  28.080  12.538
99364W        W60653  43.943  18.631  13.988
99365W        W60654  22.712  10.180  13.942
99366W        W60655  32.617  22.744  11.996
99367W        W60656  38.970  28.051  10.015
99368W        W60657  31.437   5.367  10.412
99369W        W60658  17.579  38.460  10.457
99370W        W60659  33.901  28.937  13.361
99371W        W60660  18.161  12.297   0.786
99372W        W60661   2.336  42.843  14.941
99373W        W60662  12.306  37.346   3.376
99374W        W60663  41.429  34.414   3.183
99375W        W60664  22.616  30.559   2.320
99376W        W60665  31.953  29.078   2.749
99377W        W60666  38.560  30.951   2.307
99378W        W60667   2.309  28.073  11.065
99379W        W60668  40.948  29.941  13.442
99380W        W60669  41.879  24.501  11.061
99381W        W60670  26.178   0.366   2.871
99382W        W60671  41.835  23.724  10.923
99383W        W60672  10.818  38.001   4.267
99384W        W60673  16.203  33.473   3.823
99385W        W60674  39.042   7.411  14.381
99386W        W60675  30.144  10.202  12.020
99387W        W60676  40.532  26.156  12.973
99388W        W60677  11.254   8.316   1.780
99389W        W60678  20.176  15.644  14.806
99390W        W60679  44.960  21.146   0.339
99391W        W60680  10.163   2.890   1.873
99392W        W60681  24.043   5.283  13.316
99393W        W60682  35.392  26.546  13.897
99394W        W60683  36.475   6.789  14.006
99395W        W60684  41.467   2.813   1.715
99396W        W60685   6.840  34.959   2.837
99397W        W60686  12.202  10.291   2.345
99398W        W60687  14.214  40.865   3.835
99399W        W60688  33.552  16.721   0.395
99400W        W60689  38.499  35.933  13.309
99401W        W60690  34.520   8.383  14.466
99402W        W60691   7.270   3.458   0.819
99403W        W60692  12.628  18.171  12.525
99404W        W60693  39.875  30.542   1.364
99405W        W60694   4.237   1.782   0.734
99406W        W60695   2.867  33.083  13.514
99407W        W60696  29.146   9.727  14.013
99408W        W60697  32.395  24.479   2.389
99409W        W60698  40.491  32.397   2.884
99410W        W60699  35.918  34.517   2.331
99411W        W60700  18.689  31.410   0.408
99412W        W60701  38.839  17.125   2.874
99413W        W60702   0.917  20.635  13.996
99414W        W60703  22.703  22.071  11.440
99415W        W60704   1.464  26.512  12.848
99416W        W60705  36.395  40.826  11.120
99417W        W60706  19.040  36.995   2.381
99418W        W60707   6.221  35.408   3.203
99419W        W60708  24.528  10.675  14.890
99420W        W60709   2.431  12.296   4.810
99421W        W60710  43.361  23.123   1.813
99422W        W60711   0.355  41.036  11.491
99423W        W60712   6.305  40.910   2.323
99424W        W60713  10.633  24.146   2.227
99425W        W60714  17.238  12.230  12.400
99426W        W60715  41.438  28.592   1.775
99427W        W60716  22.223  32.573   1.804
99428W        W60717   2.282  36.890  14.805
99429W        W60718  19.753   3.242  14.376
99430W        W60719   3.336  18.130   4.699
99431W        W60720  41.789  26.631   9.995
99432W        W60721   6.787  15.817   4.174
99433W        W60722  17.688  13.335  13.517
99434W        W60723   3.299   5.922   2.705
99435W        W60724  38.344  35.431   4.718
99436W        W60725  31.928   2.915   1.287
99437W        W60726   6.818  32.529   2.849
99438W        W60727   1.406   7.211  11.949
99439W        W60728   9.761  27.548   2.220
99440W        W60729   7.804   4.325   4.279
99441W        W60730  39.824  43.411   2.332
99442W        W60731   8.354  35.419  11.076
99443W        W60732   5.275   6.276  14.790
99444W        W60733  14.678  40.900   0.756
99445W        W60734   5.691  17.730   0.759
99446W        W60735  23.490  37.054   0.338
99447W        W60736  27.012  30.068   2.318
99448W        W60737  18.611  19.154   2.249
99449W        W60738  43.396  44.786  13.480
99450W        W60739  23.667  39.853   2.390
99451W        W60740  25.511   8.291  12.884
99452W        W60741  25.615  29.533   4.773
99453W        W60742  32.402  44.923   0.875
99454W        W60743  40.441   4.730  12.476
99455W        W60744  31.018  27.542  11.943
99456W        W60745  27.616  33.934   0.733
99457W        W60746  12.280   3.387  13.548
99458W        W60747   0.938  38.993   3.742
99459W        W60748   2.878  12.715   2.819
99460W        W60749  42.890  34.950  11.057
99461W        W60750  25.192  15.581  10.066
99462W        W60751   5.428  44.267   0.392
99463W        W60752  44.422  24.519   3.820
99464W        W60753  11.701   8.847  13.974
99465W        W60754   5.905   4.364   4.748
99466W        W60755   8.692   7.287  13.047
99467W        W60756  37.390  26.027   0.898
99468W        W60757   6.802  37.843   0.315
99469W        W60758   1.864  20.125  12.973
99470W        W60759  43.866   2.251  13.838
99471W        W60760  41.423  11.360   3.781
99472W        W60761  26.138  24.108  11.095
99473W        W60762  36.424  10.282  11.599
99474W        W60763  44.851  36.589  14.411
99475W        W60764   0.415   0.979   0.332
99476W        W60765  10.738  19.765   5.291
99477W        W60766  15.692  34.905   1.435
99478W        W60767   0.448  36.054   0.386
99479W        W60768  17.072  10.846  13.932
99480W        W60769  34.032   4.387  12.905
99481W        W60770  34.008   7.667  10.599
99482W        W60771  31.936  32.517  14.393
99483W        W60772  27.052   8.257  13.404
99484W        W60773  40.852  35.942   4.728
99485W        W60774  25.980  41.903  13.929
99486W        W60775  25.057   4.216   4.309
99487W        W60776   8.179  34.522  12.411
99488W        W60777   6.788   0.762   0.875
99489W        W60778  34.596   6.266   5.230
99490W        W60779  14.222  19.077   2.333
99491W        W60780  23.580  14.313  14.874
99492W        W60781  24.557   5.256  12.474
99493W        W60782  26.617  31.606   3.351
99494W        W60783  38.452  38.349  11.587
99495W        W60784  34.377  11.168   3.771
99496W        W60785  28.545  13.649   4.644
99497W        W60786  26.503  44.939   0.322
99498W        W60787  32.418  34.982   3.295
99499W        W60788  40.495  20.546  13.484
99500W        W60789  12.640  20.528  12.053
99501W        W60790  10.815  28.674   1.890
99502W        W60791  27.558  24.697  11.962
99503W        W60792  32.514  39.416  11.599
99504W        W60793  38.429  28.569  11.405
99505W        W60794  35.072  10.638  14.497
99506W        W60795  12.684  12.295   1.782
99507W        W60796  36.435  43.469   4.175
99508W        W60797  17.172  35.034   2.335
99509W        W60798  32.470  43.418  14.952
99510W        W60799  41.789  31.476   1.703
99511W        W60800   3.332  44.265   2.365
99512W        W60801  34.992   2.310   4.829
99513W        W60802  29.551  23.025   3.282
99514W        W60803   2.295  24.176  11.913
99515W        W60804  14.739  42.364   3.842
99516W        W60805  24.522  44.815  14.766
99517W        W60806  27.174  25.628  12.461
99518W        W60807   9.723  30.485  13.009
99519W        W60808  22.116  15.800   0.755
99520W        W60809  18.114  43.829  13.848
99521W        W60810  23.649  33.948   0.823
99522W        W60811  28.186  30.586  13.308
99523W        W60812  10.844   4.445   3.658
99524W        W60813  20.550  15.723  12.410
99525W        W60814  43.513   2.787   0.429
99526W        W60815   6.916  11.350  12.343
99527W        W60816  33.929  31.119  10.530
99528W        W60817  20.103  27.679   4.306
99529W        W60818  29.451  37.895  11.410
99530W        W60819  15.807   5.871  14.287
99531W        W60820   9.337   2.890   4.118
99532W        W60821  31.927  16.646  10.434
99533W        W60822  11.262  11.646  14.451
99534W        W60823  44.479   3.325  12.095
99535W        W60824   6.761  19.567   4.605
99536W        W60825   9.317   9.394  10.494
99537W        W60826   3.886   0.869   4.740
99538W        W60827  22.008  29.080   1.351
99539W        W60828  36.360  44.768   1.877
99540W        W60829  31.940  22.680   3.344
99541W        W60830  35.528  32.088   2.204
99542W        W60831  21.681  42.018  11.123
99543W        W60832  44.007  39.477   0.376
99544W        W60833  24.683  19.275   5.197
99545W        W60834  28.518  43.348  13.366
99546W        W60835  12.248  40.009   0.348
99547W        W60836   8.789   8.703   5.090
99548W        W60837  15.594  25.705   5.309
99549W        W60838  39.950  26.485  12.441
99550W        W60839  20.704  39.448   3.681
99551W        W60840   9.320  35.391  13.054
99552W        W60841  28.543  44.927   4.700
99553W        W60842   7.242  27.567   1.821
99554W        W60843   6.895  25.215   9.963
99555W        W60844  13.785   1.762   1.393
99556W        W60845  31.551   5.351  11.011
99557W        W60846  23.229  39.546   0.802
99558W        W60847   6.304  29.979   1.373
99559W        W60848  21.697  11.731  12.476
99560W        W60849  42.505  39.327   2.812
99561W        W60850  16.138  39.892   0.314
99562W        W60851  21.745  14.810  14.426
99563W        W60852  30.138   8.193  13.992
99564W        W60853  33.539  27.481   0.750
99565W        W60854   4.783  20.677   0.460
99566W        W60855  22.023  18.080  14.857
99567W        W60856  33.609   8.842   2.889
99568W        W60857   0.863  18.548  13.437
99569W        W60858  26.963   2.361  10.602
99570W        W60859  22.247  40.037  10.928
99571W        W60860  25.048  42.396  10.636
99572W        W60861  43.955  20.116   4.682
99573W        W60862  32.019  25.052  12.013
99574W        W60863   5.882  12.648  12.052
99575W        W60864  19.583  32.899   0.388
99576W        W60865   9.719  32.022  12.554
99577W        W60866  24.534  10.728  14.303
99578W        W60867  32.412  41.399   3.867
99579W        W60868  28.437  11.255  14.886
99580W        W60869  13.188  26.027  11.969
99581W        W60870  33.081  26.679   2.304
99582W        W60871  42.979  36.533  10.442
99583W        W60872   8.315  42.925  14.370
99584W        W60873  12.830  28.991   3.761
99585W        W60874  28.084   4.329  12.375
99586W        W60875  32.925  35.439  13.898
99587W        W60876   8.258  31.014  12.041
99588W        W60877  18.788  28.681   2.203
99589W        W60878  14.679  40.452   1.804
99590W        W60879  39.019  15.708   3.376
99591W        W60880  26.672  14.176  13.502
99592W        W60881   5.810  30.553   1.718
99593W        W60882  17.156  15.814   0.782
99594W        W60883  26.494  15.689  11.524
99595W        W60884  41.530   1.944   0.789
99596W        W60885  29.668  41.818   1.317
99597W        W60886  14.598   9.275  12.884
99598W        W60887   5.915  42.782   3.207
99599W        W60888   4.839  23.550   2.891
99600W        W60889  29.021   2.831   2.358
99601W        W60890   5.837   6.856   3.151
99602W        W60891  33.482   7.826   3.678
99603W        W60892  35.549  40.013  11.528
99604W        W60893  20.571  21.616  11.859
99605W        W60894  25.666  42.011   0.433
99606W        W60895  10.681   8.171  12.962
99607W        W60896  11.190   6.842  14.868
99608W        W60897   8.346  32.491  10.966
99609W        W60898  43.832  32.069  11.004
99610W        W60899  40.475  30.148  13.548
99611W        W60900  38.016  36.478   2.738
99612W        W60901   7.890  28.602   3.180
99613W        W60902  34.419   8.366  10.955
99614W        W60903   5.723  10.352  12.068
99615W        W60904  33.033  35.020  12.904
99616W        W60905  22.071   4.391  11.942
99617W        W60906  16.225   1.873   1.711
99618W        W60907  12.175  16.217  10.438
99619W        W60908   9.778  37.838  12.468
99620W        W60909   9.836  23.601  14.847
99621W        W60910  13.120  17.787  12.354
99622W        W60911   1.250  29.566   2.759
99623W        W60912  30.477   0.408  11.057
99624W        W60913  30.026  24.694  11.466
99625W        W60914  15.617  15.105  13.002
99626W        W60915  11.137  13.664  14.875
99627W        W60916  12.174   3.254   2.882
99628W        W60917  14.696  34.536   1.258
99629W        W60918  21.747  42.785   5.231
99630W        W60919  36.536  25.544   4.755
99631W        W60920  20.645  15.215   2.344
99632W        W60921   0.876  37.562  13.529
99633W        W60922  27.688  43.968   4.707
99634W        W60923  38.888  22.745  14.790
99635W        W60924  36.918  18.640  13.340
99636W        W60925  34.589  15.175   4.164
99637W        W60926  37.382  32.997  13.367
99638W        W60927   5.212  25.563   3.683
99639W        W60928  18.759  11.718   4.123
99640W        W60929   1.389  12.277  14.300
99641W        W60930   9.177  26.478  11.865
99642W        W60931  44.462  13.306   0.958
99643W        W60932   1.796   3.267   4.213
99644W        W60933   0.315  32.422  12.516
99645W        W60934  41.878  12.790  13.822
99646W        W60935  40.497   1.465   1.297
99647W        W60936  24.140  33.557   2.872
99648W        W60937  40.360   4.897  10.070
99649W        W60938  26.575  24.609   3.787
99650W        W60939  10.654   8.339   0.756
99651W        W60940  30.490   5.898  12.561
99652W        W60941  11.369  38.518   3.314
99653W        W60942   0.888  27.076   3.319
99654W        W60943  23.634   4.828   4.692
99655W        W60944  23.005  19.250  14.514
99656W        W60945  33.902  20.076  14.973
99657W        W60946   4.351  21.206  10.639
99658W        W60947  28.675  35.107   1.728
99659W        W60948  44.344  35.413  14.840
99660W        W60949  24.487   8.865   5.671
99661W        W60950  22.709  10.182   1.362
99662W        W60951  13.742  33.051   4.125
99663W        W60952   1.968  26.689   3.749
99664W        W60953  29.019  31.615  14.806
99665W        W60954  11.742  16.689   0.432
99666W        W60955  33.019   8.291   4.220
99667W        W60956   0.302  13.600  10.639
99668W        W60957  37.071   5.195  12.943
99669W        W60958  20.726  11.355   0.743
99670W        W60959  29.516  13.128   3.379
99671W        W60960   3.766  24.973  14.324
99672W        W60961   5.265  21.727   1.413
99673W        W60962  16.617  26.665  10.951
99674W        W60963  26.204  40.482  13.838
99675W        W60964  24.544  25.976   1.709
99676W        W60965  12.348  26.652  10.500
99677W        W60966   3.791  32.126   5.163
99678W        W60967  29.964  27.629   2.363
99679W        W60968   9.883   7.337  14.970
99680W        W60969  30.156  21.665  14.877
99681W        W60970  32.056  18.750  12.474
99682W        W60971  25.000  14.637   0.394
99683W        W60972  19.670  33.507   3.652
99684W        W60973  32.945  30.425  13.876
99685W        W60974  37.494  20.552   1.268
99686W        W60975  44.881  33.942   3.303
99687W        W60976  42.425  43.936   0.372
99688W        W60977  26.656  44.920  11.451
99689W        W60978  28.485  17.768   0.937
99690W        W60979  42.371  13.794  12.091
99691W        W60980  16.621  15.162   4.636
99692W        W60981  31.600  42.931   1.763
99693W        W60982  21.695   3.346  10.418
99694W        W60983   3.414  12.254   1.439
99695W        W60984  36.421  22.608  13.327
99696W        W60985   3.745  15.150  10.964
99697W        W60986   2.442  20.727  12.493
99698W        W60987   1.908   2.864  14.462
99699W        W60988   3.732   3.368   0.808
99700W        W60989  26.975   5.351  13.468
99701W        W60990   9.177   1.845   3.779
99702W        W60991  29.582  17.136   1.855
99703W        W60992   9.384   9.793   2.240
99704W        W60993  25.672  42.470  13.941
99705W        W60994  31.006  16.222   3.763
99706W        W60995  17.647  32.978   4.218
99707W        W60996  38.326  14.282   3.807
99708W        W60997  42.500   1.886   2.831
99709W        W60998  23.660  43.872   2.197
99710W        W60999  17.190   8.176   3.861
99711W        W61000  26.558   9.783   9.641
99712W        W61001  18.703  28.001   0.398
99713W        W61002  38.950  36.521   2.673
99714W        W61003  11.138  17.285   1.760
99715W        W61004  40.915   8.877  13.036
99716W        W61005   0.791   0.428   0.763
99717W        W61006  36.875  27.620  12.389
99718W        W61007  34.095  28.585   2.873
99719W        W61008  36.085   5.866  10.953
99720W        W61009  42.431  20.274   1.431
99721W        W61010  12.294  34.520   4.191
99722W        W61011   9.714  41.415  14.385
99723W        W61012   9.391  12.729   1.318
99724W        W61013  24.046   2.831  11.461
99725W        W61014  30.608  42.362  11.093
99726W        W61015  39.337   4.442   4.115
99727W        W61016  27.604  44.421  10.941
99728W        W61017  32.910  30.012  11.084
99729W        W61018  35.403  36.093   2.274
99730W        W61019   4.765  35.018   4.705
99731W        W61020  42.283   5.868  11.070
99732W        W61021  21.602  38.911  10.967
99733W        W61022  20.727  27.958   0.288
99734W        W61023  43.834  13.601   0.944
99735W        W61024  34.119  36.438  10.412
99736W        W61025   9.214  32.525   1.887
99737W        W61026  23.624  10.804  14.970
99738W        W61027  24.555  34.990   3.795
99739W        W61028   2.784  20.717  12.550
99740W        W61029   2.438  32.433  10.531
99741W        W61030  40.818  16.120   4.167
99742W        W61031  22.014  32.578  11.529
99743W        W61032  34.499  26.120   1.288
99744W        W61033  14.824  12.845  10.551
99745W        W61034  42.906  18.154   0.458
99746W        W61035  27.516  39.382   0.857
99747W        W61036  16.077   6.734   1.836
99748W        W61037  17.735  38.004   0.861
99749W        W61038   0.443  25.104  12.854
99750W        W61039  35.408  27.167  14.467
99751W        W61040  39.881  14.631  10.553
99752W        W61041  18.715  37.920  12.421
99753W        W61042  33.488  20.669  11.107
99754W        W61043  44.419  20.041  10.603
99755W        W61044  16.681  37.984  12.404
99756W        W61045  30.047  36.878  10.557
99757W        W61046  25.486  29.548   0.777
99758W        W61047   3.307  12.687  12.068
99759W        W61048  29.601  11.158   1.917
99760W        W61049  40.944  38.065   4.149
99761W        W61050   3.270  37.019   0.331
99762W        W61051  27.088  43.314  13.456
99763W        W61052  32.478  19.602   4.652
99764W        W61053  23.996  36.388  13.417
99765W        W61054   1.912  24.512  12.984
99766W        W61055  36.493   5.374  11.530
99767W        W61056  20.149   6.185   0.825
99768W        W61057  28.601  30.018  14.336
99769W        W61058  13.227  42.874   2.762
99770W        W61059  31.452   8.735   5.154
99771W        W61060   9.353  20.719   3.214
99772W        W61061  37.370  40.047  14.904
99773W        W61062   4.257  40.027  10.892
99774W        W61063  23.526  16.766   0.342
99775W        W61064  26.953  16.636  12.992
99776W        W61065  41.342   7.791   4.807
99777W        W61066  15.196  19.176  14.891
99778W        W61067  36.050  11.637  14.935
99779W        W61068   5.437  28.105   2.269
99780W        W61069  23.111  10.155  13.791
99781W        W61070  33.122   4.257   2.413
99782W        W61071  24.608  16.739   0.941
99783W        W61072  37.502  40.441   0.399
99784W        W61073  41.788  42.399  14.026
99785W        W61074   4.903  18.149   4.128
99786W        W61075  27.645   8.801   3.305
99787W        W61076  26.490  38.007   1.849
99788W        W61077  31.128   1.880  14.464
99789W        W61078   3.906  25.638   4.777
99790W        W61079   8.741  30.920   3.288
99791W        W61080  16.658   5.260  13.497
99792W        W61081  23.067  27.097   4.165
99793W        W61082  39.903  43.807  10.568
99794W        W61083  26.553  11.828  14.813
99795W        W61084  18.151  16.077  11.072
99796W        W61085   1.851  36.373  11.516
99797W        W61086  27.961  42.805  11.446
99798W        W61087  16.584  25.969  10.584
99799W        W61088  34.021   9.309  14.985
99800W        W61089   4.236  31.414   1.252
99801W        W61090  40.328  14.211   5.299
99802W        W61091  31.559  34.928   2.369
99803W        W61092  18.105  29.103  14.799
99804W        W61093   8.699  17.202  10.610
99805W        W61094   4.885  20.717  12.067
99806W        W61095  23.683  43.364   4.169
99807W        W61096  28.658  11.188   5.732
99808W        W61097  21.549  26.524   4.178
99809W        W61098  38.354  16.745   5.756
99810W        W61099   3.449  38.521  13.422
99811W        W61100  18.621  24.189   4.217
99812W        W61101  34.590  44.927   2.808
99813W        W61102  37.978  13.684   0.887
99814W        W61103   5.842   9.820   2.348
99815W        W61104  36.969  34.117   0.864
99816W        W61105   7.738  35.863  10.638
99817W        W61106  12.268  39.464   1.745
99818W        W61107   9.674  43.445  11.074
99819W        W61108   6.256  14.628   4.252
99820W        W61109  18.568  17.693  11.546
99821W        W61110  40.957  21.026   4.302
99822W        W61111  17.744  42.474   1.743
99823W        W61112  15.758  23.573  11.478
99824W        W61113  35.423  42.810   3.714
99825W        W61114  42.777  22.242  13.981
99826W        W61115   0.306  13.272  13.818
99827W        W61116  41.874  15.211  14.321
99828W        W61117   7.720  31.903   2.362
99829W        W61118   4.213  39.843  12.843
99830W        W61119  34.058  28.034   3.378
99831W        W61120  44.504   3.921   1.250
99832W        W61121   9.166  37.069   0.425
99833W        W61122   7.835  13.146   3.313
99834W        W61123   1.258  21.166  13.036
99835W        W61124  43.307  36.373   4.134
99836W        W61125  29.557   8.757   2.865
99837W        W61126  40.913  19.662  14.385
99838W        W61127  15.321  27.576   3.760
99839W        W61128   6.837  26.550   4.756
99840W        W61129  43.862  12.658  10.888
99841W        W61130   4.943  43.833   3.643
99842W        W61131  32.004  34.451   0.911
99843W        W61132  41.399  15.226  13.536
99844W        W61133   3.388  37.503  13.975
99845W        W61134  31.646  24.621   1.261
99846W        W61135  41.490  30.986   3.702
99847W        W61136  22.512  17.237   3.761
99848W        W61137  25.499  21.204  13.521
99849W        W61138  16.697  35.591   4.346
99850W        W61139  32.939  15.688  11.992
99851W        W61140  38.852  12.739   4.182
99852W        W61141  24.517  27.618   0.760
99853W        W61142  15.658  35.086   2.309
99854W        W61143  32.947  36.881   2.869
99855W        W61144  35.055   6.756   0.250
99856W        W61145   9.314  32.973   2.229
99857W        W61146  44.786   4.408   0.396
99858W        W61147  23.161  10.738   3.346
99859W        W61148  31.978  37.856  14.489
99860W        W61149  34.067  42.316   4.201
99861W        W61150  16.623   0.368   2.901
99862W        W61151   4.309  38.409  11.384
99863W        W61152  34.004  42.828  14.428
99864W        W61153  38.552   1.467   4.159
99865W        W61154  35.960   4.800   3.798
99866W        W61155  42.421  20.241  14.791
99867W        W61156  38.520   0.916  13.819
99868W        W61157  37.912  30.590  11.491
99869W        W61158  16.702   0.352   1.441
99870W        W61159  26.630   0.288   2.886
99871W        W61160   1.251  19.249   0.862
99872W        W61161  33.081  10.717   0.950
99873W        W61162  11.209  31.466  10.579
99874W        W61163  38.980  42.829  11.432
99875W        W61164   6.893  37.470   2.885
99876W        W61165  36.999  34.546   2.266
99877W        W61166  13.796  31.057   3.738
99878W        W61167  37.527   7.680   4.240
99879W        W61168  31.030  33.914   0.827
99880W        W61169  34.089  15.653   1.759
99881W        W61170  32.500   2.794   3.663
99882W        W61171  40.546   9.763  12.520
99883W        W61172  44.400  21.719   4.805
99884W        W61173  41.402  14.140  12.981
99885W        W61174  14.335  18.699  14.010
99886W        W61175  28.643  31.495  12.438
99887W        W61176  30.969  39.051  10.514
99888W        W61177  39.467   4.711   2.842
99889W        W61178  15.183  44.896  11.937
99890W        W61179  41.978  26.551  12.923
99891W        W61180  38.978  24.004  12.526
99892W        W61181  39.414  25.664   0.466
99893W        W61182  32.566  19.684   5.131
99894W        W61183  10.681  27.618  13.448
99895W        W61184  10.644  30.970  13.459
99896W        W61185  22.623  39.322  11.401
99897W        W61186  15.207  29.452   2.851
99898W        W61187  25.093  23.176  11.488
99899W        W61188  31.406  29.515  13.953
99900W        W61189  22.023  35.107  14.800
99901W        W61190  23.191   8.820   3.381
99902W        W61191  35.000   8.752   1.892
99903W        W61192   6.256  26.698  14.314
99904W        W61193   8.237   6.873  11.516
99905W        W61194   0.987   9.864  13.915
99906W        W61195  18.756  33.508  11.010
99907W        W61196  15.626  36.547   0.924
99908W        W61197  21.742  41.510  14.298
99909W        W61198  37.831  14.784   3.634
99910W        W61199  39.898  19.105  12.381
99911W        W61200   3.258   0.257  10.918
99912W        W61201  28.140  11.200  11.417
99913W        W61202   4.262  26.005   0.427
99914W        W61203  34.484  18.615  10.482
99915W        W61204   2.249   9.373  12.525
99916W        W61205  24.561  36.042  12.920
99917W        W61206  22.569   4.232   1.234
99918W        W61207  10.745  18.247  13.040
99919W        W61208  43.864   2.896   0.431
99920W        W61209  15.740  25.496  11.060
99921W        W61210  31.595  36.559   0.868
99922W        W61211   6.748  42.775  11.527
99923W        W61212  40.969  44.884   2.780
99924W        W61213  31.455  12.810   3.643
99925W        W61214   4.227  29.956  13.365
99926W        W61215  11.632  12.234  11.473
99927W        W61216  33.623  33.388   2.680
99928W        W61217  33.494  44.436  12.877
99929W        W61218   1.395   8.664  14.289
99930W        W61219  41.986  34.882  13.443
99931W        W61220  28.492   2.813  13.869
99932W        W61221  21.606  35.091  13.378
99933W        W61222  31.444  12.227   2.284
99934W        W61223  30.519  16.579  12.358
99935W        W61224  29.918  29.102   4.719
99936W        W61225  38.065  34.041   2.284
99937W        W61226  12.739  19.112  10.063
99938W        W61227   8.312   8.217  13.817
99939W        W61228   8.655  14.173  10.456
99940W        W61229  18.590  23.989   3.179
99941W        W61230  29.598  25.032  14.280
99942W        W61231  21.524  11.789   3.205
99943W        W61232  32.080  43.956  13.312
99944W        W61233  44.499  24.604  14.296
99945W        W61234  22.744   7.786   1.843
99946W        W61235  14.815  10.218  11.452
99947W        W61236  13.212  40.507  10.006
99948W        W61237  43.387  35.870   1.215
99949W        W61238  17.745  33.538  13.450
99950W        W61239  31.106  10.260  11.585
99951W        W61240  36.862  41.342  10.995
99952W        W61241  19.575   5.900   4.808
99953W        W61242  21.159  41.884   1.431
99954W        W61243  21.513  32.034  14.785
99955W        W61244   3.410   9.798   1.312
99956W        W61245  44.989  23.087   3.353
99957W        W61246  16.653  16.746  14.856
99958W        W61247  33.392  41.006  10.614
99959W        W61248  40.362  38.041   1.737
99960W        W61249  10.735  13.331  12.831
99961W        W61250  32.896  20.740  11.030
99962W        W61251  41.507   6.377  11.032
99963W        W61252   0.419  14.127   2.276
99964W        W61253  17.705  43.959   0.443
99965W        W61254  22.079  11.262   2.316
99966W        W61255  31.454  27.626   1.238
99967W        W61256  34.876  39.033   2.368
99968W        W61257  43.306  40.031  11.952
99969W        W61258  15.196  12.355   2.309
99970W        W61259  39.020  35.902  13.916
99971W        W61260  40.942  28.956  12.369
99972W        W61261  23.240   5.419  13.956
99973W        W61262  11.810  28.167  12.975
99974W        W61263   0.982  22.703  14.920
99975W        W61264  42.936  21.246  10.912
99976W        W61265  22.526  17.154  10.512
99977W        W61266  34.874  11.625  11.462
99978W        W61267  22.015  13.186  10.896
99979W        W61268  27.584  12.268   0.900
99980W        W61269   6.886  21.551   4.310
99981W        W61270  22.599   7.341  10.447
99982W        W61271  34.866  23.593  13.472
99983W        W61272  25.978  42.313   4.629
99984W        W61273  26.634  27.976  11.466
99985W        W61274  19.641  42.461  12.353
99986W        W61275   7.176  29.634   2.395
99987W        W61276   5.231   3.316  10.529
99988W        W61277  32.078  42.419  12.447
99989W        W61278  17.583  32.488  10.525
99990W        W61279  17.153  40.534   3.765
99991W        W61280  17.168  36.361  12.842
99992W        W61281   5.275  22.040  12.986
99993W        W61282  34.118  22.626   2.855
99994W        W61283  44.493  16.226   3.181
99995W        W61284  17.147   0.333  13.924
99996W        W61285  11.373  20.040   2.252
99997W        W61286  38.325  30.117  11.064
99998W        W61287  21.610  15.256   1.244
99999W        W61288  27.999  21.526   0.898
    0W        W61289  30.013  36.558   4.216
    1W        W61290  39.860  13.690  10.985
    2W        W61291  34.900  20.113   2.286
    3W        W61292  42.956  29.464  14.921
    4W        W61293  44.803  36.968   1.757
    5W        W61294  17.287   7.356   5.088
    6W        W61295  43.827  44.456   4.833
    7W        W61296   5.768   2.838   0.480
    8W        W61297   6.762   1.883   1.797
    9W        W61298  42.986  26.677  13.981
   10W        W61299  41.804   4.427   3.188
   11W        W61300   6.693  28.659  11.905
   12W        W61301  23.239  16.252  13.850
   13W        W61302  34.506  44.262  11.579
   14W        W61303   1.454  20.088   3.683
   15W        W61304  39.007   5.229  13.317
   16W        W61305  17.289  40.453  11.866
   17W        W61306  32.921   5.380   3.785
   18W        W61307  19.681  25.188   2.831
   19W        W61308  40.981  40.897   0.396
   20W        W61309  10.329   8.401   0.841
   21W        W61310  18.699  24.116   2.862
   22W        W61311  19.764  26.513   5.081
   23W        W61312   2.440  23.567   2.244
   24W        W61313  40.995  39.471   2.837
   25W        W61314   8.282  12.188   3.697
   26W        W61315  18.241  37.017   4.598
   27W        W61316  38.903  23.142   1.924
   28W        W61317  15.811  43.816  11.903
   29W        W61318  31.060  31.932  11.125
   30W        W61319  16.187  33.491  13.441
   31W        W61320  33.089  44.415  12.471
   32W        W61321   1.819  17.076   3.762
   33W        W61322  34.053   2.348   3.348
   34W        W61323   8.335  34.946  10.476
   35W        W61324  13.760  22.085  14.886
   36W        W61325   7.338   6.735   1.823
   37W        W61326  26.960  21.034  14.350
   38W        W61327  36.866  12.174  12.569
   39W        W61328   2.817   2.465   2.200
   40W        W61329   3.366  24.150  13.525
   41W        W61330  15.222  19.539   2.289
   42W        W61331  23.515  20.176   0.275
   43W        W61332  20.667  37.013  13.845
   44W        W61333  28.056  44.417   2.672
   45W        W61334  32.425  27.107   1.702
   46W        W61335   4.759  41.411   0.304
   47W        W61336  41.875  32.563  12.830
   48W        W61337  36.884  17.626   2.782
   49W        W61338  42.892  26.523  14.457
   50W        W61339  14.176  22.531  12.551
   51W        W61340  20.684  40.933   0.478
   52W        W61341   1.374  12.614   4.629
   53W        W61342  10.828  15.617   2.683
   54W        W61343  29.447  20.223  13.396
   55W        W61344  39.343   7.293  13.314
   56W        W61345   6.714  25.674  14.789
   57W        W61346  43.963  10.776   1.210
   58W        W61347  40.442  43.817  14.905
   59W        W61348  41.836  42.442  11.093
   60W        W61349  10.825  42.018  12.502
   61W        W61350  16.302   6.736  12.479
   62W        W61351   9.777  26.001   4.655
   63W        W61352  40.358  22.122   4.172
   64W        W61353   5.319   6.729  10.625
   65W        W61354  42.312   2.892  11.063
   66W        W61355  37.836  21.138  12.025
   67W        W61356   9.294   5.345   4.226
   68W        W61357  43.993  37.407  12.450
   69W        W61358  27.604  35.469  13.503
   70W        W61359  38.427  11.772  11.410
   71W        W61360  12.143  34.613  12.518
   72W        W61361  11.348  37.049  14.494
   73W        W61362  13.843  32.949  12.398
   74W        W61363  18.085  34.443  11.869
   75W        W61364  25.012  23.183  13.351
   76W        W61365  24.129   5.369   0.908
   77W        W61366  15.771  17.593   3.254
   78W        W61367   0.941  31.528   1.342
   79W        W61368  23.186  14.727  11.586
   80W        W61369  13.238  32.419   2.804
   81W        W61370  18.138  40.977   0.449
   82W        W61371   4.941   1.466   1.403
   83W        W61372  42.819  17.733  13.043
   84W        W61373  39.405  29.473   0.255
   85W        W61374  17.252  27.628   1.340
   86W        W61375  10.802  36.445  11.548
   87W        W61376  40.986   1.276  14.784
   88W        W61377  10.691  11.772   1.406
   89W        W61378  13.299  21.088  14.772
   90W        W61379   3.777  38.362  14.014
   91W        W61380   2.259  15.121   0.966
   92W        W61381  40.469   9.271  11.496
   93W        W61382  43.334  11.257   3.354
   94W        W61383  40.864   2.856  14.988
   95W        W61384  16.786  10.156   3.716
   96W        W61385  41.399  17.077   2.814
   97W        W61386  36.988  19.058   1.386
   98W        W61387  22.021  38.374   3.382
   99W        W61388   6.251  22.189  11.000
  100W        W61389  25.481  41.934  12.064
  101W        W61390  16.746  12.149   4.625
  102W        W61391  40.000   1.883   2.267
  103W        W61392  16.674  24.668  12.064
  104W        W61393  19.709   7.183   2.292
  105W        W61394  38.873  35.013   1.343
  106W        W61395   9.180  11.652   0.314
  107W        W61396  16.093  21.173  12.973
  108W        W61397  24.592  17.074  11.856
  109W        W61398  26.686  24.633  12.498
  110W        W61399  13.672  44.383  14.468
  111W        W61400   4.714  40.475   5.153
  112W        W61401  27.185  31.104   3.289
  113W        W61402  25.576   7.741  10.458
  114W        W61403  34.980   0.308   2.374
  115W        W61404  14.703  22.629   3.763
  116W        W61405  43.328  25.008   3.149
  117W        W61406   0.413   8.691  10.064
  118W        W61407  36.066   5.889  11.909
  119W        W61408   3.797  44.268   2.763
  120W        W61409  43.356   9.700   0.333
  121W        W61410  33.442  18.204  13.500
  122W        W61411  22.681  17.621   2.314
  123W        W61412   6.736  27.602  12.885
  124W        W61413  40.815  25.569   0.831
  125W        W61414   6.878   1.451  14.817
  126W        W61415  14.123  12.313   2.233
  127W        W61416  17.735  35.038  12.514
  128W        W61417   8.657  25.150   3.648
  129W        W61418  23.641  38.077  12.398
  130W        W61419   8.726  38.940   4.611
  131W        W61420  14.189   1.404   2.875
  132W        W61421  40.484  37.863  12.034
  133W        W61422  12.829  34.429  11.443
  134W        W61423  17.565  32.124   2.296
  135W        W61424  17.158  35.937   4.128
  136W        W61425  27.185  19.651   4.119
  137W        W61426  15.676  34.531   0.901
  138W        W61427  35.365  35.427   1.846
  139W        W61428  18.745  17.137  14.295
  140W        W61429   4.248  23.649   1.762
  141W        W61430   5.358  18.294  10.432
  142W        W61431  32.541  27.005  12.376
  143W        W61432   1.341  18.659  10.623
  144W        W61433  17.556  31.101  11.979
  145W        W61434   4.240  35.474   4.303
  146W        W61435  32.093  43.790   4.211
  147W        W61436  22.639  26.656   0.785
  148W        W61437  42.476  30.484   1.868
  149W        W61438  39.500  10.164  10.632
  150W        W61439  38.487  16.078   1.215
  151W        W61440  25.069  25.190   3.177
  152W        W61441  11.737  28.439  10.589
  153W        W61442   2.757  26.645   4.729
  154W        W61443   3.851  28.629  11.118
  155W        W61444  11.733  20.069  12.340
  156W        W61445   6.842  23.213   5.586
  157W        W61446  13.227  13.685   2.344
  158W        W61447  32.404  10.843  10.981
  159W        W61448  26.039  18.205  13.481
  160W        W61449   4.907  42.930   0.883
  161W        W61450  39.836  22.631   2.183
  162W        W61451  28.086  37.399  13.537
  163W        W61452   7.220  30.948   0.931
  164W        W61453   8.228   0.924  14.385
  165W        W61454  24.022   7.273  13.838
  166W        W61455  16.703  43.365   2.721
  167W        W61456  34.536   3.710   1.900
  168W        W61457  15.112   3.234  14.913
  169W        W61458  21.039   9.305  12.381
  170W        W61459   6.262   2.964   4.790
  171W        W61460  28.157  42.963   2.258
  172W        W61461  37.899  24.499   3.247
  173W        W61462  42.817  34.085  13.344
  174W        W61463   8.364  17.730  13.960
  175W        W61464  19.080  31.099   3.363
  176W        W61465  32.393   8.802   2.228
  177W        W61466  38.003   5.217  13.831
  178W        W61467  29.461  22.206   0.259
  179W        W61468  22.052  41.421  14.947
  180W        W61469  43.492  12.753  14.319
  181W        W61470  11.832   2.399  14.502
  182W        W61471  18.790  23.655   1.811
  183W        W61472  43.485   9.705   1.258
  184W        W61473   2.300  40.903  13.449
  185W        W61474   8.752  30.991   4.272
  186W        W61475  22.074  22.702  11.574
  187W        W61476  24.586   5.862   1.427
  188W        W61477  24.050  15.788   0.344
  189W        W61478  19.196  21.105   1.748
  190W        W61479  13.685  39.825   4.183
  191W        W61480  36.564  27.571   4.140
  192W        W61481  44.966  19.112  14.795
  193W        W61482   8.894  19.757   0.451
  194W        W61483  38.847  13.232  14.767
  195W        W61484  24.003  29.620   3.182
  196W        W61485  31.488  10.646  10.496
  197W        W61486  18.138  41.311  13.891
  198W        W61487  12.828  22.673   3.224
  199W        W61488  32.392   5.309  14.330
  200W        W61489  11.314  32.023  13.460
  201W        W61490  14.616   4.380  13.978
  202W        W61491  35.902  12.618   0.862
  203W        W61492   2.888  30.086  13.395
  204W        W61493  27.675  17.708  11.535
  205W        W61494  11.842   3.858   1.305
  206W        W61495   8.876  25.984  14.974
  207W        W61496  34.980  31.906   4.346
  208W        W61497  12.316  36.003   2.797
  209W        W61498   6.832  23.140  10.087
  210W        W61499   8.264  23.004   4.241
  211W        W61500  20.244  35.439  13.872
  212W        W61501  41.930  42.032   2.246
  213W        W61502  26.581  32.534  11.992
  214W        W61503  12.838  41.374   2.369
  215W        W61504  17.198  11.667  14.503
  216W        W61505  39.038   2.308   3.341
  217W        W61506   3.411   0.250   0.359
  218W        W61507  38.502  44.796   3.245
  219W        W61508   5.421  12.281   0.896
  220W        W61509  28.465  25.600  13.969
  221W        W61510  29.633  44.390  14.806
  222W        W61511  34.536   4.432  13.989
  223W        W61512   4.439  39.033  10.948
  224W        W61513  15.257   8.257   1.715
  225W        W61514  19.702  22.157  12.048
  226W        W61515   2.364  44.769  13.881
  227W        W61516  13.746  18.573   0.920
  228W        W61517  26.510  13.740  14.856
  229W        W61518  11.700  24.184  12.467
  230W        W61519   8.376  36.974  14.915
  231W        W61520  18.215  17.651   4.735
  232W        W61521  10.204  41.008   3.262
  233W        W61522   5.799  15.629   1.307
  234W        W61523  36.538   2.403   2.182
  235W        W61524  10.660  18.570   0.777
  236W        W61525  14.640  38.903  13.933
  237W        W61526   8.766  18.592  12.829
  238W        W61527  13.790   6.835   2.195
  239W        W61528   4.841   2.942   2.311
  240W        W61529  15.137  42.337   3.630
  241W        W61530  42.397  19.133   0.421
  242W        W61531  39.992  16.592  12.843
  243W        W61532  13.625  40.920  10.498
  244W        W61533   3.348  43.280  14.806
  245W        W61534  42.395  30.629   0.404
  246W        W61535  37.999  15.178  12.578
  247W        W61536  27.950   0.902  12.530
  248W        W61537  41.517  25.003  10.928
  249W        W61538   4.291  17.115   0.745
  250W        W61539  25.649  11.740   9.922
  251W        W61540   9.394  29.479  11.927
  252W        W61541  14.210  23.033  10.556
  253W        W61542  42.778  14.621   5.150
  254W        W61543  38.987  27.070  10.954
  255W        W61544  30.428  43.285  11.587
  256W        W61545  11.821  28.537  11.937
  257W        W61546  30.566  22.204   2.687
  258W        W61547  24.553  15.296   1.252
  259W        W61548  20.668  44.005  13.494
  260W        W61549  29.481  37.049  11.910
  261W        W61550   4.903  42.846   4.304
  262W        W61551  10.299  36.889   2.402
  263W        W61552  31.534  28.471   2.827
  264W        W61553  21.159  10.678  10.604
  265W        W61554  32.101  27.071   4.228
  266W        W61555  20.743   3.869  10.414
  267W        W61556  24.094   4.442  12.470
  268W        W61557  20.118  32.927  13.364
  269W        W61558  34.432  30.057  11.993
  270W        W61559  16.667   1.281   3.272
  271W        W61560   3.846  13.153  13.490
  272W        W61561  16.794  18.170  13.315
  273W        W61562   2.472  17.242  10.926
  274W        W61563  26.190  39.440   1.427
  275W        W61564  26.186   3.330   2.185
  276W        W61565  38.324  13.636  11.903
  277W        W61566  18.623  34.901  13.021
  278W        W61567  26.131  40.430  14.452
  279W        W61568  12.120  18.192  11.506
  280W        W61569   6.690   6.289  10.579
  281W        W61570   2.387  16.202   0.846
  282W        W61571   7.315   3.718  13.507
  283W        W61572  11.135   4.888   3.333
  284W        W61573  42.466  10.806  11.109
  285W        W61574  31.010  23.664  11.955
  286W        W61575  21.605  28.628  10.532
  287W        W61576  35.903  22.088   3.820
  288W        W61577  14.264  35.603  14.971
  289W        W61578  43.003  24.228  12.851
  290W        W61579  27.042   7.212   5.245
  291W        W61580  14.766  31.572   4.661
  292W        W61581  43.994  23.101  11.047
  293W        W61582  19.178  13.600   4.736
  294W        W61583   5.346  28.453   2.280
  295W        W61584  14.098  27.581  13.533
  296W        W61585   1.902  20.722   3.763
  297W        W61586  16.090  17.145   1.435
  298W        W61587  27.131  41.510   2.818
  299W        W61588  21.154  43.920  10.930
  300W        W61589  19.139   0.885  11.945
  301W        W61590   6.277   1.249   3.757
  302W        W61591  27.621   3.420  14.330
  303W        W61592  24.017   6.817  11.563
  304W        W61593  11.327  22.727  14.878
  305W        W61594  20.207  44.846  11.524
  306W        W61595  15.590   8.762  10.094
  307W        W61596   0.298  23.072   4.212
  308W        W61597  15.822  40.935   2.671
  309W        W61598  33.545  36.433  10.973
  310W        W61599  22.738  44.421   2.744
  311W        W61600  38.367  10.356  12.914
  312W        W61601   8.391  44.487  14.334
  313W        W61602  13.738  40.543   2.697
  314W        W61603  35.052  15.785   4.274
  315W        W61604  30.564   2.928  11.944
  316W        W61605  39.416  19.675   3.859
  317W        W61606  41.407   0.383  12.838
  318W        W61607  34.589  44.296  14.402
  319W        W61608  43.509   5.238  11.049
  320W        W61609  17.123  26.034   4.617
  321W        W61610  38.431   1.443   2.350
  322W        W61611  29.551  35.556   4.672
  323W        W61612  21.126  14.095  14.848
  324W        W61613   2.770   3.829  12.888
  325W        W61614  39.414  40.417   1.860
  326W        W61615  34.539  32.523   4.835
  327W        W61616  23.643  32.460   4.209
  328W        W61617  33.493   7.714   1.698
  329W        W61618  40.027  23.010  14.030
  330W        W61619   1.968  40.415   1.386
  331W        W61620  42.931  30.040   3.209
  332W        W61621  28.445  15.218  14.016
  333W        W61622  29.115  34.008   3.189
  334W        W61623   3.725   8.749   4.233
  335W        W61624  43.003   0.863   3.224
  336W        W61625  35.386   2.294  14.950
  337W        W61626  14.775   5.243   0.403
  338W        W61627   0.455  30.944  14.806
  339W        W61628  10.636  25.638   4.232
  340W        W61629  23.688  31.460  13.966
  341W        W61630   1.878  26.607  12.983
  342W        W61631  10.741  29.627   1.717
  343W        W61632  29.148  43.816   1.351
  344W        W61633  37.888  23.077   1.775
  345W        W61634   1.855  16.685   1.444
  346W        W61635  43.008  29.589  14.298
  347W        W61636   1.332  39.031   2.238
  348W        W61637  31.091  21.655   0.420
  349W        W61638  38.980  24.978   1.762
  350W        W61639  31.897  35.059   2.754
  351W        W61640  21.090  31.052  11.893
  352W        W61641  29.935  16.100  13.474
  353W        W61642  15.745   3.806  13.984
  354W        W61643   4.870  18.637   3.162
  355W        W61644  44.486  12.776   1.834
  356W        W61645  33.592  44.873  14.928
  357W        W61646  24.133  21.030  10.103
  358W        W61647   5.786   6.384   3.663
  359W        W61648  42.323  21.029   9.929
  360W        W61649  27.024   7.840  12.984
  361W        W61650   9.378  23.561   2.818
  362W        W61651  43.318  20.041  11.090
  363W        W61652  42.986  16.109   3.312
  364W        W61653  19.052  12.252  12.514
  365W        W61654  34.108  37.923  14.956
  366W        W61655   7.322  35.585  11.028
  367W        W61656  35.373  20.171   0.370
  368W        W61657  13.309  20.586  14.418
  369W        W61658  40.386   2.778  10.976
  370W        W61659  37.006  42.420  11.098
  371W        W61660  11.233  26.060   4.319
  372W        W61661  29.589  32.103   2.239
  373W        W61662  33.558  21.742   1.356
  374W        W61663  37.963  43.478   2.321
  375W        W61664  16.249  24.492  12.929
  376W        W61665  21.024  18.205  10.614
  377W        W61666  16.756  25.150  11.101
  378W        W61667  27.089   7.241  10.444
  379W        W61668  20.561   7.748   2.708
  380W        W61669  43.843  34.961   0.390
  381W        W61670  39.376  13.795   4.685
  382W        W61671   1.771  21.731  11.097
  383W        W61672  38.395  23.649  13.816
  384W        W61673   2.853   8.677  12.841
  385W        W61674  27.549  32.931  13.863
  386W        W61675  25.211  33.984   0.427
  387W        W61676  20.234  24.028  13.370
  388W        W61677   5.204  15.733   0.358
  389W        W61678  13.621   7.710  13.856
  390W        W61679  21.667  15.232  10.568
  391W        W61680  38.042  12.319   1.715
  392W        W61681  38.460  14.105  11.061
  393W        W61682  37.855  34.880   2.332
  394W        W61683  33.551  42.029  14.849
  395W        W61684   7.219  37.042  14.956
  396W        W61685  34.494  26.496  12.863
  397W        W61686  41.364  31.991  10.590
  398W        W61687  29.440  25.654  12.950
  399W        W61688  35.977  36.504   4.795
  400W        W61689  11.749  32.137  10.530
  401W        W61690  34.559  16.732  11.374
  402W        W61691  31.478  22.692   0.910
  403W        W61692  40.822  20.580   2.726
  404W        W61693  42.033  11.265   2.343
  405W        W61694  31.098  43.481  11.421
  406W        W61695  32.056   0.395   4.322
  407W        W61696  25.093   3.279   1.712
  408W        W61697  30.439   6.731   3.668
  409W        W61698  22.224  44.476   0.923
  410W        W61699  44.982   8.329  11.921
  411W        W61700  43.810  31.046   3.160
  412W        W61701  17.233  27.987  13.368
  413W        W61702  23.229   5.422   3.826
  414W        W61703   8.263   9.727  14.012
  415W        W61704  42.006   5.784  14.914
  416W        W61705  17.795   1.841   4.684
  417W        W61706  27.470  30.067  13.029
  418W        W61707  18.122  24.152   3.743
  419W        W61708  17.730  33.443   3.863
  420W        W61709  34.604  19.686   4.352
  421W        W61710  30.423  15.650   0.895
  422W        W61711  11.695  21.205   0.336
  423W        W61712  22.620  16.208  12.086
  424W        W61713  37.347  30.554  13.525
  425W        W61714   8.864  16.576   0.257
  426W        W61715  40.496  20.564   0.383
  427W        W61716  16.273  43.831  11.387
  428W        W61717  11.151  15.578  10.613
  429W        W61718  10.799  10.855   4.677
  430W        W61719  16.286  25.072  11.601
  431W        W61720   4.792  36.868   0.945
  432W        W61721   5.886   5.199   4.679
  433W        W61722  36.416  28.576  11.900
  434W        W61723  35.526   3.775   2.289
  435W        W61724   2.430  36.080  11.899
  436W        W61725  13.704  31.967   3.146
  437W        W61726  27.981  40.962  13.926
  438W        W61727  36.398   8.702   1.860
  439W        W61728  41.035   9.683  14.818
  440W        W61729   1.408  11.761  14.846
  441W        W61730   1.873  23.189   2.725
  442W        W61731  32.637  21.694   1.903
  443W        W61732   5.376  39.483   4.824
  444W        W61733  29.493  26.169   1.329
  445W        W61734   0.924   9.276   0.390
  446W        W61735  19.552   0.975   3.201
  447W        W61736  31.071   9.393  13.336
  448W        W61737  13.648  20.705   2.735
  449W        W61738   4.433   3.783   3.688
  450W        W61739  28.450  29.936  10.614
  451W        W61740  36.088  40.378  11.886
  452W        W61741   1.861  40.348   4.751
  453W        W61742   3.852  22.642  11.447
  454W        W61743  28.113  37.390   1.339
  455W        W61744  27.062  11.733   1.382
  456W        W61745  42.337  18.278   2.900
  457W        W61746  34.478   3.808   3.291
  458W        W61747  25.508  38.433  12.950
  459W        W61748   5.707  22.145  13.485
  460W        W61749  11.778  26.514  14.950
  461W        W61750  43.970   3.725  12.571
  462W        W61751  43.871  30.533  11.954
  463W        W61752  28.178  43.498  11.902
  464W        W61753  14.701  35.437   2.389
  465W        W61754   8.689  19.200  10.448
  466W        W61755  44.850  24.643  11.016
  467W        W61756  19.772  31.624  14.321
  468W        W61757  15.810  18.174   9.921
  469W        W61758  16.781  31.928  14.337
  470W        W61759  24.073   1.300  12.880
  471W        W61760  35.856  38.424  14.408
  472W        W61761  44.796  29.117   3.293
  473W        W61762  23.552   4.818   0.937
  474W        W61763   3.413  33.474   3.630
  475W        W61764   6.832  19.726  14.357
  476W        W61765   3.221  15.110   0.942
  477W        W61766  44.263   6.227  13.822
  478W        W61767  18.736  20.525  10.535
  479W        W61768   3.751  30.646   4.132
  480W        W61769  28.100  26.654  13.447
  481W        W61770  40.518  35.453   1.848
  482W        W61771   5.723  16.185  10.498
  483W        W61772  31.643  33.456   4.705
  484W        W61773   0.343  23.516   0.871
  485W        W61774  40.310  11.763   2.850
  486W        W61775  29.068  19.617   4.668
  487W        W61776  41.814  31.034  13.824
  488W        W61777  18.658  25.616  10.571
  489W        W61778  42.519   5.831  10.518
  490W        W61779  10.187  28.115   3.647
  491W        W61780  30.989  27.014   4.287
  492W        W61781  39.325  30.913   1.362
  493W        W61782   1.912  11.191   4.206
  494W        W61783   6.309  10.850   4.680
  495W        W61784  29.544   1.242   9.654
  496W        W61785  42.798   2.863  12.355
  497W        W61786  22.028  20.253   3.641
  498W        W61787   9.762  14.223  10.407
  499W        W61788   3.391   7.796  14.839
  500W        W61789  12.171   4.793   2.292
  501W        W61790  12.746  24.647  13.855
  502W        W61791  14.786   9.806   4.691
  503W        W61792   9.855  18.156  10.925
  504W        W61793  30.913  15.284  12.446
  505W        W61794  23.216   6.711   4.263
  506W        W61795  28.665  37.577   1.269
  507W        W61796  13.676  24.119  11.047
  508W        W61797  22.172  39.934   1.926
  509W        W61798  12.828  35.543  14.343
  510W        W61799   4.210  17.697   3.735
  511W        W61800  23.492  23.130   3.764
  512W        W61801  34.938  38.039   0.450
  513W        W61802   6.373  27.072   4.652
  514W        W61803  35.591  17.704   0.757
  515W        W61804  33.029  24.055   3.753
  516W        W61805  25.174  16.780   1.883
  517W        W61806  11.256  11.319   2.263
  518W        W61807  34.909  22.069  12.552
  519W        W61808  17.132  22.032   5.103
  520W        W61809   1.483  36.915  10.959
  521W        W61810   3.916  29.131  14.793
  522W        W61811  35.385  30.460  14.339
  523W        W61812  16.785  43.856   1.904
  524W        W61813  16.800  23.603  13.847
  525W        W61814   3.252  19.244   3.762
  526W        W61815  16.639  29.139   2.834
  527W        W61816  12.189  32.523   1.255
  528W        W61817  39.490  36.058   3.239
  529W        W61818  44.931  34.383   2.370
  530W        W61819  13.826  30.489   3.205
  531W        W61820  29.453   8.721  10.129
  532W        W61821  28.091  26.154   2.766
  533W        W61822   7.323  29.176   2.828
  534W        W61823  17.072  10.272  12.066
  535W        W61824  37.399   8.846   3.750
  536W        W61825  14.142  20.040  14.286
  537W        W61826  19.087  15.780   0.846
  538W        W61827  28.453  29.551   3.336
  539W        W61828   8.754  17.790  11.019
  540W        W61829  34.515  37.916   0.758
  541W        W61830  35.513  19.050  11.501
  542W        W61831  17.294  14.743  13.398
  543W        W61832  41.795  42.493   2.367
  544W        W61833  39.930  10.686  14.290
  545W        W61834   1.279  24.721  11.605
  546W        W61835  43.930  25.714  11.590
  547W        W61836  10.730  35.973  10.980
  548W        W61837   9.158   2.283   1.230
  549W        W61838   6.747   3.726  12.562
  550W        W61839  19.171  43.514  11.128
  551W        W61840  43.837  33.386  12.373
  552W        W61841  20.121  21.743   4.800
  553W        W61842   4.886   5.273  11.026
  554W        W61843  34.920  21.090   1.887
  555W        W61844  42.834  23.072   2.197
  556W        W61845  25.549  28.515   4.642
  557W        W61846  25.104  30.929   0.835
  558W        W61847  32.938  39.963  11.575
  559W        W61848   6.682  25.025  12.902
  560W        W61849  10.696   3.325   3.262
  561W        W61850   3.372  27.107   4.124
  562W        W61851  42.948   0.953   2.675
  563W        W61852  10.222  13.821  13.917
  564W        W61853  12.250   8.302  14.959
  565W        W61854  35.966  19.747  11.104
  566W        W61855   0.959   3.314   5.241
  567W        W61856  37.040  43.308  12.950
  568W        W61857  20.257  12.753  14.013
  569W        W61858  31.550  22.559  11.887
  570W        W61859  39.889  25.032  11.422
  571W        W61860  34.482   2.855  13.361
  572W        W61861   8.165  42.837   3.671
  573W        W61862  10.828  36.535   3.305
  574W        W61863  37.048  21.226  14.887
  575W        W61864   1.380   8.817  12.909
  576W        W61865  12.668  16.147   3.305
  577W        W61866  14.280   8.232  12.093
  578W        W61867   5.196  32.052   4.251
  579W        W61868  10.243  15.783   2.260
  580W        W61869   5.919  15.616   3.823
  581W        W61870  31.441  31.458  14.456
  582W        W61871  29.137  14.751   2.724
  583W        W61872  43.764  19.109   3.634
  584W        W61873   4.320  35.972   4.208
  585W        W61874  14.694  44.299  10.548
  586W        W61875  38.430  38.838   0.448
  587W        W61876  40.857  27.630   4.122
  588W        W61877  14.326  33.995  10.431
  589W        W61878  15.304  32.125  13.989
  590W        W61879  38.550  33.399  13.054
  591W        W61880  23.584  11.347  13.840
  592W        W61881  23.733  20.089   3.836
  593W        W61882  23.674  14.097  11.066
  594W        W61883  22.078  28.478   3.661
  595W        W61884  30.596  32.588  12.021
  596W        W61885  16.185  14.657   1.868
  597W        W61886  19.672  10.776  13.895
  598W        W61887   5.908  40.967  12.405
  599W        W61888  29.102  26.456  13.920
  600W        W61889   7.322  40.832  14.412
  601W        W61890  17.150  41.945  13.942
  602W        W61891  39.915  12.744   2.806
  603W        W61892  30.989  41.327  10.412
  604W        W61893   2.966  12.160  11.881
  605W        W61894  29.921  10.691   0.844
  606W        W61895  43.471  23.053  12.008
  607W        W61896  42.496  44.338  12.464
  608W        W61897  11.192  16.303  10.982
  609W        W61898  30.155   0.377  14.365
  610W        W61899  40.372   6.296  12.823
  611W        W61900  32.513   1.476   1.363
  612W        W61901   7.693  36.590   3.371
  613W        W61902  42.830  34.429   9.941
  614W        W61903  29.561   2.433  11.864
  615W        W61904  15.233   5.845  14.920
  616W        W61905  14.271   3.875   4.352
  617W        W61906  44.286  37.858   2.198
  618W        W61907  21.629  15.781  14.447
  619W        W61908  16.604  28.941  10.449
  620W        W61909   0.878  19.692   1.330
  621W        W61910  33.005  31.474   2.209
  622W        W61911  22.213  19.124   4.711
  623W        W61912  33.037   9.748  12.914
  624W        W61913  11.370  34.036  11.544
  625W        W61914   5.408  27.076  11.888
  626W        W61915  37.049  44.895   3.857
  627W        W61916  11.235  12.182   3.189
  628W        W61917  27.165   4.244   0.434
  629W        W61918  42.785  23.659   0.371
  630W        W61919   3.236   2.412   3.709
  631W        W61920  27.946  13.800   3.363
  632W        W61921  35.997  16.599  12.536
  633W        W61922  29.007   2.250   1.252
  634W        W61923   3.751  18.607  14.805
  635W        W61924  40.412  38.950   3.848
  636W        W61925   2.229  17.690   2.760
  637W        W61926   1.940   6.272   1.233
  638W        W61927   9.278   5.385  11.490
  639W        W61928  12.766  40.047  11.512
  640W        W61929  18.124  44.950   1.913
  641W        W61930  34.988  16.096  14.429
  642W        W61931   0.360  10.208  14.474
  643W        W61932   0.860   9.323  14.021
  644W        W61933  23.571  38.824  12.902
  645W        W61934  13.300  11.711   0.770
  646W        W61935  25.189  28.599  11.898
  647W        W61936  43.284  43.795   3.746
  648W        W61937  16.259   0.472   0.257
  649W        W61938  13.832   0.272  12.469
  650W        W61939  15.598  26.636   3.660
  651W        W61940  10.220  12.217  10.514
  652W        W61941  43.443  29.448  12.938
  653W        W61942   3.845   3.350  12.046
  654W        W61943  38.020   0.886  12.980
  655W        W61944  18.171  43.418  14.928
  656W        W61945  44.483   6.690   4.600
  657W        W61946  31.439  11.312   0.245
  658W        W61947  26.098  39.524  12.871
  659W        W61948  28.572  37.528   3.839
  660W        W61949  43.402  40.413   1.771
  661W        W61950  16.768  35.043   1.315
  662W        W61951  42.001  39.886   3.193
  663W        W61952  36.511   5.900  12.558
  664W        W61953  18.688  17.069  13.972
  665W        W61954   3.790  19.047   1.341
  666W        W61955  23.605  24.996  11.005
  667W        W61956  16.112   7.300   4.672
  668W        W61957  16.688  32.974  12.574
  669W        W61958  23.047  27.594   2.789
  670W        W61959  26.486  42.819  14.420
  671W        W61960  38.936  35.858  14.785
  672W        W61961  28.186  13.129   4.203
  673W        W61962  10.159  20.743   0.299
  674W        W61963  22.522   8.375   2.382
  675W        W61964   0.771   1.844   0.741
  676W        W61965  33.552  22.575   4.279
  677W        W61966  29.526  23.211   4.636
  678W        W61967   0.401   4.432  14.931
  679W        W61968  26.002   5.216  11.551
  680W        W61969  22.615   9.856   1.899
  681W        W61970  40.882   3.391   3.303
  682W        W61971  43.386  29.988   4.223
  683W        W61972  37.418   3.789  14.968
  684W        W61973  28.671   1.739   1.450
  685W        W61974  39.021   0.441  10.616
  686W        W61975  11.207  38.921  11.903
  687W        W61976  10.802  35.487  12.838
  688W        W61977  24.011  14.314  13.018
  689W        W61978  19.745  44.838   2.867
  690W        W61979  44.814  14.704  13.468
  691W        W61980  31.450   2.737  14.964
  692W        W61981  43.847  41.878  13.836
  693W        W61982  14.164  33.057  13.499
  694W        W61983   7.323  10.868  14.974
  695W        W61984  27.003  36.520   2.700
  696W        W61985   1.871  31.578  12.979
  697W        W61986  42.494  16.090  11.460
  698W        W61987  33.987  30.572   2.272
  699W        W61988  25.614  22.572   3.763
  700W        W61989  43.953  37.468   0.834
  701W        W61990  34.480  11.853   3.264
  702W        W61991  12.781  38.833   4.289
  703W        W61992  29.009  15.154   0.833
  704W        W61993  26.083  37.066  12.867
  705W        W61994   9.324  36.045  13.489
  706W        W61995  29.163  38.918   1.439
  707W        W61996  28.070  26.503  12.541
  708W        W61997  32.541   1.379   0.334
  709W        W61998   5.250  36.349   3.158
  710W        W61999   5.735   5.717  12.973
  711W        W62000  43.482  22.185   2.720
  712W        W62001   3.234   2.878  13.422
  713W        W62002  31.509  42.775   2.398
  714W        W62003   8.782  38.548  11.460
  715W        W62004  38.506  28.471   1.266
  716W        W62005   0.771  34.873   0.468
  717W        W62006  41.814  12.155  11.394
  718W        W62007   0.962  39.904   4.648
  719W        W62008  10.221   7.866   0.925
  720W        W62009  36.094  32.909  12.893
  721W        W62010  25.964  12.226  14.372
  722W        W62011  36.582  16.224   3.373
  723W        W62012  12.680  33.964   1.321
  724W        W62013   6.736   7.780  11.411
  725W        W62014  12.618  40.839   2.230
  726W        W62015  13.123  39.447   0.272
  727W        W62016  39.493  43.379   2.794
  728W        W62017   0.907   2.967   1.782
  729W        W62018  16.286  14.157   1.272
  730W        W62019  10.368   0.452   2.254
  731W        W62020  19.698  43.356  10.413
  732W        W62021   2.398   3.273   1.925
  733W        W62022  35.068   0.446  10.488
  734W        W62023  35.992  20.677   4.332
  735W        W62024  30.160   7.674  11.611
  736W        W62025  41.325  35.931  12.469
  737W        W62026   1.438   2.320  13.482
  738W        W62027  42.302   9.784  12.042
  739W        W62028  17.118  14.665   3.716
  740W        W62029  25.097  32.441   0.320
  741W        W62030  40.318  10.334   4.775
  742W        W62031   3.254  24.229  10.034
  743W        W62032  34.114   8.813   4.718
  744W        W62033  37.409  32.965  14.467
  745W        W62034  38.498  14.789  12.835
  746W        W62035   3.794  26.674  13.530
  747W        W62036  30.455   2.361  12.935
  748W        W62037  35.463   0.442  14.880
  749W        W62038  10.809  33.939  12.484
  750W        W62039  38.889  10.308  14.281
  751W        W62040  11.665  14.602  10.961
  752W        W62041  37.907   0.348   3.778
  753W        W62042  26.477  25.205   5.154
  754W        W62043   4.851  30.101  12.927
  755W        W62044   5.292  10.296   0.421
  756W        W62045  12.281   1.767  13.981
  757W        W62046   6.311   2.795  11.499
  758W        W62047  20.564  42.951   3.291
  759W        W62048  17.169  26.610   5.175
  760W        W62049  42.450   5.352  13.444
  761W        W62050  18.666  39.487   1.450
  762W        W62051  20.662  18.773  13.794
  763W        W62052  17.738  10.249  10.946
  764W        W62053   5.221  32.541  10.980
  765W        W62054  17.070  24.985   0.366
  766W        W62055   6.304  25.043  14.980
  767W        W62056   8.882  15.291  12.056
  768W        W62057   2.453  15.200   1.258
  769W        W62058   1.881   0.827  13.473
  770W        W62059  19.124  38.556   0.244
  771W        W62060  34.486  31.910   4.728
  772W        W62061   6.330   7.791  12.019
  773W        W62062   7.235   8.326  13.534
  774W        W62063  40.305  31.908  14.460
  775W        W62064  32.093  33.008   4.836
  776W        W62065  29.130  10.163  11.425
  777W        W62066  27.680  16.655  11.884
  778W        W62067  40.896  11.796   0.936
  779W        W62068  40.971  26.959  12.896
  780W        W62069  20.208  15.307   1.714
  781W        W62070  28.164  35.002   5.317
  782W        W62071  41.039  31.141   1.258
  783W        W62072   9.692   6.364  12.549
  784W        W62073   1.418  32.944  11.457
  785W        W62074  10.782   6.918  11.028
  786W        W62075  40.924  36.962   3.780
  787W        W62076  19.238   7.277  14.275
  788W        W62077  36.997   9.723   1.761
  789W        W62078   4.831  14.096  13.807
  790W        W62079  27.093   7.274   2.255
  791W        W62080  44.951  20.255  13.386
  792W        W62081   8.185   1.252   3.261
  793W        W62082  44.989  18.622   3.642
  794W        W62083   9.306  37.519   0.964
  795W        W62084  43.897  39.991  11.863
  796W        W62085   6.850  35.491  14.768
  797W        W62086   1.440  17.620   3.373
  798W        W62087   2.306  36.063  14.763
  799W        W62088  11.699  35.020   0.451
  800W        W62089   7.373  29.056  11.539
  801W        W62090  31.416  20.031   4.839
  802W        W62091  31.986  23.119  13.025
  803W        W62092   3.215  14.280   4.818
  804W        W62093  35.006   1.482  11.570
  805W        W62094  34.951  33.953   0.369
  806W        W62095  36.023   2.740  12.082
  807W        W62096   9.841   3.452   1.892
  808W        W62097  24.645  25.036  11.917
  809W        W62098   6.849  28.660  12.554
  810W        W62099  25.028  19.695  14.933
  811W        W62100  43.951  27.147  11.030
  812W        W62101   8.686  25.672   0.873
  813W        W62102  29.455  10.638  14.872
  814W        W62103  34.551  41.988   4.702
  815W        W62104   8.689  26.075  10.991
  816W        W62105  14.173  18.232  14.413
  817W        W62106   7.235   7.860  13.389
  818W        W62107  13.231   4.223   4.288
  819W        W62108   1.867  28.047   0.895
  820W        W62109  25.995   3.940   2.767
  821W        W62110  23.138  34.998  14.911
  822W        W62111   9.872  30.969   4.764
  823W        W62112  10.860  33.608  14.289
  824W        W62113  13.841  19.666  12.937
  825W        W62114   1.240  12.152   3.700
  826W        W62115  33.513  25.488  14.456
  827W        W62116  33.987  14.261   1.431
  828W        W62117  26.689  23.042  10.146
  829W        W62118  27.164  38.858  10.150
  830W        W62119  25.708  31.945   3.706
  831W        W62120  37.473  20.592   3.324
  832W        W62121  43.768  16.170   1.703
  833W        W62122  12.274  13.691  11.523
  834W        W62123  12.715  43.384  13.327
  835W        W62124  39.325  25.167   3.167
  836W        W62125  28.444  23.040   1.401
  837W        W62126  30.596  29.926  11.967
  838W        W62127  23.569  24.649  13.514
  839W        W62128  11.675  33.418   1.841
  840W        W62129  13.780  38.011  12.005
  841W        W62130  35.550  43.895  11.034
  842W        W62131   1.470  15.315   1.429
  843W        W62132  32.461   7.301  11.041
  844W        W62133  40.884  17.076  14.388
  845W        W62134  29.095  21.029   1.932
  846W        W62135  14.643  17.234   4.152
  847W        W62136  32.431  10.807  14.293
  848W        W62137  26.138  27.665   0.943
  849W        W62138  16.784  28.603  10.932
  850W        W62139   7.201  27.172  12.397
  851W        W62140   0.865  26.572   1.808
  852W        W62141  23.050  13.310   2.383
  853W        W62142  36.915  29.480  10.414
  854W        W62143  27.062  12.315   0.847
  855W        W62144   1.937  28.945  12.442
  856W        W62145   7.723  16.205  13.802
  857W        W62146  29.488  11.326  12.363
  858W        W62147  36.928  36.023   2.854
  859W        W62148   7.717  40.492  13.484
  860W        W62149   5.741  30.939  13.534
  861W        W62150   2.785  29.148  11.957
  862W        W62151  16.606  39.426  14.895
  863W        W62152  38.061  13.140  13.914
  864W        W62153   0.809  39.971   0.890
  865W        W62154  18.769  17.759   0.480
  866W        W62155  23.513   1.400  12.389
  867W        W62156  31.524  12.813  14.904
  868W        W62157   7.718  18.651  12.942
  869W        W62158  37.441  27.079  13.477
  870W        W62159  22.587   7.377  12.035
  871W        W62160  21.136  14.740   0.413
  872W        W62161  13.140  31.606  14.398
  873W        W62162  22.191  15.769  14.905
  874W        W62163   7.855  21.217   1.365
  875W        W62164  20.202  19.212   2.849
  876W        W62165  36.516  15.225  11.386
  877W        W62166  23.083  14.734  13.859
  878W        W62167  42.972  12.214  13.442
  879W        W62168  13.247  33.575  10.054
  880W        W62169  10.791  44.969  13.999
  881W        W62170  30.453  37.468   0.775
  882W        W62171   7.800   8.373   4.277
  883W        W62172  38.875  41.966   4.795
  884W        W62173  38.014  33.031   2.356
  885W        W62174  43.980   7.824  13.814
  886W        W62175  38.997  32.493   1.264
  887W        W62176  26.635  38.512   0.430
  888W        W62177  16.199  23.002  13.426
  889W        W62178  27.947  44.431  14.845
  890W        W62179  19.627  37.883   4.175
  891W        W62180  38.024  32.572   1.434
  892W        W62181   9.242  29.124  10.512
  893W        W62182   4.434  23.501   3.159
  894W        W62183  30.029   4.720   4.718
  895W        W62184   5.773  22.733   4.278
  896W        W62185  44.939  23.064   3.835
  897W        W62186  27.597   5.386  14.328
  898W        W62187   4.417  36.436   2.808
  899W        W62188  41.868  21.688   4.347
  900W        W62189  42.417  37.521  10.565
  901W        W62190  22.050  34.597   4.664
  902W        W62191  17.684  14.666   3.813
  903W        W62192  33.546  16.721  13.044
  904W        W62193  31.603  11.163   1.927
  905W        W62194  38.539  37.071   2.672
  906W        W62195  21.553   3.217  12.848
  907W        W62196   5.399   0.802  14.840
  908W        W62197  30.097   5.429  12.563
  909W        W62198   8.775  15.110  14.394
  910W        W62199  41.391  30.028   1.834
  911W        W62200  28.647   7.864  14.885
  912W        W62201  25.574  18.270   4.328
  913W        W62202   4.231  41.855   0.962
  914W        W62203  37.538   2.463   5.262
  915W        W62204  38.464   5.438   0.919
  916W        W62205  29.634  26.121  14.323
  917W        W62206  19.238  24.605  14.401
  918W        W62207  24.170  12.259   3.348
  919W        W62208  24.050  31.431  11.911
  920W        W62209   1.751  36.587  14.961
  921W        W62210  36.466  32.637  11.960
  922W        W62211  10.229  17.713  12.971
  923W        W62212   6.758  12.693  12.020
  924W        W62213  22.118  16.082  11.911
  925W        W62214  29.638  26.496  14.331
  926W        W62215  13.338  23.558  13.825
  927W        W62216  27.175  18.740  12.391
  928W        W62217  43.971  27.541   4.130
  929W        W62218  21.552  20.673  10.614
  930W        W62219  36.552   6.688   4.761
  931W        W62220  41.976   4.213  10.966
  932W        W62221   1.252  37.063   3.152
  933W        W62222  42.967  43.824   2.725
  934W        W62223   5.800  37.926  12.914
  935W        W62224  42.007   3.240   2.410
  936W        W62225  26.469  25.130   1.877
  937W        W62226  11.233  23.187  14.763
  938W        W62227  34.524   4.713   4.692
  939W        W62228  22.009  32.602  13.478
  940W        W62229  38.995  15.804  12.050
  941W        W62230  31.608   0.978   3.383
  942W        W62231  44.996  21.021   4.138
  943W        W62232  27.468  33.101   3.802
  944W        W62233  11.302  39.444  13.795
  945W        W62234   0.961  12.663  13.464
  946W        W62235  36.878   2.755  13.532
  947W        W62236  10.748  43.381   0.431
  948W        W62237  23.180  44.276  13.939
  949W        W62238   3.834  44.349   1.705
  950W        W62239  14.673  11.316   3.328
  951W        W62240  14.767  29.552   4.759
  952W        W62241  27.680  44.272   3.776
  953W        W62242  14.682  34.102  13.812
  954W        W62243  12.836  36.063  13.964
  955W        W62244  34.932   0.767  13.308
  956W        W62245  33.057  15.317   2.181
  957W        W62246  28.974   6.716  11.988
  958W        W62247  14.314  36.052  14.490
  959W        W62248  27.612   0.760  14.926
  960W        W62249   3.418  43.926   2.345
  961W        W62250  14.715  35.375  11.450
  962W        W62251  27.029  19.196   1.726
  963W        W62252  26.988  21.701   5.224
  964W        W62253   1.458  43.769   0.258
  965W        W62254  16.279  24.614  12.035
  966W        W62255  22.533  16.812   1.839
  967W        W62256  17.077  24.111  14.000
  968W        W62257  39.445  18.171   2.226
  969W        W62258  10.286  41.379   0.458
  970W        W62259  36.445  31.074  14.368
  971W        W62260  27.469  39.912   3.176
  972W        W62261  24.135  15.244   1.765
  973W        W62262  16.795   7.388  12.414
  974W        W62263  25.126  39.982  10.938
  975W        W62264  19.686  34.064  11.449
  976W        W62265  29.453   6.729  10.621
  977W        W62266  43.473   6.405   2.385
  978W        W62267  16.742  33.895  11.443
  979W        W62268   5.877  31.513   1.304
  980W        W62269  35.955   6.362  13.399
  981W        W62270  43.334  20.196   0.808
  982W        W62271  42.404   4.857  12.852
  983W        W62272  12.730  37.863  11.509
  984W        W62273  34.427  23.699   2.676
  985W        W62274  25.069  21.222  11.030
  986W        W62275  21.651  18.562   4.292
  987W        W62276   4.339  18.592  11.873
  988W        W62277   4.801   0.789   0.243
  989W        W62278  22.206  41.312   2.793
  990W        W62279  40.336  44.352   4.716
  991W        W62280  38.523  15.245  14.313
  992W        W62281  44.844  44.455  14.432
  993W        W62282  26.474   7.251  11.073
  994W        W62283  31.959  16.642   1.273
  995W        W62284  12.297  19.058   4.825
  996W        W62285   8.183  31.137  13.355
  997W        W62286  10.384  32.000   9.492
  998W        W62287  23.640  27.162   3.255
  999W        W62288  19.265   6.911  12.362
 1000W        W62289  43.457  15.196   2.786
 1001W        W62290  28.143  44.780   1.254
 1002W        W62291  43.349   9.844   2.773
 1003W        W62292  36.861  38.567  14.780
 1004W        W62293  42.469  24.521  10.540
 1005W        W62294  27.172   9.876   0.335
 1006W        W62295  34.512  40.832  12.026
 1007W        W62296   9.785   0.352   1.280
 1008W        W62297  37.393  15.183  12.023
 1009W        W62298  10.758  35.505   0.875
 1010W        W62299  40.909  13.118   2.676
 1011W        W62300  17.771  40.415  12.406
 1012W        W62301   8.218  15.823   0.738
 1013W        W62302  12.313  16.767   1.874
 1014W        W62303  10.755  30.954  10.990
 1015W        W62304   4.250   5.231   2.377
 1016W        W62305   9.719  28.068  10.419
 1017W        W62306  29.505   1.392   1.779
 1018W        W62307  29.617  29.516  11.034
 1019W        W62308  14.705  20.173  11.576
 1020W        W62309  12.189  12.650   0.894
 1021W        W62310  40.890   9.741  13.484
 1022W        W62311  19.166  27.062   0.433
 1023W        W62312  44.864   0.934   4.220
 1024W        W62313  41.792  32.450   1.374
 1025W        W62314  24.983  29.539   4.286
 1026W        W62315  44.385   4.293  11.915
 1027W        W62316  40.303  19.183   0.903
 1028W        W62317  34.088  32.533   3.863
 1029W        W62318  17.061  18.225  13.359
 1030W        W62319   7.322   3.862  11.013
 1031W        W62320  15.213  11.662   2.280
 1032W        W62321  18.264   1.478  14.013
 1033W        W62322  10.635  25.206   2.182
 1034W        W62323  42.913   7.903  13.311
 1035W        W62324  25.484  38.427   4.347
 1036W        W62325  26.187  31.428  13.010
 1037W        W62326  18.617  40.470   2.280
 1038W        W62327  34.973   4.427  13.969
 1039W        W62328   4.899  36.430   4.790
 1040W        W62329  39.486  11.155   2.350
 1041W        W62330   6.265  34.573   1.299
 1042W        W62331  18.587   1.401   3.368
 1043W        W62332  34.990  20.642   4.242
 1044W        W62333  30.620  43.961   4.255
 1045W        W62334  15.183  41.408   2.880
 1046W        W62335  13.730  11.269  12.353
 1047W        W62336  33.497   8.830  10.407
 1048W        W62337  32.444   7.380   2.225
 1049W        W62338  17.632  35.104   4.350
 1050W        W62339  30.487  31.619  13.477
 1051W        W62340   8.738  33.098   1.241
 1052W        W62341   7.181  38.066   2.202
 1053W        W62342  33.591   1.829   1.265
 1054W        W62343   3.732   4.737   3.296
 1055W        W62344  30.426  17.580   2.269
 1056W        W62345  42.896   6.840  13.325
 1057W        W62346  28.991  43.426   4.635
 1058W        W62347  23.159  21.210   3.804
 1059W        W62348  38.850  29.934  11.378
 1060W        W62349  21.662   2.778  13.537
 1061W        W62350  43.780   1.262   4.139
 1062W        W62351  37.449   9.675   1.281
 1063W        W62352   2.325  41.460   4.823
 1064W        W62353  38.363   6.338  12.393
 1065W        W62354  43.509   5.262   3.294
 1066W        W62355  43.015   9.177   3.686
 1067W        W62356   3.826   7.751   0.468
 1068W        W62357  40.849  38.979  11.876
 1069W        W62358   4.862   3.454  13.404
 1070W        W62359  36.849  14.144  12.958
 1071W        W62360  19.542  36.992   1.390
 1072W        W62361  26.047  31.617  12.545
 1073W        W62362  20.697   5.747  11.997
 1074W        W62363   0.450   9.154  13.944
 1075W        W62364  42.857   5.841   4.302
 1076W        W62365  34.586  38.075   4.604
 1077W        W62366  44.268  20.686  12.023
 1078W        W62367  33.956  23.697   4.835
 1079W        W62368  15.207  18.723  13.356
 1080W        W62369  41.970   0.427  14.489
 1081W        W62370   2.429  43.878   0.928
 1082W        W62371  24.688  11.363   3.670
 1083W        W62372  37.368   2.344  13.439
 1084W        W62373  28.023   7.177  14.400
 1085W        W62374  17.140  35.439  10.994
 1086W        W62375  32.044  24.699  14.505
 1087W        W62376  10.661  42.832   0.750
 1088W        W62377  20.531  38.554   0.450
 1089W        W62378  39.430  36.478  10.972
 1090W        W62379  26.546  25.632   2.777
 1091W        W62380   1.382  33.979   1.451
 1092W        W62381  29.054   5.324  11.604
 1093W        W62382  39.929  23.525   0.953
 1094W        W62383   6.418  35.982   3.797
 1095W        W62384  11.635  40.950  12.509
 1096W        W62385   1.748  34.977  13.028
 1097W        W62386  25.171  39.420   3.730
 1098W        W62387  38.567  30.464  10.407
 1099W        W62388  42.463  38.540   2.395
 1100W        W62389  22.153  38.422   1.845
 1101W        W62390  20.097  33.406  14.013
 1102W        W62391  11.655   0.275   0.399
 1103W        W62392  13.134  26.630   5.242
 1104W        W62393  13.668  27.485   1.782
 1105W        W62394  13.636  23.222   4.676
 1106W        W62395  15.803  19.533  12.469
 1107W        W62396  32.436  15.592  14.932
 1108W        W62397  35.570  24.511   0.433
 1109W        W62398  44.403  29.005   2.388
 1110W        W62399   5.725  16.275  13.956
 1111W        W62400  21.750  21.670  13.367
 1112W        W62401  33.437  31.594  11.518
 1113W        W62402  29.625  29.602  11.920
 1114W        W62403  17.173  34.049   1.780
 1115W        W62404  36.369  12.320  10.600
 1116W        W62405  41.886  21.536   2.351
 1117W        W62406  17.677  44.344  12.052
 1118W        W62407  17.615  31.538   0.290
 1119W        W62408  35.395  25.146  14.363
 1120W        W62409   0.354  15.290   1.858
 1121W        W62410  27.643  11.645  13.939
 1122W        W62411  29.444   3.780  13.349
 1123W        W62412  44.787  30.424  14.879
 1124W        W62413  37.459  28.674  11.412
 1125W        W62414  11.324   3.272   1.884
 1126W        W62415  19.694  34.578  10.550
 1127W        W62416   7.253   0.783  14.449
 1128W        W62417  30.932  29.921  13.350
 1129W        W62418  44.960  11.139   4.617
 1130W        W62419  38.511  29.499   4.269
 1131W        W62420   2.268  17.779  10.481
 1132W        W62421   8.382   8.207  13.514
 1133W        W62422  25.218   9.651  11.378
 1134W        W62423   3.733  21.192  14.805
 1135W        W62424  36.977  40.455   2.364
 1136W        W62425   5.782  44.938  14.419
 1137W        W62426  29.958  12.311   1.870
 1138W        W62427  43.006  41.376  13.964
 1139W        W62428  22.117  42.439   4.756
 1140W        W62429  30.522   5.926  14.960
 1141W        W62430  27.139  28.968   5.120
 1142W        W62431  41.340  13.117   0.308
 1143W        W62432   0.334  43.411   4.707
 1144W        W62433  15.328  27.167   0.244
 1145W        W62434   1.243  39.522  11.457
 1146W        W62435  24.649  41.896  12.874
 1147W        W62436  28.588  10.787   4.804
 1148W        W62437   1.281   2.958   4.187
 1149W        W62438  31.622  43.850   1.729
 1150W        W62439   5.893  40.841  13.045
 1151W        W62440   7.808   4.363   1.920
 1152W        W62441  29.080  24.502   0.479
 1153W        W62442   0.311  33.456  12.502
 1154W        W62443  34.428   8.778  11.595
 1155W        W62444  30.472   8.338   3.248
 1156W        W62445  34.483  14.119   4.229
 1157W        W62446  41.464   2.385  11.478
 1158W        W62447  38.494  14.759  11.867
 1159W        W62448  10.180  39.423  11.461
 1160W        W62449  41.841   6.340   1.720
 1161W        W62450  20.762   3.778  12.514
 1162W        W62451  11.712   2.946  10.436
 1163W        W62452  25.071  21.729  11.028
 1164W        W62453  13.692  20.118  12.956
 1165W        W62454  43.829   8.309   4.823
 1166W        W62455  21.582  36.427  13.413
 1167W        W62456  21.226  16.253   4.344
 1168W        W62457  31.008   7.898  14.288
 1169W        W62458  21.546  15.699   4.231
 1170W        W62459  39.896  24.048  12.887
 1171W        W62460  33.937  40.451  14.863
 1172W        W62461  43.948  30.962   0.387
 1173W        W62462  12.237   0.401   0.736
 1174W        W62463  41.829  23.042   4.296
 1175W        W62464  39.994  24.165   0.852
 1176W        W62465  10.194  14.323   4.642
 1177W        W62466  40.855   0.812   2.304
 1178W        W62467   9.289  29.596   4.632
 1179W        W62468  30.963  42.892  10.439
 1180W        W62469  42.498   5.243   3.766
 1181W        W62470  10.804  11.178  13.941
 1182W        W62471   4.432  14.636  12.502
 1183W        W62472  24.599  15.251  12.961
 1184W        W62473  23.581  15.325  10.553
 1185W        W62474   6.427  26.650   0.347
 1186W        W62475  36.874  10.632  12.032
 1187W        W62476  21.598  26.069   2.269
 1188W        W62477  12.758   4.883  10.624
 1189W        W62478  10.364  33.578  12.973
 1190W        W62479  44.864  28.980   2.838
 1191W        W62480  26.989   6.255  14.274
 1192W        W62481  14.337  25.097  14.773
 1193W        W62482   3.435  30.466   0.256
 1194W        W62483  25.500  21.082  13.854
 1195W        W62484  10.153  27.504  13.816
 1196W        W62485  21.618  26.064   3.748
 1197W        W62486  23.712  32.101  13.957
 1198W        W62487  20.082  21.613  13.442
 1199W        W62488  28.046  31.473  11.946
 1200W        W62489  13.318   9.834  13.433
 1201W        W62490   2.390  13.614  12.542
 1202W        W62491   5.910  11.321  10.565
 1203W        W62492  36.897  36.981  11.052
 1204W        W62493   8.859  38.863  12.405
 1205W        W62494  16.587   1.930  12.485
 1206W        W62495  12.852  38.076  12.861
 1207W        W62496  22.065  36.568   2.744
 1208W        W62497  35.853  42.838   1.374
 1209W        W62498  16.100   6.321  14.282
 1210W        W62499  26.989   8.663   4.642
 1211W        W62500   8.342  27.662  11.050
 1212W        W62501  37.864   0.956  11.048
 1213W        W62502  17.129  10.318  12.846
 1214W        W62503  30.028   9.821   3.230
 1215W        W62504  36.972  24.141   0.731
 1216W        W62505  34.014  22.746   2.301
 1217W        W62506   0.460  37.003  11.567
 1218W        W62507  22.722  13.275   4.639
 1219W        W62508   2.451  23.611  12.894
 1220W        W62509  28.610  20.129  13.913
 1221W        W62510  27.020  25.693  11.936
 1222W        W62511  21.691  19.104   2.297
 1223W        W62512  15.223  20.231   5.703
 1224W        W62513  37.863  19.623  12.035
 1225W        W62514  43.403  29.966  13.809
 1226W        W62515  14.279  27.591   1.827
 1227W        W62516  18.247  38.820  14.766
 1228W        W62517  44.859  18.286  13.841
 1229W        W62518  22.598  17.648  13.827
 1230W        W62519  25.009  29.166  13.966
 1231W        W62520  23.521  26.196   0.854
 1232W        W62521  40.324  34.870  12.088
 1233W        W62522  30.133  41.966  13.795
 1234W        W62523  26.199   1.879  14.795
 1235W        W62524  22.620  18.656  12.418
 1236W        W62525  27.501   7.878   5.095
 1237W        W62526  10.814   3.447   0.413
 1238W        W62527  31.940  35.591  10.640
 1239W        W62528  13.647  36.535   3.180
 1240W        W62529  15.311   9.809   4.806
 1241W        W62530  12.693  39.974   2.363
 1242W        W62531  22.690  10.253   2.375
 1243W        W62532  25.687  44.804   2.357
 1244W        W62533  31.409  29.642   2.294
 1245W        W62534  15.794  14.265  14.499
 1246W        W62535  30.641  36.553  14.013
 1247W        W62536  34.514  22.084   0.281
 1248W        W62537  10.171  36.460  10.988
 1249W        W62538  21.637  24.009   3.852
 1250W        W62539  36.945  15.131  12.513
 1251W        W62540  27.690  15.172   3.369
 1252W        W62541  22.747   5.732  11.601
 1253W        W62542   8.785  42.876  11.126
 1254W        W62543   2.378  16.149  13.845
 1255W        W62544  18.272  13.825   0.337
 1256W        W62545  38.018  22.638   1.361
 1257W        W62546  12.171  12.228  12.834
 1258W        W62547  40.490   4.287   3.786
 1259W        W62548  17.761  36.415   4.354
 1260W        W62549  27.655  22.175  11.497
 1261W        W62550  39.931  19.084  12.052
 1262W        W62551  44.376  13.604  14.316
 1263W        W62552   7.299  43.402  12.931
 1264W        W62553  33.566  26.142   0.968
 1265W        W62554  32.409  42.794  10.611
 1266W        W62555  28.082  25.511   1.842
 1267W        W62556   7.309  22.502   1.720
 1268W        W62557  17.668  18.626  14.954
 1269W        W62558  19.767  40.015   3.323
 1270W        W62559  34.919  31.947  10.534
 1271W        W62560  14.622   9.741   4.202
 1272W        W62561  37.564  31.934  12.929
 1273W        W62562  38.366  28.999   2.739
 1274W        W62563  24.651   8.660  10.533
 1275W        W62564  10.163  27.158  14.276
 1276W        W62565   7.885  24.047   2.832
 1277W        W62566   6.326  33.558   3.798
 1278W        W62567   7.345  34.962  12.859
 1279W        W62568  30.947  33.025   4.792
 1280W        W62569  23.507  39.545  13.513
 1281W        W62570  44.831  10.181   0.776
 1282W        W62571  40.431  15.703   4.741
 1283W        W62572   0.281   1.314  12.487
 1284W        W62573  19.168  37.443  12.479
 1285W        W62574  34.436  20.222   3.781
 1286W        W62575  31.607  39.906  14.277
 1287W        W62576  43.278  12.300   1.870
 1288W        W62577  43.404  28.147   1.725
 1289W        W62578  32.505  32.061   0.249
 1290W        W62579  40.522  21.586   0.407
 1291W        W62580   4.252  42.815   3.180
 1292W        W62581  14.253  15.798  14.361
 1293W        W62582  24.716  12.219   1.857
 1294W        W62583  37.390  39.907  13.359
 1295W        W62584  23.689  18.121   2.335
 1296W        W62585  38.424  16.124   5.218
 1297W        W62586  33.062  38.392  10.920
 1298W        W62587  24.202  27.153   4.599
 1299W        W62588  23.731  37.997  13.927
 1300W        W62589  40.524  18.239   2.704
 1301W        W62590  42.013  39.853   2.396
 1302W        W62591  36.934  39.887   0.245
 1303W        W62592  33.388   8.722  13.824
 1304W        W62593   2.327  31.937  14.380
 1305W        W62594  21.730  39.337  10.972
 1306W        W62595  20.210  16.712   0.743
 1307W        W62596  24.047  20.624   5.114
 1308W        W62597  29.124  44.408   0.397
 1309W        W62598  42.984  19.090  13.908
 1310W        W62599  38.355  34.592   1.293
 1311W        W62600  39.057  39.888  13.525
 1312W        W62601  25.498  16.668  11.423
 1313W        W62602  37.037   0.781  14.951
 1314W        W62603  37.539  21.642   1.888
 1315W        W62604   8.779  27.120   2.774
 1316W        W62605   6.242  31.133   2.778
 1317W        W62606  15.665   9.266  10.452
 1318W        W62607  14.799  16.130  14.972
 1319W        W62608  18.668  14.297   2.705
 1320W        W62609  20.666   3.281   4.307
 1321W        W62610   7.307  25.700  11.511
 1322W        W62611  22.644  26.032   3.753
 1323W        W62612   9.844   8.792  11.448
 1324W        W62613  14.621  10.275  12.924
 1325W        W62614  43.802  19.596  10.999
 1326W        W62615  38.886  34.021   4.774
 1327W        W62616  28.517  18.700   3.317
 1328W        W62617   0.772  19.200  13.358
 1329W        W62618  11.694  29.164  10.076
 1330W        W62619  15.654   7.343  14.971
 1331W        W62620   7.213  19.589   2.840
 1332W        W62621  35.394  21.077   2.200
 1333W        W62622  37.869  28.037  14.377
 1334W        W62623  16.776  23.579  12.028
 1335W        W62624  23.026  20.739   2.844
 1336W        W62625   2.763  19.166   2.880
 1337W        W62626  27.465  27.006  14.994
 1338W        W62627  33.111  19.231   3.257
 1339W        W62628  29.616  40.336   3.847
 1340W        W62629   8.705  10.303  12.096
 1341W        W62630  37.364  42.398   4.192
 1342W        W62631  30.511  21.666   2.385
 1343W        W62632  14.320  40.498  11.870
 1344W        W62633  28.449   5.311  12.376
 1345W        W62634  21.666   7.356  14.478
 1346W        W62635  16.579  13.704  13.390
 1347W        W62636   2.947  19.168  11.448
 1348W        W62637  18.617  33.892  11.475
 1349W        W62638  11.849  21.598   3.845
 1350W        W62639  26.972  16.288   2.245
 1351W        W62640  19.682  32.424  14.494
 1352W        W62641   0.275  38.057   4.673
 1353W        W62642   5.260  38.970  12.377
 1354W        W62643  20.717  15.609  11.882
 1355W        W62644   2.456  43.443  11.001
 1356W        W62645   4.859   9.191  14.030
 1357W        W62646   6.292  35.045   2.834
 1358W        W62647  36.379  34.438  14.820
 1359W        W62648  32.508  14.134  12.513
 1360W        W62649  44.818  28.929   0.959
 1361W        W62650   6.350  28.079   3.324
 1362W        W62651   4.417  13.608   1.743
 1363W        W62652  26.989  21.650  10.976
 1364W        W62653  10.145  28.579   2.796
 1365W        W62654   3.853  37.969   1.235
 1366W        W62655  28.472   2.834  10.456
 1367W        W62656  10.209   4.842   3.829
 1368W        W62657  44.390  31.086  14.815
 1369W        W62658  19.186   3.307   3.870
 1370W        W62659  25.516  32.619  12.915
 1371W        W62660  20.056  28.449   3.686
 1372W        W62661   3.457  34.506   0.853
 1373W        W62662  21.127   7.790  14.442
 1374W        W62663   3.952   4.388   3.285
 1375W        W62664  32.902  18.678   1.891
 1376W        W62665  19.193  24.179   1.341
 1377W        W62666  44.902   0.755   3.287
 1378W        W62667  10.827  27.516  12.442
 1379W        W62668  18.704   3.273   3.373
 1380W        W62669  10.221  32.070   3.716
 1381W        W62670  27.105  33.434  12.407
 1382W        W62671  24.974  43.841   4.333
 1383W        W62672  35.082  31.949  11.987
 1384W        W62673  11.831  44.800   2.182
 1385W        W62674  25.510   2.454  12.882
 1386W        W62675  39.385  28.647  12.383
 1387W        W62676  37.436  27.960   0.763
 1388W        W62677  44.273  18.672  14.510
 1389W        W62678  12.831  19.723   3.779
 1390W        W62679  30.514  38.416  14.493
 1391W        W62680  41.978  21.137  13.531
 1392W        W62681  43.776   4.382  13.503
 1393W        W62682  20.078   1.835  10.028
 1394W        W62683  28.514  24.682   9.582
 1395W        W62684   5.360  39.054  14.448
 1396W        W62685  13.316   3.248  12.406
 1397W        W62686  21.542   2.461  13.466
 1398W        W62687   8.720  43.968  12.921
 1399W        W62688  30.624  42.014  12.485
 1400W        W62689  11.196   0.292   2.721
 1401W        W62690  15.259  34.075  14.894
 1402W        W62691  38.476  42.414  12.961
 1403W        W62692   2.774  17.677   3.685
 1404W        W62693   2.353  36.476  14.334
 1405W        W62694  18.278   5.688  10.430
 1406W        W62695  44.964  33.087   0.919
 1407W        W62696  39.056  44.960   5.267
 1408W        W62697  17.116   3.913  12.421
 1409W        W62698  28.662   7.866   4.313
 1410W        W62699  18.131  34.387   1.262
 1411W        W62700  30.093  23.519   4.648
 1412W        W62701  43.929  33.512  13.021
 1413W        W62702  42.825  38.985  10.620
 1414W        W62703  26.123  35.487  11.391
 1415W        W62704  17.120   1.314  11.860
 1416W        W62705  18.568   2.752   1.734
 1417W        W62706   7.337  34.453   2.399
 1418W        W62707   3.241  16.229   0.459
 1419W        W62708  35.565  41.437  11.968
 1420W        W62709  20.573  41.459   3.234
 1421W        W62710  14.598  10.739  11.452
 1422W        W62711  37.053  20.094  11.995
 1423W        W62712  15.170  21.080  11.484
 1424W        W62713  38.947  19.695   1.898
 1425W        W62714  16.680  33.612   1.297
 1426W        W62715   4.406  25.123  10.494
 1427W        W62716  13.243  18.077  11.875
 1428W        W62717  17.088  23.063  14.306
 1429W        W62718  39.419   6.253   1.894
 1430W        W62719  10.172  29.103  10.968
 1431W        W62720  34.433  26.958  10.537
 1432W        W62721  38.998  28.999  12.055
 1433W        W62722  16.133  11.261  11.982
 1434W        W62723  29.064  42.295   1.924
 1435W        W62724  41.501  16.105  11.422
 1436W        W62725  26.048  19.245  14.310
 1437W        W62726   3.847  23.234   0.803
 1438W        W62727  16.746  27.670   3.637
 1439W        W62728  21.022  22.047  13.360
 1440W        W62729  24.717   2.290  13.053
 1441W        W62730  15.119  12.327   1.264
 1442W        W62731  21.143  33.556  11.488
 1443W        W62732  43.438  15.615   4.183
 1444W        W62733  25.543  26.462  10.028
 1445W        W62734  17.129  35.511   1.900
 1446W        W62735   8.675   1.897   3.223
 1447W        W62736  27.550   7.176   1.441
 1448W        W62737  39.867  28.573  12.853
 1449W        W62738  26.542   9.177  12.858
 1450W        W62739  40.045  32.507  13.470
 1451W        W62740  17.784  34.027  10.899
 1452W        W62741  36.355  33.580   3.647
 1453W        W62742  31.472  42.033  14.972
 1454W        W62743  17.783  19.262  14.356
 1455W        W62744  20.660   1.784  12.052
 1456W        W62745  31.065  29.019  13.431
 1457W        W62746  43.282  35.013   3.682
 1458W        W62747  21.584  34.456  14.866
 1459W        W62748   8.339  37.545   2.881
 1460W        W62749  14.756  43.424  11.443
 1461W        W62750  29.467  44.280   3.832
 1462W        W62751  38.377   1.467   1.232
 1463W        W62752   8.379   0.325  13.837
 1464W        W62753  13.271  39.352  14.958
 1465W        W62754  13.639  22.149   2.194
 1466W        W62755  31.999  32.392   3.190
 1467W        W62756  16.094  11.340  10.941
 1468W        W62757  36.351   4.724   3.830
 1469W        W62758  14.612  18.574   5.179
 1470W        W62759  20.551  14.319  10.637
 1471W        W62760  17.791  34.382   3.635
 1472W        W62761  20.599  29.619  12.960
 1473W        W62762  35.926  30.549  13.950
 1474W        W62763  26.662   4.304  13.405
 1475W        W62764  23.573   8.749   4.222
 1476W        W62765  14.679  44.912   1.250
 1477W        W62766  42.506  32.948  13.352
 1478W        W62767  35.389   4.423   9.534
 1479W        W62768   7.848  20.698   0.748
 1480W        W62769  19.202  25.030  13.448
 1481W        W62770  37.000  30.534  11.569
 1482W        W62771   5.814  36.517  13.427
 1483W        W62772  21.667  41.024  12.512
 1484W        W62773  37.925  33.013   4.169
 1485W        W62774  33.910  34.385   2.402
 1486W        W62775  16.184  10.710   1.287
 1487W        W62776   1.251   8.873  13.936
 1488W        W62777  35.540   8.216  10.407
 1489W        W62778  40.843  15.252   0.478
 1490W        W62779  13.196  30.945  10.966
 1491W        W62780  30.974  15.777   9.933
 1492W        W62781   1.430  42.777  11.117
 1493W        W62782  41.846   9.844  13.971
 1494W        W62783  22.148  23.717  10.634
 1495W        W62784   5.877  10.733  13.820
 1496W        W62785   2.460  19.758  13.805
 1497W        W62786  29.439  31.461   2.671
 1498W        W62787  34.418  33.110   4.653
 1499W        W62788  19.104   4.341  14.293
 1500W        W62789  12.132  35.039   4.292
 1501W        W62790  20.694  34.465   3.664
 1502W        W62791   6.252  43.852  14.981
 1503W        W62792  29.484  23.073  11.939
 1504W        W62793   6.838  21.757   9.974
 1505W        W62794  27.662   5.725   3.251
 1506W        W62795   1.802  12.336   3.678
 1507W        W62796  41.990  32.983  14.426
 1508W        W62797   7.796  15.726   4.158
 1509W        W62798  39.479  26.041  10.569
 1510W        W62799  10.747   4.345   1.851
 1511W        W62800   7.696  19.063   4.328
 1512W        W62801   9.359  29.981   5.658
 1513W        W62802  35.103  40.965   1.766
 1514W        W62803  32.069   9.275   4.760
 1515W        W62804  28.487  38.345  10.563
 1516W        W62805  34.422  23.731   1.381
 1517W        W62806  14.255  13.234  11.876
 1518W        W62807  21.206  38.070  10.484
 1519W        W62808   3.241  42.007   3.636
 1520W        W62809  12.178  44.882   1.703
 1521W        W62810  28.620  24.011   4.116
 1522W        W62811  10.268  26.202   3.706
 1523W        W62812  44.440  19.753  11.118
 1524W        W62813   6.183  26.465   2.383
 1525W        W62814   9.257   5.919   2.372
 1526W        W62815  43.392  34.890  11.568
 1527W        W62816  12.203  13.737  11.978
 1528W        W62817  32.138  21.104   4.317
 1529W        W62818  11.797  38.049   2.685
 1530W        W62819  10.177  14.165  12.556
 1531W        W62820  23.141  25.529  10.444
 1532W        W62821  21.234  21.678   5.148
 1533W        W62822   0.357   9.343  14.961
 1534W        W62823  39.922  12.651  12.566
 1535W        W62824  10.843  24.668   0.860
 1536W        W62825   1.468  25.131  13.429
 1537W        W62826  34.864   1.749  12.522
 1538W        W62827  41.356   8.262  14.383
 1539W        W62828  44.798   1.822   4.781
 1540W        W62829  24.674  31.034   4.824
 1541W        W62830   1.243  19.750   4.213
 1542W        W62831  18.279   3.797   3.264
 1543W        W62832  29.547  13.715  13.394
 1544W        W62833  40.425  32.434  12.976
 1545W        W62834  12.678   2.770  10.973
 1546W        W62835  44.845  23.097  12.903
 1547W        W62836   0.748  13.753  13.352
 1548W        W62837   0.748  42.362   0.434
 1549W        W62838   6.185   6.898  11.522
 1550W        W62839   8.179  29.557   1.884
 1551W        W62840  32.623  19.213  13.362
 1552W        W62841  12.723  27.134   2.378
 1553W        W62842  16.234  38.826   1.315
 1554W        W62843  42.458  14.336  11.551
 1555W        W62844   2.313  25.100  11.112
 1556W        W62845  34.395  35.572  11.924
 1557W        W62846  29.464  28.450   3.282
 1558W        W62847  10.827  12.296  12.474
 1559W        W62848  13.270  11.867   0.280
 1560W        W62849   2.425  16.631   3.328
 1561W        W62850  42.929  21.707   0.475
 1562W        W62851  39.991  28.527   1.753
 1563W        W62852  29.170   6.818   0.449
 1564W        W62853  17.142  35.911   5.230
 1565W        W62854  13.254   6.862   1.254
 1566W        W62855  39.843  20.133  13.840
 1567W        W62856  33.044  37.471  13.974
 1568W        W62857  40.949  10.254  14.949
 1569W        W62858  30.129  29.443  14.850
 1570W        W62859  40.485  13.219  12.404
 1571W        W62860  39.395  18.620   3.262
 1572W        W62861  31.434  36.385   2.746
 1573W        W62862   4.750  34.977  14.817
 1574W        W62863   8.865   3.797  12.914
 1575W        W62864  15.216  35.487  14.894
 1576W        W62865  38.012  23.690   3.692
 1577W        W62866   1.749   9.748   4.176
 1578W        W62867  29.647   6.752  11.899
 1579W        W62868  43.375  14.168   5.271
 1580W        W62869  18.606  14.314   4.249
 1581W        W62870  20.162  32.621  12.985
 1582W        W62871  15.626   2.393   3.347
 1583W        W62872  25.138   7.385   3.375
 1584W        W62873  23.200  25.140  14.951
 1585W        W62874  38.038  18.279  14.303
 1586W        W62875  28.076  32.967  14.414
 1587W        W62876  17.181  18.633  10.908
 1588W        W62877  43.784  29.556   1.425
 1589W        W62878   4.297  18.779  14.992
 1590W        W62879  41.537  12.643   1.291
 1591W        W62880  28.607   7.903   3.275
 1592W        W62881  26.608  34.558   0.829
 1593W        W62882  17.621  17.635   2.815
 1594W        W62883  31.447  43.871  14.836
 1595W        W62884  12.145  18.703  13.971
 1596W        W62885   8.879  11.136  14.348
 1597W        W62886  22.616  22.085  10.632
 1598W        W62887  24.580  13.112  13.389
 1599W        W62888  29.018   7.353  14.838
 1600W        W62889  12.296   2.359  12.034
 1601W        W62890   8.181  42.492  12.433
 1602W        W62891   5.250  44.973   4.730
 1603W        W62892  34.496  20.570  13.793
 1604W        W62893  30.425   6.210  10.955
 1605W        W62894  22.143  35.414  13.808
 1606W        W62895  38.453  36.010  14.390
 1607W        W62896  21.028  35.525  13.509
 1608W        W62897  15.122  39.034  12.416
 1609W        W62898  13.749  37.083  12.843
 1610W        W62899  38.534  32.126  13.957
 1611W        W62900  28.939  21.040   4.807
 1612W        W62901   3.857  41.343  13.912
 1613W        W62902   3.448  24.540   0.921
 1614W        W62903  13.215  13.122   4.302
 1615W        W62904  18.615  22.514  14.029
 1616W        W62905  31.615  12.618   2.335
 1617W        W62906  35.989  33.391   4.294
 1618W        W62907   4.909  38.459   1.766
 1619W        W62908  10.228  11.358   0.477
 1620W        W62909  39.430  10.214   2.770
 1621W        W62910   8.240  33.127  14.843
 1622W        W62911  31.438  30.430  12.035
 1623W        W62912  43.402  17.149   2.236
 1624W        W62913  38.009  31.014  13.328
 1625W        W62914  39.481  13.646  10.909
 1626W        W62915  36.507  42.891   0.280
 1627W        W62916  38.390   9.288  14.846
 1628W        W62917  39.314   4.310  11.005
 1629W        W62918   1.744  30.063   1.748
 1630W        W62919  11.753   9.775   3.309
 1631W        W62920  35.070  32.001  13.830
 1632W        W62921  27.605  25.479  13.490
 1633W        W62922  38.886   3.231   2.711
 1634W        W62923  37.005  27.010   2.724
 1635W        W62924  44.440   5.799   0.253
 1636W        W62925  18.680  41.294  11.959
 1637W        W62926   6.771  20.171  11.092
 1638W        W62927  29.074  26.651   0.800
 1639W        W62928   1.732  21.233   2.321
 1640W        W62929  26.039   3.806   2.332
 1641W        W62930  28.119  24.125   4.789
 1642W        W62931  22.172   0.434  14.789
 1643W        W62932  12.698   6.243   4.762
 1644W        W62933  25.017  23.612   1.417
 1645W        W62934  33.406  41.315  12.369
 1646W        W62935  13.244   2.902  12.350
 1647W        W62936   7.718  39.508  10.520
 1648W        W62937  38.541   2.772   4.645
 1649W        W62938  14.293  25.527  13.845
 1650W        W62939  13.632  34.410  13.810
 1651W        W62940  35.086   8.279  12.344
 1652W        W62941  19.155  42.017   0.755
 1653W        W62942   5.741  13.303  14.958
 1654W        W62943  31.643  41.897   3.806
 1655W        W62944  44.931  34.983  14.432
 1656W        W62945  23.034   3.371   2.286
 1657W        W62946  12.676   9.311   3.239
 1658W        W62947  16.259   7.888  11.440
 1659W        W62948  40.544   8.806  12.459
 1660W        W62949   7.187  20.059   0.475
 1661W        W62950  30.049  18.674  11.480
 1662W        W62951  28.643  40.984   0.803
 1663W        W62952  19.589   4.886   4.129
 1664W        W62953  11.258  35.512  10.537
 1665W        W62954  14.801  20.266  11.010
 1666W        W62955  40.828   7.836  11.379
 1667W        W62956  42.979  25.022  14.917
 1668W        W62957  13.838  44.339   3.699
 1669W        W62958  44.830  22.617  12.494
 1670W        W62959  38.426  33.877   3.227
 1671W        W62960   8.218  40.039   0.325
 1672W        W62961   8.187  32.056   1.365
 1673W        W62962   1.847   9.868  14.967
 1674W        W62963   9.808   8.203   3.202
 1675W        W62964  30.936  42.280   1.293
 1676W        W62965  17.640  32.391  12.556
 1677W        W62966   8.754  31.962   3.762
 1678W        W62967  27.599   7.735  14.331
 1679W        W62968   2.322  36.369   4.597
 1680W        W62969  22.571   3.459   2.895
 1681W        W62970  34.542  26.623   2.802
 1682W        W62971  24.488  15.092   1.725
 1683W        W62972  17.654  40.047   0.469
 1684W        W62973  12.728  34.923   1.265
 1685W        W62974  34.461  31.578  13.956
 1686W        W62975  36.525  33.974  10.406
 1687W        W62976  28.935  11.677   1.259
 1688W        W62977  34.531  38.514   4.344
 1689W        W62978  26.043  28.953   3.367
 1690W        W62979  33.522  34.413   2.208
 1691W        W62980  31.619  38.024  14.439
 1692W        W62981   3.761  17.556   2.343
 1693W        W62982  12.246  26.069   1.384
 1694W        W62983  18.633  41.828  11.405
 1695W        W62984  27.121   7.263   4.614
 1696W        W62985  12.801  20.631   0.737
 1697W        W62986  24.522  34.051   4.620
 1698W        W62987  41.034  24.482  14.429
 1699W        W62988   0.826  39.055   4.599
 1700W        W62989   4.256  44.947  13.977
 1701W        W62990   0.481  34.589   1.723
 1702W        W62991  31.138  26.952   3.675
 1703W        W62992  29.084   4.401  11.604
 1704W        W62993  40.868  14.713   3.700
 1705W        W62994  24.532  42.826  10.983
 1706W        W62995  30.063  25.174  10.602
 1707W        W62996  26.534  40.320   3.171
 1708W        W62997  23.032  33.565  12.404
 1709W        W62998  22.580  14.116   0.890
 1710W        W62999   4.351  32.462   0.254
 1711W        W63000  29.561  30.492   1.852
 1712W        W63001   3.912  29.627  13.326
 1713W        W63002   2.898  43.425   3.761
 1714W        W63003  25.051   0.357  14.763
 1715W        W63004  26.637  10.808   0.755
 1716W        W63005  32.984  29.100   1.709
 1717W        W63006  35.915  34.974  11.017
 1718W        W63007  43.289  22.207   3.748
 1719W        W63008  40.936  18.617  10.990
 1720W        W63009   1.288  27.562  12.457
 1721W        W63010  28.032  16.760  14.009
 1722W        W63011  22.714   1.853   5.138
 1723W        W63012  15.759  33.112  10.987
 1724W        W63013  26.094  28.559  13.800
 1725W        W63014  23.100   4.247   4.717
 1726W        W63015  12.836  17.070   4.232
 1727W        W63016  39.868  12.691   1.739
 1728W        W63017  18.653  20.148  14.474
 1729W        W63018  18.750  42.293  10.452
 1730W        W63019  14.589  31.561  11.095
 1731W        W63020  31.534   4.425  14.399
 1732W        W63021  41.503  10.791  14.983
 1733W        W63022  40.024   0.960   4.735
 1734W        W63023   7.233  32.888  13.895
 1735W        W63024   0.338  11.740  10.617
 1736W        W63025  21.131  23.014  10.441
 1737W        W63026  40.538  33.093  12.077
 1738W        W63027  36.948  42.921  13.056
 1739W        W63028  12.326  34.014  12.002
 1740W        W63029  27.039  15.232   0.282
 1741W        W63030  15.823  27.584   9.971
 1742W        W63031  25.131  44.845   0.332
 1743W        W63032   3.777  25.082  12.064
 1744W        W63033  36.382  37.571  11.960
 1745W        W63034  26.456  22.511   2.696
 1746W        W63035  22.595   1.269  10.519
 1747W        W63036  40.400  32.107  13.430
 1748W        W63037  27.041  24.160   0.294
 1749W        W63038   0.897  35.480  11.409
 1750W        W63039  30.111   9.836   1.417
 1751W        W63040  12.785  22.041   2.687
 1752W        W63041   0.774   0.794  12.916
 1753W        W63042  29.999  15.302  10.579
 1754W        W63043   4.278  10.338  14.291
 1755W        W63044  28.628  35.511   2.326
 1756W        W63045   8.877  10.246   9.981
 1757W        W63046  25.503   8.787  12.962
 1758W        W63047   4.209  32.447   2.810
 1759W        W63048  27.945   6.689  10.416
 1760W        W63049  33.010  11.161   1.362
 1761W        W63050   2.299  25.541   3.761
 1762W        W63051   1.364   1.380  12.930
 1763W        W63052  26.020  42.928  14.963
 1764W        W63053  14.102  11.299  13.475
 1765W        W63054  24.593  29.021   3.237
 1766W        W63055  30.595  27.671  13.827
 1767W        W63056  21.758   6.185   1.841
 1768W        W63057   4.892  28.038  11.065
 1769W        W63058   4.788  15.144   1.878
 1770W        W63059  24.070  25.650   4.330
 1771W        W63060  38.447  33.457  11.984
 1772W        W63061  44.767  40.429  12.423
 1773W        W63062   9.724  12.181  13.493
 1774W        W63063   9.186  29.662   3.794
 1775W        W63064  11.722  10.792   2.736
 1776W        W63065  41.496  24.055   3.646
 1777W        W63066  30.505  34.578  11.045
 1778W        W63067  32.591  19.142   0.929
 1779W        W63068  40.848   3.437  10.481
 1780W        W63069  21.541  43.807   0.283
 1781W        W63070  34.941  15.190  10.534
 1782W        W63071  11.311  41.298  11.867
 1783W        W63072  34.118  17.700  12.007
 1784W        W63073  20.639  22.621  14.491
 1785W        W63074  27.653  26.154  10.927
 1786W        W63075  14.730   7.672  14.448
 1787W        W63076  33.540   2.794  12.373
 1788W        W63077   7.377  37.425  10.453
 1789W        W63078  26.522  25.978   3.210
 1790W        W63079   9.737  44.765  14.848
 1791W        W63080  28.158  21.625  14.828
 1792W        W63081   3.447  23.495   3.261
 1793W        W63082  28.080  27.002  12.896
 1794W        W63083  10.632  41.408   1.809
 1795W        W63084  25.078  24.511  14.005
 1796W        W63085  27.141  23.498  10.061
 1797W        W63086  31.542  18.296   4.802
 1798W        W63087  31.008  40.355   1.211
 1799W        W63088   2.856   9.164   3.352
 1800W        W63089  11.796  22.086   1.424
 1801W        W63090  37.487  12.242  12.920
 1802W        W63091  16.261  21.130   2.767
 1803W        W63092  16.775  23.532  11.109
 1804W        W63093  41.967  32.532   0.454
 1805W        W63094  42.991  12.244   2.900
 1806W        W63095  23.680  41.309  13.515
 1807W        W63096  25.043  19.057  10.023
 1808W        W63097  32.554  23.141  13.541
 1809W        W63098  30.610  35.090  11.476
 1810W        W63099   6.698  44.978   2.383
 1811W        W63100   3.806  44.492   4.775
 1812W        W63101   6.679  38.970   3.764
 1813W        W63102  43.418   2.848  13.835
 1814W        W63103   0.469  15.199   4.667
 1815W        W63104   3.314   1.390  12.033
 1816W        W63105  41.479  33.985  14.919
 1817W        W63106   4.857  37.963   4.796
 1818W        W63107  28.026  18.636   1.889
 1819W        W63108   4.701  20.659   1.914
 1820W        W63109  41.378   1.775  11.021
 1821W        W63110   6.845  13.752  12.509
 1822W        W63111  27.952  40.361   2.201
 1823W        W63112  22.158   8.397  12.927
 1824W        W63113  26.133  23.134   2.412
 1825W        W63114  42.801  12.202   3.848
 1826W        W63115  34.605  43.994  13.467
 1827W        W63116   6.881  39.541  11.049
 1828W        W63117   9.705  19.677  12.500
 1829W        W63118  20.648  10.812   4.776
 1830W        W63119  21.672   6.379   4.238
 1831W        W63120   1.326  36.907   4.229
 1832W        W63121  30.047   4.791  12.931
 1833W        W63122  30.451   8.215   0.779
 1834W        W63123  42.349  24.545   0.914
 1835W        W63124  11.653  41.407   2.400
 1836W        W63125  20.124  35.494   1.827
 1837W        W63126   5.434   1.473   3.350
 1838W        W63127   8.253  30.651  12.860
 1839W        W63128  40.320  18.229   3.159
 1840W        W63129   3.915  29.153  12.478
 1841W        W63130  16.766  13.753   2.301
 1842W        W63131  24.482  13.235  14.807
 1843W        W63132  22.191  28.038  14.338
 1844W        W63133  30.486  19.747   3.277
 1845W        W63134  31.565  16.215  10.960
 1846W        W63135   7.234   6.739  13.831
 1847W        W63136  21.156  10.297  11.564
 1848W        W63137  20.542  32.143  12.028
 1849W        W63138  36.991  31.934   0.801
 1850W        W63139  14.147   5.862  14.392
 1851W        W63140  20.261  36.382   3.650
 1852W        W63141   4.732  40.312   1.891
 1853W        W63142  25.091  23.605  10.080
 1854W        W63143  16.117  30.503  14.013
 1855W        W63144  37.546  24.535   3.758
 1856W        W63145  19.263  42.806   4.819
 1857W        W63146  10.277  33.888   2.903
 1858W        W63147  35.364   6.871   1.852
 1859W        W63148   1.973  26.525   0.296
 1860W        W63149  29.603  14.319   3.674
 1861W        W63150  27.485  37.055   0.351
 1862W        W63151  21.146  11.740   5.187
 1863W        W63152  35.581  18.612  12.060
 1864W        W63153  19.572  16.157   1.413
 1865W        W63154  29.662  35.098   4.825
 1866W        W63155  14.664  33.586   2.874
 1867W        W63156  36.012  17.775   0.781
 1868W        W63157  24.634  12.641   3.160
 1869W        W63158  17.286  16.635  13.905
 1870W        W63159  13.196  20.603  11.978
 1871W        W63160   2.850  18.559   0.300
 1872W        W63161  12.180  19.159   1.422
 1873W        W63162  11.270  16.082  12.473
 1874W        W63163  22.193  13.672   1.855
 1875W        W63164  24.713   7.233  10.564
 1876W        W63165  44.280  40.930  10.905
 1877W        W63166  26.075  19.713   2.757
 1878W        W63167  28.032  37.088   1.247
 1879W        W63168  23.128  44.856  13.375
 1880W        W63169  20.626  42.355   2.391
 1881W        W63170  10.771   8.313  11.928
 1882W        W63171  28.670   1.377   3.217
 1883W        W63172  31.934  18.293   1.725
 1884W        W63173  38.428  19.155   0.781
 1885W        W63174   9.161  43.931  13.512
 1886W        W63175  29.052  19.080   3.318
 1887W        W63176   1.471  25.102   3.299
 1888W        W63177  25.655  28.007  11.977
 1889W        W63178  19.538  33.051  13.934
 1890W        W63179  33.947  37.363   4.814
 1891W        W63180  27.475  28.562   3.359
 1892W        W63181   1.319  27.653  10.471
 1893W        W63182  34.387  33.526   1.890
 1894W        W63183  32.008  23.221   4.316
 1895W        W63184  26.150  19.151   0.367
 1896W        W63185   7.267  22.659   3.816
 1897W        W63186   7.912  16.220   3.220
 1898W        W63187  16.690  32.916   1.753
 1899W        W63188   4.249  10.710   4.679
 1900W        W63189  38.073  34.485  13.394
 1901W        W63190  35.587  13.759  14.308
 1902W        W63191  21.223   3.796   2.708
 1903W        W63192  40.416   6.817   3.686
 1904W        W63193  31.404  30.534  11.584
 1905W        W63194  12.617  12.353   0.817
 1906W        W63195  11.831   2.966  14.948
 1907W        W63196  19.710   3.873  12.353
 1908W        W63197  40.528  43.845  12.990
 1909W        W63198   9.706  10.230  14.478
 1910W        W63199  41.014  26.467   4.770
 1911W        W63200  40.517  17.564  14.852
 1912W        W63201  34.470   1.260   0.323
 1913W        W63202  30.078  44.428  14.786
 1914W        W63203  22.532  15.198  12.579
 1915W        W63204   9.304  30.038  14.317
 1916W        W63205  17.182  34.047  12.440
 1917W        W63206  38.360  20.667  14.954
 1918W        W63207  43.782  18.111   4.789
 1919W        W63208  28.075  36.532   0.375
 1920W        W63209  41.791  15.606  11.077
 1921W        W63210   1.395  25.583   0.473
 1922W        W63211  44.371   0.256  13.317
 1923W        W63212   8.772  35.435   4.309
 1924W        W63213  25.695  39.979   3.354
 1925W        W63214   7.308   1.813  10.634
 1926W        W63215  21.710  12.323  13.918
 1927W        W63216  28.462  33.001  14.315
 1928W        W63217  39.423  20.061   3.794
 1929W        W63218  34.409  28.165  12.467
 1930W        W63219  11.855  38.070   0.938
 1931W        W63220  27.455  41.837  11.055
 1932W        W63221  37.513   8.160  14.346
 1933W        W63222  16.598   7.667  12.960
 1934W        W63223  27.103  44.420   4.158
 1935W        W63224  30.002  40.430  11.067
 1936W        W63225   6.411  29.027   3.263
 1937W        W63226  21.117  12.338  13.390
 1938W        W63227  18.770  41.957  13.001
 1939W        W63228  15.141  37.956   1.371
 1940W        W63229  17.762  41.429  10.932
 1941W        W63230  20.672  22.252  14.414
 1942W        W63231  37.474  12.252  10.524
 1943W        W63232  23.659  24.014   3.644
 1944W        W63233   2.319  38.984  13.979
 1945W        W63234  11.630  35.373  13.427
 1946W        W63235  42.947  44.415   4.836
 1947W        W63236   4.218  38.911   4.179
 1948W        W63237  28.082  26.150  13.022
 1949W        W63238  39.373  32.610  12.035
 1950W        W63239  42.925  41.022   2.712
 1951W        W63240  26.670  16.644   1.280
 1952W        W63241  41.308  20.539   0.287
 1953W        W63242  22.669  37.900  12.907
 1954W        W63243  11.852  15.686  14.896
 1955W        W63244  19.086  15.814  13.318
 1956W        W63245   5.808  39.908   2.260
 1957W        W63246  38.042  11.183   2.357
 1958W        W63247  13.602  12.743  12.387
 1959W        W63248  11.742   7.355   0.967
 1960W        W63249  36.425  25.499  14.406
 1961W        W63250  27.636  35.384  13.051
 1962W        W63251  31.480   7.381   3.194
 1963W        W63252   3.396   2.805  12.987
 1964W        W63253  19.702  38.396  11.553
 1965W        W63254  23.139  12.668   4.600
 1966W        W63255   1.295  16.172   1.854
 1967W        W63256  43.384  40.925  14.403
 1968W        W63257  33.074   9.253  11.386
 1969W        W63258  35.869  37.834   1.778
 1970W        W63259  42.520  26.980  13.308
 1971W        W63260  36.930  30.491   0.953
 1972W        W63261  44.986   6.702   3.384
 1973W        W63262   5.893  30.603  11.032
 1974W        W63263  10.634  21.205  13.438
 1975W        W63264  21.687  22.610  14.943
 1976W        W63265  23.674  21.140  11.590
 1977W        W63266   2.891  26.665  11.055
 1978W        W63267  44.837  34.042   1.299
 1979W        W63268   9.251  38.007   1.306
 1980W        W63269  16.757  30.480   4.316
 1981W        W63270  42.840  17.719  10.919
 1982W        W63271  44.936  21.254  13.522
 1983W        W63272  17.729  32.597   0.429
 1984W        W63273  30.916  24.487   1.799
 1985W        W63274  30.629  31.097   4.716
 1986W        W63275  39.465   3.934  13.494
 1987W        W63276   0.465   8.860   3.365
 1988W        W63277   7.828  18.781   4.755
 1989W        W63278  24.507  19.642  12.952
 1990W        W63279  24.693  41.996  11.083
 1991W        W63280  33.951  33.132  13.890
 1992W        W63281  18.296  39.490  14.464
 1993W        W63282   3.844  38.380  13.452
 1994W        W63283  23.003   5.931   0.884
 1995W        W63284   8.900  42.396   2.248
 1996W        W63285  21.186  28.504  13.322
 1997W        W63286   3.275  27.030  13.375
 1998W        W63287  34.110  39.402  11.886
 1999W        W63288  19.682   2.742   3.720
 2000W        W63289  22.223  13.287   0.821
 2001W        W63290  24.077  13.613  12.940
 2002W        W63291  39.037  42.296   2.757
 2003W        W63292  26.472  44.968   1.210
 2004W        W63293  35.861  22.704   2.751
 2005W        W63294  43.937  40.518   0.337
 2006W        W63295  32.416  38.953   1.844
 2007W        W63296  14.637  26.684   9.997
 2008W        W63297  42.869  12.147   1.923
 2009W        W63298   4.390  25.638  11.964
 2010W        W63299  21.524  28.493  11.923
 2011W        W63300  24.058  34.987   2.397
 2012W        W63301  10.827  27.948   3.267
 2013W        W63302   7.350   9.220  10.536
 2014W        W63303  34.117   8.859   0.917
 2015W        W63304  41.009  41.018  10.435
 2016W        W63305   8.782  24.721   2.851
 2017W        W63306  25.487  31.463  13.809
 2018W        W63307   7.670   6.735   3.352
 2019W        W63308  40.492  14.666   0.778
 2020W        W63309   5.729   2.357  14.502
 2021W        W63310  35.407  37.980  11.506
 2022W        W63311  13.272   1.337   3.706
 2023W        W63312   9.775  34.609   3.365
 2024W        W63313  24.564  32.929   2.751
 2025W        W63314  12.765  30.030  14.016
 2026W        W63315  18.243   7.767   2.858
 2027W        W63316   6.289   4.221   1.442
 2028W        W63317   2.962  42.000  14.810
 2029W        W63318   5.795  24.664   0.870
 2030W        W63319   6.415   3.425   1.761
 2031W        W63320  11.763  13.246  11.866
 2032W        W63321  10.851  41.366  12.872
 2033W        W63322  12.159  21.156   1.335
 2034W        W63323  13.719  30.485   0.865
 2035W        W63324  30.480  14.711   2.251
 2036W        W63325  44.351  15.205  10.531
 2037W        W63326   6.738   5.269   3.288
 2038W        W63327  41.915  26.090  14.000
 2039W        W63328   1.976   2.878  14.959
 2040W        W63329  18.058  23.553   3.790
 2041W        W63330   0.788  42.911  14.811
 2042W        W63331  26.506  26.146   4.126
 2043W        W63332  33.413  41.957  13.495
 2044W        W63333   5.429   9.874   1.275
 2045W        W63334  31.481  32.005   1.448
 2046W        W63335  13.310   8.777   0.332
 2047W        W63336  28.563  29.553   2.692
 2048W        W63337  30.519  36.564   4.663
 2049W        W63338  29.994  39.063  14.909
 2050W        W63339   0.744  41.912   2.223
 2051W        W63340  13.151  20.261   4.626
 2052W        W63341  17.082  24.146   3.796
 2053W        W63342  40.498  41.476  13.488
 2054W        W63343  32.426   1.394   1.826
 2055W        W63344  30.551  12.830  13.962
 2056W        W63345   9.857   3.933  14.818
 2057W        W63346  33.059   2.889  11.480
 2058W        W63347  32.525   9.718   0.385
 2059W        W63348  12.813  25.478   1.906
 2060W        W63349  25.651  43.274  13.402
 2061W        W63350  32.416  44.418  10.939
 2062W        W63351  35.442  33.998   3.715
 2063W        W63352  44.932  11.360   3.714
 2064W        W63353  18.681  12.325   1.354
 2065W        W63354  27.102  26.553   3.704
 2066W        W63355  19.221   9.352  12.407
 2067W        W63356  41.824  30.635  12.824
 2068W        W63357  20.622   7.822  12.366
 2069W        W63358  38.822  33.037   1.353
 2070W        W63359   7.833  22.623   1.417
 2071W        W63360  19.115  17.710   3.750
 2072W        W63361  16.318  34.950  11.386
 2073W        W63362  19.159  35.527  14.864
 2074W        W63363  21.020  40.803  14.358
 2075W        W63364  42.786  13.708   2.197
 2076W        W63365  25.572  22.233  14.385
 2077W        W63366  35.902  14.651  11.028
 2078W        W63367  34.011  42.889   3.355
 2079W        W63368   7.232  21.051  11.933
 2080W        W63369  40.382  20.043  14.016
 2081W        W63370  10.336   5.325   3.210
 2082W        W63371  11.190  29.459  12.075
 2083W        W63372  41.450   3.441  14.481
 2084W        W63373  25.710  28.113   2.294
 2085W        W63374  17.081  42.439  13.888
 2086W        W63375  15.600  39.943   1.726
 2087W        W63376  30.503  18.258   3.841
 2088W        W63377  31.141  20.652  14.780
 2089W        W63378  44.854  28.134   3.843
 2090W        W63379   9.322  15.320  12.087
 2091W        W63380  31.936  43.290  13.346
 2092W        W63381  40.920   4.887   4.689
 2093W        W63382  23.078  30.953   4.810
 2094W        W63383   7.410  10.700   4.824
 2095W        W63384  36.468  36.525   3.690
 2096W        W63385  14.647   0.253   3.708
 2097W        W63386   8.782   5.360  12.884
 2098W        W63387  10.874  20.141  13.522
 2099W        W63388  31.902  19.699  13.405
 2100W        W63389  30.644  34.454   2.675
 2101W        W63390   8.707  16.670  12.454
 2102W        W63391  11.233  16.090  11.932
 2103W        W63392  29.151  26.990   2.868
 2104W        W63393  37.371  26.612   2.301
 2105W        W63394  32.027  31.927  10.600
 2106W        W63395  38.846  14.641   5.192
 2107W        W63396   6.256  18.566  14.331
 2108W        W63397  44.968  28.539  14.473
 2109W        W63398  19.132  41.025   1.787
 2110W        W63399  26.465  33.572   0.787
 2111W        W63400  15.238  17.243  11.962
 2112W        W63401  23.012   8.205  11.022
 2113W        W63402  24.019  44.866  10.638
 2114W        W63403  43.288   3.296  12.407
 2115W        W63404  15.288  44.007   4.252
 2116W        W63405   2.725  11.662   1.249
 2117W        W63406  19.194   8.742  11.578
 2118W        W63407   9.252  41.341  14.893
 2119W        W63408  22.632  31.640  12.876
 2120W        W63409  12.238   2.454  14.848
 2121W        W63410  36.073  29.092  11.086
 2122W        W63411  21.703  35.967  14.786
 2123W        W63412  22.597  17.304   4.346
 2124W        W63413  37.902   0.907   0.467
 2125W        W63414  25.684   2.275   1.356
 2126W        W63415  15.711  29.602   3.639
 2127W        W63416  16.155  17.654   3.183
 2128W        W63417  30.141   4.223  14.014
 2129W        W63418  15.630   1.908   0.464
 2130W        W63419  12.819  27.101   3.830
 2131W        W63420  10.207  32.477   0.921
 2132W        W63421  20.056   2.955   3.780
 2133W        W63422  33.121  25.633   2.260
 2134W        W63423  29.036  37.002  14.881
 2135W        W63424  13.255   4.789  10.518
 2136W        W63425  20.689  30.082   0.325
 2137W        W63426  36.479  37.887  12.464
 2138W        W63427  39.496  26.518  12.873
 2139W        W63428   4.943  25.699   3.324
 2140W        W63429  37.859  25.161  11.036
 2141W        W63430  43.378  16.096   2.399
 2142W        W63431  44.994  41.878  12.478
 2143W        W63432   7.872  29.149  12.902
 2144W        W63433  29.061  29.555   1.444
 2145W        W63434  10.726   0.350  12.452
 2146W        W63435  39.999  30.508   1.835
 2147W        W63436  34.574  19.703  11.076
 2148W        W63437  10.635  33.899   3.322
 2149W        W63438  42.295  28.984   4.187
 2150W        W63439   2.941  15.741   0.401
 2151W        W63440  30.065  17.241   2.860
 2152W        W63441  36.891  33.131  14.403
 2153W        W63442  33.382  11.330  14.331
 2154W        W63443  16.605  21.643   3.272
 2155W        W63444  23.619  43.335  12.048
 2156W        W63445  30.481  42.956   3.252
 2157W        W63446   2.445  32.132   2.862
 2158W        W63447  34.378  22.188  14.762
 2159W        W63448  12.250  32.029  10.492
 2160W        W63449  39.008   4.823  10.038
 2161W        W63450  38.424  24.684   0.884
 2162W        W63451  10.304  37.338   0.277
 2163W        W63452  19.092   2.959  13.494
 2164W        W63453  39.023  16.586   1.413
 2165W        W63454  27.469   3.735  12.925
 2166W        W63455  17.736  24.988  13.880
 2167W        W63456  19.579  39.387  12.882
 2168W        W63457  38.426  23.729  10.568
 2169W        W63458  30.417   1.406   1.211
 2170W        W63459  28.605  13.803   2.864
 2171W        W63460  12.733  14.312   3.220
 2172W        W63461  40.895  31.045  13.990
 2173W        W63462  40.548  28.589  10.998
 2174W        W63463   2.951   5.221   3.269
 2175W        W63464  35.535  16.574   4.666
 2176W        W63465  29.663  19.681  12.365
 2177W        W63466  12.651  29.921  14.342
 2178W        W63467  26.518  38.363  14.432
 2179W        W63468   1.369  39.859   4.253
 2180W        W63469  27.146   9.194   2.770
 2181W        W63470   1.754  33.594   3.331
 2182W        W63471  18.749  33.513   0.757
 2183W        W63472  11.209   6.296   2.710
 2184W        W63473   1.273  25.568   1.696
 2185W        W63474  23.527  17.653  10.428
 2186W        W63475  24.679   4.336  11.520
 2187W        W63476  16.086  14.221  11.382
 2188W        W63477  16.606   0.845  11.933
 2189W        W63478   9.219  30.569  12.353
 2190W        W63479   9.345  26.056  13.385
 2191W        W63480  38.563  11.758   0.742
 2192W        W63481   8.332  28.186   1.824
 2193W        W63482   7.384  19.588   1.228
 2194W        W63483  16.190  25.712  14.774
 2195W        W63484   4.892   9.734   1.428
 2196W        W63485  26.062  43.439  11.974
 2197W        W63486  32.885  38.066  10.638
 2198W        W63487  43.888   9.344   2.271
 2199W        W63488  11.356  42.454   4.158
 2200W        W63489  38.960  25.177  13.389
 2201W        W63490  20.152  44.458  10.018
 2202W        W63491   0.758   9.157   2.848
 2203W        W63492  32.531   4.783  14.453
 2204W        W63493  23.045  23.023   5.202
 2205W        W63494   6.273  11.656   3.858
 2206W        W63495  26.505  34.487   2.772
 2207W        W63496  34.074  29.029   2.291
 2208W        W63497  13.216  26.030   2.728
 2209W        W63498  19.601  10.250  11.437
 2210W        W63499  41.532  28.047  13.827
 2211W        W63500  19.136  14.327   3.223
 2212W        W63501   2.801  31.146  14.029
 2213W        W63502  20.256   9.789  14.354
 2214W        W63503   2.812  18.074   0.322
 2215W        W63504  39.522  17.129   2.723
 2216W        W63505   3.788  12.275  13.807
 2217W        W63506  41.359   6.731  10.893
 2218W        W63507  25.001   4.253   1.928
 2219W        W63508  30.444  32.086   0.737
 2220W        W63509  40.863  29.439   2.845
 2221W        W63510  21.529  14.222  14.795
 2222W        W63511  39.834  41.802  11.464
 2223W        W63512  15.244   0.950  11.976
 2224W        W63513  22.670  12.141   4.736
 2225W        W63514   1.899  14.264   3.336
 2226W        W63515  13.315  33.922  12.894
 2227W        W63516  42.976   2.807  13.988
 2228W        W63517  39.328  15.677   5.205
 2229W        W63518  10.200  23.003   1.256
 2230W        W63519  32.012  25.514   5.300
 2231W        W63520   7.862  31.438  13.508
 2232W        W63521  41.496  29.090  10.898
 2233W        W63522   0.341  42.901   3.671
 2234W        W63523  14.328  42.994   2.338
 2235W        W63524  29.038   3.434  13.905
 2236W        W63525  22.228  13.288  14.032
 2237W        W63526  15.704  37.074   2.368
 2238W        W63527  26.689  13.302   2.802
 2239W        W63528  25.186   9.728  14.454
 2240W        W63529  30.607  39.869   1.913
 2241W        W63530  22.111  10.651   1.440
 2242W        W63531  44.303  30.044   1.747
 2243W        W63532  22.165  30.991  13.913
 2244W        W63533  22.573  24.023   2.341
 2245W        W63534  39.395  40.894  13.954
 2246W        W63535  22.573  33.123   3.813
 2247W        W63536  43.479  12.805   2.729
 2248W        W63537  29.625  28.164   4.319
 2249W        W63538  34.078   3.737  10.434
 2250W        W63539  14.208  41.325  13.925
 2251W        W63540  27.557  29.442  14.311
 2252W        W63541  10.240  15.301  14.990
 2253W        W63542  38.362  22.732   4.789
 2254W        W63543  41.967  39.954  13.354
 2255W        W63544  11.324  28.625   0.446
 2256W        W63545  24.550  30.961   2.319
 2257W        W63546   1.369  12.675   2.674
 2258W        W63547  12.260  24.542  11.068
 2259W        W63548  20.691   1.969   0.900
 2260W        W63549  20.097  31.616  14.308
 2261W        W63550   2.871  27.187   0.793
 2262W        W63551   5.196  32.039   3.164
 2263W        W63552  27.622  24.096   1.836
 2264W        W63553  36.016  37.555  12.443
 2265W        W63554  29.510   8.288   3.372
 2266W        W63555  38.885  17.615  13.347
 2267W        W63556  41.994   7.280  14.982
 2268W        W63557  41.432  34.865   3.663
 2269W        W63558  30.939  20.137  12.567
 2270W        W63559   2.815  34.575  13.836
 2271W        W63560  35.983  35.005  14.386
 2272W        W63561  17.100  31.917   3.657
 2273W        W63562  42.310  42.012   3.207
 2274W        W63563  37.908  18.568  12.064
 2275W        W63564  27.081  13.757  14.445
 2276W        W63565  31.957  10.309  14.321
 2277W        W63566   7.391   7.402   0.296
 2278W        W63567   3.269  44.759  14.328
 2279W        W63568  20.066  26.962   1.848
 2280W        W63569  17.709  17.090   2.342
 2281W        W63570   0.915  41.798  13.348
 2282W        W63571  35.981  38.400  10.909
 2283W        W63572  21.575  14.685   0.828
 2284W        W63573  44.796  35.369  11.490
 2285W        W63574  13.771  33.515   3.373
 2286W        W63575  44.832   7.392  12.894
 2287W        W63576  25.618  23.673  14.455
 2288W        W63577   8.210  41.417  11.060
 2289W        W63578  18.239  33.091  11.395
 2290W        W63579  11.761   2.331  11.576
 2291W        W63580  14.827   1.474   5.801
 2292W        W63581  35.601  36.955   1.302
 2293W        W63582   2.449  29.964   2.392
 2294W        W63583  30.976  19.744  11.572
 2295W        W63584   7.189  34.100  12.962
 2296W        W63585  12.320  41.521   2.722
 2297W        W63586  19.662  20.557  10.586
 2298W        W63587  37.909  29.578   3.172
 2299W        W63588  40.348  41.885  12.348
 2300W        W63589   4.216  43.900  12.997
 2301W        W63590  38.563  16.684   2.398
 2302W        W63591  14.719  16.604   1.295
 2303W        W63592  17.653  28.627  14.927
 2304W        W63593  17.560  33.896   0.936
 2305W        W63594  29.656  36.509   4.130
 2306W        W63595  17.728  32.132  10.539
 2307W        W63596  37.941  41.312   1.213
 2308W        W63597  41.832  29.623   0.459
 2309W        W63598  39.911  36.410   0.437
 2310W        W63599  12.224  12.648   1.929
 2311W        W63600  28.033  30.957  10.645
 2312W        W63601   6.339  14.767   0.324
 2313W        W63602  23.988  43.399  12.011
 2314W        W63603  21.757  44.782   2.853
 2315W        W63604  37.064  40.515   1.905
 2316W        W63605  25.023  16.703  13.999
 2317W        W63606  43.989  14.205   1.845
 2318W        W63607  18.107  13.268  11.050
 2319W        W63608  18.691  30.482  10.025
 2320W        W63609   4.209  11.147   0.365
 2321W        W63610  44.343  24.143  12.343
 2322W        W63611   9.675  30.536   3.812
 2323W        W63612  30.027  19.275  13.353
 2324W        W63613  22.049  12.306  11.502
 2325W        W63614   7.238  21.081  14.913
 2326W        W63615  34.074  33.498   0.243
 2327W        W63616   5.355  27.490   0.737
 2328W        W63617  35.085  36.397   3.160
 2329W        W63618  10.805  17.218  14.332
 2330W        W63619  33.601  39.814  15.000
 2331W        W63620   1.452   1.837   0.334
 2332W        W63621  22.510  40.052  13.390
 2333W        W63622  42.332  29.554   3.361
 2334W        W63623  30.946  41.328   3.870
 2335W        W63624  42.420   2.749   0.309
 2336W        W63625  39.460  22.739   4.665
 2337W        W63626  31.054  21.618   3.837
 2338W        W63627  34.578   7.885   2.283
 2339W        W63628   8.268  38.045   4.718
 2340W        W63629  42.370  29.553  14.971
 2341W        W63630  30.609  20.229   1.773
 2342W        W63631   1.767  16.663   4.668
 2343W        W63632  20.161  17.630  11.962
 2344W        W63633  18.592  22.112  14.506
 2345W        W63634  21.649  43.300  14.012
 2346W        W63635  19.568   0.865   0.808
 2347W        W63636  27.488   6.362  10.049
 2348W        W63637  17.556   2.887  12.486
 2349W        W63638  30.037   6.277   0.911
 2350W        W63639  40.932   7.810   1.846
 2351W        W63640  37.026  36.489   4.689
 2352W        W63641   0.407  37.462  14.772
 2353W        W63642   8.229  43.002  13.547
 2354W        W63643  11.808   4.334   2.234
 2355W        W63644  23.658  41.293  14.007
 2356W        W63645   8.811   4.849  12.407
 2357W        W63646  38.028  19.602   1.930
 2358W        W63647  23.563  11.152   4.764
 2359W        W63648  17.600  23.701   1.899
 2360W        W63649  44.768  23.029   2.296
 2361W        W63650  44.904  34.381   3.165
 2362W        W63651   3.750  25.060   3.372
 2363W        W63652  36.035  20.538  12.087
 2364W        W63653  11.724   3.408  13.516
 2365W        W63654   1.257  16.688   1.907
 2366W        W63655  42.351   1.963   4.350
 2367W        W63656  15.820  27.537  11.038
 2368W        W63657  18.748  13.285  11.957
 2369W        W63658   1.864  33.988  13.399
 2370W        W63659  29.127  39.485   2.811
 2371W        W63660  40.387  23.524  14.991
 2372W        W63661  19.587   3.222   1.840
 2373W        W63662  44.010  26.958  12.002
 2374W        W63663  30.622   3.445   1.353
 2375W        W63664  21.247  43.422  13.048
 2376W        W63665  20.054   6.804  10.533
 2377W        W63666  44.831  12.239   4.834
 2378W        W63667  10.672   2.864   1.337
 2379W        W63668   9.218  11.324  13.921
 2380W        W63669  31.621   7.883   0.431
 2381W        W63670  12.816   1.257   2.292
 2382W        W63671  26.545  38.429   1.351
 2383W        W63672  37.028   5.804  13.353
 2384W        W63673  39.950   5.353   1.424
 2385W        W63674   7.337   7.827   1.774
 2386W        W63675  19.694  32.918   2.313
 2387W        W63676  38.353   1.923   1.409
 2388W        W63677  15.191  41.880  11.591
 2389W        W63678  22.650  16.111  10.602
 2390W        W63679   9.271  26.096   2.780
 2391W        W63680  35.898  26.613  12.882
 2392W        W63681  13.781  37.014   0.254
 2393W        W63682  14.590   6.839   2.731
 2394W        W63683   6.745  28.674  14.408
 2395W        W63684  35.875  43.919   0.314
 2396W        W63685  12.617   8.337   3.837
 2397W        W63686  31.088  43.908   1.932
 2398W        W63687  28.105  24.134   2.400
 2399W        W63688  37.476   8.798  14.994
 2400W        W63689  23.135   2.466   2.823
 2401W        W63690  31.618  26.184  10.894
 2402W        W63691   1.960  37.918   2.845
 2403W        W63692  32.458  41.987  10.962
 2404W        W63693  31.065  11.835  12.025
 2405W        W63694   6.732  15.246  11.901
 2406W        W63695  23.572  17.560  12.901
 2407W        W63696  33.446  34.076   3.820
 2408W        W63697   0.295  15.144   4.237
 2409W        W63698  24.556  32.056   1.224
 2410W        W63699  43.320  15.241  13.503
 2411W        W63700  19.600  27.112  10.961
 2412W        W63701  35.006  26.036  13.496
 2413W        W63702   8.219  23.528  13.802
 2414W        W63703  20.129  35.887   4.617
 2415W        W63704  17.693   4.358  14.933
 2416W        W63705  30.536  43.840  14.868
 2417W        W63706   4.783   0.336   1.449
 2418W        W63707  15.589   5.844  12.092
 2419W        W63708  24.566  22.509  13.843
 2420W        W63709   7.759  30.141  11.066
 2421W        W63710  40.474  26.034   0.315
 2422W        W63711  14.186  18.662   2.262
 2423W        W63712  17.281  33.072   2.711
 2424W        W63713  24.588  35.433   1.703
 2425W        W63714   7.807  33.119  14.928
 2426W        W63715  27.485  15.771   3.728
 2427W        W63716  12.857  36.393  11.992
 2428W        W63717  30.941   6.314  14.336
 2429W        W63718   0.970  18.720   4.201
 2430W        W63719  11.195   9.661  12.025
 2431W        W63720  36.870  10.236   0.745
 2432W        W63721  13.636   2.328   4.305
 2433W        W63722  30.109   0.836  13.932
 2434W        W63723  13.142  19.611  14.424
 2435W        W63724  10.718  40.023  13.045
 2436W        W63725  18.220  13.122  12.568
 2437W        W63726  34.605  39.356   2.408
 2438W        W63727  37.084  16.641   1.896
 2439W        W63728   6.327   3.801  12.966
 2440W        W63729  30.021  22.698   0.895
 2441W        W63730  24.214  28.593  11.486
 2442W        W63731  26.055  40.488  14.805
 2443W        W63732  40.991   0.343  12.438
 2444W        W63733  16.244   0.293  10.505
 2445W        W63734   7.410  40.818  13.381
 2446W        W63735  22.066  17.640   1.880
 2447W        W63736  32.953  41.843   4.631
 2448W        W63737  18.279  14.829  13.447
 2449W        W63738  40.383  38.876  10.573
 2450W        W63739  43.431  31.506   4.273
 2451W        W63740  19.694  29.937   4.175
 2452W        W63741  31.096  11.661   4.165
 2453W        W63742  42.855   4.917   3.859
 2454W        W63743  35.916  15.735  11.608
 2455W        W63744  31.518  21.737   1.782
 2456W        W63745  23.554  28.993  12.400
 2457W        W63746   9.780  39.938  11.420
 2458W        W63747  12.774  29.069  14.798
 2459W        W63748   0.405  32.533  14.418
 2460W        W63749  22.139  24.179  11.923
 2461W        W63750  44.813  20.577  10.602
 2462W        W63751  24.049  23.150   3.819
 2463W        W63752  27.670  30.934   0.413
 2464W        W63753  43.343  28.101  14.967
 2465W        W63754  38.014  11.234   3.728
 2466W        W63755   6.796  30.586   1.719
 2467W        W63756  35.992  33.116   0.441
 2468W        W63757   7.192   1.434   4.245
 2469W        W63758   8.281  19.238   1.935
 2470W        W63759  30.056  16.114   0.309
 2471W        W63760  11.712  36.566  11.524
 2472W        W63761  27.089  19.248   1.237
 2473W        W63762  22.606  44.439  10.605
 2474W        W63763  22.036  34.921   1.272
 2475W        W63764   9.689  20.587   2.828
 2476W        W63765  22.564  11.662  13.483
 2477W        W63766  21.518   1.404  13.988
 2478W        W63767  17.146  24.655   1.376
 2479W        W63768   7.837  23.628   0.270
 2480W        W63769   5.246  27.149   3.641
 2481W        W63770  14.331   0.344   1.445
 2482W        W63771  38.336  18.126  11.908
 2483W        W63772   4.911  21.086   4.711
 2484W        W63773  23.657  22.063   1.244
 2485W        W63774  26.080  18.096   3.766
 2486W        W63775  35.884  42.892   0.390
 2487W        W63776  33.120  11.181   3.169
 2488W        W63777  34.910   4.312   3.708
 2489W        W63778  30.099   6.886  13.511
 2490W        W63779  38.038   4.926  14.791
 2491W        W63780  18.653  14.244  12.030
 2492W        W63781   1.378   0.444   2.825
 2493W        W63782  32.487  37.361  14.360
 2494W        W63783  29.599  41.947   3.377
 2495W        W63784   1.437  31.527  13.457
 2496W        W63785  11.215  36.519   2.798
 2497W        W63786  10.791  26.676  13.353
 2498W        W63787  20.723  22.183   1.746
 2499W        W63788   1.903  25.026   1.892
 2500W        W63789  42.441  34.109   4.745
 2501W        W63790  41.423  31.579   0.866
 2502W        W63791  32.048   1.761   1.926
 2503W        W63792   3.928   5.801   2.324
 2504W        W63793  25.026  39.498  10.624
 2505W        W63794   2.363  16.809  11.495
 2506W        W63795  24.532   4.247   0.287
 2507W        W63796  42.006  21.611   2.706
 2508W        W63797  21.059  25.600   2.217
 2509W        W63798  44.776  18.256  10.470
 2510W        W63799   8.212  42.498  10.582
 2511W        W63800  43.461  40.371  11.975
 2512W        W63801   4.803  23.164  12.431
 2513W        W63802  29.486  40.444  13.527
 2514W        W63803  38.029  36.037  11.612
 2515W        W63804   7.691  30.509  11.023
 2516W        W63805   6.355  18.203   3.822
 2517W        W63806  27.969  41.982  11.916
 2518W        W63807  13.321  13.807   3.644
 2519W        W63808  25.527  42.325   3.831
 2520W        W63809  20.087   8.856   1.830
 2521W        W63810  27.150  39.417   4.339
 2522W        W63811  20.216   3.439   4.821
 2523W        W63812  42.371   6.801  12.466
 2524W        W63813   4.328   2.920  10.963
 2525W        W63814  42.341  27.475   1.898
 2526W        W63815  21.654   5.923  11.979
 2527W        W63816  21.037  35.586   3.280
 2528W        W63817  26.663  36.510  14.763
 2529W        W63818   9.200  16.209   1.918
 2530W        W63819   3.265  15.227  13.449
 2531W        W63820  14.315  42.853  10.907
 2532W        W63821  33.488  17.641  12.074
 2533W        W63822  15.203  25.510   2.186
 2534W        W63823  37.427   9.810   9.937
 2535W        W63824  43.930  34.886  12.430
 2536W        W63825  32.417  26.580  14.431
 2537W        W63826  30.619   5.865   0.737
 2538W        W63827  30.081   7.403   5.236
 2539W        W63828   2.433  33.624  13.341
 2540W        W63829  10.147  41.423   2.741
 2541W        W63830   9.358  31.989  14.953
 2542W        W63831  30.446  27.691  13.341
 2543W        W63832  35.526  33.517  12.420
 2544W        W63833   7.746  36.977  13.339
 2545W        W63834   7.807  44.393   0.291
 2546W        W63835  34.408  44.986  10.500
 2547W        W63836  12.621  42.868   4.637
 2548W        W63837  12.855   0.397   3.705
 2549W        W63838  12.280   0.313   1.917
 2550W        W63839  26.961  11.129  13.949
 2551W        W63840  35.388   2.941   4.148
 2552W        W63841   8.872  30.913  12.570
 2553W        W63842   0.953  22.638   0.856
 2554W        W63843   0.268  35.549  14.379
 2555W        W63844  17.201  38.413   2.778
 2556W        W63845  39.464  33.525   4.712
 2557W        W63846   2.299   5.389   1.743
 2558W        W63847   5.735  39.330  14.899
 2559W        W63848  34.546  28.491   2.194
 2560W        W63849  32.496  11.684  12.972
 2561W        W63850   0.494  27.650   2.235
 2562W        W63851  30.054   1.906  12.950
 2563W        W63852  37.383  12.153   4.327
 2564W        W63853   1.419  23.691  13.832
 2565W        W63854  12.195  16.779  11.109
 2566W        W63855  20.577  32.038   2.898
 2567W        W63856  36.008  14.739  10.627
 2568W        W63857  28.179   9.713  14.874
 2569W        W63858  16.685  18.275  14.333
 2570W        W63859  15.214  40.362   0.424
 2571W        W63860   1.952  39.475  14.503
 2572W        W63861  10.262   0.407  14.888
 2573W        W63862  28.026  23.209   9.926
 2574W        W63863   5.426   5.258  10.510
 2575W        W63864  38.409  27.685  12.013
 2576W        W63865  38.391  28.665  14.019
 2577W        W63866  33.431  34.496  12.910
 2578W        W63867  35.940  25.994  11.529
 2579W        W63868  40.536  24.007  11.450
 2580W        W63869  43.500  44.867  11.023
 2581W        W63870  36.845  13.269   2.396
 2582W        W63871  24.537  26.661  13.851
 2583W        W63872  29.960  19.255  14.509
 2584W        W63873  10.643   6.224   4.705
 2585W        W63874  35.924  33.485  12.532
 2586W        W63875  43.874  31.466   2.821
 2587W        W63876  19.218  29.963  11.407
 2588W        W63877   1.409  19.067  11.413
 2589W        W63878  23.037  16.733  11.567
 2590W        W63879  25.032  36.895   4.810
 2591W        W63880  20.086  38.355  11.412
 2592W        W63881  26.129  36.447   3.276
 2593W        W63882  19.659  22.553   2.881
 2594W        W63883  38.937  29.172   4.177
 2595W        W63884  13.728  13.169  12.525
 2596W        W63885  12.313  22.543   4.771
 2597W        W63886  28.504  33.932   3.248
 2598W        W63887  19.617  20.090  12.843
 2599W        W63888   0.979  32.398   0.364
 2600W        W63889   4.327  29.526  14.379
 2601W        W63890  17.120  32.499  13.393
 2602W        W63891  43.784   7.742  13.495
 2603W        W63892   3.316  36.499  11.612
 2604W        W63893   9.744  13.661   0.883
 2605W        W63894  24.556   4.810  11.498
 2606W        W63895  27.571  28.155   4.632
 2607W        W63896   5.304  17.152  11.001
 2608W        W63897  21.756  43.856  11.935
 2609W        W63898  31.990  23.547  14.301
 2610W        W63899  42.374  12.780   3.306
 2611W        W63900  33.912  23.588  12.450
 2612W        W63901  28.592  42.308   4.798
 2613W        W63902  14.153   1.381  11.567
 2614W        W63903  32.951  22.518  13.827
 2615W        W63904  30.644  39.887  13.897
 2616W        W63905  40.386   2.398  13.947
 2617W        W63906   4.765   6.371  14.346
 2618W        W63907   2.937  24.230  11.442
 2619W        W63908  27.530  15.706  10.535
 2620W        W63909  23.111  38.432  13.359
 2621W        W63910  41.315  18.204   0.326
 2622W        W63911  40.913  15.648   5.224
 2623W        W63912  29.095  22.562  12.499
 2624W        W63913  39.352  28.946  14.791
 2625W        W63914   6.259   0.426   0.433
 2626W        W63915   8.657  28.467   4.654
 2627W        W63916  17.738   0.298  12.479
 2628W        W63917  40.322  33.131   2.269
 2629W        W63918  38.426  39.016  13.455
 2630W        W63919  43.289   6.363   4.786
 2631W        W63920  40.002  29.966   3.780
 2632W        W63921  34.927  39.382   0.816
 2633W        W63922  16.768  44.465  14.954
 2634W        W63923  27.481  27.956   1.242
 2635W        W63924  15.112  28.080  11.375
 2636W        W63925  16.621  40.510  10.415
 2637W        W63926  43.381  11.236  10.480
 2638W        W63927  14.243  28.021  11.393
 2639W        W63928  24.562  30.042  13.389
 2640W        W63929  30.045   3.447   2.742
 2641W        W63930  18.088  38.529  12.419
 2642W        W63931  16.768  27.173  14.842
 2643W        W63932  39.953  13.351   0.826
 2644W        W63933  28.630  41.943   2.304
 2645W        W63934  32.106   4.723  12.491
 2646W        W63935  43.861   7.694   0.456
 2647W        W63936  10.377  32.431  12.414
 2648W        W63937  28.490  36.428   4.351
 2649W        W63938  41.324   0.878  13.385
 2650W        W63939  23.200  37.342   3.844
 2651W        W63940  34.614  33.100   2.277
 2652W        W63941  17.126  30.040   3.222
 2653W        W63942  22.740  38.463   0.448
 2654W        W63943  26.038  25.496   2.827
 2655W        W63944   8.746  16.604  11.504
 2656W        W63945  32.436  41.002   1.753
 2657W        W63946  35.586  42.809  14.863
 2658W        W63947  11.310  26.563   2.814
 2659W        W63948  32.597  38.926   0.270
 2660W        W63949  39.818  34.957  12.053
 2661W        W63950  13.745  31.647  13.800
 2662W        W63951   1.959  22.080  13.953
 2663W        W63952  42.287   1.444   3.289
 2664W        W63953  12.280  38.908  14.418
 2665W        W63954  37.399  24.594   1.315
 2666W        W63955  28.111  42.832   2.900
 2667W        W63956   6.731  27.092   5.254
 2668W        W63957  12.289  29.621   3.302
 2669W        W63958  19.599   9.380  11.557
 2670W        W63959  27.466  28.651   4.201
 2671W        W63960  18.282  35.993  14.430
 2672W        W63961  35.105  15.189   4.354
 2673W        W63962  31.148   1.871   0.374
 2674W        W63963  28.993  18.780   4.791
 2675W        W63964  17.158   4.375   3.777
 2676W        W63965  32.612  25.551   2.811
 2677W        W63966  30.550  16.249  14.789
 2678W        W63967  42.987  43.342   3.192
 2679W        W63968  21.168  11.274   4.172
 2680W        W63969  26.571  29.484  12.023
 2681W        W63970   6.351  11.675  14.407
 2682W        W63971   5.831  40.303  12.027
 2683W        W63972  38.847   5.312   3.685
 2684W        W63973  19.199  34.393   3.751
 2685W        W63974  34.573  35.390  12.547
 2686W        W63975   7.258  38.387   1.446
 2687W        W63976  13.160  30.907   1.298
 2688W        W63977  39.500  42.304  13.977
 2689W        W63978  28.968   8.771   0.908
 2690W        W63979  30.087  36.890   2.825
 2691W        W63980  27.081  17.250  11.986
 2692W        W63981  27.604  22.660   1.236
 2693W        W63982  25.213  19.716   3.357
 2694W        W63983  39.362  24.118   4.257
 2695W        W63984  16.653  21.045   2.342
 2696W        W63985   1.335  44.374   0.285
 2697W        W63986  19.757  26.123   3.285
 2698W        W63987  38.045  21.237   1.812
 2699W        W63988  39.316  20.198   0.866
 2700W        W63989  31.573  37.855  11.583
 2701W        W63990  25.532  15.665   2.738
 2702W        W63991  22.053  38.846   0.767
 2703W        W63992   0.311   2.758  11.103
 2704W        W63993   9.221  44.396  12.420
 2705W        W63994   8.265  29.605  13.870
 2706W        W63995   6.362  16.724   0.770
 2707W        W63996  17.294  13.307   2.350
 2708W        W63997  17.238  29.666  14.848
 2709W        W63998  20.190  43.868   1.381
 2710W        W63999  29.662   9.219   2.213
 2711W        W64000  10.702   5.356  14.416
 2712W        W64001  34.984   0.436  14.996
 2713W        W64002  38.898   4.790   4.190
 2714W        W64003   4.889  28.527   1.432
 2715W        W64004   8.811  12.238  12.467
 2716W        W64005  13.622  26.647  10.406
 2717W        W64006  20.123  17.290  12.544
 2718W        W64007  28.489  19.662  14.449
 2719W        W64008  25.646  39.453   4.242
 2720W        W64009   4.374   9.311   3.305
 2721W        W64010  20.551  33.992   4.153
 2722W        W64011  16.640   7.293   3.647
 2723W        W64012  40.913   3.893   0.473
 2724W        W64013  26.993  40.548  13.844
 2725W        W64014  26.551  29.433   4.354
 2726W        W64015   6.196  21.190   2.317
 2727W        W64016  27.597   8.169   3.257
 2728W        W64017  44.477  14.231  12.063
 2729W        W64018  26.530   3.924   0.745
 2730W        W64019  14.183  44.399   3.651
 2731W        W64020  17.617  11.219   4.261
 2732W        W64021  31.507  11.248   4.798
 2733W        W64022  24.678  19.215  11.462
 2734W        W64023  35.954  18.210   4.158
 2735W        W64024  20.201  25.017  11.858
 2736W        W64025  12.712  37.410   0.425
 2737W        W64026  24.536   9.224   3.170
 2738W        W64027  28.586   1.837   3.660
 2739W        W64028  36.930  13.807   4.171
 2740W        W64029  41.839  12.614   4.269
 2741W        W64030  16.316  44.884  12.846
 2742W        W64031   0.929  20.689  14.442
 2743W        W64032  34.079  27.450   2.903
 2744W        W64033  21.108  21.754  11.015
 2745W        W64034  14.784  20.134   3.335
 2746W        W64035  14.132  35.921  10.545
 2747W        W64036  30.455   6.209  11.441
 2748W        W64037  24.716   6.699   3.163
 2749W        W64038   3.903  21.079  13.439
 2750W        W64039  24.021  34.504  12.516
 2751W        W64040  38.927   8.738  10.447
 2752W        W64041  23.050  39.047  11.042
 2753W        W64042  34.987  31.136   3.372
 2754W        W64043   5.812   4.248  11.073
 2755W        W64044  10.871   0.274  12.844
 2756W        W64045  30.101  12.751  14.019
 2757W        W64046  19.626  13.783   2.885
 2758W        W64047  28.080  21.642   5.780
 2759W        W64048  18.661  38.062   0.296
 2760W        W64049  26.030  25.041   2.739
 2761W        W64050   3.361  36.516   0.841
 2762W        W64051  40.926   6.728  11.420
 2763W        W64052   7.701  28.538   0.902
 2764W        W64053  25.488  22.124   3.808
 2765W        W64054  16.690  39.455   3.280
 2766W        W64055   9.234  38.372  14.460
 2767W        W64056  30.908   4.912  11.415
 2768W        W64057   4.302  38.888  12.445
 2769W        W64058  41.331  37.426   3.708
 2770W        W64059  31.935   9.157   3.830
 2771W        W64060   3.325  38.549   2.675
 2772W        W64061  19.168  15.820   0.394
 2773W        W64062  23.661  16.669  10.483
 2774W        W64063  36.017  29.436   2.377
 2775W        W64064  19.123  32.493  11.414
 2776W        W64065  10.704  23.691  14.019
 2777W        W64066  44.005  16.633  10.512
 2778W        W64067   1.754  27.971  14.990
 2779W        W64068  23.546  24.505   4.182
 2780W        W64069  15.700  29.637  13.405
 2781W        W64070  17.118  32.529  10.456
 2782W        W64071  40.913  10.716  11.027
 2783W        W64072   8.711  24.049  11.481
 2784W        W64073  39.476  40.983   4.690
 2785W        W64074  13.338  15.823  10.411
 2786W        W64075  42.989  33.625  10.016
 2787W        W64076  18.763  29.487  10.490
 2788W        W64077  18.283  39.315  10.625
 2789W        W64078  32.481   9.792  14.985
 2790W        W64079  36.515   6.905   3.779
 2791W        W64080   3.389  25.666  10.433
 2792W        W64081   8.405   7.667   2.306
 2793W        W64082  24.608  33.007  11.424
 2794W        W64083  40.032  40.808   3.758
 2795W        W64084   3.421  33.514   0.766
 2796W        W64085  34.105  35.000   4.625
 2797W        W64086   7.190   1.250   0.880
 2798W        W64087  42.337  25.151   0.386
 2799W        W64088  30.953  22.036  10.020
 2800W        W64089  32.929  38.512   2.299
 2801W        W64090  23.626   8.810  12.422
 2802W        W64091   3.373  42.865  14.936
 2803W        W64092  35.546  13.796   4.768
 2804W        W64093  26.150  36.466  12.932
 2805W        W64094  27.691  17.082  12.564
 2806W        W64095  33.479  19.560  14.904
 2807W        W64096  17.307  21.542  12.065
 2808W        W64097  28.148  42.410   1.401
 2809W        W64098  32.424  26.521   3.785
 2810W        W64099  32.048  33.945  14.496
 2811W        W64100  17.592   0.913   2.327
 2812W        W64101  10.194  19.243  13.429
 2813W        W64102  10.216  38.326  13.378
 2814W        W64103  42.815  37.887   3.726
 2815W        W64104  11.207  26.124  13.934
 2816W        W64105  19.085  14.105   4.139
 2817W        W64106  25.702  41.814   1.870
 2818W        W64107   2.230  37.515  10.574
 2819W        W64108  29.937  14.194  13.791
 2820W        W64109   9.336  40.921   3.641
 2821W        W64110  12.656  42.527   0.379
 2822W        W64111  34.488  27.658   2.728
 2823W        W64112  43.389  24.518   2.273
 2824W        W64113   5.765  32.596  13.530
 2825W        W64114  29.968  22.623  14.302
 2826W        W64115  14.324  34.918  12.510
 2827W        W64116  12.188  39.413   0.252
 2828W        W64117   2.959  35.487  12.372
 2829W        W64118  31.497  41.825  12.073
 2830W        W64119  38.357   7.799  11.559
 2831W        W64120   4.368  27.167   1.389
 2832W        W64121  43.279   5.860  13.013
 2833W        W64122  29.070  42.919   0.308
 2834W        W64123   2.469   0.895   1.754
 2835W        W64124  29.144  15.132  10.932
 2836W        W64125  23.991  33.916   2.687
 2837W        W64126  17.628  38.372   5.794
 2838W        W64127  13.143  20.084   3.314
 2839W        W64128  18.122  30.107   2.829
 2840W        W64129  17.135  38.378  14.027
 2841W        W64130  25.154  11.686  10.983
 2842W        W64131   4.332  16.314  10.996
 2843W        W64132  19.734  43.914  12.089
 2844W        W64133  20.054   6.842  13.880
 2845W        W64134  24.612  16.664  11.062
 2846W        W64135   2.894  38.397  10.433
 2847W        W64136  24.974  18.784  10.927
 2848W        W64137  22.614  18.066   3.751
 2849W        W64138   7.364  42.855  14.485
 2850W        W64139   1.396  10.876   0.837
 2851W        W64140  33.906  17.739  14.406
 2852W        W64141  24.514  30.945   0.275
 2853W        W64142  44.476  25.649   1.808
 2854W        W64143  43.357  13.205   0.314
 2855W        W64144   5.420  27.576  11.490
 2856W        W64145  12.614  35.928  10.947
 2857W        W64146  40.925  31.416   4.750
 2858W        W64147  16.625  23.170   1.349
 2859W        W64148  28.631   2.424   3.177
 2860W        W64149  32.436  21.065   4.700
 2861W        W64150   3.377  25.189  14.001
 2862W        W64151  13.254  36.487  11.509
 2863W        W64152  34.433  20.159  13.892
 2864W        W64153  18.606  13.820  11.901
 2865W        W64154  26.037  12.764   1.736
 2866W        W64155  38.906  12.307   4.599
 2867W        W64156  39.528  32.451   0.352
 2868W        W64157  33.928  25.708  14.808
 2869W        W64158  35.046  33.609   1.258
 2870W        W64159  36.044  30.954  13.049
 2871W        W64160   5.770  28.447  11.035
 2872W        W64161  20.755  19.117  12.075
 2873W        W64162  23.585   4.229   0.881
 2874W        W64163  18.278  33.937  11.097
 2875W        W64164  15.768   0.827   3.259
 2876W        W64165  31.640  38.478  13.516
 2877W        W64166  23.707   0.429   4.829
 2878W        W64167  19.737   8.687  13.343
 2879W        W64168  43.278  29.445   4.184
 2880W        W64169   1.248   6.231   1.729
 2881W        W64170  37.082  37.502   4.779
 2882W        W64171  25.533   0.852  14.510
 2883W        W64172  10.762  25.640   2.878
 2884W        W64173  14.764  36.081  14.480
 2885W        W64174  31.424   0.874   1.328
 2886W        W64175  39.486  36.561  15.000
 2887W        W64176   2.799  10.802   4.302
 2888W        W64177  11.747   7.387   0.440
 2889W        W64178  28.541  30.125  13.470
 2890W        W64179  28.983  29.015   2.305
 2891W        W64180  32.924  28.986  11.391
 2892W        W64181  44.387  39.442   1.389
 2893W        W64182  33.896  11.781  14.972
 2894W        W64183  30.455  10.782  11.443
 2895W        W64184   3.425  37.361   3.746
 2896W        W64185  23.650  44.422  14.961
 2897W        W64186  22.570   9.150   4.156
 2898W        W64187   2.324  15.778   4.659
 2899W        W64188  26.591  37.393  12.368
 2900W        W64189  21.715  38.523   4.279
 2901W        W64190  27.538   5.208   1.245
 2902W        W64191   6.303   3.324  10.962
 2903W        W64192  43.010  26.064   1.440
 2904W        W64193  44.755  36.496  11.941
 2905W        W64194   7.212  42.029   3.714
 2906W        W64195  31.136   2.253  13.016
 2907W        W64196  31.551  44.288   3.726
 2908W        W64197   6.407  19.592   0.437
 2909W        W64198   2.402  36.083  12.457
 2910W        W64199   3.373  42.029   0.771
 2911W        W64200  41.333  31.438   0.468
 2912W        W64201   1.482   1.246  13.891
 2913W        W64202   9.291   9.752   3.260
 2914W        W64203  17.193  39.820   1.789
 2915W        W64204  15.312  38.381  14.899
 2916W        W64205   6.885  31.073  11.980
 2917W        W64206  36.445  20.073  10.149
 2918W        W64207   8.683  28.669   4.142
 2919W        W64208  25.977  36.039  12.914
 2920W        W64209  14.327  24.529  14.802
 2921W        W64210   6.920  30.440   1.242
 2922W        W64211  21.564  41.861   2.381
 2923W        W64212   5.410  19.054   1.836
 2924W        W64213  39.061  34.378  14.835
 2925W        W64214  10.372  16.692  12.474
 2926W        W64215  35.926  37.045   1.819
 2927W        W64216   6.866  21.238  10.517
 2928W        W64217  20.134   6.184  13.345
 2929W        W64218  13.741  44.452   4.253
 2930W        W64219  11.184  11.298  13.845
 2931W        W64220   6.853  26.101   2.279
 2932W        W64221  30.652  30.956   3.863
 2933W        W64222  14.614   3.886   4.807
 2934W        W64223  29.441  30.538   0.390
 2935W        W64224   0.919  25.487  10.603
 2936W        W64225  34.422  20.180   1.376
 2937W        W64226  11.842   9.359  11.404
 2938W        W64227  20.550   9.158  14.283
 2939W        W64228  15.645  20.263   2.710
 2940W        W64229  40.967   0.475   3.737
 2941W        W64230  35.418  16.126  13.311
 2942W        W64231  10.695  17.632   2.234
 2943W        W64232  33.450  32.885  12.394
 2944W        W64233   3.459  29.998   4.159
 2945W        W64234  44.005  19.248  12.934
 2946W        W64235  14.211  21.678  14.799
 2947W        W64236   1.771  32.594  13.995
 2948W        W64237   5.214  23.538   2.363
 2949W        W64238  17.160   8.898  10.433
 2950W        W64239  33.402   6.235   2.349
 2951W        W64240   0.747  33.002   1.239
 2952W        W64241  37.882  42.469  12.980
 2953W        W64242   4.288  31.015  14.846
 2954W        W64243   8.678  22.581   3.665
 2955W        W64244  26.539  22.683   2.285
 2956W        W64245  34.003  31.940  11.949
 2957W        W64246  21.186  44.281   1.725
 2958W        W64247  41.997  11.362   2.792
 2959W        W64248  18.621  40.471   1.392
 2960W        W64249  30.006   6.419   0.341
 2961W        W64250  44.918  13.276   1.318
 2962W        W64251   4.867  32.968  12.027
 2963W        W64252   7.180  15.636  12.069
 2964W        W64253  26.092   0.770   1.891
 2965W        W64254  29.423  27.953  10.150
 2966W        W64255  12.716   9.791   3.755
 2967W        W64256   7.227  35.387   2.782
 2968W        W64257  12.189   9.149   2.860
 2969W        W64258  44.897  21.106  14.315
 2970W        W64259   6.700  28.611  14.915
 2971W        W64260   2.731   5.409  12.937
 2972W        W64261  26.493  26.562  13.373
 2973W        W64262   2.274  39.925  11.058
 2974W        W64263   3.758   8.775   3.717
 2975W        W64264  38.947  17.272  12.458
 2976W        W64265  39.854  26.635   3.705
 2977W        W64266  10.326   8.773   3.833
 2978W        W64267  27.643  27.984   1.746
 2979W        W64268  12.758  44.866  14.800
 2980W        W64269  24.189  38.965  10.102
 2981W        W64270  44.938   3.788   0.465
 2982W        W64271  41.472  35.455   0.765
 2983W        W64272  42.880  38.359  14.906
 2984W        W64273  24.709  19.270   4.226
 2985W        W64274  26.673  28.006  10.528
 2986W        W64275  21.719  26.551  14.780
 2987W        W64276  37.993   4.827   3.207
 2988W        W64277  35.357  19.629  10.541
 2989W        W64278   8.308  26.157  14.929
 2990W        W64279  28.162  34.098  10.477
 2991W        W64280  15.127  20.741   9.436
 2992W        W64281   0.956  11.811  12.345
 2993W        W64282  13.264  16.237  10.562
 2994W        W64283   3.796  25.074   5.284
 2995W        W64284  32.514  18.123  12.991
 2996W        W64285   2.829  34.005   1.291
 2997W        W64286  13.784  14.256   5.257
 2998W        W64287  32.989   6.298  12.957
 2999W        W64288   9.357  44.445  13.924
 3000W        W64289  41.810  14.296   1.699
 3001W        W64290  29.111  39.546  10.419
 3002W        W64291  20.231  30.051  11.589
 3003W        W64292  38.508  10.755  14.506
 3004W        W64293  27.014  11.706  10.024
 3005W        W64294  15.774  17.567   3.772
 3006W        W64295  13.127  18.650  10.563
 3007W        W64296  43.495  24.132  12.976
 3008W        W64297  11.623  11.784   0.963
 3009W        W64298   9.170  33.538   3.343
 3010W        W64299  27.175  12.613  12.877
 3011W        W64300   5.740  38.965  14.506
 3012W        W64301   3.324  13.757  10.491
 3013W        W64302  34.967  16.587   2.332
 3014W        W64303   7.864  21.162  10.099
 3015W        W64304  23.220   7.853   2.324
 3016W        W64305   0.748  17.280  10.938
 3017W        W64306  28.151  41.347   3.632
 3018W        W64307  30.120  21.198   0.910
 3019W        W64308  14.795  22.091  14.298
 3020W        W64309   2.880   4.928   0.846
 3021W        W64310  33.527  11.163   2.245
 3022W        W64311  43.374  26.543  14.976
 3023W        W64312  21.702   3.731  10.560
 3024W        W64313  16.214  41.943  14.806
 3025W        W64314   9.331  38.974   5.253
 3026W        W64315  25.531   8.287   4.131
 3027W        W64316  43.278  25.609   2.348
 3028W        W64317  27.047  43.834   4.326
 3029W        W64318   7.403  41.996  10.416
 3030W        W64319  12.782  16.115   0.941
 3031W        W64320  33.590  14.163  14.932
 3032W        W64321  26.662  11.628   0.290
 3033W        W64322  40.963   6.771   3.313
 3034W        W64323   4.356  19.673  11.035
 3035W        W64324  34.575  21.159   2.284
 3036W        W64325  19.208  29.025  12.504
 3037W        W64326  21.247   9.255  14.400
 3038W        W64327  36.916  35.032   2.801
 3039W        W64328  10.699  25.009   1.365
 3040W        W64329   8.797   6.309   4.665
 3041W        W64330   6.825  43.448   0.845
 3042W        W64331  20.260   5.213  10.589
 3043W        W64332  44.323  18.212   0.930
 3044W        W64333  42.015  23.205  11.968
 3045W        W64334   3.954   9.387   4.176
 3046W        W64335  15.807  30.087  12.502
 3047W        W64336  20.685  16.661   2.211
 3048W        W64337  40.388  22.060   0.926
 3049W        W64338  40.363  11.729   4.786
 3050W        W64339   2.418  18.067  13.016
 3051W        W64340  36.023  15.717   4.260
 3052W        W64341   1.827  40.862  13.397
 3053W        W64342   0.269   4.371  10.430
 3054W        W64343  10.255  20.232  12.487
 3055W        W64344  14.114  39.930   4.312
 3056W        W64345  34.549  13.755   2.898
 3057W        W64346  13.225  10.241   2.727
 3058W        W64347  23.655  30.074  12.892
 3059W        W64348  28.504   0.483  14.448
 3060W        W64349  36.050  12.335   4.193
 3061W        W64350  43.848   3.861  13.968
 3062W        W64351  20.149  12.311   3.327
 3063W        W64352   9.394  25.005  12.483
 3064W        W64353  17.634   7.824   0.396
 3065W        W64354  30.136   6.189   4.705
 3066W        W64355  20.592  44.797   3.645
 3067W        W64356  28.528  26.483  14.416
 3068W        W64357  13.265  29.919   3.673
 3069W        W64358  12.216  34.972   1.789
 3070W        W64359  26.023  40.957   4.267
 3071W        W64360  36.862  34.523  13.364
 3072W        W64361  44.818   1.929  12.949
 3073W        W64362  20.655  39.327   1.730
 3074W        W64363   6.872  24.508   3.240
 3075W        W64364  12.301  32.523   5.273
 3076W        W64365  33.550   4.825   3.834
 3077W        W64366  38.945  28.552   3.247
 3078W        W64367  32.487   7.704  10.533
 3079W        W64368   1.392  39.475   0.336
 3080W        W64369   4.307   9.833   3.295
 3081W        W64370  17.286  31.914   5.268
 3082W        W64371  20.041  19.076   1.440
 3083W        W64372  26.184  29.561   1.214
 3084W        W64373  36.499  30.651   5.226
 3085W        W64374  37.913  23.076   1.292
 3086W        W64375   8.230  29.927   2.684
 3087W        W64376  10.785  12.782  10.544
 3088W        W64377  40.974  34.919  10.992
 3089W        W64378  28.159  26.608  14.883
 3090W        W64379  14.118   2.940  14.824
 3091W        W64380   5.724  13.682  14.944
 3092W        W64381  31.578  27.993  13.792
 3093W        W64382  40.414  28.133   4.824
 3094W        W64383  23.164  40.959   0.445
 3095W        W64384   6.698   8.875   2.382
 3096W        W64385  31.593  23.234  11.467
 3097W        W64386  30.609   6.875   1.920
 3098W        W64387  10.176  42.331   3.326
 3099W        W64388   7.342   8.670  12.548
 3100W        W64389   8.855  19.115  14.815
 3101W        W64390  27.104   7.411   0.885
 3102W        W64391  10.380  28.930   0.270
 3103W        W64392  10.824  31.553  10.589
 3104W        W64393   9.819  10.721  11.056
 3105W        W64394  35.923   0.379  11.072
 3106W        W64395  21.706  41.813   1.912
 3107W        W64396  23.553  26.508  14.449
 3108W        W64397  40.514  19.770  12.929
 3109W        W64398  41.293  20.113  12.343
 3110W        W64399   0.919  41.794   3.309
 3111W        W64400   1.844   4.265  12.087
 3112W        W64401  28.061  34.928  11.105
 3113W        W64402   4.739   5.392   4.150
 3114W        W64403  44.851  30.505   1.711
 3115W        W64404  42.494  22.128  14.970
 3116W        W64405  20.694  23.062  13.850
 3117W        W64406  31.118  20.745  13.528
 3118W        W64407   6.199  39.837  10.053
 3119W        W64408   2.433  37.544   3.812
 3120W        W64409  28.016  12.265  13.862
 3121W        W64410  15.673  36.553  12.376
 3122W        W64411  30.036  11.312   0.800
 3123W        W64412  27.578  37.335   3.346
 3124W        W64413  36.041  42.021  14.314
 3125W        W64414  38.507  15.171   2.810
 3126W        W64415  20.190  29.608   2.805
 3127W        W64416  21.258  21.046   1.379
 3128W        W64417  36.872  33.121  13.829
 3129W        W64418  18.705  32.074   5.134
 3130W        W64419   4.234  31.944  12.469
 3131W        W64420  25.539  43.931   4.713
 3132W        W64421   8.250  43.880  10.897
 3133W        W64422  39.945   2.896  11.875
 3134W        W64423   9.282  22.084  11.576
 3135W        W64424  13.233   8.878  14.001
 3136W        W64425  36.548   0.902  13.880
 3137W        W64426  10.338  19.753   4.337
 3138W        W64427   4.781  44.970  12.968
 3139W        W64428  14.784  22.741  11.380
 3140W        W64429  16.597   5.386   0.424
 3141W        W64430   4.370  38.337  14.025
 3142W        W64431  37.920   3.401  13.904
 3143W        W64432  25.178  41.959   4.667
 3144W        W64433  37.914  19.136   3.727
 3145W        W64434  42.800  44.964   2.367
 3146W        W64435  42.290  37.574   1.270
 3147W        W64436  19.281   8.250   4.667
 3148W        W64437   3.255   4.907   5.315
 3149W        W64438  30.036  44.893  11.481
 3150W        W64439  13.265  13.151  10.464
 3151W        W64440  33.551  11.178  12.351
 3152W        W64441  25.181  35.067   4.258
 3153W        W64442  15.613  38.911   4.802
 3154W        W64443  20.536   4.265  11.967
 3155W        W64444  25.604  35.398   0.831
 3156W        W64445  13.156   7.180   3.644
 3157W        W64446  39.813  17.587   2.294
 3158W        W64447  13.662  20.531   4.627
 3159W        W64448  39.861  42.340  10.581
 3160W        W64449  31.914  28.617  13.865
 3161W        W64450   4.704  14.259  11.540
 3162W        W64451  14.223  34.575   4.323
 3163W        W64452  25.102  14.285   4.300
 3164W        W64453  38.386  11.182  10.449
 3165W        W64454  15.812  31.463   3.188
 3166W        W64455  15.258  39.485   2.323
 3167W        W64456  16.798  44.972  13.962
 3168W        W64457  11.762   3.813  11.450
 3169W        W64458   1.885  31.610   1.740
 3170W        W64459  12.653   7.786  12.940
 3171W        W64460  43.819  27.948   2.831
 3172W        W64461  42.822  24.480  14.017
 3173W        W64462   7.388   5.227   1.291
 3174W        W64463   9.646  21.643   3.687
 3175W        W64464  29.447  44.827  13.801
 3176W        W64465  36.449  31.101  12.967
 3177W        W64466  44.931  26.702  11.858
 3178W        W64467  16.263   4.769   1.749
 3179W        W64468  39.490  29.053  14.389
 3180W        W64469  40.819  20.553   4.666
 3181W        W64470  30.910  24.617  10.479
 3182W        W64471   1.845  14.239   3.687
 3183W        W64472   8.843  24.084   3.224
 3184W        W64473  40.031  41.924   4.321
 3185W        W64474  23.008   2.912  13.363
 3186W        W64475  26.023  38.393   3.229
 3187W        W64476  23.712  15.327   3.733
 3188W        W64477  13.650  43.873   4.626
 3189W        W64478  24.990  39.846  12.360
 3190W        W64479  43.910   5.216   0.455
 3191W        W64480  21.085  33.898  13.354
 3192W        W64481   1.293  14.784  13.980
 3193W        W64482   4.734  17.256  14.368
 3194W        W64483  37.059   7.300   1.831
 3195W        W64484  17.173   7.182   2.856
 3196W        W64485   6.287  42.334   4.714
 3197W        W64486   4.288   8.759  12.548
 3198W        W64487  41.331   5.250  11.078
 3199W        W64488  19.680   1.815   3.675
 3200W        W64489  39.467  42.452  11.097
 3201W        W64490  36.959  40.015   4.827
 3202W        W64491   8.269  14.763   3.829
 3203W        W64492  34.104  18.640  14.450
 3204W        W64493  29.662  11.237   1.264
 3205W        W64494  21.698   5.702   3.741
 3206W        W64495  40.939  37.016   1.405
 3207W        W64496  36.979  10.285   0.270
 3208W        W64497  39.419  20.117   4.828
 3209W        W64498  36.570   8.306   0.896
 3210W        W64499  33.406  44.499   0.283
 3211W        W64500  23.521   5.305  14.920
 3212W        W64501  31.418  10.714  13.331
 3213W        W64502  19.756  16.188   4.701
 3214W        W64503  13.792  20.635   5.229
 3215W        W64504  43.441   7.377  10.606
 3216W        W64505  16.301  23.657   5.313
 3217W        W64506  16.608  13.277  14.806
 3218W        W64507  24.552  34.073  11.529
 3219W        W64508  23.073  21.580   0.280
 3220W        W64509   8.183  27.063   4.313
 3221W        W64510  15.675  34.440   1.378
 3222W        W64511  41.495   8.847  12.087
 3223W        W64512  21.080   0.896  14.939
 3224W        W64513   2.828  21.141   4.265
 3225W        W64514   6.370  17.285  14.390
 3226W        W64515   7.380  38.544  10.894
 3227W        W64516  15.641  13.244  13.501
 3228W        W64517  13.124  28.134   3.253
 3229W        W64518   9.867   8.220  13.512
 3230W        W64519  37.403  14.304  13.390
 3231W        W64520  25.979  24.680   9.570
 3232W        W64521  21.262   8.663  10.586
 3233W        W64522  42.980  20.648  13.020
 3234W        W64523  43.014  15.177   3.769
 3235W        W64524  12.830  19.628  14.287
 3236W        W64525  19.543  31.935   4.786
 3237W        W64526  23.235  16.106   0.342
 3238W        W64527  25.170  31.454  10.410
 3239W        W64528  10.223  23.117   1.813
 3240W        W64529  27.092  18.087  10.560
 3241W        W64530  16.290   2.414   1.832
 3242W        W64531  42.363  22.709   4.662
 3243W        W64532  18.256  41.296  10.952
 3244W        W64533  31.548  13.168  13.389
 3245W        W64534  23.128  42.919   5.171
 3246W        W64535  21.042   0.971  13.940
 3247W        W64536   2.267   5.354  12.530
 3248W        W64537  29.931  25.696  11.909
 3249W        W64538  40.844  34.483  14.459
 3250W        W64539  12.733  16.722  12.943
 3251W        W64540  23.180  34.411  10.967
 3252W        W64541  43.367  17.231  12.086
 3253W        W64542   9.321  10.273   4.669
 3254W        W64543   4.255  44.755   2.815
 3255W        W64544  26.023  24.137  14.464
 3256W        W64545   9.677  36.924   4.652
 3257W        W64546  25.563  22.586  11.981
 3258W        W64547  21.677   1.874   1.265
 3259W        W64548  29.635   2.737   0.778
 3260W        W64549  33.490  22.999   3.170
 3261W        W64550   4.741  23.096  13.484
 3262W        W64551  41.809  12.323   4.165
 3263W        W64552  39.543   0.774  11.462
 3264W        W64553  27.535  12.740   3.174
 3265W        W64554  24.227   9.381   1.226
 3266W        W64555  22.242  40.024   3.673
 3267W        W64556  15.098  42.407   4.608
 3268W        W64557  29.163  26.584   1.739
 3269W        W64558  31.619   8.812   1.429
 3270W        W64559  18.567  18.640  14.011
 3271W        W64560   5.751  39.826   2.879
 3272W        W64561  32.930  23.517   2.218
 3273W        W64562  16.768  28.982   2.302
 3274W        W64563  27.150  12.144   4.138
 3275W        W64564  35.093   5.732   1.395
 3276W        W64565   6.823  10.822   2.250
 3277W        W64566  33.453  19.652   5.146
 3278W        W64567  12.699  35.942   3.803
 3279W        W64568  18.080   0.879  13.909
 3280W        W64569   5.901  38.836  11.069
 3281W        W64570   8.732  39.348  13.971
 3282W        W64571  34.524  29.102   2.749
 3283W        W64572  37.902  15.674   4.282
 3284W        W64573  34.443  28.532   3.257
 3285W        W64574  42.946  22.623  10.501
 3286W        W64575  26.187  26.026  14.001
 3287W        W64576  39.892  23.670   4.164
 3288W        W64577  22.025   8.394   4.352
 3289W        W64578  33.594   4.254  14.474
 3290W        W64579  29.979  36.445  13.931
 3291W        W64580  26.524   1.347  12.033
 3292W        W64581   1.242  14.328   1.826
 3293W        W64582  18.609  18.664   0.884
 3294W        W64583  35.368  15.221  13.461
 3295W        W64584  35.535  28.181  13.335
 3296W        W64585  15.250  12.232   2.844
 3297W        W64586   2.415  34.005  14.977
 3298W        W64587  40.867  25.615  13.039
 3299W        W64588  11.285  15.314   4.626
 3300W        W64589   4.450   9.791   2.216
 3301W        W64590  36.443  35.927   5.110
 3302W        W64591  36.552  15.216  13.519
 3303W        W64592   3.400   8.685  14.003
 3304W        W64593  40.850  23.080   0.818
 3305W        W64594  41.953  17.628   3.834
 3306W        W64595   4.944  22.050   4.215
 3307W        W64596  27.525  14.661   4.659
 3308W        W64597  12.188   9.280   2.228
 3309W        W64598  13.660   3.954   1.224
 3310W        W64599  32.600   1.914   1.862
 3311W        W64600  30.924  35.876   3.845
 3312W        W64601   4.291  36.446  14.471
 3313W        W64602  36.385  27.637   1.358
 3314W        W64603  11.304  27.169   3.676
 3315W        W64604  14.195   1.903  14.019
 3316W        W64605  40.839  36.085   4.160
 3317W        W64606   3.320  23.101   4.677
 3318W        W64607   2.825  22.694  11.921
 3319W        W64608  30.059   6.267   3.630
 3320W        W64609  34.049   6.392   0.273
 3321W        W64610  17.262  24.188  12.021
 3322W        W64611   0.954  23.568  14.300
 3323W        W64612  13.706  32.040  14.961
 3324W        W64613  38.417  29.094   4.807
 3325W        W64614  23.633  31.529   4.220
 3326W        W64615  19.663   6.692   1.378
 3327W        W64616  21.034  34.420  12.488
 3328W        W64617  21.207   0.829   0.293
 3329W        W64618   0.751  18.122  14.818
 3330W        W64619  15.749  44.350  14.364
 3331W        W64620  24.617  30.025  10.897
 3332W        W64621  26.069  14.130  12.839
 3333W        W64622  30.011  20.617   0.449
 3334W        W64623  33.970  28.612  13.984
 3335W        W64624  39.039  17.172   4.136
 3336W        W64625  20.054  44.503  12.353
 3337W        W64626  34.404  42.996  13.868
 3338W        W64627  20.176  37.874   4.740
 3339W        W64628   1.267   1.348   1.314
 3340W        W64629  12.669   9.876  13.805
 3341W        W64630  31.429  35.505  14.306
 3342W        W64631  42.843  42.974   1.774
 3343W        W64632   8.230  32.533  12.090
 3344W        W64633  29.597  13.784   4.197
 3345W        W64634  21.584  36.960   3.837
 3346W        W64635  16.317  35.414   2.858
 3347W        W64636   4.941  24.632  12.957
 3348W        W64637   7.907  34.390  10.530
 3349W        W64638  35.940   5.755   3.818
 3350W        W64639  43.330  44.956  14.968
 3351W        W64640  29.088  44.813  10.585
 3352W        W64641   4.920   9.820   2.272
 3353W        W64642  38.329  43.014   1.805
 3354W        W64643  20.623  13.769  11.509
 3355W        W64644  12.726  15.088  14.828
 3356W        W64645  17.657   2.805  14.939
 3357W        W64646  20.607  12.661   4.267
 3358W        W64647  27.964  10.235   1.374
 3359W        W64648   8.325  20.662  10.986
 3360W        W64649  29.018  39.318  12.492
 3361W        W64650  34.537  12.163   0.937
 3362W        W64651  19.659  36.084  14.021
 3363W        W64652  38.539  27.641   1.408
 3364W        W64653  39.892  39.361   0.843
 3365W        W64654  11.853  26.173  13.373
 3366W        W64655   3.278  25.559   0.935
 3367W        W64656  43.397  22.663  10.592
 3368W        W64657  33.619  10.322  11.426
 3369W        W64658  44.441   0.883   2.279
 3370W        W64659  30.962   9.365   2.399
 3371W        W64660  44.764  22.722  12.086
 3372W        W64661  25.130   6.770   5.207
 3373W        W64662  17.641  10.362   2.707
 3374W        W64663  16.761  36.535  14.910
 3375W        W64664  19.132  34.409  11.588
 3376W        W64665  18.635   2.240  12.072
 3377W        W64666  44.327  25.040  14.456
 3378W        W64667  39.497  18.139  11.994
 3379W        W64668  33.031  17.703  11.515
 3380W        W64669  21.708  24.506  13.395
 3381W        W64670   4.788  11.192   3.839
 3382W        W64671  28.996  16.124  14.986
 3383W        W64672  15.172   2.843   1.817
 3384W        W64673  36.048  44.504  11.043
 3385W        W64674  12.230   4.444  12.891
 3386W        W64675  28.652  36.427  14.355
 3387W        W64676  35.941  29.118   1.335
 3388W        W64677  41.932  35.109   1.378
 3389W        W64678  18.773   4.700  14.910
 3390W        W64679   5.312  26.610   3.800
 3391W        W64680  23.203  15.282   0.357
 3392W        W64681  34.097  42.468  11.086
 3393W        W64682   2.390  35.092   1.296
 3394W        W64683  44.977  27.579  12.574
 3395W        W64684  42.308  30.590   4.341
 3396W        W64685   9.842  42.476  12.492
 3397W        W64686  41.863  43.933  14.771
 3398W        W64687  17.795  26.521   1.211
 3399W        W64688  21.028  44.308   2.367
 3400W        W64689  40.405   6.245   1.708
 3401W        W64690  42.478  26.538  10.641
 3402W        W64691   8.302  43.269   2.816
 3403W        W64692  34.575  15.305  10.540
 3404W        W64693  37.351  33.022  11.067
 3405W        W64694  39.944  31.567   1.887
 3406W        W64695  14.707   9.252  10.466
 3407W        W64696  30.145  25.476  10.626
 3408W        W64697  42.835  16.742   0.468
 3409W        W64698  44.382  12.639  11.548
 3410W        W64699   4.943  15.256   0.348
 3411W        W64700  36.041  25.496  10.930
 3412W        W64701  34.597  10.709   4.615
 3413W        W64702  17.174  15.619   3.678
 3414W        W64703  24.679  29.993  14.502
 3415W        W64704  31.532  18.727   4.184
 3416W        W64705   7.297  43.792   0.419
 3417W        W64706   9.860  23.114   2.818
 3418W        W64707   8.847  24.214   9.983
 3419W        W64708  11.131   2.262  10.963
 3420W        W64709  36.033  17.621   2.375
 3421W        W64710   4.868  15.092  11.544
 3422W        W64711   8.205  32.425  14.281
 3423W        W64712   8.792  22.248  12.522
 3424W        W64713  20.724  20.122  10.487
 3425W        W64714  19.183  20.602   1.360
 3426W        W64715  38.841  40.032   2.316
 3427W        W64716  25.571  19.568   1.230
 3428W        W64717   7.227  31.000   1.239
 3429W        W64718   2.755   1.960  10.469
 3430W        W64719   1.824  14.601   3.155
 3431W        W64720  34.426  31.072  11.108
 3432W        W64721  18.671  35.424   0.409
 3433W        W64722  22.125  14.184   3.813
 3434W        W64723  15.288   0.289  12.574
 3435W        W64724   1.291  33.067   1.859
 3436W        W64725  14.609  27.573  12.825
 3437W        W64726  33.579  13.690   2.298
 3438W        W64727  39.886  14.278  12.344
 3439W        W64728  40.439  23.022  11.475
 3440W        W64729   1.941   7.257  10.576
 3441W        W64730  20.173  23.629   3.856
 3442W        W64731  34.955   1.761   0.831
 3443W        W64732  20.560   2.929   0.362
 3444W        W64733  38.452  22.187  14.402
 3445W        W64734  33.620  19.168   1.842
 3446W        W64735  35.962  30.032  11.608
 3447W        W64736  25.551  37.444  13.435
 3448W        W64737  12.702   9.643   2.844
 3449W        W64738  16.792  14.780   0.281
 3450W        W64739   5.369   8.885  13.028
 3451W        W64740  44.432  13.174   3.682
 3452W        W64741   9.178   5.288  10.947
 3453W        W64742  12.781  18.549   0.806
 3454W        W64743  31.002  34.501  13.870
 3455W        W64744  11.653  11.728   4.803
 3456W        W64745   5.706  34.388   0.408
 3457W        W64746  39.932  43.423  13.495
 3458W        W64747  17.074  44.271  13.515
 3459W        W64748   3.775  17.751  11.401
 3460W        W64749  26.194  36.078   2.889
 3461W        W64750  14.654  30.608  11.027
 3462W        W64751  24.645  18.664   3.852
 3463W        W64752  11.796  17.612  12.526
 3464W        W64753  36.510  34.084   3.229
 3465W        W64754   7.415  31.078   3.337
 3466W        W64755  20.169  18.100   5.169
 3467W        W64756  23.516  12.706   4.179
 3468W        W64757   6.275  39.372  14.414
 3469W        W64758  29.561  25.157  10.989
 3470W        W64759  31.438  13.683   4.297
 3471W        W64760  31.957   3.944   0.347
 3472W        W64761  32.619   9.344  13.996
 3473W        W64762  41.330  42.429   0.870
 3474W        W64763  14.647   5.832  12.846
 3475W        W64764  34.497   2.225   2.294
 3476W        W64765  34.415  43.400  14.935
 3477W        W64766  13.111  11.356  12.572
 3478W        W64767  19.066   1.935  14.364
 3479W        W64768   5.931  26.082   2.667
 3480W        W64769  15.159  38.498  12.572
 3481W        W64770  43.340  41.382  12.938
 3482W        W64771  28.066  16.660   0.397
 3483W        W64772  22.716  43.006  10.423
 3484W        W64773  36.926  18.180   3.386
 3485W        W64774  16.725  23.612  14.506
 3486W        W64775  34.007   1.406   3.332
 3487W        W64776  38.966   7.727  14.289
 3488W        W64777  36.399  33.974  12.574
 3489W        W64778  44.451  27.563  12.032
 3490W        W64779   1.439  44.987  14.432
 3491W        W64780  19.163  28.461   2.789
 3492W        W64781  30.953  36.051  14.459
 3493W        W64782  11.292  24.680  11.874
 3494W        W64783  12.333  29.513  11.987
 3495W        W64784  42.838   3.854   1.399
 3496W        W64785  35.894  44.806  11.956
 3497W        W64786  32.557   9.354  14.823
 3498W        W64787   7.804  26.685   0.938
 3499W        W64788  21.130   3.370   2.779
 3500W        W64789   0.450   4.324   0.418
 3501W        W64790  25.092  40.939   4.682
 3502W        W64791  12.159  20.539   1.418
 3503W        W64792  38.532  22.137  10.565
 3504W        W64793   1.756  36.407  11.864
 3505W        W64794  11.651  18.582  11.541
 3506W        W64795  17.303  41.381   2.411
 3507W        W64796  20.539  22.053   1.379
 3508W        W64797  39.051  40.961  13.435
 3509W        W64798  34.916  19.073  11.553
 3510W        W64799  22.716  36.544   3.833
 3511W        W64800  25.701  13.113   0.451
 3512W        W64801  42.834  11.316   2.339
 3513W        W64802  10.314  15.305   1.888
 3514W        W64803  26.488  27.523  14.979
 3515W        W64804  12.685  18.175  14.454
 3516W        W64805  14.609  24.597   3.720
 3517W        W64806  12.802  28.132   0.274
 3518W        W64807   4.402   1.298   3.673
 3519W        W64808  39.384  33.383  10.111
 3520W        W64809  32.613  20.087   0.360
 3521W        W64810  36.567  36.038  13.455
 3522W        W64811   1.285   4.880  10.492
 3523W        W64812  18.168  20.721   0.760
 3524W        W64813  44.422   8.827   1.308
 3525W        W64814  41.362  31.990  13.405
 3526W        W64815  30.518  29.159   0.399
 3527W        W64816  30.066   3.903   1.416
 3528W        W64817   7.276  29.965  14.004
 3529W        W64818  17.164  34.020   2.282
 3530W        W64819  21.728  35.874   2.727
 3531W        W64820   6.341  32.540  10.901
 3532W        W64821  38.564   6.908   2.854
 3533W        W64822  31.520  13.136  12.423
 3534W        W64823  22.128  21.712  10.965
 3535W        W64824  44.786   7.328  11.002
 3536W        W64825  26.627  14.730   5.088
 3537W        W64826   9.157   4.760   1.303
 3538W        W64827  44.802  13.284   0.807
 3539W        W64828  31.902  29.999   1.399
 3540W        W64829  10.287  15.795  14.412
 3541W        W64830  17.708   4.832  13.330
 3542W        W64831  26.153  24.066  12.958
 3543W        W64832  11.167  24.006   3.850
 3544W        W64833  35.872   2.905   3.645
 3545W        W64834  19.093  16.210   2.677
 3546W        W64835  22.682  10.662   3.381
 3547W        W64836   9.159  42.347  14.451
 3548W        W64837  34.375  38.986  12.449
 3549W        W64838  24.032  21.096  11.063
 3550W        W64839  34.454  36.403  14.882
 3551W        W64840  23.637  13.751   2.879
 3552W        W64841  37.879  39.947  13.505
 3553W        W64842   7.187   9.882  11.385
 3554W        W64843  40.397  26.187  12.568
 3555W        W64844  36.994  43.941  11.987
 3556W        W64845  32.548  11.258  14.323
 3557W        W64846  13.308  11.774  13.872
 3558W        W64847  37.981   1.795  14.018
 3559W        W64848  43.337  21.159   4.184
 3560W        W64849  30.134  11.786  12.060
 3561W        W64850   6.709  38.551  11.465
 3562W        W64851  42.809  28.658  11.898
 3563W        W64852  38.066   9.198   3.275
 3564W        W64853  29.952  25.521  13.309
 3565W        W64854  29.944  31.445  10.583
 3566W        W64855  34.573  15.712   3.252
 3567W        W64856   2.277  42.507  11.524
 3568W        W64857  35.391   7.239  13.000
 3569W        W64858  33.980  33.504   3.768
 3570W        W64859  13.658  12.293  13.521
 3571W        W64860  14.201  24.620   2.415
 3572W        W64861  10.334  27.623   3.769
 3573W        W64862   5.917  44.345   1.289
 3574W        W64863   8.888  29.081  12.969
 3575W        W64864  29.108  21.103  12.507
 3576W        W64865  21.738  18.648  13.526
 3577W        W64866  31.433  36.457  10.485
 3578W        W64867  33.980  44.782  12.518
 3579W        W64868  30.070  42.433  14.276
 3580W        W64869  32.888  14.599   1.770
 3581W        W64870  21.718  41.345   1.217
 3582W        W64871  37.902  18.210  12.556
 3583W        W64872  39.557  32.983   0.738
 3584W        W64873  27.964  34.883   1.832
 3585W        W64874   9.868   0.311  13.887
 3586W        W64875  24.145  21.614  14.990
 3587W        W64876  44.329  35.953  10.405
 3588W        W64877  38.443  19.216   4.350
 3589W        W64878  35.375  32.617   0.808
 3590W        W64879  12.274  43.482   1.378
 3591W        W64880  12.260  16.095   1.916
 3592W        W64881  13.188   6.206   3.207
 3593W        W64882  13.640  29.122  14.310
 3594W        W64883  34.512  39.495  14.017
 3595W        W64884  26.983   3.922  14.423
 3596W        W64885  23.603  10.211   2.392
 3597W        W64886   0.380   5.265   4.732
 3598W        W64887  42.796   0.838  12.847
 3599W        W64888  41.895  20.145   2.893
 3600W        W64889  38.898  39.470  12.092
 3601W        W64890  37.086  23.720  12.505
 3602W        W64891   9.389  35.416   3.672
 3603W        W64892  17.299  35.025  12.366
 3604W        W64893  36.497  17.153  13.963
 3605W        W64894   1.346  12.263  13.472
 3606W        W64895  24.589  15.144   2.785
 3607W        W64896  34.059  33.904  14.377
 3608W        W64897   1.423  40.990  11.966
 3609W        W64898  30.492  44.485   0.748
 3610W        W64899  20.527  41.527  14.013
 3611W        W64900  36.354  23.019  11.444
 3612W        W64901  33.609   4.744  13.514
 3613W        W64902  22.699  42.291   2.752
 3614W        W64903  29.015  11.156   4.162
 3615W        W64904  17.295  41.355   0.289
 3616W        W64905  15.755  31.566  12.502
 3617W        W64906  23.183  28.653   1.812
 3618W        W64907   7.207  33.568  10.457
 3619W        W64908  27.519  32.936  14.944
 3620W        W64909  26.053  25.163   3.780
 3621W        W64910  25.971   6.808  12.856
 3622W        W64911   7.861   6.708  14.872
 3623W        W64912  14.334  12.745   3.252
 3624W        W64913  24.594  12.776  12.499
 3625W        W64914  43.867  28.599  11.933
 3626W        W64915   8.863  30.939   2.893
 3627W        W64916   7.681  16.589  12.913
 3628W        W64917  19.712  41.297  10.511
 3629W        W64918  44.415  37.849   0.414
 3630W        W64919  32.414  17.106  11.939
 3631W        W64920  35.965  17.116  13.404
 3632W        W64921  34.018  21.678   2.716
 3633W        W64922  26.004  33.959   2.239
 3634W        W64923  41.457  11.311  11.873
 3635W        W64924  15.220  24.494   3.177
 3636W        W64925   9.850  27.456  11.029
 3637W        W64926  14.750  40.482   2.854
 3638W        W64927  22.572  27.097   4.757
 3639W        W64928  36.398  12.228   2.772
 3640W        W64929  31.128  30.649   4.801
 3641W        W64930  17.073   9.667   3.753
 3642W        W64931   3.337  12.793   3.240
 3643W        W64932  26.547  18.245   4.152
 3644W        W64933   6.245  43.880  12.402
 3645W        W64934  31.069  15.656   2.304
 3646W        W64935  23.092  25.045   1.704
 3647W        W64936  12.166  38.065  14.935
 3648W        W64937   3.839  36.394   0.963
 3649W        W64938  34.411   5.894  13.854
 3650W        W64939  32.046  11.838  10.958
 3651W        W64940  20.610  43.356  13.962
 3652W        W64941  27.506  33.454   1.270
 3653W        W64942   1.943  33.917  12.870
 3654W        W64943  29.143  24.562   2.319
 3655W        W64944  24.630   3.235   1.323
 3656W        W64945  19.046   3.782  12.085
 3657W        W64946  19.268  12.312   4.834
 3658W        W64947  11.161   3.954   4.731
 3659W        W64948  31.457  32.042  10.505
 3660W        W64949  14.179  37.945   3.729
 3661W        W64950   2.244  11.133   2.302
 3662W        W64951   8.655   1.476  11.400
 3663W        W64952  25.026  26.146  12.458
 3664W        W64953  33.990  16.264  12.437
 3665W        W64954  19.151  17.563  12.980
 3666W        W64955  36.443  43.383  14.815
 3667W        W64956  12.224   5.735  13.907
 3668W        W64957  40.805  11.260  12.474
 3669W        W64958  36.514  28.119  13.806
 3670W        W64959  10.352   6.277   5.273
 3671W        W64960  36.007  20.626   2.177
 3672W        W64961   0.301   4.316  11.518
 3673W        W64962  11.832  23.194   1.705
 3674W        W64963  44.372  30.021  10.451
 3675W        W64964  13.229  11.807   2.830
 3676W        W64965  12.325  31.907   1.713
 3677W        W64966  13.690  24.686   1.227
 3678W        W64967   9.778  23.580  10.027
 3679W        W64968  41.355  32.088  12.398
 3680W        W64969  43.809   7.192   3.789
 3681W        W64970   6.347  12.263   1.800
 3682W        W64971   2.827  24.220  14.840
 3683W        W64972   5.802  40.335  11.404
 3684W        W64973  27.103  20.122  12.545
 3685W        W64974   3.911  44.862  13.963
 3686W        W64975  42.029  24.585   1.290
 3687W        W64976  34.462  27.570  11.394
 3688W        W64977   4.743  10.257  13.035
 3689W        W64978  43.865  16.677  12.464
 3690W        W64979  24.659   0.376  14.363
 3691W        W64980   4.773  17.171   1.411
 3692W        W64981  30.417  42.494   2.331
 3693W        W64982  11.696   5.209   4.253
 3694W        W64983   7.762  16.788   2.881
 3695W        W64984  27.521  11.171  10.548
 3696W        W64985  36.463  10.372   5.144
 3697W        W64986  43.465  42.789   0.294
 3698W        W64987  29.005  11.149  13.370
 3699W        W64988  28.167  41.442   2.410
 3700W        W64989  15.686  30.573   0.813
 3701W        W64990  20.095   9.269   3.733
 3702W        W64991  17.733  23.666  14.405
 3703W        W64992  31.996  26.553  12.391
 3704W        W64993  34.422  38.509   4.785
 3705W        W64994  36.876  34.382   2.879
 3706W        W64995   7.324  16.095   0.841
 3707W        W64996  20.064  14.834   1.243
 3708W        W64997  33.613  38.930   3.285
 3709W        W64998   2.800   0.448  14.882
 3710W        W64999   8.226  36.025   1.438
 3711W        W65000  15.818   5.728  13.996
 3712W        W65001  21.542   8.291  11.587
 3713W        W65002  34.490  10.225  10.436
 3714W        W65003  15.128  17.692   3.232
 3715W        W65004  12.775  29.661   1.309
 3716W        W65005  42.937  16.635   4.720
 3717W        W65006  32.611  28.585  14.944
 3718W        W65007  43.327  27.115   4.678
 3719W        W65008  25.676  19.579   3.168
 3720W        W65009  21.589  43.452  12.580
 3721W        W65010  22.100  11.265  12.949
 3722W        W65011   4.830   1.977  11.098
 3723W        W65012  12.723  30.015  14.805
 3724W        W65013  34.974  13.171   1.898
 3725W        W65014  16.671  19.276  13.947
 3726W        W65015  24.095  29.125   3.818
 3727W        W65016  36.866   6.320   0.295
 3728W        W65017  39.479   0.748  10.628
 3729W        W65018   9.740  40.916   2.865
 3730W        W65019   7.335   2.947   3.866
 3731W        W65020  25.612  23.528  12.339
 3732W        W65021   9.213   5.219   1.805
 3733W        W65022   7.246  15.083   1.755
 3734W        W65023  44.936  43.912   1.800
 3735W        W65024  19.780  34.088   2.294
 3736W        W65025  19.648   4.936  12.480
 3737W        W65026  32.989  28.585   3.675
 3738W        W65027  17.620  27.016  12.863
 3739W        W65028  12.614  27.445   0.935
 3740W        W65029  13.208  35.937   3.796
 3741W        W65030  40.977  22.541  14.802
 3742W        W65031   9.755  33.608   2.289
 3743W        W65032   4.313  22.120   9.632
 3744W        W65033  33.408  25.073   0.269
 3745W        W65034  28.962  27.039   0.905
 3746W        W65035  10.868   7.275   3.147
 3747W        W65036   1.897   0.381  14.285
 3748W        W65037  42.890  35.452   4.279
 3749W        W65038  35.545   8.763   2.808
 3750W        W65039  26.619  34.868  11.564
 3751W        W65040  21.098  42.386  14.281
 3752W        W65041   2.320  14.137   1.810
 3753W        W65042  11.740  29.965  12.568
 3754W        W65043  23.707  43.846  11.460
 3755W        W65044  31.043   3.242  11.981
 3756W        W65045  17.694  15.164  13.487
 3757W        W65046  17.718  27.087  12.510
 3758W        W65047  42.916  19.681  12.473
 3759W        W65048   5.905  19.771  14.969
 3760W        W65049   3.459  21.048   3.370
 3761W        W65050  12.203  22.162   0.408
 3762W        W65051  27.594   4.288   4.665
 3763W        W65052  28.086  27.049   4.283
 3764W        W65053  18.544   0.286   3.634
 3765W        W65054  26.146   6.256  12.442
 3766W        W65055   8.777  14.309  14.855
 3767W        W65056   8.844   5.772  12.848
 3768W        W65057  15.153  25.529   2.827
 3769W        W65058  14.671  20.189   0.805
 3770W        W65059  15.754  27.992   4.174
 3771W        W65060  39.900   6.918   0.463
 3772W        W65061  40.515  25.614   2.267
 3773W        W65062   0.856   6.768  14.026
 3774W        W65063  32.107  12.625  13.848
 3775W        W65064   7.776  44.479   3.325
 3776W        W65065  33.115  33.480   0.732
 3777W        W65066  36.842   3.303   4.319
 3778W        W65067   5.320  15.121  11.396
 3779W        W65068  42.408   4.304  11.954
 3780W        W65069   8.724  25.580  10.135
 3781W        W65070  31.462   7.885   1.739
 3782W        W65071   9.840  34.961  13.321
 3783W        W65072   9.863  27.166   0.287
 3784W        W65073  12.245  25.195  11.098
 3785W        W65074  15.099  27.086  14.957
 3786W        W65075  29.072  37.070   1.413
 3787W        W65076  27.117   9.838   4.597
 3788W        W65077  38.860   2.891  13.534
 3789W        W65078  27.553  35.415   2.764
 3790W        W65079  31.121  16.791  10.113
 3791W        W65080  37.461  40.306   1.832
 3792W        W65081  31.934  44.989  13.477
 3793W        W65082  29.050  27.120  13.435
 3794W        W65083  36.486  19.720  11.538
 3795W        W65084  29.048  16.299  13.431
 3796W        W65085  43.789  14.260  13.384
 3797W        W65086  16.776  17.745  13.052
 3798W        W65087  22.218  25.662  13.440
 3799W        W65088  21.027   1.348   1.414
 3800W        W65089  34.991  30.520   3.688
 3801W        W65090  28.560  26.183  14.979
 3802W        W65091  39.318  39.334  12.405
 3803W        W65092  44.444  20.130  14.980
 3804W        W65093  37.538  40.020  12.507
 3805W        W65094   8.176  16.146   4.742
 3806W        W65095  33.531  39.438   2.846
 3807W        W65096  44.848  31.897  14.979
 3808W        W65097  34.388  10.335  11.950
 3809W        W65098  26.187  22.060  13.345
 3810W        W65099  14.160   7.836  11.040
 3811W        W65100  25.579  35.511  11.525
 3812W        W65101   4.890  19.633  11.590
 3813W        W65102  26.091  41.476   3.714
 3814W        W65103   9.727  16.683  11.947
 3815W        W65104  42.787  17.629  11.964
 3816W        W65105  18.595  41.459   2.388
 3817W        W65106   8.770   5.254   1.797
 3818W        W65107  38.955   3.800   4.703
 3819W        W65108  33.552   1.291  13.934
 3820W        W65109   1.754  33.034  13.906
 3821W        W65110  36.073  25.087  14.952
 3822W        W65111  32.999   1.856   0.386
 3823W        W65112  28.535  37.957  11.596
 3824W        W65113  41.528   3.897   0.456
 3825W        W65114  43.988  12.359  10.130
 3826W        W65115  22.503  41.383   2.704
 3827W        W65116  19.566  34.444   2.343
 3828W        W65117   4.810  25.531  11.547
 3829W        W65118   1.921  39.395   2.329
 3830W        W65119  18.547  32.015   1.782
 3831W        W65120  36.954  17.582   5.686
 3832W        W65121  35.460   6.341   4.802
 3833W        W65122  21.231   6.907   1.373
 3834W        W65123  12.251  25.188   1.386
 3835W        W65124  17.650  25.542   2.187
 3836W        W65125  17.274  40.915   1.385
 3837W        W65126  30.430  39.331   3.801
 3838W        W65127  20.099  25.565  13.865
 3839W        W65128  39.029  41.839   9.951
 3840W        W65129   0.317   7.401   4.150
 3841W        W65130  35.061   3.885  12.843
 3842W        W65131  25.032  13.693   1.694
 3843W        W65132  44.936   6.306  10.632
 3844W        W65133  32.126  26.460  11.467
 3845W        W65134  22.629  14.656   1.261
 3846W        W65135  31.939  26.691  14.339
 3847W        W65136  23.127  27.676  11.969
 3848W        W65137   6.918  26.182  13.808
 3849W        W65138  17.675  41.935  10.582
 3850W        W65139  20.556  17.597  10.448
 3851W        W65140  20.693  29.480  13.828
 3852W        W65141   6.901  24.612   3.871
 3853W        W65142  10.807  27.990  14.319
 3854W        W65143  20.102  34.911  14.917
 3855W        W65144  15.234  33.487  12.030
 3856W        W65145  44.950  34.505   2.739
 3857W        W65146  14.184  13.764  10.416
 3858W        W65147  39.469  14.731   2.808
 3859W        W65148   6.698  36.442  14.395
 3860W        W65149  29.492  22.194  11.069
 3861W        W65150   8.345  42.384  14.793
 3862W        W65151  13.666  21.134  13.927
 3863W        W65152   0.335  34.368   4.598
 3864W        W65153   8.243  15.758  13.331
 3865W        W65154   8.896  30.425  10.413
 3866W        W65155   4.751  15.703  14.829
 3867W        W65156  36.581  11.290  13.966
 3868W        W65157  16.706  34.894   0.738
 3869W        W65158  31.535   3.390  14.015
 3870W        W65159  44.456   9.190   0.325
 3871W        W65160   1.429  12.659   0.882
 3872W        W65161  24.673  32.995  14.022
 3873W        W65162  16.788  19.125   3.848
 3874W        W65163  42.398  20.578  14.937
 3875W        W65164   8.861   9.169   3.154
 3876W        W65165  39.428  10.339  14.912
 3877W        W65166  24.016  10.650  10.596
 3878W        W65167  29.475   1.894   5.148
 3879W        W65168   8.722   9.190   2.236
 3880W        W65169   5.737  38.951   2.319
 3881W        W65170  20.526  32.965  13.021
 3882W        W65171  14.596   5.898   4.651
 3883W        W65172  36.354   9.791  11.999
 3884W        W65173   5.377  27.505   1.329
 3885W        W65174  41.427   7.851   3.838
 3886W        W65175  28.458  27.572  11.032
 3887W        W65176  23.132  22.186   2.718
 3888W        W65177  21.078  25.624   3.267
 3889W        W65178  31.607   6.723   0.849
 3890W        W65179  28.018   1.281   2.201
 3891W        W65180  20.591  44.364   1.258
 3892W        W65181  32.105  30.459   1.248
 3893W        W65182   3.254   8.699   4.236
 3894W        W65183  25.110   5.882   0.322
 3895W        W65184   5.815  35.005   4.192
 3896W        W65185  40.401   1.424   2.879
 3897W        W65186   7.373  10.817   2.683
 3898W        W65187  35.929   7.801  11.008
 3899W        W65188  26.016  21.205   0.966
 3900W        W65189  43.456   0.981   3.303
 3901W        W65190  36.377  18.753  14.360
 3902W        W65191  31.051  20.639   2.705
 3903W        W65192  39.328  13.179  12.401
 3904W        W65193  20.088  26.016   1.812
 3905W        W65194  22.599  17.568  11.066
 3906W        W65195  41.527  12.204   3.254
 3907W        W65196  22.646  44.910  14.309
 3908W        W65197   7.682  21.119   1.785
 3909W        W65198   8.857   3.918   3.692
 3910W        W65199   5.889  18.267   1.288
 3911W        W65200  10.714  12.287  14.310
 3912W        W65201  21.561  20.710   2.400
 3913W        W65202  40.350  34.086   0.326
 3914W        W65203  30.115  13.187  11.490
 3915W        W65204  39.389  31.081  10.435
 3916W        W65205  38.986  10.853  10.501
 3917W        W65206  38.357   8.737   0.257
 3918W        W65207  12.823  23.178   4.804
 3919W        W65208  12.808  23.533  14.857
 3920W        W65209  37.990  12.131  14.479
 3921W        W65210  24.156  18.191  13.332
 3922W        W65211  11.628  42.345  12.064
 3923W        W65212  37.564  12.677  12.486
 3924W        W65213  16.194  33.612   2.182
 3925W        W65214  16.620  15.739   0.890
 3926W        W65215  13.274  30.602  10.595
 3927W        W65216  18.162   7.864   0.252
 3928W        W65217  18.232   8.354  12.373
 3929W        W65218   6.814  23.191   1.242
 3930W        W65219  36.434  39.464   2.816
 3931W        W65220  38.850  15.642   4.689
 3932W        W65221  40.520  42.823  10.004
 3933W        W65222  20.674   6.761   4.212
 3934W        W65223  43.988  12.184   1.762
 3935W        W65224  34.116  13.256  14.337
 3936W        W65225  33.438  29.085  14.433
 3937W        W65226  32.621  44.979  13.038
 3938W        W65227   8.734  42.782  13.918
 3939W        W65228  13.789  25.170   1.270
 3940W        W65229  21.039  20.641   3.859
 3941W        W65230   1.897   3.447   1.317
 3942W        W65231  17.306   2.360   4.635
 3943W        W65232  22.535  40.986   3.824
 3944W        W65233  35.956  24.651  12.518
 3945W        W65234   3.910  31.001   0.334
 3946W        W65235  20.065  36.455  11.506
 3947W        W65236  39.521  30.938  12.445
 3948W        W65237   8.819  39.925   0.410
 3949W        W65238   4.702  18.565  13.380
 3950W        W65239  41.520  10.268  14.822
 3951W        W65240  13.762  22.699  12.905
 3952W        W65241  26.571   2.439  14.398
 3953W        W65242  38.931  33.885  12.468
 3954W        W65243   5.841  22.038  12.095
 3955W        W65244  22.154  22.545   1.361
 3956W        W65245  18.084   9.161  13.863
 3957W        W65246  32.507  33.899  12.996
 3958W        W65247  31.080   3.231  11.589
 3959W        W65248  13.739  23.044  12.578
 3960W        W65249  38.945   5.818   2.739
 3961W        W65250  44.854  37.530   1.419
 3962W        W65251  28.510   3.227  11.039
 3963W        W65252  26.663  42.880   2.882
 3964W        W65253  32.942  32.906  11.084
 3965W        W65254  38.018  29.161  11.413
 3966W        W65255   0.270  26.993  12.867
 3967W        W65256   5.356  44.356  11.414
 3968W        W65257  19.053   3.868   3.789
 3969W        W65258  14.207  10.781   0.902
 3970W        W65259  21.046   7.682  12.350
 3971W        W65260  41.536  25.693   2.781
 3972W        W65261  16.602  38.066  14.887
 3973W        W65262  44.946  19.171  12.972
 3974W        W65263  37.830  34.483   3.667
 3975W        W65264  21.167  42.516  10.577
 3976W        W65265   0.825  42.319  11.392
 3977W        W65266   8.317  10.318  12.385
 3978W        W65267   8.217   8.192   2.780
 3979W        W65268   6.326  24.141   3.176
 3980W        W65269  38.950  22.040   1.345
 3981W        W65270  42.998  16.705   4.230
 3982W        W65271   8.803  20.714  11.601
 3983W        W65272  21.755  16.730   3.239
 3984W        W65273   0.972   2.453   3.779
 3985W        W65274   4.942  22.519  11.036
 3986W        W65275   0.961   4.857   4.601
 3987W        W65276  28.960  29.136  11.104
 3988W        W65277  43.835  41.337   3.320
 3989W        W65278  24.161  16.790  10.951
 3990W        W65279  12.644  24.000  11.472
 3991W        W65280  10.719  19.128   1.448
 3992W        W65281  40.548  13.661   0.326
 3993W        W65282  12.166  12.249  14.862
 3994W        W65283  21.137  36.397  14.788
 3995W        W65284   9.723   4.405   1.732
 3996W        W65285  28.581   1.739  13.349
 3997W        W65286  25.539  20.229  13.341
 3998W        W65287  44.469  12.751   3.866
 3999W        W65288   4.230   2.310  11.593
 4000W        W65289  38.547  37.990  13.350
 4001W        W65290  34.489   6.232  14.499
 4002W        W65291  16.773   2.273   2.365
 4003W        W65292  36.863  21.206  10.061
 4004W        W65293   3.799  14.331  10.149
 4005W        W65294   5.199  24.172   1.759
 4006W        W65295  17.074  26.105   3.844
 4007W        W65296  20.121   4.245  11.557
 4008W        W65297  10.186  34.373  10.416
 4009W        W65298  16.164  24.495   2.293
 4010W        W65299  34.423   8.167   3.349
 4011W        W65300   8.749  37.368  11.875
 4012W        W65301  42.842  18.096   3.221
 4013W        W65302   0.258  21.214  11.118
 4014W        W65303  37.437   0.492  14.921
 4015W        W65304   4.858  27.136   3.173
 4016W        W65305  13.306  22.517   2.331
 4017W        W65306  39.035  23.568  13.346
 4018W        W65307  39.897  31.439   0.334
 4019W        W65308  15.259  38.440  13.853
 4020W        W65309  36.050   1.425   2.775
 4021W        W65310   7.876  33.619   1.901
 4022W        W65311  15.182  44.437   0.817
 4023W        W65312  20.269  44.809   4.831
 4024W        W65313  33.392  40.844   4.716
 4025W        W65314  33.389  14.625   4.322
 4026W        W65315   1.369   1.483  10.502
 4027W        W65316  37.053  32.444  13.496
 4028W        W65317  26.611  34.425   2.403
 4029W        W65318  40.930  11.231   1.885
 4030W        W65319  17.742  30.134   4.837
 4031W        W65320  26.549  16.727   4.760
 4032W        W65321  28.508  41.469  14.893
 4033W        W65322  21.604  19.638  14.386
 4034W        W65323   1.237  29.497  12.885
 4035W        W65324  23.034  29.934  14.499
 4036W        W65325  34.112  43.441  13.493
 4037W        W65326  19.548  35.857  11.457
 4038W        W65327  36.528  18.214   2.873
 4039W        W65328  22.605   9.247   2.288
 4040W        W65329  28.936  38.509   0.459
 4041W        W65330  44.969   4.729   2.418
 4042W        W65331  20.602  32.900  13.484
 4043W        W65332  40.982  13.288  13.378
 4044W        W65333  29.094   8.352  11.010
 4045W        W65334   9.387  29.103   3.662
 4046W        W65335   6.372  35.104  12.563
 4047W        W65336  35.516   4.408   0.950
 4048W        W65337   9.152  41.404  14.468
 4049W        W65338  21.183  28.124   1.319
 4050W        W65339  31.032  13.324   3.731
 4051W        W65340  38.958  12.246  12.934
 4052W        W65341   7.269  42.428  14.015
 4053W        W65342  40.495  23.102  12.390
 4054W        W65343  15.234  23.090  10.150
 4055W        W65344  19.240   2.752  14.499
 4056W        W65345  20.230  42.294   2.241
 4057W        W65346  23.577  13.781   3.296
 4058W        W65347  43.767  25.506   3.679
 4059W        W65348  19.576  42.394  14.933
 4060W        W65349   4.892  35.409   1.311
 4061W        W65350   2.304   5.288   1.378
 4062W        W65351  29.505  39.475  14.004
 4063W        W65352  39.819  24.584   3.855
 4064W        W65353  18.220  24.050   1.762
 4065W        W65354   6.850   4.724  10.901
 4066W        W65355  29.554  36.039   1.789
 4067W        W65356   5.794   4.849  13.841
 4068W        W65357  23.502  20.177   4.207
 4069W        W65358  13.836   5.428   2.343
 4070W        W65359  24.599   1.368  11.899
 4071W        W65360  13.668  35.375  11.601
 4072W        W65361  43.272  35.870  13.520
 4073W        W65362  29.959  34.464  11.439
 4074W        W65363  22.624  14.140  11.124
 4075W        W65364  10.809   9.731  12.464
 4076W        W65365  13.772  34.866  12.537
 4077W        W65366  26.700  18.124   0.869
 4078W        W65367  10.700  26.482  14.856
 4079W        W65368  27.022  41.006  14.774
 4080W        W65369   9.881  31.979  14.924
 4081W        W65370  22.246  44.343  10.450
 4082W        W65371   4.242  44.259  11.049
 4083W        W65372  30.436  10.303   3.341
 4084W        W65373  29.021  23.724  13.343
 4085W        W65374  22.728  34.890  11.386
 4086W        W65375  27.492  12.798   4.827
 4087W        W65376  27.555   2.786   1.784
 4088W        W65377   1.886   8.768   0.314
 4089W        W65378  13.738  34.066  11.444
 4090W        W65379  42.847  32.076   1.435
 4091W        W65380  44.004  23.103  14.435
 4092W        W65381  15.168  23.574  10.548
 4093W        W65382   8.167  10.285   2.216
 4094W        W65383  31.514  37.336  10.976
 4095W        W65384  20.635  34.068  10.924
 4096W        W65385  22.661  25.697   0.371
 4097W        W65386  24.563  11.221   9.975
 4098W        W65387  37.053   9.752  13.528
 4099W        W65388  23.991  10.229   4.716
 4100W        W65389  35.467  14.661  13.025
 4101W        W65390   9.385   4.784   4.792
 4102W        W65391  26.468  24.197  13.542
 4103W        W65392  38.522  10.288  12.030
 4104W        W65393  35.571  40.978   1.775
 4105W        W65394   7.171  43.287   4.144
 4106W        W65395   5.910  28.475  13.806
 4107W        W65396  36.452  36.398  11.900
 4108W        W65397  37.875  44.933   2.319
 4109W        W65398   0.799   8.819   0.401
 4110W        W65399   3.272  41.477  11.527
 4111W        W65400   7.890   2.448  12.555
 4112W        W65401  32.609  17.623   0.773
 4113W        W65402  22.182   6.855   4.624
 4114W        W65403  17.686   4.757   2.303
 4115W        W65404  12.629  21.690  11.493
 4116W        W65405  34.483  37.033  12.948
 4117W        W65406  13.660  33.940  10.548
 4118W        W65407  26.037  43.411   0.787
 4119W        W65408  20.532  24.547   2.407
 4120W        W65409  24.084   0.743  10.983
 4121W        W65410  12.119  43.845  13.051
 4122W        W65411  33.991  15.786  12.538
 4123W        W65412  18.552  19.620   1.446
 4124W        W65413  43.477  22.729  12.470
 4125W        W65414  17.215  36.564   0.929
 4126W        W65415   4.872  29.503  14.985
 4127W        W65416  20.198  44.833   1.843
 4128W        W65417  19.770   1.970  14.852
 4129W        W65418  41.843   8.403   2.257
 4130W        W65419  41.426  42.518  11.560
 4131W        W65420  15.598  26.133   3.284
 4132W        W65421  29.558  33.092   3.222
 4133W        W65422  22.518  37.867  14.900
 4134W        W65423  14.147  26.193   1.315
 4135W        W65424   7.684   7.362  11.092
 4136W        W65425  26.555  19.049  14.986
 4137W        W65426  27.955   0.414  12.915
 4138W        W65427  20.052  28.092   4.723
 4139W        W65428  20.262   9.362  13.973
 4140W        W65429   8.336  43.902   2.277
 4141W        W65430  17.135  19.745   3.855
 4142W        W65431   1.439  35.026  11.386
 4143W        W65432  13.800  42.338  11.063
 4144W        W65433  38.467  30.417   3.773
 4145W        W65434  34.491  14.643  10.495
 4146W        W65435  35.428   7.413   0.834
 4147W        W65436  39.362  23.150   0.910
 4148W        W65437  41.304   5.740   1.703
 4149W        W65438  38.070  24.715   1.402
 4150W        W65439  21.552   0.333  12.446
 4151W        W65440  30.607  40.459  14.010
 4152W        W65441  39.493  23.605   1.912
 4153W        W65442  16.638   9.813   3.298
 4154W        W65443  16.787  31.128  11.542
 4155W        W65444   2.869  27.150  14.383
 4156W        W65445  12.128  25.144  12.364
 4157W        W65446  32.074  15.132   1.427
 4158W        W65447  21.262  25.094   1.359
 4159W        W65448  38.527   0.835   4.257
 4160W        W65449  25.673  30.631   4.693
 4161W        W65450   0.419   9.369  12.339
 4162W        W65451  31.113   8.720  13.370
 4163W        W65452   9.643   5.347  13.309
 4164W        W65453  26.079  43.825   3.278
 4165W        W65454  11.255  31.001   1.816
 4166W        W65455  12.612   0.250  11.503
 4167W        W65456  13.617   7.373   1.933
 4168W        W65457  43.937  28.128  11.913
 4169W        W65458  20.150  26.066  14.511
 4170W        W65459   9.298  27.108   1.782
 4171W        W65460  12.624  38.037  10.904
 4172W        W65461  11.837   2.931   0.345
 4173W        W65462   5.889  16.212   1.406
 4174W        W65463  33.115  14.309  10.411
 4175W        W65464  24.490  38.569   2.359
 4176W        W65465  14.807  12.254   2.318
 4177W        W65466  37.843  20.646   0.336
 4178W        W65467  35.045  11.815   4.779
 4179W        W65468  15.190   7.275   0.403
 4180W        W65469   9.171  26.514  12.943
 4181W        W65470  40.356  23.603   1.741
 4182W        W65471  12.680   1.287   0.920
 4183W        W65472  44.772  14.746   4.298
 4184W        W65473  42.914  43.791   0.759
 4185W        W65474  39.060  20.138   1.850
 4186W        W65475  10.313  18.164  11.084
 4187W        W65476  11.847  42.342   3.772
 4188W        W65477  10.165  11.244  12.940
 4189W        W65478  29.001  41.334   0.315
 4190W        W65479   7.833   7.290   3.700
 4191W        W65480  22.640   7.846   1.334
 4192W        W65481   1.284   6.382  10.965
 4193W        W65482  26.627  40.846   0.790
 4194W        W65483  44.956  33.524   1.787
 4195W        W65484  15.217  40.033   4.711
 4196W        W65485   0.750  30.019   1.266
 4197W        W65486  14.103  43.775  13.513
 4198W        W65487   6.733  12.286   3.227
 4199W        W65488   8.371  43.941   3.346
 4200W        W65489  36.035  35.918   3.781
 4201W        W65490   3.220   4.807   0.824
 4202W        W65491  19.199  15.251  14.303
 4203W        W65492  41.022  36.499   1.801
 4204W        W65493   6.370  39.902   1.264
 4205W        W65494  27.509  26.559   4.795
 4206W        W65495  15.183  25.109   4.125
 4207W        W65496  13.231  29.616  14.456
 4208W        W65497  23.154  42.804  14.315
 4209W        W65498  23.988  40.314  13.928
 4210W        W65499  37.066  22.723  10.587
 4211W        W65500  25.162  20.523  13.495
 4212W        W65501  37.545  28.591   4.644
 4213W        W65502  12.798  13.217   0.735
 4214W        W65503  16.620   3.338  13.421
 4215W        W65504  33.911  12.849  11.546
 4216W        W65505  13.196  20.260  12.837
 4217W        W65506  35.929  42.890  13.458
 4218W        W65507  40.894  31.141   4.349
 4219W        W65508   5.308  12.239   1.729
 4220W        W65509  27.132  12.147   1.752
 4221W        W65510   7.786   1.392   3.193
 4222W        W65511  29.587  38.863   5.239
 4223W        W65512  33.954  11.170   1.427
 4224W        W65513  33.935  23.672  14.455
 4225W        W65514  43.883  35.556   3.292
 4226W        W65515   3.850  37.487  11.511
 4227W        W65516  24.683   1.417   4.618
 4228W        W65517  11.314  13.677  12.002
 4229W        W65518  21.066  16.270   0.894
 4230W        W65519   6.285  39.480   3.738
 4231W        W65520  43.903  18.778   4.293
 4232W        W65521  42.031   9.269  14.500
 4233W        W65522   3.916  36.978  11.940
 4234W        W65523  30.449  24.507   1.401
 4235W        W65524   0.262  44.271   3.197
 4236W        W65525  18.675  26.992   4.257
 4237W        W65526  17.277  27.094  10.448
 4238W        W65527  36.937  17.261   0.377
 4239W        W65528  15.227  26.588  10.622
 4240W        W65529  22.612  14.711  12.491
 4241W        W65530   2.941  11.298   2.874
 4242W        W65531  31.000  34.941  13.917
 4243W        W65532  12.173   1.820  13.455
 4244W        W65533   5.917  35.923   1.436
 4245W        W65534  23.696  44.869  14.497
 4246W        W65535  25.655  37.413   0.869
 4247W        W65536  36.440  42.462   1.895
 4248W        W65537  32.513   0.258  11.458
 4249W        W65538  33.555   0.267   1.361
 4250W        W65539   4.204  24.487   5.246
 4251W        W65540  19.742   8.761  11.917
 4252W        W65541  10.754  16.207  11.050
 4253W        W65542  29.949  35.518  12.962
 4254W        W65543  12.768  41.343  13.003
 4255W        W65544  14.623  22.116  12.396
 4256W        W65545  38.854   8.883  11.514
 4257W        W65546  42.795  36.381  11.380
 4258W        W65547  25.146   0.261  10.493
 4259W        W65548  30.544  29.604   1.342
 4260W        W65549   4.850  11.850   3.702
 4261W        W65550  39.023  30.978  10.974
 4262W        W65551  28.071  15.253  14.858
 4263W        W65552  31.645  35.105  10.629
 4264W        W65553  25.078  17.065  11.978
 4265W        W65554   3.927  10.298   2.796
 4266W        W65555  21.720  21.244  13.886
 4267W        W65556  15.160  25.116  12.358
 4268W        W65557  27.185  23.711  11.984
 4269W        W65558   2.288   4.858   1.720
 4270W        W65559  17.772  24.162   2.894
 4271W        W65560  16.126  44.807  14.400
 4272W        W65561  23.114   5.395   2.683
 4273W        W65562  16.292   7.736   4.311
 4274W        W65563  16.725  28.460  12.037
 4275W        W65564  35.530   2.954  11.937
 4276W        W65565  27.956  29.923  14.402
 4277W        W65566   4.403  18.592  11.383
 4278W        W65567  22.502  42.511  11.935
 4279W        W65568  41.939  21.512  12.847
 4280W        W65569  20.101  44.309   0.265
 4281W        W65570  39.006  19.096  13.925
 4282W        W65571   5.753  18.593  11.121
 4283W        W65572   1.416   0.944  11.988
 4284W        W65573  44.370  44.430  10.433
 4285W        W65574  44.979  28.467  12.970
 4286W        W65575  11.277  32.975  12.040
 4287W        W65576  32.462   3.414   1.789
 4288W        W65577  34.379  19.620  12.485
 4289W        W65578  25.034  16.281  14.398
 4290W        W65579  23.166  22.061  14.770
 4291W        W65580  28.025  35.506   4.132
 4292W        W65581  40.548  37.943   4.230
 4293W        W65582   4.801  34.952   3.363
 4294W        W65583  22.017  28.956   0.878
 4295W        W65584  13.667  11.275  11.124
 4296W        W65585  41.810  32.432  12.060
 4297W        W65586   3.819  30.431  10.888
 4298W        W65587  17.744  22.610  14.300
 4299W        W65588  37.502  30.112  12.073
 4300W        W65589   6.406  12.824   9.929
 4301W        W65590   2.429  28.940   2.188
 4302W        W65591  26.069  24.987  12.094
 4303W        W65592   2.374  29.034  11.579
 4304W        W65593  24.075  42.494   3.336
 4305W        W65594   2.319  10.192  12.966
 4306W        W65595  25.024  29.518   5.138
 4307W        W65596  43.492  21.195   4.710
 4308W        W65597  25.057  24.103  11.999
 4309W        W65598   8.218  11.186  12.092
 4310W        W65599  34.911  41.390  12.504
 4311W        W65600   4.927   3.884  12.095
 4312W        W65601  41.537   7.759  11.986
 4313W        W65602  14.700   3.864   5.688
 4314W        W65603  37.979  20.632   1.767
 4315W        W65604   3.785  15.097   0.455
 4316W        W65605  43.844   1.387  13.864
 4317W        W65606  38.356  34.994   2.216
 4318W        W65607  31.078   6.363  10.427
 4319W        W65608  33.489   2.795  14.317
 4320W        W65609  21.711  19.072  11.087
 4321W        W65610  27.113  18.131   2.889
 4322W        W65611  39.053  15.184  13.922
 4323W        W65612  32.899   1.790   3.667
 4324W        W65613  43.892  20.126   0.889
 4325W        W65614  37.396  25.584   3.704
 4326W        W65615  25.011  40.843   3.277
 4327W        W65616  36.514  38.515  14.003
 4328W        W65617   9.862  34.077  13.920
 4329W        W65618   8.321  16.573   3.293
 4330W        W65619  36.880  13.151  14.486
 4331W        W65620  44.265   0.827  14.005
 4332W        W65621  33.116  32.495  12.513
 4333W        W65622  43.272  13.762   1.845
 4334W        W65623  11.667   6.824  11.497
 4335W        W65624  39.951   0.253   4.311
 4336W        W65625  23.021   4.319  10.905
 4337W        W65626  38.410  32.409   3.371
 4338W        W65627  20.090  13.279   0.962
 4339W        W65628  43.983  26.616   3.317
 4340W        W65629  28.552  15.216   2.323
 4341W        W65630  24.071  34.431  11.007
 4342W        W65631  38.877   5.904   0.292
 4343W        W65632  41.330  10.705  12.939
 4344W        W65633   3.424  10.718   1.400
 4345W        W65634  15.701   5.234   3.331
 4346W        W65635   2.285  17.132   3.865
 4347W        W65636  33.577  38.851   4.653
 4348W        W65637   2.278  31.646   0.392
 4349W        W65638   4.232  22.998   1.409
 4350W        W65639  15.227   7.743   4.791
 4351W        W65640   6.305  38.541   2.278
 4352W        W65641  34.867  16.718  10.418
 4353W        W65642   7.273  30.909   3.672
 4354W        W65643  43.331   1.375  11.477
 4355W        W65644  25.631  44.278   1.803
 4356W        W65645  33.392  30.634   1.216
 4357W        W65646   9.256  14.687   4.637
 4358W        W65647   4.811  15.307   2.766
 4359W        W65648  26.173  35.389   1.914
 4360W        W65649  43.293  33.002  13.402
 4361W        W65650   2.279  30.461   1.772
 4362W        W65651   4.887   3.792   4.646
 4363W        W65652  34.917   6.706  14.864
 4364W        W65653  39.426  30.652   4.136
 4365W        W65654   5.811  44.999   2.821
 4366W        W65655  22.068   9.297  10.429
 4367W        W65656  34.391  15.142  11.930
 4368W        W65657  24.991  19.277  13.973
 4369W        W65658  39.366  25.972   1.277
 4370W        W65659  38.377  25.130   3.159
 4371W        W65660   5.344  25.517  13.820
 4372W        W65661  33.886  41.301   3.304
 4373W        W65662  13.137  24.594   3.258
 4374W        W65663  43.425  24.100  14.285
 4375W        W65664  27.062  14.131  13.013
 4376W        W65665  35.089  33.970   1.399
 4377W        W65666   4.309  29.598  14.970
 4378W        W65667  41.004  14.162  12.462
 4379W        W65668  14.278  15.133   2.722
 4380W        W65669  37.529   0.820  10.636
 4381W        W65670  16.090  32.581  12.463
 4382W        W65671  37.060  38.892   3.341
 4383W        W65672  26.175  30.622  13.456
 4384W        W65673  19.698  18.689  10.438
 4385W        W65674  27.453  39.379  10.984
 4386W        W65675  43.953  43.859  11.471
 4387W        W65676  27.664  22.695  10.434
 4388W        W65677  30.512  12.225   1.220
 4389W        W65678  22.111  12.318  12.015
 4390W        W65679   0.976  38.338   1.394
 4391W        W65680   8.870  35.571  14.396
 4392W        W65681  10.639  20.153   1.319
 4393W        W65682  44.323  14.198   1.239
 4394W        W65683   8.842  37.987  14.984
 4395W        W65684   3.417  27.942   0.418
 4396W        W65685   2.338  28.535  10.641
 4397W        W65686  42.930   1.307   4.811
 4398W        W65687  21.520   1.828   4.642
 4399W        W65688  37.967   2.309   4.192
 4400W        W65689  34.542  35.525   3.856
 4401W        W65690  38.489   2.767   1.731
 4402W        W65691  19.179  17.083   4.711
 4403W        W65692   6.320  31.128  13.044
 4404W        W65693   2.774  21.030   2.690
 4405W        W65694  29.039   2.815   4.313
 4406W        W65695   5.812  40.338   4.759
 4407W        W65696  23.134   8.309   3.816
 4408W        W65697  10.822  29.029   4.228
 4409W        W65698  22.733  18.616   4.664
 4410W        W65699  32.950  12.293   3.688
 4411W        W65700  32.090  38.871  14.304
 4412W        W65701  42.491  19.103  11.934
 4413W        W65702   7.729  30.595   0.470
 4414W        W65703  25.605   1.428  11.499
 4415W        W65704  14.107   7.245   1.410
 4416W        W65705  42.799  27.008   1.905
 4417W        W65706  19.157  18.137  11.590
 4418W        W65707   8.668   7.700  11.416
 4419W        W65708  38.901  15.084  12.035
 4420W        W65709  12.650  28.964   0.843
 4421W        W65710  18.764  43.277  11.905
 4422W        W65711  32.506  42.362  12.350
 4423W        W65712  15.696  12.788   4.274
 4424W        W65713  27.987  21.078   2.295
 4425W        W65714  28.099   7.705   2.822
 4426W        W65715  25.124  21.028  11.928
 4427W        W65716  17.141  15.639  14.343
 4428W        W65717  40.915   8.334  12.918
 4429W        W65718  36.526  37.356   0.483
 4430W        W65719   4.872  22.519   2.883
 4431W        W65720  30.975  19.761   3.784
 4432W        W65721  21.162   9.817   4.767
 4433W        W65722  41.834   7.817  12.569
 4434W        W65723  27.109  17.623   2.755
 4435W        W65724   3.924  28.037  14.879
 4436W        W65725  10.217  40.967   3.723
 4437W        W65726  26.130   0.910  10.934
 4438W        W65727  31.534   6.700   1.873
 4439W        W65728  16.262  30.489   2.358
 4440W        W65729   6.812  24.009  14.970
 4441W        W65730  13.327   7.797  12.825
 4442W        W65731  43.421   1.910  13.953
 4443W        W65732   3.843  36.426   4.696
 4444W        W65733  21.226   1.871  11.428
 4445W        W65734  23.720  31.103  12.473
 4446W        W65735  38.986  18.783   0.951
 4447W        W65736  28.644  16.727   0.295
 4448W        W65737  24.012  25.554   2.406
 4449W        W65738  22.090  23.640   2.855
 4450W        W65739  15.140  18.089   2.225
 4451W        W65740  37.912   9.801   1.761
 4452W        W65741  40.357  29.510   1.916
 4453W        W65742  40.865  30.100   2.792
 4454W        W65743  38.409   6.689   1.700
 4455W        W65744  22.530  23.541  12.881
 4456W        W65745  32.958  16.800   4.202
 4457W        W65746  18.247  37.040   3.732
 4458W        W65747   6.771  40.456  14.815
 4459W        W65748  31.420  31.501   1.436
 4460W        W65749  10.674  16.679  13.860
 4461W        W65750  44.780  37.978   2.374
 4462W        W65751  32.475  39.324   2.318
 4463W        W65752  27.068  18.276   4.258
 4464W        W65753  39.062   1.294  10.977
 4465W        W65754  20.545  27.035   4.637
 4466W        W65755  21.061  40.828  10.455
 4467W        W65756  28.620  32.429   4.663
 4468W        W65757   7.872  20.662  14.406
 4469W        W65758   5.855  11.813  14.028
 4470W        W65759  36.473  23.654  10.543
 4471W        W65760   5.394  42.364   4.622
 4472W        W65761   1.737   1.251  12.084
 4473W        W65762  35.436  21.722  10.898
 4474W        W65763  44.262  15.269  13.037
 4475W        W65764   8.246  37.080   3.160
 4476W        W65765  34.495  34.059   1.847
 4477W        W65766   4.356   2.942   1.784
 4478W        W65767  11.758  15.609   2.418
 4479W        W65768  11.208  17.763   2.878
 4480W        W65769  34.986   2.921  12.002
 4481W        W65770  21.129  40.908   1.850
 4482W        W65771  15.638  33.946   0.379
 4483W        W65772  25.520  18.666  13.340
 4484W        W65773  26.466  14.143   2.843
 4485W        W65774  16.171  41.478   2.347
 4486W        W65775  26.983  33.398   3.705
 4487W        W65776   0.369  11.286  13.002
 4488W        W65777  29.946  12.770   1.898
 4489W        W65778  44.909  28.156   1.288
 4490W        W65779  29.585  12.781  14.389
 4491W        W65780   4.339  20.690   1.864
 4492W        W65781  27.610  12.716   2.336
 4493W        W65782   7.786   0.976  13.387
 4494W        W65783  25.209  18.216   0.961
 4495W        W65784  11.249  28.470  11.537
 4496W        W65785  25.190  14.109   5.182
 4497W        W65786  20.263   5.696   4.209
 4498W        W65787  35.588  16.124  11.015
 4499W        W65788  34.436  33.392   4.644
 4500W        W65789   6.900  20.262  12.064
 4501W        W65790  27.512   4.325  12.449
 4502W        W65791  19.057   8.835  14.984
 4503W        W65792  28.179  33.548   4.698
 4504W        W65793  24.194  16.735   2.225
 4505W        W65794  37.441   7.903   5.267
 4506W        W65795   7.822  11.184   0.949
 4507W        W65796  25.107  35.563   2.182
 4508W        W65797  18.248  43.304  11.033
 4509W        W65798  40.961   2.821   2.343
 4510W        W65799  17.262  29.467  11.864
 4511W        W65800  10.234   9.203  11.594
 4512W        W65801  42.419  29.454  14.432
 4513W        W65802  27.026  31.096   2.896
 4514W        W65803  42.906  10.837   3.716
 4515W        W65804  42.958  25.710   0.859
 4516W        W65805  39.925   6.261   1.881
 4517W        W65806  14.337  36.477   2.271
 4518W        W65807  40.546  22.215  14.349
 4519W        W65808  40.312   8.381  10.435
 4520W        W65809  10.312  24.990  13.357
 4521W        W65810  35.080  22.745   0.878
 4522W        W65811  13.704  22.567   1.429
 4523W        W65812  33.514  44.858  10.488
 4524W        W65813  19.718  19.183   1.794
 4525W        W65814  21.706  33.094  10.980
 4526W        W65815   2.309  26.629   1.391
 4527W        W65816  34.008  37.897   1.384
 4528W        W65817  22.595   8.677  11.435
 4529W        W65818   1.777  19.542   3.177
 4530W        W65819  16.231  36.926  14.832
 4531W        W65820  18.081  14.762   4.638
 4532W        W65821  19.779  39.507   4.311
 4533W        W65822   4.336  16.777  10.905
 4534W        W65823  42.965   2.833   0.409
 4535W        W65824   4.419  19.095  11.872
 4536W        W65825  37.038  14.785   0.331
 4537W        W65826   1.905  14.653  13.950
 4538W        W65827  10.240  29.536  10.899
 4539W        W65828   7.347  37.439  10.953
 4540W        W65829   7.387  28.559  12.508
 4541W        W65830  39.337  21.644   1.231
 4542W        W65831  37.083  36.026  11.504
 4543W        W65832  12.626   8.753   2.300
 4544W        W65833  32.635  36.506  12.986
 4545W        W65834  20.653  14.701  14.389
 4546W        W65835  31.052  15.161   3.642
 4547W        W65836  27.474  42.803   2.364
 4548W        W65837  10.165  36.035  14.981
 4549W        W65838  16.630  12.755  14.474
 4550W        W65839  31.574   9.837   4.696
 4551W        W65840  22.582  24.640   1.932
 4552W        W65841  14.145  33.963  13.916
 4553W        W65842   8.702  28.072   3.870
 4554W        W65843  22.600  33.498   2.317
 4555W        W65844  42.481  43.820  13.500
 4556W        W65845  14.216  42.433  12.945
 4557W        W65846  34.384  27.452  13.493
 4558W        W65847   6.189   3.247   0.928
 4559W        W65848  41.885   3.911  12.857
 4560W        W65849   7.766  33.546   2.329
 4561W        W65850  14.165  14.186   4.634
 4562W        W65851  28.998  44.402   3.279
 4563W        W65852  13.746  24.602  13.464
 4564W        W65853  29.111  18.697  11.889
 4565W        W65854  39.325  31.070   4.155
 4566W        W65855  38.521   5.228   3.782
 4567W        W65856  27.633   7.877   2.807
 4568W        W65857  23.586  10.318   1.298
 4569W        W65858  32.096  37.509  12.003
 4570W        W65859  20.236  19.113  12.996
 4571W        W65860  25.964   0.340  13.015
 4572W        W65861  18.694  33.127   3.718
 4573W        W65862  23.165  15.746  11.429
 4574W        W65863  13.609  39.883   0.793
 4575W        W65864  42.387   0.778  13.919
 4576W        W65865  18.189   7.303  14.315
 4577W        W65866   9.809  14.649   2.375
 4578W        W65867  12.772   1.369   2.722
 4579W        W65868  22.217  20.079   4.164
 4580W        W65869  20.049  43.415  10.452
 4581W        W65870  43.800  16.115   0.746
 4582W        W65871   8.837  18.626   2.276
 4583W        W65872  13.815  15.728  11.483
 4584W        W65873  42.889   8.338   5.250
 4585W        W65874  22.667   8.318  12.042
 4586W        W65875  40.955  24.160  12.832
 4587W        W65876  42.782  32.067   0.325
 4588W        W65877   1.438   5.754   4.748
 4589W        W65878   4.281  27.183  12.845
 4590W        W65879   1.254   9.283   4.162
 4591W        W65880   2.730  13.252  13.838
 4592W        W65881  17.587  34.547  13.414
 4593W        W65882  23.044  30.544   1.313
 4594W        W65883  14.771  43.286  13.535
 4595W        W65884  27.550  14.772  10.965
 4596W        W65885  33.512   2.937   2.697
 4597W        W65886   5.210  18.766  11.388
 4598W        W65887  36.894   4.745  13.796
 4599W        W65888  23.992  35.864   5.239
 4600W        W65889  39.821  40.511  14.429
 4601W        W65890  15.192  16.268  11.430
 4602W        W65891   5.303   5.277  12.044
 4603W        W65892  34.889  32.524   4.823
 4604W        W65893  19.640  27.645   4.748
 4605W        W65894  28.631  23.210   1.715
 4606W        W65895  31.955  24.524   4.118
 4607W        W65896  13.259  24.050   4.749
 4608W        W65897  24.561  28.110   4.837
 4609W        W65898  28.062  10.720  12.348
 4610W        W65899  20.664   6.342   2.748
 4611W        W65900  39.917   9.766   2.733
 4612W        W65901   6.342  40.964   3.302
 4613W        W65902  33.493  22.687  10.897
 4614W        W65903  17.749  24.654   3.793
 4615W        W65904  28.996  16.243   3.748
 4616W        W65905  41.501   0.894  12.963
 4617W        W65906  27.500  20.672  10.981
 4618W        W65907  40.037  31.143  13.391
 4619W        W65908  31.957  19.697  11.010
 4620W        W65909  24.220   8.885  10.929
 4621W        W65910  21.124  23.128   1.812
 4622W        W65911  41.353  14.174   0.932
 4623W        W65912  24.577  11.775   3.767
 4624W        W65913  17.693  13.801  13.501
 4625W        W65914  42.356  38.911   1.873
 4626W        W65915  28.067  12.256   2.675
 4627W        W65916  42.329  11.198  14.972
 4628W        W65917  39.940  11.631   4.731
 4629W        W65918   8.270   3.917  11.453
 4630W        W65919  25.633  17.190   3.349
 4631W        W65920  31.005  12.261   3.231
 4632W        W65921  40.896   4.720  13.819
 4633W        W65922  31.122  21.172  11.555
 4634W        W65923  33.951  40.976  14.872
 4635W        W65924  12.627   9.661  12.868
 4636W        W65925  36.899  16.261   0.893
 4637W        W65926  19.730  41.787  14.315
 4638W        W65927  39.553  30.153   0.324
 4639W        W65928  31.126  14.682  11.053
 4640W        W65929  20.541  31.899   2.389
 4641W        W65930   8.365  16.315  13.034
 4642W        W65931   1.842  17.067   1.809
 4643W        W65932   4.919  16.784  14.404
 4644W        W65933  21.060   3.382   0.868
 4645W        W65934  34.048   0.987  11.877
 4646W        W65935  40.404  24.586  10.640
 4647W        W65936   7.342  40.462   0.902
 4648W        W65937  32.886  29.541  12.368
 4649W        W65938  14.240  19.644   1.397
 4650W        W65939  26.153  28.935   2.895
 4651W        W65940  27.597  14.144   1.301
 4652W        W65941  27.459  14.232   3.193
 4653W        W65942  38.825  36.915   0.957
 4654W        W65943  28.585   7.212   4.326
 4655W        W65944  36.381  20.247   4.203
 4656W        W65945  33.597  12.807  11.947
 4657W        W65946  19.756  24.586   4.117
 4658W        W65947  14.821  33.906  13.026
 4659W        W65948  12.225  15.224   2.778
 4660W        W65949  38.909  27.067  14.455
 4661W        W65950  44.900   2.965  10.494
 4662W        W65951  31.945  35.868   0.921
 4663W        W65952  44.306  36.531  11.585
 4664W        W65953  21.618  44.499  14.891
 4665W        W65954  29.155   5.867  14.841
 4666W        W65955   9.839  32.972   3.378
 4667W        W65956  27.522  25.710   0.910
 4668W        W65957  14.591  21.040  13.319
 4669W        W65958  29.967  21.701  12.054
 4670W        W65959   1.907  37.961   3.845
 4671W        W65960  19.772   2.784   1.361
 4672W        W65961  42.482   4.800  12.515
 4673W        W65962  31.534   1.290  10.509
 4674W        W65963  15.644  44.872  12.468
 4675W        W65964  12.841   7.408   1.786
 4676W        W65965  43.876   1.788  10.961
 4677W        W65966   2.809  13.183   3.368
 4678W        W65967  43.310  36.359  11.451
 4679W        W65968   2.893  42.412  14.850
 4680W        W65969  43.847  24.216  13.856
 4681W        W65970  36.558   8.727   0.452
 4682W        W65971   8.765  18.747  12.085
 4683W        W65972  31.497  34.568   4.697
 4684W        W65973   3.764  33.124  11.939
 4685W        W65974  25.115  13.656  13.813
 4686W        W65975  43.857  37.506  11.079
 4687W        W65976  31.493   5.752   3.198
 4688W        W65977  15.114  37.051   4.810
 4689W        W65978  35.491   4.363  12.912
 4690W        W65979  14.186  10.276   3.330
 4691W        W65980   9.156  37.056   3.828
 4692W        W65981  36.007  24.704   2.314
 4693W        W65982  10.200  11.662   2.687
 4694W        W65983  33.415  11.333  11.528
 4695W        W65984  17.609   9.682  14.988
 4696W        W65985   4.800  15.631  13.540
 4697W        W65986  29.542   8.696  14.510
 4698W        W65987  15.816  34.951  11.000
 4699W        W65988  23.686  29.935   1.286
 4700W        W65989  12.218  31.578   2.219
 4701W        W65990  22.551  39.447  11.945
 4702W        W65991   9.764  39.509  13.865
 4703W        W65992   9.668  10.765  11.960
 4704W        W65993   7.750  24.102  11.933
 4705W        W65994   8.805  22.189   2.675
 4706W        W65995  30.492  19.749  12.476
 4707W        W65996  30.615  16.090   1.832
 4708W        W65997  15.281  15.622   3.283
 4709W        W65998  18.645   4.345  14.331
 4710W        W65999  15.306  44.936   2.375
 4711W        W66000   1.821  43.352  14.809
 4712W        W66001  43.513  32.420  13.410
 4713W        W66002   6.266   6.828  10.993
 4714W        W66003  20.688   3.715  12.955
 4715W        W66004   3.777   0.482  13.385
 4716W        W66005  15.120  11.866  10.895
 4717W        W66006   0.969   2.771   0.353
 4718W        W66007  21.115  43.906   1.761
 4719W        W66008  39.991  26.056  10.559
 4720W        W66009  24.666  23.663  10.632
 4721W        W66010  38.470   7.342  13.431
 4722W        W66011  23.009  38.528   1.781
 4723W        W66012  17.559  44.004  11.550
 4724W        W66013  32.502   3.438  12.559
 4725W        W66014  26.207  13.602   4.205
 4726W        W66015  31.495   2.876  12.410
 4727W        W66016  42.417   4.287   2.226
 4728W        W66017  26.189  19.211   4.339
 4729W        W66018   6.918  22.616  11.029
 4730W        W66019  11.805  15.792   0.356
 4731W        W66020  39.938   0.771  12.543
 4732W        W66021  33.497   7.274  12.010
 4733W        W66022   3.314  31.434   1.884
 4734W        W66023  24.528   1.745   2.667
 4735W        W66024  41.028  43.304   4.149
 4736W        W66025  37.486  31.412  11.100
 4737W        W66026  11.191   8.388  11.013
 4738W        W66027  20.602   8.897  13.339
 4739W        W66028  21.632  21.230   4.839
 4740W        W66029  31.152   5.694  11.947
 4741W        W66030  36.400  20.086   0.878
 4742W        W66031  44.329  24.507  14.982
 4743W        W66032  12.734   0.474   2.760
 4744W        W66033  16.186  44.381   1.892
 4745W        W66034  26.151   4.205  11.522
 4746W        W66035   0.787   6.808   0.273
 4747W        W66036  38.352  15.107  10.568
 4748W        W66037  37.338  36.354  14.024
 4749W        W66038  21.063  21.034   3.179
 4750W        W66039  22.250   2.244  11.121
 4751W        W66040  43.342   2.840  12.515
 4752W        W66041   4.740  23.095  11.409
 4753W        W66042   2.345  42.418   0.315
 4754W        W66043  36.923   1.901   0.460
 4755W        W66044  27.981  37.385  11.563
 4756W        W66045  23.106  15.709  12.476
 4757W        W66046  22.623  40.977   2.880
 4758W        W66047   7.809  14.248   1.785
 4759W        W66048  27.191  16.623  14.801
 4760W        W66049   4.413  30.451   0.799
 4761W        W66050   2.873  28.139  11.589
 4762W        W66051  21.622  23.992   4.699
 4763W        W66052  18.688  12.334   4.338
 4764W        W66053  38.464  17.232  12.957
 4765W        W66054  26.037  22.572   1.743
 4766W        W66055  21.108  43.364   1.402
 4767W        W66056  17.765   7.298  10.431
 4768W        W66057  35.052   3.387   0.870
 4769W        W66058   7.734  15.294  13.892
 4770W        W66059  14.274  37.515  14.777
 4771W        W66060  18.055  15.764   0.411
 4772W        W66061  44.916   2.847   2.671
 4773W        W66062  37.846  22.180  11.537
 4774W        W66063   3.401  43.892  13.516
 4775W        W66064   7.710   0.783   2.230
 4776W        W66065  36.552  37.553   1.765
 4777W        W66066  16.778  38.889  14.386
 4778W        W66067  35.089  10.358   2.888
 4779W        W66068  39.939   6.322  12.945
 4780W        W66069   4.710  20.130   0.357
 4781W        W66070  27.662  32.080   4.182
 4782W        W66071   4.376  11.624   1.235
 4783W        W66072  22.082  12.182   1.772
 4784W        W66073  42.792  40.404   3.853
 4785W        W66074   5.758  37.024  11.107
 4786W        W66075  10.842  28.602   2.778
 4787W        W66076  20.680  12.838  10.896
 4788W        W66077   3.254   9.753  11.115
 4789W        W66078   7.317  41.888  11.377
 4790W        W66079  10.735   9.351   3.373
 4791W        W66080  44.995  44.352   1.789
 4792W        W66081  24.665  17.161  11.066
 4793W        W66082  23.536  23.226   2.757
 4794W        W66083  18.575   2.738  12.398
 4795W        W66084  14.314  34.412   2.718
 4796W        W66085  15.211  15.806  12.365
 4797W        W66086  29.618   8.886  11.482
 4798W        W66087  25.522  26.584  14.473
 4799W        W66088   4.405  20.070   2.266
 4800W        W66089  19.598   2.327  10.530
 4801W        W66090  41.506   0.886   4.641
 4802W        W66091  26.050   7.326  10.579
 4803W        W66092  32.954   8.395  12.371
 4804W        W66093  36.959  20.626   3.254
 4805W        W66094  36.884  16.311  12.468
 4806W        W66095  44.990  16.729  14.800
 4807W        W66096  36.886  39.326  13.840
 4808W        W66097   9.390  13.717  13.967
 4809W        W66098  28.630  38.950  11.955
 4810W        W66099  38.428   1.938  11.124
 4811W        W66100  29.458  42.986  13.329
 4812W        W66101  21.563  11.197  14.019
 4813W        W66102  15.768  12.850  12.976
 4814W        W66103  34.459  37.541   3.824
 4815W        W66104  30.042  20.251   3.829
 4816W        W66105   4.271  18.648   0.895
 4817W        W66106  28.961  38.899  11.922
 4818W        W66107  23.106  33.127   3.835
 4819W        W66108   0.953  14.252  14.376
 4820W        W66109  33.008  19.669   3.640
 4821W        W66110   3.217   5.244  12.505
 4822W        W66111   6.771  17.230   4.117
 4823W        W66112  22.608  43.293   0.425
 4824W        W66113  38.379   1.893  14.015
 4825W        W66114   2.807   2.723  12.956
 4826W        W66115  25.513  17.148  12.837
 4827W        W66116  43.932  43.314   2.701
 4828W        W66117  11.223  37.500   2.315
 4829W        W66118   7.769  28.664  11.467
 4830W        W66119   0.978  32.127  10.116
 4831W        W66120  41.370  32.927   4.786
 4832W        W66121  32.962   8.810  11.397
 4833W        W66122  25.662  24.201   3.773
 4834W        W66123  10.860  18.675   0.461
 4835W        W66124   1.375  38.842   1.737
 4836W        W66125  35.512  22.018   3.198
 4837W        W66126  15.777  41.812   5.094
 4838W        W66127  43.979  41.536   0.249
 4839W        W66128  37.396  41.444  14.927
 4840W        W66129   3.302  32.502  14.953
 4841W        W66130   2.743  40.343  11.994
 4842W        W66131  33.596  31.536  14.016
 4843W        W66132  35.056  14.598   1.305
 4844W        W66133  35.988  17.695   3.825
 4845W        W66134  11.187   9.756  10.565
 4846W        W66135  32.111  24.152  14.845
 4847W        W66136   6.828  11.840  12.068
 4848W        W66137  28.074  16.711   0.845
 4849W        W66138  25.140  19.586   1.753
 4850W        W66139  20.622   7.339  12.828
 4851W        W66140  17.660  13.343   3.853
 4852W        W66141  40.426   9.344   2.811
 4853W        W66142  13.737  15.256  12.976
 4854W        W66143  14.608  27.643  12.572
 4855W        W66144  38.871  27.951  14.918
 4856W        W66145  16.117  25.511  12.039
 4857W        W66146  10.806  36.349  11.856
 4858W        W66147   8.735  14.734   4.291
 4859W        W66148   5.698  27.995  12.465
 4860W        W66149  36.061   3.284  12.061
 4861W        W66150  37.000   2.438   4.747
 4862W        W66151  23.225  17.150  14.798
 4863W        W66152  22.251  29.031  13.945
 4864W        W66153  23.041  42.433   0.450
 4865W        W66154  13.811  39.868   0.423
 4866W        W66155  17.797  17.661   4.175
 4867W        W66156   4.334  18.176  14.940
 4868W        W66157  28.590  19.258   1.844
 4869W        W66158   8.856   0.744   2.873
 4870W        W66159  43.771  22.551  14.298
 4871W        W66160  28.533  38.944   4.309
 4872W        W66161   6.798   6.682   2.396
 4873W        W66162  19.664  22.564  13.446
 4874W        W66163  41.365   0.869   0.887
 4875W        W66164  27.087   3.333   0.956
 4876W        W66165  24.505  14.684   3.760
 4877W        W66166   3.395   6.824   4.602
 4878W        W66167  20.624   0.346   2.860
 4879W        W66168  41.364  43.953   1.740
 4880W        W66169  26.175  24.995   1.350
 4881W        W66170  10.353  17.735   3.177
 4882W        W66171   9.343  19.117  11.516
 4883W        W66172  25.082   7.687   3.188
 4884W        W66173  11.778  37.371   0.917
 4885W        W66174  35.501  38.532  11.469
 4886W        W66175   1.331  19.563  11.579
 4887W        W66176   6.744  30.557   0.363
 4888W        W66177  31.994   1.786   3.828
 4889W        W66178  26.654  26.481   3.386
 4890W        W66179  39.821  24.159  14.295
 4891W        W66180  28.153   7.373  11.920
 4892W        W66181   1.308   4.828   3.386
 4893W        W66182  16.119  37.417  13.002
 4894W        W66183  24.053  41.394  14.969
 4895W        W66184  11.693  16.686   3.356
 4896W        W66185  34.403   9.385   4.801
 4897W        W66186  14.221  39.546   4.291
 4898W        W66187  36.029  38.057  13.395
 4899W        W66188  29.031  25.607  12.978
 4900W        W66189  19.683  26.523  11.436
 4901W        W66190   1.966   8.320  12.996
 4902W        W66191   0.862  26.682  14.770
 4903W        W66192  13.641  20.080   3.243
 4904W        W66193  13.345   0.430  11.921
 4905W        W66194   2.817   9.820  12.901
 4906W        W66195  44.888   9.835  14.438
 4907W        W66196  44.262  34.435  14.817
 4908W        W66197  31.443  35.587  11.011
 4909W        W66198  36.885  18.128   5.287
 4910W        W66199   7.820  43.896   1.722
 4911W        W66200  17.627  12.663  12.344
 4912W        W66201  28.079   4.746   5.279
 4913W        W66202  16.156  44.994  11.987
 4914W        W66203  32.539  17.243  12.864
 4915W        W66204  12.258  37.454  10.482
 4916W        W66205  13.201  16.120   4.805
 4917W        W66206   6.866  35.856  12.388
 4918W        W66207  30.943  27.131   1.832
 4919W        W66208  14.785  39.000   3.157
 4920W        W66209  13.112   3.216   3.291
 4921W        W66210   1.888  26.195   4.830
 4922W        W66211  31.051  10.806  12.990
 4923W        W66212  28.111  11.826   1.359
 4924W        W66213  34.597  44.776   4.770
 4925W        W66214  37.974  15.610   3.861
 4926W        W66215  32.934  21.568  10.625
 4927W        W66216  12.706  13.684  13.344
 4928W        W66217   9.794  31.001  10.058
 4929W        W66218   6.799   0.264  10.937
 4930W        W66219  12.227   5.277  12.083
 4931W        W66220   7.895  14.163  13.385
 4932W        W66221  28.587  12.820  14.481
 4933W        W66222  35.458   5.257  14.845
 4934W        W66223   5.298  16.632   0.840
 4935W        W66224  16.641  10.282  11.925
 4936W        W66225  11.323  35.489   3.741
 4937W        W66226  34.969   6.677   0.727
 4938W        W66227  11.162  26.621   4.322
 4939W        W66228  37.867  22.653  11.499
 4940W        W66229  39.880  32.042  13.880
 4941W        W66230  15.088  18.067  14.836
 4942W        W66231   2.744  24.114  13.909
 4943W        W66232  29.523   8.779   1.720
 4944W        W66233  24.534  33.109  10.477
 4945W        W66234  31.033  22.644   2.840
 4946W        W66235  10.365   5.716   2.738
 4947W        W66236  11.212   5.214   0.287
 4948W        W66237  20.175  18.648   1.742
 4949W        W66238  18.082  16.734   1.409
 4950W        W66239  15.760  42.527  14.457
 4951W        W66240   9.702  10.284   2.842
 4952W        W66241  16.192  31.000   4.183
 4953W        W66242   2.299  39.043  12.914
 4954W        W66243  42.915  40.963  13.366
 4955W        W66244  18.265  10.317   3.245
 4956W        W66245   4.301  27.492  11.985
 4957W        W66246  37.046  23.118   0.765
 4958W        W66247  31.108   5.748   4.340
 4959W        W66248  39.983  11.297  12.410
 4960W        W66249   3.367  44.915  13.391
 4961W        W66250  17.082  17.195  14.314
 4962W        W66251   1.814  37.083   3.750
 4963W        W66252  31.553   8.183   3.326
 4964W        W66253  35.422  19.131   2.748
 4965W        W66254  12.694   5.879   1.415
 4966W        W66255   0.832  24.002   1.426
 4967W        W66256  33.476  36.049   1.349
 4968W        W66257  25.155  24.031   4.244
 4969W        W66258  24.591   1.270  13.908
 4970W        W66259  19.079  26.026  13.918
 4971W        W66260  36.975   6.736   4.616
 4972W        W66261  25.515  40.798  14.285
 4973W        W66262  38.961  39.832   0.856
 4974W        W66263  44.339  21.120  10.484
 4975W        W66264  44.805  28.607   2.224
 4976W        W66265   7.795   8.771   1.266
 4977W        W66266  44.947  15.616   4.173
 4978W        W66267   9.846  35.517   0.821
 4979W        W66268  36.860  31.906  12.339
 4980W        W66269   7.827  30.575  10.624
 4981W        W66270  44.376  11.768  12.398
 4982W        W66271  21.747  15.217   0.406
 4983W        W66272  30.018  32.580   0.771
 4984W        W66273  26.170  43.795   0.401
 4985W        W66274   1.776  24.212  11.571
 4986W        W66275  21.696  13.146   0.347
 4987W        W66276  33.932   6.397   3.343
 4988W        W66277  43.843  40.467   2.707
 4989W        W66278  12.815   7.337   4.810
 4990W        W66279  30.941  40.476   2.204
 4991W        W66280  19.641  11.269  14.384
 4992W        W66281   4.787  18.086  13.425
 4993W        W66282  30.117  42.318  11.502
 4994W        W66283   1.893   3.823   3.187
 4995W        W66284  35.897  15.713   2.198
 4996W        W66285   6.837   4.263   2.803
 4997W        W66286  41.347  29.622  13.497
 4998W        W66287  36.350   8.238  12.954
 4999W        W66288  41.877  26.511  13.444
 5000W        W66289  28.674  14.309   3.162
 5001W        W66290   6.392  17.616  12.574
 5002W        W66291  33.960  35.000   0.929
 5003W        W66292  41.455  32.027   1.845
 5004W        W66293  15.669  11.719   3.323
 5005W        W66294  30.529  41.503  14.006
 5006W        W66295  44.402   8.210   1.397
 5007W        W66296  38.065  20.661   2.329
 5008W        W66297  25.145  30.023  13.791
 5009W        W66298  22.512  17.286  10.995
 5010W        W66299  25.066  32.466   1.360
 5011W        W66300  14.146   8.353   4.348
 5012W        W66301  19.109  13.320  10.976
 5013W        W66302   8.203  18.122  11.961
 5014W        W66303   8.757  12.651  11.043
 5015W        W66304  23.495   7.268  10.597
 5016W        W66305  10.333  23.129  11.933
 5017W        W66306  28.141   1.281  11.402
 5018W        W66307  32.623  18.572   4.654
 5019W        W66308  19.144   7.363   0.445
 5020W        W66309  42.404  14.119   4.716
 5021W        W66310   8.319   0.834  13.028
 5022W        W66311  33.949  15.646  14.841
 5023W        W66312  12.766  23.665  13.803
 5024W        W66313  13.746  12.243  12.067
 5025W        W66314  39.431   0.765  14.373
 5026W        W66315   1.782  32.546  12.076
 5027W        W66316  16.630  20.099  14.011
 5028W        W66317  18.606  11.127   3.838
 5029W        W66318  25.144  37.517  14.021
 5030W        W66319  41.013  39.359  13.406
 5031W        W66320  35.060  15.103   0.325
 5032W        W66321  24.598  43.988  11.543
 5033W        W66322   1.302  21.525   4.721
 5034W        W66323  36.562  28.573  14.923
 5035W        W66324   3.353  18.285  10.893
 5036W        W66325  35.557   7.797  13.892
 5037W        W66326  11.750  26.066  10.543
 5038W        W66327  22.229  23.141  13.792
 5039W        W66328   2.410  10.653  11.857
 5040W        W66329  39.506  24.710  13.403
 5041W        W66330  42.812  13.709  13.028
 5042W        W66331  41.418  11.268   0.456
 5043W        W66332  17.693  43.373  14.303
 5044W        W66333  28.124  38.928   0.789
 5045W        W66334  12.719  13.804  13.912
 5046W        W66335   2.926  22.562  11.076
 5047W        W66336  37.987  39.824   2.364
 5048W        W66337   0.747   1.431   3.817
 5049W        W66338  31.585  34.978  13.341
 5050W        W66339  35.089  17.250   2.879
 5051W        W66340  27.597   3.432   0.458
 5052W        W66341  21.212  20.717   2.720
 5053W        W66342   9.702  42.802  11.384
 5054W        W66343  40.858  15.183   1.919
 5055W        W66344  43.842  19.758   2.781
 5056W        W66345   9.749   3.759  13.480
 5057W        W66346  38.012  32.576  14.780
 5058W        W66347  32.959  19.674   0.776
 5059W        W66348  19.268   6.273   0.883
 5060W        W66349  41.494   5.905  11.380
 5061W        W66350  33.473  13.785   3.177
 5062W        W66351  10.217  37.557   9.936
 5063W        W66352  16.091  11.710  10.989
 5064W        W66353  31.913   5.782  13.965
 5065W        W66354  26.008  39.366   3.769
 5066W        W66355   3.943  43.386  14.827
 5067W        W66356  20.052  43.769  14.500
 5068W        W66357  41.956  27.184  10.472
 5069W        W66358  17.158   3.298  12.062
 5070W        W66359  18.680  20.585  10.151
 5071W        W66360  16.732  19.225  14.899
 5072W        W66361  37.474  22.553  11.118
 5073W        W66362  33.113  38.409  14.781
 5074W        W66363  27.489  34.594   0.378
 5075W        W66364  13.800   3.806   2.825
 5076W        W66365  44.504   3.859   3.183
 5077W        W66366   1.450  12.625  13.401
 5078W        W66367  23.656  10.705   0.274
 5079W        W66368  18.197   6.816   1.802
 5080W        W66369  25.506   1.900  13.343
 5081W        W66370  32.515  33.501   2.396
 5082W        W66371  14.249  12.703   2.803
 5083W        W66372   9.290  16.607   3.262
 5084W        W66373   2.746  33.594   1.923
 5085W        W66374  38.030  19.260  10.911
 5086W        W66375  18.618  12.774   2.266
 5087W        W66376  31.111  38.820   1.436
 5088W        W66377   2.739  41.885   4.147
 5089W        W66378  18.758  19.769  11.081
 5090W        W66379  14.120  12.777   1.865
 5091W        W66380  10.351  42.383   1.414
 5092W        W66381  12.816   8.700  12.894
 5093W        W66382   9.238  24.556   3.676
 5094W        W66383  22.016  12.236  13.887
 5095W        W66384  35.388  22.034  13.310
 5096W        W66385  20.202  19.588   5.308
 5097W        W66386  23.641  39.445  12.554
 5098W        W66387   1.385  14.196   1.232
 5099W        W66388  10.793   1.921  12.344
 5100W        W66389  15.639  12.180  14.452
 5101W        W66390   7.711  17.265  11.563
 5102W        W66391  15.807  34.403   3.208
 5103W        W66392  39.346   8.322   1.450
 5104W        W66393   4.898  16.797  13.313
 5105W        W66394   2.898  20.170   2.415
 5106W        W66395   5.272  13.107   4.749
 5107W        W66396   0.410  19.572  13.850
 5108W        W66397  42.339  18.623   1.438
 5109W        W66398  43.314   4.756   2.222
 5110W        W66399   0.812  13.245   4.716
 5111W        W66400  32.456  35.985  12.546
 5112W        W66401  24.170   0.291   9.958
 5113W        W66402  28.153  28.023  12.976
 5114W        W66403  32.531  25.215  11.437
 5115W        W66404   9.873  24.185  12.516
 5116W        W66405  30.060  36.055   4.186
 5117W        W66406  19.537  30.440  10.149
 5118W        W66407  36.066  39.536   4.187
 5119W        W66408  32.891  27.192   2.234
 5120W        W66409   8.749  29.572   2.273
 5121W        W66410   5.920  13.791  11.900
 5122W        W66411  13.730  34.037   9.950
 5123W        W66412   4.207  22.630   0.304
 5124W        W66413  31.123  12.319  13.342
 5125W        W66414   7.830  35.492   1.701
 5126W        W66415  19.101  35.566   2.205
 5127W        W66416   1.266  44.271   3.705
 5128W        W66417  40.801   6.388   4.742
 5129W        W66418   9.807   9.685   3.376
 5130W        W66419  20.228  28.073  13.410
 5131W        W66420   8.284  41.930   1.743
 5132W        W66421  41.441   0.881  14.838
 5133W        W66422  30.953   4.325   3.713
 5134W        W66423  38.968  18.220   2.389
 5135W        W66424  39.424  17.561  14.510
 5136W        W66425  39.414  37.532   4.325
 5137W        W66426  18.785   8.338   4.602
 5138W        W66427  13.246  20.142  10.489
 5139W        W66428  37.554   9.718  14.908
 5140W        W66429   9.247   5.854   1.210
 5141W        W66430  33.411  30.100   2.305
 5142W        W66431  25.494  44.889   3.297
 5143W        W66432  31.059  13.231  13.438
 5144W        W66433  17.200  20.688  11.028
 5145W        W66434  13.145  27.504  14.364
 5146W        W66435  30.970  29.581  12.556
 5147W        W66436  40.883  26.491  10.478
 5148W        W66437   4.248  26.555  11.992
 5149W        W66438  29.464  25.981  10.893
 5150W        W66439   6.416  27.651  14.375
 5151W        W66440  16.237  14.135   1.889
 5152W        W66441  15.090  22.070   0.742
 5153W        W66442  22.555   7.870  11.066
 5154W        W66443  12.773  22.580   3.657
 5155W        W66444   3.765  25.193  12.490
 5156W        W66445  40.326  30.083   1.322
 5157W        W66446  36.537   5.219  14.931
 5158W        W66447  27.582  10.715  13.351
 5159W        W66448  28.655  38.944   4.769
 5160W        W66449  38.933  42.382  10.966
 5161W        W66450  36.397  33.437  12.849
 5162W        W66451  32.891  23.721  13.997
 5163W        W66452   3.415  13.149  12.844
 5164W        W66453   3.327  19.552  12.855
 5165W        W66454  14.255  21.589  14.018
 5166W        W66455  13.617  43.848  10.490
 5167W        W66456  44.855  24.573  13.526
 5168W        W66457  10.842   1.904   2.256
 5169W        W66458  36.008  39.340   0.804
 5170W        W66459  13.787   7.845   4.676
 5171W        W66460  31.040  18.609  12.953
 5172W        W66461  11.253  38.383   0.284
 5173W        W66462  16.764  30.480   3.709
 5174W        W66463  19.081  28.046   3.152
 5175W        W66464  25.210  34.437   4.772
 5176W        W66465  33.106  38.998  10.002
 5177W        W66466  33.574   8.292   3.774
 5178W        W66467   6.411   8.806  13.791
 5179W        W66468  33.028  23.206  14.471
 5180W        W66469  37.552  24.026   3.208
 5181W        W66470   7.290   8.386   1.853
 5182W        W66471   7.276  34.960   2.839
 5183W        W66472  17.648  28.939  13.791
 5184W        W66473  11.659  32.569  14.419
 5185W        W66474  42.799  13.767  10.549
 5186W        W66475  37.948  40.928   2.745
 5187W        W66476  25.207  36.057   0.901
 5188W        W66477  26.598  36.509   1.846
 5189W        W66478  23.621   7.833   4.707
 5190W        W66479  10.779  42.314  13.985
 5191W        W66480  33.991  26.991   1.446
 5192W        W66481  17.175  22.227   2.182
 5193W        W66482  40.979  18.567  12.579
 5194W        W66483  25.652  26.196  11.460
 5195W        W66484  28.091  26.978   3.377
 5196W        W66485  22.132  13.138  10.404
 5197W        W66486  20.551  24.486  14.880
 5198W        W66487   2.427  24.635  13.330
 5199W        W66488  35.933   2.275   4.247
 5200W        W66489   4.829  25.088  14.496
 5201W        W66490  10.858  37.544   5.231
 5202W        W66491  32.950  12.235  14.307
 5203W        W66492  28.954  34.121  13.881
 5204W        W66493  37.374  44.294   2.189
 5205W        W66494  34.447  39.376   1.429
 5206W        W66495  41.498  10.159   0.774
 5207W        W66496   8.764  23.725   4.152
 5208W        W66497  17.282   2.907  11.054
 5209W        W66498  16.790  24.036   3.316
 5210W        W66499  14.614  33.965  14.785
 5211W        W66500  32.475  35.589  10.576
 5212W        W66501  23.644  44.934   2.200
 5213W        W66502  44.795  35.372   1.242
 5214W        W66503  20.629   5.352  11.054
 5215W        W66504  13.336  21.605   2.246
 5216W        W66505  21.122   2.730  11.574
 5217W        W66506  33.543   6.677   1.377
 5218W        W66507  38.920  17.698   0.776
 5219W        W66508   1.895  34.071   2.354
 5220W        W66509  39.051   6.892   1.382
 5221W        W66510   5.932  27.475  14.926
 5222W        W66511  16.174  42.992  13.871
 5223W        W66512  34.539  25.085  14.767
 5224W        W66513  14.245  38.345  12.904
 5225W        W66514  11.797  21.225   4.744
 5226W        W66515  34.896   6.424  10.048
 5227W        W66516  29.587  24.214   1.882
 5228W        W66517  38.477  25.009  11.438
 5229W        W66518  37.451  25.165   1.917
 5230W        W66519  12.654  15.767   1.872
 5231W        W66520  42.287  34.472  14.473
 5232W        W66521  13.781  43.312  13.821
 5233W        W66522  44.004  35.878  13.426
 5234W        W66523   9.655  43.994   3.771
 5235W        W66524  15.766  36.869   0.898
 5236W        W66525  19.226  34.395   2.251
 5237W        W66526   8.369  24.059   3.244
 5238W        W66527   9.256  35.395  13.463
 5239W        W66528  23.598  28.550  13.323
 5240W        W66529  13.719  40.424   2.331
 5241W        W66530  16.580  30.164   3.787
 5242W        W66531  29.656  15.624  14.417
 5243W        W66532  14.178  38.028  13.878
 5244W        W66533  29.064  37.076   2.330
 5245W        W66534  28.952  42.502   2.812
 5246W        W66535   6.718  33.452   1.297
 5247W        W66536  18.183  35.006   3.680
 5248W        W66537  35.542  21.620  10.517
 5249W        W66538  15.696   4.777  10.955
 5250W        W66539   7.331  18.111  12.034
 5251W        W66540  17.167  11.721   1.884
 5252W        W66541  26.021  38.074   3.332
 5253W        W66542  30.101  37.529  13.379
 5254W        W66543   8.364  17.304   4.798
 5255W        W66544   1.849  36.016  11.434
 5256W        W66545   4.808  33.588   5.097
 5257W        W66546  32.978  43.362  11.398
 5258W        W66547  37.563  18.673  11.501
 5259W        W66548  36.355  44.291   2.383
 5260W        W66549   2.293   0.787  11.002
 5261W        W66550  15.103  30.027  13.379
 5262W        W66551  44.496  18.185   3.320
 5263W        W66552  25.644  24.492  12.097
 5264W        W66553  25.653  41.294  11.095
 5265W        W66554  10.329  23.088  14.937
 5266W        W66555  20.597  27.454  11.953
 5267W        W66556  24.069  28.610   2.340
 5268W        W66557  43.359   0.886  14.402
 5269W        W66558  14.228   9.848  13.480
 5270W        W66559  18.295  36.049   9.967
 5271W        W66560  26.535  29.568   0.324
 5272W        W66561  17.680  12.294   2.745
 5273W        W66562  38.842  39.900   0.457
 5274W        W66563  26.150  41.475   3.373
 5275W        W66564   4.923  37.871   2.878
 5276W        W66565  29.974   7.709  12.409
 5277W        W66566  16.692  27.992   3.328
 5278W        W66567  17.252  12.155   3.754
 5279W        W66568  26.959   0.485  13.429
 5280W        W66569  14.658  13.292  10.982
 5281W        W66570  34.950   4.351   0.329
 5282W        W66571  43.435  22.192   0.389
 5283W        W66572  37.458   0.965  12.452
 5284W        W66573  25.125  11.692  12.362
 5285W        W66574  32.406   2.237  12.881
 5286W        W66575  33.492   8.234  14.314
 5287W        W66576  24.496  43.836   4.744
 5288W        W66577  16.805  42.943  12.018
 5289W        W66578  34.587  42.311   4.726
 5290W        W66579  25.011   8.269  10.015
 5291W        W66580  10.695  18.749  14.946
 5292W        W66581  40.053  19.599   3.276
 5293W        W66582  44.965  19.043  13.849
 5294W        W66583  37.942  36.860  13.521
 5295W        W66584   5.845  34.916   0.319
 5296W        W66585  17.697  19.122  14.951
 5297W        W66586  44.435  33.992  14.480
 5298W        W66587  42.989   2.761  10.443
 5299W        W66588  29.992  36.008  11.928
 5300W        W66589   8.351  18.631  10.586
 5301W        W66590   7.842  16.808  10.477
 5302W        W66591  25.173  17.272  10.904
 5303W        W66592  23.699  44.362  12.500
 5304W        W66593   9.710  27.118   3.157
 5305W        W66594  19.734  36.431  12.064
 5306W        W66595  14.668  14.112  14.899
 5307W        W66596  28.596   7.779   1.914
 5308W        W66597  12.832  31.016   2.383
 5309W        W66598   5.358  39.864  10.888
 5310W        W66599   6.840  22.017   5.272
 5311W        W66600  31.956  17.282  12.068
 5312W        W66601  18.285  20.647   4.139
 5313W        W66602   0.864  27.648   2.299
 5314W        W66603  20.703  22.518   3.704
 5315W        W66604  25.088  12.163   2.192
 5316W        W66605  42.329   1.923  14.491
 5317W        W66606  25.631  36.926  13.380
 5318W        W66607  35.602  15.204  10.461
 5319W        W66608  20.145  31.075   4.221
 5320W        W66609  25.479  36.079   4.688
 5321W        W66610  21.065  43.900   1.395
 5322W        W66611  10.273   8.836   1.282
 5323W        W66612  12.793  33.000  13.881
 5324W        W66613   7.733  14.287   2.867
 5325W        W66614   2.887   4.285   0.477
 5326W        W66615   5.764   7.779   0.359
 5327W        W66616   9.281  19.680   3.212
 5328W        W66617  29.465  26.507  10.444
 5329W        W66618  19.207  16.285  14.006
 5330W        W66619  22.053  26.015  14.364
 5331W        W66620  35.393  39.432   4.625
 5332W        W66621  40.375   4.415  10.600
 5333W        W66622  31.150  33.930  14.405
 5334W        W66623  16.317  26.015  11.915
 5335W        W66624  26.023  29.052  14.835
 5336W        W66625  37.986  36.990  13.956
 5337W        W66626  30.908   4.256   5.310
 5338W        W66627  42.910   7.195  13.835
 5339W        W66628   0.835  43.863  14.845
 5340W        W66629  29.963  39.332  13.968
 5341W        W66630  44.967  18.076  12.947
 5342W        W66631  15.811  27.449  10.528
 5343W        W66632  21.678  32.000   4.315
 5344W        W66633  13.149  43.941   3.366
 5345W        W66634  30.961  25.625  12.935
 5346W        W66635  16.788  36.428  10.002
 5347W        W66636   6.743  41.827  13.381
 5348W        W66637  40.849  33.398  14.960
 5349W        W66638  12.797  39.854   3.183
 5350W        W66639  15.593  43.779  11.529
 5351W        W66640  23.191  28.564  10.508
 5352W        W66641  22.630  22.649  11.520
 5353W        W66642  24.087  34.493   0.388
 5354W        W66643  26.531  15.104  12.446
 5355W        W66644  43.892   1.437   3.274
 5356W        W66645  32.454  18.274   2.396
 5357W        W66646  42.001  16.767   0.785
 5358W        W66647  15.157  15.627   2.664
 5359W        W66648  33.462  28.977   1.718
 5360W        W66649  12.357   5.241  14.927
 5361W        W66650  19.775  25.032  10.613
 5362W        W66651  27.118  28.558   4.752
 5363W        W66652  37.011  35.379   1.870
 5364W        W66653  33.389  33.965   3.265
 5365W        W66654   3.777   9.202   2.309
 5366W        W66655  42.390  17.685  10.461
 5367W        W66656   4.734   5.850  12.567
 5368W        W66657  27.951   0.852   0.776
 5369W        W66658  38.917  37.058  10.633
 5370W        W66659  29.123   8.405   3.337
 5371W        W66660  20.273  42.436  11.038
 5372W        W66661  12.815  38.490   2.331
 5373W        W66662  30.041  22.219   0.342
 5374W        W66663  44.396  12.643  14.021
 5375W        W66664  27.152  10.281   3.668
 5376W        W66665   1.272  27.137  13.871
 5377W        W66666  25.118   9.712   3.731
 5378W        W66667  30.155  22.008  12.564
 5379W        W66668  16.197  41.344  10.409
 5380W        W66669  29.079  19.680   4.239
 5381W        W66670   9.859   4.420  14.310
 5382W        W66671  21.531   5.871   2.414
 5383W        W66672  34.420  28.025   3.386
 5384W        W66673  15.788  13.159  11.010
 5385W        W66674  38.974  39.514   2.775
 5386W        W66675  41.525  37.993   2.332
 5387W        W66676   9.166  15.798   4.206
 5388W        W66677  32.580  40.513   4.754
 5389W        W66678   7.740  33.958   4.746
 5390W        W66679  30.629  20.588  11.560
 5391W        W66680  23.530  37.079   3.739
 5392W        W66681   2.935   3.831   4.153
 5393W        W66682  25.710  34.575   2.287
 5394W        W66683  19.097  11.254   4.822
 5395W        W66684   1.757   6.340   2.724
 5396W        W66685  23.681  18.665   2.353
 5397W        W66686  25.113  20.703   1.769
 5398W        W66687  29.591  11.721  10.582
 5399W        W66688  32.543   6.923  10.559
 5400W        W66689  32.531   0.801  14.759
 5401W        W66690  22.164  30.023   4.829
 5402W        W66691  24.603   3.810  12.540
 5403W        W66692  13.320  11.341   2.322
 5404W        W66693  18.257  38.072   1.820
 5405W        W66694  31.586  11.181  10.518
 5406W        W66695  21.537  11.739  14.833
 5407W        W66696  24.084  12.830   1.224
 5408W        W66697   6.265  27.582  11.101
 5409W        W66698  25.615  24.689   0.859
 5410W        W66699   8.197   9.215  13.873
 5411W        W66700  33.003  10.717   0.382
 5412W        W66701  15.166   1.958   1.713
 5413W        W66702   1.936  32.537   5.223
 5414W        W66703  21.076  22.013  13.034
 5415W        W66704   0.856  40.447   1.701
 5416W        W66705  25.490   3.818   2.301
 5417W        W66706  16.221   5.901  11.895
 5418W        W66707  16.293   2.903   2.859
 5419W        W66708   5.278  18.137  11.395
 5420W        W66709  19.670  43.962  11.535
 5421W        W66710  43.406  10.164   2.703
 5422W        W66711  30.556   8.192   9.441
 5423W        W66712  26.995   6.190   0.288
 5424W        W66713  43.470  41.991  11.425
 5425W        W66714   5.289  16.262  12.933
 5426W        W66715   3.446  18.696  10.643
 5427W        W66716  29.660  23.060   2.408
 5428W        W66717  40.379  22.213  13.035
 5429W        W66718  24.186  17.249   9.955
 5430W        W66719  43.423  27.614  11.491
 5431W        W66720   5.794   1.297   4.321
 5432W        W66721  17.561  24.548   0.274
 5433W        W66722   5.903  33.438   2.231
 5434W        W66723  41.817  39.875   0.383
 5435W        W66724  15.711  11.281   9.969
 5436W        W66725  13.622  27.039   1.741
 5437W        W66726  43.009   9.334  12.477
 5438W        W66727   7.308  39.938  10.408
 5439W        W66728   3.353  12.625  12.896
 5440W        W66729   4.897  32.987  10.455
 5441W        W66730  25.610  28.674  11.025
 5442W        W66731  11.675  32.986   3.727
 5443W        W66732  13.702   5.754   4.145
 5444W        W66733  17.780  38.554  10.984
 5445W        W66734  17.658  19.674  12.377
 5446W        W66735  38.878  35.905  10.913
 5447W        W66736  37.537  26.665  10.472
 5448W        W66737   5.287  27.073   1.742
 5449W        W66738  31.437  16.118   3.775
 5450W        W66739  36.410  17.082   0.905
 5451W        W66740  15.756  18.765   2.411
 5452W        W66741  28.108  37.440   4.174
 5453W        W66742   5.912  35.940  11.934
 5454W        W66743  17.784  21.029   2.678
 5455W        W66744  23.590  31.443  12.830
 5456W        W66745  24.644  39.481   3.283
 5457W        W66746  24.217  34.411  14.030
 5458W        W66747  41.344  30.542   2.813
 5459W        W66748  42.002  44.281  13.954
 5460W        W66749   4.791  32.533   4.237
 5461W        W66750  35.436  32.100   3.231
 5462W        W66751   1.825  42.914  13.458
 5463W        W66752  30.068  41.367  11.457
 5464W        W66753  18.224  17.654  14.376
 5465W        W66754  31.483  14.136   1.216
 5466W        W66755  14.682  19.245   0.359
 5467W        W66756  25.058  22.516  11.049
 5468W        W66757  42.960  36.066   3.273
 5469W        W66758   1.909  39.390  11.603
 5470W        W66759  33.029  29.158  12.449
 5471W        W66760  33.120  17.094   0.282
 5472W        W66761  24.053  12.135   1.350
 5473W        W66762  29.470  42.349  12.432
 5474W        W66763  11.329   6.722   4.319
 5475W        W66764  22.079   0.851  14.419
 5476W        W66765  29.537   7.701  13.322
 5477W        W66766  41.789   4.927   0.740
 5478W        W66767   5.694  32.988   0.776
 5479W        W66768  37.890  36.877   3.234
 5480W        W66769  31.648  33.088  12.833
 5481W        W66770   4.769   3.241  10.625
 5482W        W66771  37.879  18.667   5.290
 5483W        W66772   1.737  40.024  13.525
 5484W        W66773  33.019   8.837  12.398
 5485W        W66774  20.547  35.363  14.427
 5486W        W66775  22.523  25.620   1.778
 5487W        W66776  19.092   1.276  10.435
 5488W        W66777   2.833  22.745   0.864
 5489W        W66778  36.895  20.716   3.698
 5490W        W66779  30.963   8.199  12.472
 5491W        W66780  27.471  34.114  11.415
 5492W        W66781  27.036  37.538   4.197
 5493W        W66782  28.973  29.508   0.354
 5494W        W66783  36.347   0.908   2.846
 5495W        W66784  13.661  16.154  10.412
 5496W        W66785  26.546  30.454   3.847
 5497W        W66786  22.518   5.737   3.689
 5498W        W66787  26.206  22.652   0.450
 5499W        W66788  39.403  39.000   2.673
 5500W        W66789   0.880   3.895  13.412
 5501W        W66790   0.354  41.520  12.389
 5502W        W66791  12.812  43.856  14.403
 5503W        W66792  15.318  25.638  11.384
 5504W        W66793  33.114  13.140   4.785
 5505W        W66794   0.745  36.012   9.954
 5506W        W66795  22.020   7.370   4.289
 5507W        W66796  42.812  12.116  11.947
 5508W        W66797  32.139  11.737  12.012
 5509W        W66798  19.046   4.393   4.288
 5510W        W66799  24.206   0.410  11.571
 5511W        W66800  29.443  37.510   5.163
 5512W        W66801  40.923  31.092  14.810
 5513W        W66802  14.185   9.219   0.337
 5514W        W66803  38.936  15.642  13.811
 5515W        W66804  42.846   4.287  12.357
 5516W        W66805  39.056  34.057   0.475
 5517W        W66806  29.067  33.402   1.281
 5518W        W66807  17.207  12.805   9.923
 5519W        W66808   9.848  30.079   3.804
 5520W        W66809  16.285  33.991   4.212
 5521W        W66810  27.182   4.223  13.403
 5522W        W66811   5.928   7.894   4.624
 5523W        W66812  28.436  43.819   2.210
 5524W        W66813  16.168  39.851   0.906
 5525W        W66814  22.601  14.600  12.933
 5526W        W66815  29.932  26.952   4.676
 5527W        W66816  13.223   8.346  12.432
 5528W        W66817  29.539  34.448   0.388
 5529W        W66818   4.401  21.529  13.475
 5530W        W66819  25.973  41.372   4.691
 5531W        W66820  40.404   2.923  14.789
 5532W        W66821  35.455  25.192   4.271
 5533W        W66822  15.676  43.983  13.001
 5534W        W66823  18.277  41.866   4.238
 5535W        W66824  32.617  43.932   3.864
 5536W        W66825   4.209  43.494  13.911
 5537W        W66826  40.486  13.150   3.160
 5538W        W66827   6.309  11.832   3.227
 5539W        W66828  44.321   0.282  14.828
 5540W        W66829   6.867  34.948  12.963
 5541W        W66830  22.178   0.816   2.707
 5542W        W66831  18.577  19.048  13.903
 5543W        W66832   1.739  27.050  14.002
 5544W        W66833   2.245  10.672   0.274
 5545W        W66834  13.202  28.075  13.375
 5546W        W66835  12.622  22.214   0.409
 5547W        W66836  14.657  28.098  11.957
 5548W        W66837  39.501  33.057   0.289
 5549W        W66838  33.483  20.526  13.487
 5550W        W66839  34.594  18.220   3.661
 5551W        W66840  26.554  28.470  10.535
 5552W        W66841  14.267  37.959  11.496
 5553W        W66842  35.544  19.690   4.167
 5554W        W66843   3.848   6.199   2.662
 5555W        W66844   8.402  37.001   4.311
 5556W        W66845  42.875  12.773  11.908
 5557W        W66846  12.272  43.515  11.011
 5558W        W66847   9.850  26.131  14.956
 5559W        W66848   4.764  26.143  14.390
 5560W        W66849  21.228   2.894   0.775
 5561W        W66850  15.147  24.034  11.496
 5562W        W66851  10.679  37.013   3.266
 5563W        W66852  44.459  18.147   2.264
 5564W        W66853  41.021  44.859  14.840
 5565W        W66854  30.441  12.624  12.892
 5566W        W66855  26.150   8.895   3.222
 5567W        W66856  36.902   7.409   1.422
 5568W        W66857   8.744  28.047   2.229
 5569W        W66858  42.888  14.737   0.253
 5570W        W66859  16.277  15.092   2.718
 5571W        W66860  10.678  23.036   0.267
 5572W        W66861  26.691  18.627  10.981
 5573W        W66862  32.899   1.941  12.459
 5574W        W66863   0.781   1.372  10.916
 5575W        W66864  25.694  44.007   4.160
 5576W        W66865  10.235  35.075   5.606
 5577W        W66866  43.929  36.021   4.157
 5578W        W66867  14.627  42.479   0.326
 5579W        W66868  28.542  37.431  10.089
 5580W        W66869   9.732   1.397  14.476
 5581W        W66870  24.094  12.678  12.018
 5582W        W66871  11.369  17.772  12.078
 5583W        W66872  37.538   6.396   3.793
 5584W        W66873  34.898  15.187   0.868
 5585W        W66874   0.407  11.724  11.126
 5586W        W66875  16.657   6.795  14.829
 5587W        W66876   4.776  25.140  10.137
 5588W        W66877  43.892  21.123  14.998
 5589W        W66878  24.653  38.835   1.380
 5590W        W66879  18.167  38.975   4.799
 5591W        W66880  11.788   9.796   4.302
 5592W        W66881  36.066  16.164  13.422
 5593W        W66882   0.374  30.447  10.925
 5594W        W66883  26.992  28.647  10.535
 5595W        W66884  17.701  13.327  14.954
 5596W        W66885  10.710   9.230  14.456
 5597W        W66886  25.148   5.236   4.712
 5598W        W66887  15.642  18.115   3.727
 5599W        W66888  20.662  14.676   0.965
 5600W        W66889   3.755   6.828  10.408
 5601W        W66890  18.751  42.319  11.403
 5602W        W66891  12.798  15.754  10.011
 5603W        W66892  10.838  28.571   4.824
 5604W        W66893   8.811  43.768  14.984
 5605W        W66894  40.947  34.426  14.018
 5606W        W66895   8.254  26.607  10.919
 5607W        W66896   4.389   8.182  14.379
 5608W        W66897  40.421  42.996   1.402
 5609W        W66898  27.005  20.651  10.102
 5610W        W66899   6.255  14.246   4.291
 5611W        W66900  12.350  18.104  13.349
 5612W        W66901  29.505  30.447   4.689
 5613W        W66902  43.312  11.658  13.338
 5614W        W66903  36.434  40.330   2.236
 5615W        W66904  18.251  25.691   1.281
 5616W        W66905  31.124  27.507   1.354
 5617W        W66906  38.423  24.679  11.968
 5618W        W66907  21.606  33.601  13.408
 5619W        W66908  27.512  32.064  13.954
 5620W        W66909  30.057  36.050   0.287
 5621W        W66910   2.348   5.750  11.862
 5622W        W66911  20.661  35.433  11.085
 5623W        W66912   4.933  39.347   1.850
 5624W        W66913  12.754  41.439  10.430
 5625W        W66914   4.416  17.757  11.494
 5626W        W66915  13.744  16.237   1.283
 5627W        W66916   7.365  42.874   5.284
 5628W        W66917  29.432   6.806   1.341
 5629W        W66918  26.067  28.617   1.713
 5630W        W66919  20.655  31.641  11.858
 5631W        W66920  35.093  33.529   3.152
 5632W        W66921  33.576  40.461  13.492
 5633W        W66922  20.656   9.293  14.992
 5634W        W66923  43.965  25.017   4.284
 5635W        W66924  28.498  43.452  11.879
 5636W        W66925  39.946   3.365  14.506
 5637W        W66926  10.192   4.238  13.307
 5638W        W66927  44.474  21.629   4.172
 5639W        W66928  18.100  35.470   1.400
 5640W        W66929   1.318  21.611   0.841
 5641W        W66930  27.965   4.790   2.314
 5642W        W66931  21.589   9.310  10.508
 5643W        W66932  19.640  17.138  11.597
 5644W        W66933  15.796  31.917   0.280
 5645W        W66934  10.664  31.531   4.826
 5646W        W66935   9.817  21.090   4.756
 5647W        W66936  21.094  23.647  13.911
 5648W        W66937  25.478  25.126  14.893
 5649W        W66938  40.336  38.560  12.472
 5650W        W66939  25.054   4.729   2.416
 5651W        W66940   5.277  25.040   1.336
 5652W        W66941  20.044   8.253   0.734
 5653W        W66942  32.594  16.772  13.819
 5654W        W66943  38.936  14.126   3.287
 5655W        W66944  44.787  35.572  13.377
 5656W        W66945  40.812  18.160   1.414
 5657W        W66946  25.203  32.975   4.242
 5658W        W66947  42.968   8.324  14.442
 5659W        W66948  29.512   6.226   5.091
 5660W        W66949  10.719  22.605  10.528
 5661W        W66950  20.093  37.574  10.449
 5662W        W66951  42.864  17.762   2.235
 5663W        W66952  17.132  14.339  14.948
 5664W        W66953   0.432  33.558  10.609
 5665W        W66954  10.317  29.548   3.308
 5666W        W66955  30.068  31.448   4.698
 5667W        W66956  27.608  16.594  13.988
 5668W        W66957  27.044  10.242   3.240
 5669W        W66958  19.245  17.775  13.406
 5670W        W66959   7.328  18.212  11.545
 5671W        W66960   1.477  38.355   1.268
 5672W        W66961  26.585  25.630  13.049
 5673W        W66962  41.466   2.788   0.731
 5674W        W66963  18.207  43.935  12.354
 5675W        W66964  14.313  31.644   0.441
 5676W        W66965  24.484  38.534  11.407
 5677W        W66966  33.881   3.802   4.340
 5678W        W66967  42.492  15.711   2.319
 5679W        W66968  40.427   1.901   0.933
 5680W        W66969  22.622  36.422  11.106
 5681W        W66970  11.742  31.002   3.329
 5682W        W66971  14.113  29.920  10.406
 5683W        W66972  17.635  11.758  14.410
 5684W        W66973   0.790  25.671   2.178
 5685W        W66974   4.812   2.239  12.927
 5686W        W66975  29.660  44.287  10.037
 5687W        W66976  22.575  20.081  14.017
 5688W        W66977  29.059  25.541   0.326
 5689W        W66978  24.181  16.146   2.371
 5690W        W66979  43.794  19.079   4.692
 5691W        W66980  39.473  42.914  11.996
 5692W        W66981  24.084  29.477   0.890
 5693W        W66982  22.220  10.363   3.248
 5694W        W66983  44.351  42.299  11.060
 5695W        W66984  40.830  30.459   1.863
 5696W        W66985  27.075  13.605   1.798
 5697W        W66986  26.097   1.322   4.650
 5698W        W66987  39.448  13.708  13.458
 5699W        W66988  42.377  10.269   0.325
 5700W        W66989  12.165  36.892   0.910
 5701W        W66990  23.229  36.569  11.607
 5702W        W66991  38.075  17.754  14.454
 5703W        W66992  42.475  44.430  12.054
 5704W        W66993  19.241  34.592  11.022
 5705W        W66994  30.591  40.366   4.714
 5706W        W66995   5.738   3.847   3.386
 5707W        W66996  43.880   0.354   0.766
 5708W        W66997  17.708  38.338   1.330
 5709W        W66998  15.604  10.322  12.369
 5710W        W66999  17.084   3.257   3.286
 5711W        W67000  17.106   3.858  11.861
 5712W        W67001   3.850  19.166  14.002
 5713W        W67002  21.531  16.247  12.483
 5714W        W67003  29.058  44.300   0.771
 5715W        W67004  14.757   5.352   2.901
 5716W        W67005  16.631   7.228  11.413
 5717W        W67006   9.832  23.728   0.916
 5718W        W67007  18.587  19.081  14.403
 5719W        W67008  10.174   4.449  11.951
 5720W        W67009  17.560  42.787   4.235
 5721W        W67010   7.858  12.202  13.436
 5722W        W67011  28.618  18.256  13.395
 5723W        W67012  11.259  18.097  14.339
 5724W        W67013   0.974  23.523   0.316
 5725W        W67014  24.717  37.580  13.489
 5726W        W67015  25.041   6.267  11.070
 5727W        W67016  18.697  17.723   2.319
 5728W        W67017  21.637  36.456   2.854
 5729W        W67018  41.513   6.847  14.953
 5730W        W67019  43.360  24.681  13.791
 5731W        W67020  28.119  30.083  11.390
 5732W        W67021   3.236  10.799   3.214
 5733W        W67022   9.765  11.861   0.910
 5734W        W67023  14.658  40.508   0.311
 5735W        W67024  19.594  17.702  11.400
 5736W        W67025  23.115   6.677   2.357
 5737W        W67026   1.372  41.839   1.274
 5738W        W67027  26.602  34.450   3.837
 5739W        W67028  40.016   9.316   5.117
 5740W        W67029  17.189  28.572  12.923
 5741W        W67030  11.743  33.954  10.034
 5742W        W67031  39.820  16.187   2.817
 5743W        W67032   7.195  31.465  14.281
 5744W        W67033  19.640  15.201  14.368
 5745W        W67034  41.375   2.730   3.170
 5746W        W67035  15.329   1.396  12.069
 5747W        W67036  42.900   4.213  12.896
 5748W        W67037  20.130   2.723  11.898
 5749W        W67038   6.338  22.127   4.234
 5750W        W67039   5.268   4.835  14.292
 5751W        W67040   0.397  21.674  13.023
 5752W        W67041  22.071  32.940  10.995
 5753W        W67042  22.207  34.901  11.586
 5754W        W67043   9.687   4.247  14.952
 5755W        W67044   0.469  43.919   2.720
 5756W        W67045   3.235  38.961   0.431
 5757W        W67046   1.442  18.252   2.787
 5758W        W67047  36.565  27.508  13.334
 5759W        W67048  15.713   5.437  13.539
 5760W        W67049  24.176  44.002  12.927
 5761W        W67050   7.346   1.459  12.079
 5762W        W67051  35.579  32.134  11.609
 5763W        W67052  20.108   0.747  13.970
 5764W        W67053  15.790  33.898   3.819
 5765W        W67054   9.670  43.342   2.895
 5766W        W67055  21.538   8.857   1.277
 5767W        W67056  31.106  43.836   4.118
 5768W        W67057  34.905  33.078  12.887
 5769W        W67058  32.623  20.202   2.769
 5770W        W67059  35.485  31.153  10.462
 5771W        W67060  34.056  36.587   0.326
 5772W        W67061  28.957  15.329   0.266
 5773W        W67062  38.018  20.262  12.346
 5774W        W67063  29.083  18.296  12.499
 5775W        W67064  13.132  43.414   0.746
 5776W        W67065  38.465  36.878  13.863
 5777W        W67066  37.966  14.762  14.364
 5778W        W67067  22.026  20.196   1.384
 5779W        W67068  24.129  13.221  14.945
 5780W        W67069  27.530   5.295   3.182
 5781W        W67070   9.653  11.244   2.750
 5782W        W67071  42.005  26.979  14.792
 5783W        W67072  44.835   0.358  12.094
 5784W        W67073  17.671  25.014   0.267
 5785W        W67074   6.334  40.395  13.327
 5786W        W67075   2.416  20.577   3.643
 5787W        W67076  36.361   7.183  12.425
 5788W        W67077  41.478  14.185   4.654
 5789W        W67078  29.036   5.305  11.083
 5790W        W67079   5.277  20.542   3.755
 5791W        W67080  39.935   3.892  11.422
 5792W        W67081  10.732  22.561  11.999
 5793W        W67082  35.370  25.616   0.289
 5794W        W67083  17.200  16.755   1.755
 5795W        W67084  23.224  39.808  11.424
 5796W        W67085   2.736   8.672   3.202
 5797W        W67086  19.557   6.693  14.468
 5798W        W67087  39.509  41.363  12.027
 5799W        W67088   7.740   8.302  14.808
 5800W        W67089  42.887   1.874   4.661
 5801W        W67090  41.392   8.306  13.535
 5802W        W67091  40.370   9.871   1.795
 5803W        W67092   3.240   0.487  11.868
 5804W        W67093  20.164   2.896  11.465
 5805W        W67094  10.309  17.597   4.140
 5806W        W67095  27.956  32.431   0.326
 5807W        W67096  38.058   5.791   3.711
 5808W        W67097  21.121   7.905   0.893
 5809W        W67098  16.160  20.212  11.411
 5810W        W67099  26.538  43.778   4.287
 5811W        W67100   4.446  27.946  14.386
 5812W        W67101   7.335  13.811   4.259
 5813W        W67102  33.114  25.698  14.489
 5814W        W67103   9.269  35.895   3.284
 5815W        W67104  39.038  24.016  13.865
 5816W        W67105  18.724  25.098  12.341
 5817W        W67106   3.878   7.685  11.103
 5818W        W67107   3.446   8.771   3.298
 5819W        W67108   6.320  35.406  10.962
 5820W        W67109  40.838  18.602   0.278
 5821W        W67110  14.653  13.294   2.828
 5822W        W67111  11.779  25.996  11.892
 5823W        W67112   2.407  34.548  11.999
 5824W        W67113  23.029  16.189   1.719
 5825W        W67114  21.743  14.188   1.354
 5826W        W67115  36.091  16.733  11.036
 5827W        W67116  39.370  14.333   2.334
 5828W        W67117  16.595  23.512   1.741
 5829W        W67118   4.844  11.142  14.400
 5830W        W67119   6.367  31.133   4.325
 5831W        W67120   0.881   2.314   2.664
 5832W        W67121   3.437  16.665  12.491
 5833W        W67122  20.710  43.960   1.773
 5834W        W67123  33.970   0.918   2.288
 5835W        W67124  42.439   4.729  10.404
 5836W        W67125   0.936  39.834  10.623
 5837W        W67126   8.719  11.845   0.367
 5838W        W67127  21.523  41.940  14.813
 5839W        W67128  38.363  25.967   0.423
 5840W        W67129  25.091  29.491  14.763
 5841W        W67130  32.931  12.741  14.315
 5842W        W67131  24.722  31.074   0.788
 5843W        W67132  20.224  44.879  13.501
 5844W        W67133  16.115  35.577   1.235
 5845W        W67134  25.713   7.808   4.770
 5846W        W67135   9.300  28.166  10.926
 5847W        W67136  10.842  29.976   4.317
 5848W        W67137  32.609  16.245  10.906
 5849W        W67138  32.476  29.579  12.353
 5850W        W67139   5.263   9.687   4.731
 5851W        W67140   5.888  34.962   2.721
 5852W        W67141  44.279  28.555   2.845
 5853W        W67142  29.117  26.168   3.248
 5854W        W67143  28.483  42.349  14.802
 5855W        W67144  43.424  10.652  12.498
 5856W        W67145  41.877  43.975  13.541
 5857W        W67146  27.098  33.932  10.995
 5858W        W67147  13.170  11.348   0.768
 5859W        W67148  38.325  19.261  13.342
 5860W        W67149  13.336   5.319  13.458
 5861W        W67150  29.504  33.608   4.716
 5862W        W67151  40.535   6.829   3.273
 5863W        W67152  31.902  20.589  12.883
 5864W        W67153  27.633  35.491  10.406
 5865W        W67154   6.387  15.097   3.734
 5866W        W67155  15.270   4.222   1.397
 5867W        W67156  11.166  30.426   3.682
 5868W        W67157   5.828   5.817  11.434
 5869W        W67158  43.371  25.671   0.769
 5870W        W67159  13.658  44.831  14.403
 5871W        W67160  22.033  24.499  14.956
 5872W        W67161  14.721  13.714   1.758
 5873W        W67162  24.512  39.816  13.942
 5874W        W67163   5.914   1.459  13.008
 5875W        W67164  37.350  30.635   3.206
 5876W        W67165  10.257  25.107  14.836
 5877W        W67166   7.909   8.753  11.903
 5878W        W67167  26.483   2.956  12.980
 5879W        W67168  39.838   8.774  13.864
 5880W        W67169  15.328   9.869  14.817
 5881W        W67170  29.449  40.334  13.802
 5882W        W67171  19.253  34.500   0.274
 5883W        W67172   0.371  19.233  11.440
 5884W        W67173  12.804   3.294  11.521
 5885W        W67174  33.541   8.702   2.325
 5886W        W67175  36.360   4.843   2.736
 5887W        W67176  43.800  20.750   3.673
 5888W        W67177  38.018  28.675   3.656
 5889W        W67178  13.105  21.110  12.845
 5890W        W67179  37.079  15.289   5.758
 5891W        W67180  43.860  43.480  13.847
 5892W        W67181  11.715  37.370   0.326
 5893W        W67182  34.925   6.677   2.411
 5894W        W67183  11.245   0.356   1.847
 5895W        W67184  17.085   1.344   1.733
 5896W        W67185   9.648  13.153   0.728
 5897W        W67186  18.557  18.719   2.878
 5898W        W67187   0.894   0.457   2.837
 5899W        W67188  23.067  14.132  10.486
 5900W        W67189  15.219  19.240   5.227
 5901W        W67190  26.502   7.280  13.039
 5902W        W67191   0.961  14.316   2.783
 5903W        W67192  40.856  17.141  13.971
 5904W        W67193   7.206  40.549   4.705
 5905W        W67194  31.527   0.903   0.731
 5906W        W67195  25.179  13.245   0.471
 5907W        W67196  16.578  18.663   1.902
 5908W        W67197   8.688  32.567   4.785
 5909W        W67198  17.250  35.061  13.477
 5910W        W67199  30.546  33.531  13.054
 5911W        W67200  29.632   7.216  13.046
 5912W        W67201  22.660  32.477   0.851
 5913W        W67202  41.404   5.195  10.607
 5914W        W67203   5.386  35.894   4.712
 5915W        W67204  11.212  41.811   2.767
 5916W        W67205   1.461  11.251   2.836
 5917W        W67206  14.261  35.483   4.620
 5918W        W67207  32.599   3.846   4.264
 5919W        W67208  31.514  17.296   2.403
 5920W        W67209   1.866  25.996  13.470
 5921W        W67210  28.958  32.467   2.378
 5922W        W67211  33.412  20.653  11.506
 5923W        W67212  15.692   6.752  13.370
 5924W        W67213  38.989  27.126   4.644
 5925W        W67214   3.935  41.480  13.024
 5926W        W67215   7.746  22.249  12.991
 5927W        W67216  21.214  18.188   3.686
 5928W        W67217  33.422  39.810  10.431
 5929W        W67218  40.452  10.291  12.460
 5930W        W67219  27.990  27.026  13.902
 5931W        W67220  34.919  15.713   2.730
 5932W        W67221  20.201  20.184   3.731
 5933W        W67222  27.090   2.800   0.370
 5934W        W67223  23.225  36.451  11.049
 5935W        W67224   5.821  29.976  10.963
 5936W        W67225  23.219  43.279   1.740
 5937W        W67226  14.208  41.941   1.827
 5938W        W67227  36.993  32.427  14.438
 5939W        W67228   2.466   9.884  13.964
 5940W        W67229  21.081  36.486  11.546
 5941W        W67230  16.139  15.739   4.742
 5942W        W67231  25.665  16.804  13.446
 5943W        W67232  44.439  29.430  11.889
 5944W        W67233  42.872  15.640  14.935
 5945W        W67234  38.366  32.920   4.153
 5946W        W67235  28.496  37.951  10.910
 5947W        W67236  31.059   1.447   3.754
 5948W        W67237   9.670  42.378   2.819
 5949W        W67238  18.129  43.794  14.823
 5950W        W67239  16.314   1.472  10.584
 5951W        W67240  27.105   1.846   4.296
 5952W        W67241  25.520   8.786   0.919
 5953W        W67242  15.679   7.796  11.443
 5954W        W67243  38.430  13.204   3.863
 5955W        W67244  21.143  37.066   2.815
 5956W        W67245  31.146  17.095   3.327
 5957W        W67246  24.158  10.140  10.044
 5958W        W67247   7.252  24.646  14.871
 5959W        W67248  19.246  28.007   4.602
 5960W        W67249  21.056  35.969  14.979
 5961W        W67250  19.734   5.868   2.408
 5962W        W67251  20.664  37.057   1.920
 5963W        W67252  44.977  17.703  14.283
 5964W        W67253  20.187  21.174  11.460
 5965W        W67254  11.194  36.987   1.899
 5966W        W67255  31.048  17.125  12.019
 5967W        W67256  44.974  36.019   4.805
 5968W        W67257  34.109  27.990   0.783
 5969W        W67258   5.258  35.467   2.212
 5970W        W67259   8.745  12.286   4.629
 5971W        W67260  21.758  36.057   4.692
 5972W        W67261  23.631   8.658   3.738
 5973W        W67262   3.954  27.028  12.492
 5974W        W67263  25.990  14.678  12.456
 5975W        W67264  43.909  15.321  11.937
 5976W        W67265  31.954  26.975  14.031
 5977W        W67266  32.991  17.132   4.620
 5978W        W67267   2.883   8.181   3.290
 5979W        W67268   3.313  37.859  10.468
 5980W        W67269  11.692   3.846   2.831
 5981W        W67270  30.059   5.262  13.415
 5982W        W67271  30.996  24.001  13.969
 5983W        W67272   2.966  27.654  13.474
 5984W        W67273  30.621  44.469  14.311
 5985W        W67274  26.695  14.740  13.412
 5986W        W67275  13.730  31.526  11.864
 5987W        W67276   8.766  34.112  11.499
 5988W        W67277  41.443  27.473  10.992
 5989W        W67278  24.547   9.678   3.149
 5990W        W67279  30.413  25.587  11.107
 5991W        W67280  21.522  15.733   3.306
 5992W        W67281  13.297  23.720  10.897
 5993W        W67282  31.643  30.994  12.887
 5994W        W67283   3.888  17.216   0.331
 5995W        W67284  17.555   3.830   4.314
 5996W        W67285  32.433  28.555   1.395
 5997W        W67286   7.738  10.184   0.359
 5998W        W67287  24.481   3.392  14.494
 5999W        W67288  39.344  18.588   1.303
 6000W        W67289   9.841  42.386   1.733
 6001W        W67290   5.255  42.410  12.547
 6002W        W67291  11.814  40.527   5.240
 6003W        W67292  25.041  25.020  11.067
 6004W        W67293  29.918  21.017   5.252
 6005W        W67294  33.057   9.843   2.377
 6006W        W67295  37.550  14.171   1.217
 6007W        W67296  12.311  21.632   0.956
 6008W        W67297  38.041  39.016   3.671
 6009W        W67298  11.798  42.934  11.929
 6010W        W67299  42.817   0.783   5.081
 6011W        W67300  40.825  31.428   3.762
 6012W        W67301  17.666  24.051  12.375
 6013W        W67302  29.113  38.476  13.338
 6014W        W67303  41.015   5.385  14.331
 6015W        W67304  14.768   6.761  13.479
 6016W        W67305  37.924  41.433  10.637
 6017W        W67306  13.204  28.484   2.311
 6018W        W67307   3.731   1.905   0.933
 6019W        W67308  10.242  20.645   1.737
 6020W        W67309  35.484  11.148   2.231
 6021W        W67310  31.413   2.884   3.852
 6022W        W67311  40.468  20.595  14.862
 6023W        W67312   5.229  38.444  10.931
 6024W        W67313  28.154  37.490   3.864
 6025W        W67314  26.679   9.393  13.859
 6026W        W67315  32.965   0.434  10.145
 6027W        W67316  16.309  30.977  13.908
 6028W        W67317  25.995  32.964   3.279
 6029W        W67318  17.651  11.348   3.285
 6030W        W67319  27.016  36.474  13.338
 6031W        W67320  39.986  19.174   1.365
 6032W        W67321  25.187  29.516  10.639
 6033W        W67322  26.534  34.041  11.882
 6034W        W67323  42.808  19.647   3.263
 6035W        W67324  14.306  28.594  14.402
 6036W        W67325   8.286  15.770  12.070
 6037W        W67326  24.024  22.574  13.922
 6038W        W67327   7.876   0.456   4.822
 6039W        W67328  18.285  10.351   2.828
 6040W        W67329  13.764  13.735  10.605
 6041W        W67330   1.450   4.445  13.388
 6042W        W67331  40.476   3.720  13.545
 6043W        W67332  42.296  17.170  13.928
 6044W        W67333  28.473  22.107   4.658
 6045W        W67334   6.772  32.393   5.729
 6046W        W67335  31.934  34.554   2.308
 6047W        W67336  11.224  37.468   5.312
 6048W        W67337   3.818  18.122  12.939
 6049W        W67338  33.128  19.552   0.362
 6050W        W67339   3.762   3.343   3.844
 6051W        W67340   6.807   2.414   3.335
 6052W        W67341  17.681  18.217   1.377
 6053W        W67342  42.899  32.941  13.906
 6054W        W67343  12.628   6.846   3.170
 6055W        W67344  42.884  11.335   0.431
 6056W        W67345  38.900  27.032   3.834
 6057W        W67346  23.138  24.172  13.036
 6058W        W67347   6.906  30.498   4.253
 6059W        W67348   4.262  32.033   3.177
 6060W        W67349   2.837  23.071  13.977
 6061W        W67350   9.666  14.636   2.893
 6062W        W67351  14.782  17.725   0.459
 6063W        W67352  22.670  21.220  14.941
 6064W        W67353  24.550   0.314   4.174
 6065W        W67354  16.573  12.203  13.356
 6066W        W67355  24.123  41.521   0.927
 6067W        W67356  10.787  44.788  12.403
 6068W        W67357   5.439  36.577   2.829
 6069W        W67358  23.047   2.449   4.167
 6070W        W67359  11.753   5.376   2.768
 6071W        W67360  20.632  13.145   2.855
 6072W        W67361  29.509  11.823  13.389
 6073W        W67362  18.225  10.236   4.610
 6074W        W67363   0.391  22.513  10.613
 6075W        W67364  31.070   1.763  10.584
 6076W        W67365  36.914  27.948   3.741
 6077W        W67366  39.361  21.079  11.589
 6078W        W67367  28.470  37.868  14.877
 6079W        W67368  19.172  36.072  13.471
 6080W        W67369  17.256  28.571   0.755
 6081W        W67370  26.190  35.088   0.345
 6082W        W67371  38.488   6.248   1.708
 6083W        W67372  36.469  37.914  11.506
 6084W        W67373  38.929  40.521   4.350
 6085W        W67374  23.597  40.806   1.330
 6086W        W67375   0.447  23.088  11.607
 6087W        W67376  34.917  25.014   0.815
 6088W        W67377  24.539   2.731   0.407
 6089W        W67378   0.308  14.128  13.436
 6090W        W67379  38.929  26.461  13.010
 6091W        W67380   9.852  29.438  14.481
 6092W        W67381  20.555  37.579   2.381
 6093W        W67382   5.749  34.519   1.927
 6094W        W67383  28.588   5.778  12.537
 6095W        W67384  35.899   7.765  14.484
 6096W        W67385  22.521  11.236  14.367
 6097W        W67386  14.677  35.962   2.327
 6098W        W67387  36.860   2.449   2.678
 6099W        W67388  15.275  29.631  11.096
 6100W        W67389  44.388  18.637  14.859
 6101W        W67390  26.005  40.456   4.320
 6102W        W67391  34.551  36.390   3.376
 6103W        W67392  34.540  29.174   1.379
 6104W        W67393  34.900  39.364  13.813
 6105W        W67394  12.689  36.071   3.234
 6106W        W67395  44.447  15.194   0.428
 6107W        W67396   1.284   3.257   0.346
 6108W        W67397  41.527  27.634  11.611
 6109W        W67398  38.410  42.388   1.341
 6110W        W67399  30.992  21.513   3.150
 6111W        W67400   7.690  42.502  14.444
 6112W        W67401  44.322  35.395   2.775
 6113W        W67402  36.461   2.841   0.409
 6114W        W67403  14.772  17.594   4.222
 6115W        W67404  42.460   4.891  14.985
 6116W        W67405  31.915  17.278   1.256
 6117W        W67406  18.789  32.035   1.420
 6118W        W67407  17.635  17.065   1.291
 6119W        W67408   1.355  24.187   0.378
 6120W        W67409  11.845   0.260   1.217
 6121W        W67410  30.533  20.684   0.742
 6122W        W67411   0.479   2.289  11.549
 6123W        W67412  28.656  43.018   3.270
 6124W        W67413  10.763   9.872   3.267
 6125W        W67414  43.864   2.890   3.823
 6126W        W67415   2.318  11.774   4.269
 6127W        W67416  12.309  31.480  13.528
 6128W        W67417  15.632   1.328   3.335
 6129W        W67418   2.434  33.401   1.410
 6130W        W67419  44.920  20.116   4.761
 6131W        W67420  27.569  38.896   2.836
 6132W        W67421  29.495  38.379  10.591
 6133W        W67422  33.075  43.310   3.257
 6134W        W67423   6.197   2.324   0.448
 6135W        W67424  14.226   1.321   3.182
 6136W        W67425  29.056   7.691  14.000
 6137W        W67426  21.178  10.217   0.838
 6138W        W67427  15.226  24.111   0.851
 6139W        W67428  41.315  25.638   0.871
 6140W        W67429  26.629   3.895  14.951
 6141W        W67430  27.989  18.638  10.407
 6142W        W67431  15.712  30.027  12.926
 6143W        W67432  31.096  44.282  12.413
 6144W        W67433  32.608  11.694  12.380
 6145W        W67434  41.979  25.644   3.308
 6146W        W67435  21.202  31.634   4.711
 6147W        W67436  44.926  34.114  14.340
 6148W        W67437   4.833  30.606  14.286
 6149W        W67438   0.810  35.017  10.610
 6150W        W67439   7.851  38.351   1.758
 6151W        W67440  37.441  12.140  11.518
 6152W        W67441   5.738   1.273   2.189
 6153W        W67442   0.909  38.066   4.780
 6154W        W67443  32.101  43.316   1.334
 6155W        W67444  35.954  41.979   5.273
 6156W        W67445  23.051  26.672   0.839
 6157W        W67446  41.429  28.584  10.923
 6158W        W67447  40.006   8.789  11.481
 6159W        W67448  14.636   8.685  11.937
 6160W        W67449   2.729  31.519  10.961
 6161W        W67450   9.666  15.158   2.891
 6162W        W67451  29.084  20.587  12.036
 6163W        W67452  35.104  19.268   0.455
 6164W        W67453  10.699  30.002  13.473
 6165W        W67454   7.310  30.066  12.525
 6166W        W67455   6.205  32.594  10.534
 6167W        W67456  21.749  40.447  14.324
 6168W        W67457  18.137  24.103  13.424
 6169W        W67458  31.404  29.064  13.460
 6170W        W67459  27.014  22.051  14.406
 6171W        W67460   0.890  26.658  13.370
 6172W        W67461  23.225   7.717  10.515
 6173W        W67462  37.425   7.721  13.312
 6174W        W67463  32.887  41.396  11.980
 6175W        W67464  28.959  25.681   2.346
 6176W        W67465  23.516  25.491  11.509
 6177W        W67466   0.444  26.532   3.322
 6178W        W67467  22.187  31.945   3.295
 6179W        W67468  14.299  30.087   3.183
 6180W        W67469   9.201  24.174   4.822
 6181W        W67470  11.818  36.557   4.605
 6182W        W67471   0.890  34.452  10.532
 6183W        W67472  27.013  40.882   1.443
 6184W        W67473  44.963  20.672  14.028
 6185W        W67474  37.908   7.232   1.329
 6186W        W67475  37.842  21.704  10.571
 6187W        W67476  35.506  12.121  14.289
 6188W        W67477  17.663  30.622   3.630
 6189W        W67478   7.300  44.967  11.868
 6190W        W67479  13.117   5.794  12.440
 6191W        W67480   5.272  37.548  13.845
 6192W        W67481  18.052  12.828   0.274
 6193W        W67482  19.110  38.828   3.635
 6194W        W67483   8.725  31.908   3.267
 6195W        W67484  43.408  37.954   2.798
 6196W        W67485   7.761  22.630  10.590
 6197W        W67486  23.117  44.367   0.865
 6198W        W67487  33.448  30.932  11.037
 6199W        W67488  19.122  10.642  11.937
 6200W        W67489  30.517  29.638   1.865
 6201W        W67490  32.088  28.526  13.404
 6202W        W67491   0.474  25.209   2.357
 6203W        W67492  25.123  42.500   0.409
 6204W        W67493  31.916  25.471  12.957
 6205W        W67494  28.155  15.190   1.781
 6206W        W67495  38.493  40.990   2.212
 6207W        W67496  28.488   0.322  11.408
 6208W        W67497  32.922  28.996   1.428
 6209W        W67498  17.299  33.875  14.790
 6210W        W67499  16.219   6.720   3.650
 6211W        W67500   3.721   2.773  13.322
 6212W        W67501  34.955  23.105   4.318
 6213W        W67502   5.418  10.850  14.784
 6214W        W67503  18.638  42.817   4.608
 6215W        W67504  39.835  42.464   1.432
 6216W        W67505   0.426  13.632  13.367
 6217W        W67506  20.187   8.268  11.544
 6218W        W67507  26.546  37.084   3.344
 6219W        W67508  30.516   4.926   3.653
 6220W        W67509  33.533  20.193   0.895
 6221W        W67510  34.525  42.419   3.363
 6222W        W67511  35.050   1.958  13.392
 6223W        W67512   1.388  14.684  14.807
 6224W        W67513  31.546  32.011  13.457
 6225W        W67514  13.804  12.634   1.874
 6226W        W67515  38.405  29.000   0.736
 6227W        W67516  29.000  41.504  12.031
 6228W        W67517  43.476  14.113  11.107
 6229W        W67518  24.005  23.068  14.298
 6230W        W67519   1.764  31.053   0.357
 6231W        W67520  19.667  30.051  14.463
 6232W        W67521  10.341   5.840  14.897
 6233W        W67522   7.724   5.695  14.369
 6234W        W67523  19.072  24.181   4.130
 6235W        W67524   9.236  12.612  13.418
 6236W        W67525  15.267  42.341   2.382
 6237W        W67526   4.931  22.203  11.029
 6238W        W67527   1.958  35.878   4.621
 6239W        W67528  21.713  36.501  12.828
 6240W        W67529  40.932  34.545  10.456
 6241W        W67530  37.439  21.542   4.775
 6242W        W67531   1.967   0.449  14.881
 6243W        W67532  13.746  40.530   1.263
 6244W        W67533   2.862  33.013   4.186
 6245W        W67534   3.370  20.227  12.885
 6246W        W67535  28.661  19.749   1.719
 6247W        W67536  16.153  42.375  13.472
 6248W        W67537  42.846  30.017  13.949
 6249W        W67538  30.498   4.334  14.406
 6250W        W67539   6.688   9.166   4.647
 6251W        W67540  14.620   1.334  13.372
 6252W        W67541   3.936  15.210  13.488
 6253W        W67542  15.777  33.065  14.461
 6254W        W67543  36.381  18.053   1.807
 6255W        W67544   6.323  35.025   2.393
 6256W        W67545  17.779   9.720   1.846
 6257W        W67546  31.636  39.473   0.967
 6258W        W67547  10.650  26.660   1.338
 6259W        W67548  43.436  29.114  14.480
 6260W        W67549  25.701  15.144  11.987
 6261W        W67550  31.996  42.815  13.935
 6262W        W67551  13.293   0.404  13.966
 6263W        W67552   5.302   4.227  13.962
 6264W        W67553  30.908  21.256   2.835
 6265W        W67554  29.097  33.902   4.670
 6266W        W67555   6.748  25.565   2.679
 6267W        W67556   2.411   9.148   2.210
 6268W        W67557   1.343  40.520   2.685
 6269W        W67558   5.291  38.955   0.304
 6270W        W67559  14.171  12.657   2.299
 6271W        W67560  24.153   4.340   2.323
 6272W        W67561   4.357   6.867   1.312
 6273W        W67562  18.202   1.738   1.317
 6274W        W67563  39.423  11.366  11.114
 6275W        W67564   9.270  23.225  10.472
 6276W        W67565  25.205  32.950  11.085
 6277W        W67566  16.739  13.797   3.303
 6278W        W67567  24.113  35.015   0.362
 6279W        W67568  27.196  24.031  13.434
 6280W        W67569  21.062  20.755  13.822
 6281W        W67570  34.880  10.294   4.211
 6282W        W67571  11.695  26.632   2.726
 6283W        W67572  19.048  41.984  13.921
 6284W        W67573  15.659  17.559  10.596
 6285W        W67574  21.681  26.163   4.203
 6286W        W67575  40.025   6.677  14.293
 6287W        W67576  15.294  25.119  11.404
 6288W        W67577  44.377  28.089  13.015
 6289W        W67578  12.328   3.280   3.295
 6290W        W67579  24.179  34.435   3.833
 6291W        W67580   8.221  24.179   1.230
 6292W        W67581   4.371  24.143  11.387
 6293W        W67582   1.441   5.341  12.486
 6294W        W67583  15.765   3.215   3.359
 6295W        W67584   1.425   8.341  12.023
 6296W        W67585  10.308  39.914  13.032
 6297W        W67586  24.225  11.283  10.644
 6298W        W67587   3.766  39.978  13.817
 6299W        W67588  28.066  22.157   2.250
 6300W        W67589  25.083  41.435   3.324
 6301W        W67590  38.471  44.873   3.833
 6302W        W67591  31.127  28.620  12.350
 6303W        W67592  43.980  36.528  12.502
 6304W        W67593  39.351   8.699  12.506
 6305W        W67594  38.895  34.568  10.619
 6306W        W67595  24.548  18.575  11.943
 6307W        W67596   3.327  31.637   4.749
 6308W        W67597  42.785   1.846   2.354
 6309W        W67598  40.430   7.805   1.831
 6310W        W67599   0.312  30.045  11.609
 6311W        W67600  18.564  25.179   4.666
 6312W        W67601  42.972  21.585   2.869
 6313W        W67602   8.340  40.356   1.779
 6314W        W67603   8.663  18.109  13.059
 6315W        W67604  15.670   7.213   4.719
 6316W        W67605  18.580  37.540  12.478
 6317W        W67606  19.736  14.287   2.244
 6318W        W67607  21.204  35.409   0.320
 6319W        W67608  13.631  28.946   0.473
 6320W        W67609  26.145  14.650   3.190
 6321W        W67610  41.408  18.177   2.741
 6322W        W67611  24.020   5.343   3.669
 6323W        W67612   8.379  42.807   0.740
 6324W        W67613  31.919  18.052   3.338
 6325W        W67614  21.118  29.648  11.432
 6326W        W67615   0.419  39.057  13.826
 6327W        W67616   1.970   4.227  10.596
 6328W        W67617   0.256  21.105   2.876
 6329W        W67618  40.501  25.080  14.458
 6330W        W67619  20.110  35.105  11.072
 6331W        W67620  40.920   7.873   3.728
 6332W        W67621  25.567  25.617  12.380
 6333W        W67622  14.177   1.918  14.432
 6334W        W67623   4.291  28.966   2.743
 6335W        W67624  27.191  16.312  11.593
 6336W        W67625  21.721  29.172  10.484
 6337W        W67626  24.032   3.265  11.108
 6338W        W67627  24.179  38.067  13.994
 6339W        W67628   0.900   3.456  14.371
 6340W        W67629  40.457   2.309  10.603
 6341W        W67630  12.125  26.109  10.448
 6342W        W67631  41.941   7.405  11.919
 6343W        W67632  39.482  39.975  11.411
 6344W        W67633  27.459  41.817   4.212
 6345W        W67634  24.636  31.641  10.607
 6346W        W67635  27.048   3.813   1.381
 6347W        W67636   4.845  10.250   5.086
 6348W        W67637  23.666  17.682   1.721
 6349W        W67638  44.948  30.050  14.411
 6350W        W67639  43.982   5.346  14.325
 6351W        W67640   2.429  33.001   0.884
 6352W        W67641  27.950  44.353   1.801
 6353W        W67642  23.174  20.582  10.403
 6354W        W67643  23.619  36.098  11.905
 6355W        W67644  30.020   1.403  13.936
 6356W        W67645   9.823  20.085  10.487
 6357W        W67646  12.308   3.749  14.801
 6358W        W67647  13.782   4.730   3.731
 6359W        W67648  24.988  18.768  13.532
 6360W        W67649  43.959  13.817   1.275
 6361W        W67650  42.471  31.575   4.816
 6362W        W67651  23.240   5.807  14.825
 6363W        W67652  15.224  36.878  11.533
 6364W        W67653  25.655  32.939   3.691
 6365W        W67654  44.835  32.030  14.370
 6366W        W67655   0.950  44.270  14.016
 6367W        W67656   5.281  35.528   2.724
 6368W        W67657  44.867  44.439  13.519
 6369W        W67658  13.141  38.910  12.876
 6370W        W67659  20.539  37.922  12.890
 6371W        W67660  40.358   7.397  12.006
 6372W        W67661  34.447   7.298   3.223
 6373W        W67662   0.966  26.177   3.643
 6374W        W67663  33.970  35.884   2.218
 6375W        W67664   1.917  20.039  11.475
 6376W        W67665  34.940  18.591  11.953
 6377W        W67666  38.531  20.090  12.442
 6378W        W67667   5.318  14.672   3.166
 6379W        W67668  21.550  25.645   1.843
 6380W        W67669  16.642   1.367   0.833
 6381W        W67670  12.345  40.938  12.540
 6382W        W67671  34.087  36.549   2.397
 6383W        W67672  31.079   4.344   3.286
 6384W        W67673   2.749  10.209  12.028
 6385W        W67674   2.877   3.920  11.060
 6386W        W67675  41.030  27.539   4.799
 6387W        W67676  14.116   0.814   2.862
 6388W        W67677   3.829  11.326   0.899
 6389W        W67678   9.199  33.391   1.213
 6390W        W67679  12.310  11.792   3.831
 6391W        W67680  30.519  40.828   1.717
 6392W        W67681   8.667   0.773  13.804
 6393W        W67682  41.440  23.617  14.958
 6394W        W67683  32.094   5.769  11.017
 6395W        W67684  37.870   6.884  10.629
 6396W        W67685  38.045  30.645   3.300
 6397W        W67686   4.314  22.173   0.397
 6398W        W67687  44.826  20.722   2.330
 6399W        W67688  35.489  17.635   2.687
 6400W        W67689  43.384  26.500   1.271
 6401W        W67690  38.382  44.878   1.212
 6402W        W67691   4.222  24.705  14.971
 6403W        W67692  38.381  38.540  14.828
 6404W        W67693   3.238  20.201  12.577
 6405W        W67694  22.539  41.415  12.913
 6406W        W67695  32.463  40.878  11.442
 6407W        W67696  25.107   0.474  11.069
 6408W        W67697   9.773  41.823  12.569
 6409W        W67698   9.172  28.005  12.373
 6410W        W67699  17.141   8.716   4.658
 6411W        W67700  26.551   3.714  11.539
 6412W        W67701  19.177  25.089   1.708
 6413W        W67702  19.070  16.734  12.580
 6414W        W67703   3.443  41.909  12.095
 6415W        W67704  41.514  30.620  11.472
 6416W        W67705   0.319  37.420  12.947
 6417W        W67706  41.514   5.424   4.759
 6418W        W67707  10.327  26.151   2.397
 6419W        W67708  39.461  20.146   3.386
 6420W        W67709   4.379  38.432   2.181
 6421W        W67710  37.336  20.114   2.897
 6422W        W67711  37.997  32.014  10.626
 6423W        W67712   1.239  27.121  13.315
 6424W        W67713  39.864  15.627   1.734
 6425W        W67714  12.333  44.757   5.116
 6426W        W67715  19.231  22.596   1.730
 6427W        W67716  19.144   0.987   4.613
 6428W        W67717  25.091  44.266  12.025
 6429W        W67718  14.624  19.645   5.643
 6430W        W67719   1.965  32.630   3.707
 6431W        W67720  38.459   5.828   1.376
 6432W        W67721  11.324  21.544   3.277
 6433W        W67722  36.557   3.930  12.364
 6434W        W67723  41.450  22.614  13.408
 6435W        W67724  30.112   4.392   4.211
 6436W        W67725  30.431  40.863   0.833
 6437W        W67726  11.355  19.694  10.432
 6438W        W67727  28.676  21.044   4.599
 6439W        W67728   6.795  20.613   3.710
 6440W        W67729  15.227   6.914   4.273
 6441W        W67730  25.183  41.347   0.729
 6442W        W67731  41.533  29.436  11.865
 6443W        W67732  18.070  21.042  12.992
 6444W        W67733  30.975  10.727  11.604
 6445W        W67734  43.004   9.214   4.134
 6446W        W67735  32.490  41.407   5.285
 6447W        W67736  21.528  33.989  14.423
 6448W        W67737  11.328  23.191  11.407
 6449W        W67738  30.420  29.146   3.282
 6450W        W67739  36.084  37.014  12.958
 6451W        W67740  12.801  22.699  14.882
 6452W        W67741  31.976  11.734  10.440
 6453W        W67742  23.572  30.579   4.255
 6454W        W67743  30.163  18.548  10.436
 6455W        W67744   8.357  27.993  11.899
 6456W        W67745   8.777   9.277  14.928
 6457W        W67746  17.569  22.114   0.443
 6458W        W67747   0.876  37.374   4.832
 6459W        W67748  17.605  12.300   4.688
 6460W        W67749  39.872  16.652  11.560
 6461W        W67750  30.053  17.643   0.785
 6462W        W67751  30.914  18.221  14.921
 6463W        W67752  24.716  39.504   1.776
 6464W        W67753  32.070  44.896  14.931
 6465W        W67754  20.119   7.775  14.004
 6466W        W67755  32.958  12.246   1.293
 6467W        W67756   8.306   5.202  11.069
 6468W        W67757   5.356  13.330   0.965
 6469W        W67758  16.075   7.726   1.423
 6470W        W67759   1.465  38.374   0.777
 6471W        W67760  25.109  11.738  12.954
 6472W        W67761  16.214  23.543  10.115
 6473W        W67762  10.649  41.512  10.892
 6474W        W67763  44.895  26.114   4.807
 6475W        W67764  32.004  11.813   2.314
 6476W        W67765  26.540  28.510   1.376
 6477W        W67766  14.661  41.949  14.315
 6478W        W67767  18.066  20.667   5.596
 6479W        W67768   4.276  30.606   3.201
 6480W        W67769  13.776  10.282  12.982
 6481W        W67770   6.864  12.620  13.059
 6482W        W67771  37.569  42.887  12.028
 6483W        W67772  42.906  23.206  13.413
 6484W        W67773  29.564  25.571  11.033
 6485W        W67774  18.685  28.149   1.737
 6486W        W67775   9.646  17.787   3.324
 6487W        W67776  37.372  10.645  12.855
 6488W        W67777  35.510  14.609  10.961
 6489W        W67778  26.620   4.896   0.866
 6490W        W67779  11.326   7.188  14.984
 6491W        W67780  28.465  31.563   0.367
 6492W        W67781  36.954  13.641  11.887
 6493W        W67782   4.352   1.339   3.168
 6494W        W67783  40.518  24.126  14.025
 6495W        W67784  34.489  42.876   3.826
 6496W        W67785  13.120  35.521  14.960
 6497W        W67786  19.244   7.880   3.246
 6498W        W67787  37.405  43.326   1.750
 6499W        W67788   7.172  32.434  11.538
 6500W        W67789  29.462  33.005  12.867
 6501W        W67790  36.416  41.850   1.740
 6502W        W67791  16.679  32.486  14.875
 6503W        W67792  34.978  23.643   3.662
 6504W        W67793   8.377   3.235   1.840
 6505W        W67794  32.106  19.669   0.309
 6506W        W67795  34.107  33.071   3.235
 6507W        W67796  26.548  44.789   1.758
 6508W        W67797  10.810  40.506   2.879
 6509W        W67798  26.132  13.256  13.429
 6510W        W67799  42.944  20.141  14.320
 6511W        W67800   9.213  40.014   0.293
 6512W        W67801  40.445  21.677   3.781
 6513W        W67802  42.289  17.629  13.494
 6514W        W67803  39.837  44.990   2.303
 6515W        W67804  43.018  13.262   4.284
 6516W        W67805   4.340  41.350   1.237
 6517W        W67806  20.729  21.084   5.283
 6518W        W67807  44.896  28.583  10.485
 6519W        W67808  44.463  14.806  11.945
 6520W        W67809  29.582   7.813   3.222
 6521W        W67810   5.886  43.452  10.997
 6522W        W67811  11.831  44.967  12.488
 6523W        W67812  43.927  35.560  14.449
 6524W        W67813  22.538  19.121  10.446
 6525W        W67814  28.004  31.122   3.742
 6526W        W67815  30.501  41.004  12.549
 6527W        W67816   1.918   3.779   4.326
 6528W        W67817  43.786   1.287   2.384
 6529W        W67818  43.799   5.416   2.874
 6530W        W67819  14.696   4.934   2.778
 6531W        W67820   5.878  28.641   1.919
 6532W        W67821  14.149   6.872  12.967
 6533W        W67822  42.782  43.841  13.887
 6534W        W67823  30.427  11.776   4.806
 6535W        W67824  13.319   3.414  11.866
 6536W        W67825  39.331  24.537  14.902
 6537W        W67826  37.469  26.683  11.606
 6538W        W67827   7.813   9.202  13.347
 6539W        W67828   1.914  20.028   4.336
 6540W        W67829  33.417  35.913   0.451
 6541W        W67830  42.335  27.099  12.987
 6542W        W67831  24.186  21.114   4.187
 6543W        W67832  28.544  12.238   9.576
 6544W        W67833  18.279   2.372   1.391
 6545W        W67834  42.500  35.962   1.882
 6546W        W67835  25.149  37.496   3.735
 6547W        W67836   0.315  12.841  13.809
 6548W        W67837  39.462   4.349  12.501
 6549W        W67838  13.291  15.637  12.834
 6550W        W67839  22.031   5.365  13.450
 6551W        W67840  26.017  26.962   0.478
 6552W        W67841  12.303  31.136   0.398
 6553W        W67842  37.898   8.221   4.131
 6554W        W67843  42.976  19.180  11.023
 6555W        W67844  28.955   1.848  12.403
 6556W        W67845  39.836  16.251  12.916
 6557W        W67846  18.620   8.177  10.471
 6558W        W67847   9.770  29.959  11.873
 6559W        W67848  15.582   3.355  10.623
 6560W        W67849  21.110  18.751   2.874
 6561W        W67850   8.709  19.658   3.769
 6562W        W67851  21.521  33.414   1.450
 6563W        W67852   0.364  19.758  12.876
 6564W        W67853  37.860  18.078   2.333
 6565W        W67854  41.811   0.764   4.158
 6566W        W67855  20.541   6.217  14.899
 6567W        W67856  13.271  24.227  14.309
 6568W        W67857  21.056  29.475   0.268
 6569W        W67858  40.381  25.531  14.811
 6570W        W67859   6.885  14.172   2.674
 6571W        W67860   7.287  12.218   2.681
 6572W        W67861  14.694  18.182  14.993
 6573W        W67862  34.929  32.076  14.426
 6574W        W67863  22.643  22.736  10.937
 6575W        W67864  30.475  25.137  11.956
 6576W        W67865  44.921  31.645  11.938
 6577W        W67866  14.203   1.959  13.002
 6578W        W67867   0.355  44.263  13.499
 6579W        W67868  39.501   4.854   3.190
 6580W        W67869  24.175   7.873  14.931
 6581W        W67870  44.932  18.725   4.300
 6582W        W67871  17.699   8.688  10.983
 6583W        W67872   7.204  11.774  10.898
 6584W        W67873  34.969   0.755   9.472
 6585W        W67874   4.815  16.740  11.104
 6586W        W67875  13.197   7.719  14.952
 6587W        W67876  36.457  28.579  13.542
 6588W        W67877   3.351  20.646  13.855
 6589W        W67878  37.391   5.895   2.381
 6590W        W67879  40.489  22.583  12.449
 6591W        W67880  21.585  13.667  10.540
 6592W        W67881  17.694   8.332  12.824
 6593W        W67882   6.313  10.187   0.878
 6594W        W67883  13.204  30.141  11.980
 6595W        W67884  19.176  21.122  11.545
 6596W        W67885  39.021  17.165  11.079
 6597W        W67886  34.572  26.968  14.464
 6598W        W67887   7.855   1.814   4.695
 6599W        W67888  27.510  37.556  12.436
 6600W        W67889  31.077   2.303   3.182
 6601W        W67890   4.933  21.733   0.338
 6602W        W67891  43.876  20.155   1.352
 6603W        W67892  36.496  41.004   4.657
 6604W        W67893  33.573   5.797   4.729
 6605W        W67894  14.637   9.679  11.064
 6606W        W67895  10.837   5.206   4.346
 6607W        W67896  39.521  21.167   9.963
 6608W        W67897  17.761  28.980  12.060
 6609W        W67898   3.752  12.840  14.387
 6610W        W67899   3.376  13.259   5.302
 6611W        W67900  15.584  26.034   2.238
 6612W        W67901  24.055   1.243  14.381
 6613W        W67902  20.054  30.580  13.964
 6614W        W67903  36.439  13.310  10.551
 6615W        W67904  37.477   9.230   3.302
 6616W        W67905  14.779  20.647   0.796
 6617W        W67906  11.739  35.954  10.518
 6618W        W67907   1.255  25.119  11.520
 6619W        W67908   0.979   0.287  10.931
 6620W        W67909  42.988  38.367   3.257
 6621W        W67910  27.582  28.554  12.971
 6622W        W67911  19.129   3.301   2.822
 6623W        W67912   7.300   0.965  11.929
 6624W        W67913   8.702  32.031  11.600
 6625W        W67914   1.285  41.843   2.306
 6626W        W67915  29.612   5.934   0.871
 6627W        W67916  24.988  44.820  12.364
 6628W        W67917  24.210  41.493  12.925
 6629W        W67918  23.592  14.202   2.321
 6630W        W67919  34.517  21.558  10.981
 6631W        W67920  37.344   1.947  10.583
 6632W        W67921  38.553  10.815  12.416
 6633W        W67922   7.331  16.270  11.085
 6634W        W67923  23.188  37.395   0.355
 6635W        W67924  14.321  10.299   3.778
 6636W        W67925  19.245  22.189   4.197
 6637W        W67926  33.960  23.518   3.374
 6638W        W67927   3.307  36.590  13.505
 6639W        W67928  16.214  18.778  10.108
 6640W        W67929  15.216  36.997  12.006
 6641W        W67930  37.863   5.914   2.240
 6642W        W67931  26.065  26.033   9.495
 6643W        W67932  12.152   8.729   4.616
 6644W        W67933  36.347  14.717  10.439
 6645W        W67934  12.812  42.984   4.138
 6646W        W67935  10.681  23.680   2.697
 6647W        W67936  44.299  15.127   3.676
 6648W        W67937  23.646  19.205   2.281
 6649W        W67938  26.643  39.896  13.462
 6650W        W67939   5.256  28.937  12.971
 6651W        W67940  19.715  18.155   0.802
 6652W        W67941  38.418   5.435   3.311
 6653W        W67942  38.486  21.063   9.627
 6654W        W67943  21.563  42.991   2.242
 6655W        W67944   7.824  41.887   2.202
 6656W        W67945  20.058  26.618  10.524
 6657W        W67946  28.044  42.405   1.913
 6658W        W67947  24.673  26.110   0.868
 6659W        W67948   1.893   0.485  12.948
 6660W        W67949  14.255  33.552  11.900
 6661W        W67950   8.320  25.694  12.422
 6662W        W67951   3.408  30.142   3.150
 6663W        W67952  35.510   2.268  10.568
 6664W        W67953  25.972  17.254   2.685
 6665W        W67954  27.469   2.852   4.272
 6666W        W67955  14.134  20.752   1.259
 6667W        W67956  10.667  18.269   3.184
 6668W        W67957  11.662  31.629   3.222
 6669W        W67958  44.979  30.438   0.879
 6670W        W67959  11.324  12.817   1.320
 6671W        W67960  25.596   6.350   4.241
 6672W        W67961  23.006  16.088   0.843
 6673W        W67962  32.416  20.627  10.934
 6674W        W67963   1.360  41.917  13.348
 6675W        W67964  25.133  40.404  13.352
 6676W        W67965  10.287  26.626   3.749
 6677W        W67966  28.485  39.009   0.442
 6678W        W67967  21.037  23.732  11.472
 6679W        W67968   7.348  31.492  12.048
 6680W        W67969  35.925  25.633   0.751
 6681W        W67970  16.205  20.170  10.489
 6682W        W67971  17.753  10.352  10.573
 6683W        W67972  42.840   3.826  11.037
 6684W        W67973  21.241  29.560  13.395
 6685W        W67974  35.571  16.811   2.897
 6686W        W67975   2.770  37.454  10.495
 6687W        W67976   2.348  22.225  12.087
 6688W        W67977   8.180  15.795   2.891
 6689W        W67978   4.263  40.352  11.062
 6690W        W67979  37.931  40.026   3.182
 6691W        W67980  27.635  40.455   1.432
 6692W        W67981   5.413  13.666   0.772
 6693W        W67982   5.750  44.378   0.797
 6694W        W67983   4.911  15.241  10.984
 6695W        W67984   9.883  21.195  11.508
 6696W        W67985  27.467  20.718   2.735
 6697W        W67986   4.431  20.723   2.823
 6698W        W67987   4.444  13.755   0.335
 6699W        W67988  14.798  19.124   1.891
 6700W        W67989  12.158  13.244  11.447
 6701W        W67990  28.630  37.439  14.483
 6702W        W67991  36.981   8.788  12.985
 6703W        W67992  22.185   8.223   3.157
 6704W        W67993  23.719  44.412   1.835
 6705W        W67994   5.278  16.642   4.206
 6706W        W67995  22.638   4.778  11.013
 6707W        W67996  42.469  40.354  14.981
 6708W        W67997  24.015  18.273  11.866
 6709W        W67998  26.544  19.120  13.038
 6710W        W67999  32.434   4.888  13.397
 6711W        W68000   4.254  39.542   0.259
 6712W        W68001  17.259   4.313   2.728
 6713W        W68002   0.355  28.944  12.349
 6714W        W68003  41.959   0.784  13.336
 6715W        W68004  34.023  40.416   0.270
 6716W        W68005  22.566  27.035  12.015
 6717W        W68006   5.914  23.073   4.190
 6718W        W68007  24.575   8.674   2.265
 6719W        W68008   0.320  29.993   1.322
 6720W        W68009  41.416   2.790   4.311
 6721W        W68010  17.718  21.083  14.988
 6722W        W68011  11.300   8.226  12.518
 6723W        W68012  37.561  28.540  13.816
 6724W        W68013  38.018  36.019   2.384
 6725W        W68014  23.182  16.757  14.924
 6726W        W68015   2.920  17.699   1.329
 6727W        W68016  26.982  38.942   1.252
 6728W        W68017  39.015  30.566   1.413
 6729W        W68018  36.975  11.252   1.346
 6730W        W68019  39.423  10.206  11.956
 6731W        W68020  11.732  40.039  11.465
 6732W        W68021  14.181  32.988   4.833
 6733W        W68022   1.867  31.595   4.732
 6734W        W68023  28.543  34.118  12.050
 6735W        W68024   8.379  11.144   2.709
 6736W        W68025  34.993  37.450   2.413
 6737W        W68026  37.393  10.832   2.725
 6738W        W68027   1.315  27.495  13.515
 6739W        W68028   0.837  26.518   4.276
 6740W        W68029  23.558  16.802  12.411
 6741W        W68030   7.741  31.141  11.924
 6742W        W68031  36.992  27.191   3.683
 6743W        W68032   6.760  23.587   9.654
 6744W        W68033  15.305  38.436  12.096
 6745W        W68034   0.257   5.393  10.516
 6746W        W68035  33.916  37.924   0.426
 6747W        W68036   6.733  19.182  11.508
 6748W        W68037  18.260  14.245   4.780
 6749W        W68038  41.877  24.985   1.717
 6750W        W68039   7.395  37.055  11.873
 6751W        W68040  24.219  19.757  13.406
 6752W        W68041  41.843  38.440  13.047
 6753W        W68042  40.427   1.350   4.679
 6754W        W68043  20.598  35.511   3.364
 6755W        W68044   3.815  13.242   2.665
 6756W        W68045  25.708  38.911   2.680
 6757W        W68046   9.728  28.530   4.816
 6758W        W68047  30.475  18.768   1.897
 6759W        W68048   9.149  27.461   2.850
 6760W        W68049  44.423  17.744  10.441
 6761W        W68050  24.541  24.208  10.549
 6762W        W68051  34.519  35.466   4.705
 6763W        W68052  35.108  39.549   2.689
 6764W        W68053   8.229   0.337  11.091
 6765W        W68054  29.008  35.042   3.637
 6766W        W68055  16.183  21.725   1.419
 6767W        W68056  17.167  36.971   2.301
 6768W        W68057  27.010  36.576  12.093
 6769W        W68058  25.183   6.921   2.789
 6770W        W68059  20.552  23.119   2.855
 6771W        W68060  39.829  10.792  13.864
 6772W        W68061  39.338  11.269  13.814
 6773W        W68062   4.852  32.500   3.232
 6774W        W68063  34.466  26.019  11.379
 6775W        W68064  21.059  14.307   4.739
 6776W        W68065  33.910  15.094   4.780
 6777W        W68066  35.489  16.639   2.234
 6778W        W68067  29.432  15.204  14.293
 6779W        W68068   0.306  36.485  11.582
 6780W        W68069  23.589  30.134   0.886
 6781W        W68070  25.628  12.128   3.220
 6782W        W68071  35.862  10.166  14.971
 6783W        W68072   9.763   1.281  12.893
 6784W        W68073  16.252   9.713   4.180
 6785W        W68074  23.648  14.337   1.258
 6786W        W68075   6.739  11.266   4.658
 6787W        W68076  20.762  15.651   3.222
 6788W        W68077  36.036  39.429  11.923
 6789W        W68078  20.681  28.471   4.327
 6790W        W68079  28.662  30.925  10.404
 6791W        W68080   3.266  36.529  14.478
 6792W        W68081  20.129  17.133   3.706
 6793W        W68082   0.821  39.490   4.121
 6794W        W68083  29.101  24.069  13.988
 6795W        W68084  43.369   6.709  14.281
 6796W        W68085  24.180  31.457   3.382
 6797W        W68086  14.777  30.995  14.311
 6798W        W68087  35.531  24.167  13.345
 6799W        W68088  12.275  31.002   4.608
 6800W        W68089  39.922  13.610   1.869
 6801W        W68090  31.905  15.760   2.184
 6802W        W68091   7.261  34.425   5.230
 6803W        W68092  10.647  30.538   3.313
 6804W        W68093   2.777  38.902  12.462
 6805W        W68094   9.230  32.892  13.007
 6806W        W68095   3.350  12.720   2.771
 6807W        W68096  34.045  24.670  12.497
 6808W        W68097  44.400  38.331  10.405
 6809W        W68098  27.981  25.578   3.721
 6810W        W68099  16.118  21.023  14.318
 6811W        W68100  17.199  16.079  13.896
 6812W        W68101  30.984  23.102   0.257
 6813W        W68102   7.201  30.132   0.870
 6814W        W68103  24.573  19.284  10.108
 6815W        W68104  30.118  21.532   0.834
 6816W        W68105  11.667   6.792  14.834
 6817W        W68106  40.877  15.125  11.992
 6818W        W68107  24.680  21.163  12.353
 6819W        W68108   4.233  32.582  13.832
 6820W        W68109   8.865  32.514  13.473
 6821W        W68110  10.358  16.639  14.969
 6822W        W68111  43.996  28.122  10.509
 6823W        W68112  15.249  21.539   2.379
 6824W        W68113  19.283   4.922   2.263
 6825W        W68114  19.609   9.674   4.733
 6826W        W68115  35.372  24.508  14.452
 6827W        W68116  36.092  41.819  14.830
 6828W        W68117  10.845  17.691   0.837
 6829W        W68118  35.888   4.751  14.323
 6830W        W68119   9.363   2.426   1.765
 6831W        W68120   5.730  22.697   0.413
 6832W        W68121  11.293  38.332   1.269
 6833W        W68122  37.420   4.422   1.305
 6834W        W68123   8.333  25.014  12.409
 6835W        W68124  35.563   5.905   4.696
 6836W        W68125  29.540  18.764   4.166
 6837W        W68126   9.266  34.908   0.829
 6838W        W68127   4.770  13.684  14.456
 6839W        W68128  31.405   0.280  11.603
 6840W        W68129   7.411  32.988   1.892
 6841W        W68130  12.164  12.836  11.599
 6842W        W68131  23.153  18.758   0.782
 6843W        W68132  29.049   9.758  12.932
 6844W        W68133  11.633  29.973   2.290
 6845W        W68134  31.546  19.619  12.012
 6846W        W68135  27.134   7.828   5.194
 6847W        W68136  19.240  33.556  11.449
 6848W        W68137  21.680  13.723   3.185
 6849W        W68138  13.763  40.043   3.689
 6850W        W68139   5.239   0.901   2.205
 6851W        W68140  36.422  31.423  13.308
 6852W        W68141  20.188  27.595   0.914
 6853W        W68142  35.553  34.118  11.591
 6854W        W68143  20.241  17.242  10.088
 6855W        W68144  44.271  22.995  14.937
 6856W        W68145  39.400  23.224   2.364
 6857W        W68146   1.950  14.799   4.630
 6858W        W68147   3.882  12.733  13.326
 6859W        W68148   2.911  40.500  11.072
 6860W        W68149  26.182  34.527  12.076
 6861W        W68150  34.387   2.343  14.339
 6862W        W68151   1.346  16.748   2.741
 6863W        W68152  35.961  40.534   2.721
 6864W        W68153  16.749  34.402  11.019
 6865W        W68154  35.076  35.913   1.805
 6866W        W68155  41.824  33.556  14.409
 6867W        W68156  32.396  34.056  12.382
 6868W        W68157  13.654  30.540  12.465
 6869W        W68158   3.875  12.228  11.395
 6870W        W68159  41.982   6.806  10.438
 6871W        W68160  34.864  41.999   1.788
 6872W        W68161  16.757  27.536  11.032
 6873W        W68162  12.137   2.352   2.807
 6874W        W68163  22.577  11.818  12.507
 6875W        W68164   9.670  36.356   2.691
 6876W        W68165   8.195   7.803   1.243
 6877W        W68166  21.035  25.041   0.265
 6878W        W68167  21.210   2.419  12.431
 6879W        W68168  12.824  42.475   1.411
 6880W        W68169   8.761  28.066  13.036
 6881W        W68170  44.282  28.154   0.826
 6882W        W68171  28.619  24.532  11.914
 6883W        W68172  38.556  31.932   3.251
 6884W        W68173   9.765   2.461   3.819
 6885W        W68174  21.695  31.439  13.323
 6886W        W68175  13.763  15.269   0.820
 6887W        W68176   0.956  30.935   2.873
 6888W        W68177  33.885  24.519   2.191
 6889W        W68178  24.102   8.672  10.018
 6890W        W68179   1.465   2.451   4.621
 6891W        W68180   9.358   3.383  12.521
 6892W        W68181  27.463   3.244   0.882
 6893W        W68182  22.218  23.633   0.952
 6894W        W68183  29.521  22.238   0.770
 6895W        W68184   9.727   0.949   1.713
 6896W        W68185  44.933  42.952   1.764
 6897W        W68186   0.987  41.803   1.236
 6898W        W68187  28.567  22.021  14.883
 6899W        W68188  21.680  13.215   2.329
 6900W        W68189  41.484  33.605   3.279
 6901W        W68190  16.570  26.536  13.938
 6902W        W68191   0.913  15.184  11.121
 6903W        W68192   7.896   4.919  12.569
 6904W        W68193  29.017  43.902  14.348
 6905W        W68194  33.057  37.933   3.215
 6906W        W68195  24.161  36.367   4.269
 6907W        W68196  28.073  19.077   4.337
 6908W        W68197   4.405  36.049   4.684
 6909W        W68198  42.777  32.054  10.929
 6910W        W68199  24.048   7.848   4.643
 6911W        W68200  38.333   9.825   0.765
 6912W        W68201   3.874  18.764  10.159
 6913W        W68202   8.755  34.098   0.460
 6914W        W68203  34.567  27.605   0.850
 6915W        W68204  43.516  43.319   0.881
 6916W        W68205  14.756   5.722   0.755
 6917W        W68206  34.891  20.218  14.895
 6918W        W68207  18.133   8.211  12.901
 6919W        W68208  20.256  16.687  14.415
 6920W        W68209  14.663  13.722  14.783
 6921W        W68210  18.146  38.475   1.384
 6922W        W68211   6.874  15.233   3.149
 6923W        W68212  16.777  36.913  12.891
 6924W        W68213  41.366  36.909  12.487
 6925W        W68214   8.773   3.298   3.819
 6926W        W68215  12.255  11.371   1.868
 6927W        W68216  17.072  44.904   0.783
 6928W        W68217  19.260   4.337  11.936
 6929W        W68218  14.320   6.299  13.963
 6930W        W68219  20.142  21.250  13.863
 6931W        W68220   5.785  15.788  11.964
 6932W        W68221  42.998  26.578  13.536
 6933W        W68222  29.938  35.550  13.809
 6934W        W68223  19.773  28.993   0.780
 6935W        W68224  33.609  31.958  12.839
 6936W        W68225   3.936   6.258  12.986
 6937W        W68226  39.479  41.376   4.268
 6938W        W68227  31.541   6.252  11.518
 6939W        W68228  22.697  37.393   1.400
 6940W        W68229  28.038  19.735   0.366
 6941W        W68230  28.564  36.572   1.430
 6942W        W68231  24.567  44.949  14.367
 6943W        W68232  20.761   5.713   3.639
 6944W        W68233  26.180   2.722  14.928
 6945W        W68234  34.388  40.837  14.911
 6946W        W68235  30.482  21.108  10.899
 6947W        W68236  35.045  39.853   4.611
 6948W        W68237  25.488  38.967  10.927
 6949W        W68238  23.207  17.155  11.411
 6950W        W68239   1.939  44.361   1.402
 6951W        W68240  18.666  10.726   4.631
 6952W        W68241  21.659  36.457  14.821
 6953W        W68242  13.158  25.075  14.858
 6954W        W68243  32.074   8.232   1.825
 6955W        W68244  34.076  13.250   1.231
 6956W        W68245  29.057  43.347   0.876
 6957W        W68246  25.179   5.809  14.917
 6958W        W68247  11.857  31.044   4.294
 6959W        W68248  34.066  24.072  13.056
 6960W        W68249   6.352  12.226  11.950
 6961W        W68250  44.352  39.868   4.618
 6962W        W68251  30.097   5.828  13.533
 6963W        W68252  29.572  42.922  10.100
 6964W        W68253   8.184   4.804  13.040
 6965W        W68254  40.848  38.905  12.351
 6966W        W68255  39.830   0.338  13.992
 6967W        W68256  10.191  24.099  10.903
 6968W        W68257  24.000  19.745  12.850
 6969W        W68258  43.928   8.681   0.905
 6970W        W68259  25.691  36.974   3.857
 6971W        W68260  15.171  20.577   2.832
 6972W        W68261   1.918  24.036   4.625
 6973W        W68262  11.642  44.779   1.748
 6974W        W68263  21.195  44.502   3.147
 6975W        W68264   5.228  15.674  13.377
 6976W        W68265  21.575  43.000  12.087
 6977W        W68266  11.341  30.972  11.119
 6978W        W68267  36.002   6.232  12.838
 6979W        W68268   5.217  25.701   3.282
 6980W        W68269  31.421  16.611   3.757
 6981W        W68270  44.313  33.486   4.665
 6982W        W68271  31.461  17.616   3.360
 6983W        W68272  16.077  17.133  13.311
 6984W        W68273  44.320  29.036  13.989
 6985W        W68274  39.505  28.013   3.336
 6986W        W68275  14.679  34.614  14.772
 6987W        W68276  39.910   0.307  10.978
 6988W        W68277  25.033  21.710   0.472
 6989W        W68278   5.193  19.185  11.958
 6990W        W68279  33.983  30.414   1.340
 6991W        W68280   8.709   7.845   0.926
 6992W        W68281  15.661  39.514  11.084
 6993W        W68282  19.241   4.281   3.311
 6994W        W68283  42.891  34.036   4.767
 6995W        W68284  40.342  10.177  11.472
 6996W        W68285  38.005   2.434   3.654
 6997W        W68286  20.633  42.783   0.755
 6998W        W68287  11.701  41.440  14.436
 6999W        W68288  23.012   7.382   2.817
 7000W        W68289  36.568  37.840  11.086
 7001W        W68290  41.010  16.092   9.987
 7002W        W68291  19.257  18.664   3.832
 7003W        W68292  24.722  15.164   3.653
 7004W        W68293  15.653  23.151  12.423
 7005W        W68294  30.468  20.147   2.832
 7006W        W68295  28.042   9.872  12.089
 7007W        W68296  34.894  35.072  11.964
 7008W        W68297  37.085  22.133   2.888
 7009W        W68298  21.532  21.154   1.390
 7010W        W68299  26.539  42.352  14.459
 7011W        W68300  17.216   2.317  13.502
 7012W        W68301  23.522  40.492   3.754
 7013W        W68302  25.554   7.868  11.966
 7014W        W68303  14.317  36.418  13.854
 7015W        W68304  12.649  21.169  14.516
 7016W        W68305  40.002   4.264  11.434
 7017W        W68306  40.885  13.836   1.361
 7018W        W68307   6.258  26.976   4.229
 7019W        W68308  13.284  36.390  10.471
 7020W        W68309  25.597  44.951   1.766
 7021W        W68310  34.546   1.376   4.204
 7022W        W68311  18.709  44.788   0.367
 7023W        W68312  44.851  22.096   4.155
 7024W        W68313  36.442  10.865  10.890
 7025W        W68314  40.933  26.079   1.909
 7026W        W68315  14.276  12.666  12.418
 7027W        W68316  20.682  25.139   1.753
 7028W        W68317  42.998  17.283   3.315
 7029W        W68318  37.408  13.782  11.578
 7030W        W68319   7.860  33.588   4.613
 7031W        W68320  32.607  33.100   4.135
 7032W        W68321   2.829  41.336   4.707
 7033W        W68322  12.197   6.706   4.254
 7034W        W68323  34.864  17.141   3.770
 7035W        W68324  41.344  44.293  10.599
 7036W        W68325   0.887  43.846  14.370
 7037W        W68326   9.177   5.884   1.903
 7038W        W68327  13.604  40.802  11.582
 7039W        W68328  21.087  34.955   2.776
 7040W        W68329  33.477   7.677   3.193
 7041W        W68330  13.772   8.212   4.204
 7042W        W68331  29.938  21.586  14.387
 7043W        W68332   1.910  44.004  14.425
 7044W        W68333  17.098  27.149  11.058
 7045W        W68334  39.047  43.941  14.999
 7046W        W68335  18.125  14.262  14.801
 7047W        W68336  43.502  18.558   2.860
 7048W        W68337  16.210  44.964  14.914
 7049W        W68338  42.870  28.604   0.880
 7050W        W68339   5.273   1.420  11.884
 7051W        W68340  33.597  40.847  13.026
 7052W        W68341  16.159  19.138   2.319
 7053W        W68342   1.911  26.674  12.520
 7054W        W68343  19.182  20.615   0.348
 7055W        W68344  23.106  23.071  13.845
 7056W        W68345  17.643  37.537   1.724
 7057W        W68346  39.549  22.079  14.422
 7058W        W68347   3.419   5.862   1.210
 7059W        W68348  42.348  38.976  11.578
 7060W        W68349  26.594   0.278   0.448
 7061W        W68350   7.271  33.940   0.479
 7062W        W68351   4.423   7.292  11.043
 7063W        W68352  41.506   5.241  14.940
 7064W        W68353   1.835  19.101  12.054
 7065W        W68354  20.094  26.567   2.799
 7066W        W68355   5.307  12.212   4.241
 7067W        W68356  10.347  33.452   4.212
 7068W        W68357  43.846  19.646   4.126
 7069W        W68358  13.172  10.171  12.375
 7070W        W68359  24.715  36.445  13.794
 7071W        W68360  29.611  29.431   2.341
 7072W        W68361  43.505  28.475  12.088
 7073W        W68362  39.316  13.668  14.475
 7074W        W68363  28.620  15.647  11.078
 7075W        W68364  18.577   2.801  12.920
 7076W        W68365  25.109  13.158  14.499
 7077W        W68366  21.229  28.179  10.976
 7078W        W68367  20.120  16.189  10.997
 7079W        W68368   3.816  21.538  11.592
 7080W        W68369  38.358  21.580   9.637
 7081W        W68370  27.452   4.270  14.936
 7082W        W68371  15.194   2.818  12.391
 7083W        W68372  22.690  44.936  12.370
 7084W        W68373   7.209  27.138  13.539
 7085W        W68374  25.665  37.370   1.377
 7086W        W68375  11.808  41.366  13.496
 7087W        W68376  44.382  22.665  13.885
 7088W        W68377  31.142  42.455   2.816
 7089W        W68378  12.134  36.952   3.201
 7090W        W68379  31.958   3.314  13.392
 7091W        W68380  34.586  17.096   2.664
 7092W        W68381  19.095  44.965   1.880
 7093W        W68382  32.600  31.606   3.239
 7094W        W68383  16.731  27.985   4.666
 7095W        W68384  43.441   0.790  12.543
 7096W        W68385  41.890  43.019   4.259
 7097W        W68386  32.534  14.748  12.833
 7098W        W68387  19.562  14.737  14.417
 7099W        W68388   5.345  40.351  14.836
 7100W        W68389  11.276  25.567  14.448
 7101W        W68390  10.301  42.777   0.805
 7102W        W68391  38.408  24.697  12.544
 7103W        W68392  11.726  17.083  11.075
 7104W        W68393  38.903  37.998   3.868
 7105W        W68394  36.349  35.013  13.334
 7106W        W68395  33.396  18.754   2.866
 7107W        W68396  12.247  35.892  12.915
 7108W        W68397  10.877  25.106  10.591
 7109W        W68398  35.094  25.191   1.418
 7110W        W68399  21.025  36.547   1.796
 7111W        W68400  11.643  27.486  13.363
 7112W        W68401  42.937  22.699   2.251
 7113W        W68402   9.810  41.994  13.408
 7114W        W68403  26.584  38.070  13.009
 7115W        W68404   7.223   6.348  10.410
 7116W        W68405  43.457  14.141  14.453
 7117W        W68406   8.894  39.946  14.828
 7118W        W68407  19.181  44.449  11.928
 7119W        W68408  32.066   9.818   3.669
 7120W        W68409   3.270  17.286   0.934
 7121W        W68410   8.273  16.808   3.800
 7122W        W68411   1.850  24.497   4.701
 7123W        W68412  27.479  17.159  14.450
 7124W        W68413   8.196  20.083  14.931
 7125W        W68414  28.447  36.938   1.919
 7126W        W68415  43.799   8.312   3.266
 7127W        W68416  40.469  17.693   1.245
 7128W        W68417  35.438  12.200  12.355
 7129W        W68418  41.014  10.242  13.530
 7130W        W68419   9.743  21.240  12.393
 7131W        W68420  18.285  23.048   0.889
 7132W        W68421  17.603  11.136  10.436
 7133W        W68422  19.695  38.553   4.729
 7134W        W68423  39.840  28.949   3.205
 7135W        W68424  26.686  29.543   2.832
 7136W        W68425  25.693  19.066  11.385
 7137W        W68426  28.081  42.466   2.416
 7138W        W68427   1.394  13.309   4.260
 7139W        W68428  14.100   6.387  12.384
 7140W        W68429  40.506  28.675  14.514
 7141W        W68430   8.811   7.744  13.975
 7142W        W68431  11.757  29.538   3.676
 7143W        W68432  16.254   4.413  14.938
 7144W        W68433  22.147  40.961  14.863
 7145W        W68434  10.144  39.364  12.889
 7146W        W68435   7.883  42.435  11.533
 7147W        W68436   7.299  40.323  12.407
 7148W        W68437  44.849  14.158  10.524
 7149W        W68438  23.504  22.709  14.799
 7150W        W68439  22.561  15.109   4.789
 7151W        W68440   1.974  13.752  11.985
 7152W        W68441   2.270  19.706   1.805
 7153W        W68442  21.191  34.003  11.921
 7154W        W68443  40.853  23.629   1.421
 7155W        W68444  22.603  37.945  11.579
 7156W        W68445   6.186  11.686   4.631
 7157W        W68446  16.592  41.982   0.900
 7158W        W68447  24.030  28.972  12.509
 7159W        W68448  40.536   1.772  12.541
 7160W        W68449   0.882  18.555   2.318
 7161W        W68450  37.919  27.180   4.114
 7162W        W68451  40.352   4.259  14.277
 7163W        W68452  42.453  15.186   1.443
 7164W        W68453  25.056   9.873   1.803
 7165W        W68454  38.498  20.164   3.684
 7166W        W68455  33.119  18.235   1.793
 7167W        W68456  38.384  13.316   2.664
 7168W        W68457  21.669  30.035   2.806
 7169W        W68458  36.360  23.545  10.974
 7170W        W68459  39.537  30.136  14.871
 7171W        W68460  35.589   0.762   1.761
 7172W        W68461  41.955  24.981  14.294
 7173W        W68462  33.518  26.201   2.222
 7174W        W68463   4.762  21.722  13.031
 7175W        W68464   3.921  18.727   2.666
 7176W        W68465   4.741  34.528  11.857
 7177W        W68466  11.332  40.836  14.475
 7178W        W68467  28.095   3.277  13.825
 7179W        W68468  21.150   7.784  12.071
 7180W        W68469  20.219  16.608   1.385
 7181W        W68470  37.337  14.307  12.969
 7182W        W68471   0.750  44.385   0.951
 7183W        W68472  22.620   4.821  10.527
 7184W        W68473  43.297  29.108  13.395
 7185W        W68474   8.361  31.582   0.899
 7186W        W68475  30.017  14.742  13.894
 7187W        W68476  16.088   0.333   2.234
 7188W        W68477  36.902  29.143  14.432
 7189W        W68478   7.888   8.673   2.200
 7190W        W68479  44.003  15.206  13.318
 7191W        W68480  21.074   1.421  14.476
 7192W        W68481   8.312  43.956  13.827
 7193W        W68482  30.542  44.421  13.014
 7194W        W68483  13.810  30.051  13.859
 7195W        W68484   8.242  41.043  12.908
 7196W        W68485  33.067   9.686   2.776
 7197W        W68486   1.842  44.869   2.893
 7198W        W68487   7.411  22.620   1.211
 7199W        W68488  24.105  44.800   4.270
 7200W        W68489   6.829   8.885  14.883
 7201W        W68490   9.321  10.724  11.108
 7202W        W68491  15.749   5.714   4.133
 7203W        W68492   7.705  43.789  10.632
 7204W        W68493   5.734  32.509  12.356
 7205W        W68494   0.403   7.740  11.109
 7206W        W68495  32.950   8.370  10.545
 7207W        W68496  22.718  31.473   2.330
 7208W        W68497  40.999  36.447  13.895
 7209W        W68498  12.658   1.967  11.393
 7210W        W68499  20.088  14.819  14.497
 7211W        W68500  44.424  44.291   4.629
 7212W        W68501  37.080  10.339   1.450
 7213W        W68502   9.286  22.016  11.118
 7214W        W68503  11.788   0.366   2.764
 7215W        W68504  28.098   4.396   1.390
 7216W        W68505  44.978  26.597   4.831
 7217W        W68506   1.314   6.402   3.228
 7218W        W68507  38.343  30.012  11.496
 7219W        W68508  27.629  35.852  12.885
 7220W        W68509  15.612  35.932  10.600
 7221W        W68510  31.432  13.337  12.025
 7222W        W68511  27.523  18.094   0.344
 7223W        W68512   0.396  44.315   4.326
 7224W        W68513   2.941   0.863   1.822
 7225W        W68514  11.365  43.960   2.388
 7226W        W68515  11.646  15.166   2.186
 7227W        W68516   0.749   6.804   4.601
 7228W        W68517  38.851  39.370   3.215
 7229W        W68518   0.449   8.331  12.928
 7230W        W68519  33.458   0.898   2.381
 7231W        W68520  30.545   8.331  12.951
 7232W        W68521  14.116  32.934  10.502
 7233W        W68522  12.828  28.973  10.553
 7234W        W68523  13.750  20.200  13.911
 7235W        W68524   1.382  10.641  14.353
 7236W        W68525  25.044   1.752   0.840
 7237W        W68526  17.101  39.559   0.799
 7238W        W68527  42.423  22.579  13.442
 7239W        W68528   5.932  11.635   4.141
 7240W        W68529  43.886  24.621  13.831
 7241W        W68530  13.195  20.620   5.258
 7242W        W68531  40.010  29.565   3.822
 7243W        W68532  44.425   2.855   0.328
 7244W        W68533  14.661  11.741  10.072
 7245W        W68534   4.855  32.614   1.328
 7246W        W68535  43.462   6.391  13.988
 7247W        W68536  38.564  42.029  14.360
 7248W        W68537  43.399  29.025   0.906
 7249W        W68538  20.727  10.311   0.765
 7250W        W68539  10.806   5.369   3.244
 7251W        W68540  14.295  34.010  11.402
 7252W        W68541  38.894  41.531   3.808
 7253W        W68542  11.179  36.942   4.803
 7254W        W68543  29.065  31.125  10.464
 7255W        W68544  33.073   4.227   4.679
 7256W        W68545  26.676  26.550  11.005
 7257W        W68546   1.934  31.546  14.862
 7258W        W68547  44.958  39.358   2.284
 7259W        W68548  21.712  11.363  12.934
 7260W        W68549  43.371  26.070  14.394
 7261W        W68550  31.095  44.909  12.449
 7262W        W68551  30.447  38.885   1.324
 7263W        W68552   4.861  13.297   1.366
 7264W        W68553  35.060  29.016  12.065
 7265W        W68554  22.719  19.181   2.682
 7266W        W68555  13.192   4.288  10.023
 7267W        W68556  22.139  42.413  10.934
 7268W        W68557   7.330  39.955  13.871
 7269W        W68558   7.807   4.431  11.961
 7270W        W68559  21.229   2.821   3.824
 7271W        W68560  16.087  22.617  12.542
 7272W        W68561  11.368  43.015   3.653
 7273W        W68562  40.343  29.981  10.427
 7274W        W68563   2.734  32.973  12.395
 7275W        W68564   1.751  21.557   1.248
 7276W        W68565  43.419   0.484  14.282
 7277W        W68566   0.311  34.934   3.662
 7278W        W68567  11.855  24.654   1.227
 7279W        W68568  18.099  44.356  11.467
 7280W        W68569  41.305  19.549   3.300
 7281W        W68570   3.915  15.762  14.427
 7282W        W68571  15.320  18.123   1.272
 7283W        W68572  38.338  20.577  11.882
 7284W        W68573  31.446  20.174   3.646
 7285W        W68574  25.105  22.216  14.281
 7286W        W68575  30.419  37.558  14.407
 7287W        W68576   2.774   1.317   4.715
 7288W        W68577  28.043  18.102  10.513
 7289W        W68578   7.680   4.302  10.476
 7290W        W68579  18.087  20.666   2.327
 7291W        W68580   8.162   4.234   3.638
 7292W        W68581  30.003   8.867   1.772
 7293W        W68582   8.772   6.210   4.328
 7294W        W68583  13.721   2.754  13.801
 7295W        W68584  11.741  33.539   1.411
 7296W        W68585  29.064  32.004   4.246
 7297W        W68586  22.624  44.311  12.062
 7298W        W68587  35.476  16.770   5.107
 7299W        W68588  26.489   3.322   4.347
 7300W        W68589   2.866  44.865   1.808
 7301W        W68590  16.806  30.536  12.468
 7302W        W68591  32.561  39.024   1.328
 7303W        W68592  24.579  20.707  13.871
 7304W        W68593  12.356  16.744  11.488
 7305W        W68594  19.147   8.755   0.857
 7306W        W68595  32.086  23.601  13.032
 7307W        W68596   0.465  14.726   4.195
 7308W        W68597  29.496   9.653  11.020
 7309W        W68598  28.506  33.033  14.867
 7310W        W68599  32.470  39.414   3.850
 7311W        W68600   4.288  22.149  14.913
 7312W        W68601  18.592  21.105  12.570
 7313W        W68602  30.412  25.965   0.819
 7314W        W68603  31.984  25.603  11.072
 7315W        W68604  26.509  22.621   3.383
 7316W        W68605   4.394  31.505  14.322
 7317W        W68606   0.308  38.911  11.589
 7318W        W68607   4.388  33.564  14.318
 7319W        W68608  43.469   1.359  10.498
 7320W        W68609  33.938   6.896   4.789
 7321W        W68610  44.427  11.653   3.766
 7322W        W68611  37.408   6.718   1.863
 7323W        W68612   7.192  19.269  12.888
 7324W        W68613  34.985  16.653  12.454
 7325W        W68614  43.496  21.078  14.480
 7326W        W68615  21.514  12.634  13.994
 7327W        W68616   2.829  31.601   0.764
 7328W        W68617  42.780  11.675  10.137
 7329W        W68618  19.630   4.867   0.275
 7330W        W68619  20.628  42.814  13.911
 7331W        W68620  30.508  24.154  13.499
 7332W        W68621  40.885  19.096  13.513
 7333W        W68622  20.522  16.102   2.283
 7334W        W68623  15.812   3.816  13.498
 7335W        W68624  34.426   1.250   1.426
 7336W        W68625  34.864  10.725  13.008
 7337W        W68626  25.060  17.158   2.812
 7338W        W68627   5.292   5.811   0.952
 7339W        W68628  40.422   0.336   2.839
 7340W        W68629  26.682  42.434  10.502
 7341W        W68630  21.512  35.539  14.861
 7342W        W68631   8.241  19.571  11.012
 7343W        W68632   8.361  34.463   2.362
 7344W        W68633  17.557  29.564   2.670
 7345W        W68634  39.936  36.414  14.312
 7346W        W68635  35.865  18.614  13.501
 7347W        W68636   2.362  40.863   0.937
 7348W        W68637  23.204  24.584  10.025
 7349W        W68638  41.004  30.102   3.197
 7350W        W68639  34.942   3.931  13.847
 7351W        W68640  28.508  26.677  13.365
 7352W        W68641  21.106  40.312   3.280
 7353W        W68642  15.641  22.240  12.082
 7354W        W68643  32.887  23.534   0.481
 7355W        W68644  31.913  30.149   0.845
 7356W        W68645  27.524   0.491  12.490
 7357W        W68646  36.844   8.739   4.160
 7358W        W68647  42.893   9.394   3.154
 7359W        W68648  39.977  38.379   4.648
 7360W        W68649  17.621  28.087   0.474
 7361W        W68650   9.827  42.927   0.276
 7362W        W68651  35.909  15.225   1.825
 7363W        W68652  16.587   7.305  10.984
 7364W        W68653   8.358   9.289   3.273
 7365W        W68654  41.868  17.068  11.559
 7366W        W68655  40.321  39.858  10.937
 7367W        W68656  18.224  42.309   3.725
 7368W        W68657  19.040  26.692  10.154
 7369W        W68658  14.286  12.676  13.514
 7370W        W68659  33.900   6.828  13.318
 7371W        W68660   5.242  34.916   3.192
 7372W        W68661  11.718   8.760   3.280
 7373W        W68662   6.898  20.734  11.044
 7374W        W68663  10.276  24.635  14.926
 7375W        W68664  17.305  14.771  10.956
 7376W        W68665  39.329  17.681   1.866
 7377W        W68666  42.985   6.834   4.229
 7378W        W68667   6.703  18.553   0.892
 7379W        W68668  27.593  17.694  13.390
 7380W        W68669   6.388  17.602  10.004
 7381W        W68670  41.902  27.961   1.830
 7382W        W68671  32.128  27.955   3.238
 7383W        W68672  13.837  30.090   4.141
 7384W        W68673  38.422  20.246  14.485
 7385W        W68674  37.057  39.466   2.822
 7386W        W68675   8.310  21.198  12.972
 7387W        W68676  18.086   6.422   0.810
 7388W        W68677  18.545  32.440   2.790
 7389W        W68678  37.487  37.544  11.425
 7390W        W68679   2.745  16.606   3.723
 7391W        W68680   9.191  18.626  10.537
 7392W        W68681  29.924  37.539   4.762
 7393W        W68682  25.656   3.864   1.352
 7394W        W68683  20.085  21.576   2.237
 7395W        W68684  15.650  27.188   0.806
 7396W        W68685  13.784  36.918  11.942
 7397W        W68686  24.644   7.911   2.800
 7398W        W68687  11.826  14.728  12.453
 7399W        W68688  21.738   1.321   2.824
 7400W        W68689  25.052  42.350   3.287
 7401W        W68690  40.427  34.917  11.526
 7402W        W68691  32.133  28.957   4.335
 7403W        W68692  26.064  11.204  11.015
 7404W        W68693  25.079  34.603  11.413
 7405W        W68694  13.142   9.286  13.937
 7406W        W68695   7.734  13.751   2.780
 7407W        W68696  38.483  39.886  13.501
 7408W        W68697  15.720   1.761   3.811
 7409W        W68698  43.785  31.001  13.902
 7410W        W68699  33.979  35.580  14.293
 7411W        W68700   5.437  10.315  13.823
 7412W        W68701  42.992  41.401  12.900
 7413W        W68702  22.650  26.197   2.816
 7414W        W68703  25.142  15.125   1.868
 7415W        W68704  28.519  29.022   2.766
 7416W        W68705   2.278  34.590  11.070
 7417W        W68706  25.178  25.550  14.020
 7418W        W68707   9.157  25.620   1.801
 7419W        W68708  28.681  34.588  13.036
 7420W        W68709  17.246  38.070  12.545
 7421W        W68710   0.883  25.678  12.044
 7422W        W68711  17.258  32.893  11.594
 7423W        W68712  20.627   4.838  12.022
 7424W        W68713  24.496  26.116   4.114
 7425W        W68714  24.677  21.021   2.663
 7426W        W68715  22.158   3.765  14.310
 7427W        W68716  37.959  21.513  14.308
 7428W        W68717  40.364   7.171   2.835
 7429W        W68718  35.072  22.579   0.483
 7430W        W68719  42.475  26.688  11.048
 7431W        W68720   5.304  40.320   2.355
 7432W        W68721  12.828   9.175   0.835
 7433W        W68722  43.793  40.532   1.808
 7434W        W68723  41.466  28.094   4.648
 7435W        W68724  35.442   9.754   1.238
 7436W        W68725  38.512   1.865   2.230
 7437W        W68726   1.772  41.897   4.755
 7438W        W68727  43.857  18.562   1.309
 7439W        W68728  32.582  23.037   2.355
 7440W        W68729   0.747  16.199  11.902
 7441W        W68730  40.877  13.749   3.716
 7442W        W68731  32.946  22.616   0.247
 7443W        W68732  25.480   3.840   0.860
 7444W        W68733  42.827  32.615   2.823
 7445W        W68734  20.667  17.687  14.337
 7446W        W68735  44.913   0.490   2.813
 7447W        W68736  15.322   4.256  11.487
 7448W        W68737  17.557  19.115   3.746
 7449W        W68738   0.450  20.081  13.886
 7450W        W68739  39.509  44.367   0.859
 7451W        W68740  13.216   5.778   2.241
 7452W        W68741   5.277  28.123  14.020
 7453W        W68742  41.519  30.504   1.429
 7454W        W68743  36.445   5.909  10.957
 7455W        W68744   7.268  18.219   0.762
 7456W        W68745   8.336   2.777  10.405
 7457W        W68746  19.268  29.114   4.265
 7458W        W68747  44.493  39.827  11.082
 7459W        W68748   6.851  19.611  12.432
 7460W        W68749   2.266  21.246  10.086
 7461W        W68750   8.655  22.190  13.414
 7462W        W68751  13.208  22.540   3.150
 7463W        W68752  15.794   2.317  14.927
 7464W        W68753  18.204  28.527   2.277
 7465W        W68754  29.991  26.980  13.884
 7466W        W68755  11.162  40.915   3.754
 7467W        W68756  34.474   6.713   2.356
 7468W        W68757  35.424  18.217  14.447
 7469W        W68758   1.939  15.309   0.302
 7470W        W68759  31.979  14.700  11.046
 7471W        W68760  42.335  38.007  13.004
 7472W        W68761  44.483  30.103  14.441
 7473W        W68762  36.537   3.369  13.006
 7474W        W68763   6.311  18.705   3.689
 7475W        W68764  17.685  15.247   0.269
 7476W        W68765  23.690  17.260  11.018
 7477W        W68766  32.500   9.358  12.516
 7478W        W68767  32.892  12.217   0.246
 7479W        W68768  36.561  15.217  13.894
 7480W        W68769  34.579  13.137  14.910
 7481W        W68770  24.044  15.182  13.940
 7482W        W68771  41.982  44.295  13.050
 7483W        W68772  26.132  25.694   3.320
 7484W        W68773  16.746  19.039   2.716
 7485W        W68774  40.942  13.257  11.864
 7486W        W68775  22.065   8.693   0.907
 7487W        W68776  29.530  17.652  10.929
 7488W        W68777  27.614  20.124  12.354
 7489W        W68778  39.339  38.973   1.917
 7490W        W68779   0.802   8.832  14.368
 7491W        W68780  19.543  27.611  11.593
 7492W        W68781  19.757  21.679  14.342
 7493W        W68782  22.536  14.224   1.791
 7494W        W68783  24.587  25.707   2.687
 7495W        W68784  17.558  20.118   0.269
 7496W        W68785  29.601   0.747  11.556
 7497W        W68786  18.229  18.748   0.283
 7498W        W68787  41.880  26.654  14.865
 7499W        W68788  11.831  11.700  11.388
 7500W        W68789  30.456  34.103   0.291
 7501W        W68790  40.533  12.231   0.450
 7502W        W68791  11.244  10.669  13.909
 7503W        W68792  28.469  25.510  11.949
 7504W        W68793  24.088  19.698  11.394
 7505W        W68794   9.311   2.958   0.961
 7506W        W68795  40.367  29.176  14.768
 7507W        W68796  31.047   8.221   4.276
 7508W        W68797  27.557   0.984   2.671
 7509W        W68798  25.572   0.410  13.478
 7510W        W68799   8.768  26.201   2.309
 7511W        W68800  13.264  23.597  12.049
 7512W        W68801  12.129   2.774  11.539
 7513W        W68802  27.580  21.097   2.352
 7514W        W68803  38.471   7.285   4.632
 7515W        W68804  30.065  26.015  11.971
 7516W        W68805  37.379   3.382   1.749
 7517W        W68806  33.923  31.993  13.854
 7518W        W68807  29.442  32.961   0.336
 7519W        W68808  39.968  41.801  14.832
 7520W        W68809  44.401  10.834   1.838
 7521W        W68810  24.173   1.303  10.892
 7522W        W68811   6.798   5.272  11.046
 7523W        W68812  13.189   1.284  13.944
 7524W        W68813  19.763   8.299  14.010
 7525W        W68814  23.663   0.966   4.184
 7526W        W68815  30.117   4.923  12.431
 7527W        W68816  24.680  18.208  12.852
 7528W        W68817   9.225  30.026   3.356
 7529W        W68818  35.555  19.694   2.369
 7530W        W68819  25.681  33.515   0.816
 7531W        W68820  13.312  28.487   4.811
 7532W        W68821  17.765   8.277  10.514
 7533W        W68822  39.453  27.534   2.867
 7534W        W68823  30.007  30.910  13.429
 7535W        W68824  27.083   3.305   1.386
 7536W        W68825  17.693  12.622  14.282
 7537W        W68826  32.561  12.819   4.768
 7538W        W68827  15.106  14.805   3.869
 7539W        W68828  24.017  42.874   3.731
 7540W        W68829  18.729  40.832  11.489
 7541W        W68830  33.548  25.711  11.857
 7542W        W68831  11.166  21.550   3.798
 7543W        W68832  16.608  40.355   2.379
 7544W        W68833  18.785   0.277   4.175
 7545W        W68834  44.429   1.303  12.062
 7546W        W68835  38.351  36.946   3.153
 7547W        W68836  11.199   4.264  11.006
 7548W        W68837  25.056  22.572  10.082
 7549W        W68838  13.144  30.063   4.210
 7550W        W68839  41.838  30.044   0.726
 7551W        W68840  11.262  30.463   3.290
 7552W        W68841  14.722  11.358  13.484
 7553W        W68842  24.160  34.099  13.046
 7554W        W68843  22.100   5.316  14.831
 7555W        W68844  19.072  17.784   2.789
 7556W        W68845   3.297   3.879  11.992
 7557W        W68846  26.981   6.744   3.732
 7558W        W68847  26.003  42.357   4.297
 7559W        W68848  36.563  27.098  14.976
 7560W        W68849  30.595   9.159   0.359
 7561W        W68850  41.787  40.982   2.674
 7562W        W68851  33.532   1.786   2.340
 7563W        W68852   8.217  22.111  13.791
 7564W        W68853  34.572   6.296   1.301
 7565W        W68854  31.955  23.610   0.395
 7566W        W68855  42.883  32.984   2.198
 7567W        W68856  40.445  28.067   2.686
 7568W        W68857  16.700  25.981  13.420
 7569W        W68858  19.095  14.647  14.904
 7570W        W68859  28.991  40.367  14.449
 7571W        W68860  14.800   0.833   5.676
 7572W        W68861   6.222  27.177   2.192
 7573W        W68862  23.221   2.247   0.750
 7574W        W68863  12.220  20.154   3.248
 7575W        W68864  25.568   7.399  14.811
 7576W        W68865  20.164  34.609  12.504
 7577W        W68866   4.233  14.229   4.138
 7578W        W68867  24.105  14.708   0.946
 7579W        W68868   2.407  14.114   3.337
 7580W        W68869  28.934  25.502   3.209
 7581W        W68870  34.593   5.825   2.664
 7582W        W68871  35.528  21.058   2.784
 7583W        W68872  12.304  34.609  11.095
 7584W        W68873  42.918  16.165  10.436
 7585W        W68874  31.056  23.066   1.318
 7586W        W68875  18.628  11.346   0.746
 7587W        W68876  37.499  34.554   3.770
 7588W        W68877  29.639  27.978   3.167
 7589W        W68878   5.923   9.875   4.716
 7590W        W68879  37.462  27.658  12.389
 7591W        W68880  38.390  24.190   0.453
 7592W        W68881  17.689  30.108  11.981
 7593W        W68882  17.714  36.549  14.407
 7594W        W68883  42.344  42.521   0.894
 7595W        W68884   2.914  14.646  10.972
 7596W        W68885  33.472  43.908   1.287
 7597W        W68886   5.405  40.434  12.828
 7598W        W68887  38.331  43.915   3.218
 7599W        W68888   7.811  23.028   2.229
 7600W        W68889  39.032  15.305  13.358
 7601W        W68890  14.132  22.530   0.294
 7602W        W68891  42.782  30.066  10.914
 7603W        W68892  15.156  40.549  12.876
 7604W        W68893  26.099  26.501  12.459
 7605W        W68894  28.964  11.768  12.097
 7606W        W68895  24.003  28.516  14.826
 7607W        W68896   6.371  22.620   2.215
 7608W        W68897   0.963  41.311  11.060
 7609W        W68898  16.239  43.795  13.854
 7610W        W68899   8.742   0.818  13.345
 7611W        W68900  38.535  20.076   0.339
 7612W        W68901  42.851  13.800  14.990
 7613W        W68902  34.578   5.363   0.925
 7614W        W68903  35.415  26.955  13.854
 7615W        W68904   0.872  37.855   3.225
 7616W        W68905   1.833  13.304  13.517
 7617W        W68906  13.751  40.442  13.463
 7618W        W68907   6.341  26.046   0.793
 7619W        W68908   3.221  15.714  11.943
 7620W        W68909  10.171  37.931   1.800
 7621W        W68910   7.272  28.018  11.928
 7622W        W68911  43.298  35.408   1.746
 7623W        W68912  41.033  15.669   3.739
 7624W        W68913   1.806  15.288  10.923
 7625W        W68914  17.080  15.104  11.568
 7626W        W68915  23.120  10.359   1.281
 7627W        W68916  32.412  11.664   4.815
 7628W        W68917  25.036   0.484   3.295
 7629W        W68918  20.717  29.003  13.003
 7630W        W68919  22.183  17.094  14.449
 7631W        W68920  31.523  15.593   1.443
 7632W        W68921  19.096  15.275   4.799
 7633W        W68922   5.359  32.507  14.482
 7634W        W68923  19.605  37.059  12.524
 7635W        W68924   6.746  34.409   5.202
 7636W        W68925   5.286  21.097   5.162
 7637W        W68926  20.030  30.492  10.930
 7638W        W68927   6.792  20.028   1.299
 7639W        W68928  38.964  43.503   2.324
 7640W        W68929  32.073  10.804   2.742
 7641W        W68930  41.920  37.393  11.880
 7642W        W68931  36.490  41.469   2.678
 7643W        W68932   0.855  28.014  10.998
 7644W        W68933  20.042  13.693  11.946
 7645W        W68934  16.725  42.023   4.277
 7646W        W68935  26.103   0.411  14.393
 7647W        W68936  31.540  30.491  14.778
 7648W        W68937  15.640  22.582   3.171
 7649W        W68938   7.376  34.498   0.755
 7650W        W68939  44.342   8.699   0.796
 7651W        W68940   8.769  10.358  13.945
 7652W        W68941  43.002   4.783   0.770
 7653W        W68942  43.000  43.348   5.238
 7654W        W68943   9.289   0.873   0.821
 7655W        W68944  18.546   8.222   3.735
 7656W        W68945  35.927  24.701  10.416
 7657W        W68946  38.539  39.434  13.325
 7658W        W68947  26.069  22.553   0.820
 7659W        W68948  21.690  33.459  12.022
 7660W        W68949  11.362  17.235   1.352
 7661W        W68950  20.643  27.145   1.230
 7662W        W68951  21.115  36.474   5.223
 7663W        W68952  33.064  16.713  14.396
 7664W        W68953  14.716  30.431   5.291
 7665W        W68954  44.409   9.665  13.431
 7666W        W68955  35.093  33.066   2.279
 7667W        W68956  41.025  39.879   2.288
 7668W        W68957  39.535  19.641  13.477
 7669W        W68958  20.525  15.205  11.072
 7670W        W68959  34.470   0.489  14.817
 7671W        W68960   1.783  27.151  12.013
 7672W        W68961  19.176   3.816   2.781
 7673W        W68962   2.947  43.510  10.973
 7674W        W68963   5.766  15.185   1.448
 7675W        W68964  30.109   9.376  11.537
 7676W        W68965  35.518  44.809  13.373
 7677W        W68966  43.859  15.174  14.509
 7678W        W68967   9.273  40.473   0.883
 7679W        W68968  28.091  19.089   3.276
 7680W        W68969  39.452  11.764  13.941
 7681W        W68970  25.167  29.046  11.067
 7682W        W68971  37.533   8.191   3.633
 7683W        W68972  11.797  43.777  14.436
 7684W        W68973  21.553  37.516   3.185
 7685W        W68974  26.133  39.973   4.723
 7686W        W68975  29.137  43.922   4.627
 7687W        W68976  39.026   6.694   4.179
 7688W        W68977  33.594  20.543   0.880
 7689W        W68978   5.875   1.289  13.335
 7690W        W68979   5.921  43.317   0.848
 7691W        W68980  31.911   7.884  10.918
 7692W        W68981  20.726   1.800   1.435
 7693W        W68982  18.251   8.851  10.435
 7694W        W68983  43.514  28.160   4.620
 7695W        W68984  24.215  11.645   5.243
 7696W        W68985  15.812  12.786  13.366
 7697W        W68986   5.742  21.026  10.989
 7698W        W68987   6.877  23.000  12.001
 7699W        W68988   8.288   8.212  10.623
 7700W        W68989  11.271   0.861  14.789
 7701W        W68990   7.374  12.261   2.232
 7702W        W68991  15.172  18.712  13.921
 7703W        W68992   9.334   6.201   0.250
 7704W        W68993  22.106  33.087   0.430
 7705W        W68994  19.263  38.044   0.851
 7706W        W68995  43.863  30.466  13.032
 7707W        W68996  44.463   4.283   2.773
 7708W        W68997  16.742  32.550   2.691
 7709W        W68998  39.369   0.891   1.397
 7710W        W68999  21.072   7.302  12.870
 7711W        W69000  26.591  42.831  10.559
 7712W        W69001  10.825  29.660   2.252
 7713W        W69002   8.845   6.843   2.282
 7714W        W69003  16.661   7.247   4.716
 7715W        W69004  21.741   7.189   1.818
 7716W        W69005  41.384  41.387   0.248
 7717W        W69006  35.493   8.325   3.848
 7718W        W69007  30.963  21.059   4.235
 7719W        W69008  33.527  35.482   4.725
 7720W        W69009  42.432   4.938   3.795
 7721W        W69010  18.550  40.849  12.092
 7722W        W69011   7.328  42.802  11.461
 7723W        W69012  26.090  20.135  13.417
 7724W        W69013  37.424  29.956  10.451
 7725W        W69014  12.128   9.676   2.775
 7726W        W69015  43.514  24.031   3.745
 7727W        W69016  38.047  36.452   4.234
 7728W        W69017  10.280  24.499  12.558
 7729W        W69018   2.807  42.786  10.516
 7730W        W69019  41.443  25.081   2.690
 7731W        W69020  25.200  15.261   2.663
 7732W        W69021   4.884  43.343   4.834
 7733W        W69022  37.525  16.784   4.811
 7734W        W69023  38.955  36.035   0.878
 7735W        W69024  15.814  14.795   2.259
 7736W        W69025  20.658  25.609  12.460
 7737W        W69026  24.493  43.394  14.976
 7738W        W69027  24.666  10.223  12.907
 7739W        W69028  29.488  35.926  12.894
 7740W        W69029  33.433  32.487  11.114
 7741W        W69030   3.949  12.189   2.403
 7742W        W69031  29.659  30.587  11.588
 7743W        W69032  13.137  19.665  12.873
 7744W        W69033  29.078  11.272  13.795
 7745W        W69034  19.595  19.703   2.380
 7746W        W69035  32.929  24.049   2.731
 7747W        W69036  41.924  10.665   3.213
 7748W        W69037  39.429  21.093   2.273
 7749W        W69038  33.500  26.087   1.788
 7750W        W69039   4.337  17.114   3.793
 7751W        W69040  43.855  30.102   2.299
 7752W        W69041   2.411   2.947  13.062
 7753W        W69042  15.643   1.325  11.932
 7754W        W69043   5.705  43.827  13.454
 7755W        W69044   8.682  11.774  11.423
 7756W        W69045  12.138  21.030   2.734
 7757W        W69046  43.330  24.031   2.353
 7758W        W69047  19.557  31.916  11.049
 7759W        W69048  16.792  33.125   1.398
 7760W        W69049  26.032  13.661   3.753
 7761W        W69050  27.507   1.398   0.879
 7762W        W69051   9.673  38.878   0.268
 7763W        W69052  32.605  27.053  13.392
 7764W        W69053   9.782  37.895   2.885
 7765W        W69054  14.735   7.326  12.969
 7766W        W69055  41.499  26.536  14.468
 7767W        W69056   1.239  43.469  11.441
 7768W        W69057  27.952  38.336  13.937
 7769W        W69058  11.237  30.659  10.641
 7770W        W69059  40.542  12.265   1.742
 7771W        W69060  29.963  35.483  10.419
 7772W        W69061  25.044   2.349   0.732
 7773W        W69062  37.956   1.860   3.864
 7774W        W69063  14.798  36.513   4.340
 7775W        W69064  38.478   1.786   2.693
 7776W        W69065  10.294   9.697  13.420
 7777W        W69066  35.988  25.491  13.956
 7778W        W69067  12.302   1.468  13.941
 7779W        W69068  42.483  21.124   2.678
 7780W        W69069  39.428  27.525  14.371
 7781W        W69070   6.250  35.882   2.790
 7782W        W69071  31.988  12.180   4.604
 7783W        W69072   3.420  37.986  14.955
 7784W        W69073   8.671  30.087   3.641
 7785W        W69074   7.728  21.261   0.904
 7786W        W69075  17.593  25.037   4.650
 7787W        W69076  42.027  31.045  13.331
 7788W        W69077  42.454  30.055  11.117
 7789W        W69078  31.585  12.715   3.152
 7790W        W69079   7.324   5.785  12.378
 7791W        W69080  20.269   8.668  11.122
 7792W        W69081  28.539   1.255  11.449
 7793W        W69082  44.893  11.150  11.057
 7794W        W69083  34.400  38.400   0.898
 7795W        W69084  28.024  41.324   1.728
 7796W        W69085  21.543  23.218   1.911
 7797W        W69086   3.272  12.147  10.601
 7798W        W69087  33.467  43.803   3.637
 7799W        W69088  25.675  21.151   3.250
 7800W        W69089  12.789  20.725   4.729
 7801W        W69090  43.366   7.172  12.968
 7802W        W69091  21.083  11.863   0.940
 7803W        W69092  23.079  42.484   3.850
 7804W        W69093  25.073  32.142   1.386
 7805W        W69094  12.689  31.903  13.868
 7806W        W69095  39.432  20.549   1.308
 7807W        W69096  30.011   5.689  11.034
 7808W        W69097  16.604  37.013  12.365
 7809W        W69098  10.284   1.886  13.399
 7810W        W69099  31.134  38.032   3.804
 7811W        W69100  29.508  11.851   3.308
 7812W        W69101  24.540  24.693  12.508
 7813W        W69102  25.149  13.617  12.022
 7814W        W69103  15.634  39.992  10.479
 7815W        W69104  43.416  44.972   3.367
 7816W        W69105   0.840  35.904  11.960
 7817W        W69106   0.956  11.687  11.015
 7818W        W69107  14.724  42.422   3.310
 7819W        W69108  25.001  18.186  14.935
 7820W        W69109  26.602  33.490   4.799
 7821W        W69110  41.407  41.817   2.264
 7822W        W69111  12.356   1.820   0.838
 7823W        W69112  16.112   9.339   1.743
 7824W        W69113  17.093  14.657  14.366
 7825W        W69114  11.791  10.823  13.514
 7826W        W69115  31.487   5.340   0.462
 7827W        W69116   7.356  28.449   3.720
 7828W        W69117  11.865  44.441   2.333
 7829W        W69118   9.192  16.169   4.257
 7830W        W69119  25.198   7.267   5.284
 7831W        W69120  29.146  37.986   3.765
 7832W        W69121  10.345  19.558   2.200
 7833W        W69122  20.160  14.332   0.476
 7834W        W69123  32.481  33.002   3.741
 7835W        W69124   5.392  14.758   2.790
 7836W        W69125   4.244  28.151   3.150
 7837W        W69126  30.067   9.724  11.004
 7838W        W69127  18.720   7.698   1.928
 7839W        W69128   2.239  10.746  10.576
 7840W        W69129  41.916   6.337  10.445
 7841W        W69130   7.779   0.792  12.376
 7842W        W69131  33.435  14.325  10.141
 7843W        W69132  34.495  25.207   4.795
 7844W        W69133   9.815  21.695   0.899
 7845W        W69134  24.202  15.255  12.894
 7846W        W69135  29.555  14.188  10.462
 7847W        W69136  16.740  16.119  10.954
 7848W        W69137  13.705  41.339   2.690
 7849W        W69138  35.604  22.738  10.957
 7850W        W69139  32.908  25.666  12.907
 7851W        W69140  34.049  38.846  13.449
 7852W        W69141   8.737  28.004   4.269
 7853W        W69142   0.976  37.376  12.080
 7854W        W69143  11.231  14.138  12.009
 7855W        W69144  25.998  44.262  14.458
 7856W        W69145  12.271  14.199   0.868
 7857W        W69146  23.514   0.985   1.698
 7858W        W69147  38.505  37.964  12.874
 7859W        W69148  17.644  30.123   2.182
 7860W        W69149  10.267   3.382   2.289
 7861W        W69150  23.985  10.675   3.804
 7862W        W69151  33.931  17.664  12.567
 7863W        W69152   3.265  18.763  12.998
 7864W        W69153   1.853  39.479  12.875
 7865W        W69154  42.968  11.683  14.305
 7866W        W69155  21.545  22.654  11.047
 7867W        W69156   9.346  31.138  12.580
 7868W        W69157  33.093  31.414   0.904
 7869W        W69158   7.328   9.281  14.275
 7870W        W69159  40.309  22.511  13.428
 7871W        W69160  10.773  32.458   3.184
 7872W        W69161   0.425  40.364  13.847
 7873W        W69162  32.964  40.831  10.564
 7874W        W69163  14.147  32.427  12.375
 7875W        W69164  11.216  43.892  14.862
 7876W        W69165  33.119  33.007   4.181
 7877W        W69166  44.897  12.305  13.361
 7878W        W69167  24.642  43.843  14.895
 7879W        W69168   6.400  30.495   0.939
 7880W        W69169  12.189   5.363   1.337
 7881W        W69170  35.904  44.903  14.390
 7882W        W69171  17.696  20.566   1.288
 7883W        W69172  10.805   2.824   0.860
 7884W        W69173  28.182  33.009  12.559
 7885W        W69174  22.576  36.530   0.259
 7886W        W69175  25.655  25.690  12.879
 7887W        W69176  25.155   9.373   2.737
 7888W        W69177  17.610  20.116  11.497
 7889W        W69178  21.587  22.531   1.315
 7890W        W69179  12.215  33.986   2.386
 7891W        W69180  21.514  15.281  12.416
 7892W        W69181   2.862  30.468  11.454
 7893W        W69182   6.808  22.612  11.608
 7894W        W69183  19.552  20.085  12.522
 7895W        W69184  16.665  38.370   4.256
 7896W        W69185  42.959   5.906   4.654
 7897W        W69186  16.248  35.940  11.887
 7898W        W69187  36.029  13.145  11.997
 7899W        W69188  10.702  30.055  10.953
 7900W        W69189  23.202  28.940  13.348
 7901W        W69190  22.643   4.334   3.262
 7902W        W69191  20.221  36.370  11.965
 7903W        W69192   3.859  28.586  14.327
 7904W        W69193  24.653  12.828   4.669
 7905W        W69194  25.213   3.901   4.173
 7906W        W69195  10.283   2.754   3.235
 7907W        W69196  40.046   6.831   1.299
 7908W        W69197  31.550  32.894  13.964
 7909W        W69198  42.385  10.834   1.217
 7910W        W69199  12.222  37.900   9.574
 7911W        W69200  35.462  14.207  14.982
 7912W        W69201  27.491  38.528  14.909
 7913W        W69202  38.823  18.205   0.481
 7914W        W69203   1.843  20.128  10.574
 7915W        W69204  42.955  38.971   1.901
 7916W        W69205  33.555  13.647  12.827
 7917W        W69206  32.598  16.775   1.251
 7918W        W69207  14.766  27.148   3.638
 7919W        W69208  34.570  30.604  12.016
 7920W        W69209   4.245  10.877   1.928
 7921W        W69210   1.237   8.716  10.507
 7922W        W69211   5.432  21.521  11.060
 7923W        W69212  39.544  22.583   3.348
 7924W        W69213   9.277   2.453  14.890
 7925W        W69214  21.123  12.753   3.719
 7926W        W69215  12.837  15.169   2.314
 7927W        W69216  37.905  20.722  10.955
 7928W        W69217  33.937   0.816   3.375
 7929W        W69218  21.088   8.300   4.635
 7930W        W69219   1.330  38.947  13.323
 7931W        W69220  31.420  29.992   2.207
 7932W        W69221  40.891  15.089  13.517
 7933W        W69222  19.657   7.282   3.195
 7934W        W69223  27.482  27.989   2.358
 7935W        W69224  27.013  43.778   2.299
 7936W        W69225  34.912  11.262  12.919
 7937W        W69226   6.890  35.942  10.616
 7938W        W69227  41.812  29.936  14.901
 7939W        W69228  39.392  21.252  13.931
 7940W        W69229  19.190  17.581   1.819
 7941W        W69230  12.155  20.042  11.466
 7942W        W69231  24.722  19.226  14.495
 7943W        W69232   9.208   0.964  14.446
 7944W        W69233  42.862  44.334  14.463
 7945W        W69234  11.814  27.588   4.276
 7946W        W69235  11.262  20.751   1.450
 7947W        W69236  14.105   4.846   3.837
 7948W        W69237  43.973  41.867   0.445
 7949W        W69238   6.427  29.132   1.750
 7950W        W69239  18.564   7.372   2.233
 7951W        W69240  12.727  28.599   1.777
 7952W        W69241  13.126  32.926  13.961
 7953W        W69242  18.562   0.438  13.035
 7954W        W69243  26.024   0.939   4.331
 7955W        W69244  43.298  36.926  14.782
 7956W        W69245  14.752  33.623  13.393
 7957W        W69246  23.183   8.856  11.597
 7958W        W69247  29.439  44.286  13.810
 7959W        W69248  38.996  26.503  14.954
 7960W        W69249  18.275  10.696   0.857
 7961W        W69250  11.854  18.149  11.074
 7962W        W69251  44.460  40.419  11.525
 7963W        W69252  25.069  26.151   0.876
 7964W        W69253   5.919  28.040   4.303
 7965W        W69254  18.630  38.965  12.884
 7966W        W69255  29.050   9.214  14.786
 7967W        W69256  43.886  24.518  14.348
 7968W        W69257  32.125   1.741  10.896
 7969W        W69258   8.808  32.106  10.490
 7970W        W69259   3.251  36.560   4.778
 7971W        W69260  21.053  18.112  12.031
 7972W        W69261  34.988  37.842  12.924
 7973W        W69262  43.798  23.079   0.397
 7974W        W69263  28.055  32.891  11.498
 7975W        W69264  29.165  21.117   2.220
 7976W        W69265  41.461   0.907   2.352
 7977W        W69266  17.699  37.379   4.763
 7978W        W69267  20.223  20.625  14.760
 7979W        W69268   0.270   7.673  14.873
 7980W        W69269   8.249  11.729  12.009
 7981W        W69270  23.607   0.401   3.729
 7982W        W69271  34.866  42.929  11.554
 7983W        W69272   5.816  14.205  14.010
 7984W        W69273  25.204  28.448  14.967
 7985W        W69274  17.592   1.427  13.338
 7986W        W69275   8.740  17.628  14.344
 7987W        W69276   3.398  37.564  13.049
 7988W        W69277  41.945  16.288   3.777
 7989W        W69278  43.286  19.129   3.826
 7990W        W69279  10.336  44.470  14.406
 7991W        W69280  24.084  21.130  14.502
 7992W        W69281  18.079  38.449   0.427
 7993W        W69282  33.077  14.736  13.023
 7994W        W69283  14.650   2.753   0.891
 7995W        W69284  29.975  32.910  13.495
 7996W        W69285  25.709  41.430  14.353
 7997W        W69286  15.147   1.935   0.285
 7998W        W69287  20.201  15.144  11.068
 7999W        W69288  27.481  40.982  12.867
 8000W        W69289  21.733  41.414   2.365
 8001W        W69290  20.057   4.902  10.445
 8002W        W69291  39.454  23.082   4.202
 8003W        W69292  16.776  33.063  10.915
 8004W        W69293  36.473  37.929  13.367
 8005W        W69294  26.099  41.928  11.458
 8006W        W69295  17.619  11.622   2.737
 8007W        W69296  42.518  43.947  12.537
 8008W        W69297  14.716  44.449   2.814
 8009W        W69298   0.821  11.835   0.347
 8010W        W69299  23.706   5.702  11.872
 8011W        W69300  27.624  13.816  14.359
 8012W        W69301   9.337  31.620  11.488
 8013W        W69302  22.655  24.973   1.355
 8014W        W69303  26.612   0.913  14.836
 8015W        W69304  30.643  30.512  10.609
 8016W        W69305   5.910  25.500  12.881
 8017W        W69306   5.822  38.044   2.366
 8018W        W69307  26.184   7.296   0.243
 8019W        W69308  32.068  11.844  14.374
 8020W        W69309  34.455  36.464  11.874
 8021W        W69310  35.866  32.586  13.822
 8022W        W69311  36.919  16.742  11.128
 8023W        W69312   8.829  13.782   3.838
 8024W        W69313  43.935   4.326  13.028
 8025W        W69314  16.292  21.600  13.962
 8026W        W69315  44.505   5.414  14.454
 8027W        W69316  38.431  44.965   4.610
 8028W        W69317  23.227  17.088   0.431
 8029W        W69318  42.317   0.863  13.015
 8030W        W69319  25.481  20.174   3.177
 8031W        W69320  29.003  41.886   1.839
 8032W        W69321  40.942  26.513  11.955
 8033W        W69322  30.920  25.201   1.720
 8034W        W69323  26.178  35.977  11.469
 8035W        W69324  17.288  13.712   1.848
 8036W        W69325  24.654   0.297   1.317
 8037W        W69326  29.105  15.590   4.155
 8038W        W69327   3.728  15.700  14.980
 8039W        W69328   0.753   6.325  12.536
 8040W        W69329   1.949   9.843   2.301
 8041W        W69330  42.864  44.991  10.585
 8042W        W69331  35.377  20.053  13.851
 8043W        W69332  19.768   3.268  11.984
 8044W        W69333  19.632  21.595  13.412
 8045W        W69334  31.018  14.326   1.912
 8046W        W69335   0.832  16.278   3.869
 8047W        W69336  24.983  25.016   1.820
 8048W        W69337   2.469  40.850  13.939
 8049W        W69338  37.917   9.677   4.348
 8050W        W69339  21.644  33.493   4.226
 8051W        W69340  14.671   8.711   1.814
 8052W        W69341  29.015  42.292  12.992
 8053W        W69342  42.887  29.452   5.248
 8054W        W69343  36.925  25.478   1.410
 8055W        W69344  19.721  15.243  13.813
 8056W        W69345  12.658   2.230  14.942
 8057W        W69346  28.482  33.513   4.126
 8058W        W69347   1.427  20.648   4.776
 8059W        W69348  43.824   5.797   4.654
 8060W        W69349   5.694   3.360   1.898
 8061W        W69350  22.106  12.243  12.413
 8062W        W69351   5.236  32.504   3.644
 8063W        W69352  30.492  26.533   0.900
 8064W        W69353  21.044   1.243   5.285
 8065W        W69354  36.863  43.310  11.941
 8066W        W69355  14.617  14.685  14.438
 8067W        W69356  28.524  26.976   0.842
 8068W        W69357   1.279  27.945  13.328
 8069W        W69358  16.706  24.117   2.265
 8070W        W69359  35.041  15.261  12.435
 8071W        W69360  14.176  44.472  10.562
 8072W        W69361  32.588  17.073   1.219
 8073W        W69362  35.520  10.773  14.943
 8074W        W69363  34.525   6.757  14.479
 8075W        W69364  19.163   3.381   1.361
 8076W        W69365   5.245  28.010  10.573
 8077W        W69366  21.183  32.522  11.855
 8078W        W69367   5.807  19.174   0.784
 8079W        W69368   5.693  17.076  13.806
 8080W        W69369  19.598  43.835   2.320
 8081W        W69370  33.406  37.433  12.853
 8082W        W69371   4.261  21.581   0.352
 8083W        W69372  40.496  11.862   3.271
 8084W        W69373   0.768   0.978   3.794
 8085W        W69374   4.400  30.610  12.367
 8086W        W69375   8.889  26.961  14.990
 8087W        W69376  10.675  11.760  14.421
 8088W        W69377  27.151  25.146  12.900
 8089W        W69378  11.726   5.912  12.391
 8090W        W69379  10.261   9.151   4.160
 8091W        W69380  39.917  23.703   3.300
 8092W        W69381  26.499   1.362   0.424
 8093W        W69382  15.283  12.332   3.632
 8094W        W69383  23.051   4.766   4.255
 8095W        W69384  37.419  41.829   3.791
 8096W        W69385   2.259   8.686   0.333
 8097W        W69386  44.488  44.941  12.527
 8098W        W69387  23.594  18.207  12.065
 8099W        W69388  16.286  23.679  11.982
 8100W        W69389  44.403  23.992  13.418
 8101W        W69390  31.511  41.952   3.146
 8102W        W69391  20.731  10.342  12.458
 8103W        W69392  21.174  15.226   0.835
 8104W        W69393  28.611  18.573  12.066
 8105W        W69394  18.553   9.835   0.775
 8106W        W69395  25.652  30.444   2.864
 8107W        W69396  19.074  32.418  14.954
 8108W        W69397  12.723  30.978  12.906
 8109W        W69398  37.949  36.516  10.904
 8110W        W69399   4.825  27.469   4.757
 8111W        W69400   5.276   9.304   1.360
 8112W        W69401  18.682  13.711  11.437
 8113W        W69402  38.974  21.206   3.763
 8114W        W69403  23.216   0.413   4.702
 8115W        W69404  16.812  19.714  13.376
 8116W        W69405  20.140  22.039  13.526
 8117W        W69406  24.585  20.669  14.869
 8118W        W69407  16.652  28.495   0.308
 8119W        W69408  36.010  14.665  14.930
 8120W        W69409   6.196  13.676   2.245
 8121W        W69410  35.414  27.562  12.373
 8122W        W69411  28.071  30.034   3.858
 8123W        W69412  23.006  14.216   3.847
 8124W        W69413  10.744  26.117  10.576
 8125W        W69414  12.719  18.586   3.365
 8126W        W69415  26.570  22.054   3.247
 8127W        W69416   6.376  18.619   2.203
 8128W        W69417  44.757   7.787   3.164
 8129W        W69418  27.147  34.611   0.463
 8130W        W69419  42.786  44.821  11.078
 8131W        W69420  16.747   0.778  11.053
 8132W        W69421   0.756  26.031   4.795
 8133W        W69422  39.509  28.570   2.675
 8134W        W69423  28.577  32.906  11.934
 8135W        W69424  32.113  29.566   4.701
 8136W        W69425  15.308  11.367  14.819
 8137W        W69426  11.238   9.323  10.570
 8138W        W69427  22.027  23.018  10.933
 8139W        W69428  39.358   7.326   3.843
 8140W        W69429   1.245   8.873  11.542
 8141W        W69430  34.009  29.665   0.823
 8142W        W69431  34.902  15.275  13.494
 8143W        W69432  28.500  25.144  13.917
 8144W        W69433  21.092  34.463  11.961
 8145W        W69434  39.325  29.516  10.989
 8146W        W69435  38.970   1.448   2.300
 8147W        W69436  42.946  16.125  13.879
 8148W        W69437  25.003  34.543   1.880
 8149W        W69438  12.330  24.079   3.791
 8150W        W69439  16.727  19.108  10.523
 8151W        W69440  27.063  21.700   2.281
 8152W        W69441  42.377  35.082   4.793
 8153W        W69442  44.503  32.420  10.603
 8154W        W69443   1.805   4.400  11.407
 8155W        W69444  17.305  26.147  12.882
 8156W        W69445  14.188  10.752  10.440
 8157W        W69446  42.908  21.213   1.312
 8158W        W69447  44.965  26.609  11.449
 8159W        W69448  31.458  28.475  13.988
 8160W        W69449  18.743  10.684  12.490
 8161W        W69450  36.396  42.359   3.158
 8162W        W69451  35.418  37.420  11.380
 8163W        W69452   2.744  12.766   1.798
 8164W        W69453   9.850  42.464   3.337
 8165W        W69454  34.509  18.053   0.766
 8166W        W69455  11.643  28.445  12.837
 8167W        W69456  43.470   5.336   0.410
 8168W        W69457  33.921  22.673   3.759
 8169W        W69458  18.706  17.777  14.822
 8170W        W69459  36.867  27.575   3.779
 8171W        W69460  38.400  42.512  12.341
 8172W        W69461   3.827  38.071   3.647
 8173W        W69462  37.352  36.434   0.306
 8174W        W69463  30.916  15.710   0.735
 8175W        W69464  10.672  27.677  10.523
 8176W        W69465  38.029  23.521   1.814
 8177W        W69466  40.316  37.421  11.076
 8178W        W69467  23.207  44.005  14.809
 8179W        W69468  25.649   8.866   3.288
 8180W        W69469  12.714  37.488   0.897
 8181W        W69470  33.916  25.478   3.208
 8182W        W69471   5.277  40.373   4.786
 8183W        W69472  23.049  29.055  12.438
 8184W        W69473  28.059  34.554   1.823
 8185W        W69474   7.225  17.158  11.374
 8186W        W69475  21.758   3.337   2.309
 8187W        W69476  34.384  28.457  12.015
 8188W        W69477  11.333  14.118  14.477
 8189W        W69478  43.792  27.106  14.785
 8190W        W69479  14.602   9.760  13.884
 8191W        W69480  40.351  42.335  12.992
 8192W        W69481  25.552   5.290   4.774
 8193W        W69482   5.812  35.862  13.420
 8194W        W69483   3.851  43.803   4.831
 8195W        W69484   6.323  20.677  12.996
 8196W        W69485  21.105  28.664  11.422
 8197W        W69486  17.105   7.334   0.867
 8198W        W69487   3.377  18.628  14.495
 8199W        W69488  12.281  32.961   1.732
 8200W        W69489  19.163  11.777  11.885
 8201W        W69490   9.276  37.497   1.916
 8202W        W69491  26.687  10.367  14.454
 8203W        W69492   3.335  25.591   4.304
 8204W        W69493  30.496  35.098   0.246
 8205W        W69494  23.708   6.219  14.294
 8206W        W69495  23.220  43.421   0.935
 8207W        W69496  20.565  26.987   4.148
 8208W        W69497  40.851  42.853   4.304
 8209W        W69498  27.995  12.631   4.720
 8210W        W69499  22.204   0.813   4.327
 8211W        W69500  40.842  10.666  14.012
 8212W        W69501  29.425   0.825   3.387
 8213W        W69502  28.561   3.414   2.228
 8214W        W69503  23.679  24.542  14.327
 8215W        W69504  22.054   9.364   2.808
 8216W        W69505  16.803  21.128   2.771
 8217W        W69506  21.566  38.545  11.381
 8218W        W69507  29.058   7.324  13.441
 8219W        W69508   9.385   5.790   0.887
 8220W        W69509  27.483  29.076   0.785
 8221W        W69510  18.139   4.449   2.694
 8222W        W69511  12.838   4.363   5.092
 8223W        W69512  27.672  29.524   2.250
 8224W        W69513  27.578  34.486  12.469
 8225W        W69514  42.797  20.093   3.332
 8226W        W69515  33.964   2.468   4.678
 8227W        W69516  13.710  37.972   2.315
 8228W        W69517  25.133  30.951  12.888
 8229W        W69518  44.493  42.948   0.869
 8230W        W69519  41.862  10.365  12.422
 8231W        W69520   4.233  27.489   4.756
 8232W        W69521  13.740  23.124  14.788
 8233W        W69522  32.552   8.228   2.414
 8234W        W69523   5.811  34.420  12.467
 8235W        W69524   6.193  28.673  12.501
 8236W        W69525   6.338  27.600  12.006
 8237W        W69526  10.700  24.492   3.793
 8238W        W69527   5.920  13.198   2.224
 8239W        W69528   4.881  10.320   0.838
 8240W        W69529  35.105  16.303  10.567
 8241W        W69530  26.097  27.674   1.792
 8242W        W69531  39.870  20.733  10.538
 8243W        W69532  35.595  29.435   3.801
 8244W        W69533  44.975   1.764   4.305
 8245W        W69534   9.695   8.686  14.879
 8246W        W69535  17.103  28.159  11.057
 8247W        W69536  27.966   6.200   3.264
 8248W        W69537  31.061  18.621   0.377
 8249W        W69538  23.153  35.467   1.395
 8250W        W69539   5.412  33.395  13.369
 8251W        W69540   2.895  38.913   1.781
 8252W        W69541   2.963  27.661  14.472
 8253W        W69542  32.079  37.383   4.690
 8254W        W69543  33.919  31.048   1.835
 8255W        W69544  31.904  27.493  13.016
 8256W        W69545  39.322  18.692  11.556
 8257W        W69546  32.081  37.482   0.316
 8258W        W69547  33.537  34.969  13.938
 8259W        W69548   0.847  12.637  11.878
 8260W        W69549  37.439   1.441   4.154
 8261W        W69550  42.797  29.448  12.522
 8262W        W69551   5.280  19.588  12.508
 8263W        W69552  40.470  39.501   0.816
 8264W        W69553  13.825   1.764  12.414
 8265W        W69554  23.694  21.107  12.951
 8266W        W69555   7.230   1.304   3.353
 8267W        W69556  26.998  29.503   4.333
 8268W        W69557  12.297  16.637   2.391
 8269W        W69558  12.152  32.933   3.174
 8270W        W69559  22.724  26.994  14.026
 8271W        W69560   6.311   9.880   3.678
 8272W        W69561  17.147  38.488   2.253
 8273W        W69562  29.664  30.971   2.813
 8274W        W69563   6.805  41.964   0.755
 8275W        W69564   6.761  25.134   2.219
 8276W        W69565   9.841  39.331  10.421
 8277W        W69566  14.792  40.317   3.792
 8278W        W69567   0.943  24.168  14.804
 8279W        W69568  25.204  18.780   3.654
 8280W        W69569   0.808  38.920   0.333
 8281W        W69570  16.685  14.136  14.279
 8282W        W69571   6.731  29.510  14.766
 8283W        W69572  33.393  30.519  10.465
 8284W        W69573  17.296  17.784  14.011
 8285W        W69574   2.269  41.916  10.981
 8286W        W69575  27.149  29.129  14.919
 8287W        W69576  30.657   8.718  14.980
 8288W        W69577  34.600  17.572  11.948
 8289W        W69578  15.739   8.705  10.963
 8290W        W69579  10.145  18.607  10.918
 8291W        W69580  23.123  20.200   3.783
 8292W        W69581  25.607  17.269  10.020
 8293W        W69582  25.516  10.763   4.138
 8294W        W69583  32.478  25.527   2.217
 8295W        W69584  28.105   2.946  11.582
 8296W        W69585  20.580  21.674  13.412
 8297W        W69586  26.036  44.849   0.931
 8298W        W69587   8.343   9.795   3.324
 8299W        W69588  12.299  30.989  14.023
 8300W        W69589  18.759  17.703  13.849
 8301W        W69590  31.413  22.508   4.750
 8302W        W69591  38.991   4.906   4.819
 8303W        W69592  10.810  38.521  14.387
 8304W        W69593   4.861  32.912  10.036
 8305W        W69594  25.026  30.428  11.080
 8306W        W69595  21.618  24.218   1.438
 8307W        W69596   5.291  21.197   3.297
 8308W        W69597  44.986  26.688  13.444
 8309W        W69598  24.139  28.665  12.932
 8310W        W69599  19.086  34.379  13.462
 8311W        W69600  21.571  20.148   4.743
 8312W        W69601  28.484  40.396  11.521
 8313W        W69602  27.564  10.777  12.425
 8314W        W69603   7.290  29.603   4.151
 8315W        W69604  34.436   4.371   0.845
 8316W        W69605   5.257  30.486  10.906
 8317W        W69606   5.309  25.523  13.488
 8318W        W69607  17.175  20.050   3.772
 8319W        W69608  22.133   8.768   5.287
 8320W        W69609   2.346   0.974  14.289
 8321W        W69610  20.239  34.408   4.763
 8322W        W69611  14.178  35.024  14.925
 8323W        W69612   4.221  15.685  12.482
 8324W        W69613  26.694  40.389  14.375
 8325W        W69614  26.576  12.176   0.914
 8326W        W69615   6.799  23.186  13.973
 8327W        W69616  25.665  39.332   3.182
 8328W        W69617  36.472  36.904  14.322
 8329W        W69618  38.463   3.452   4.659
 8330W        W69619  37.516  16.585  10.629
 8331W        W69620  29.137   6.785   3.165
 8332W        W69621  33.570  29.064   2.755
 8333W        W69622  17.733  41.470   1.413
 8334W        W69623  22.035  29.553   2.853
 8335W        W69624  42.865   5.373   3.361
 8336W        W69625  44.985  21.659   3.226
 8337W        W69626   8.290  16.713  14.858
 8338W        W69627  11.844  39.331   0.733
 8339W        W69628  35.901  19.156   1.744
 8340W        W69629  30.609  41.929   0.431
 8341W        W69630  21.140  43.813   9.927
 8342W        W69631  34.416  40.049   0.408
 8343W        W69632  18.702  31.543   3.240
 8344W        W69633  23.003  14.316   2.685
 8345W        W69634   0.931  22.221  13.369
 8346W        W69635   6.218  25.084   3.224
 8347W        W69636  14.279  34.505  11.468
 8348W        W69637   6.734   6.914   1.765
 8349W        W69638  24.711  23.619  11.927
 8350W        W69639   0.331  42.305   3.205
 8351W        W69640  19.165  35.971   1.440
 8352W        W69641  34.568  18.569  11.443
 8353W        W69642  33.068  10.876  13.830
 8354W        W69643   1.914  20.764   0.472
 8355W        W69644  29.058   0.830   3.298
 8356W        W69645  17.149  14.330   4.353
 8357W        W69646  44.855  14.262   2.815
 8358W        W69647   4.348   7.886   0.912
 8359W        W69648   7.705  20.077  11.009
 8360W        W69649  31.404  22.656  11.561
 8361W        W69650   4.807  32.428  14.029
 8362W        W69651  38.945  25.034   2.318
 8363W        W69652  41.526  12.849  11.525
 8364W        W69653  32.496  18.729  10.455
 8365W        W69654  12.248  17.074  14.997
 8366W        W69655  42.001   7.889  12.831
 8367W        W69656   6.768  32.498  14.760
 8368W        W69657   8.723  29.587  14.926
 8369W        W69658  37.910  18.168   0.729
 8370W        W69659  21.063  41.341   3.318
 8371W        W69660  32.954  20.569  14.350
 8372W        W69661  14.800   3.276   0.762
 8373W        W69662  15.308   9.817   0.320
 8374W        W69663  44.902  40.368   4.675
 8375W        W69664   7.900  21.754  11.484
 8376W        W69665  37.957   3.247   3.730
 8377W        W69666   6.287  39.051  11.539
 8378W        W69667  20.071   5.204   2.699
 8379W        W69668  33.442  23.702  13.548
 8380W        W69669  40.855  20.682  12.544
 8381W        W69670  17.748  12.349   0.344
 8382W        W69671  11.275   8.719   4.179
 8383W        W69672  44.403  27.117  13.506
 8384W        W69673   6.220  43.341  12.979
 8385W        W69674  10.308  29.638  14.891
 8386W        W69675   6.832   8.338   0.332
 8387W        W69676   6.895  10.341   3.213
 8388W        W69677  15.174  12.845  13.915
 8389W        W69678  22.206  12.252   2.261
 8390W        W69679  25.021  25.618  10.632
 8391W        W69680  31.621  19.703   1.310
 8392W        W69681   2.327  30.076   4.179
 8393W        W69682  36.941  30.487  11.932
 8394W        W69683   8.834  32.980  12.419
 8395W        W69684  39.811  39.810  14.014
 8396W        W69685   4.706  29.930   3.247
 8397W        W69686  15.747  15.131   3.216
 8398W        W69687   2.834  19.078  11.023
 8399W        W69688  12.207  44.417  13.512
 8400W        W69689  40.465   0.299   2.282
 8401W        W69690   9.346  15.747   5.198
 8402W        W69691  28.946  14.125  14.007
 8403W        W69692  16.168  25.989   0.344
 8404W        W69693  17.182  36.480   3.864
 8405W        W69694  31.923  17.140  13.809
 8406W        W69695   0.807   3.915   1.223
 8407W        W69696  40.514   3.955  10.478
 8408W        W69697  38.993  19.248   0.456
 8409W        W69698  42.910  22.092   2.358
 8410W        W69699  17.173   2.938   4.817
 8411W        W69700  21.732  14.608   4.610
 8412W        W69701  35.372  32.574   3.288
 8413W        W69702  20.065  18.224   4.300
 8414W        W69703   9.844  41.943  14.290
 8415W        W69704   1.460  12.345  12.037
 8416W        W69705  14.255  41.312  10.940
 8417W        W69706  26.523  20.128  12.379
 8418W        W69707  12.663  14.110   4.774
 8419W        W69708  38.462  27.966  12.480
 8420W        W69709   5.312  17.772   1.281
 8421W        W69710  19.705  40.004   2.274
 8422W        W69711  43.769   2.843  10.502
 8423W        W69712  23.209   3.352   1.802
 8424W        W69713   1.421  27.026   4.741
 8425W        W69714  36.427  27.130  13.345
 8426W        W69715  32.094  30.610  12.943
 8427W        W69716  19.170  38.366  11.532
 8428W        W69717  24.715  42.971   5.102
 8429W        W69718  14.612  39.514   0.393
 8430W        W69719  33.578  32.516   0.947
 8431W        W69720  26.193  11.251  13.052
 8432W        W69721  34.863  11.269  12.443
 8433W        W69722  40.913  13.814  14.840
 8434W        W69723  15.124  28.559   0.280
 8435W        W69724  36.364  39.560  13.367
 8436W        W69725  15.304  31.993   4.838
 8437W        W69726   6.731  38.951  12.978
 8438W        W69727  44.322  23.159  12.894
 8439W        W69728  17.115  32.637   2.256
 8440W        W69729  17.084  38.969   0.452
 8441W        W69730  44.453   4.343  11.125
 8442W        W69731  29.127  34.884  13.947
 8443W        W69732  11.679  17.223  12.418
 8444W        W69733  34.483   2.748  13.011
 8445W        W69734  21.192  24.491  10.920
 8446W        W69735  20.583   4.207   1.244
 8447W        W69736  22.724  21.679   2.858
 8448W        W69737  28.566   9.291  13.052
 8449W        W69738  31.029  37.525  11.413
 8450W        W69739  23.572  17.743  12.512
 8451W        W69740   4.399   8.893  13.972
 8452W        W69741  10.200   0.885   0.429
 8453W        W69742  29.117  40.506  12.912
 8454W        W69743  29.609   3.935  12.925
 8455W        W69744   8.359  40.036   2.188
 8456W        W69745  14.296  25.657  13.353
 8457W        W69746   9.691  38.353  12.838
 8458W        W69747  38.399  19.153   3.659
 8459W        W69748  28.941  30.087   0.916
 8460W        W69749  35.547  28.540  11.869
 8461W        W69750  27.117  10.712  13.838
 8462W        W69751  17.729  22.649  10.947
 8463W        W69752  26.208  20.142  12.009
 8464W        W69753  14.765  34.395  13.990
 8465W        W69754   6.808   6.867   2.859
 8466W        W69755  35.984  39.063  13.461
 8467W        W69756  37.389   5.264  12.948
 8468W        W69757  22.113  39.906  14.447
 8469W        W69758  20.235  11.642  14.850
 8470W        W69759  29.669  38.836  14.027
 8471W        W69760   0.393  34.417   0.433
 8472W        W69761  12.336  33.890  14.031
 8473W        W69762  26.181  21.564   3.191
 8474W        W69763   4.920  31.074  11.441
 8475W        W69764  29.988  43.947   3.295
 8476W        W69765  26.516  11.200   3.801
 8477W        W69766   8.782  16.209  11.560
 8478W        W69767  28.667  42.480   3.822
 8479W        W69768   6.319  32.538   3.868
 8480W        W69769  11.200  25.618  11.379
 8481W        W69770  39.032  33.877  12.966
 8482W        W69771  12.734  31.146   4.119
 8483W        W69772  15.144  16.297  14.328
 8484W        W69773  23.520  35.885   1.793
 8485W        W69774  22.174  41.026   4.232
 8486W        W69775   6.358  21.077   4.637
 8487W        W69776   5.342  15.117   0.385
 8488W        W69777  44.351  39.017   0.811
 8489W        W69778  19.071  33.523   0.868
 8490W        W69779   6.422  34.445  14.979
 8491W        W69780  42.394  29.540  13.484
 8492W        W69781  40.324  18.724  12.874
 8493W        W69782   8.248  12.832  11.992
 8494W        W69783  28.449  22.066  13.804
 8495W        W69784   1.377   1.858  12.346
 8496W        W69785  10.352   7.826   4.737
 8497W        W69786   7.230  21.536  12.963
 8498W        W69787  44.387  42.441  10.513
 8499W        W69788   3.452  34.899  14.972
 8500W        W69789   7.872   9.164  12.505
 8501W        W69790  23.708  42.941  11.452
 8502W        W69791  27.086  34.396   3.361
 8503W        W69792   0.837  20.625  12.074
 8504W        W69793   9.723   9.376   3.147
 8505W        W69794  44.961  18.135   3.286
 8506W        W69795  19.041  44.759  10.938
 8507W        W69796  23.617   4.805  12.889
 8508W        W69797  35.556  42.008  10.458
 8509W        W69798  14.132  22.704  10.414
 8510W        W69799  29.050  33.077   2.899
 8511W        W69800  13.651   5.398  12.081
 8512W        W69801  40.881  37.427   3.148
 8513W        W69802   9.840  31.629  12.010
 8514W        W69803  36.940  16.650   2.868
 8515W        W69804  28.506   6.730   4.297
 8516W        W69805   4.351  25.491  13.967
 8517W        W69806  41.451   1.318  11.918
 8518W        W69807  34.024  17.070  14.016
 8519W        W69808  44.330  17.139  11.893
 8520W        W69809  17.585  20.194   4.185
 8521W        W69810  24.992  20.179  10.912
 8522W        W69811   2.383  15.226   2.759
 8523W        W69812  19.095  39.475  13.405
 8524W        W69813  16.700  30.532  11.945
 8525W        W69814  20.156  18.100  14.981
 8526W        W69815  33.388   5.910   1.779
 8527W        W69816  26.607  13.247  12.915
 8528W        W69817   0.447  29.038  13.389
 8529W        W69818  43.369  16.225  11.076
 8530W        W69819  35.958  25.583   0.314
 8531W        W69820   5.369  35.017  14.790
 8532W        W69821  12.664   8.306  13.519
 8533W        W69822  42.305  37.399   0.826
 8534W        W69823  15.145  44.477  11.098
 8535W        W69824   7.908   4.798   2.224
 8536W        W69825  23.224  12.321   4.220
 8537W        W69826  43.956  30.117  12.007
 8538W        W69827   5.244  29.963   0.856
 8539W        W69828  41.037  21.641   0.891
 8540W        W69829  10.659  12.351   2.721
 8541W        W69830  33.892  27.664  12.359
 8542W        W69831  16.637  25.699   3.305
 8543W        W69832  37.418  25.000   2.881
 8544W        W69833  15.233  26.187  11.457
 8545W        W69834   9.655  41.835   4.278
 8546W        W69835  41.509  14.218  14.462
 8547W        W69836   2.458   1.898   4.734
 8548W        W69837   8.740  39.396   4.786
 8549W        W69838  40.844  29.157   0.809
 8550W        W69839  19.593  38.050   2.214
 8551W        W69840   9.368   1.882  11.487
 8552W        W69841  21.512  43.772  12.545
 8553W        W69842  33.535  10.830  14.858
 8554W        W69843  30.497  26.630  12.924
 8555W        W69844  16.675  16.203  11.886
 8556W        W69845  22.235  12.796   4.674
 8557W        W69846  44.769  27.557  12.974
 8558W        W69847  17.079  17.641   0.947
 8559W        W69848  44.460  38.471  10.911
 8560W        W69849  18.135  20.607  14.407
 8561W        W69850  35.569   3.719  10.488
 8562W        W69851  23.142   2.372  14.479
 8563W        W69852  14.125  26.626   4.284
 8564W        W69853  38.533  31.011  10.458
 8565W        W69854   3.443  28.567   1.848
 8566W        W69855  28.457  43.813  14.500
 8567W        W69856  34.995  22.213   0.773
 8568W        W69857  13.275  26.564  14.981
 8569W        W69858  18.658  16.307  10.532
 8570W        W69859  28.174  12.717   3.654
 8571W        W69860   8.361  41.357  13.397
 8572W        W69861  42.862  14.199  11.870
 8573W        W69862  33.519  10.255  11.931
 8574W        W69863  19.542  11.667   1.325
 8575W        W69864  44.849   4.819  12.855
 8576W        W69865  18.614  25.976  14.471
 8577W        W69866  15.710  39.356  14.391
 8578W        W69867   5.845   3.810  11.595
 8579W        W69868  15.782   2.431   3.847
 8580W        W69869  37.903  26.959   2.716
 8581W        W69870  23.137  29.537   2.800
 8582W        W69871   6.374  44.259   0.860
 8583W        W69872  27.597  22.118  11.075
 8584W        W69873  33.490  38.538   0.801
 8585W        W69874   8.394  17.174   2.348
 8586W        W69875   2.394  19.573   3.301
 8587W        W69876  13.713  13.664   0.732
 8588W        W69877  29.994  19.706  10.419
 8589W        W69878  10.220  21.053   1.842
 8590W        W69879  37.547  12.811  13.517
 8591W        W69880  37.875  35.531   0.912
 8592W        W69881  26.649   6.187  10.980
 8593W        W69882  27.951  24.220   4.209
 8594W        W69883  29.439  29.071  11.394
 8595W        W69884  33.892  44.908  11.885
 8596W        W69885  40.815  21.612   0.479
 8597W        W69886  19.112  17.299   2.683
 8598W        W69887  17.662  22.528   4.206
 8599W        W69888  37.516  30.991   0.792
 8600W        W69889  19.159  40.341  11.540
 8601W        W69890  14.664  14.155   0.836
 8602W        W69891  16.190  11.198  10.558
 8603W        W69892  23.591  19.189  12.398
 8604W        W69893  31.987  12.163  13.063
 8605W        W69894  41.380  28.540  13.414
 8606W        W69895  27.004  30.092  14.381
 8607W        W69896  15.125  17.749  10.586
 8608W        W69897   7.703  29.468  13.856
 8609W        W69898   7.889  37.972  12.991
 8610W        W69899   0.771  36.442  13.410
 8611W        W69900  15.774  37.895  13.858
 8612W        W69901  40.437  40.355   4.220
 8613W        W69902   1.846  36.381   3.712
 8614W        W69903  11.335  12.196   3.655
 8615W        W69904  22.149  38.505   1.336
 8616W        W69905  34.515   4.811  10.449
 8617W        W69906  42.419  39.921   2.321
 8618W        W69907  31.519  36.437   0.469
 8619W        W69908   7.387   1.912  11.036
 8620W        W69909  20.639  12.792  12.550
 8621W        W69910  28.644  13.294   4.251
 8622W        W69911   7.749  40.039  14.796
 8623W        W69912  19.228  14.238  12.825
 8624W        W69913   2.735  31.479  14.336
 8625W        W69914   9.682  24.102  11.599
 8626W        W69915  15.214   0.421   9.487
 8627W        W69916  35.537   0.479  13.309
 8628W        W69917  44.304  16.233  11.480
 8629W        W69918   0.774  15.227   1.323
 8630W        W69919  13.259  11.747  11.993
 8631W        W69920  18.284  40.949   3.194
 8632W        W69921  36.423   2.275   4.299
 8633W        W69922  39.469  11.226   2.686
 8634W        W69923   4.881   4.280   2.372
 8635W        W69924  15.763  39.413   2.741
 8636W        W69925   3.917  20.709   2.344
 8637W        W69926  30.929  44.941  13.434
 8638W        W69927  12.798  17.240   2.299
 8639W        W69928   8.776   6.811   0.390
 8640W        W69929   0.485   6.825  11.112
 8641W        W69930  23.085  44.762   3.301
 8642W        W69931  28.596  10.183   3.188
 8643W        W69932   9.711  12.250   0.916
 8644W        W69933   7.204   3.333   2.339
 8645W        W69934  39.421  16.813   3.654
 8646W        W69935   0.811  43.511   2.864
 8647W        W69936   1.283  34.914   2.267
 8648W        W69937  31.528  29.598  11.513
 8649W        W69938  11.777   3.450  13.959
 8650W        W69939  12.690   7.307  13.945
 8651W        W69940  15.821  13.722   1.912
 8652W        W69941  30.602  27.614  14.464
 8653W        W69942  12.640  35.470  10.919
 8654W        W69943  33.887   2.913  14.787
 8655W        W69944  40.830  34.429  12.956
 8656W        W69945   8.680  21.170   1.874
 8657W        W69946  25.671  27.174   2.784
 8658W        W69947  21.705  31.470   3.258
 8659W        W69948  26.504   7.776   3.796
 8660W        W69949  42.929  40.519   4.744
 8661W        W69950  21.143  41.810  11.023
 8662W        W69951  13.810   1.899   0.358
 8663W        W69952  27.982  44.842   4.674
 8664W        W69953  15.127  32.552  14.019
 8665W        W69954   4.813   7.325   4.215
 8666W        W69955  42.851  17.665  13.374
 8667W        W69956  37.934  28.514  13.026
 8668W        W69957  16.722  32.108   4.705
 8669W        W69958  21.165  37.945   1.908
 8670W        W69959  25.130  17.085  14.002
 8671W        W69960  20.052  17.085  10.913
 8672W        W69961  27.146  36.983  14.303
 8673W        W69962  35.025  20.565  14.317
 8674W        W69963  33.891  44.343   3.781
 8675W        W69964  33.428  42.408  11.406
 8676W        W69965  13.166  34.902  13.007
 8677W        W69966   8.662  34.043   1.897
 8678W        W69967  18.767  44.824   0.954
 8679W        W69968   9.751   5.274  11.411
 8680W        W69969  29.075   4.843  11.952
 8681W        W69970  18.773  16.244   4.632
 8682W        W69971  44.286   3.773   1.806
 8683W        W69972  44.934  27.019  12.482
 8684W        W69973  34.070   5.247   2.883
 8685W        W69974  18.654   2.834   0.810
 8686W        W69975  39.809  29.086   4.135
 8687W        W69976  22.026   7.683   4.226
 8688W        W69977   1.269  13.157  10.577
 8689W        W69978  36.466   8.222  12.053
 8690W        W69979   0.341  29.568  13.929
 8691W        W69980  13.824  40.487  12.053
 8692W        W69981   9.803   6.851   2.687
 8693W        W69982   9.878  28.539  11.450
 8694W        W69983  33.926  36.541  10.991
 8695W        W69984  16.210  41.794  11.427
 8696W        W69985  34.521   2.320  11.979
 8697W        W69986  13.835  14.835  14.788
 8698W        W69987  25.635  18.126  13.960
 8699W        W69988  21.554  20.246  12.523
 8700W        W69989  31.448   1.819  12.498
 8701W        W69990  30.560  28.578   0.918
 8702W        W69991   5.197  29.449  14.829
 8703W        W69992   4.352   7.370  13.027
 8704W        W69993  39.955  43.792  11.068
 8705W        W69994  22.642  21.081   0.268
 8706W        W69995  31.903   4.449   5.084
 8707W        W69996  15.183   0.386   0.864
 8708W        W69997  22.126  38.415  10.581
 8709W        W69998  23.225  35.067   0.408
 8710W        W69999  44.986  14.811   0.393
 8711W        W70000  42.892   1.451  14.822
 8712W        W70001  44.337  34.410   2.776
 8713W        W70002   1.478  20.111  13.054
 8714W        W70003   3.305  35.447  14.453
 8715W        W70004  25.001   8.659  13.991
 8716W        W70005   7.868  42.388   4.817
 8717W        W70006  17.187  18.182   2.731
 8718W        W70007  26.196  37.565   3.167
 8719W        W70008  15.264  43.869   3.259
 8720W        W70009  42.393  13.330  13.369
 8721W        W70010  25.508  12.122   2.204
 8722W        W70011  36.948  44.857  11.965
 8723W        W70012   2.817   2.398  11.547
 8724W        W70013  14.149  39.397   1.769
 8725W        W70014  41.524  14.761  11.393
 8726W        W70015  19.727  33.977   1.291
 8727W        W70016  11.140  19.058  13.470
 8728W        W70017  27.040  43.877  14.402
 8729W        W70018  42.825   9.692   0.440
 8730W        W70019  43.852  36.010  13.916
 8731W        W70020  23.654  26.575  12.489
 8732W        W70021  37.036  29.650   0.750
 8733W        W70022  15.162  12.225   0.424
 8734W        W70023  21.139   8.246  13.016
 8735W        W70024  44.868  24.486   4.295
 8736W        W70025  10.794  40.370   0.817
 8737W        W70026  19.052  13.205   2.805
 8738W        W70027  22.743  25.051   0.308
 8739W        W70028  36.563  19.574  12.569
 8740W        W70029  22.590  39.491   1.214
 8741W        W70030  42.299  35.031   0.804
 8742W        W70031   6.207  39.340  14.959
 8743W        W70032  33.964  21.139  10.965
 8744W        W70033  11.764   9.871   0.833
 8745W        W70034  40.806  16.198   3.723
 8746W        W70035  24.681  31.480   2.222
 8747W        W70036   7.281  18.574   4.114
 8748W        W70037  25.050  29.962  14.831
 8749W        W70038  25.555   4.785  10.514
 8750W        W70039   3.906   9.712  11.027
 8751W        W70040  31.620  38.342  14.942
 8752W        W70041   2.388  42.942   4.719
 8753W        W70042  40.357  18.770   2.854
 8754W        W70043  33.577  38.854  10.433
 8755W        W70044   0.800  23.661   4.315
 8756W        W70045  24.483  10.240  13.502
 8757W        W70046   7.395  15.709   0.389
 8758W        W70047  18.151  17.685   1.352
 8759W        W70048  16.103  23.093  13.863
 8760W        W70049  30.045  17.257   3.337
 8761W        W70050  33.404  13.738   1.734
 8762W        W70051  32.484   0.357   2.833
 8763W        W70052  14.210  30.997   0.252
 8764W        W70053  34.451  37.420  11.446
 8765W        W70054  41.013   8.399   1.783
 8766W        W70055   7.375   6.277  12.857
 8767W        W70056  20.183  32.903   4.325
 8768W        W70057  16.086  15.146   0.800
 8769W        W70058  15.256  23.687  11.872
 8770W        W70059  24.022   4.935   3.698
 8771W        W70060   1.917   3.347   3.282
 8772W        W70061  39.373  38.820  13.904
 8773W        W70062  33.912  35.037  13.875
 8774W        W70063  35.483   9.366  11.870
 8775W        W70064  17.611   7.885   3.825
 8776W        W70065  16.653  13.294  14.300
 8777W        W70066  33.879  20.620   4.239
 8778W        W70067  10.304  20.116  12.832
 8779W        W70068  10.245   1.971  12.502
 8780W        W70069  38.428  24.976   4.241
 8781W        W70070  14.801   3.845   4.336
 8782W        W70071  28.947  14.828  12.878
 8783W        W70072  19.707  31.642  11.385
 8784W        W70073  33.596  33.562  12.953
 8785W        W70074  33.969   2.345  14.438
 8786W        W70075  36.517  27.478  11.510
 8787W        W70076  13.264  20.222   0.744
 8788W        W70077   5.835   6.702  14.411
 8789W        W70078  29.970  25.480   0.791
 8790W        W70079  13.698  27.558  13.921
 8791W        W70080  38.378  41.383  12.510
 8792W        W70081  37.473   4.329   3.280
 8793W        W70082  15.189  23.521   0.750
 8794W        W70083  18.756  19.552   2.879
 8795W        W70084  17.242  44.877  12.536
 8796W        W70085  24.074  43.768   3.751
 8797W        W70086  24.537  27.472   4.735
 8798W        W70087   3.288  26.011  12.435
 8799W        W70088   4.335  10.708  13.890
 8800W        W70089  13.149   9.374  13.444
 8801W        W70090  14.601  35.914   1.733
 8802W        W70091  41.821   3.266  14.434
 8803W        W70092  34.611   3.793   5.177
 8804W        W70093  30.150  30.436  11.898
 8805W        W70094  40.350  20.168   0.349
 8806W        W70095  33.614  16.188   2.826
 8807W        W70096  25.067  40.307   1.286
 8808W        W70097  23.690   9.671   3.713
 8809W        W70098  38.075   8.894   4.691
 8810W        W70099  29.094  12.316  13.869
 8811W        W70100  36.970   2.919   3.155
 8812W        W70101  13.307  23.992   3.251
 8813W        W70102  30.995   6.725  13.955
 8814W        W70103  27.052  39.975  14.981
 8815W        W70104  27.509   0.956  10.576
 8816W        W70105  20.194  23.490  11.020
 8817W        W70106  30.135   6.374  11.929
 8818W        W70107  39.910  33.433   3.325
 8819W        W70108   1.388  16.586   0.868
 8820W        W70109  24.644  30.635  14.494
 8821W        W70110  19.217   1.454  11.108
 8822W        W70111   2.967  18.554  11.009
 8823W        W70112  20.724  12.362  12.831
 8824W        W70113  36.015  40.912   1.881
 8825W        W70114   5.360  41.460   3.205
 8826W        W70115  37.892  22.093  10.919
 8827W        W70116   1.937  16.660   1.810
 8828W        W70117  43.309  43.411   2.678
 8829W        W70118   4.436  38.879  13.924
 8830W        W70119  17.129  36.537   2.868
 8831W        W70120  35.399  22.693  12.923
 8832W        W70121  30.639  10.727   1.757
 8833W        W70122  24.624  16.668   1.781
 8834W        W70123  15.638   9.666   1.837
 8835W        W70124  28.612  29.571   4.653
 8836W        W70125  27.012  13.211   3.267
 8837W        W70126  28.459  44.857  13.884
 8838W        W70127  40.497  18.222   1.821
 8839W        W70128  18.604  43.413  12.408
 8840W        W70129  16.151  20.626  12.064
 8841W        W70130  37.562  42.452   3.757
 8842W        W70131  42.442  30.014  12.868
 8843W        W70132  33.129  20.171   4.677
 8844W        W70133  24.708  12.772   2.900
 8845W        W70134  29.997  12.762   2.691
 8846W        W70135  44.288  17.703   3.784
 8847W        W70136  23.616  12.721  14.294
 8848W        W70137  34.995   2.876   4.760
 8849W        W70138  39.965  30.919   1.801
 8850W        W70139  16.730   7.794  11.591
 8851W        W70140  41.354  21.150  14.308
 8852W        W70141  34.045  23.029   0.295
 8853W        W70142   2.454  17.796  12.549
 8854W        W70143  28.499  39.864  12.940
 8855W        W70144  25.001  42.285  12.003
 8856W        W70145  24.512  33.437   0.471
 8857W        W70146   7.252  35.993   2.306
 8858W        W70147  31.522  39.926   3.867
 8859W        W70148  17.678  37.536  12.457
 8860W        W70149   3.897  44.504   3.313
 8861W        W70150  21.515  14.645  12.876
 8862W        W70151  27.190   1.819   3.277
 8863W        W70152  30.963  10.728  10.621
 8864W        W70153   7.885  14.166  13.894
 8865W        W70154  42.023  39.478  13.809
 8866W        W70155  32.040   6.233  11.009
 8867W        W70156  23.492  40.487   2.218
 8868W        W70157  19.554  34.066  13.421
 8869W        W70158   7.353   1.454  14.326
 8870W        W70159   7.765  15.719  11.497
 8871W        W70160   9.818  14.823  14.801
 8872W        W70161  34.403   6.704   0.884
 8873W        W70162  21.048  41.986   4.322
 8874W        W70163  25.696  30.117   2.408
 8875W        W70164  42.781   3.284  11.601
 8876W        W70165   9.151  25.045   4.786
 8877W        W70166   3.346  17.600  10.443
 8878W        W70167  10.759  28.986  13.405
 8879W        W70168   5.354   1.324  10.991
 8880W        W70169  42.314  23.731  12.456
 8881W        W70170   3.254  11.625  13.450
 8882W        W70171  20.655  27.539   4.287
 8883W        W70172  34.049   0.757  14.001
 8884W        W70173   9.698  15.610  11.865
 8885W        W70174  28.674   9.685   2.903
 8886W        W70175  29.628  42.967  11.002
 8887W        W70176  24.099  24.508  12.541
 8888W        W70177  37.977  10.860   0.250
 8889W        W70178  41.430  30.439   0.476
 8890W        W70179  43.917  44.440   2.361
 8891W        W70180  28.115   4.818   3.279
 8892W        W70181  23.094  37.066  14.362
 8893W        W70182  38.471  37.571  10.416
 8894W        W70183  32.541  25.614  13.814
 8895W        W70184  28.679   5.435  14.391
 8896W        W70185  35.094   1.864  11.418
 8897W        W70186  37.541  42.029   5.188
 8898W        W70187   3.242   1.366   1.783
 8899W        W70188   5.808  42.997   3.709
 8900W        W70189  35.558  35.109   3.725
 8901W        W70190  14.645  13.347  11.975
 8902W        W70191  21.210  18.258   2.766
 8903W        W70192  32.127  39.809  10.467
 8904W        W70193  13.632  29.567  12.549
 8905W        W70194  28.555  31.404  10.888
 8906W        W70195  44.935   1.975   1.753
 8907W        W70196  43.270  25.995  12.021
 8908W        W70197  25.609  22.715  10.127
 8909W        W70198  35.429  27.170   3.749
 8910W        W70199  35.884   2.857   1.251
 8911W        W70200  19.678  26.662   3.775
 8912W        W70201  16.283  26.527  12.969
 8913W        W70202  32.012   1.801   4.183
 8914W        W70203  16.235  16.604  10.990
 8915W        W70204   7.909   4.229  14.445
 8916W        W70205   4.866  30.544  14.813
 8917W        W70206   6.698   2.907  14.393
 8918W        W70207  42.433  25.487   1.712
 8919W        W70208  24.175  13.755  11.920
 8920W        W70209  34.445   6.763  10.411
 8921W        W70210  32.401  26.192  11.045
 8922W        W70211  17.282  11.355  13.367
 8923W        W70212   3.792  38.988  12.052
 8924W        W70213  33.516  32.986  14.974
 8925W        W70214   3.859  40.334   0.382
 8926W        W70215  28.529  29.971   1.843
 8927W        W70216   5.913  15.151   0.802
 8928W        W70217  12.795   4.413   3.339
 8929W        W70218   0.869   3.219   0.760
 8930W        W70219   5.718  35.861  13.896
 8931W        W70220   9.765  44.371   2.879
 8932W        W70221   8.297   0.463   2.846
 8933W        W70222  22.599  40.905   3.300
 8934W        W70223  31.554  44.488  12.462
 8935W        W70224  31.996  16.149   4.294
 8936W        W70225  25.600  27.561  12.985
 8937W        W70226  31.465   5.775   2.344
 8938W        W70227  17.157  36.406  14.996
 8939W        W70228  29.589  28.972  12.425
 8940W        W70229  43.873  26.127  11.947
 8941W        W70230  39.419  13.692  12.382
 8942W        W70231  28.102   1.934   0.405
 8943W        W70232  33.478  19.174   0.357
 8944W        W70233  16.803  36.005   4.244
 8945W        W70234  37.042  39.880   0.790
 8946W        W70235  37.406  40.852  10.993
 8947W        W70236  40.982  29.535  12.908
 8948W        W70237  22.541  18.053  12.969
 8949W        W70238  31.418  22.233  14.951
 8950W        W70239   3.863  13.235   4.781
 8951W        W70240  23.492   8.826   4.671
 8952W        W70241  11.190  32.126  10.595
 8953W        W70242  13.112  28.092   0.253
 8954W        W70243  15.133  13.325  14.851
 8955W        W70244  44.941  27.069  11.110
 8956W        W70245  32.101  33.546   2.770
 8957W        W70246   3.257  25.991  14.795
 8958W        W70247  16.253  38.061   1.913
 8959W        W70248  34.537   2.281   1.351
 8960W        W70249  15.589   9.760  12.029
 8961W        W70250  33.451  17.597   1.866
 8962W        W70251  11.130  22.022   0.273
 8963W        W70252  24.640   3.919  14.285
 8964W        W70253   6.297  24.048   1.932
 8965W        W70254  32.403  34.436   1.279
 8966W        W70255  37.467  24.133   5.294
 8967W        W70256  33.051  18.293  14.453
 8968W        W70257  28.991   4.335  12.510
 8969W        W70258  44.925   5.298   3.751
 8970W        W70259  26.573  33.922  14.333
 8971W        W70260  39.959   5.327   0.295
 8972W        W70261  30.418  22.219   0.866
 8973W        W70262  22.156  32.938   0.963
 8974W        W70263  40.883  33.042  12.355
 8975W        W70264   3.735   3.736  13.518
 8976W        W70265  12.672  24.135   1.792
 8977W        W70266  36.392   1.443   3.291
 8978W        W70267  39.545   4.787   1.910
 8979W        W70268  16.252  28.934   0.451
 8980W        W70269   7.218  38.929   4.688
 8981W        W70270  14.834  23.648  14.362
 8982W        W70271  18.691  16.238   0.366
 8983W        W70272  25.993  17.629  11.024
 8984W        W70273  35.556  43.328   3.796
 8985W        W70274  18.575  37.505  12.011
 8986W        W70275  21.568  14.265  10.436
 8987W        W70276  17.230  38.055   1.367
 8988W        W70277  11.847  23.723   0.879
 8989W        W70278  37.835  15.252   1.375
 8990W        W70279  25.628  11.160  11.597
 8991W        W70280  38.550  43.006   4.144
 8992W        W70281   9.681  35.023   2.193
 8993W        W70282  19.110  17.576  11.864
 8994W        W70283  44.898   2.871   3.297
 8995W        W70284   9.344  16.769  12.903
 8996W        W70285  21.531  44.777   3.176
 8997W        W70286  19.758  17.165  12.403
 8998W        W70287  23.643  13.602  13.454
 8999W        W70288  29.960  32.488  12.830
 9000W        W70289   2.249   3.287   4.332
 9001W        W70290  13.726   7.698  10.898
 9002W        W70291   7.197  33.923   1.335
 9003W        W70292  14.703  40.380  12.521
 9004W        W70293  15.293  20.558   2.208
 9005W        W70294   4.814   9.332  13.351
 9006W        W70295  17.093  24.643   2.268
 9007W        W70296  18.173  23.051   3.760
 9008W        W70297  41.313  37.525   2.699
 9009W        W70298  24.655  12.250   0.408
 9010W        W70299  16.273  33.552  14.364
 9011W        W70300  34.897  10.337  10.126
 9012W        W70301  13.784  22.710   1.757
 9013W        W70302  19.126  16.797   2.835
 9014W        W70303  13.641  37.499  12.545
 9015W        W70304  40.323   8.867   2.385
 9016W        W70305   0.847  13.131   0.254
 9017W        W70306  12.790  30.654   2.713
 9018W        W70307  14.601  37.424  13.838
 9019W        W70308  11.852  44.813   4.308
 9020W        W70309  39.008   5.372  10.004
 9021W        W70310  28.181   9.768   1.278
 9022W        W70311  44.005   0.929   1.800
 9023W        W70312  40.041  16.591   5.651
 9024W        W70313  44.769   4.345   1.696
 9025W        W70314  18.098   5.403  11.976
 9026W        W70315  42.874   0.250   2.719
 9027W        W70316  27.172  41.469  14.334
 9028W        W70317  41.966   7.264   0.470
 9029W        W70318  31.070  27.057  11.947
 9030W        W70319  26.478  10.297   3.182
 9031W        W70320  23.556  15.115  11.966
 9032W        W70321  25.161  28.099   1.867
 9033W        W70322  10.699  27.130  14.767
 9034W        W70323   1.297   7.881   3.366
 9035W        W70324  26.068   3.792   4.671
 9036W        W70325  23.005  31.046   2.773
 9037W        W70326   4.368  42.499   0.323
 9038W        W70327  42.960  24.500  12.992
 9039W        W70328  11.137  16.634   2.283
 9040W        W70329  24.715  17.196  11.390
 9041W        W70330  26.982   7.692   4.647
 9042W        W70331  20.641   2.940   4.346
 9043W        W70332  24.675  39.405  14.485
 9044W        W70333  30.965  11.330  13.530
 9045W        W70334  22.211   9.669   2.744
 9046W        W70335  14.191  35.108   2.693
 9047W        W70336  24.166  17.070  10.635
 9048W        W70337   3.317  23.579  11.432
 9049W        W70338   2.812   1.482   2.714
 9050W        W70339  39.530  30.569   3.331
 9051W        W70340  21.612  27.610   3.672
 9052W        W70341  17.767  23.052  11.910
 9053W        W70342  13.312  19.224  11.961
 9054W        W70343  13.179  23.685  12.891
 9055W        W70344  11.149  24.998   0.823
 9056W        W70345   9.219  43.772   4.651
 9057W        W70346  17.713  17.300  14.485
 9058W        W70347   8.683  21.571  12.577
 9059W        W70348  41.000  16.163   2.807
 9060W        W70349  15.122   0.931  14.981
 9061W        W70350  35.504  37.401  13.956
 9062W        W70351  37.401  31.586  12.455
 9063W        W70352  43.279  16.189   0.827
 9064W        W70353  36.035   7.700   0.334
 9065W        W70354  32.891  10.193   2.731
 9066W        W70355   2.431  35.572  12.835
 9067W        W70356   2.258   5.802  13.506
 9068W        W70357   4.888  23.627   0.940
 9069W        W70358  34.388   3.857  14.364
 9070W        W70359  17.615  38.004   2.231
 9071W        W70360  23.120  12.854  12.387
 9072W        W70361  24.679  28.106   1.322
 9073W        W70362  30.504  43.391   1.863
 9074W        W70363  42.401  12.323  14.411
 9075W        W70364   2.776  16.267   1.727
 9076W        W70365  31.445   1.737   3.832
 9077W        W70366  29.665  27.669   0.794
 9078W        W70367  27.587  23.590   0.815
 9079W        W70368   2.242  32.011   1.249
 9080W        W70369  22.168  29.574  11.910
 9081W        W70370   7.776   2.721   4.810
 9082W        W70371  25.195  20.751   9.525
 9083W        W70372   1.778  15.100  12.374
 9084W        W70373  21.137  39.003   3.173
 9085W        W70374  30.922  11.207  12.985
 9086W        W70375   4.439   3.312   0.434
 9087W        W70376  14.829   9.164  10.896
 9088W        W70377  17.283  42.783  12.576
 9089W        W70378  26.465   1.796  14.434
 9090W        W70379  34.944  27.463   3.344
 9091W        W70380  32.039  13.204  12.000
 9092W        W70381   2.285   6.272  10.995
 9093W        W70382   6.221  37.941   4.827
 9094W        W70383  44.828  11.245   2.873
 9095W        W70384   0.959  23.993   9.940
 9096W        W70385  15.726  36.076   4.599
 9097W        W70386   1.947  11.857  14.284
 9098W        W70387  25.188  10.681   2.187
 9099W        W70388  38.570  12.826   3.385
 9100W        W70389  10.325  39.948   3.280
 9101W        W70390  39.941  36.972  11.073
 9102W        W70391  39.852  21.144   0.816
 9103W        W70392  35.877  17.111  10.979
 9104W        W70393   3.833   4.716  11.544
 9105W        W70394  37.534  12.779  11.897
 9106W        W70395   6.715   7.757   2.833
 9107W        W70396   5.861  30.076  12.372
 9108W        W70397   5.348  23.039   4.187
 9109W        W70398   6.196  39.406   4.140
 9110W        W70399   6.239  15.109   1.802
 9111W        W70400  17.594  32.441   3.223
 9112W        W70401  18.610  10.226  14.991
 9113W        W70402  39.958   6.422  12.432
 9114W        W70403  22.236  21.632   4.261
 9115W        W70404  14.202  19.539  14.002
 9116W        W70405  10.214  28.053  10.411
 9117W        W70406  16.096  13.683   1.782
 9118W        W70407  37.842  28.489  13.526
 9119W        W70408  24.617  13.209   2.372
 9120W        W70409  21.569  31.909   9.938
 9121W        W70410  22.556  40.500  10.497
 9122W        W70411  26.623  13.756  13.986
 9123W        W70412  15.217   4.284   0.726
 9124W        W70413  42.937  44.273  13.458
 9125W        W70414  38.487  13.655   2.901
 9126W        W70415   8.770  16.149  12.500
 9127W        W70416   5.439  28.515   0.732
 9128W        W70417  19.744  15.720   1.317
 9129W        W70418  38.945  42.002   1.408
 9130W        W70419  28.438  29.919   3.655
 9131W        W70420  37.907  33.583   2.411
 9132W        W70421  14.793  19.612   9.508
 9133W        W70422  16.098  28.179  11.083
 9134W        W70423  28.631   4.327   2.415
 9135W        W70424  35.443  11.712   3.708
 9136W        W70425  14.327  43.865  10.595
 9137W        W70426   9.249   0.351  13.432
 9138W        W70427  22.725  10.188   0.890
 9139W        W70428  39.461  22.558  12.568
 9140W        W70429   9.807  33.480   1.293
 9141W        W70430  20.552   5.256   1.888
 9142W        W70431  31.612  15.139   4.127
 9143W        W70432  18.676  24.981  13.016
 9144W        W70433  13.228  18.185   5.125
 9145W        W70434  26.460  13.242   1.385
 9146W        W70435  34.402   7.789  14.951
 9147W        W70436   0.825  18.113  14.281
 9148W        W70437  10.828  30.444   1.791
 9149W        W70438   2.849   5.830  13.888
 9150W        W70439  17.657  16.289  12.451
 9151W        W70440  13.171  30.912  12.469
 9152W        W70441   0.393  19.186   4.714
 9153W        W70442  29.577  27.129   2.348
 9154W        W70443  34.577   9.262   4.170
 9155W        W70444  11.157  17.641   1.280
 9156W        W70445  17.272  24.659   2.691
 9157W        W70446  29.986  26.080   4.763
 9158W        W70447  24.051   7.260   2.785
 9159W        W70448   6.292  29.518   5.318
 9160W        W70449  15.180  10.366   2.180
 9161W        W70450   9.382   1.743  10.505
 9162W        W70451  42.873   9.254  13.500
 9163W        W70452  33.599   1.373   3.340
 9164W        W70453  25.708  21.676   2.325
 9165W        W70454  32.513  10.152  11.963
 9166W        W70455   3.328  27.091  14.031
 9167W        W70456  31.556   5.817   1.411
 9168W        W70457  16.317  20.250   0.964
 9169W        W70458  13.640   8.165  13.827
 9170W        W70459  22.111  13.733   0.779
 9171W        W70460  11.660   1.284   0.391
 9172W        W70461  21.666  13.634  12.925
 9173W        W70462  16.313  38.345  11.551
 9174W        W70463  39.390  13.196   3.267
 9175W        W70464  11.209   4.294   1.382
 9176W        W70465   2.452   8.702   4.739
 9177W        W70466  19.225  35.601   3.793
 9178W        W70467   2.922   3.815   4.743
 9179W        W70468  38.049  26.594  10.631
 9180W        W70469   7.232  38.441  14.468
 9181W        W70470   4.260  24.674   3.293
 9182W        W70471   9.774  17.259   4.619
 9183W        W70472  29.020  28.678   3.243
 9184W        W70473  42.786  30.911  11.604
 9185W        W70474  13.247  39.943   3.170
 9186W        W70475  42.886  19.126   0.394
 9187W        W70476  35.929   5.919  11.606
 9188W        W70477  29.552  21.599  14.437
 9189W        W70478  14.660   7.880  11.075
 9190W        W70479  14.706  43.357   3.212
 9191W        W70480  18.656  32.108   2.812
 9192W        W70481   0.865  31.598   2.818
 9193W        W70482  31.631  14.252  11.469
 9194W        W70483  18.763  24.996   4.207
 9195W        W70484   0.893  17.627  10.019
 9196W        W70485   2.313   1.346  10.611
 9197W        W70486  36.476  20.615   1.704
 9198W        W70487  19.610   5.338  11.942
 9199W        W70488  11.364  13.111  11.548
 9200W        W70489  29.484  17.698  14.803
 9201W        W70490   8.893   1.741   3.676
 9202W        W70491  22.058  29.106  13.449
 9203W        W70492  43.895  15.768  14.898
 9204W        W70493  31.559   3.247   2.359
 9205W        W70494  27.536  36.565  11.060
 9206W        W70495   7.694   8.218   2.249
 9207W        W70496  40.406  11.835  14.840
 9208W        W70497  27.095   5.825   2.374
 9209W        W70498   6.327  18.147  14.942
 9210W        W70499  29.124   7.417   4.780
 9211W        W70500  43.010  25.479   5.148
 9212W        W70501  35.024  43.873   0.907
 9213W        W70502  42.809  23.632  12.025
 9214W        W70503  18.612  40.961   2.326
 9215W        W70504   6.254  22.563  10.514
 9216W        W70505   4.237  43.798  10.905
 9217W        W70506   5.886  28.954  13.807
 9218W        W70507   6.315  18.136  10.543
 9219W        W70508  23.649   3.335  12.876
 9220W        W70509   8.230  28.647  13.354
 9221W        W70510  25.569  28.137  10.512
 9222W        W70511  21.164  30.529  12.068
 9223W        W70512  30.057  23.641   3.231
 9224W        W70513  13.635  38.367  13.522
 9225W        W70514   4.793  39.999  10.551
 9226W        W70515  28.520  29.093  13.053
 9227W        W70516  39.903  26.677  11.581
 9228W        W70517  43.780  30.517   2.260
 9229W        W70518   4.309  15.622   4.321
 9230W        W70519   8.201  10.315   1.366
 9231W        W70520   8.824   5.794  11.961
 9232W        W70521  43.465  10.642   2.258
 9233W        W70522  41.944   0.949   2.335
 9234W        W70523  38.344  16.290  10.953
 9235W        W70524   4.227  41.392  13.871
 9236W        W70525   7.233  40.995  10.577
 9237W        W70526   0.295  28.612   0.322
 9238W        W70527  39.555   8.654  14.421
 9239W        W70528  29.132  34.883  10.590
 9240W        W70529  19.145  24.567   1.758
 9241W        W70530  43.350  12.815   4.176
 9242W        W70531  31.153   5.205  14.990
 9243W        W70532   9.307  28.036   3.727
 9244W        W70533  38.525   6.889  11.611
 9245W        W70534  38.897  12.788   1.901
 9246W        W70535  39.960  25.082   0.290
 9247W        W70536  30.975   0.317   3.746
 9248W        W70537  41.024  22.559  13.832
 9249W        W70538  34.018  38.424   4.803
 9250W        W70539   9.324  25.987   3.739
 9251W        W70540   2.838  25.192   3.632
 9252W        W70541  14.691  16.312  13.888
 9253W        W70542  37.083  25.195   3.864
 9254W        W70543   8.367  39.864   1.427
 9255W        W70544  32.545  42.484   1.269
 9256W        W70545   0.866  30.433  10.082
 9257W        W70546  18.103  25.606   3.375
 9258W        W70547  35.402  34.957   0.283
 9259W        W70548  40.930   2.261   0.432
 9260W        W70549  11.155  34.599   3.708
 9261W        W70550  26.535  10.679   2.882
 9262W        W70551   7.410  37.909   1.332
 9263W        W70552  16.772   7.370   1.921
 9264W        W70553  19.161   4.782  14.331
 9265W        W70554  12.619  19.702  13.829
 9266W        W70555   3.297  27.510   1.885
 9267W        W70556   0.276  22.744   1.930
 9268W        W70557  22.675  28.478  11.517
 9269W        W70558  36.566   7.795   0.426
 9270W        W70559  40.034   5.927  11.066
 9271W        W70560  34.572   3.751  10.536
 9272W        W70561   0.454  27.681  14.285
 9273W        W70562  34.016  37.914   1.707
 9274W        W70563  20.184  14.764  13.830
 9275W        W70564  36.564   8.831  13.798
 9276W        W70565   0.435  35.099  13.337
 9277W        W70566  18.097  24.484   0.772
 9278W        W70567  40.382  23.616   3.194
 9279W        W70568  42.336   1.389  10.507
 9280W        W70569  38.904  33.123   3.760
 9281W        W70570  42.986  22.700  11.586
 9282W        W70571  40.339  25.513  14.001
 9283W        W70572  19.219  32.131   3.377
 9284W        W70573  27.545  12.768   3.716
 9285W        W70574  27.103  12.176   2.393
 9286W        W70575  29.436  17.151   3.282
 9287W        W70576  35.900   6.246  11.516
 9288W        W70577  20.249   5.761  14.834
 9289W        W70578   6.848  31.437  10.603
 9290W        W70579   3.872  43.408   4.699
 9291W        W70580  23.006  24.086  13.919
 9292W        W70581  36.524  28.447   2.895
 9293W        W70582  25.574  13.731   2.822
 9294W        W70583  24.492  12.264  13.368
 9295W        W70584  11.862  13.237   0.381
 9296W        W70585   8.336  13.168   4.291
 9297W        W70586  23.582  14.762   1.255
 9298W        W70587  13.326  34.927  11.604
 9299W        W70588  41.365  42.390   3.776
 9300W        W70589   1.933  39.048   4.257
 9301W        W70590   5.209  18.083   0.339
 9302W        W70591  40.541  34.408  12.920
 9303W        W70592  33.113  27.477   4.600
 9304W        W70593  19.619  21.177  13.514
 9305W        W70594  17.648  19.657  12.898
 9306W        W70595   3.410   9.223  12.346
 9307W        W70596   8.230   0.288   4.615
 9308W        W70597  26.174  24.606   2.753
 9309W        W70598  41.926  11.130   3.346
 9310W        W70599  33.010  23.539  14.445
 9311W        W70600  35.065  12.242   0.257
 9312W        W70601  24.628  36.035   0.347
 9313W        W70602  25.682  25.521  10.588
 9314W        W70603  28.105  33.108  11.021
 9315W        W70604  30.942  34.958  10.924
 9316W        W70605  14.247  10.229   0.960
 9317W        W70606  14.111  22.576  11.460
 9318W        W70607   7.868  28.570   4.303
 9319W        W70608  17.759  15.137   1.881
 9320W        W70609  24.581  10.180  14.934
 9321W        W70610  12.194   1.861   0.470
 9322W        W70611   8.387  37.044   4.830
 9323W        W70612  15.749  37.018   1.905
 9324W        W70613  25.579  10.679   2.206
 9325W        W70614   6.387   0.988   0.279
 9326W        W70615  17.659  41.961   1.253
 9327W        W70616  21.611  29.485  14.943
 9328W        W70617  39.032   3.293   0.965
 9329W        W70618  24.623  34.443   2.239
 9330W        W70619   0.975  16.238  14.448
 9331W        W70620  33.447  15.654   3.750
 9332W        W70621  17.669  36.928   9.511
 9333W        W70622  37.931  30.141  13.354
 9334W        W70623  33.498  15.105  12.507
 9335W        W70624  10.700  15.650   4.747
 9336W        W70625  14.813  15.329  14.788
 9337W        W70626  22.044  43.385   2.233
 9338W        W70627  20.101  34.550  10.499
 9339W        W70628  20.608  44.941  11.956
 9340W        W70629  16.223  44.293  11.444
 9341W        W70630  16.598  40.449  13.808
 9342W        W70631  11.310  36.389   3.200
 9343W        W70632  21.644  40.431   1.442
 9344W        W70633  14.143  33.063   9.931
 9345W        W70634  39.975  37.943   2.223
 9346W        W70635  10.194  31.621  14.429
 9347W        W70636   3.877  40.888  13.311
 9348W        W70637  16.109  32.929  10.971
 9349W        W70638  42.818  16.117  12.009
 9350W        W70639  40.332  36.998   1.828
 9351W        W70640  30.127  27.461   0.389
 9352W        W70641  16.732  39.945   3.257
 9353W        W70642   4.218   4.398   3.246
 9354W        W70643  37.341  26.137   1.211
 9355W        W70644  43.418  16.112  12.483
 9356W        W70645   9.154  38.411  12.825
 9357W        W70646   6.388  16.230  14.908
 9358W        W70647  10.162  33.483  13.408
 9359W        W70648  39.388   7.765   4.120
 9360W        W70649  18.217  19.102  14.319
 9361W        W70650  37.579   4.363   1.912
 9362W        W70651  41.525   3.949  11.466
 9363W        W70652  31.052  38.873   1.792
 9364W        W70653  44.835   1.238  11.076
 9365W        W70654   1.846  29.091   4.265
 9366W        W70655  23.565  18.767  12.993
 9367W        W70656  10.832  29.463   4.782
 9368W        W70657   9.807  27.087  14.516
 9369W        W70658  39.384  31.556   4.722
 9370W        W70659  36.503  16.803  10.607
 9371W        W70660  33.986  20.121  11.417
 9372W        W70661  40.524  39.410   2.898
 9373W        W70662  17.116  11.768  12.041
 9374W        W70663  37.581  21.147  12.509
 9375W        W70664  42.791  44.919   1.878
 9376W        W70665  28.106  35.588  12.920
 9377W        W70666   5.915  26.603   0.386
 9378W        W70667   5.741  24.989  12.547
 9379W        W70668   1.782  15.110  10.452
 9380W        W70669   8.874  16.194   3.660
 9381W        W70670   5.924   8.358   2.685
 9382W        W70671  26.978  13.149   4.220
 9383W        W70672  23.658  22.600  14.387
 9384W        W70673  29.940  37.341   1.376
 9385W        W70674  29.429   8.373  14.839
 9386W        W70675  13.723  23.192   4.331
 9387W        W70676   6.408  13.666   2.683
 9388W        W70677  23.224  30.651   1.720
 9389W        W70678  20.124  44.842  10.567
 9390W        W70679  26.525  41.942  14.887
 9391W        W70680   0.838  40.838   1.446
 9392W        W70681  27.108  26.018   2.826
 9393W        W70682  22.614   4.805   3.365
 9394W        W70683  30.433  10.296   4.155
 9395W        W70684   4.752  38.933   1.325
 9396W        W70685  11.139   7.411   0.277
 9397W        W70686   1.357   1.381   4.350
 9398W        W70687  21.185   8.166   3.823
 9399W        W70688  34.867   9.261  11.074
 9400W        W70689  36.417  10.200  14.777
 9401W        W70690   3.326   7.204  13.450
 9402W        W70691  41.927   4.244  14.938
 9403W        W70692  18.282  18.055  13.795
 9404W        W70693  32.629  21.525  14.413
 9405W        W70694   5.795  25.025   1.216
 9406W        W70695   8.811  21.243   3.324
 9407W        W70696  35.972  35.561  14.861
 9408W        W70697  22.135  44.904   0.377
 9409W        W70698  14.741  42.010   1.211
 9410W        W70699   3.743  35.469   2.231
 9411W        W70700  35.067  44.433  13.952
 9412W        W70701  10.712  10.186   2.810
 9413W        W70702  31.001   5.406  13.940
 9414W        W70703  40.478   8.306  11.067
 9415W        W70704  25.576  25.187   3.822
 9416W        W70705  11.859  15.601  11.090
 9417W        W70706  20.271   4.371  12.952
 9418W        W70707  36.541  29.040  13.414
 9419W        W70708   5.352  39.859   4.727
 9420W        W70709  41.395  29.457   2.183
 9421W        W70710   5.406   1.751   1.381
 9422W        W70711  43.465  34.882  12.452
 9423W        W70712  19.210   5.324   2.390
 9424W        W70713  30.964  36.980  12.970
 9425W        W70714  24.042  43.502  13.391
 9426W        W70715  41.296  33.600   4.677
 9427W        W70716  42.356  10.813  12.558
 9428W        W70717  15.603  11.652   1.410
 9429W        W70718  25.167  39.529   1.722
 9430W        W70719  33.433  30.138   2.802
 9431W        W70720   7.282  35.101  13.809
 9432W        W70721  15.149  18.272  10.941
 9433W        W70722  15.180  17.206   4.757
 9434W        W70723  28.037  12.313  10.977
 9435W        W70724  17.709   9.839  14.380
 9436W        W70725  43.996  19.763  11.444
 9437W        W70726  25.206   7.366   2.273
 9438W        W70727   0.933  38.989   0.893
 9439W        W70728  33.031  14.246   2.733
 9440W        W70729  19.683  25.646  11.563
 9441W        W70730  13.292  22.116   3.253
 9442W        W70731  37.999  20.766  11.422
 9443W        W70732  15.577  27.076   3.253
 9444W        W70733  20.185   1.820  10.501
 9445W        W70734  16.111  44.993  10.890
 9446W        W70735  41.999  41.981  12.437
 9447W        W70736  21.539  27.102   2.180
 9448W        W70737  17.261  21.616   3.823
 9449W        W70738  35.046  38.859   3.386
 9450W        W70739   8.762  44.466   4.623
 9451W        W70740  19.696  36.361  13.032
 9452W        W70741   0.826  26.590  10.022
 9453W        W70742   4.358  33.436  11.564
 9454W        W70743  40.870  37.565  12.970
 9455W        W70744  19.213  12.151  13.510
 9456W        W70745   2.966  39.346  10.575
 9457W        W70746   0.882   9.802  14.846
 9458W        W70747   7.836  27.028  14.835
 9459W        W70748   8.658  32.584  14.015
 9460W        W70749  25.080   4.769  12.461
 9461W        W70750  24.109   3.404  11.500
 9462W        W70751   7.206  39.853   2.396
 9463W        W70752  18.751  40.878   4.192
 9464W        W70753  32.517  35.591   4.215
 9465W        W70754   1.831  17.738   4.172
 9466W        W70755  26.600  24.186   3.693
 9467W        W70756  26.011  11.859   5.165
 9468W        W70757  28.587  12.162   9.951
 9469W        W70758  23.030  20.610  13.883
 9470W        W70759  16.727  16.770   0.782
 9471W        W70760  33.985  37.503  14.973
 9472W        W70761  24.681   1.837  13.376
 9473W        W70762   4.894  34.490  10.533
 9474W        W70763  35.016   1.906  13.959
 9475W        W70764   6.815   9.389  11.461
 9476W        W70765  44.818  39.900   0.328
 9477W        W70766  43.852  28.477   4.834
 9478W        W70767  35.526  43.427  14.821
 9479W        W70768  41.492  44.433   2.358
 9480W        W70769  39.361  12.350   0.866
 9481W        W70770   9.820  37.883  12.039
 9482W        W70771  28.632  25.102   1.927
 9483W        W70772  15.227  14.329   4.805
 9484W        W70773   0.795  41.384   4.144
 9485W        W70774  16.085  22.213   2.285
 9486W        W70775  13.297  26.651   1.277
 9487W        W70776  25.075  22.555  12.480
 9488W        W70777   6.239  25.544  14.762
 9489W        W70778  35.358   6.394  14.324
 9490W        W70779  20.179  28.613  13.428
 9491W        W70780   7.331   8.689  13.479
 9492W        W70781   1.330  36.077  14.874
 9493W        W70782  33.001  31.482   4.715
 9494W        W70783  33.624   6.278  10.558
 9495W        W70784   3.232   2.950   4.732
 9496W        W70785   8.817   7.806   2.266
 9497W        W70786  36.958  35.540   0.797
 9498W        W70787  31.098  15.713  14.761
 9499W        W70788   2.405   0.389  10.521
 9500W        W70789  25.501  32.483   3.178
 9501W        W70790  18.758  13.746   1.302
 9502W        W70791   2.809  36.579   0.470
 9503W        W70792   4.204  14.305  11.962
 9504W        W70793  26.694  34.969   4.805
 9505W        W70794  40.404  22.567  10.613
 9506W        W70795  39.385  32.634   3.816
 9507W        W70796  42.341  23.668   2.368
 9508W        W70797   1.733  33.992   0.430
 9509W        W70798   7.730   2.400   0.906
 9510W        W70799  42.021   9.229  11.432
 9511W        W70800  31.498  25.218  11.109
 9512W        W70801  19.720   9.188  12.568
 9513W        W70802  13.242  12.670  11.936
 9514W        W70803  44.446  25.605  12.899
 9515W        W70804  41.342  22.139  13.372
 9516W        W70805   8.864  39.342   3.762
 9517W        W70806  20.159  26.963   2.221
 9518W        W70807  34.503  43.315  10.594
 9519W        W70808  37.513   4.239   0.878
 9520W        W70809  36.913  27.173   2.261
 9521W        W70810  37.993   2.766  14.364
 9522W        W70811  23.040  17.222   4.300
 9523W        W70812  30.926   6.910   0.379
 9524W        W70813  17.573  28.056  12.936
 9525W        W70814  35.405  16.142   3.376
 9526W        W70815  30.414  32.498   3.361
 9527W        W70816  13.111  41.867  12.077
 9528W        W70817   0.790   4.789   9.922
 9529W        W70818  40.993  33.121   3.725
 9530W        W70819   2.938   4.387  12.352
 9531W        W70820  11.809  25.635  13.548
 9532W        W70821   5.738  25.990  10.920
 9533W        W70822   7.894   7.173  14.482
 9534W        W70823  19.136  12.340  12.911
 9535W        W70824  20.549   1.394  13.429
 9536W        W70825  15.136  19.622   2.693
 9537W        W70826  44.410  31.014   3.191
 9538W        W70827  38.848  12.209  13.383
 9539W        W70828  30.650  12.771   1.294
 9540W        W70829  32.575  19.152   4.713
 9541W        W70830  33.521  42.459  10.493
 9542W        W70831  10.258  35.463   2.897
 9543W        W70832  35.991  20.543  12.478
 9544W        W70833   4.333  24.141   1.426
 9545W        W70834   3.932  15.726   3.805
 9546W        W70835  10.173   5.419  13.903
 9547W        W70836  29.522  38.905  10.512
 9548W        W70837   5.721   9.795   0.809
 9549W        W70838  32.945  43.412  13.338
 9550W        W70839  39.885  37.067   2.895
 9551W        W70840  32.394  19.551  11.572
 9552W        W70841  38.869  43.935   2.341
 9553W        W70842  15.766  29.051  10.489
 9554W        W70843  22.014  21.752   2.371
 9555W        W70844  40.513  41.460   0.303
 9556W        W70845  20.079  35.867   2.332
 9557W        W70846   7.894  39.809  11.070
 9558W        W70847   7.331  20.222   3.350
 9559W        W70848  37.033  43.011   1.222
 9560W        W70849  25.976  39.435  10.933
 9561W        W70850  41.374  22.743  10.483
 9562W        W70851   9.148  20.066   4.307
 9563W        W70852  29.502  37.393  11.079
 9564W        W70853   1.367  21.555   1.372
 9565W        W70854  25.481   1.747   4.225
 9566W        W70855   1.380  34.871   4.307
 9567W        W70856   4.447   7.389   1.859
 9568W        W70857  11.255  38.048  11.406
 9569W        W70858  24.545  41.831   3.638
 9570W        W70859  42.855  37.387  12.371
 9571W        W70860  28.449  14.255   0.320
 9572W        W70861  34.983  36.951   4.758
 9573W        W70862   7.264   4.233   1.403
 9574W        W70863  27.582  23.504  10.924
 9575W        W70864  33.055  33.465   1.234
 9576W        W70865   3.290  18.286  11.906
 9577W        W70866  33.488   7.707   0.950
 9578W        W70867  36.057   4.927   1.229
 9579W        W70868   3.879   3.793  12.862
 9580W        W70869  27.977  31.937   2.234
 9581W        W70870  13.629   3.901  13.797
 9582W        W70871  17.308  23.529   0.293
 9583W        W70872  11.649  39.869  11.033
 9584W        W70873   3.799   8.679   1.335
 9585W        W70874  30.526   6.861   1.274
 9586W        W70875  17.665   4.326   3.361
 9587W        W70876  17.700  14.757  12.466
 9588W        W70877   4.818  27.513   2.307
 9589W        W70878  15.760  11.235  12.041
 9590W        W70879  43.849  33.875   0.870
 9591W        W70880  19.196  10.682  10.473
 9592W        W70881  10.376   7.759   0.325
 9593W        W70882  16.260  31.980  13.437
 9594W        W70883   3.829   1.792   2.241
 9595W        W70884  43.868   4.219  14.464
 9596W        W70885   6.854  21.576   4.781
 9597W        W70886   3.363  19.755  14.990
 9598W        W70887  42.013  25.999  14.297
 9599W        W70888   7.210  38.050  11.037
 9600W        W70889  23.151  20.047  14.975
 9601W        W70890  34.036  33.003   2.876
 9602W        W70891  19.144  40.926  12.522
 9603W        W70892  26.150  11.226  12.519
 9604W        W70893  41.843  36.547   3.237
 9605W        W70894  41.411  17.734   0.871
 9606W        W70895  22.039  13.205   3.220
 9607W        W70896  38.540  39.340  10.939
 9608W        W70897  43.508   5.895  14.896
 9609W        W70898   5.870  27.996  11.011
 9610W        W70899   4.340  41.907   4.628
 9611W        W70900  19.554  23.017   3.768
 9612W        W70901  10.798  33.427  12.445
 9613W        W70902  37.429   3.822  14.332
 9614W        W70903  24.000  38.913  11.941
 9615W        W70904  17.702   6.343   3.270
 9616W        W70905  11.318  44.409   5.582
 9617W        W70906  17.248   1.349  13.528
 9618W        W70907  44.782  25.128   5.292
 9619W        W70908  18.070  29.485  13.823
 9620W        W70909  39.495  32.551   0.868
 9621W        W70910  15.746  33.476  14.914
 9622W        W70911  17.606  44.895   2.380
 9623W        W70912  38.047  39.314   4.169
 9624W        W70913  38.426   1.400  10.957
 9625W        W70914  37.929   6.258   4.776
 9626W        W70915  34.014  43.369  11.988
 9627W        W70916  16.711   9.369  12.900
 9628W        W70917  16.657  11.270  13.493
 9629W        W70918  30.095  10.176   2.737
 9630W        W70919  39.427  34.555   1.370
 9631W        W70920   8.807   7.747  13.364
 9632W        W70921  17.271  22.692  10.428
 9633W        W70922   6.719  10.156   4.823
 9634W        W70923  23.719  41.017  13.910
 9635W        W70924  22.732  32.919  12.354
 9636W        W70925  33.475  39.436  14.357
 9637W        W70926  41.949   6.361  14.346
 9638W        W70927  29.643  37.959  14.459
 9639W        W70928  31.541  33.554   3.349
 9640W        W70929  35.374  40.025   4.220
 9641W        W70930  28.642  30.040  13.829
 9642W        W70931   1.455  15.782   1.343
 9643W        W70932  26.960  29.468  13.462
 9644W        W70933  28.077  21.692   3.703
 9645W        W70934  40.491  15.287   1.762
 9646W        W70935  24.592  28.672   2.817
 9647W        W70936  44.890  26.648   1.855
 9648W        W70937  10.201  27.962  13.016
 9649W        W70938  29.961  33.115  13.015
 9650W        W70939  41.013  27.565   3.184
 9651W        W70940  32.064   4.811   1.754
 9652W        W70941  27.023  16.603  11.057
 9653W        W70942  12.776  44.785  11.575
 9654W        W70943  22.130  37.363  13.416
 9655W        W70944   1.907   0.302   2.739
 9656W        W70945  37.503  37.830   2.258
 9657W        W70946  40.965  44.975   0.785
 9658W        W70947  33.927  10.241   2.278
 9659W        W70948  22.081  44.302   2.798
 9660W        W70949  43.495  19.047   1.894
 9661W        W70950   8.190  32.395  10.422
 9662W        W70951  12.348   8.806   1.221
 9663W        W70952   1.419   5.847   1.706
 9664W        W70953  41.859  13.117  12.366
 9665W        W70954  29.642  41.972   0.934
 9666W        W70955  30.567   8.754  14.389
 9667W        W70956   1.443  28.474   0.349
 9668W        W70957  10.338  41.538  14.337
 9669W        W70958  36.381  39.027   3.846
 9670W        W70959  16.318  28.666   1.806
 9671W        W70960  27.955  42.811  12.564
 9672W        W70961  39.051  20.578   3.734
 9673W        W70962  28.543  41.796   2.863
 9674W        W70963   5.909  30.649   0.935
 9675W        W70964  39.506  41.007  11.577
 9676W        W70965  32.108  33.621  11.534
 9677W        W70966  17.590   7.255   4.744
 9678W        W70967  35.503  31.605  10.505
 9679W        W70968  36.410  31.546   0.295
 9680W        W70969   9.156   8.862   0.823
 9681W        W70970  21.521  30.559  14.012
 9682W        W70971  20.554  22.708  14.950
 9683W        W70972   8.893   0.795  10.477
 9684W        W70973  15.745   4.850  12.534
 9685W        W70974  18.589  34.048   0.816
 9686W        W70975  16.313  29.984  13.918
 9687W        W70976   0.904  14.655  10.516
 9688W        W70977  37.431  37.468  13.487
 9689W        W70978  42.456  18.247  11.859
 9690W        W70979  40.880   7.759  11.940
 9691W        W70980   8.898  28.679  13.509
 9692W        W70981  21.560  14.119   3.791
 9693W        W70982  13.768  33.589   2.196
 9694W        W70983   1.431  27.453   4.353
 9695W        W70984  42.889  29.110   0.474
 9696W        W70985  13.154  28.179  12.562
 9697W        W70986   5.209  38.379   1.891
 9698W        W70987   6.799  39.927  11.564
 9699W        W70988  27.113  14.595   4.735
 9700W        W70989  17.591  40.432   3.836
 9701W        W70990  31.098  21.695   2.192
 9702W        W70991  31.087  44.918   3.183
 9703W        W70992  28.554  33.424  11.030
 9704W        W70993  21.515  33.617   0.304
 9705W        W70994   6.211  18.152  12.579
 9706W        W70995  16.084  42.454   2.737
 9707W        W70996  35.362  37.987  13.354
 9708W        W70997  30.637  11.185   3.665
 9709W        W70998  17.575   5.269  12.489
 9710W        W70999   4.378  38.538  14.325
 9711W        W71000  39.930  12.738  11.007
 9712W        W71001  29.034  31.575  12.941
 9713W        W71002  41.376  16.730  14.881
 9714W        W71003  12.642   4.333   4.327
 9715W        W71004   4.308  13.286  12.824
 9716W        W71005  15.585  15.656   2.848
 9717W        W71006  15.172   4.940  10.431
 9718W        W71007  19.274  43.381   4.761
 9719W        W71008  24.590   9.330   1.283
 9720W        W71009  36.084   7.841  13.326
 9721W        W71010  13.764  25.206   2.829
 9722W        W71011   6.784  36.366   4.199
 9723W        W71012  38.057  38.462   0.358
 9724W        W71013  32.617  33.964  14.930
 9725W        W71014  34.042  11.658  14.464
 9726W        W71015   5.401  36.088  11.073
 9727W        W71016  10.719   5.780   4.138
 9728W        W71017  26.633   2.927   2.844
 9729W        W71018   5.750   3.322  10.595
 9730W        W71019  11.174   8.232  14.984
 9731W        W71020  20.220  35.397   0.861
 9732W        W71021   7.864  10.774   2.280
 9733W        W71022  12.635  35.574  13.967
 9734W        W71023   3.231   9.305  14.925
 9735W        W71024  33.900  37.950  11.532
 9736W        W71025   3.770   2.296   4.655
 9737W        W71026  19.074  19.219  13.530
 9738W        W71027  25.490  38.983  12.525
 9739W        W71028  44.955   7.231   0.920
 9740W        W71029  11.372   5.893  12.058
 9741W        W71030  38.872  19.655   0.900
 9742W        W71031   9.814  15.778  10.079
 9743W        W71032   0.866  28.055  14.781
 9744W        W71033  14.698  11.231  10.474
 9745W        W71034   2.932   5.431   1.805
 9746W        W71035  34.097  21.021  12.014
 9747W        W71036  29.578  24.496  13.342
 9748W        W71037  44.274  19.717   3.183
 9749W        W71038  19.221  22.577   4.786
 9750W        W71039  27.456  22.177   1.316
 9751W        W71040  39.961   8.242  11.945
 9752W        W71041   2.958  21.194  13.414
 9753W        W71042  42.368  27.034   2.279
 9754W        W71043   8.330  38.889  14.354
 9755W        W71044   9.361  34.925  12.448
 9756W        W71045   3.922  14.131  11.972
 9757W        W71046  29.472  38.995   1.827
 9758W        W71047  27.508  20.584  14.432
 9759W        W71048   3.437  41.510   1.389
 9760W        W71049  23.565  43.993   3.768
 9761W        W71050  24.020   5.781   2.355
 9762W        W71051   1.254  13.726   1.408
 9763W        W71052  18.622  25.608   4.684
 9764W        W71053  25.181  32.067   4.280
 9765W        W71054  30.639   5.760   1.268
 9766W        W71055  35.387  26.960   0.815
 9767W        W71056   4.433  16.185   1.306
 9768W        W71057  27.028  20.140   3.375
 9769W        W71058  26.089  42.852   3.828
 9770W        W71059  27.164   0.799  10.436
 9771W        W71060  22.210   4.294   3.309
 9772W        W71061   2.403   9.726  12.552
 9773W        W71062  43.933  42.033   1.818
 9774W        W71063  27.128  25.131   0.376
 9775W        W71064  30.089  39.502   1.706
 9776W        W71065  34.975  29.101  14.874
 9777W        W71066  31.024  10.293  11.083
 9778W        W71067  36.938  29.162   3.761
 9779W        W71068  44.313  37.030  14.954
 9780W        W71069   9.331  24.506   0.343
 9781W        W71070  16.792  40.459  14.375
 9782W        W71071  28.966   0.807   2.673
 9783W        W71072   6.291  34.005   0.959
 9784W        W71073  15.112  42.360   0.928
 9785W        W71074  40.971  16.100   1.449
 9786W        W71075   7.843  36.531  11.591
 9787W        W71076  16.744  41.806   3.168
 9788W        W71077  12.680  23.632  10.462
 9789W        W71078  32.110   8.728  11.989
 9790W        W71079   4.748  37.958   1.377
 9791W        W71080  29.970  13.727  12.942
 9792W        W71081  17.116  31.929   2.194
 9793W        W71082  21.672  42.997  14.378
 9794W        W71083  31.014  35.548   4.313
 9795W        W71084   9.809  42.906  11.918
 9796W        W71085  37.444  35.568  10.979
 9797W        W71086   6.405   0.334  14.292
 9798W        W71087  40.457  43.870   3.697
 9799W        W71088  32.525  40.339   3.156
 9800W        W71089   7.719  32.392  13.336
 9801W        W71090   3.296  32.575   2.853
 9802W        W71091   1.752  42.936   2.680
 9803W        W71092  26.197  14.223   3.865
 9804W        W71093  30.156  41.382  14.312
 9805W        W71094  44.824  34.044   4.208
 9806W        W71095  20.718  43.513  12.033
 9807W        W71096  32.125   2.874  14.439
 9808W        W71097  28.579  32.001   1.246
 9809W        W71098   5.214  33.978  11.417
 9810W        W71099  28.592  29.121   2.343
 9811W        W71100  15.261  38.525  14.513
 9812W        W71101  29.531  18.744  11.016
 9813W        W71102  20.265  36.978   0.353
 9814W        W71103   9.230  35.051  10.960
 9815W        W71104  30.010  19.612  13.314
 9816W        W71105   9.655  24.699  13.023
 9817W        W71106  25.708  39.414  11.906
 9818W        W71107   9.344  13.754  11.430
 9819W        W71108  26.055  37.498  12.911
 9820W        W71109  14.706  43.330  10.982
 9821W        W71110  17.699  27.477   1.918
 9822W        W71111   1.292   0.815  12.886
 9823W        W71112  16.193  29.630  10.071
 9824W        W71113  14.246  43.503  11.413
 9825W        W71114  32.890  31.402  13.897
 9826W        W71115  27.025  33.589   4.280
 9827W        W71116   4.731   8.331  10.092
 9828W        W71117  15.178  12.801   2.728
 9829W        W71118  23.183  44.992  13.956
 9830W        W71119  22.144   5.404   2.864
 9831W        W71120   2.429  43.399   1.378
 9832W        W71121  21.211  25.686  14.836
 9833W        W71122   9.650   7.693  11.917
 9834W        W71123  40.353  42.318   1.417
 9835W        W71124  19.053   8.776  12.568
 9836W        W71125  35.082  37.042  13.970
 9837W        W71126   3.925  26.092   4.192
 9838W        W71127  28.024  22.238   1.405
 9839W        W71128  44.483  13.765   2.306
 9840W        W71129   9.659   5.694   0.404
 9841W        W71130   2.432  37.086   2.850
 9842W        W71131  10.737  12.663   0.378
 9843W        W71132  27.047  16.221  14.508
 9844W        W71133  34.925  10.143   2.276
 9845W        W71134  24.546  34.884  11.602
 9846W        W71135  31.493  30.518   0.466
 9847W        W71136  28.070  29.573  14.841
 9848W        W71137  31.933   0.411   0.317
 9849W        W71138  11.141  38.422  11.076
 9850W        W71139  36.489  40.508   2.673
 9851W        W71140  17.632  19.207   1.853
 9852W        W71141  40.869  24.213   2.669
 9853W        W71142  33.884  43.926   4.638
 9854W        W71143   1.252  12.617  12.429
 9855W        W71144  12.221   1.978   3.169
 9856W        W71145  37.482  43.318  11.610
 9857W        W71146  34.941  37.566   1.764
 9858W        W71147  19.587  18.205  13.846
 9859W        W71148  32.421  40.881   3.690
 9860W        W71149   4.441   7.368  14.801
 9861W        W71150  11.325  24.534  10.446
 9862W        W71151   4.725  28.511   2.295
 9863W        W71152  30.981  24.677  13.424
 9864W        W71153  15.739  17.222  12.075
 9865W        W71154  35.513  29.923   1.881
 9866W        W71155  19.233  11.841   2.346
 9867W        W71156  24.514  37.417   1.430
 9868W        W71157  24.164  23.561  13.952
 9869W        W71158  39.882  15.693   3.678
 9870W        W71159  38.960  21.186   2.849
 9871W        W71160  44.954  33.425  10.626
 9872W        W71161  40.379  12.183   3.301
 9873W        W71162  15.655  41.968  13.992
 9874W        W71163  39.892   5.396   4.151
 9875W        W71164  35.985  27.585   2.375
 9876W        W71165   0.798  38.869   1.861
 9877W        W71166  11.195  30.138  10.547
 9878W        W71167  22.178  25.996  14.834
 9879W        W71168  29.923   9.256  10.567
 9880W        W71169  20.621  12.711  14.445
 9881W        W71170  44.465  28.983  11.881
 9882W        W71171  33.590  44.904  12.926
 9883W        W71172  25.515  16.632  12.094
 9884W        W71173  42.966   8.848   0.376
 9885W        W71174  27.107  38.895   4.818
 9886W        W71175   8.827  12.821  10.642
 9887W        W71176   7.799  32.490  10.083
 9888W        W71177  26.534   1.360  11.001
 9889W        W71178  35.447  21.254  12.364
 9890W        W71179  43.766  24.085  11.555
 9891W        W71180  25.601  19.746   2.746
 9892W        W71181  26.055  15.095   3.299
 9893W        W71182  23.554   6.299   3.641
 9894W        W71183  21.629  20.167   0.477
 9895W        W71184  33.465   5.795  10.022
 9896W        W71185  40.812  16.793  11.030
 9897W        W71186  11.319   3.358  10.418
 9898W        W71187  18.788  22.660  13.450
 9899W        W71188  30.422   0.345  13.447
 9900W        W71189  27.448  25.061   4.728
 9901W        W71190  17.580  28.075  13.959
 9902W        W71191  20.047  32.128  13.846
 9903W        W71192   1.458   0.392   4.610
 9904W        W71193  22.166   0.416   2.261
 9905W        W71194  12.780  15.740   3.180
 9906W        W71195  12.356  37.495  10.102
 9907W        W71196   8.885  15.779  14.432
 9908W        W71197  29.495  23.050   3.860
 9909W        W71198   6.293  40.988  11.535
 9910W        W71199  18.121  20.691   3.648
 9911W        W71200  40.492  29.516   3.211
 9912W        W71201   1.447   8.736   2.893
 9913W        W71202  28.542  26.587   0.455
 9914W        W71203   2.811  19.635   0.329
 9915W        W71204  42.436  19.173  12.861
 9916W        W71205   9.157   2.232   4.144
 9917W        W71206   0.341   0.955  10.903
 9918W        W71207  43.870  11.845   3.700
 9919W        W71208  36.562  20.729   0.357
 9920W        W71209  19.141   6.397   3.702
 9921W        W71210   7.795  33.132   5.246
 9922W        W71211  36.489   0.827   4.270
 9923W        W71212  19.603  40.920   2.362
 9924W        W71213  24.669  36.960  13.931
 9925W        W71214  23.646   3.786   4.133
 9926W        W71215   7.249   5.797  11.008
 9927W        W71216   9.882  20.186   3.214
 9928W        W71217   5.734   4.427   4.169
 9929W        W71218  32.025  34.505  13.397
 9930W        W71219  26.619  14.253   4.157
 9931W        W71220   6.753  22.058   0.772
 9932W        W71221  27.510  14.198  14.298
 9933W        W71222  30.437  12.295  12.941
 9934W        W71223  24.090  20.615   2.766
 9935W        W71224  40.408  26.091  13.439
 9936W        W71225  13.647   7.249   4.682
 9937W        W71226  14.132  42.991   3.714
 9938W        W71227  33.946   4.335  11.108
 9939W        W71228  20.269  12.298  13.313
 9940W        W71229  44.349   2.816   4.274
 9941W        W71230  34.952  30.574  13.516
 9942W        W71231  20.741  27.957   2.388
 9943W        W71232  43.425  31.992  10.594
 9944W        W71233  23.506   3.431   0.306
 9945W        W71234  12.681  28.606   2.418
 9946W        W71235  34.042  33.981  12.357
 9947W        W71236   2.798  20.215  11.456
 9948W        W71237   2.903  12.758   4.131
 9949W        W71238  17.669   0.281  14.902
 9950W        W71239  32.942  44.953  11.457
 9951W        W71240  11.714  39.934  13.958
 9952W        W71241  29.648  19.617   4.231
 9953W        W71242  39.351  16.224  10.483
 9954W        W71243  37.049  32.567   0.364
 9955W        W71244  30.486  34.435  13.532
 9956W        W71245  31.970  15.660  10.988
 9957W        W71246  35.898  10.209  12.872
 9958W        W71247   9.231  32.076   2.187
 9959W        W71248  27.516  15.722  11.934
 9960W        W71249   8.662   9.253  11.539
 9961W        W71250  24.652  22.610   3.726
 9962W        W71251  11.169  24.669   0.290
 9963W        W71252  40.525  12.310   4.647
 9964W        W71253  22.690   5.818  12.493
 9965W        W71254  17.199  41.430  14.803
 9966W        W71255  22.114   9.258   1.766
 9967W        W71256  28.004  41.944  12.838
 9968W        W71257   1.350   2.753   1.759
 9969W        W71258  31.978  11.208   0.473
 9970W        W71259  29.449  42.482   2.347
 9971W        W71260   6.423  11.641  13.440
 9972W        W71261  39.500  36.538  12.392
 9973W        W71262  24.182  26.132   0.330
 9974W        W71263  11.786  11.712  12.854
 9975W        W71264  27.501  33.494  12.542
 9976W        W71265  16.167  12.710   2.719
 9977W        W71266  15.580  30.549  12.476
 9978W        W71267  29.994  35.562   0.938
 9979W        W71268  25.641  33.947   2.856
 9980W        W71269  19.606  13.115  14.851
 9981W        W71270  30.452  42.783   1.360
 9982W        W71271  21.257  24.531  13.854
 9983W        W71272  19.110  26.152   0.317
 9984W        W71273  43.974  44.297  10.564
 9985W        W71274   2.367   3.919   2.333
 9986W        W71275  18.639  32.106  14.963
 9987W        W71276  14.172  31.578   3.754
 9988W        W71277  14.764  32.105   1.215
 9989W        W71278  20.263   9.271  14.810
 9990W        W71279   1.864  29.639  11.501
 9991W        W71280  36.031  34.976   0.808
 9992W        W71281  13.629  39.451  10.587
 9993W        W71282  22.032  12.832  12.510
 9994W        W71283  24.711  26.979  11.902
 9995W        W71284  36.855  29.644   1.805
 9996W        W71285   2.739  39.849  10.611
 9997W        W71286  14.632  12.702   2.784
 9998W        W71287   4.768  20.192   2.846
 9999W        W71288  36.410  28.659  10.590
10000W        W71289  21.749   8.400  10.994
10001W        W71290   4.804  42.474   0.398
10002W        W71291  31.422  39.011   4.118
10003W        W71292  16.204  43.770   3.868
10004W        W71293   6.685  22.735   2.242
10005W        W71294  18.187   5.419   0.848
10006W        W71295  23.185  27.046   1.896
10007W        W71296   4.304  31.569   1.857
10008W        W71297  23.173  28.473  11.937
10009W        W71298   9.768  11.297  13.936
10010W        W71299   3.845  16.708  13.928
10011W        W71300  42.782  44.484  12.842
10012W        W71301   9.387  23.213   0.354
10013W        W71302   6.777  13.303   1.362
10014W        W71303  14.679  17.579  14.820
10015W        W71304   3.945  10.269  11.968
10016W        W71305  14.626   7.172   2.722
10017W        W71306  42.987  24.509   1.821
10018W        W71307   4.776  20.739   2.273
10019W        W71308  30.475   9.699   3.783
10020W        W71309  36.973  13.703  13.395
10021W        W71310  43.958  17.088   2.667
10022W        W71311  34.864  41.031   4.650
10023W        W71312  30.650  35.538   0.318
10024W        W71313  27.593   6.713   1.920
10025W        W71314  27.087  33.918   0.844
10026W        W71315   2.470  42.338   4.676
10027W        W71316  24.541  16.738   4.722
10028W        W71317   4.757  36.019  12.918
10029W        W71318  15.589  35.603  13.022
10030W        W71319  38.933  32.498  14.408
10031W        W71320  12.157   5.836  12.444
10032W        W71321  24.685  17.217  14.820
10033W        W71322   8.363   5.906  14.372
10034W        W71323  28.143  14.639  12.472
10035W        W71324  21.632  38.565  14.406
10036W        W71325  24.687  31.443  11.390
10037W        W71326  22.039  24.061  10.405
10038W        W71327  34.381  34.478   1.218
10039W        W71328  44.386  13.705   0.824
10040W        W71329  31.042  27.977  13.012
10041W        W71330  38.482   3.405  14.889
10042W        W71331  36.908  20.713   1.318
10043W        W71332  21.659  12.318   4.607
10044W        W71333  41.889   6.771   4.133
10045W        W71334  31.019  14.245   3.160
10046W        W71335  22.634  26.641  10.633
10047W        W71336  15.794  19.534  14.829
10048W        W71337  25.620  40.353   2.801
10049W        W71338  10.713  41.386  10.494
10050W        W71339  35.582  28.048  10.479
10051W        W71340  26.660   9.681  14.960
10052W        W71341  32.630  40.464  11.409
10053W        W71342  42.301  43.994  14.452
10054W        W71343  20.109  38.983   9.933
10055W        W71344  34.482  41.922  13.053
10056W        W71345  20.169  13.788  10.971
10057W        W71346   4.223   2.957  10.625
10058W        W71347  30.488  44.454  12.068
10059W        W71348  18.575  41.888  11.094
10060W        W71349  29.548  18.572  12.422
10061W        W71350   5.405  30.050  14.428
10062W        W71351  26.636  25.620  11.003
10063W        W71352  40.005   9.677  10.946
10064W        W71353  15.286  43.394  13.496
10065W        W71354  24.009   5.746  10.408
10066W        W71355  21.115  11.135  10.616
10067W        W71356   5.292  13.795   2.358
10068W        W71357  36.360   9.671  14.022
10069W        W71358  35.878  42.855  12.362
10070W        W71359  44.419  13.224  14.384
10071W        W71360   7.296  29.056   2.401
10072W        W71361   3.290  32.033  14.296
10073W        W71362  11.257  25.630  12.360
10074W        W71363  24.527  18.147  14.941
10075W        W71364  43.473  16.721   4.730
10076W        W71365  40.322  38.921   1.406
10077W        W71366   4.396  37.055  13.048
10078W        W71367  39.436   5.262   3.733
10079W        W71368   0.332  29.652  12.578
10080W        W71369  26.678  29.444   2.238
10081W        W71370  13.768   5.854   4.747
10082W        W71371  22.059   2.461   1.347
10083W        W71372  19.067   3.734  14.977
10084W        W71373  31.618   1.253  14.818
10085W        W71374   6.296  24.566  13.026
10086W        W71375  30.068  19.151   4.613
10087W        W71376  30.622  38.408   1.849
10088W        W71377  31.417  23.651  14.810
10089W        W71378  18.672  12.123   1.738
10090W        W71379  34.601  19.544   1.832
10091W        W71380   6.186  32.416   4.347
10092W        W71381  42.331  21.259  11.571
10093W        W71382   4.821  15.252   3.251
10094W        W71383   2.735  17.762  14.483
10095W        W71384  13.758  15.603   3.223
10096W        W71385  21.049   8.722  14.926
10097W        W71386  22.116  34.459  13.014
10098W        W71387  24.210  37.530  12.356
10099W        W71388   9.322  23.509  12.342
10100W        W71389   4.377  12.721  10.430
10101W        W71390  42.788  25.218  10.931
10102W        W71391  42.825  10.328  14.370
10103W        W71392  38.408   9.678  13.322
10104W        W71393   8.311   3.279   2.787
10105W        W71394  39.482  35.061   0.798
10106W        W71395   6.353   0.356  10.019
10107W        W71396   2.956  29.959  11.990
10108W        W71397  10.777  36.447   2.672
10109W        W71398  34.048  36.470  12.443
10110W        W71399   3.839  28.622   0.732
10111W        W71400   0.808  39.469   2.865
10112W        W71401  24.200  30.615   1.401
10113W        W71402   8.851  35.856  14.954
10114W        W71403  39.872  17.292   2.276
10115W        W71404  16.224   1.902   2.208
10116W        W71405  22.043  11.819   1.373
10117W        W71406  22.161  26.959   2.262
10118W        W71407  13.648  11.274   1.304
10119W        W71408  26.591  10.294   0.847
10120W        W71409  15.584  23.010   3.674
10121W        W71410  39.866   3.356  11.118
10122W        W71411  20.048  30.464   1.914
10123W        W71412  10.248  13.821  12.875
10124W        W71413  16.581   5.706  14.856
10125W        W71414   6.794   9.877   2.398
10126W        W71415  14.120  33.972   1.714
10127W        W71416   1.336  41.388   2.329
10128W        W71417  38.962   2.929   2.824
10129W        W71418  19.276  39.548   0.938
10130W        W71419  13.697  37.574  13.327
10131W        W71420  29.117  37.834   2.694
10132W        W71421  29.495   5.277  11.552
10133W        W71422  15.724  43.873  10.936
10134W        W71423  25.508  15.144  13.348
10135W        W71424  26.998  27.566  13.981
10136W        W71425  44.345  44.416   5.119
10137W        W71426   8.357  28.022  10.906
10138W        W71427   5.257  22.194   3.722
10139W        W71428  26.143  40.002   4.319
10140W        W71429  16.299  22.628  13.520
10141W        W71430   4.212  39.856  14.395
10142W        W71431  36.890   4.377   3.320
10143W        W71432  31.592   7.762   4.247
10144W        W71433  27.510  16.580  11.550
10145W        W71434  23.615  27.644  14.314
10146W        W71435  19.587   5.810  12.996
10147W        W71436  23.003  17.257  13.856
10148W        W71437  20.764   3.338  12.524
10149W        W71438   8.318  11.326   4.613
10150W        W71439  27.471  37.858  14.507
10151W        W71440   7.388  20.751   0.390
10152W        W71441  15.593  39.431   0.406
10153W        W71442  20.234  28.445  14.462
10154W        W71443  14.808  31.105   2.314
10155W        W71444  40.356  40.314  13.847
10156W        W71445  38.363   4.894   2.331
10157W        W71446  37.397  38.025   0.429
10158W        W71447  13.205  17.785   4.729
10159W        W71448  16.655  33.996  14.953
10160W        W71449  25.131  17.694   0.828
10161W        W71450  32.127  37.429  10.986
10162W        W71451   4.303  24.216   3.231
10163W        W71452  17.759  32.442  10.926
10164W        W71453  28.097  39.948   0.387
10165W        W71454  33.928  44.416  13.960
10166W        W71455  17.638   4.257   1.347
10167W        W71456  21.221  37.848   0.313
10168W        W71457  34.074  38.428   1.305
10169W        W71458  11.698   2.775   9.441
10170W        W71459  16.250  30.949   2.338
10171W        W71460  33.090   6.193   0.382
10172W        W71461   7.814  37.557   0.400
10173W        W71462   4.799  44.926   4.607
10174W        W71463  16.099  26.698  14.999
10175W        W71464  13.174  42.800  13.375
10176W        W71465  36.430   3.325  11.400
10177W        W71466  26.026   0.488   1.384
10178W        W71467  20.630   3.870  11.562
10179W        W71468   7.860  13.280   0.729
10180W        W71469  42.945  10.735  12.455
10181W        W71470   9.808  25.526   9.949
10182W        W71471   1.279   2.806   0.332
10183W        W71472  30.083  34.034  12.572
10184W        W71473   6.356  17.234   0.356
10185W        W71474  21.182  41.799  13.548
10186W        W71475   6.796   9.258   1.251
10187W        W71476  35.489  36.444   1.216
10188W        W71477   4.314  28.102  11.121
10189W        W71478  25.030  21.633  12.038
10190W        W71479   4.720  44.443   5.217
10191W        W71480  21.534  17.284   0.477
10192W        W71481  37.899  10.724  10.972
10193W        W71482  16.792  27.500   2.280
10194W        W71483  23.189  39.491   4.334
10195W        W71484  23.643   0.327   2.393
10196W        W71485   1.901   5.921  13.047
10197W        W71486  36.402   9.166   3.834
10198W        W71487  30.076   4.861  13.807
10199W        W71488  38.558  43.789  12.972
10200W        W71489   6.806   2.388  12.531
10201W        W71490  30.965   9.199  13.975
10202W        W71491   3.247  29.013  13.837
10203W        W71492  12.744  24.533   4.174
10204W        W71493  18.158  33.403   0.939
10205W        W71494  13.742   3.711   3.679
10206W        W71495  17.107   8.752  11.429
10207W        W71496  23.675  32.504  14.937
10208W        W71497   2.883  15.153  13.805
10209W        W71498  24.601  14.662  11.449
10210W        W71499  41.864   8.845  11.912
10211W        W71500  14.828  32.968  14.976
10212W        W71501  31.901  20.649   3.788
10213W        W71502  19.158  10.876  13.041
10214W        W71503  15.328   3.904  14.459
10215W        W71504  44.967  17.273  12.411
10216W        W71505  23.691  29.669   3.681
10217W        W71506  20.106   2.807   4.295
10218W        W71507   8.838  11.701   4.780
10219W        W71508  26.130  23.722  11.474
10220W        W71509  33.466  15.159   0.402
10221W        W71510  33.539  37.915   3.271
10222W        W71511  35.070  14.675   1.697
10223W        W71512  24.717  40.356   1.857
10224W        W71513  43.466   5.769   1.715
10225W        W71514  13.114  25.208  13.317
10226W        W71515  38.464  32.428  10.922
10227W        W71516  19.275  10.717  12.458
10228W        W71517  43.350  22.578  10.911
10229W        W71518  32.543  25.110  13.914
10230W        W71519  26.132  28.161   0.950
10231W        W71520   4.888   0.314   4.783
10232W        W71521   1.969  28.646   3.227
10233W        W71522  26.152  22.651  11.077
10234W        W71523  37.373   7.350   2.302
10235W        W71524  32.024  39.833   1.757
10236W        W71525   5.854   5.902  11.103
10237W        W71526   7.405  27.958  14.777
10238W        W71527  25.695  29.494  11.017
10239W        W71528   3.788  15.751   1.852
10240W        W71529   0.847   0.429  12.559
10241W        W71530  12.255  16.111  11.923
10242W        W71531  25.529   4.351  14.401
10243W        W71532  14.299  34.920   3.809
10244W        W71533  18.578   6.307  12.361
10245W        W71534  28.064  27.627  12.887
10246W        W71535   5.821  43.927  12.844
10247W        W71536  15.649  32.969   1.350
10248W        W71537  20.091  30.068  12.460
10249W        W71538  31.963  26.979  10.531
10250W        W71539  22.552  30.933   3.298
10251W        W71540   7.877  35.067  12.526
10252W        W71541  17.301  22.723  13.882
10253W        W71542  41.462  18.201   2.266
10254W        W71543  19.730  16.127  10.910
10255W        W71544  40.022  19.686  10.910
10256W        W71545  12.224  25.476  12.896
10257W        W71546  34.601   8.822  10.497
10258W        W71547  13.821   6.697  10.536
10259W        W71548   7.701   9.750  13.963
10260W        W71549  42.354  24.082   1.851
10261W        W71550  13.640  31.097  11.867
10262W        W71551  12.174  33.948   0.812
10263W        W71552  31.127   2.382   9.666
10264W        W71553  38.863  31.576  13.523
10265W        W71554  36.995  25.692   4.261
10266W        W71555   3.792   8.679  13.328
10267W        W71556   9.326   5.326   3.636
10268W        W71557  33.949   2.254   4.283
10269W        W71558  22.613  33.536  11.096
10270W        W71559  36.078  40.513   2.188
10271W        W71560  13.701  31.566   3.371
10272W        W71561  14.210  31.511  14.768
10273W        W71562  15.636  27.675   2.238
10274W        W71563  39.855   9.653   3.857
10275W        W71564  21.175  38.478  13.815
10276W        W71565  31.458  22.660   4.145
10277W        W71566  41.489  27.996  14.877
10278W        W71567  29.124  11.288   1.364
10279W        W71568   9.256   8.754   1.345
10280W        W71569   9.763  38.908  10.440
10281W        W71570  16.730  40.334   3.676
10282W        W71571  16.284   0.912  13.317
10283W        W71572  29.939  21.701   4.824
10284W        W71573  43.335  33.956  14.974
10285W        W71574  12.118   6.215  13.443
10286W        W71575   4.897   1.377  11.128
10287W        W71576  44.938  20.689  11.537
10288W        W71577  11.868   9.777   3.682
10289W        W71578  26.974   8.248  12.894
10290W        W71579  40.458  41.883   4.802
10291W        W71580  13.183  30.552   3.287
10292W        W71581   7.760  25.601  14.954
10293W        W71582  27.644  21.156   4.234
10294W        W71583   9.273  24.045   1.776
10295W        W71584  15.267  39.810   4.200
10296W        W71585   0.876  42.816  14.484
10297W        W71586  35.572  40.023   1.738
10298W        W71587  35.497  24.572   0.813
10299W        W71588   5.213   9.227  13.875
10300W        W71589  37.054  38.465   1.295
10301W        W71590  39.425  20.716   2.191
10302W        W71591  20.677  11.703  12.988
10303W        W71592  29.503   0.885   4.730
10304W        W71593  42.780  10.642   4.698
10305W        W71594  24.025   3.886   0.390
10306W        W71595  37.487   0.982   4.132
10307W        W71596  37.833  30.938   2.253
10308W        W71597  19.564  44.401  13.338
10309W        W71598   2.832  36.360  13.431
10310W        W71599  39.987  38.918  14.823
10311W        W71600   8.206   4.343   4.116
10312W        W71601  13.797  41.990   4.668
10313W        W71602  22.154  33.416   1.346
10314W        W71603  41.372  38.014  11.950
10315W        W71604  38.565   3.877  12.882
10316W        W71605  20.061  33.624  11.112
10317W        W71606  14.122   6.875  12.395
10318W        W71607  18.692  33.383   2.720
10319W        W71608  37.887  25.043   4.825
10320W        W71609  43.934  35.957   4.735
10321W        W71610  36.549  34.966  14.958
10322W        W71611   4.402  33.415  13.926
10323W        W71612  42.345  35.018  13.918
10324W        W71613   7.738  39.332   3.743
10325W        W71614   9.311   1.829   0.402
10326W        W71615  38.847   1.383   0.780
10327W        W71616  44.906  11.746  14.368
10328W        W71617   0.284  15.765   2.759
10329W        W71618  20.110  13.315   2.884
10330W        W71619  13.293  27.951  12.873
10331W        W71620  21.064  40.859  13.352
10332W        W71621  44.784  25.964  12.551
10333W        W71622  33.007   2.824  13.544
10334W        W71623  16.717  42.811  11.531
10335W        W71624   2.372  29.003  12.576
10336W        W71625  41.975  43.404   0.754
10337W        W71626   7.265  44.935   3.779
10338W        W71627  29.132  34.969  14.817
10339W        W71628   3.259  33.059   1.301
10340W        W71629  36.491  17.253  14.903
10341W        W71630  13.318  28.131  13.845
10342W        W71631   6.777   3.280  10.623
10343W        W71632  24.007   4.899  10.622
10344W        W71633  26.646   0.840  13.427
10345W        W71634  20.522  19.676   1.403
10346W        W71635  22.116   4.727   3.351
10347W        W71636  16.230  41.030   5.771
10348W        W71637  18.728  22.716  11.608
10349W        W71638   7.198  41.300  12.569
10350W        W71639   6.803  22.139  14.359
10351W        W71640  27.159  25.679   4.156
10352W        W71641   9.159  23.691  14.298
10353W        W71642  17.664  22.595   4.752
10354W        W71643  33.616  28.135   0.874
10355W        W71644  18.055  13.811   3.303
10356W        W71645  24.628  37.008  13.047
10357W        W71646  12.628   2.923   1.729
10358W        W71647   3.216  13.270   2.348
10359W        W71648   0.438  35.100   4.247
10360W        W71649  33.481  26.192   0.415
10361W        W71650  17.573  19.211   2.183
10362W        W71651  41.375  14.828   4.196
10363W        W71652  44.975  10.263  14.375
10364W        W71653   5.280  25.699  12.548
10365W        W71654  24.200  42.284   0.442
10366W        W71655   2.388   2.470  14.891
10367W        W71656   2.278  37.502  13.885
10368W        W71657  12.210  12.726   2.786
10369W        W71658  20.046  30.129   4.705
10370W        W71659   1.920  29.012  14.341
10371W        W71660  33.068  14.189   3.759
10372W        W71661  17.555  32.056  11.611
10373W        W71662   6.793  13.205  12.883
10374W        W71663  10.337   8.719  12.988
10375W        W71664  21.695  26.106  11.111
10376W        W71665   3.762  25.073   3.765
10377W        W71666  34.884  10.689   0.432
10378W        W71667  24.070  23.219   0.437
10379W        W71668  21.572  32.454  11.860
10380W        W71669   7.774  22.590   4.631
10381W        W71670  44.006  26.184   2.681
10382W        W71671   8.248  22.638   2.337
10383W        W71672  13.843   2.370  11.440
10384W        W71673   6.811   1.279   1.855
10385W        W71674  13.645  43.962   1.381
10386W        W71675   0.926  22.556  11.432
10387W        W71676   9.197  15.676  14.332
10388W        W71677  38.839  42.456   4.762
10389W        W71678   6.741  29.566  11.477
10390W        W71679  19.613   6.224  11.856
10391W        W71680  17.078  18.114  12.857
10392W        W71681  30.030  40.012  14.467
10393W        W71682   6.290  20.594  11.059
10394W        W71683   4.270  11.769   3.338
10395W        W71684  15.582  16.600  13.389
10396W        W71685  12.152   8.273   3.791
10397W        W71686  15.795  23.654   3.345
10398W        W71687  19.646  34.088   0.437
10399W        W71688  43.429  34.424  11.028
10400W        W71689   9.203  29.633  14.347
10401W        W71690  11.230  25.097  11.872
10402W        W71691   7.713   8.700  14.411
10403W        W71692  23.603   4.382   1.711
10404W        W71693  40.502  11.682  10.540
10405W        W71694  41.941  43.346   0.451
10406W        W71695  31.537  36.541   3.223
10407W        W71696  39.346  20.578  14.393
10408W        W71697  13.720  31.153   2.293
10409W        W71698  36.358  21.017   2.404
10410W        W71699  42.922  30.427   3.682
10411W        W71700  28.022  10.196  12.467
10412W        W71701  33.102  10.303   0.865
10413W        W71702  20.193  34.465   3.288
10414W        W71703  29.173  34.102   0.826
10415W        W71704  43.367   6.423  11.558
10416W        W71705   4.911  10.315   2.793
10417W        W71706   7.288  39.869  13.402
10418W        W71707  28.489  16.610   4.155
10419W        W71708   3.896   4.877   0.786
10420W        W71709  28.462  41.981  12.350
10421W        W71710  17.158  16.578  13.520
10422W        W71711  36.500  12.340  13.959
10423W        W71712   6.202   6.253  10.997
10424W        W71713   2.842  33.004  12.093
10425W        W71714  11.223  23.594  14.808
10426W        W71715  36.486  31.544  11.984
10427W        W71716  42.365  25.534  14.340
10428W        W71717  19.082  31.630   0.322
10429W        W71718  26.045  42.787  11.120
10430W        W71719  28.448  21.251   3.633
10431W        W71720  27.951  12.218   0.464
10432W        W71721  33.549  19.696   3.318
10433W        W71722  17.585  21.164   0.336
10434W        W71723  26.051  37.487  14.414
10435W        W71724   9.276  41.439  10.006
10436W        W71725  37.014  21.549   4.780
10437W        W71726  34.401  37.058  11.037
10438W        W71727   4.236  36.849   3.781
10439W        W71728  17.085  14.147   2.825
10440W        W71729   6.909  14.128  14.761
10441W        W71730   8.199  20.716  14.429
10442W        W71731  24.230  15.120   0.299
10443W        W71732  14.809  39.493   2.286
10444W        W71733  29.944  31.930   0.392
10445W        W71734  13.231  10.742  10.453
10446W        W71735   8.165  37.996   2.809
10447W        W71736  30.611  28.106   2.395
10448W        W71737  35.064  31.935   3.203
10449W        W71738   1.975  44.987   3.855
10450W        W71739  13.163  42.991  10.606
10451W        W71740  32.069  28.544  11.949
10452W        W71741  19.068   3.753   1.266
10453W        W71742  27.562  44.487   1.331
10454W        W71743  20.538  32.527   2.406
10455W        W71744  22.652   4.934  13.859
10456W        W71745  42.909  44.819   4.335
10457W        W71746   2.784  31.532  12.096
10458W        W71747  16.165  29.137   0.926
10459W        W71748  24.632   0.940   4.334
10460W        W71749  38.977  22.181  12.849
10461W        W71750  25.015  33.073  14.379
10462W        W71751   1.758  41.961   1.800
10463W        W71752  44.483  26.686   9.971
10464W        W71753  16.172  13.786   3.667
10465W        W71754  20.115  32.622  13.511
10466W        W71755   3.461  28.955   1.893
10467W        W71756   4.905  43.993  14.304
10468W        W71757  44.765  41.298   3.332
10469W        W71758  12.187  11.709  13.947
10470W        W71759  19.674  11.677   1.791
10471W        W71760  12.635  25.987  10.628
10472W        W71761   5.760  25.616   2.211
10473W        W71762  13.810  14.157  12.898
10474W        W71763  24.101  35.007  11.036
10475W        W71764  39.989   1.845  13.460
10476W        W71765  32.939   1.354   2.784
10477W        W71766  23.024  21.671   4.262
10478W        W71767  19.604   6.287  13.404
10479W        W71768   0.406   8.327  11.403
10480W        W71769  21.118   5.294  13.513
10481W        W71770  32.551  17.082  10.625
10482W        W71771   0.758  10.153   3.351
10483W        W71772  12.313   0.986   0.868
10484W        W71773  37.067  13.297   3.297
10485W        W71774  33.434  40.379  10.450
10486W        W71775  35.409  39.438   0.477
10487W        W71776  40.956   1.388  12.411
10488W        W71777  24.587  36.548   1.901
10489W        W71778   6.775  41.342  13.805
10490W        W71779  25.666  34.579  11.022
10491W        W71780  34.096   6.770   1.216
10492W        W71781   5.687   0.894  11.920
10493W        W71782  36.930  37.523   0.923
10494W        W71783  27.057  27.646  11.103
10495W        W71784  15.810  28.080  14.397
10496W        W71785  36.003  24.143  12.008
10497W        W71786  22.054  40.439   3.851
10498W        W71787  15.730  17.298  14.303
10499W        W71788   3.720  16.597   9.998
10500W        W71789  43.882  24.531  10.955
10501W        W71790  42.381  15.814   0.782
10502W        W71791  35.944  20.250  10.049
10503W        W71792  32.092  40.503  14.006
10504W        W71793  26.203  16.090  13.867
10505W        W71794  32.017  41.997  11.991
10506W        W71795  32.452  44.355  13.510
10507W        W71796  30.535   5.810  10.026
10508W        W71797  15.651  22.525   0.728
10509W        W71798  13.782  17.613  12.543
10510W        W71799  32.524   8.697   4.618
10511W        W71800   8.803  16.197   2.798
10512W        W71801   2.737   3.736   3.387
10513W        W71802   7.885  18.599   4.199
10514W        W71803  29.648  14.226   2.737
10515W        W71804  28.056  27.086   1.282
10516W        W71805  24.140  11.656   3.780
10517W        W71806  29.988   2.888  13.416
10518W        W71807  12.661   5.900  12.493
10519W        W71808  36.368  25.995   2.668
10520W        W71809   3.892  41.947  10.615
10521W        W71810  35.361  16.713  14.018
10522W        W71811   0.361  19.732  11.447
10523W        W71812  29.954  16.698   1.776
10524W        W71813  33.458   5.823   3.667
10525W        W71814   2.411  34.980  14.333
10526W        W71815  34.916  23.063   1.869
10527W        W71816  12.788  10.226   3.256
10528W        W71817  22.532  20.688  10.911
10529W        W71818   6.830  40.995  11.481
10530W        W71819  21.663  42.885   0.448
10531W        W71820  39.009  14.828  13.892
10532W        W71821  43.767  13.245  14.290
10533W        W71822  14.761  36.532  14.009
10534W        W71823  36.037  16.198   2.379
10535W        W71824  11.210  26.679  11.372
10536W        W71825  34.885   1.970  14.302
10537W        W71826  43.948  41.008  10.448
10538W        W71827   2.239  37.381   1.442
10539W        W71828  17.269  41.022   0.726
10540W        W71829  38.548  35.416  13.384
10541W        W71830  35.894  12.189  13.799
10542W        W71831  14.712  35.425   0.830
10543W        W71832   2.361  37.427   3.340
10544W        W71833  18.624  19.261   1.798
10545W        W71834   5.780   8.805   5.084
10546W        W71835  12.300  42.877  12.415
10547W        W71836   5.321  15.272   2.669
10548W        W71837  17.739  27.995  12.385
10549W        W71838  28.553  10.174   4.691
10550W        W71839   3.905  14.600  12.512
10551W        W71840  27.977  27.511   2.672
10552W        W71841   5.746  19.612   0.928
10553W        W71842  41.831  12.226  12.869
10554W        W71843  30.063  12.848   0.959
10555W        W71844   0.904  29.003   3.677
10556W        W71845  24.014  18.229   4.654
10557W        W71846  23.705   5.380   2.366
10558W        W71847   1.365  17.745  14.003
10559W        W71848   5.704   6.878   0.304
10560W        W71849  19.565  32.927   4.190
10561W        W71850  42.844   1.248  10.936
10562W        W71851  13.838  10.656  13.320
10563W        W71852  29.663   3.247   2.739
10564W        W71853   8.383   1.408  14.904
10565W        W71854  11.821   4.699  10.503
10566W        W71855   0.388  38.450  14.792
10567W        W71856  31.486  41.919  12.472
10568W        W71857  42.362  22.542  10.950
10569W        W71858  10.800   5.273   1.887
10570W        W71859  40.924  19.601  12.926
10571W        W71860  15.698  15.717  10.503
10572W        W71861  14.832  17.152  11.542
10573W        W71862  23.091  24.145   3.722
10574W        W71863  28.649  20.200   2.667
10575W        W71864  20.562  43.967   4.641
10576W        W71865   6.771  26.683  13.420
10577W        W71866  17.198   9.765   1.831
10578W        W71867   6.781  19.628   3.852
10579W        W71868  31.482  33.423  12.537
10580W        W71869  28.144  19.122   0.269
10581W        W71870  44.911  10.147   3.360
10582W        W71871  36.518  17.168   5.162
10583W        W71872  33.108  22.177  13.370
10584W        W71873  35.897  34.472  13.851
10585W        W71874   8.259  41.983   3.828
10586W        W71875  28.108   6.271   1.338
10587W        W71876  20.263  43.462  13.938
10588W        W71877  44.412  30.517  14.891
10589W        W71878   8.705  12.152   3.152
10590W        W71879  36.506  27.644  12.549
10591W        W71880  34.992  35.514   0.848
10592W        W71881   3.284  13.149   0.396
10593W        W71882  38.396  40.928   1.305
10594W        W71883  14.757  10.230  13.317
10595W        W71884   5.432   2.769  14.998
10596W        W71885  30.139   7.748   4.754
10597W        W71886   8.704   7.773   5.158
10598W        W71887  30.428  17.637   4.785
10599W        W71888   8.232  16.739   2.263
10600W        W71889   8.190   7.677   1.912
10601W        W71890  12.211  35.579   1.289
10602W        W71891   0.452  12.145  13.436
10603W        W71892  22.202  34.436  13.539
10604W        W71893  28.664  15.258   1.881
10605W        W71894   7.312  34.960  11.085
10606W        W71895  29.450  44.783  11.976
10607W        W71896   3.236   6.736  14.466
10608W        W71897  38.411  24.548  14.905
10609W        W71898   7.270  21.024  12.536
10610W        W71899  26.174  10.770  14.446
10611W        W71900  17.267  44.775   4.116
10612W        W71901  19.232   0.390   2.229
10613W        W71902  13.754   4.434  11.067
10614W        W71903  39.838   8.205  10.598
10615W        W71904  17.564  41.528  11.376
10616W        W71905   2.303  21.090   2.845
10617W        W71906  13.156  20.267   2.293
10618W        W71907   6.795  22.181  12.068
10619W        W71908   6.805  36.551  13.940
10620W        W71909  43.811   3.934  11.406
10621W        W71910   0.439  33.964   4.727
10622W        W71911  37.467  32.589   1.838
10623W        W71912  27.080  37.893   1.821
10624W        W71913   2.257   8.842  13.908
10625W        W71914   5.827  17.785  13.499
10626W        W71915  41.362  16.702  10.961
10627W        W71916  22.190   9.793  13.996
10628W        W71917  26.542  35.994  14.421
10629W        W71918  27.068   1.471  11.470
10630W        W71919  13.152   9.655  10.512
10631W        W71920  10.172  43.289   4.794
10632W        W71921  14.317  15.799   5.249
10633W        W71922  19.708  15.201   0.794
10634W        W71923  31.993  10.867  13.974
10635W        W71924  22.247  31.016  11.065
10636W        W71925  22.084  44.850   2.366
10637W        W71926  27.169  25.003  13.900
10638W        W71927  28.998  30.144   0.349
10639W        W71928  20.049  44.282   4.760
10640W        W71929  19.247   8.662   4.734
10641W        W71930  24.711  27.143   0.947
10642W        W71931  27.029  32.484  11.417
10643W        W71932   3.870  43.448   3.663
10644W        W71933   5.765   6.882   2.860
10645W        W71934  23.100  32.636   4.301
10646W        W71935  31.550  10.641   3.863
10647W        W71936  27.634  26.105  13.911
10648W        W71937  31.120  27.992   5.316
10649W        W71938  38.862  27.084  13.509
10650W        W71939  38.374  23.132   2.811
10651W        W71940  27.509  24.506  13.413
10652W        W71941   4.431  28.643   0.447
10653W        W71942  28.565  24.631   0.880
10654W        W71943  29.532  38.353   4.311
10655W        W71944  40.943   5.197   1.229
10656W        W71945  13.189  42.968  13.923
10657W        W71946  41.034  28.456  10.476
10658W        W71947  20.180  44.459   2.329
10659W        W71948   8.223  35.058  13.890
10660W        W71949  16.168  11.156  14.939
10661W        W71950  33.909  10.758  10.945
10662W        W71951  24.522   9.169   2.360
10663W        W71952   5.321  39.872  12.974
10664W        W71953  29.051   3.859  14.416
10665W        W71954  42.389  36.503   1.916
10666W        W71955  41.916  40.405   3.870
10667W        W71956  33.874   8.867   2.742
10668W        W71957  32.424  25.618   4.134
10669W        W71958  10.378  37.010   3.313
10670W        W71959  10.867  30.656   1.345
10671W        W71960  37.069  14.670  12.999
10672W        W71961  40.490  13.203   0.965
10673W        W71962  24.031  10.185  11.013
10674W        W71963  17.262   5.827  11.029
10675W        W71964   1.893  15.320   2.816
10676W        W71965  10.664  17.756   3.856
10677W        W71966   8.789  31.591  14.318
10678W        W71967  41.472   0.922   1.410
10679W        W71968  18.132  19.229  11.385
10680W        W71969   5.729   9.310  12.095
10681W        W71970  20.245  42.340  11.910
10682W        W71971   4.719  39.919  11.868
10683W        W71972   3.312  19.694   0.807
10684W        W71973  33.412  11.794  14.385
10685W        W71974  28.945  37.858   2.354
10686W        W71975   2.853  43.438  10.404
10687W        W71976  10.250  41.354   4.216
10688W        W71977  24.138  19.626   4.170
10689W        W71978   2.360  23.103   0.912
10690W        W71979   7.209  44.872   0.898
10691W        W71980  31.013  38.519   2.738
10692W        W71981  38.426  16.076  11.386
10693W        W71982  26.192  31.638   0.391
10694W        W71983  32.950  26.179  11.022
10695W        W71984  16.246  42.924   4.323
10696W        W71985   7.900   6.910   1.447
10697W        W71986  31.038  24.153   0.261
10698W        W71987  28.935  42.300  10.518
10699W        W71988  24.178  21.039  11.560
10700W        W71989  23.095  36.519  13.328
10701W        W71990  14.617  11.819   4.800
10702W        W71991  19.223   1.442   4.708
10703W        W71992  24.000  22.137   3.356
10704W        W71993   8.186  30.002   0.251
10705W        W71994  30.119  15.586   2.298
10706W        W71995  20.206  38.430   2.684
10707W        W71996   5.761  17.680  14.803
10708W        W71997  32.059  31.925   4.659
10709W        W71998  33.501  26.030   4.276
10710W        W71999   6.697   7.879   4.708
10711W        W72000  28.541   1.358   1.713
10712W        W72001  23.018  37.525   1.333
10713W        W72002  33.428  19.718  13.931
10714W        W72003  41.449  41.934   0.370
10715W        W72004   2.957  36.913   0.752
10716W        W72005  39.343  13.120   0.275
10717W        W72006  26.138  41.342  11.531
10718W        W72007  18.198  12.298   1.800
10719W        W72008   1.952   1.774  12.064
10720W        W72009  17.662   2.959   2.344
10721W        W72010  28.128   7.289  14.797
10722W        W72011   8.161   2.239   2.784
10723W        W72012   8.705  30.040   3.208
10724W        W72013  40.938  28.025  11.876
10725W        W72014  31.573  38.832   2.182
10726W        W72015  31.019  12.797  10.922
10727W        W72016  20.191   8.204  12.463
10728W        W72017  42.307  18.059  14.442
10729W        W72018  37.983  25.204   2.358
10730W        W72019  24.704   6.738   4.774
10731W        W72020  11.773  13.690  14.878
10732W        W72021   4.368  39.313   3.351
10733W        W72022  19.753   6.205  10.565
10734W        W72023  44.885  30.449   2.329
10735W        W72024  15.168  29.048   1.434
10736W        W72025  44.416  44.269  11.081
10737W        W72026  38.430  43.480   0.466
10738W        W72027   9.877  40.869  11.441
10739W        W72028  19.215   6.686  14.014
10740W        W72029  25.097  40.804   1.744
10741W        W72030  37.407  38.385   2.254
10742W        W72031  19.253  44.384   3.267
10743W        W72032  41.996  18.255   1.729
10744W        W72033  21.105  20.080   3.798
10745W        W72034  12.652  34.442   2.868
10746W        W72035  41.509  28.171  12.569
10747W        W72036  30.578  38.488  13.532
10748W        W72037   3.805   3.324  14.327
10749W        W72038  34.925  37.962  12.387
10750W        W72039   0.820   1.282  11.974
10751W        W72040  11.630  18.787  14.403
10752W        W72041  35.019   8.867  10.902
10753W        W72042  14.710  31.941  14.341
10754W        W72043  34.902  14.705   2.366
10755W        W72044  19.181  32.574   2.272
10756W        W72045  29.044  40.477   0.900
10757W        W72046  30.444  33.625  14.932
10758W        W72047  32.936   7.736   3.867
10759W        W72048  29.034   2.947   1.771
10760W        W72049  17.278   9.169   1.344
10761W        W72050  20.545  16.759   3.295
10762W        W72051  41.423  29.137  12.395
10763W        W72052  32.126  23.206  10.416
10764W        W72053   8.854  31.979   4.125
10765W        W72054  29.643   4.232   3.170
10766W        W72055   0.470  21.168   0.857
10767W        W72056   8.858  21.665  14.942
10768W        W72057  11.859  12.275  11.106
10769W        W72058   7.399  34.579  11.559
10770W        W72059  27.196   4.708  10.967
10771W        W72060  15.777  34.569  14.030
10772W        W72061  41.985  41.532  14.456
10773W        W72062  19.192  10.332   3.749
10774W        W72063  29.634  36.093   1.219
10775W        W72064  19.069  43.337   3.693
10776W        W72065  41.306  36.398  14.360
10777W        W72066  40.039  33.479   0.770
10778W        W72067  34.474  43.929  11.492
10779W        W72068  40.818  33.121  10.459
10780W        W72069  19.158  36.026  12.068
10781W        W72070  39.043  26.599  10.529
10782W        W72071  29.951  32.505  12.087
10783W        W72072  40.518  37.358   1.706
10784W        W72073  41.374  10.189  11.430
10785W        W72074  36.905  10.849  12.355
10786W        W72075  39.372  17.086   0.476
10787W        W72076  26.683  11.773   0.745
10788W        W72077  40.025  23.994  13.989
10789W        W72078   5.305  26.615   1.754
10790W        W72079  19.124  33.422  12.387
10791W        W72080  29.522  20.593  13.434
10792W        W72081   3.756  15.085   2.800
10793W        W72082  27.033  17.292   1.835
10794W        W72083   3.321  16.678  12.903
10795W        W72084  25.209  43.793  12.094
10796W        W72085  26.683  26.204   0.816
10797W        W72086  23.118   0.854  14.862
10798W        W72087  41.434  22.689  13.983
10799W        W72088  38.365  29.519  11.076
10800W        W72089  21.120  29.123   0.366
10801W        W72090  19.545  16.253   3.243
10802W        W72091  32.983  44.813   4.644
10803W        W72092  24.574  36.850   2.884
10804W        W72093   0.478  14.646  13.062
10805W        W72094  33.590   9.659  11.511
10806W        W72095   3.298  25.084   4.307
10807W        W72096  29.662  29.935  11.961
10808W        W72097  36.063  33.433   0.264
10809W        W72098  36.017  35.602   4.289
10810W        W72099  40.458  39.427   4.733
10811W        W72100  33.567  25.095   2.818
10812W        W72101  31.463  20.114   3.157
10813W        W72102   9.343  18.622  13.810
10814W        W72103  44.402  16.101   4.605
10815W        W72104   6.747  43.957   3.647
10816W        W72105   7.184   9.745  12.090
10817W        W72106  31.594  29.569  13.367
10818W        W72107  25.218  38.040  10.955
10819W        W72108  40.054  35.970   2.380
10820W        W72109  30.911  20.193   2.750
10821W        W72110  29.521   4.845  12.494
10822W        W72111   0.972  21.734   0.341
10823W        W72112  11.327  12.798   0.397
10824W        W72113  41.415   7.893   1.900
10825W        W72114  13.824  19.660  10.918
10826W        W72115  23.206  26.060   0.275
10827W        W72116  37.845  27.063  11.916
10828W        W72117   7.276  29.505  14.482
10829W        W72118  16.656  24.009   4.760
10830W        W72119  37.514   3.416   3.355
10831W        W72120  29.439  10.822   0.742
10832W        W72121  33.076  41.842  14.988
10833W        W72122  44.343  35.518   0.406
10834W        W72123  25.510  11.735   0.376
10835W        W72124   2.804  29.569   3.858
10836W        W72125  14.182  25.121   0.300
10837W        W72126  36.063  33.919  10.462
10838W        W72127  16.114  37.980   2.840
10839W        W72128  16.775  34.994   0.395
10840W        W72129  21.731  17.737  12.965
10841W        W72130   8.827  29.664   1.394
10842W        W72131  32.599   7.417  10.637
10843W        W72132  13.634   6.369  13.037
10844W        W72133  43.885  42.472  13.342
10845W        W72134  23.026  37.018   2.779
10846W        W72135  39.462  11.742  14.488
10847W        W72136  11.309  33.428   0.773
10848W        W72137  40.418  33.942   4.647
10849W        W72138  16.250  32.004  14.953
10850W        W72139  13.212  41.034   2.882
10851W        W72140  38.936  11.720   0.389
10852W        W72141  30.591  34.478  13.038
10853W        W72142  39.487  41.429   1.704
10854W        W72143  39.964   9.726   4.775
10855W        W72144  43.277   3.869  12.073
10856W        W72145  42.326  15.710  12.030
10857W        W72146  21.672  21.546   0.334
10858W        W72147   8.657  23.087  14.888
10859W        W72148   6.348   3.267   4.347
10860W        W72149  31.978   2.772   2.384
10861W        W72150  14.731  37.518  14.940
10862W        W72151   4.367  25.531   3.247
10863W        W72152  18.752   6.289   0.282
10864W        W72153  33.093  23.077   0.766
10865W        W72154  14.678   7.857  12.060
10866W        W72155  25.562   1.247   2.752
10867W        W72156  29.131  26.458   2.260
10868W        W72157  28.184  23.209   2.300
10869W        W72158  40.994  39.951  11.874
10870W        W72159  29.495  29.589   4.617
10871W        W72160  24.066  27.152  10.537
10872W        W72161  24.712  35.069  14.287
10873W        W72162   5.926  27.067   1.408
10874W        W72163  43.505  31.554  13.411
10875W        W72164  22.547  36.977  14.883
10876W        W72165  12.670  19.635  14.901
10877W        W72166  42.903  33.568   4.294
10878W        W72167  42.310  21.111  12.879
10879W        W72168  18.766  14.119   4.634
10880W        W72169  15.088   3.303   2.814
10881W        W72170  18.550  33.104   3.176
10882W        W72171  12.754  13.112  12.889
10883W        W72172  25.503  24.507  10.527
10884W        W72173   3.379  39.960  11.406
10885W        W72174  44.758   8.702   1.240
10886W        W72175  10.149  19.633   2.777
10887W        W72176   8.240  32.087   0.376
10888W        W72177  40.964   0.865   3.355
10889W        W72178   3.863  38.016  13.824
10890W        W72179  33.410  36.062   2.891
10891W        W72180  35.566   8.219   0.366
10892W        W72181  40.908   0.392  14.855
10893W        W72182  27.628  33.388  11.054
10894W        W72183  23.163   0.271   0.806
10895W        W72184  44.266  18.237  10.531
10896W        W72185  39.338  22.136  11.559
10897W        W72186  27.558  33.619  11.421
10898W        W72187  16.123  43.514  13.001
10899W        W72188  20.143  23.709  10.099
10900W        W72189  40.906  11.226  13.528
10901W        W72190  35.910  23.534  10.630
10902W        W72191   8.681  41.388   0.296
10903W        W72192  33.523  13.313  14.445
10904W        W72193  37.426   3.869   1.428
10905W        W72194  13.718   2.863  11.027
10906W        W72195  20.137  22.240  10.445
10907W        W72196  35.988   5.832  12.416
10908W        W72197  37.057  31.002   4.635
10909W        W72198   3.890   9.884  11.978
10910W        W72199  43.987  15.653  12.975
10911W        W72200   2.398  44.381  12.014
10912W        W72201   0.828   1.959   5.281
10913W        W72202  32.440  26.145   2.726
10914W        W72203  12.347  44.331  10.509
10915W        W72204  33.090   2.348  14.971
10916W        W72205   4.735  21.617  13.311
10917W        W72206  40.521   9.710  13.514
10918W        W72207  23.165   9.735   0.754
10919W        W72208  34.090  42.852   1.367
10920W        W72209  38.356  43.305  11.860
10921W        W72210   4.379  25.161  12.569
10922W        W72211   5.721  37.982   3.671
10923W        W72212  34.460  39.329   2.664
10924W        W72213  23.591  23.555   5.273
10925W        W72214  15.643   9.253   2.729
10926W        W72215  30.547  30.923   0.803
10927W        W72216   8.288  17.701  14.864
10928W        W72217  21.666   6.690  14.422
10929W        W72218  30.123  12.256   4.768
10930W        W72219  35.429  34.037   4.597
10931W        W72220  14.294   3.383   1.704
10932W        W72221  11.641   9.260   3.829
10933W        W72222  42.792  36.347   0.935
10934W        W72223  25.174  27.107  13.865
10935W        W72224  27.684  44.871   4.149
10936W        W72225  40.854  13.134  10.418
10937W        W72226  43.349  27.955   0.260
10938W        W72227  31.969   6.887   1.418
10939W        W72228   3.773  42.398  12.354
10940W        W72229  27.028  27.004  14.902
10941W        W72230  43.419   6.784   1.249
10942W        W72231  28.117  42.501  10.527
10943W        W72232   1.261  28.659   3.638
10944W        W72233  21.263  20.041   0.898
10945W        W72234  32.601   0.477   2.394
10946W        W72235  25.518  44.406  13.813
10947W        W72236   3.251  35.069   0.395
10948W        W72237  19.156  30.471   1.404
10949W        W72238  39.047  41.329  10.470
10950W        W72239   0.248  21.071   5.319
10951W        W72240  37.831  19.190  12.955
10952W        W72241  22.744  37.026  12.510
10953W        W72242  24.022   7.268   4.688
10954W        W72243  20.083  31.610   2.897
10955W        W72244  23.539  25.599  12.992
10956W        W72245  37.451  13.254   4.768
10957W        W72246  13.137  24.510  11.907
10958W        W72247  17.791   5.713  12.460
10959W        W72248   4.224  21.597  13.059
10960W        W72249  23.629  24.485   1.380
10961W        W72250   4.394  27.147   4.819
10962W        W72251  14.260   5.289  13.398
10963W        W72252  36.990  33.536  11.019
10964W        W72253   4.701  35.442   2.406
10965W        W72254  20.185  44.482   2.856
10966W        W72255  43.978  11.801  12.923
10967W        W72256  13.767  18.191   2.878
10968W        W72257   2.898  31.962  11.988
10969W        W72258   7.800  13.332   4.312
10970W        W72259  28.103   1.249  14.914
10971W        W72260  32.489   3.365  13.020
10972W        W72261  12.675  29.491  10.610
10973W        W72262  27.080   4.346   2.685
10974W        W72263  12.716  36.472  12.408
10975W        W72264   9.652  41.420   2.704
10976W        W72265  23.009  25.202  10.968
10977W        W72266  41.989  34.576  12.076
10978W        W72267  14.211   9.769   4.185
10979W        W72268  43.432  29.521   4.747
10980W        W72269  29.995  29.453   0.931
10981W        W72270  24.717  21.031   3.343
10982W        W72271   3.792  38.833   2.375
10983W        W72272  18.237  41.473   1.733
10984W        W72273  40.435  25.649   4.685
10985W        W72274  18.181  16.734   2.323
10986W        W72275  15.241   3.381  14.378
10987W        W72276   8.353  27.579  12.936
10988W        W72277  39.978  24.707  14.978
10989W        W72278   1.424  44.852  13.504
10990W        W72279  17.797  18.211   0.371
10991W        W72280   8.795   6.292  14.764
10992W        W72281   3.748  43.842   1.345
10993W        W72282  36.494   7.184  11.902
10994W        W72283  31.117  14.135  11.937
10995W        W72284  32.040   4.762  13.424
10996W        W72285   9.288  18.172   0.390
10997W        W72286  17.122  12.119   4.325
10998W        W72287  13.830  14.153   1.851
10999W        W72288  37.441  12.843  13.842
11000W        W72289   8.674  19.688   2.823
11001W        W72290  21.067  16.209  11.859
11002W        W72291  25.173  18.636   4.294
11003W        W72292  32.024   8.330  12.981
11004W        W72293  33.076  34.918   1.414
11005W        W72294   7.367   5.902  14.816
11006W        W72295  29.566   5.809   2.691
11007W        W72296  13.115   4.212  10.911
11008W        W72297  40.961   0.953   3.815
11009W        W72298  31.572  27.122  13.469
11010W        W72299  24.027  42.374   3.740
11011W        W72300  31.930  30.511  13.321
11012W        W72301  32.921  20.720   3.274
11013W        W72302  22.620  39.439   4.237
11014W        W72303   4.739  29.659   2.764
11015W        W72304  32.110  14.131  12.530
11016W        W72305   6.716  25.093  14.824
11017W        W72306  33.066  43.278  10.955
11018W        W72307  36.026  35.977  14.487
11019W        W72308  18.734  10.363   5.245
11020W        W72309  22.583  12.351  10.573
11021W        W72310   9.165  36.986   4.662
11022W        W72311  36.386  34.427   3.150
11023W        W72312  30.976  17.715   1.850
11024W        W72313  16.121  22.507  13.839
11025W        W72314  20.676  42.384   0.413
11026W        W72315  41.507  20.156   3.216
11027W        W72316  10.646   3.279   1.876
11028W        W72317  20.266  21.151   0.886
11029W        W72318   9.185  34.566  12.460
11030W        W72319  32.581  38.345  13.017
11031W        W72320  17.749   1.909   1.827
11032W        W72321  34.107  22.534  11.918
11033W        W72322  13.131   6.754  14.000
11034W        W72323  23.569  36.916   1.797
11035W        W72324  32.536  18.571   3.197
11036W        W72325  26.482  43.466   4.344
11037W        W72326  40.347   7.178   9.967
11038W        W72327  21.687  40.384  14.765
11039W        W72328   8.676  30.962  14.030
11040W        W72329  42.318  29.921   0.304
11041W        W72330  43.395  36.479  13.520
11042W        W72331  19.213  30.518   0.387
11043W        W72332  22.230  33.057   1.894
11044W        W72333   0.485   2.758   2.680
11045W        W72334  24.164  42.868   0.794
11046W        W72335   1.274   2.403   0.760
11047W        W72336  19.071  25.479  14.893
11048W        W72337   5.694  20.730   4.353
11049W        W72338   6.801  30.146  10.550
11050W        W72339  36.929   7.411   4.354
11051W        W72340  25.570  21.194  12.451
11052W        W72341  14.772  22.518  12.492
11053W        W72342  31.969   4.323   2.856
11054W        W72343  27.005  40.425  10.602
11055W        W72344   3.394  34.414  13.342
11056W        W72345  31.639  30.594  12.537
11057W        W72346  37.423   8.164   2.798
11058W        W72347  36.076  19.627   3.743
11059W        W72348  24.059   3.251   1.895
11060W        W72349  40.022   3.273   0.904
11061W        W72350  28.518   6.797   0.244
11062W        W72351  32.118   6.819   2.830
11063W        W72352   6.884  23.238   3.234
11064W        W72353  42.495  32.981   2.678
11065W        W72354  27.090  44.818   3.288
11066W        W72355  21.557   9.824  11.856
11067W        W72356  18.774  22.710   1.723
11068W        W72357  32.081  44.891  10.899
11069W        W72358  30.495   6.708  14.301
11070W        W72359  30.495  26.163   1.319
11071W        W72360  33.971  31.598  14.844
11072W        W72361  34.555   1.381   1.867
11073W        W72362  20.266  39.057  13.950
11074W        W72363  32.916  16.250  12.390
11075W        W72364  27.144  14.308   3.257
11076W        W72365  19.661  23.677  11.493
11077W        W72366  27.522  10.779  11.538
11078W        W72367  38.866  31.505  14.903
11079W        W72368  24.487  25.483   4.740
11080W        W72369  31.427  40.406   1.231
11081W        W72370  37.844  39.045  14.470
11082W        W72371  38.987  32.050   0.330
11083W        W72372  34.984   1.321  12.842
11084W        W72373  22.557  22.189  13.807
11085W        W72374   3.912  14.714   0.947
11086W        W72375  17.290  12.681   2.329
11087W        W72376  22.511  39.048   9.967
11088W        W72377  12.814  20.605   3.238
11089W        W72378  18.165  11.192   0.424
11090W        W72379  29.019  10.258   3.855
11091W        W72380  40.857   7.214   1.407
11092W        W72381  10.643  33.088  12.537
11093W        W72382  26.097   3.456   3.324
11094W        W72383  20.036   7.396   2.890
11095W        W72384  23.033  15.619  14.931
11096W        W72385   0.459  40.939  13.978
11097W        W72386  40.804   4.288  11.050
11098W        W72387  20.207  32.964   0.805
11099W        W72388  17.690  24.028   5.127
11100W        W72389  37.049  17.073  14.335
11101W        W72390  23.107  37.380   3.268
11102W        W72391   0.872  42.334   4.157
11103W        W72392   0.825  23.550   3.329
11104W        W72393   2.929  42.496  12.379
11105W        W72394  13.262  42.954  12.415
11106W        W72395   2.745   1.294   0.465
11107W        W72396   6.756  12.250  12.894
11108W        W72397   3.422  16.288  14.443
11109W        W72398  10.769  29.994   0.741
11110W        W72399  33.899  32.990  13.041
11111W        W72400  20.231   0.849  12.954
11112W        W72401  28.152  20.035  14.920
11113W        W72402   0.476  38.399   4.826
11114W        W72403   0.432   7.871   4.349
11115W        W72404  12.127  34.985   3.793
11116W        W72405  30.156  33.525  11.077
11117W        W72406  19.230   7.307  11.922
11118W        W72407   3.257  35.441   0.364
11119W        W72408  18.070   6.700  14.317
11120W        W72409  13.348  28.462   1.880
11121W        W72410  18.549  38.542   5.198
11122W        W72411  17.614   3.257   0.439
11123W        W72412  40.880  20.202   0.463
11124W        W72413  16.807  32.893   3.297
11125W        W72414  13.125  41.317   4.660
11126W        W72415  33.387   7.357  10.146
11127W        W72416  41.384  24.706  11.090
11128W        W72417   1.312  31.541   4.750
11129W        W72418   6.376  35.073  10.146
11130W        W72419   2.318   2.823   3.372
11131W        W72420  11.168  14.688  12.518
11132W        W72421  39.828  21.704   0.771
11133W        W72422  44.442  26.068   2.401
11134W        W72423   1.343   3.743   2.742
11135W        W72424  15.769  21.231   1.334
11136W        W72425   4.422   4.937  10.629
11137W        W72426  37.016  24.553   1.318
11138W        W72427  40.839  27.476  14.969
11139W        W72428  19.148   1.953   2.179
11140W        W72429  12.327  24.655  14.996
11141W        W72430  43.021  21.045   3.825
11142W        W72431  44.441  14.242   5.087
11143W        W72432  22.197  26.137   1.448
11144W        W72433  36.576  33.018   2.272
11145W        W72434  28.935  43.461  11.443
11146W        W72435  35.463  13.727  11.025
11147W        W72436   9.268  24.019  13.800
11148W        W72437  17.718  25.197  12.458
11149W        W72438  20.673  34.371  13.477
11150W        W72439   4.334  17.721  10.615
11151W        W72440  43.972  16.604  11.063
11152W        W72441  41.829  26.599   1.911
11153W        W72442  30.094  21.745   2.328
11154W        W72443   7.356  28.679   2.856
11155W        W72444  34.479  28.952   1.726
11156W        W72445  33.524  44.368   4.612
11157W        W72446  30.157   4.742   1.852
11158W        W72447  40.974   9.373   2.681
11159W        W72448  11.629  15.587   3.653
11160W        W72449  34.479  25.533  11.013
11161W        W72450  26.991   8.282  11.990
11162W        W72451  30.512  44.811   3.761
11163W        W72452  31.535  18.773   3.294
11164W        W72453   8.270  40.800  12.540
11165W        W72454  42.391  21.678  14.510
11166W        W72455  12.123   8.755   2.310
11167W        W72456  44.922   6.202   4.193
11168W        W72457   3.285  36.980   4.214
11169W        W72458  21.203  19.241   0.889
11170W        W72459   5.910  44.978  11.493
11171W        W72460  31.082  42.818  14.424
11172W        W72461  27.656  13.787   0.924
11173W        W72462  14.149   0.829   1.908
11174W        W72463  43.828  23.568   2.713
11175W        W72464   4.922  25.082  12.975
11176W        W72465  26.459  10.873  11.580
11177W        W72466  19.164  42.294   0.436
11178W        W72467   7.230  22.222  10.469
11179W        W72468  44.390  29.171   1.923
11180W        W72469  35.470  41.366   0.301
11181W        W72470  16.165  25.673  11.409
11182W        W72471   1.382  41.490  13.427
11183W        W72472  32.393   2.748   0.837
11184W        W72473  14.740   7.181  11.884
11185W        W72474   1.430  15.248  13.872
11186W        W72475  10.236  38.344   0.907
11187W        W72476  33.026   4.430  14.303
11188W        W72477  28.942  42.913  12.573
11189W        W72478  13.674  26.611   9.948
11190W        W72479  37.877   7.402  13.000
11191W        W72480   6.850  21.036  10.051
11192W        W72481  29.041   9.790  10.895
11193W        W72482  41.380  17.110   0.826
11194W        W72483  28.592  24.049  10.520
11195W        W72484  36.037  17.556   3.174
11196W        W72485  44.790  15.755   3.653
11197W        W72486  27.575  10.776  14.911
11198W        W72487  27.135   9.394  12.532
11199W        W72488  22.073   6.239   3.242
11200W        W72489   8.228  14.252   2.663
11201W        W72490  30.582  15.312  13.039
11202W        W72491  20.755  41.020   1.322
11203W        W72492  22.142   4.287   2.768
11204W        W72493  15.652  30.121  13.941
11205W        W72494  37.450  30.032   2.757
11206W        W72495  26.099   7.855   1.792
11207W        W72496  35.915   7.678   3.657
11208W        W72497  34.866  27.497   0.304
11209W        W72498  31.065  28.171  13.918
11210W        W72499  41.388  31.140  10.914
11211W        W72500  17.565  16.143  13.040
11212W        W72501  16.684  16.672  10.524
11213W        W72502  24.512   7.898   1.247
11214W        W72503   1.258   6.732  12.036
11215W        W72504  17.612  11.623   0.806
11216W        W72505  29.155  36.986  11.082
11217W        W72506  20.587   8.200  11.546
11218W        W72507  11.371  29.980  11.967
11219W        W72508  43.988  37.485  11.479
11220W        W72509  40.997  26.548   1.870
11221W        W72510  22.728  13.836   2.670
11222W        W72511  26.519  44.929  13.820
11223W        W72512  18.139  15.781   1.732
11224W        W72513  43.280  28.065  10.477
11225W        W72514  16.781   1.430  10.984
11226W        W72515  28.015  10.845   3.312
11227W        W72516  40.529  15.206   3.704
11228W        W72517  25.128  27.539   1.889
11229W        W72518   8.312   2.270  12.496
11230W        W72519  23.155  21.122   4.151
11231W        W72520  43.463  25.106   1.875
11232W        W72521  25.549  20.062   9.459
11233W        W72522  39.444  16.603   9.436
11234W        W72523  26.699   2.833   1.864
11235W        W72524  22.248  36.539  13.792
11236W        W72525  10.680  24.152  14.921
11237W        W72526   4.794   1.434  13.894
11238W        W72527  22.696  14.717   0.426
11239W        W72528  31.436  25.105  14.295
11240W        W72529  39.037  20.065  14.423
11241W        W72530  42.827  43.435  12.865
11242W        W72531  12.226  15.156   4.598
11243W        W72532  10.303  42.868   2.347
11244W        W72533  18.176  35.926  14.001
11245W        W72534   1.958  28.614  10.547
11246W        W72535   2.303  21.083  13.484
11247W        W72536  25.117  44.887   4.284
11248W        W72537  25.664  30.485   4.204
11249W        W72538  38.885   9.268   2.694
11250W        W72539   5.687  18.676   1.751
11251W        W72540   6.808  18.142  11.878
11252W        W72541  16.072   3.751   3.708
11253W        W72542  15.131   7.376  10.932
11254W        W72543   4.877  31.510  13.804
11255W        W72544   4.221  22.059  13.792
11256W        W72545   3.835  18.582  11.545
11257W        W72546  16.756  40.470  13.472
11258W        W72547  40.527  40.900   0.884
11259W        W72548  11.254  17.088  11.420
11260W        W72549   3.856  21.259   0.409
11261W        W72550  28.176  32.121  10.002
11262W        W72551   7.676   3.421  14.955
11263W        W72552  20.549  26.552  12.358
11264W        W72553  34.023  40.983  10.961
11265W        W72554  44.844   1.381   3.748
11266W        W72555  24.559  44.889   0.835
11267W        W72556  25.969  28.451   0.964
11268W        W72557  30.535   7.326   0.375
11269W        W72558  39.358  23.051  13.927
11270W        W72559  14.114   4.253   0.831
11271W        W72560   1.791  19.237  12.477
11272W        W72561  38.885   2.252  13.526
11273W        W72562  11.655   8.293  13.894
11274W        W72563  19.717  38.010   0.433
11275W        W72564  40.852   3.870   0.870
11276W        W72565   4.427  25.469   1.449
11277W        W72566  13.793  33.931   4.621
11278W        W72567  42.005  43.328  13.515
11279W        W72568   3.299  32.980   0.815
11280W        W72569  40.003  41.354  11.378
11281W        W72570  27.520  10.297   4.682
11282W        W72571  43.279  21.608  11.405
11283W        W72572  39.877  21.137   3.340
11284W        W72573  28.473   7.735  11.985
11285W        W72574  27.090  10.806   0.261
11286W        W72575  20.739  26.180   4.617
11287W        W72576  40.415  36.372  12.368
11288W        W72577  23.657   3.352  11.602
11289W        W72578  41.528  14.689  14.804
11290W        W72579  13.660  35.021  10.945
11291W        W72580  34.459  32.465   0.419
11292W        W72581  12.815  32.545  12.578
11293W        W72582  10.852  23.236  14.421
11294W        W72583   5.317  35.406  13.395
11295W        W72584  18.258  10.661   4.718
11296W        W72585  27.972   0.824  13.847
11297W        W72586  38.439  26.115   3.313
11298W        W72587  15.219  23.045   5.643
11299W        W72588   2.957  25.092  13.536
11300W        W72589  31.903   2.833   0.731
11301W        W72590   1.759   0.897  14.861
11302W        W72591  19.189  26.019   2.901
11303W        W72592  16.735   5.816   2.183
11304W        W72593  21.667  18.594   3.365
11305W        W72594   2.799  25.631  12.580
11306W        W72595  18.224   7.268   3.801
11307W        W72596  37.373  44.367   3.721
11308W        W72597  24.621   8.298  14.013
11309W        W72598  31.013  42.900   4.285
11310W        W72599  10.859   2.331  12.568
11311W        W72600  42.334   0.958   3.768
11312W        W72601  39.874  14.238   4.245
11313W        W72602  29.630  30.959  10.433
11314W        W72603  38.824  18.627   0.427
11315W        W72604  20.695  21.156  11.078
11316W        W72605  16.305  26.531   0.330
11317W        W72606  43.400  28.088  11.503
11318W        W72607  13.157   8.848   4.778
11319W        W72608   3.868  24.671   3.792
11320W        W72609  24.721  12.329  14.903
11321W        W72610  11.829  20.699   0.820
11322W        W72611  33.032  32.484   4.160
11323W        W72612  14.805   6.741   1.337
11324W        W72613   6.755  31.606   4.276
11325W        W72614   5.879  19.574  11.871
11326W        W72615  39.853  18.613  14.512
11327W        W72616  30.944   7.370  13.908
11328W        W72617  15.138  44.816  11.419
11329W        W72618  43.872   3.914   1.892
11330W        W72619  20.163   2.266  11.034
11331W        W72620   6.890  32.920   0.908
11332W        W72621  36.077  31.536  12.843
11333W        W72622  43.270  34.944  14.478
11334W        W72623  18.065  42.901   4.188
11335W        W72624  38.328  28.997   3.374
11336W        W72625  28.133  20.522  10.058
11337W        W72626  22.138  37.958   3.181
11338W        W72627  44.813   5.428  10.489
11339W        W72628  24.145  34.491  13.464
11340W        W72629  39.999  12.307  14.853
11341W        W72630  22.664  23.676   2.410
11342W        W72631  44.425  32.494   0.260
11343W        W72632  12.830  11.837   4.230
11344W        W72633  30.127  29.933   2.225
11345W        W72634  34.608  26.178   0.269
11346W        W72635  14.726  16.658   4.204
11347W        W72636  33.404  13.197  13.984
11348W        W72637  33.466  14.308   2.733
11349W        W72638   1.323   8.299  10.644
11350W        W72639   0.389  10.363   3.664
11351W        W72640  28.978  43.497   0.439
11352W        W72641  14.141   3.897  14.020
11353W        W72642  32.403   3.370   0.898
11354W        W72643  17.287  39.525   3.637
11355W        W72644  27.640   7.893  12.563
11356W        W72645  38.832   2.878   4.262
11357W        W72646  31.980  43.409  11.379
11358W        W72647  37.002   8.355  14.498
11359W        W72648  22.244  27.947  13.466
11360W        W72649  12.852  17.248  10.542
11361W        W72650   4.837  32.125  14.812
11362W        W72651  37.576  35.861  12.545
11363W        W72652  25.215  35.890  13.464
11364W        W72653  30.431  18.653  10.588
11365W        W72654  42.301   2.310  14.937
11366W        W72655  23.105  14.661  12.040
11367W        W72656  24.541  44.368  13.479
11368W        W72657  33.098  44.295   0.919
11369W        W72658  35.569  36.559  14.972
11370W        W72659   2.856  37.917   1.323
11371W        W72660  15.196  11.834   1.320
11372W        W72661  36.004  30.934   0.963
11373W        W72662  24.054  13.332   1.729
11374W        W72663  37.507  43.920  12.362
11375W        W72664  36.501  21.196  13.472
11376W        W72665  41.007  18.628  13.811
11377W        W72666   3.861  11.775  13.005
11378W        W72667  15.171   6.252  14.882
11379W        W72668   5.269   9.683  13.423
11380W        W72669  23.096  11.350   1.905
11381W        W72670  21.137  13.182   4.813
11382W        W72671  38.885  31.624  10.575
11383W        W72672  18.568  39.832  14.337
11384W        W72673  10.737  24.198  12.970
11385W        W72674  39.489   2.467  12.454
11386W        W72675  39.967  29.009  14.292
11387W        W72676   9.839  18.050  12.936
11388W        W72677  40.521  31.501  12.984
11389W        W72678   4.403  20.223   4.218
11390W        W72679  12.739  15.823   2.859
11391W        W72680  34.002  34.406  13.324
11392W        W72681  30.653  40.929   3.857
11393W        W72682  26.989  31.647  11.534
11394W        W72683  15.297   3.923  10.600
11395W        W72684  28.651   8.257   1.872
11396W        W72685  25.527  43.467   0.288
11397W        W72686  25.580  40.333   1.381
11398W        W72687  39.863  41.940  14.304
11399W        W72688  40.977   7.276  12.362
11400W        W72689  10.257   6.896  14.964
11401W        W72690   9.336  28.985  13.987
11402W        W72691  31.027   9.742   4.319
11403W        W72692  22.678  34.501   5.091
11404W        W72693  13.216   4.753  12.967
11405W        W72694  28.100  21.731  13.479
11406W        W72695  28.594  36.458   0.938
11407W        W72696   4.833  28.597  14.959
11408W        W72697  16.652   7.757   0.469
11409W        W72698  12.228   4.314   4.693
11410W        W72699  29.436  12.250   2.325
11411W        W72700  30.962  22.209  13.951
11412W        W72701  14.276  37.363  14.415
11413W        W72702  13.800  40.522  11.387
11414W        W72703  42.487  29.627   1.917
11415W        W72704   6.313  25.083   1.885
11416W        W72705   4.435  24.084  12.579
11417W        W72706  11.735  10.313   3.818
11418W        W72707  31.050  22.200  11.962
11419W        W72708  17.176  29.618  10.508
11420W        W72709  17.626  37.420  10.483
11421W        W72710  22.134  13.342   4.205
11422W        W72711  23.705   3.327   1.905
11423W        W72712  27.125  29.935   0.365
11424W        W72713  37.394  39.066   1.902
11425W        W72714  42.983  35.932  13.987
11426W        W72715  39.006  31.504   2.691
11427W        W72716  30.958  17.589  12.420
11428W        W72717  37.359   3.819   4.181
11429W        W72718   8.714  39.864   1.871
11430W        W72719  40.478   6.273   4.340
11431W        W72720  42.801  25.113  12.057
11432W        W72721   3.736  13.741  10.618
11433W        W72722  42.369  27.086  14.894
11434W        W72723  20.166  13.773   0.255
11435W        W72724  39.555  28.111  13.526
11436W        W72725  15.783  26.080  14.313
11437W        W72726  38.412  28.663   2.850
11438W        W72727  25.126  40.419   2.834
11439W        W72728  10.817  25.645   3.785
11440W        W72729  21.141  13.683   3.807
11441W        W72730  40.423  18.727  12.082
11442W        W72731  23.099  14.813   3.751
11443W        W72732  26.089  19.574  14.989
11444W        W72733  38.421  35.031   0.450
11445W        W72734  30.480  10.297  10.074
11446W        W72735   3.243  19.618  10.127
11447W        W72736  37.446  28.007  14.295
11448W        W72737   3.721  13.174  10.888
11449W        W72738   8.189  40.524   2.274
11450W        W72739  25.599  26.089   1.776
11451W        W72740   3.377   6.352  12.457
11452W        W72741  24.500   5.856  10.962
11453W        W72742  40.965  29.139  11.382
11454W        W72743  16.204  28.954  13.804
11455W        W72744  17.248  31.434  10.460
11456W        W72745  35.444   4.279  14.375
11457W        W72746  10.153  30.435   1.815
11458W        W72747  38.466  22.580  12.430
11459W        W72748   1.376  10.852  11.120
11460W        W72749  37.460  35.055   2.243
11461W        W72750   6.752  32.583   1.277
11462W        W72751  21.675   2.953   3.172
11463W        W72752  35.573  12.841  14.467
11464W        W72753   1.382   9.717   2.846
11465W        W72754  35.858  37.389  14.353
11466W        W72755   5.703  38.831  13.362
11467W        W72756   9.220   9.826  13.977
11468W        W72757  10.835  43.373   4.155
11469W        W72758   9.885  36.977  11.955
11470W        W72759  31.143  27.476   0.480
11471W        W72760  20.582   2.425  12.355
11472W        W72761   8.706  29.501  11.556
11473W        W72762  35.942   6.262   0.354
11474W        W72763  17.159  22.999   0.321
11475W        W72764   6.712  33.407   3.309
11476W        W72765  23.051  38.040   1.803
11477W        W72766  37.549  29.526  14.300
11478W        W72767  38.403  11.313  12.440
11479W        W72768   2.251  33.568  14.278
11480W        W72769  26.104  42.400  10.900
11481W        W72770  39.964  11.817  10.528
11482W        W72771  32.038  22.130   3.261
11483W        W72772   7.193  31.011  14.006
11484W        W72773  44.921   7.737  13.393
11485W        W72774   2.232  17.083   0.845
11486W        W72775   2.967   7.318   4.351
11487W        W72776  12.800  20.646  14.892
11488W        W72777  14.319   2.759   3.689
11489W        W72778  29.943  10.172  13.509
11490W        W72779  33.043  37.543   2.288
11491W        W72780   5.917   8.716  12.541
11492W        W72781  42.975  19.118   2.802
11493W        W72782   7.742  28.121  13.421
11494W        W72783  39.058  29.492  13.405
11495W        W72784  33.419   8.777   3.869
11496W        W72785  22.564   4.920   0.244
11497W        W72786  35.534  22.209  14.501
11498W        W72787   5.355  14.199  13.915
11499W        W72788   9.711  20.720  10.568
11500W        W72789   9.357  26.114  10.612
11501W        W72790  24.505  24.492  11.487
11502W        W72791  20.689  12.140  13.459
11503W        W72792  28.442  40.886  13.996
11504W        W72793   6.853   4.386  14.932
11505W        W72794  26.094  43.818  11.032
11506W        W72795  40.984   1.735  11.472
11507W        W72796  40.323  13.729  12.389
11508W        W72797  15.308  32.431  10.905
11509W        W72798   4.409  13.235   2.807
11510W        W72799   8.660  36.925   1.421
11511W        W72800   4.822  30.117   1.252
11512W        W72801  42.985  13.194   1.709
11513W        W72802  10.323  30.945  10.568
11514W        W72803  36.527  25.688   0.942
11515W        W72804   4.384  16.697   3.337
11516W        W72805  40.363  26.606  11.451
11517W        W72806   2.927   4.734  11.074
11518W        W72807   9.809   9.778  14.802
11519W        W72808  34.588   9.376   1.764
11520W        W72809  44.838  14.670  14.397
11521W        W72810  25.183   9.178   5.586
11522W        W72811   7.764  35.965  13.460
11523W        W72812  10.196  35.062   2.222
11524W        W72813  40.952  21.248  12.467
11525W        W72814  36.045  42.391   0.413
11526W        W72815  39.986  28.963  10.581
11527W        W72816  27.500  28.101  13.378
11528W        W72817  21.691  32.618   3.333
11529W        W72818   9.354  18.251  14.336
11530W        W72819  35.986  40.009  14.325
11531W        W72820   5.274  25.694  11.945
11532W        W72821   2.376  29.503   4.827
11533W        W72822  19.199  20.635   3.278
11534W        W72823  21.548   0.802   1.794
11535W        W72824  28.652  31.590   2.179
11536W        W72825  37.842  31.415   1.426
11537W        W72826   5.196   9.748  11.111
11538W        W72827  22.228  17.735  10.642
11539W        W72828  31.410  24.581  14.827
11540W        W72829  39.945  36.490  12.077
11541W        W72830   7.866  29.547   0.795
11542W        W72831  12.185   8.772  10.644
11543W        W72832  29.118  37.481   0.320
11544W        W72833  15.314  12.638  14.408
11545W        W72834  36.366  18.092  14.325
11546W        W72835  21.092   7.360  10.901
11547W        W72836   8.298  23.161   1.807
11548W        W72837  36.015  37.969  14.353
11549W        W72838  10.811  27.485   1.293
11550W        W72839  26.623   6.265  14.367
11551W        W72840   8.336  25.214   5.147
11552W        W72841  37.522  43.782  11.018
11553W        W72842  10.328   6.799  14.464
11554W        W72843  40.934  37.526  11.984
11555W        W72844   4.801  27.091  13.338
11556W        W72845  30.427  20.571   2.278
11557W        W72846   0.917  41.525   5.274
11558W        W72847  35.432   3.750  10.043
11559W        W72848  37.838  35.420  13.908
11560W        W72849   2.301  39.862  12.952
11561W        W72850  39.491  21.752  12.041
11562W        W72851  17.205  30.039   9.949
11563W        W72852  41.525  44.349   4.115
11564W        W72853  16.297   9.765   0.782
11565W        W72854  31.452  17.627  13.356
11566W        W72855  23.539  22.508  12.004
11567W        W72856  30.933   0.392  11.103
11568W        W72857   1.756  25.158  11.386
11569W        W72858  11.305  17.224  12.928
11570W        W72859  39.980   4.431   4.161
11571W        W72860  21.189  32.060  11.016
11572W        W72861  37.894  11.140  13.970
11573W        W72862  39.960  25.543  14.968
11574W        W72863  43.839  32.526  10.481
11575W        W72864  31.418  18.586  13.337
11576W        W72865  38.852  17.630   2.681
11577W        W72866  24.638   9.173   5.136
11578W        W72867  44.877   2.750  11.533
11579W        W72868   0.371   7.406  12.532
11580W        W72869  22.158   3.774   3.328
11581W        W72870  24.043  23.033   1.331
11582W        W72871   5.245   7.849  10.952
11583W        W72872  39.343  40.391   3.707
11584W        W72873  30.014   2.356  14.353
11585W        W72874  42.888  41.319  10.928
11586W        W72875  12.248  40.991  14.800
11587W        W72876  34.516  20.075  13.472
11588W        W72877  29.175  44.504   1.876
11589W        W72878  42.875  19.697  10.607
11590W        W72879  18.691  27.150  14.780
11591W        W72880  15.318  28.516  14.341
11592W        W72881  14.146   5.932  13.008
11593W        W72882  35.898  14.132  13.358
11594W        W72883  21.619  29.474  13.429
11595W        W72884  16.125  12.846  14.394
11596W        W72885  40.033  19.647  12.956
11597W        W72886   1.270  24.537   0.879
11598W        W72887  42.478  42.459  10.525
11599W        W72888  40.473  22.696   0.396
11600W        W72889   2.321   9.273  14.312
11601W        W72890   4.778  34.372   0.891
11602W        W72891  18.174   6.244  13.002
11603W        W72892   0.954  30.422   3.698
11604W        W72893  20.569  26.595  10.476
11605W        W72894  14.190   8.163   4.739
11606W        W72895  42.963  30.513   4.215
11607W        W72896  16.793  43.402   0.820
11608W        W72897   0.972   1.278   0.347
11609W        W72898   6.334  34.443  10.405
11610W        W72899  37.881  36.503   1.248
11611W        W72900  10.275  35.497   0.259
11612W        W72901  37.925  40.449  14.789
11613W        W72902  44.807  36.425  11.081
11614W        W72903   5.729  30.092   1.267
11615W        W72904   1.830   6.743  14.905
11616W        W72905   6.903  39.916   3.263
11617W        W72906  27.448   7.766  14.026
11618W        W72907  30.907  20.179   4.602
11619W        W72908  31.900  35.494   1.879
11620W        W72909   3.940  20.247   4.815
11621W        W72910  39.477  37.067  14.765
11622W        W72911  18.548  14.824   3.377
11623W        W72912  16.189   6.847   2.751
11624W        W72913  22.040  10.812  13.355
11625W        W72914  18.780  22.607   9.956
11626W        W72915  17.648  42.872   2.676
11627W        W72916  20.145  30.129   1.883
11628W        W72917  26.983  27.690   4.669
11629W        W72918  31.615  10.248  11.947
11630W        W72919   7.789   8.889  11.027
11631W        W72920  34.413   3.375   3.230
11632W        W72921  39.397  16.693  14.411
11633W        W72922  17.141  26.689  14.414
11634W        W72923   7.359   3.881  14.444
11635W        W72924  32.010   9.772  10.524
11636W        W72925  34.925  42.808   2.412
11637W        W72926  31.570  22.151   3.816
11638W        W72927  15.782  44.365   3.678
11639W        W72928  15.142  43.489   1.273
11640W        W72929   0.427  43.912   4.282
11641W        W72930   2.332  36.471  13.839
11642W        W72931  18.086  18.578  11.483
11643W        W72932  15.231   4.763  11.111
11644W        W72933   6.310  29.453   2.253
11645W        W72934  34.611  25.003  14.349
11646W        W72935  28.166  40.855   4.139
11647W        W72936  13.142  43.979   2.829
11648W        W72937   0.986  14.590  13.843
11649W        W72938   4.427  33.398  14.771
11650W        W72939  22.703  42.996   1.735
11651W        W72940  31.085  28.103  10.470
11652W        W72941  34.607  17.626   2.874
11653W        W72942   2.746  25.519   1.408
11654W        W72943  22.597  34.495  13.843
11655W        W72944   0.467  42.461  14.504
11656W        W72945   9.672  42.916   2.278
11657W        W72946   5.712   3.847  14.300
11658W        W72947  41.330  14.698   3.164
11659W        W72948  19.628  28.625  12.407
11660W        W72949  32.093  21.596  14.414
11661W        W72950   3.358   1.859  14.788
11662W        W72951  34.012   6.718  14.798
11663W        W72952  20.262  29.652   0.406
11664W        W72953  35.959  30.579  12.879
11665W        W72954  10.258  36.844  14.303
11666W        W72955  26.576  29.664   1.869
11667W        W72956  29.968  13.318   2.671
11668W        W72957  43.508  22.022   1.411
11669W        W72958  23.192  40.895  12.544
11670W        W72959  42.284  14.263   1.370
11671W        W72960   8.364  27.129   0.339
11672W        W72961  25.966  10.669  11.034
11673W        W72962   4.788  42.957   2.338
11674W        W72963  37.496  29.003   3.869
11675W        W72964  44.474  33.413  13.927
11676W        W72965  27.625  30.986  12.886
11677W        W72966  31.079  44.863   3.653
11678W        W72967  22.028  35.973  12.511
11679W        W72968  42.956  39.996   1.907
11680W        W72969   4.795   7.758  13.309
11681W        W72970  33.939   7.816  11.562
11682W        W72971  26.174  12.780   3.658
11683W        W72972  29.531   2.351  11.125
11684W        W72973  26.467  26.136   1.433
11685W        W72974  31.479   4.934  10.483
11686W        W72975  26.638   6.215   0.802
11687W        W72976  34.503   5.862  10.954
11688W        W72977  37.550  32.602  14.423
11689W        W72978  41.911  20.659  12.876
11690W        W72979   9.750  22.523   4.132
11691W        W72980  35.024  33.475  11.064
11692W        W72981   6.418  15.648   2.395
11693W        W72982  20.146  31.110   2.888
11694W        W72983  29.446  14.759  13.898
11695W        W72984  15.762  43.880  14.842
11696W        W72985  27.139  34.476  11.015
11697W        W72986  27.188   8.391   2.890
11698W        W72987  32.126   2.778  12.909
11699W        W72988  26.202  38.460  11.479
11700W        W72989  34.930  36.569   3.824
11701W        W72990  44.480   2.959  11.064
11702W        W72991  23.213  30.076  12.445
11703W        W72992  36.570  13.231   1.769
11704W        W72993  27.156   6.695   9.956
11705W        W72994  29.073   8.673  11.540
11706W        W72995  25.662   7.779   9.526
11707W        W72996  37.869  26.973  11.396
11708W        W72997  17.115  16.749  10.111
11709W        W72998  27.193  29.919   4.706
11710W        W72999  31.088  20.666  12.059
11711W        W73000  21.112   7.824  13.857
11712W        W73001  16.650  44.345   3.688
11713W        W73002  31.144   0.453   3.201
11714W        W73003  24.103   0.450   3.862
11715W        W73004  23.024  27.663  12.875
11716W        W73005   1.458  22.098  13.457
11717W        W73006  43.830  15.733   4.817
11718W        W73007  26.102  35.464   4.223
11719W        W73008  16.783  18.619  13.920
11720W        W73009  31.481  13.207  11.594
11721W        W73010  30.043  40.427   3.822
11722W        W73011  31.136  23.175  10.607
11723W        W73012  23.205  33.063   1.371
11724W        W73013  15.251  42.439   0.392
11725W        W73014  20.058  35.979   5.260
11726W        W73015  20.218   3.745   3.157
11727W        W73016  12.723  38.390  13.391
11728W        W73017   1.897  22.219  12.415
11729W        W73018  34.509  10.254  12.364
11730W        W73019  28.067  25.169  11.045
11731W        W73020  43.300  41.298   1.233
11732W        W73021   0.763   3.756  12.411
11733W        W73022  21.216  37.495   0.334
11734W        W73023  41.525  13.796   2.184
11735W        W73024  23.542  21.551   9.927
11736W        W73025  25.041  41.432   4.304
11737W        W73026  35.506  19.593   0.867
11738W        W73027  25.550  27.056  13.826
11739W        W73028  23.567  14.767  12.920
11740W        W73029   3.866   3.319   4.725
11741W        W73030  23.102  15.729  10.036
11742W        W73031  31.904   5.242   9.984
11743W        W73032  31.127   9.831   0.279
11744W        W73033   5.833  18.587   3.789
11745W        W73034  31.116  41.857   1.286
11746W        W73035  20.040   5.284   2.287
11747W        W73036  19.132  31.489   3.680
11748W        W73037  31.956  41.029  12.991
11749W        W73038   2.421   7.267  11.901
11750W        W73039   7.305  23.161   2.827
11751W        W73040   4.298  30.922   2.270
11752W        W73041  41.353  36.357   2.902
11753W        W73042  17.091  18.084   1.359
11754W        W73043   4.927  33.994   4.285
11755W        W73044  23.006  20.529   0.874
11756W        W73045  32.431  30.476  13.497
11757W        W73046   9.884  40.040  12.890
11758W        W73047  17.755  39.557   0.964
11759W        W73048  22.687  15.617   0.799
11760W        W73049   6.862   7.235  10.496
11761W        W73050  29.607  11.143   3.782
11762W        W73051  36.367  10.645   3.833
11763W        W73052  43.366   3.422  14.441
11764W        W73053  29.973  43.772   3.729
11765W        W73054  13.219  36.901  10.480
11766W        W73055  41.387  21.533  11.397
11767W        W73056  18.644  32.090  12.985
11768W        W73057  44.906  41.809  14.785
11769W        W73058  22.145  31.019  13.029
11770W        W73059   7.336   3.222   1.853
11771W        W73060  18.123  42.463   2.297
11772W        W73061   9.765  36.586  11.372
11773W        W73062  40.392  34.406   1.422
11774W        W73063  17.267  35.418   0.964
11775W        W73064  15.178   6.704   1.767
11776W        W73065   2.723   7.708   2.335
11777W        W73066  29.949  33.453   2.839
11778W        W73067  13.209   7.669  14.460
11779W        W73068  36.356  20.708  12.466
11780W        W73069  13.640  12.189  12.392
11781W        W73070  12.285  18.675  10.634
11782W        W73071  22.652   1.335   2.202
11783W        W73072  25.480   7.389   0.452
11784W        W73073  12.321   4.405   4.255
11785W        W73074  24.116   7.800  13.923
11786W        W73075  33.126  42.855   2.884
11787W        W73076  12.288  17.729  13.421
11788W        W73077   4.397  23.072   0.794
11789W        W73078  37.839  42.915   5.202
11790W        W73079  18.065  43.390   1.386
11791W        W73080  39.016  33.502   3.802
11792W        W73081  37.386  34.382   4.681
11793W        W73082   7.282  31.593  14.950
11794W        W73083   6.857  32.048  11.882
11795W        W73084  12.223   2.913   5.793
11796W        W73085  35.007  26.957  13.543
11797W        W73086  16.313  24.496   0.271
11798W        W73087  24.099  37.569   1.396
11799W        W73088   5.246  16.308  12.440
11800W        W73089  26.671  44.889   2.740
11801W        W73090   2.917  36.042   3.166
11802W        W73091   9.770   1.354  11.470
11803W        W73092   7.334  13.221   4.696
11804W        W73093  41.301   9.708   1.409
11805W        W73094  34.031  36.073  11.939
11806W        W73095  24.501  31.417  13.524
11807W        W73096   1.257  31.145  11.929
11808W        W73097   4.738  17.071   0.850
11809W        W73098  30.130  44.955  12.089
11810W        W73099   4.773   6.388   5.271
11811W        W73100  17.582   2.832   0.814
11812W        W73101   9.168  16.246  10.936
11813W        W73102  22.109  27.942   3.822
11814W        W73103  31.568   4.225   0.401
11815W        W73104  32.530  41.987   1.395
11816W        W73105  39.478  37.574  11.002
11817W        W73106  38.494  30.939  13.348
11818W        W73107  27.633  21.151   4.747
11819W        W73108  42.816  37.513   1.235
11820W        W73109  21.050  43.341   4.678
11821W        W73110  10.362   5.927  13.410
11822W        W73111  35.560  30.544   1.304
11823W        W73112   6.355  44.795  13.317
11824W        W73113   3.220  22.516   1.809
11825W        W73114   2.258   3.769  12.075
11826W        W73115  31.489  14.667  12.578
11827W        W73116  38.887  30.042  10.902
11828W        W73117   4.846  39.814  13.800
11829W        W73118  25.594  35.066  12.027
11830W        W73119  31.071  41.356   1.245
11831W        W73120  34.988   5.431   2.357
11832W        W73121  16.138  19.734   2.757
11833W        W73122  13.275  30.446  12.458
11834W        W73123   1.261  26.024   0.903
11835W        W73124  33.903  23.210  13.838
11836W        W73125  38.342  31.048   1.771
11837W        W73126  31.939   6.815  10.890
11838W        W73127  18.078  23.204  14.346
11839W        W73128  42.489   6.748  14.412
11840W        W73129  37.986  19.606  11.530
11841W        W73130   0.850  29.147   0.474
11842W        W73131  11.861  12.842  12.984
11843W        W73132  18.264   7.374   1.264
11844W        W73133  42.929   4.356  10.084
11845W        W73134  11.775  42.944  13.527
11846W        W73135  33.545  43.843  13.904
11847W        W73136  16.634  36.355  11.003
11848W        W73137  24.552   1.868   1.343
11849W        W73138  37.831  27.996   9.965
11850W        W73139  23.086   8.843  12.906
11851W        W73140  21.638   5.265  12.849
11852W        W73141  40.394   8.196  12.456
11853W        W73142  36.029   2.314   2.685
11854W        W73143  15.682  26.602  12.427
11855W        W73144  14.755   3.931   2.812
11856W        W73145   1.377   1.906  13.430
11857W        W73146  43.999  30.989  14.409
11858W        W73147   9.305  32.060  11.484
11859W        W73148  18.107  29.139  12.346
11860W        W73149  41.923   5.841   3.721
11861W        W73150   0.780  40.372  13.365
11862W        W73151  24.978   3.397   3.228
11863W        W73152   4.833  10.376  10.448
11864W        W73153  37.996  35.950   4.703
11865W        W73154  20.077   1.338  11.453
11866W        W73155   6.292  43.886   1.394
11867W        W73156   8.828  30.438   4.687
11868W        W73157   9.839  18.672  12.910
11869W        W73158  36.032  14.608  12.894
11870W        W73159  38.933  22.504  14.426
11871W        W73160  42.425   0.265  12.009
11872W        W73161   3.320  12.748   2.314
11873W        W73162  14.794  27.037   2.214
11874W        W73163   1.883   3.257  13.918
11875W        W73164  22.686  22.725   2.237
11876W        W73165  10.704  10.342  12.396
11877W        W73166   1.265  40.379  13.804
11878W        W73167  44.457  32.124  13.858
11879W        W73168  16.234   9.368  11.525
11880W        W73169   2.235  20.669  11.036
11881W        W73170  44.398  33.123   0.467
11882W        W73171  34.599  44.847  13.547
11883W        W73172  17.733   5.345   2.252
11884W        W73173   5.322  39.845  11.393
11885W        W73174  41.429   0.261  11.122
11886W        W73175   9.780  17.707  14.981
11887W        W73176  36.456  35.552  12.484
11888W        W73177  43.336   3.396  10.151
11889W        W73178  13.148  34.405  13.540
11890W        W73179  41.880  42.450   3.674
11891W        W73180  27.483  30.001   1.857
11892W        W73181  23.661  13.246  14.286
11893W        W73182  22.058  29.966  10.925
11894W        W73183  23.143   8.256  13.855
11895W        W73184  23.540   8.770  11.456
11896W        W73185  28.629  31.480  13.991
11897W        W73186  24.495  43.968   0.353
11898W        W73187  17.166  35.570  13.935
11899W        W73188  23.671   2.834  14.792
11900W        W73189  37.372  39.943   3.297
11901W        W73190  38.363   3.801  14.375
11902W        W73191  40.390  16.683   0.740
11903W        W73192  18.099  39.556   1.898
11904W        W73193   5.284   2.359   4.298
11905W        W73194  16.099  11.214   2.794
11906W        W73195  14.120  19.270   3.179
11907W        W73196  35.063  30.635  14.404
11908W        W73197  28.490   6.356  14.515
11909W        W73198  28.105  31.514   2.347
11910W        W73199   4.260  28.504   4.319
11911W        W73200  16.663  25.469   1.255
11912W        W73201  33.956  30.039   2.696
11913W        W73202  37.490  21.645   2.803
11914W        W73203  32.393  13.155  11.577
11915W        W73204  27.692  41.345  10.891
11916W        W73205  25.712  24.149   2.399
11917W        W73206   2.301   9.766  11.439
11918W        W73207  26.071   9.873  13.876
11919W        W73208  14.208  41.898   5.302
11920W        W73209  15.236   9.338  11.866
11921W        W73210  34.605   4.379   3.812
11922W        W73211  40.054   7.235  10.640
11923W        W73212  34.918  29.072  10.975
11924W        W73213  41.508  38.527   1.315
11925W        W73214  28.577  43.953  10.500
11926W        W73215  22.056  31.039   0.749
11927W        W73216   7.702  12.797   0.296
11928W        W73217   1.381  15.120  12.872
11929W        W73218  18.590  24.683  13.841
11930W        W73219  28.017   3.232   4.728
11931W        W73220  32.445  17.269   3.350
11932W        W73221   7.415  29.474  13.511
11933W        W73222   0.921  23.088   1.373
11934W        W73223  38.075   4.203  11.503
11935W        W73224  12.629  14.339   1.876
11936W        W73225  30.031  32.508   2.414
11937W        W73226  33.520  39.495   2.353
11938W        W73227   5.918  10.356  10.570
11939W        W73228   9.761  14.826   3.261
11940W        W73229  36.493   6.383   4.342
11941W        W73230   7.334   3.328  13.840
11942W        W73231  44.430  26.182   1.329
11943W        W73232  31.458   3.889  13.054
11944W        W73233  40.946  19.137   0.794
11945W        W73234  25.530  31.083   0.794
11946W        W73235  20.086  39.826  12.094
11947W        W73236  30.492  12.228  14.359
11948W        W73237   5.835   8.340   3.733
11949W        W73238   7.794  11.653  12.009
11950W        W73239   0.346   8.290  10.428
11951W        W73240   8.384  34.946  13.309
11952W        W73241  41.945  16.258  10.630
11953W        W73242  15.302  32.606  11.578
11954W        W73243   2.449  29.102   3.223
11955W        W73244  10.783  30.586   2.233
11956W        W73245   5.337  28.103  13.414
11957W        W73246  35.031  19.251  14.795
11958W        W73247  17.576  37.526   2.345
11959W        W73248   6.912  38.898  10.523
11960W        W73249  40.955  36.402   0.841
11961W        W73250  19.214  14.824   0.295
11962W        W73251  33.891  13.762   2.405
11963W        W73252  25.987  33.049  11.888
11964W        W73253  38.472   7.181   4.324
11965W        W73254  43.848  10.208  12.971
11966W        W73255   8.274  14.238   3.846
11967W        W73256  20.623  20.221  13.847
11968W        W73257  20.105  23.008   0.730
11969W        W73258  24.585  15.178  10.589
11970W        W73259  19.172  23.234   3.358
11971W        W73260   7.270   1.255  14.872
11972W        W73261  28.019  42.383  13.381
11973W        W73262  44.390  37.556  14.496
11974W        W73263  20.541  24.708   0.791
11975W        W73264  31.009  27.649  11.513
11976W        W73265  14.620  15.297  12.565
11977W        W73266  17.767  27.161   4.618
11978W        W73267  25.534  30.639   1.846
11979W        W73268  36.573  29.017   3.685
11980W        W73269  36.868   3.942  13.832
11981W        W73270  23.529   5.414   2.728
11982W        W73271  16.275  40.443   1.729
11983W        W73272  22.545  15.642   4.278
11984W        W73273   7.715  18.731  14.780
11985W        W73274   9.327  44.975   4.218
11986W        W73275  12.227  44.286  13.835
11987W        W73276  14.243  26.571   3.270
11988W        W73277  37.551  44.349  12.352
11989W        W73278  16.673  30.420  13.414
11990W        W73279  31.565  12.786  11.047
11991W        W73280  23.061  13.640   0.446
11992W        W73281  35.591  44.390  14.360
11993W        W73282  26.559  24.123   3.189
11994W        W73283  31.550  35.502   3.705
11995W        W73284   9.853  37.009  10.620
11996W        W73285  12.818  39.845  11.865
11997W        W73286   4.737  26.538   1.933
11998W        W73287   3.440  43.776  10.625
11999W        W73288  14.613   0.896  13.425
12000W        W73289  35.967  34.599   4.351
12001W        W73290  32.544  12.268   1.431
12002W        W73291  27.656  12.620  14.817
12003W        W73292   3.918  17.241  12.477
12004W        W73293  22.202  21.642   3.776
12005W        W73294  40.354   7.302  11.593
12006W        W73295  33.532   9.371   2.363
12007W        W73296  19.093  10.374  12.942
12008W        W73297  16.303  14.645  12.361
12009W        W73298  25.509  43.834  14.958
12010W        W73299  26.653  14.797  14.781
12011W        W73300   9.836  40.909  13.471
12012W        W73301   9.385  16.772   1.267
12013W        W73302  21.172  27.094  14.787
12014W        W73303  32.418  28.523   1.734
12015W        W73304  20.173   3.784  14.308
12016W        W73305  13.691  39.315  14.466
12017W        W73306   0.973  33.394   5.113
12018W        W73307  23.992   1.807   4.801
12019W        W73308   9.691   0.878  14.421
12020W        W73309  25.594   5.689  14.845
12021W        W73310  16.131   8.894  12.995
12022W        W73311  23.128  38.456  12.453
12023W        W73312  43.876  36.546   4.262
12024W        W73313  24.051   2.862  12.893
12025W        W73314   2.755  31.442   4.153
12026W        W73315  42.503  13.282   2.782
12027W        W73316  14.615   2.323  10.976
12028W        W73317  20.230  23.172  11.015
12029W        W73318  40.851   9.694   0.859
12030W        W73319  20.761   1.885  11.416
12031W        W73320  34.521  33.424   2.391
12032W        W73321  25.520  39.821   2.192
12033W        W73322  25.491  14.633  10.459
12034W        W73323  23.650  26.605   3.241
12035W        W73324   5.398  37.361  11.523
12036W        W73325  43.411  29.089  13.980
12037W        W73326  21.575  26.982   0.319
12038W        W73327  34.037  30.163   0.875
12039W        W73328  24.712   0.454   0.452
12040W        W73329  37.345  20.672  13.834
12041W        W73330  25.478  27.507  12.578
12042W        W73331  29.580   2.924   4.725
12043W        W73332   5.744  38.392  10.531
12044W        W73333   3.240  21.219   1.424
12045W        W73334   8.286  32.510   1.341
12046W        W73335  16.207  39.383   0.459
12047W        W73336   0.779  14.607   4.719
12048W        W73337  14.284  33.078   2.205
12049W        W73338  24.682  42.997  12.864
12050W        W73339   7.233  39.021  11.499
12051W        W73340  38.840  11.752   3.275
12052W        W73341  23.573  27.686  14.812
12053W        W73342  26.114  14.728  14.932
12054W        W73343  12.139  27.481  11.916
12055W        W73344  24.576  24.508   0.784
12056W        W73345  24.490  41.526   3.366
12057W        W73346  28.648   2.902  12.027
12058W        W73347  37.493  13.682  11.014
12059W        W73348  26.071  40.925   2.274
12060W        W73349  35.011   1.736   2.370
12061W        W73350  36.434  15.608   0.919
12062W        W73351  18.261  22.713  10.514
12063W        W73352   5.266   8.193   4.800
12064W        W73353  20.767  32.419  14.974
12065W        W73354   9.792  11.836  14.843
12066W        W73355  26.091  38.823  11.057
12067W        W73356  31.064  32.496   0.829
12068W        W73357   4.718   2.724  12.468
12069W        W73358  32.461  15.790   1.694
12070W        W73359   4.288   3.286  10.967
12071W        W73360  18.560   3.782   2.292
12072W        W73361  24.657  26.539  14.966
12073W        W73362  18.556  42.486   3.222
12074W        W73363  30.591  30.583   0.802
12075W        W73364   2.942  13.141   0.430
12076W        W73365  31.133   0.904   0.419
12077W        W73366  29.574  11.227  13.056
12078W        W73367  41.464  35.097   4.813
12079W        W73368   2.370  43.516   3.704
12080W        W73369   0.256  30.911  11.568
12081W        W73370  15.748  36.407   4.279
12082W        W73371  28.121  17.103   3.855
12083W        W73372  24.209  35.907   4.265
12084W        W73373  13.681   6.868  12.510
12085W        W73374  38.068  43.368  14.383
12086W        W73375   8.294   3.948  11.991
12087W        W73376  10.181  44.795  13.829
12088W        W73377  31.624  12.719  11.581
12089W        W73378  28.643  35.561  13.310
12090W        W73379  27.100  44.389  11.912
12091W        W73380  43.778  12.144   1.345
12092W        W73381  20.146  42.994   5.314
12093W        W73382  36.558  41.003  13.362
12094W        W73383  20.752  30.428  13.991
12095W        W73384   4.310  34.951   3.162
12096W        W73385  34.021  38.380  11.069
12097W        W73386  36.585  44.406   3.239
12098W        W73387  10.273   6.385  10.492
12099W        W73388  12.159   3.413   5.262
12100W        W73389  15.086  25.679  12.575
12101W        W73390  37.942   6.415  14.820
12102W        W73391  10.815  23.051  11.989
12103W        W73392   5.716  24.490  12.876
12104W        W73393  35.885  17.109   0.267
12105W        W73394  31.431  12.827   0.357
12106W        W73395  25.509  32.076  14.464
12107W        W73396   9.678   9.307  11.015
12108W        W73397  42.470  10.656   2.750
12109W        W73398  37.897  44.977   0.940
12110W        W73399  25.212   5.313   1.792
12111W        W73400   7.297  32.533  14.997
12112W        W73401  35.097  37.449   2.810
12113W        W73402  30.478  40.974  11.865
12114W        W73403  12.712  29.631  12.887
12115W        W73404  41.403  42.842  14.465
12116W        W73405  31.465  39.376  12.388
12117W        W73406   9.161  39.049  12.528
12118W        W73407  26.151  28.141  12.398
12119W        W73408  27.164   2.271   4.255
12120W        W73409  23.670  18.680  13.801
12121W        W73410  43.962  27.628  12.909
12122W        W73411  40.870   8.656  11.998
12123W        W73412  32.501  24.492  14.779
12124W        W73413  12.178   2.763   4.732
12125W        W73414   7.692   9.163  10.558
12126W        W73415  24.523  39.836  10.603
12127W        W73416  13.127  30.989   3.737
12128W        W73417  13.700  41.512   0.404
12129W        W73418  34.462  43.775  14.000
12130W        W73419  26.148  33.031  14.815
12131W        W73420  34.568  14.225  14.280
12132W        W73421  10.702  24.517   2.340
12133W        W73422  35.560  16.701   5.687
12134W        W73423  40.878  43.020   0.731
12135W        W73424   6.716  28.084  13.955
12136W        W73425   8.734   9.782  10.540
12137W        W73426  20.670   9.288   3.245
12138W        W73427  16.753  44.946   3.227
12139W        W73428   2.921  15.176   4.611
12140W        W73429   4.725   1.898  12.926
12141W        W73430  27.171   1.456   4.715
12142W        W73431  24.489  29.587  14.445
12143W        W73432  37.882  32.900   0.851
12144W        W73433   5.758  40.895   0.848
12145W        W73434  20.705   1.906  13.942
12146W        W73435  31.063  24.067   2.688
12147W        W73436  22.066  36.586  10.488
12148W        W73437  17.581   4.783  11.613
12149W        W73438   1.802  29.647   2.384
12150W        W73439   1.823  41.894  13.997
12151W        W73440  29.099   4.446  13.007
12152W        W73441  22.584   0.784   1.883
12153W        W73442  25.045  19.770  11.398
12154W        W73443  43.438   9.799   2.235
12155W        W73444  28.637   8.384   2.736
12156W        W73445  15.718  27.597  13.844
12157W        W73446  43.991  41.500  13.955
12158W        W73447   1.481  18.221   1.711
12159W        W73448  30.590  41.955   2.412
12160W        W73449   8.344  23.577   5.246
12161W        W73450  43.500  14.606   2.219
12162W        W73451   5.732  36.431  12.045
12163W        W73452  34.987   8.891   1.219
12164W        W73453  33.496  43.852   1.772
12165W        W73454  41.038  37.465   0.954
12166W        W73455  25.070  21.229   0.836
12167W        W73456  13.321  37.916   2.350
12168W        W73457  17.286  10.875   0.832
12169W        W73458  38.861  28.651   4.180
12170W        W73459  43.351  42.445  10.423
12171W        W73460  31.618  22.141   0.344
12172W        W73461   8.303  43.882   3.746
12173W        W73462  40.803  10.642  11.510
12174W        W73463  42.932   5.335  13.000
12175W        W73464  30.049   4.733  10.451
12176W        W73465  26.011   5.690   1.385
12177W        W73466  28.988   2.348   2.742
12178W        W73467  29.984  17.253   4.751
12179W        W73468  29.045   6.750  13.365
12180W        W73469  17.665  16.224  13.825
12181W        W73470  28.563  25.094  12.021
12182W        W73471  30.024   9.217   2.750
12183W        W73472  27.494  41.984   1.921
12184W        W73473  23.537  42.428   3.751
12185W        W73474  34.590  28.454  10.981
12186W        W73475  17.675  31.110   3.211
12187W        W73476  39.330   4.894   9.923
12188W        W73477  29.145  13.251   2.235
12189W        W73478  34.971  29.591   4.160
12190W        W73479  23.571  17.717   4.805
12191W        W73480  22.729  31.501   0.374
12192W        W73481  44.842  22.246  11.017
12193W        W73482  21.693  36.404  14.403
12194W        W73483  39.918  41.855   4.636
12195W        W73484  21.696  35.405   2.749
12196W        W73485  20.546  23.201  11.392
12197W        W73486  30.613  35.105   2.752
12198W        W73487  17.221  37.342  12.954
12199W        W73488  14.203   7.844  13.496
12200W        W73489  15.248  18.151   3.801
12201W        W73490  32.490  24.667   4.704
12202W        W73491  23.163  17.191   1.266
12203W        W73492  34.045  17.182  14.962
12204W        W73493  23.574  15.813  14.482
12205W        W73494  27.185  12.215   1.355
12206W        W73495  32.902  21.681   3.380
12207W        W73496   0.269  24.675  11.474
12208W        W73497  16.082   3.232  10.929
12209W        W73498   6.769  35.923   3.187
12210W        W73499  35.932   8.169  14.453
12211W        W73500  14.739  30.938  10.529
12212W        W73501   4.934  11.185   0.836
12213W        W73502  43.803  29.932   0.797
12214W        W73503  38.052  36.057  14.981
12215W        W73504  33.018  19.549   1.311
12216W        W73505  32.560  23.495  11.112
12217W        W73506  32.086   5.304   3.188
12218W        W73507   3.836  17.277  14.476
12219W        W73508  44.877  14.160  12.394
12220W        W73509  10.834  19.150   4.268
12221W        W73510  10.193   9.361  14.293
12222W        W73511  29.003  42.942  13.372
12223W        W73512  43.836   9.388   0.467
12224W        W73513  42.329   3.281   1.411
12225W        W73514   5.304  29.449  11.862
12226W        W73515  11.804  28.003   5.198
12227W        W73516  25.086  44.269   2.894
12228W        W73517  18.220  13.801   1.841
12229W        W73518  23.167   1.358  12.858
12230W        W73519  31.143  19.192   2.385
12231W        W73520  31.582  31.119  13.966
12232W        W73521  44.885   8.661  10.466
12233W        W73522  32.537  25.698   0.729
12234W        W73523  10.746  10.149  14.312
12235W        W73524  18.253  21.750   1.762
12236W        W73525  11.648  18.545   1.840
12237W        W73526   3.458  21.114  13.986
12238W        W73527  25.124  14.317  11.392
12239W        W73528  20.100  10.818  12.528
12240W        W73529  14.170   7.737   5.264
12241W        W73530   7.831   2.754  11.596
12242W        W73531  25.675  32.523  13.920
12243W        W73532  19.254  29.577   4.666
12244W        W73533  24.137  41.044  10.955
12245W        W73534  21.561  38.943  10.071
12246W        W73535  21.203   3.278   0.461
12247W        W73536  25.041   2.257   4.776
12248W        W73537  33.438   3.246   0.871
12249W        W73538  40.879  23.733   0.264
12250W        W73539  19.758   3.422   4.654
12251W        W73540  24.661  25.698   3.215
12252W        W73541   0.940  24.528   0.455
12253W        W73542  27.571  29.601  10.981
12254W        W73543  22.034  40.547   4.140
12255W        W73544  29.508  31.547   0.373
12256W        W73545  23.512   5.852  14.329
12257W        W73546   2.907   7.404  14.514
12258W        W73547  38.475   0.429  14.360
12259W        W73548  36.995  25.634   4.619
12260W        W73549  32.045  39.059   1.703
12261W        W73550  41.805  19.087   1.793
12262W        W73551  39.525   8.261  12.871
12263W        W73552  42.893  26.172   1.722
12264W        W73553  28.538  17.245   0.390
12265W        W73554  44.438  44.899  14.472
12266W        W73555  34.041  15.657  10.564
12267W        W73556  38.917   5.694   2.413
12268W        W73557  43.500   1.771  14.465
12269W        W73558  14.154  26.632   4.774
12270W        W73559  40.809  11.332  11.939
12271W        W73560  24.589  27.574   4.128
12272W        W73561  44.858  16.710  10.917
12273W        W73562  13.681  19.590   3.147
12274W        W73563   7.895   9.877   2.388
12275W        W73564  26.039  14.325   2.861
12276W        W73565  18.767   3.793  12.435
12277W        W73566   7.179  20.640   3.771
12278W        W73567   0.272  20.256   0.429
12279W        W73568  29.521  38.004   2.879
12280W        W73569  26.680  12.663  13.532
12281W        W73570  39.869   5.394   4.768
12282W        W73571  23.228  33.539  13.401
12283W        W73572  36.877  12.633   2.322
12284W        W73573  29.606  12.178   3.167
12285W        W73574  14.600   0.861   3.688
12286W        W73575  39.926  32.894  11.585
12287W        W73576  42.357  21.682  13.435
12288W        W73577  43.963  28.640   4.345
12289W        W73578  13.727   1.734   3.241
12290W        W73579   0.851  31.127  13.884
12291W        W73580  43.356   4.255  10.985
12292W        W73581  38.026  24.120   3.725
12293W        W73582  26.551  15.725   4.350
12294W        W73583  33.575  43.309  11.542
12295W        W73584   2.452  32.136   4.688
12296W        W73585  29.970  12.197   2.229
12297W        W73586   8.211  12.644  11.414
12298W        W73587  19.691  28.937   2.742
12299W        W73588  41.012  31.957   4.304
12300W        W73589  44.482   1.871   5.154
12301W        W73590  38.363  15.620   0.244
12302W        W73591  26.649  21.595   4.349
12303W        W73592  14.126  40.026   2.766
12304W        W73593  28.122   3.453   2.764
12305W        W73594  39.393  23.692  13.018
12306W        W73595  22.165  38.964  12.906
12307W        W73596  30.057  10.804  11.897
12308W        W73597  38.520  34.082  10.562
12309W        W73598  16.253   7.845   2.830
12310W        W73599  40.524  29.447   4.655
12311W        W73600  25.589  18.268  13.031
12312W        W73601  24.678  11.643  14.013
12313W        W73602  24.644  17.717  11.561
12314W        W73603  40.043  12.203   2.196
12315W        W73604  35.963   6.911   3.197
12316W        W73605  35.938  22.093  10.551
12317W        W73606  12.833   3.347   3.165
12318W        W73607  18.745  20.680   4.628
12319W        W73608  30.420  16.688   3.803
12320W        W73609  16.158  42.995   2.758
12321W        W73610   2.227  38.560  12.897
12322W        W73611  30.971  40.385  13.911
12323W        W73612   8.773  19.119   1.417
12324W        W73613  26.516   2.783   3.650
12325W        W73614  27.155  18.662   2.199
12326W        W73615  33.412  24.696  13.924
12327W        W73616  14.626  22.565  14.389
12328W        W73617  15.673  25.685  14.454
12329W        W73618   4.354   3.385  12.404
12330W        W73619  27.987  21.183  14.999
12331W        W73620  34.920  42.854   0.900
12332W        W73621   9.840  27.539  12.561
12333W        W73622  24.082  42.492  14.785
12334W        W73623  38.480  44.953   2.800
12335W        W73624  12.642  27.519   2.332
12336W        W73625  25.632  35.885   3.307
12337W        W73626  31.010   4.236  11.900
12338W        W73627  35.075  18.674  11.431
12339W        W73628  43.962  40.023   0.314
12340W        W73629  44.780   2.952   4.675
12341W        W73630  38.345   0.962  14.488
12342W        W73631  13.786  21.685   1.705
12343W        W73632   9.718  39.050  13.822
12344W        W73633   1.301  20.719   4.119
12345W        W73634   9.228  16.668   4.751
12346W        W73635  15.220  20.103  12.399
12347W        W73636  37.365  39.357   1.319
12348W        W73637  33.997  32.966   0.463
12349W        W73638  24.202  16.086  11.038
12350W        W73639  43.289  20.176  12.919
12351W        W73640  31.000  18.704   2.898
12352W        W73641  30.612   6.270  10.492
12353W        W73642  34.369  36.976   0.889
12354W        W73643   5.695  15.791   1.731
12355W        W73644   7.308  10.648   0.793
12356W        W73645  18.077  21.699  14.786
12357W        W73646  42.396  24.495  11.423
12358W        W73647  36.436  16.781   4.822
12359W        W73648  19.689  16.719  13.986
12360W        W73649  31.947  26.138  11.950
12361W        W73650   9.727  10.380  13.530
12362W        W73651  15.100  11.796   3.734
12363W        W73652  19.154  36.984  12.521
12364W        W73653  30.026  16.800  14.840
12365W        W73654  44.459  37.059  12.422
12366W        W73655  11.141  16.709   0.265
12367W        W73656  26.067   6.233   4.251
12368W        W73657  10.212   4.873  11.372
12369W        W73658  13.715  43.422  11.530
12370W        W73659  29.064  44.785  11.888
12371W        W73660  39.523  43.378   4.783
12372W        W73661   5.349  22.528   1.898
12373W        W73662  17.097  35.926  13.394
12374W        W73663   2.904  28.520  14.380
12375W        W73664  28.666  37.941  10.438
12376W        W73665   9.808  25.197   1.751
12377W        W73666  30.938  19.771  14.315
12378W        W73667  24.130  43.384   1.914
12379W        W73668  18.615  35.401   4.765
12380W        W73669  23.217   1.435   1.302
12381W        W73670  16.673  10.730   3.187
12382W        W73671  39.338  12.681   4.185
12383W        W73672  22.046  22.738  11.974
12384W        W73673  42.989  17.265   4.699
12385W        W73674  38.444   3.938  12.414
12386W        W73675  16.094  13.171  12.999
12387W        W73676  19.099  42.793  13.886
12388W        W73677  43.288  35.058  13.484
12389W        W73678  16.593   6.847  12.983
12390W        W73679  38.886  17.253   0.792
12391W        W73680  37.444  33.911   1.439
12392W        W73681  40.004  37.541  10.476
12393W        W73682  29.513  34.384  13.936
12394W        W73683   2.395  25.986   4.619
12395W        W73684  23.114  26.034  13.868
12396W        W73685  25.570  24.081  11.986
12397W        W73686  29.489  11.269   2.796
12398W        W73687  13.173  21.619  13.791
12399W        W73688  26.494  14.217  13.875
12400W        W73689  25.999  36.091   3.640
12401W        W73690  35.470  24.669  14.822
12402W        W73691  28.175  20.204   3.360
12403W        W73692  15.616  14.825  10.941
12404W        W73693  18.144  25.061  12.023
12405W        W73694  26.466  23.164  12.837
12406W        W73695   0.309  33.118  13.325
12407W        W73696  43.302   4.335   2.688
12408W        W73697   8.824  20.258   3.289
12409W        W73698  42.482  35.105  11.413
12410W        W73699  21.616  41.526   3.173
12411W        W73700  13.205   1.239  10.482
12412W        W73701  25.508  39.969   1.929
12413W        W73702  14.753  28.930  13.873
12414W        W73703  29.154  44.956   2.852
12415W        W73704  44.762  42.407   4.120
12416W        W73705  27.000   1.458   2.369
12417W        W73706  44.765   3.343   0.396
12418W        W73707   5.405  21.224  13.518
12419W        W73708  31.617  39.985  12.842
12420W        W73709   1.443  18.282   3.353
12421W        W73710  14.294   6.814  14.424
12422W        W73711  15.234   4.711  12.963
12423W        W73712  41.446  32.426   1.786
12424W        W73713  43.842  13.341   4.276
12425W        W73714  19.681  41.427   4.631
12426W        W73715  40.303  24.147   4.653
12427W        W73716  24.177  13.739  12.394
12428W        W73717  19.758  36.536   4.675
12429W        W73718  23.235  43.816   4.311
12430W        W73719  30.480   2.797  13.947
12431W        W73720  20.054  44.336  13.963
12432W        W73721   3.323  27.639  13.413
12433W        W73722  37.579  40.477  10.505
12434W        W73723  35.934   3.791   3.293
12435W        W73724  42.438  41.399   1.390
12436W        W73725   9.755  40.385   3.688
12437W        W73726  31.548  43.855   4.240
12438W        W73727  39.560  41.908  14.009
12439W        W73728  20.542  37.459   2.821
12440W        W73729  18.639   7.897  12.901
12441W        W73730  27.998  35.971   4.217
12442W        W73731   1.778  36.425  12.991
12443W        W73732   9.304  36.034  12.893
12444W        W73733  33.612  34.547  13.417
12445W        W73734  29.532  26.562   1.329
12446W        W73735  42.978  37.382   3.318
12447W        W73736  31.597  28.459  10.892
12448W        W73737  14.311  42.478  12.353
12449W        W73738  20.061  40.918  13.006
12450W        W73739  14.256   2.729  14.287
12451W        W73740  31.110  14.803  12.897
12452W        W73741  23.086   5.276   3.301
12453W        W73742  44.340  15.705  13.529
12454W        W73743  15.823  18.715   2.848
12455W        W73744  12.209  31.435  12.087
12456W        W73745  32.997  27.195  14.843
12457W        W73746  42.985  40.437   2.208
12458W        W73747  23.673   5.838   3.735
12459W        W73748  40.030  13.611   0.887
12460W        W73749  27.497  23.120  14.792
12461W        W73750  24.161  35.443   0.243
12462W        W73751   9.248  44.360   3.770
12463W        W73752   9.274   9.214   2.198
12464W        W73753  14.711  35.050   2.831
12465W        W73754  20.115  39.859  10.473
12466W        W73755  27.943  28.658   3.273
12467W        W73756  32.018  25.487   4.173
12468W        W73757  12.740  11.668   2.217
12469W        W73758  43.416  16.119  11.601
12470W        W73759  28.628   7.333   3.279
12471W        W73760   9.854  27.075  14.936
12472W        W73761   1.476  17.103  14.840
12473W        W73762  16.304  41.965  12.884
12474W        W73763  41.846  44.994   0.966
12475W        W73764   5.372   4.776  14.995
12476W        W73765  36.507  35.891   4.826
12477W        W73766  13.349   8.166   2.374
12478W        W73767  21.735   3.741  13.892
12479W        W73768  40.361   2.867  12.579
12480W        W73769  36.446   8.345   2.675
12481W        W73770  25.064  13.277  13.803
12482W        W73771  35.528  41.793   0.264
12483W        W73772  22.154  39.328   2.691
12484W        W73773  37.932  14.292   4.128
12485W        W73774   6.896  29.040  13.795
12486W        W73775  15.226   7.699  13.892
12487W        W73776  34.452   9.883  10.968
12488W        W73777  41.846  25.593  12.935
12489W        W73778  36.574  39.021  14.397
12490W        W73779   6.390  12.329  11.423
12491W        W73780  25.999  24.086   0.867
12492W        W73781   2.731  33.563   0.728
12493W        W73782  34.397  22.720  13.892
12494W        W73783  33.507  23.548   1.301
12495W        W73784  19.277   8.713   4.140
12496W        W73785  43.021  16.751  10.549
12497W        W73786  15.660  31.102  12.041
12498W        W73787  41.420   4.218  14.927
12499W        W73788  28.075  11.146   5.255
12500W        W73789  34.009   7.356  12.852
12501W        W73790  34.092  33.557  14.962
12502W        W73791   4.841  15.765  11.906
12503W        W73792   8.899  26.538  13.015
12504W        W73793   3.401  39.478  13.048
12505W        W73794  31.443  10.727  12.342
12506W        W73795  30.023  36.842   1.698
12507W        W73796  13.274  16.663  11.538
12508W        W73797  29.480  35.363  13.517
12509W        W73798  18.748  15.231  13.343
12510W        W73799  35.369  14.151  11.916
12511W        W73800   6.776  24.187  13.813
12512W        W73801  17.079  31.088  10.975
12513W        W73802  19.072  20.755  12.513
12514W        W73803  15.714  19.213  14.806
12515W        W73804  35.535  21.713  13.534
12516W        W73805  42.382  10.266  13.521
12517W        W73806  31.446  18.629   4.601
12518W        W73807  26.960  27.474  11.934
12519W        W73808  30.011  21.574   2.696
12520W        W73809  30.141   0.458  12.410
12521W        W73810  28.491  20.660  14.450
12522W        W73811  30.509   8.300  13.811
12523W        W73812  26.666   5.366   3.770
12524W        W73813  14.733  25.108   2.902
12525W        W73814  41.323  40.985   2.871
12526W        W73815  41.415   7.193  14.350
12527W        W73816  20.041  33.490  12.927
12528W        W73817   2.325   7.310   2.886
12529W        W73818  38.886  24.539   4.181
12530W        W73819   2.259  11.858  14.972
12531W        W73820  35.477  39.440   0.737
12532W        W73821  18.596  33.102  12.015
12533W        W73822  30.567  31.584   2.892
12534W        W73823  26.550  30.462   4.179
12535W        W73824  41.491  10.159  13.449
12536W        W73825  25.679  10.309  13.521
12537W        W73826  33.101  34.487  10.476
12538W        W73827  11.675   5.409   1.752
12539W        W73828  14.243  14.284   2.855
12540W        W73829   3.216   4.830   0.254
12541W        W73830  21.742   4.735   3.268
12542W        W73831  22.206   9.806  11.936
12543W        W73832  25.523  16.622   3.309
12544W        W73833  13.182   5.392   1.895
12545W        W73834  15.654  24.180  14.437
12546W        W73835   8.838   5.852  13.370
12547W        W73836  40.472  44.771  11.507
12548W        W73837  27.976  16.777  10.551
12549W        W73838   2.833  33.032   3.214
12550W        W73839  22.236  30.120   1.419
12551W        W73840  28.678   4.944  13.837
12552W        W73841  35.059  34.483  10.017
12553W        W73842  19.056  36.540   3.787
12554W        W73843  43.906  41.999  11.085
12555W        W73844   5.253  25.550   1.263
12556W        W73845  22.742  41.904   4.305
12557W        W73846  17.285  29.103  13.539
12558W        W73847  11.297  14.772  14.504
12559W        W73848   5.407  31.957   2.255
12560W        W73849  36.999  44.416   9.943
12561W        W73850  43.800  28.492   2.775
12562W        W73851   7.828   1.755  12.544
12563W        W73852  37.478   4.913  11.997
12564W        W73853  41.409  11.724   0.438
12565W        W73854  43.935  35.378  13.002
12566W        W73855  27.585  16.684  13.477
12567W        W73856  31.066  24.641   4.175
12568W        W73857   3.845  30.966   4.762
12569W        W73858  12.817   2.341  11.998
12570W        W73859  32.516   9.675   4.354
12571W        W73860  17.787  13.270   4.639
12572W        W73861   0.802  32.098  11.423
12573W        W73862  35.872  13.204  12.865
12574W        W73863  18.152  17.275   1.933
12575W        W73864  31.902   1.285   4.307
12576W        W73865  37.854  16.272   3.776
12577W        W73866  19.629   6.772  13.896
12578W        W73867  41.969  33.874   2.345
12579W        W73868   9.769  36.998  12.403
12580W        W73869  13.209   0.420  14.760
12581W        W73870  18.686  42.369  14.433
12582W        W73871  21.032  40.465   2.755
12583W        W73872  43.354  40.944  12.996
12584W        W73873   8.770  36.462   1.887
12585W        W73874   0.876  20.081  12.004
12586W        W73875   0.410  35.522  10.425
12587W        W73876  11.200  40.318  12.056
12588W        W73877  37.438  37.060  13.916
12589W        W73878  42.459  18.146   1.261
12590W        W73879   4.807  18.655  10.913
12591W        W73880  43.922  36.947  14.276
12592W        W73881  20.651  38.820   3.642
12593W        W73882  31.120  25.147  12.374
12594W        W73883  16.567  33.917   3.228
12595W        W73884  13.815  25.986   0.962
12596W        W73885  29.618   2.736   9.921
12597W        W73886  11.193  12.747  13.874
12598W        W73887  36.085  28.049  13.036
12599W        W73888  14.642  31.104  12.565
12600W        W73889  37.553  33.964   4.325
12601W        W73890   4.838  13.669   0.291
12602W        W73891  29.501   3.810  12.399
12603W        W73892   8.788  44.434  11.096
12604W        W73893  25.171   4.404  11.091
12605W        W73894  12.786   3.854  14.775
12606W        W73895  25.639  16.238  11.969
12607W        W73896  38.867   3.827  14.913
12608W        W73897  25.148  42.884  10.900
12609W        W73898  22.551  42.904  10.111
12610W        W73899  40.367  18.277   2.410
12611W        W73900  42.793  13.793   2.760
12612W        W73901  12.220  40.438   0.964
12613W        W73902  28.036   2.779  14.346
12614W        W73903  34.570  42.014  13.905
12615W        W73904  21.092  27.011   3.774
12616W        W73905  26.079  30.916   0.881
12617W        W73906  20.546  44.939  14.788
12618W        W73907  13.140  33.999   0.265
12619W        W73908  19.107  35.418  12.842
12620W        W73909  43.955  22.252   1.881
12621W        W73910   3.456   0.368  13.316
12622W        W73911  26.540  24.053  13.975
12623W        W73912  30.006  26.960   4.212
12624W        W73913  16.159  41.956  13.913
12625W        W73914  12.143  36.036  10.101
12626W        W73915  17.306  33.481  14.944
12627W        W73916  19.726  17.102   4.694
12628W        W73917   7.213   6.914   0.436
12629W        W73918  25.480  25.971  14.998
12630W        W73919   6.422  17.089   4.242
12631W        W73920  38.054  26.522   2.299
12632W        W73921  27.526  44.921   1.426
12633W        W73922  22.108  26.067   2.270
12634W        W73923  16.698  14.657  12.969
12635W        W73924  15.241  25.685   3.362
12636W        W73925  25.977   6.213   1.905
12637W        W73926  11.718   3.947   4.643
12638W        W73927  21.234  36.948  11.907
12639W        W73928  20.622  37.465   0.908
12640W        W73929  27.134  27.031   2.880
12641W        W73930   6.696  13.155   0.263
12642W        W73931  44.974  41.392  14.471
12643W        W73932  16.248   4.911   4.688
12644W        W73933  38.427  44.838   0.812
12645W        W73934  33.408  12.837   3.312
12646W        W73935  23.511  12.803  12.900
12647W        W73936   6.230   3.728   4.269
12648W        W73937   6.349  38.552   9.959
12649W        W73938  23.199  30.642   3.810
12650W        W73939  39.519  35.993   3.716
12651W        W73940   8.235  26.089  12.057
12652W        W73941  32.130  37.496  14.422
12653W        W73942  16.130  34.408  14.839
12654W        W73943  16.599  20.725   2.202
12655W        W73944  12.855  34.080   0.743
12656W        W73945  43.445  19.255  14.966
12657W        W73946  11.863   7.258  11.105
12658W        W73947   6.852  26.472   1.260
12659W        W73948  32.629  14.821  10.632
12660W        W73949  39.400  31.495  10.982
12661W        W73950   0.442  29.991  11.920
12662W        W73951  17.262   2.314  11.930
12663W        W73952  29.150   7.284   0.314
12664W        W73953  20.532  28.023   4.198
12665W        W73954  44.333  18.563  13.353
12666W        W73955   9.728  33.406  13.958
12667W        W73956  25.168  33.880  10.541
12668W        W73957  18.279  29.446   3.692
12669W        W73958  15.736   0.919  13.503
12670W        W73959  33.070  38.841  10.408
12671W        W73960   8.163  37.348   0.789
12672W        W73961  35.400  16.672  11.506
12673W        W73962  24.099  40.478   4.211
12674W        W73963  24.130  13.244   3.219
12675W        W73964  20.159   0.346  11.502
12676W        W73965   5.759   1.926   3.259
12677W        W73966  37.023  13.324  10.996
12678W        W73967  41.823  41.329   0.353
12679W        W73968  31.410  19.624   3.310
12680W        W73969  44.901  41.994  13.862
12681W        W73970  44.778  24.208   2.753
12682W        W73971  18.683  22.601   4.154
12683W        W73972   3.715  26.137  11.478
12684W        W73973   8.383  13.685  12.490
12685W        W73974  13.687  24.168  11.485
12686W        W73975  12.325  31.015  11.564
12687W        W73976  41.451  15.145   1.347
12688W        W73977   8.886  42.401  12.527
12689W        W73978  13.768  44.303   0.473
12690W        W73979  36.440   6.785   2.842
12691W        W73980  36.950  19.671   4.175
12692W        W73981  33.997  34.550  10.965
12693W        W73982   1.455  39.061   2.806
12694W        W73983   0.317  38.480  14.295
12695W        W73984  42.934  11.659  10.451
12696W        W73985  22.102   6.914  10.491
12697W        W73986  14.172   8.227  13.416
12698W        W73987  16.249  14.783   2.373
12699W        W73988  18.270  30.535   1.793
12700W        W73989  31.969  22.678   1.383
12701W        W73990  33.923  31.402   3.708
12702W        W73991   6.201   5.784   4.347
12703W        W73992  41.936  44.929   4.248
12704W        W73993  26.659  14.097  12.515
12705W        W73994  22.521   0.929  12.519
12706W        W73995  13.778  14.097   3.821
12707W        W73996  21.227  26.476   3.718
12708W        W73997  41.300  24.576  14.491
12709W        W73998  30.654  33.130  12.551
12710W        W73999  14.310  36.098   9.589
12711W        W74000  44.922  41.508  10.543
12712W        W74001   2.466  21.655   0.426
12713W        W74002  44.756  36.943  12.079
12714W        W74003  24.679  12.160  12.870
12715W        W74004  34.584   1.428  13.464
12716W        W74005   3.369  27.621   2.303
12717W        W74006  20.090   9.756  14.008
12718W        W74007  36.483  30.053   3.748
12719W        W74008  36.365   2.963  14.981
12720W        W74009  15.735  25.035   1.397
12721W        W74010   5.848  35.457  11.533
12722W        W74011   7.222  40.493   2.895
12723W        W74012  37.877  32.592  13.983
12724W        W74013  35.401   4.317   2.396
12725W        W74014  43.316  10.191   3.259
12726W        W74015   0.866   7.704  11.066
12727W        W74016  28.463  29.631  10.446
12728W        W74017  16.782  39.061   3.192
12729W        W74018  33.114  28.129  10.632
12730W        W74019  32.914  24.566   0.889
12731W        W74020  22.724  27.553   0.244
12732W        W74021  26.112  14.197  10.510
12733W        W74022   5.815  18.687  14.789
12734W        W74023   0.251   0.344   4.620
12735W        W74024   2.430   4.420  14.775
12736W        W74025  26.046  29.567  12.976
12737W        W74026  33.496   0.823   1.286
12738W        W74027  21.155  13.326   3.766
12739W        W74028  39.970  26.641   2.708
12740W        W74029  37.342  19.060   4.352
12741W        W74030  17.121  11.244  10.005
12742W        W74031  29.088  28.603   4.333
12743W        W74032  20.736  30.548   0.800
12744W        W74033  42.939  41.406  14.876
12745W        W74034  43.470   5.768  13.899
12746W        W74035  25.026  43.295   3.667
12747W        W74036  12.349  14.111   3.317
12748W        W74037  16.107  44.437   1.406
12749W        W74038  20.078  28.135   1.711
12750W        W74039  40.844  26.599  12.558
12751W        W74040  23.100  15.699  13.528
12752W        W74041  12.155   9.881  12.447
12753W        W74042   6.766  31.576   0.791
12754W        W74043  12.854  38.472   4.697
12755W        W74044  30.049   0.380  13.543
12756W        W74045  16.189  27.466   0.782
12757W        W74046  34.900  13.132  13.469
12758W        W74047  28.151   0.363  11.422
12759W        W74048   2.967  38.990  11.567
12760W        W74049  25.006  35.879  11.578
12761W        W74050  24.057   9.262  11.443
12762W        W74051  35.022  35.546  11.469
12763W        W74052  28.951  18.713  10.888
12764W        W74053  29.090  41.296   4.134
12765W        W74054  30.984  27.632   3.758
12766W        W74055  39.824  27.197  14.879
12767W        W74056  14.733   0.348   1.439
12768W        W74057  38.048   2.431   2.856
12769W        W74058  14.646  30.074   4.754
12770W        W74059  40.488  16.650  10.079
12771W        W74060  25.994  17.635  13.535
12772W        W74061   0.333  36.418   3.156
12773W        W74062  31.434  24.992  13.511
12774W        W74063  19.617  36.431  13.928
12775W        W74064   2.903  10.255   4.344
12776W        W74065  18.722  44.773   2.392
12777W        W74066  17.269  11.209  11.432
12778W        W74067  13.273  14.326   2.409
12779W        W74068   8.732   2.808   0.734
12780W        W74069   7.810  40.026   1.366
12781W        W74070  26.666  14.594  12.093
12782W        W74071  14.589   9.872  11.402
12783W        W74072  11.855   6.223  11.045
12784W        W74073  22.132  42.949   2.314
12785W        W74074  40.995  12.196   3.213
12786W        W74075  38.543   0.305   2.358
12787W        W74076  27.521  32.981   0.243
12788W        W74077  10.688  44.423   4.660
12789W        W74078  26.959  31.434   0.469
12790W        W74079   6.879  28.545  10.520
12791W        W74080  23.066  11.836  14.418
12792W        W74081  13.797  25.552   4.807
12793W        W74082  10.693  27.003   1.827
12794W        W74083  35.480   6.421   3.694
12795W        W74084  43.450   7.193   4.267
12796W        W74085  25.474   1.452   1.904
12797W        W74086   1.735   1.300  10.606
12798W        W74087   8.398  35.469  11.563
12799W        W74088  31.043  10.204   2.858
12800W        W74089  26.463  29.428  14.940
12801W        W74090  40.368  11.782  10.967
12802W        W74091  20.590  21.062   1.330
12803W        W74092  22.144   0.361  13.427
12804W        W74093  12.631  33.889   5.164
12805W        W74094  37.861   8.722  13.908
12806W        W74095  14.758  43.270   4.674
12807W        W74096  30.137  16.597   2.792
12808W        W74097   7.256  39.467  11.073
12809W        W74098  11.151   0.888   3.793
12810W        W74099  42.412  15.767   4.678
12811W        W74100  40.472  13.317   0.461
12812W        W74101  28.935  41.823   1.422
12813W        W74102  22.732  34.918   0.260
12814W        W74103  34.958  13.615  11.893
12815W        W74104  28.169   3.853  14.985
12816W        W74105  10.665  11.846   3.276
12817W        W74106  26.561  27.050   1.230
12818W        W74107  34.045  15.615  10.986
12819W        W74108  35.533  12.745   4.151
12820W        W74109  17.101  12.348  11.025
12821W        W74110   0.756  12.661  14.786
12822W        W74111  30.420   1.808   1.444
12823W        W74112  25.709  36.929  14.909
12824W        W74113  14.319  38.833  13.879
12825W        W74114  41.947   3.839   0.476
12826W        W74115  29.012   1.291   3.838
12827W        W74116   0.356  30.424  14.799
12828W        W74117   0.907  31.497  13.833
12829W        W74118  28.447   7.705   1.216
12830W        W74119  22.213  27.122   3.192
12831W        W74120  40.912  26.129  10.590
12832W        W74121  12.154   0.985   3.771
12833W        W74122  11.678  12.830   3.656
12834W        W74123   3.926  24.158   4.131
12835W        W74124  39.844  27.129   4.129
12836W        W74125  11.194  31.540  12.428
12837W        W74126  38.060  37.887  10.956
12838W        W74127  34.113  11.240   2.281
12839W        W74128  37.339  35.603  13.928
12840W        W74129   7.835  23.069   3.176
12841W        W74130  11.662  39.425   4.802
12842W        W74131  14.800  42.892  12.383
12843W        W74132   9.331   1.740  14.998
12844W        W74133   7.227  35.516   1.917
12845W        W74134  24.099  15.590   4.295
12846W        W74135   7.766  19.040  14.905
12847W        W74136   1.262   1.898   0.756
12848W        W74137   7.783  19.157  12.572
12849W        W74138  37.899  20.086   0.749
12850W        W74139  28.479  40.384  12.359
12851W        W74140  38.490   7.400  11.042
12852W        W74141  12.209  14.111  11.930
12853W        W74142  27.001  19.108  11.521
12854W        W74143  13.643  38.977  13.835
12855W        W74144  37.340  35.579  14.284
12856W        W74145  15.241   2.315  13.911
12857W        W74146   6.186  19.201   4.140
12858W        W74147  39.998   7.771   0.378
12859W        W74148   7.185  13.789   3.279
12860W        W74149   0.321   7.341   0.386
12861W        W74150  11.129  28.638  13.524
12862W        W74151  36.927  31.923  13.846
12863W        W74152  42.929  31.141   2.827
12864W        W74153  30.653  19.169   2.187
12865W        W74154   9.667  41.502   3.675
12866W        W74155  32.474   0.905  12.413
12867W        W74156  16.248  33.906  11.027
12868W        W74157  15.257  31.006  12.471
12869W        W74158  11.362   6.843  10.576
12870W        W74159  10.637  25.973   1.827
12871W        W74160   3.295  44.837   3.148
12872W        W74161  38.955   9.311   4.699
12873W        W74162  42.985  17.142   1.910
12874W        W74163   7.267  42.841  12.842
12875W        W74164  32.964  31.021  10.935
12876W        W74165   3.248  19.733  14.486
12877W        W74166  24.526   6.183   0.770
12878W        W74167  21.517  44.443   2.198
12879W        W74168  28.058  41.425  11.929
12880W        W74169   5.754  34.064  14.379
12881W        W74170  34.429   7.769   0.753
12882W        W74171  16.598  17.617   1.825
12883W        W74172  32.424   3.225   0.244
12884W        W74173  42.797  33.481  10.950
12885W        W74174  26.088   5.267   4.788
12886W        W74175  23.521  35.360   0.795
12887W        W74176  31.054   1.853   3.815
12888W        W74177  23.193   6.355   4.671
12889W        W74178  12.786  20.744   2.665
12890W        W74179  42.515  28.138   4.740
12891W        W74180  32.636  22.694  12.852
12892W        W74181  33.010  42.832   4.750
12893W        W74182   1.288  44.434  12.877
12894W        W74183  39.343  34.112   1.307
12895W        W74184  20.569  25.987  13.060
12896W        W74185  24.053  31.996   2.287
12897W        W74186   2.894  15.210  14.942
12898W        W74187  37.348  42.341  13.957
12899W        W74188  37.983  32.523  13.440
12900W        W74189  22.161  31.584   4.691
12901W        W74190   2.886  41.330  11.551
12902W        W74191   2.845  27.476  13.792
12903W        W74192   2.828  22.678   3.312
12904W        W74193  27.615   3.452  11.979
12905W        W74194   4.325  44.418   1.756
12906W        W74195  12.832  24.082  10.601
12907W        W74196  16.311  16.707  12.895
12908W        W74197   1.340  12.162   4.223
12909W        W74198   6.766  11.637   1.762
12910W        W74199  30.971  35.903   0.889
12911W        W74200  18.067  17.245   2.862
12912W        W74201  11.159   6.302   3.190
12913W        W74202  39.453  37.857   0.408
12914W        W74203  12.192  14.706  14.932
12915W        W74204  23.063   9.151   2.705
12916W        W74205   8.714   4.737  14.960
12917W        W74206  10.287  13.843  14.446
12918W        W74207  36.469  20.744  11.059
12919W        W74208   9.646   1.281   1.377
12920W        W74209  20.758  28.672  12.489
12921W        W74210  41.798  23.566   2.802
12922W        W74211   6.793  42.785   2.260
12923W        W74212  16.100   6.286  11.095
12924W        W74213   1.894  38.860   2.712
12925W        W74214  25.023  11.241  13.801
12926W        W74215   7.290   6.234   1.768
12927W        W74216  29.975  42.411   1.340
12928W        W74217   2.798  18.246   3.184
12929W        W74218   3.326  13.189  14.377
12930W        W74219  22.112   3.451   0.946
12931W        W74220  10.278  24.685  12.841
12932W        W74221   5.345  30.017   4.267
12933W        W74222  36.044  38.514   0.268
12934W        W74223  12.693   5.325   3.373
12935W        W74224   6.794  36.472  10.928
12936W        W74225  33.006   2.453  13.889
12937W        W74226  21.064  20.710  13.438
12938W        W74227   7.906  41.516  11.515
12939W        W74228  39.896  39.993   1.275
12940W        W74229   4.875   7.822   2.719
12941W        W74230  30.501  13.204   3.769
12942W        W74231  44.457  23.561  13.029
12943W        W74232   0.912  35.979  10.971
12944W        W74233  21.049  33.625  12.834
12945W        W74234  39.442  22.031  14.008
12946W        W74235  44.941   1.470   4.616
12947W        W74236  40.345  41.350  12.484
12948W        W74237  26.192   1.773   4.653
12949W        W74238  16.607   8.872  12.568
12950W        W74239   6.207  23.199   3.321
12951W        W74240   3.415   3.733  14.498
12952W        W74241  21.512  40.010   1.298
12953W        W74242  40.996  16.638   0.351
12954W        W74243  18.226   7.717   1.717
12955W        W74244  44.390  26.559  13.062
12956W        W74245   1.958  41.481  14.350
12957W        W74246   0.381  41.853  11.569
12958W        W74247   1.261  10.877   9.495
12959W        W74248   3.360   4.315  10.045
12960W        W74249  43.319  20.183  14.885
12961W        W74250  21.223  25.142  10.892
12962W        W74251  35.045  20.234   0.830
12963W        W74252  17.792   8.764  12.367
12964W        W74253  44.982   3.440   1.364
12965W        W74254  10.798   1.412   0.350
12966W        W74255   6.831  40.476  10.632
12967W        W74256  36.456  41.857  13.328
12968W        W74257   0.852  42.979   2.678
12969W        W74258  11.651  43.874   1.300
12970W        W74259  21.696   1.277   4.193
12971W        W74260  30.650  17.692   0.913
12972W        W74261  44.356  17.149   4.195
12973W        W74262  35.868   1.308  14.839
12974W        W74263   0.296   2.321  12.028
12975W        W74264   0.258  19.079  12.887
12976W        W74265  14.644  16.707   4.704
12977W        W74266  42.496  16.742  13.977
12978W        W74267  38.062  39.053   1.904
12979W        W74268  20.621  27.075  11.541
12980W        W74269  32.049  18.296  13.850
12981W        W74270  15.178  10.671   3.635
12982W        W74271   2.317   4.936   0.875
12983W        W74272  28.016  22.673   2.900
12984W        W74273   8.226  33.528   0.892
12985W        W74274  31.908   4.868   4.667
12986W        W74275  38.019  44.427  13.972
12987W        W74276   7.779   9.176   2.743
12988W        W74277   5.796   2.386  12.543
12989W        W74278  39.898  28.568   0.774
12990W        W74279  35.093  14.602  13.888
12991W        W74280  24.593  37.941   4.812
12992W        W74281   0.452  10.271   4.714
12993W        W74282  33.879   6.698  13.000
12994W        W74283   9.788  37.890  14.819
12995W        W74284  39.906  21.243  10.512
12996W        W74285  25.568  42.994  13.800
12997W        W74286   9.730  21.191  13.440
12998W        W74287   1.875  21.177  13.826
12999W        W74288   6.335  37.395   1.934
13000W        W74289   7.248  38.907   0.259
13001W        W74290  34.552  10.862   1.258
13002W        W74291  40.034  22.705   1.802
13003W        W74292  35.392  43.403  12.364
13004W        W74293  33.131  19.201  11.908
13005W        W74294  41.524  36.017   1.362
13006W        W74295   7.818  32.478   1.915
13007W        W74296  10.788  39.455  14.761
13008W        W74297  35.999  42.960  14.371
13009W        W74298  29.943   3.318  14.896
13010W        W74299   3.437  10.202   1.766
13011W        W74300  12.812  15.736  13.811
13012W        W74301  14.268   9.222  10.590
13013W        W74302  21.611  44.776   1.241
13014W        W74303  14.218  33.018   3.209
13015W        W74304  35.893  18.221   3.839
13016W        W74305  41.871  44.975  13.829
13017W        W74306  18.576  32.052   3.789
13018W        W74307  41.386  38.421  11.974
13019W        W74308  27.055  12.311   5.243
13020W        W74309  29.998  38.946  12.549
13021W        W74310  28.159   8.319   3.793
13022W        W74311  25.989   3.352   0.326
13023W        W74312  36.463   5.368   4.200
13024W        W74313   2.448  17.715  14.793
13025W        W74314  20.540  41.788  11.045
13026W        W74315  28.529  23.494   3.638
13027W        W74316  36.349   1.956  11.022
13028W        W74317   0.414  33.477  13.419
13029W        W74318  21.140  41.817   3.284
13030W        W74319  24.156   1.445   1.776
13031W        W74320  11.626  43.285  10.105
13032W        W74321  33.041   1.891  13.891
13033W        W74322  42.290  26.148  13.381
13034W        W74323  22.715   3.303  13.826
13035W        W74324  40.041  12.347  11.084
13036W        W74325  24.633  19.050  12.550
13037W        W74326   4.753  10.376  11.020
13038W        W74327  25.093  19.656  10.494
13039W        W74328  40.974  16.729   4.162
13040W        W74329  40.470  19.681   3.282
13041W        W74330  23.642  23.552   4.249
13042W        W74331   6.772  27.965  10.943
13043W        W74332   9.291  44.764  11.963
13044W        W74333  25.642  19.556  12.997
13045W        W74334  29.555  24.994  13.353
13046W        W74335  17.745   3.952  12.891
13047W        W74336   0.464  18.130  13.419
13048W        W74337   5.239  30.091   2.234
13049W        W74338  15.762   0.873   0.462
13050W        W74339   7.711  24.203  13.912
13051W        W74340   4.429  44.910   1.432
13052W        W74341   3.393  28.961   0.248
13053W        W74342  39.405  31.110  10.993
13054W        W74343  21.747  42.908  10.602
13055W        W74344  36.503  11.250  11.082
13056W        W74345  16.272  32.585   3.719
13057W        W74346   0.341  24.065   2.838
13058W        W74347  40.888  35.602  13.828
13059W        W74348  36.984   9.380  12.977
13060W        W74349  24.579  17.255  13.023
13061W        W74350  14.681   2.808   4.697
13062W        W74351  15.324  17.572  14.278
13063W        W74352  14.778  18.596  12.341
13064W        W74353  23.716  25.544   1.833
13065W        W74354  22.051  20.122   0.396
13066W        W74355  37.347  30.064  12.526
13067W        W74356  17.744  34.118  13.800
13068W        W74357  12.227   8.375   4.162
13069W        W74358   7.900  11.670   9.956
13070W        W74359  33.533  12.312   3.723
13071W        W74360  29.614  23.608   2.358
13072W        W74361  32.494  20.232  12.366
13073W        W74362   9.296   9.280  11.897
13074W        W74363  13.148  43.278  14.879
13075W        W74364  24.678  36.880   4.763
13076W        W74365  39.902  23.507  13.404
13077W        W74366  17.783   8.863  13.972
13078W        W74367  14.758  15.182   0.953
13079W        W74368   2.866   2.829   1.803
13080W        W74369  10.352  41.305  14.949
13081W        W74370  36.523  22.589  11.486
13082W        W74371  31.460  10.224   2.314
13083W        W74372  31.933  36.934   3.336
13084W        W74373  12.167  17.225   2.225
13085W        W74374  42.893  40.315   0.739
13086W        W74375  38.334  23.080   1.339
13087W        W74376  23.636  23.069   4.264
13088W        W74377   4.876  42.996   3.870
13089W        W74378  34.464  30.012  13.996
13090W        W74379   0.282  35.974   0.895
13091W        W74380  40.816  42.845   4.689
13092W        W74381  42.963   2.252  13.418
13093W        W74382  39.399  20.075  13.489
13094W        W74383  43.796   4.738  14.392
13095W        W74384   2.899   7.744   2.839
13096W        W74385   8.375  39.911   4.780
13097W        W74386  22.099   4.424  14.778
13098W        W74387  43.410  42.443   1.919
13099W        W74388  15.811  12.285   0.287
13100W        W74389  43.811  34.571  14.918
13101W        W74390  26.521  13.634   0.482
13102W        W74391   7.747  37.943   1.738
13103W        W74392  44.426  19.633   3.852
13104W        W74393   0.904  28.491   1.786
13105W        W74394  39.333  26.164  13.395
13106W        W74395   8.167   7.840  10.451
13107W        W74396   5.257   8.700   4.753
13108W        W74397  37.393  24.158  13.050
13109W        W74398   1.771  44.005   1.795
13110W        W74399  12.351  15.187  11.117
13111W        W74400   2.378  38.860   3.798
13112W        W74401   9.234   1.961   3.250
13113W        W74402  36.851  41.411  14.902
13114W        W74403   7.705  38.886  11.602
13115W        W74404  40.896  18.659  13.031
13116W        W74405  17.094  44.304   0.756
13117W        W74406  40.894  42.383  14.284
13118W        W74407  11.359   1.941   1.291
13119W        W74408  26.203   6.891   4.221
13120W        W74409  27.125   3.442  14.329
13121W        W74410   5.207  14.095   2.302
13122W        W74411  22.223  34.926  13.488
13123W        W74412  25.695  28.141   4.800
13124W        W74413  25.583   4.397  10.640
13125W        W74414  24.219  18.271  13.988
13126W        W74415   0.911  26.982   4.191
13127W        W74416  43.501  19.157  13.948
13128W        W74417  39.321  30.545   2.779
13129W        W74418  25.044  36.044  10.471
13130W        W74419  35.554  28.162  14.336
13131W        W74420   1.973  28.978  12.897
13132W        W74421  21.620  39.836   4.604
13133W        W74422  36.063  17.655   9.925
13134W        W74423  10.243  10.154  13.518
13135W        W74424   6.255  34.921  11.482
13136W        W74425  40.321  34.502   3.802
13137W        W74426  29.577  25.162  12.411
13138W        W74427  29.516  27.113   4.833
13139W        W74428  27.525  43.772   4.279
13140W        W74429  10.686  32.945   0.374
13141W        W74430  24.137   4.797  14.780
13142W        W74431  28.062   1.427  12.082
13143W        W74432  27.667   9.261   4.227
13144W        W74433  27.646  16.662   4.311
13145W        W74434   1.324  22.693   0.825
13146W        W74435   2.778   4.754   2.233
13147W        W74436  24.070  39.029   2.311
13148W        W74437  14.746   5.403  10.445
13149W        W74438  10.366  34.942  11.535
13150W        W74439  43.469  33.438   3.358
13151W        W74440   5.827  44.870  14.792
13152W        W74441  14.767  24.210   0.731
13153W        W74442  26.193  30.502  11.471
13154W        W74443  18.635  25.147  13.463
13155W        W74444  44.954  43.009   5.102
13156W        W74445  24.983   3.235  11.052
13157W        W74446  10.351  40.480   0.780
13158W        W74447  36.526  11.672  14.368
13159W        W74448  33.117  36.079   4.785
13160W        W74449  42.788  17.641   4.673
13161W        W74450  44.432   0.986  11.096
13162W        W74451  31.987  23.138  12.366
13163W        W74452  31.072  40.850   1.444
13164W        W74453  20.645   8.834   2.276
13165W        W74454  16.192   0.930  14.293
13166W        W74455  29.445  25.012   3.796
13167W        W74456  41.918  20.662  10.909
13168W        W74457  28.072  12.323   3.717
13169W        W74458  23.736  33.443  10.578
13170W        W74459   7.688  44.885  13.036
13171W        W74460  44.466   2.961  10.596
13172W        W74461  11.155   1.377   3.800
13173W        W74462  33.554  31.036  14.473
13174W        W74463  10.365   6.689  13.904
13175W        W74464   4.437  33.031  12.081
13176W        W74465  23.688  30.080   0.414
13177W        W74466  21.520  31.471  11.999
13178W        W74467   7.286  44.477  12.471
13179W        W74468  27.982  44.400  13.058
13180W        W74469   3.821  18.074  14.005
13181W        W74470  18.678  26.120  13.947
13182W        W74471  26.192  29.545   3.667
13183W        W74472  29.966   0.366   4.197
13184W        W74473  30.041   3.375   3.282
13185W        W74474  15.290   7.811   4.199
13186W        W74475  26.971  24.718   0.758
13187W        W74476  21.566  32.048  12.443
13188W        W74477  17.197  42.002  14.793
13189W        W74478  38.498  26.116  14.445
13190W        W74479  31.445   2.802  11.417
13191W        W74480  29.039  24.047   3.236
13192W        W74481  21.542   2.352  12.048
13193W        W74482  14.206  40.840   2.695
13194W        W74483  41.803  11.811  11.955
13195W        W74484  24.050  34.955  14.397
13196W        W74485   8.342  38.392  10.581
13197W        W74486  14.675  13.753   4.263
13198W        W74487  33.070  11.157   4.310
13199W        W74488  17.724  16.579   1.845
13200W        W74489  36.522  32.395   1.328
13201W        W74490  13.257  37.508   5.776
13202W        W74491  13.735  27.587   2.413
13203W        W74492  16.097  24.706  13.432
13204W        W74493  14.265  17.076   3.324
13205W        W74494  16.575  31.985   0.901
13206W        W74495   0.945   7.337   4.602
13207W        W74496   1.973  41.814  13.042
13208W        W74497  39.023  34.982   1.740
13209W        W74498  25.174  14.243  10.941
13210W        W74499  12.262  10.243  10.497
13211W        W74500  38.336  18.636  14.022
13212W        W74501  14.747   1.965   4.824
13213W        W74502  43.877  23.539  11.902
13214W        W74503  21.096   9.849  11.897
13215W        W74504   2.326  23.604   1.700
13216W        W74505  30.448  41.349  14.313
13217W        W74506  26.599  36.443  13.833
13218W        W74507   7.822  36.529   1.779
13219W        W74508  18.195  43.447  12.912
13220W        W74509  10.636  19.183  10.608
13221W        W74510  34.513  43.401  13.902
13222W        W74511  42.352  21.079  11.973
13223W        W74512  30.146  24.201  13.048
13224W        W74513  42.834  20.682  10.409
13225W        W74514  21.121  12.690   1.923
13226W        W74515  43.453  13.317   3.689
13227W        W74516  25.587  40.992   2.220
13228W        W74517  32.623  11.639  13.540
13229W        W74518  17.194   2.795  14.955
13230W        W74519  35.970  29.425  12.381
13231W        W74520  27.047  28.551  12.426
13232W        W74521  34.863  33.038  10.483
13233W        W74522   6.725  27.574   2.204
13234W        W74523  29.139  10.149  14.487
13235W        W74524   3.408  32.043   0.353
13236W        W74525  26.568   4.743  12.941
13237W        W74526  20.248  32.056   1.273
13238W        W74527  17.284   4.449   1.344
13239W        W74528  33.048   1.967  11.063
13240W        W74529  33.432  14.327   4.665
13241W        W74530   3.226   9.299  13.338
13242W        W74531  31.976  41.851  11.475
13243W        W74532  20.192  42.868   2.793
13244W        W74533   8.357  17.710   1.366
13245W        W74534  37.432  44.433  10.045
13246W        W74535  36.383   3.354   3.856
13247W        W74536  34.488  26.548  14.869
13248W        W74537   2.865  26.655  13.328
13249W        W74538  25.488  14.149   2.768
13250W        W74539  43.423  27.636  10.439
13251W        W74540  25.671   3.810  10.488
13252W        W74541  30.610  33.499   4.343
13253W        W74542   4.330  22.106   1.324
13254W        W74543  42.525  21.121  14.900
13255W        W74544  16.799  16.767  11.855
13256W        W74545   0.790   7.174  11.473
13257W        W74546  30.034  22.626   2.814
13258W        W74547  22.545  38.516   4.241
13259W        W74548  40.540  21.572   0.890
13260W        W74549  35.884  29.491   4.795
13261W        W74550  39.998   4.931  10.441
13262W        W74551  19.155   5.383  12.557
13263W        W74552  41.366  33.104   2.754
13264W        W74553   8.724  12.283   1.807
13265W        W74554  27.010   7.912  13.845
13266W        W74555   8.755   7.314   0.786
13267W        W74556   3.323  40.367   4.297
13268W        W74557  29.435  34.537  11.084
13269W        W74558   5.823  38.935   0.781
13270W        W74559  44.483   9.344   1.414
13271W        W74560  36.545  39.876   1.223
13272W        W74561  18.236  32.496   4.670
13273W        W74562   9.198  26.627   0.455
13274W        W74563  14.748   0.939   1.415
13275W        W74564   9.856   6.836  13.039
13276W        W74565  36.547   0.276  11.998
13277W        W74566   2.885  42.926  12.895
13278W        W74567  14.126  41.332  10.579
13279W        W74568  31.402  28.611  11.586
13280W        W74569  32.060  13.326  11.413
13281W        W74570  33.930  24.493   3.711
13282W        W74571  41.818  27.040  12.470
13283W        W74572  21.259  15.252   2.794
13284W        W74573   0.811  43.860  11.015
13285W        W74574  32.083  14.172  13.027
13286W        W74575  40.399  36.853  14.825
13287W        W74576  35.482   8.803  13.489
13288W        W74577  18.251  24.607   3.830
13289W        W74578  19.264  13.188  11.535
13290W        W74579   1.332  42.385   3.347
13291W        W74580   4.733  35.057   0.884
13292W        W74581  30.536   9.192  14.488
13293W        W74582  33.449  15.769  11.601
13294W        W74583  13.320  38.955  11.049
13295W        W74584   9.864   6.795   3.210
13296W        W74585   9.320  37.401  13.335
13297W        W74586   8.325   1.319   0.911
13298W        W74587  42.786  23.506  11.500
13299W        W74588  11.197   2.227   4.296
13300W        W74589  21.226  29.970  13.543
13301W        W74590  40.543  10.338  10.645
13302W        W74591  41.485  16.084  11.040
13303W        W74592  31.052  42.014  11.890
13304W        W74593  37.426   5.794  12.476
13305W        W74594  10.179  31.062   3.815
13306W        W74595  17.650  37.569   0.360
13307W        W74596  44.893  22.076   3.788
13308W        W74597  19.665  30.562  11.885
13309W        W74598  14.292   1.351  11.928
13310W        W74599  26.069  38.893  13.887
13311W        W74600  24.572  24.482   3.735
13312W        W74601  12.784  20.705   4.129
13313W        W74602   5.723   1.903  14.995
13314W        W74603  17.231   6.259  14.946
13315W        W74604  23.154  10.669  11.003
13316W        W74605  15.799  21.536  13.883
13317W        W74606  25.192   8.179   5.198
13318W        W74607  23.151   0.743  10.514
13319W        W74608  33.516  33.011  11.387
13320W        W74609  30.625  10.165  13.931
13321W        W74610   2.263   4.264   2.334
13322W        W74611  23.058  16.098  11.489
13323W        W74612  37.552  29.509   3.328
13324W        W74613  32.957  17.702  10.939
13325W        W74614  11.760  25.586   1.820
13326W        W74615  33.065   4.809   4.759
13327W        W74616  11.726  30.490  11.090
13328W        W74617  26.124  12.672   4.210
13329W        W74618   7.728  43.275   1.315
13330W        W74619   4.364  19.046   4.117
13331W        W74620  10.163  36.398   2.821
13332W        W74621  26.465  39.978   2.882
13333W        W74622  24.724  16.228   4.178
13334W        W74623  34.462   7.701  12.831
13335W        W74624  34.062  43.406  14.982
13336W        W74625  32.500  13.258   4.774
13337W        W74626  14.121   8.693   0.384
13338W        W74627  30.617  39.055  13.426
13339W        W74628  27.173  20.594  12.927
13340W        W74629  31.974  34.914   5.294
13341W        W74630  38.420  36.552   0.811
13342W        W74631   1.437  36.535  11.455
13343W        W74632  13.336  26.461   3.741
13344W        W74633   7.791  28.011   9.588
13345W        W74634  38.853  43.938  11.917
13346W        W74635   0.917  16.293   0.470
13347W        W74636  43.320  27.166  13.902
13348W        W74637  43.435   8.270   1.849
13349W        W74638   7.315  19.237   0.939
13350W        W74639   5.331  39.497   1.711
13351W        W74640  28.524   1.432   3.820
13352W        W74641  42.902  24.700  10.604
13353W        W74642  41.789  40.005  13.995
13354W        W74643  31.524  33.878  11.443
13355W        W74644   4.912  43.964   3.216
13356W        W74645  26.983  26.580  12.071
13357W        W74646  16.724  22.576  11.484
13358W        W74647   7.195  26.112   2.785
13359W        W74648  12.116   3.814  10.565
13360W        W74649  18.266  34.468   0.911
13361W        W74650  23.166  22.541  12.987
13362W        W74651  29.451  27.093  11.482
13363W        W74652   6.835  42.004   3.831
13364W        W74653  42.397  20.145  11.117
13365W        W74654   5.417   7.291  10.978
13366W        W74655  21.611   1.377  13.411
13367W        W74656  33.895   2.260  13.818
13368W        W74657  11.730  14.337   2.396
13369W        W74658  26.663   0.823  12.512
13370W        W74659  12.777  25.656   0.409
13371W        W74660  19.566  21.517   0.265
13372W        W74661  32.599  13.274   1.449
13373W        W74662  13.209  23.159  14.874
13374W        W74663  21.658  43.892  11.604
13375W        W74664  35.399  19.715  10.926
13376W        W74665   1.832   6.260  13.826
13377W        W74666  17.659  40.048  10.991
13378W        W74667  32.566   7.782  14.789
13379W        W74668  44.277  26.142  13.866
13380W        W74669   0.326  14.610   3.631
13381W        W74670  33.921  20.638  10.496
13382W        W74671  11.777   3.242   2.862
13383W        W74672  10.177  27.086   0.733
13384W        W74673  42.950   1.241   2.844
13385W        W74674  22.546  23.021   1.904
13386W        W74675  33.960  30.465  11.120
13387W        W74676  40.544  27.034   2.691
13388W        W74677   0.451   0.328  11.078
13389W        W74678  23.149  19.583  10.100
13390W        W74679  44.767  21.188   3.249
13391W        W74680  22.616  39.026   0.780
13392W        W74681   5.877  22.233  10.064
13393W        W74682  28.550  34.981  13.476
13394W        W74683  37.930   3.954  11.461
13395W        W74684  22.735  24.024   4.181
13396W        W74685  12.206  17.091   1.894
13397W        W74686  19.274  28.482   4.204
13398W        W74687  27.636   5.901   9.946
13399W        W74688   9.879  36.377   0.412
13400W        W74689  25.028  33.027   1.310
13401W        W74690  32.935  37.886   0.867
13402W        W74691  43.999  27.021   3.824
13403W        W74692  27.104  23.562   0.443
13404W        W74693   4.812  29.051  13.827
13405W        W74694   4.273  16.305  11.580
13406W        W74695  27.144  35.970  11.495
13407W        W74696   3.823   4.919   4.663
13408W        W74697  38.071  41.891   1.252
13409W        W74698  12.241  26.591   2.794
13410W        W74699  26.953   1.395  11.024
13411W        W74700  18.746  43.996   3.317
13412W        W74701   9.830  31.626  13.334
13413W        W74702  25.644  11.317   0.904
13414W        W74703   4.819  28.096  12.045
13415W        W74704   9.327  23.719   0.306
13416W        W74705  12.251  14.331  10.594
13417W        W74706   9.324  26.561   2.315
13418W        W74707  11.769  42.357   0.816
13419W        W74708  32.029  27.475  12.438
13420W        W74709  18.621   1.480  11.032
13421W        W74710   2.895   8.854   2.751
13422W        W74711  33.997   0.302  14.365
13423W        W74712  29.168  20.169  12.847
13424W        W74713  38.884  36.531   1.225
13425W        W74714  41.873  37.380  13.311
13426W        W74715  13.118  37.936  13.942
13427W        W74716  37.957   2.271  10.522
13428W        W74717  37.035  11.813  14.924
13429W        W74718  29.927  27.958  10.624
13430W        W74719  31.935  33.065   1.366
13431W        W74720  15.757  41.930   1.438
13432W        W74721  43.021   1.343  11.915
13433W        W74722  15.175  26.611   5.211
13434W        W74723  10.266  27.076   3.235
13435W        W74724  26.544  23.138  13.917
13436W        W74725   9.696  20.737  12.494
13437W        W74726  24.112   8.767   1.244
13438W        W74727  23.125  21.557  13.372
13439W        W74728  43.334  44.849  14.312
13440W        W74729  32.997  21.754  12.486
13441W        W74730  42.798  39.906  10.143
13442W        W74731  12.237   4.295  14.921
13443W        W74732  13.314  15.293  11.942
13444W        W74733  35.021   7.733   0.955
13445W        W74734  33.902   1.915   3.193
13446W        W74735  36.992  17.688  14.468
13447W        W74736  32.445  38.957  10.079
13448W        W74737   9.344  31.007   4.702
13449W        W74738  13.245   3.908   5.277
13450W        W74739  18.053  22.707  12.354
13451W        W74740  31.533  42.826  10.951
13452W        W74741  40.341  30.576  14.417
13453W        W74742   9.701  17.689   0.958
13454W        W74743  14.834  27.089   1.833
13455W        W74744   4.317  12.247   2.714
13456W        W74745  28.097   7.821   0.819
13457W        W74746  28.671  39.454   3.658
13458W        W74747  42.847  24.665  14.875
13459W        W74748  27.586  33.042   3.163
13460W        W74749  31.995  11.345   3.748
13461W        W74750  24.022   3.252   5.244
13462W        W74751  17.147  34.572  14.784
13463W        W74752  19.568   6.223   1.250
13464W        W74753  29.591  25.487   1.899
13465W        W74754   4.900  23.582   4.750
13466W        W74755   2.233  44.878   1.450
13467W        W74756  25.099  19.141   0.355
13468W        W74757  19.154   5.413  12.833
13469W        W74758  15.699  18.618   0.850
13470W        W74759  28.030   0.392   1.399
13471W        W74760  28.436  30.073   1.267
13472W        W74761  13.307  37.404  14.374
13473W        W74762  13.334  25.485   1.904
13474W        W74763  30.574  23.619  11.090
13475W        W74764  27.074   4.371  10.643
13476W        W74765   4.721  36.870  10.906
13477W        W74766   7.826  38.392  13.058
13478W        W74767  24.074  34.468  14.813
13479W        W74768  15.609  19.283   3.737
13480W        W74769  32.106   0.784  11.522
13481W        W74770  14.154   4.207  11.979
13482W        W74771  43.783   2.839   2.286
13483W        W74772  36.987  19.243  14.425
13484W        W74773   7.288  38.952   1.703
13485W        W74774   4.305  20.096  13.544
13486W        W74775  43.828  19.753  12.063
13487W        W74776  26.466  24.623   0.943
13488W        W74777  19.585  10.754  11.911
13489W        W74778  37.422   6.206  13.872
13490W        W74779  17.154  37.396  14.958
13491W        W74780  40.820   1.356  13.910
13492W        W74781  21.221  26.597   0.336
13493W        W74782  31.409   3.725  12.465
13494W        W74783  14.134  27.102  12.945
13495W        W74784   8.766  23.159  11.858
13496W        W74785  42.511  17.153   4.228
13497W        W74786   7.347   5.406   3.849
13498W        W74787  41.299  12.176  13.966
13499W        W74788   1.413  29.146  13.847
13500W        W74789  13.685   7.234  10.978
13501W        W74790  28.604  20.118   1.774
13502W        W74791  26.607  19.168   1.384
13503W        W74792   5.734   2.880   3.853
13504W        W74793  22.119   2.778   1.860
13505W        W74794  41.376   1.308  14.782
13506W        W74795  15.727  37.929  10.153
13507W        W74796  24.556   3.407  12.823
13508W        W74797  12.355  23.026   9.673
13509W        W74798   9.194  21.550  12.396
13510W        W74799  35.513   6.304   4.322
13511W        W74800   1.316   0.949   0.913
13512W        W74801  43.430  11.739   1.418
13513W        W74802  34.411  27.152   2.794
13514W        W74803   9.851   5.250  14.935
13515W        W74804  30.940  36.089  13.538
13516W        W74805   5.430  25.117   2.732
13517W        W74806  15.632  26.975  10.068
13518W        W74807  32.547  33.568  14.313
13519W        W74808  10.182   0.346   4.142
13520W        W74809  25.191  29.943   2.694
13521W        W74810  18.176  29.944   0.377
13522W        W74811  23.238  14.686   1.885
13523W        W74812  33.977  18.551  13.001
13524W        W74813  40.486  34.493  14.448
13525W        W74814  18.239  23.580  14.840
13526W        W74815   1.396   3.795   4.113
13527W        W74816  35.050  29.623   0.376
13528W        W74817   6.764  28.101   0.326
13529W        W74818   5.285  14.723   1.405
13530W        W74819  19.160  14.591  11.895
13531W        W74820  23.495  17.740   2.312
13532W        W74821   5.384  27.998  14.864
13533W        W74822  25.663  14.225   0.756
13534W        W74823  28.554  41.536   4.598
13535W        W74824  41.386  17.102   3.836
13536W        W74825  44.422  16.792  11.599
13537W        W74826  25.667  12.833  12.405
13538W        W74827  40.358  11.716   1.397
13539W        W74828  42.880   7.822   5.785
13540W        W74829   7.346  36.436   2.710
13541W        W74830   3.793  20.119   2.394
13542W        W74831   4.866   7.297   3.259
13543W        W74832   6.697  42.322  10.496
13544W        W74833  32.113  13.231   3.868
13545W        W74834  13.673  14.697  11.857
13546W        W74835  27.177  42.887   0.838
13547W        W74836  37.470  27.577  13.467
13548W        W74837  24.165  28.994  13.019
13549W        W74838  18.074  16.224   4.620
13550W        W74839  27.981   8.848   0.276
13551W        W74840  35.041  18.544  14.493
13552W        W74841  23.027  37.564  13.046
13553W        W74842   7.374  31.987  13.872
13554W        W74843  24.657  36.503  10.933
13555W        W74844  34.053   5.873  13.033
13556W        W74845  36.466   3.297   4.254
13557W        W74846   7.384  12.355  12.045
13558W        W74847  38.821   1.294  14.955
13559W        W74848  19.558  18.286  14.868
13560W        W74849  32.501   7.215  14.463
13561W        W74850  14.672  18.605   4.649
13562W        W74851   1.952  26.667  11.465
13563W        W74852  35.091  29.997   2.201
13564W        W74853  44.965  37.055   1.335
13565W        W74854  27.623  16.668   3.158
13566W        W74855  38.908  28.517  10.437
13567W        W74856  37.054  24.685   2.702
13568W        W74857  34.378   5.886   3.790
13569W        W74858  28.042  44.797  13.323
13570W        W74859  37.551  24.579  14.320
13571W        W74860   0.340   8.789  12.579
13572W        W74861  27.076  26.199  11.386
13573W        W74862  40.902  25.132   4.318
13574W        W74863   4.851  22.579   0.417
13575W        W74864  30.491  28.099   4.760
13576W        W74865   1.429  29.150  11.376
13577W        W74866  12.624   6.353  11.589
13578W        W74867  28.084   6.898  13.394
13579W        W74868  35.022  21.534  10.913
13580W        W74869  42.496  43.973  14.898
13581W        W74870   1.788  40.476  12.403
13582W        W74871  30.154  26.562  10.948
13583W        W74872  17.254   9.357  10.511
13584W        W74873  16.286  25.628  13.822
13585W        W74874  13.734  12.745   4.610
13586W        W74875  35.926  12.163  12.420
13587W        W74876  41.994   4.256   1.869
13588W        W74877  26.148   2.868   0.922
13589W        W74878  33.950  37.968   2.407
13590W        W74879  14.743  10.836   1.765
13591W        W74880   7.230  39.549   0.374
13592W        W74881  42.331  12.628  13.809
13593W        W74882  36.948  21.136  14.275
13594W        W74883  32.466  38.542  10.958
13595W        W74884   0.297   8.758  13.832
13596W        W74885  20.757  36.949  14.975
13597W        W74886  44.469  34.112   3.281
13598W        W74887  11.282  29.458  14.854
13599W        W74888  11.673  17.754   3.635
13600W        W74889   8.290   4.391  11.095
13601W        W74890  30.522  29.035   0.753
13602W        W74891  11.811   8.318  14.943
13603W        W74892  10.713  29.069  14.285
13604W        W74893  25.165  23.176   5.639
13605W        W74894  30.424  41.993   3.213
13606W        W74895  35.026  21.051   3.655
13607W        W74896  24.574  28.975  11.068
13608W        W74897  34.520  11.850  10.452
13609W        W74898  31.458  43.914  13.507
13610W        W74899  27.599  41.389   3.639
13611W        W74900  26.180  10.703   1.387
13612W        W74901  12.134  28.058  12.553
13613W        W74902  31.515   8.402  12.901
13614W        W74903  43.411  35.410   3.249
13615W        W74904  21.252  33.112   0.954
13616W        W74905  34.603  25.497  13.957
13617W        W74906  37.937  11.814   3.359
13618W        W74907   6.904  34.913  11.036
13619W        W74908  34.547  10.211   1.284
13620W        W74909   4.787  33.025  13.472
13621W        W74910  20.727  43.971  12.942
13622W        W74911  11.625   7.333   3.280
13623W        W74912  16.245  34.871  13.477
13624W        W74913  13.228   2.966  14.864
13625W        W74914  14.788  23.086  13.986
13626W        W74915  13.667  40.393  13.916
13627W        W74916  41.956  18.283  14.286
13628W        W74917  21.064  27.098   4.166
13629W        W74918  21.140  11.633   2.185
13630W        W74919  10.218  20.232  14.464
13631W        W74920   7.668   5.748  12.387
13632W        W74921  34.587  42.436  14.024
13633W        W74922  39.040  23.689  12.040
13634W        W74923  15.116  29.518   1.444
13635W        W74924  25.575  20.202  11.374
13636W        W74925  10.848  27.982   3.706
13637W        W74926  38.569   2.910  13.921
13638W        W74927   8.309  33.405   1.343
13639W        W74928  40.374   9.155   4.338
13640W        W74929  17.303  33.076   4.222
13641W        W74930   1.766  29.487  12.345
13642W        W74931  28.505  37.381  12.964
13643W        W74932  12.290  41.412  11.038
13644W        W74933  35.876  36.970  11.469
13645W        W74934  28.437  11.857   2.275
13646W        W74935  28.044  23.058  14.424
13647W        W74936  34.077  28.478   2.353
13648W        W74937  13.110  27.128  13.390
13649W        W74938  26.188  19.165  12.084
13650W        W74939  10.224  39.923  14.948
13651W        W74940   6.747  34.570  10.935
13652W        W74941   7.328  38.953  11.049
13653W        W74942   7.399  41.925  12.004
13654W        W74943  27.582  17.158   4.199
13655W        W74944  38.343  17.089   0.275
13656W        W74945  33.481  29.036   3.651
13657W        W74946  11.791   2.919   1.269
13658W        W74947  31.967  19.678   0.774
13659W        W74948  29.469   2.330  11.383
13660W        W74949  40.362   4.904  11.460
13661W        W74950  42.937   8.656  12.524
13662W        W74951  33.003  38.916  14.474
13663W        W74952   5.750   3.754   2.678
13664W        W74953  37.031   8.830   2.837
13665W        W74954  43.991  27.026   2.760
13666W        W74955  15.657   6.719  14.437
13667W        W74956   4.432  35.466   1.864
13668W        W74957  29.560  30.493   4.324
13669W        W74958  22.182  26.518   2.813
13670W        W74959  30.431  39.376   0.842
13671W        W74960   2.811  27.572  14.922
13672W        W74961   7.794  40.809  11.049
13673W        W74962  22.716  12.614  11.049
13674W        W74963  29.146  17.568   1.891
13675W        W74964  26.566   4.891  11.552
13676W        W74965  31.074  20.160   0.291
13677W        W74966   9.737  31.116  11.979
13678W        W74967  15.100  38.395  12.929
13679W        W74968  27.673  31.956  11.462
13680W        W74969  21.532  13.840   2.367
13681W        W74970  30.458  12.837   2.188
13682W        W74971  20.168   8.731   3.218
13683W        W74972  35.558   9.346   2.723
13684W        W74973   8.816  35.949  13.862
13685W        W74974   8.185  23.678  12.870
13686W        W74975  39.498  25.513  11.394
13687W        W74976  40.517   1.293  13.906
13688W        W74977  41.901   0.296  13.329
13689W        W74978  32.029  33.129   3.753
13690W        W74979  28.954  40.049   4.251
13691W        W74980  26.088  36.435  13.973
13692W        W74981   7.176  28.586   9.966
13693W        W74982  39.012   6.210   0.728
13694W        W74983  26.695   1.895   4.172
13695W        W74984   2.393  31.086   0.795
13696W        W74985  26.964   5.745   3.776
13697W        W74986  36.956   9.805  12.476
13698W        W74987  14.724  36.987   2.762
13699W        W74988  19.678  43.003  12.982
13700W        W74989  32.986  33.379  12.854
13701W        W74990   7.324   9.362  12.892
13702W        W74991   3.773  44.436  14.785
13703W        W74992  11.270  34.556  12.001
13704W        W74993   0.779   6.215  14.032
13705W        W74994   5.207   2.789   1.295
13706W        W74995  37.882  31.148   0.378
13707W        W74996   0.839  34.389  14.411
13708W        W74997  40.535  27.552   2.669
13709W        W74998  12.193  22.220   4.313
13710W        W74999  27.038  35.028   2.339
13711W        W75000  27.974  10.671  13.349
13712W        W75001  21.050  17.608   2.664
13713W        W75002  33.012  35.591   2.678
13714W        W75003  31.468   6.823  13.463
13715W        W75004  27.985   2.843  13.368
13716W        W75005   9.365  11.219   3.291
13717W        W75006  33.131  32.633   2.697
13718W        W75007   1.436  42.387   2.713
13719W        W75008  35.073  13.609   1.752
13720W        W75009  25.473  19.069   2.835
13721W        W75010  28.602   7.300  13.854
13722W        W75011  41.794  34.009  11.431
13723W        W75012   7.740  31.926  13.010
13724W        W75013  29.501  12.663  12.000
13725W        W75014   3.923  44.417  13.486
13726W        W75015   2.332  40.855  10.981
13727W        W75016  30.150  11.157   3.248
13728W        W75017  36.090  23.060  10.966
13729W        W75018  18.054  41.913  11.962
13730W        W75019  33.931  37.543   0.259
13731W        W75020   0.302   5.260   0.371
13732W        W75021  42.915   9.779  14.346
13733W        W75022  34.509   8.263   1.266
13734W        W75023  32.614   5.854   0.929
13735W        W75024  33.410  35.953  12.056
13736W        W75025  16.569   9.332   1.714
13737W        W75026   2.964   2.904  11.583
13738W        W75027   6.907  32.391   4.304
13739W        W75028  28.585  30.632  13.312
13740W        W75029  18.761  21.034   0.249
13741W        W75030  25.158  33.045   4.670
13742W        W75031  25.644   4.870   4.788
13743W        W75032  16.218  23.684  11.471
13744W        W75033   1.976  23.729   4.756
13745W        W75034   2.280  16.309  14.373
13746W        W75035  35.603   0.826  12.908
13747W        W75036  27.555  38.481  11.611
13748W        W75037  30.050  39.478  14.907
13749W        W75038   4.746  30.163   0.786
13750W        W75039  38.420  31.426  11.962
13751W        W75040  22.672  41.946  12.496
13752W        W75041  16.091  30.915  14.429
13753W        W75042  34.388  42.932   0.389
13754W        W75043  33.074   6.217   3.857
13755W        W75044  22.215  10.151  12.939
13756W        W75045  18.769  13.773   4.602
13757W        W75046  32.471  31.495   0.435
13758W        W75047  19.568   5.764   3.384
13759W        W75048  43.962  30.518   3.338
13760W        W75049   5.811  26.647  14.492
13761W        W75050  19.696  32.913  10.448
13762W        W75051  30.004  26.695   3.686
13763W        W75052   6.779  18.712   1.313
13764W        W75053  20.183  14.184   5.189
13765W        W75054  24.071  36.008  11.969
13766W        W75055   2.314  18.174   4.133
13767W        W75056  41.463  12.163   1.361
13768W        W75057   7.677  18.073   0.267
13769W        W75058  22.658  23.169  12.952
13770W        W75059  31.899  14.611  11.946
13771W        W75060  40.484  30.478  13.984
13772W        W75061   3.262  17.168   1.885
13773W        W75062  15.668  31.027   1.831
13774W        W75063  14.696   5.322  13.062
13775W        W75064  28.529  29.468   1.864
13776W        W75065  33.095  29.630   2.381
13777W        W75066  16.186  28.158   2.233
13778W        W75067  43.856  10.329   1.327
13779W        W75068  17.595  44.848  12.501
13780W        W75069  29.549  11.722   4.197
13781W        W75070  35.516  21.603   2.278
13782W        W75071   4.349  12.806   0.961
13783W        W75072   4.242  27.028   9.988
13784W        W75073  22.212  19.256   3.763
13785W        W75074  26.982   5.282  12.579
13786W        W75075   2.949  15.320   0.281
13787W        W75076  16.245   3.245  14.515
13788W        W75077  23.994  23.609  11.432
13789W        W75078   6.771   7.754  13.531
13790W        W75079  32.997   3.357  10.957
13791W        W75080   8.893   2.856   4.134
13792W        W75081  10.219   8.722  13.969
13793W        W75082  17.248  12.141   2.717
13794W        W75083   2.797  35.532   0.831
13795W        W75084  24.672  40.812   0.378
13796W        W75085   1.406  20.180   3.163
13797W        W75086   6.295  42.852  12.487
13798W        W75087  10.726  34.386   3.761
13799W        W75088  33.598   6.258   1.861
13800W        W75089  17.776  38.437   2.225
13801W        W75090   3.280  23.179  13.918
13802W        W75091   3.277  38.356   0.866
13803W        W75092  32.124  16.666   2.243
13804W        W75093  43.997  34.492   1.364
13805W        W75094  36.898  30.121  11.930
13806W        W75095  15.160  31.954   2.188
13807W        W75096   8.370  12.185  11.028
13808W        W75097  29.631  31.972  10.932
13809W        W75098  43.783  23.515  10.527
13810W        W75099  18.094  29.521  14.907
13811W        W75100   3.258  28.137   1.446
13812W        W75101  28.022  25.129  11.939
13813W        W75102  12.758  15.784  10.535
13814W        W75103  43.009  17.621  11.487
13815W        W75104  16.169  20.713  13.798
13816W        W75105   7.377   1.811  12.470
13817W        W75106  27.532   6.915  14.009
13818W        W75107  28.661  38.343   1.894
13819W        W75108  23.052  25.621   4.830
13820W        W75109  21.534  31.994  13.356
13821W        W75110  33.020   4.216  11.489
13822W        W75111   6.763  41.960   2.685
13823W        W75112  14.152  20.763   0.470
13824W        W75113  21.540  27.987  13.888
13825W        W75114   9.365   7.282  12.544
13826W        W75115  31.939  26.028   3.214
13827W        W75116  23.561  40.468   2.722
13828W        W75117  37.354  39.824   2.889
13829W        W75118  19.682   6.185   2.720
13830W        W75119  44.289   9.246   0.910
13831W        W75120   6.289  30.995  11.531
13832W        W75121  42.834  36.019   3.637
13833W        W75122   2.956  13.734  10.890
13834W        W75123  41.315   1.882   1.738
13835W        W75124  29.494  35.960  10.472
13836W        W75125  31.567  26.182   3.356
13837W        W75126  26.663  29.628  12.902
13838W        W75127  15.785  41.535  13.948
13839W        W75128  12.360  24.213   2.321
13840W        W75129  23.177  34.947   1.793
13841W        W75130  27.638  30.143   1.319
13842W        W75131  13.665  10.669  12.899
13843W        W75132   6.752  19.283  12.886
13844W        W75133  41.984  11.828   1.778
13845W        W75134  30.569   4.848  12.978
13846W        W75135   8.688  44.279  11.412
13847W        W75136  30.630  35.973  12.378
13848W        W75137  38.880  34.372   1.270
13849W        W75138  44.416   7.318  12.894
13850W        W75139  34.103  32.124   1.292
13851W        W75140   5.798   4.251   1.321
13852W        W75141  18.622  31.042  11.523
13853W        W75142  18.206  31.959  11.609
13854W        W75143  12.205  11.715  10.485
13855W        W75144   2.352  44.289  14.355
13856W        W75145  20.249   5.906   0.375
13857W        W75146  42.416  11.139  12.948
13858W        W75147  42.382   0.873  11.396
13859W        W75148  17.093   3.877   1.260
13860W        W75149  27.639  40.896  14.817
13861W        W75150  41.350   5.352  14.455
13862W        W75151  38.984  39.343   2.406
13863W        W75152  17.608  19.558  11.082
13864W        W75153   1.341  34.094   2.886
13865W        W75154   4.327   5.811  14.516
13866W        W75155  22.621   5.431  12.504
13867W        W75156  41.872  34.102  12.406
13868W        W75157  14.231   1.918   3.823
13869W        W75158   5.887   5.888   3.366
13870W        W75159  18.231  32.398   3.683
13871W        W75160  35.505  11.716   0.308
13872W        W75161  15.249  16.122   4.717
13873W        W75162   0.345  28.972  13.052
13874W        W75163  43.307  16.788   0.337
13875W        W75164  12.731  30.920  14.996
13876W        W75165  14.702   1.259   9.946
13877W        W75166  25.203   2.460   4.245
13878W        W75167  34.872  44.262  10.420
13879W        W75168   7.867   5.926  10.403
13880W        W75169  15.645  35.987   2.832
13881W        W75170  26.507  39.869   4.296
13882W        W75171  30.567   9.885   1.369
13883W        W75172  38.549  41.935  12.030
13884W        W75173  37.417  30.956  11.910
13885W        W75174  38.855   2.946   3.844
13886W        W75175  40.906  12.144  14.760
13887W        W75176  39.049  27.143  12.032
13888W        W75177  38.441   3.836   2.235
13889W        W75178  44.910  34.067   1.723
13890W        W75179   9.816  43.769   9.448
13891W        W75180  44.273   3.339   9.994
13892W        W75181  16.311  39.323  11.542
13893W        W75182  43.018  41.301   1.851
13894W        W75183  14.645  21.190   2.700
13895W        W75184  43.858   2.961  11.454
13896W        W75185  24.083  11.262  14.943
13897W        W75186  22.220   8.316  11.544
13898W        W75187  42.401  41.792  14.956
13899W        W75188  15.104  29.144   1.707
13900W        W75189   8.769   5.363  11.879
13901W        W75190  30.014  39.454  13.349
13902W        W75191  21.020  26.483  12.012
13903W        W75192   4.792  34.436  12.512
13904W        W75193  44.357  37.561  11.022
13905W        W75194   4.806  26.488   0.817
13906W        W75195   1.773  19.604  14.995
13907W        W75196  21.634  38.382   0.462
13908W        W75197   8.314   2.785  11.527
13909W        W75198   4.294  11.307   2.666
13910W        W75199  40.549  15.724  12.016
13911W        W75200   4.269  36.399  13.331
13912W        W75201   7.391  16.235  13.454
13913W        W75202   0.494  29.161   3.310
13914W        W75203  31.993  26.209   2.675
13915W        W75204   9.257   9.328  11.471
13916W        W75205   0.484   1.800  13.887
13917W        W75206  15.700   5.300  14.872
13918W        W75207  29.113  22.549   2.248
13919W        W75208   3.357  43.394  11.958
13920W        W75209  18.766  36.515   1.425
13921W        W75210   4.204  30.628   1.401
13922W        W75211   3.414  27.663  11.978
13923W        W75212  13.121  21.130  11.567
13924W        W75213   5.279  17.790  12.549
13925W        W75214  20.541  33.994  12.933
13926W        W75215  28.581  33.890  14.008
13927W        W75216  30.061  38.371   1.921
13928W        W75217   1.856  37.920   0.342
13929W        W75218  32.609  24.502  10.511
13930W        W75219  16.280  11.327   4.614
13931W        W75220  44.367  14.745   3.749
13932W        W75221  44.899   3.348  14.975
13933W        W75222  40.919   7.739  11.052
13934W        W75223   8.817  24.135  14.342
13935W        W75224  21.123   4.224  13.539
13936W        W75225  12.796  24.569  11.406
13937W        W75226  42.436  24.010   0.371
13938W        W75227  13.132  11.195  13.008
13939W        W75228  23.015   7.906   1.284
13940W        W75229  43.306  37.520  10.455
13941W        W75230   7.886  27.130  13.455
13942W        W75231  18.071  28.976  13.983
13943W        W75232  43.378  31.593  13.055
13944W        W75233  11.243  17.114   4.757
13945W        W75234   6.855  10.320  14.432
13946W        W75235  34.891  36.412  10.501
13947W        W75236   8.353  43.491  11.979
13948W        W75237  19.609  39.414   2.740
13949W        W75238  17.071  42.877  12.026
13950W        W75239  41.975  33.081   3.328
13951W        W75240  44.341  14.289   9.952
13952W        W75241   6.347  22.520  14.852
13953W        W75242  27.011  32.552   0.438
13954W        W75243  16.203  14.811  13.548
13955W        W75244  39.365  43.779  10.911
13956W        W75245  13.748   4.261   4.239
13957W        W75246   5.327  22.531   3.768
13958W        W75247  36.049  41.924   1.928
13959W        W75248  21.561   8.680   3.193
13960W        W75249   3.286  19.142  10.558
13961W        W75250  29.464  19.703   0.844
13962W        W75251   5.436   3.744  13.481
13963W        W75252   3.833   3.812  10.610
13964W        W75253  31.005  20.630  13.057
13965W        W75254  11.778  13.291   1.783
13966W        W75255  33.884   9.834  11.394
13967W        W75256  13.224  33.510   4.623
13968W        W75257  14.770  38.001  12.455
13969W        W75258  18.076  12.216   1.442
13970W        W75259  15.815  29.623  14.503
13971W        W75260  22.612  17.713   0.290
13972W        W75261  16.278  24.095  10.524
13973W        W75262  41.911  15.793   3.871
13974W        W75263  39.847   2.420  11.584
13975W        W75264  25.600  23.171   1.433
13976W        W75265  18.221  32.132  13.500
13977W        W75266   3.242  11.699  12.449
13978W        W75267  37.021   7.897  14.401
13979W        W75268  24.215  40.354  10.906
13980W        W75269  41.469  22.020   1.347
13981W        W75270  19.650  30.005   0.879
13982W        W75271  39.517  39.993   1.335
13983W        W75272   0.777  17.720  12.870
13984W        W75273   1.237   3.841   1.435
13985W        W75274   1.829  14.162  14.811
13986W        W75275  13.689  23.225   0.455
13987W        W75276  24.066  29.118  13.849
13988W        W75277  27.471   3.301  10.017
13989W        W75278  26.065  27.678   4.785
13990W        W75279  16.304  43.364  12.575
13991W        W75280  22.655  25.979   4.298
13992W        W75281   7.242  15.621   3.297
13993W        W75282  32.494  29.149   2.793
13994W        W75283  31.577  16.171  10.411
13995W        W75284  17.649  14.136   1.816
13996W        W75285   8.836  20.070   2.272
13997W        W75286   2.365   8.368  11.535
13998W        W75287  18.229  17.588   3.839
13999W        W75288  12.219   2.925   1.915
14000W        W75289  40.404  41.922   3.233
14001W        W75290  23.013   0.469  11.610
14002W        W75291  24.134  26.486   4.231
14003W        W75292  38.471  14.663  14.868
14004W        W75293  30.973  20.158   4.189
14005W        W75294  10.225  38.034  13.356
14006W        W75295  23.680   5.733   3.305
14007W        W75296  23.668   1.918  13.337
14008W        W75297  31.637  22.052   3.203
14009W        W75298  25.557   1.756  13.840
14010W        W75299  30.142   5.920   1.787
14011W        W75300  18.143  24.554  10.988
14012W        W75301   1.970  34.373  14.952
14013W        W75302  38.428  24.190   1.852
14014W        W75303   1.806  39.873  14.861
14015W        W75304  11.143  40.815  14.829
14016W        W75305  20.668  44.813  14.009
14017W        W75306  31.632  13.759  14.933
14018W        W75307  33.921  34.116   2.364
14019W        W75308  21.559  21.144  13.032
14020W        W75309  10.297  16.197   3.327
14021W        W75310   0.879  25.503   4.712
14022W        W75311   2.811  16.810  13.545
14023W        W75312  26.975  44.405  13.844
14024W        W75313   1.268   3.938  14.828
14025W        W75314   1.448  36.405   0.300
14026W        W75315  25.544   8.891  14.363
14027W        W75316  21.592  39.486   4.671
14028W        W75317   4.319  12.116   0.909
14029W        W75318  24.582  15.252   3.236
14030W        W75319  38.515  24.046  14.904
14031W        W75320  15.175  41.375  12.871
14032W        W75321  15.296   9.277   2.415
14033W        W75322   6.917  29.518   0.881
14034W        W75323   1.441  11.771   1.417
14035W        W75324   4.908  33.909  13.332
14036W        W75325   3.775  42.460   4.272
14037W        W75326   6.746  38.952  13.984
14038W        W75327   3.365   5.284   4.703
14039W        W75328  21.203   7.706   1.737
14040W        W75329  14.111  12.323   3.376
14041W        W75330   1.739  39.009  14.425
14042W        W75331  26.524  27.509  13.814
14043W        W75332   3.794  26.571   3.205
14044W        W75333  21.533  23.544  13.897
14045W        W75334  17.274  32.475   3.156
14046W        W75335  30.420  25.149   5.187
14047W        W75336  37.392  10.225   0.839
14048W        W75337  39.830  29.928   1.286
14049W        W75338  38.958  42.914   1.247
14050W        W75339  18.256  32.051   3.826
14051W        W75340  24.662  22.175  12.496
14052W        W75341  23.571  37.051  13.993
14053W        W75342   0.290  25.711  10.935
14054W        W75343  29.138  18.550   0.756
14055W        W75344  20.075  26.192   2.869
14056W        W75345  30.114  38.834  12.951
14057W        W75346  16.252  41.454  13.387
14058W        W75347   7.294  18.658  10.999
14059W        W75348  13.195  20.072   1.904
14060W        W75349   3.929  19.215   0.262
14061W        W75350  15.816   8.853   4.175
14062W        W75351  41.013   2.934   4.808
14063W        W75352  14.737   9.698   1.231
14064W        W75353  42.384  44.991   1.715
14065W        W75354  21.610  42.488   3.661
14066W        W75355  43.409  12.248  10.888
14067W        W75356  33.882  43.389  11.011
14068W        W75357  31.425  26.685  11.940
14069W        W75358   0.263  16.788  11.457
14070W        W75359  20.043  34.025  13.356
14071W        W75360  23.676   9.854  13.524
14072W        W75361  23.142   3.285  14.476
14073W        W75362   4.350  29.163  11.586
14074W        W75363  33.504  32.437  11.884
14075W        W75364  16.805  41.376  12.428
14076W        W75365   3.254  14.765   4.833
14077W        W75366  22.669  35.412  10.412
14078W        W75367  26.618  32.984  10.070
14079W        W75368  13.182  23.633   1.355
14080W        W75369  25.505   4.910  11.014
14081W        W75370  25.647  15.744   3.217
14082W        W75371  39.012   3.948   2.772
14083W        W75372  35.096  12.118  11.914
14084W        W75373   8.798   6.854   0.759
14085W        W75374   8.691  37.376   4.687
14086W        W75375  29.640  43.834  12.420
14087W        W75376  43.369  11.325  13.464
14088W        W75377  14.233   9.848   1.791
14089W        W75378  10.869   3.362   4.198
14090W        W75379  42.784  33.987   3.348
14091W        W75380  23.199  38.073  11.399
14092W        W75381  34.934  27.064   1.746
14093W        W75382  18.652  10.807   0.793
14094W        W75383  22.160  31.622  13.411
14095W        W75384  36.067   8.229  11.975
14096W        W75385  19.631   0.358   4.772
14097W        W75386  32.563  11.296  10.417
14098W        W75387   5.740  32.118   3.729
14099W        W75388  13.205  21.089   9.472
14100W        W75389  37.888  25.100   0.388
14101W        W75390  26.646  22.527   1.872
14102W        W75391  21.538   9.835   1.435
14103W        W75392  32.620  17.118   3.812
14104W        W75393   6.856  19.769  11.400
14105W        W75394   2.946  39.416  11.486
14106W        W75395  25.475  44.884  13.939
14107W        W75396  39.840  34.580  11.593
14108W        W75397  28.999  26.165  12.003
14109W        W75398  32.991  15.807  13.359
14110W        W75399  22.665   4.807   9.924
14111W        W75400  36.533  24.647   3.754
14112W        W75401  42.970  27.673  13.847
14113W        W75402  28.527  18.080   4.600
14114W        W75403  34.408   1.913   1.415
14115W        W75404  13.150   3.408   3.629
14116W        W75405  32.514  28.563  12.414
14117W        W75406  19.092  42.475  11.093
14118W        W75407  41.788  27.545   1.872
14119W        W75408  10.247   1.854   2.356
14120W        W75409  19.773  29.651  10.535
14121W        W75410   9.382  44.894   3.752
14122W        W75411  20.597  44.411  12.580
14123W        W75412  19.542  35.551  13.435
14124W        W75413  38.819  18.628   4.771
14125W        W75414  13.834  17.185   1.300
14126W        W75415  14.598  35.578   0.472
14127W        W75416  23.613  12.335  12.512
14128W        W75417  13.149  10.261  11.512
14129W        W75418  44.360  10.728  13.887
14130W        W75419   9.647  22.642   3.636
14131W        W75420   0.843  38.020   1.328
14132W        W75421  31.570  39.480   4.816
14133W        W75422   8.814  39.061  10.159
14134W        W75423  39.315  31.070  11.536
14135W        W75424  35.587  13.672   0.829
14136W        W75425   0.410   7.847   2.872
14137W        W75426  33.567  28.942   9.974
14138W        W75427  44.456  16.637   0.252
14139W        W75428   6.828  15.140   2.688
14140W        W75429  11.739  14.330   3.347
14141W        W75430  38.825   8.868   3.299
14142W        W75431  26.008  19.758  14.488
14143W        W75432  17.246  13.692   0.750
14144W        W75433  43.356  41.532  13.506
14145W        W75434  14.691  28.071  13.986
14146W        W75435  35.019  33.037  11.455
14147W        W75436  22.547  34.032   1.434
14148W        W75437  20.046  26.011   4.648
14149W        W75438  17.233  29.519  13.038
14150W        W75439  33.003   8.224  14.956
14151W        W75440  29.609  41.323   4.629
14152W        W75441   4.420  28.130  10.432
14153W        W75442   8.874  25.490  13.980
14154W        W75443   3.433   2.763   3.858
14155W        W75444  20.769  40.825  10.888
14156W        W75445  16.594  10.204   2.290
14157W        W75446  11.273  34.386   4.804
14158W        W75447   0.491  38.562   0.392
14159W        W75448  30.920  13.341  13.011
14160W        W75449  13.240   2.772  11.552
14161W        W75450   2.367  26.151  11.473
14162W        W75451   3.938   1.788  10.529
14163W        W75452  23.171  14.253   2.396
14164W        W75453  41.463   7.402   1.270
14165W        W75454  10.256  31.930   0.752
14166W        W75455  18.071  38.363  10.935
14167W        W75456  41.936  25.535   4.631
14168W        W75457  11.719  42.993  12.532
14169W        W75458  20.562  15.761   2.207
14170W        W75459  31.556  43.315   4.663
14171W        W75460  21.132   0.373  13.862
14172W        W75461  25.588  18.111   0.465
14173W        W75462  26.998  30.033  11.601
14174W        W75463  10.345  24.152   4.698
14175W        W75464  37.978  31.906   2.178
14176W        W75465  39.816  34.505  10.905
14177W        W75466  22.173  22.653   0.418
14178W        W75467  33.460   2.302  11.487
14179W        W75468  22.680  11.232  11.922
14180W        W75469  12.221  37.051   3.636
14181W        W75470  30.522  23.581  10.642
14182W        W75471  24.671  16.596  11.855
14183W        W75472  19.587  38.334   4.142
14184W        W75473  20.087  12.356  14.419
14185W        W75474  23.643  28.540   3.317
14186W        W75475  43.907  18.563   3.646
14187W        W75476  23.617  34.002  12.535
14188W        W75477  22.579  22.170   0.854
14189W        W75478   3.355  16.726  11.033
14190W        W75479  29.480   4.372   0.467
14191W        W75480  39.369  27.651   1.353
14192W        W75481  29.447  41.787   2.872
14193W        W75482  39.908  14.174   0.274
14194W        W75483  32.069   8.660  12.930
14195W        W75484  25.153  16.577   3.661
14196W        W75485  19.209   6.341   2.227
14197W        W75486  22.019  29.489  13.423
14198W        W75487  23.641  33.506   2.188
14199W        W75488  11.802  18.548   4.239
14200W        W75489  43.832  36.372   1.240
14201W        W75490  29.623  32.391   2.814
14202W        W75491   3.425  26.114  13.883
14203W        W75492  42.527   4.386   3.840
14204W        W75493   3.726  11.229   3.668
14205W        W75494  44.392  22.555  10.985
14206W        W75495  41.494  15.192  13.793
14207W        W75496  35.480  40.050   2.295
14208W        W75497  10.646  43.378   3.746
14209W        W75498  40.001   5.251   2.697
14210W        W75499   4.712  35.453  14.482
14211W        W75500   3.865  31.426  12.936
14212W        W75501  21.626  14.288   3.340
14213W        W75502  42.375  12.286  11.602
14214W        W75503  26.081  18.059  12.433
14215W        W75504   7.333   1.907   0.761
14216W        W75505  24.634  12.653   1.247
14217W        W75506  27.083  23.698  12.516
14218W        W75507  14.738   3.249  13.899
14219W        W75508  35.422  16.075   4.800
14220W        W75509  11.732  41.510   3.777
14221W        W75510  16.294  40.373  10.471
14222W        W75511  44.336  27.180  14.028
14223W        W75512  31.618   1.376   5.182
14224W        W75513   9.387  33.993   1.866
14225W        W75514  31.606   5.312  14.868
14226W        W75515  17.629  34.371  10.581
14227W        W75516  38.464  21.515   5.718
14228W        W75517  13.173  25.140  12.567
14229W        W75518  11.729  26.171  11.065
14230W        W75519   0.471  18.562   3.384
14231W        W75520  42.800  30.066   3.867
14232W        W75521  14.171  35.460   3.227
14233W        W75522  32.105  27.489   1.272
14234W        W75523   3.390  16.221  10.509
14235W        W75524  17.745  30.612  14.492
14236W        W75525  35.048  21.159   2.707
14237W        W75526  41.015  31.590   1.872
14238W        W75527  40.399  22.026   0.432
14239W        W75528  14.100   6.349  11.937
14240W        W75529   4.375  26.184  12.055
14241W        W75530  33.529  42.956   4.237
14242W        W75531  33.951  15.221  14.322
14243W        W75532  12.245  10.275  14.372
14244W        W75533   6.421  16.665  12.942
14245W        W75534  27.536  29.449   0.895
14246W        W75535  38.422   5.850  12.987
14247W        W75536  35.043   9.309   2.185
14248W        W75537  32.097  20.236  12.424
14249W        W75538   0.895  23.648   1.872
14250W        W75539   6.296  26.174   3.660
14251W        W75540  12.818  18.063   4.638
14252W        W75541  10.327  43.790   3.854
14253W        W75542  19.745  19.731  14.417
14254W        W75543  32.484   3.841   1.286
14255W        W75544  36.375   5.311   1.875
14256W        W75545  28.631  27.502  13.013
14257W        W75546   9.160  11.747  14.010
14258W        W75547  11.676  14.726   2.797
14259W        W75548  28.106   5.438   4.836
14260W        W75549   1.787  36.405  11.128
14261W        W75550  19.576  17.243  14.912
14262W        W75551  18.611  40.860  10.988
14263W        W75552  24.597  36.505   2.398
14264W        W75553  29.981  18.226   3.369
14265W        W75554  34.912   7.359   5.210
14266W        W75555   5.907   1.883  12.511
14267W        W75556   4.702  44.780   1.306
14268W        W75557   0.300  26.092   4.192
14269W        W75558   6.304  21.030  11.608
14270W        W75559  35.069  12.781   4.768
14271W        W75560  43.445   4.260   0.394
14272W        W75561   2.951  27.013  10.887
14273W        W75562   1.287  42.819  14.929
14274W        W75563   0.338   0.402  12.022
14275W        W75564  17.696   7.745   0.819
14276W        W75565  18.592   1.960   3.788
14277W        W75566   8.865  39.044  11.498
14278W        W75567  40.901  31.897   3.679
14279W        W75568  15.686  13.672   4.118
14280W        W75569   9.695   3.396  12.564
14281W        W75570  13.310  29.148   4.617
14282W        W75571  30.477  32.033   1.788
14283W        W75572   6.820  31.473  14.992
14284W        W75573  18.082  31.012   1.429
14285W        W75574   6.757  40.337  12.999
14286W        W75575  24.031   1.481   3.640
14287W        W75576  26.543  40.409  11.112
14288W        W75577  17.744  31.451  12.515
14289W        W75578  37.544  11.248  12.557
14290W        W75579  19.748  22.246  14.442
14291W        W75580  22.159  28.128   1.708
14292W        W75581  19.141   8.392  13.365
14293W        W75582  12.776  43.386   4.314
14294W        W75583  34.534  17.663  10.920
14295W        W75584   2.451  13.123   2.297
14296W        W75585  28.546  33.398   1.784
14297W        W75586  43.297  39.502  10.939
14298W        W75587   9.276  36.547  14.478
14299W        W75588   3.222  40.889   0.263
14300W        W75589   0.984  37.986  11.546
14301W        W75590  17.800  37.839  12.928
14302W        W75591  24.042  32.007  11.483
14303W        W75592   9.377  37.510  14.891
14304W        W75593  26.504  19.137   0.308
14305W        W75594  22.512  31.024   2.350
14306W        W75595  16.628  40.361  12.575
14307W        W75596   0.266   8.855  10.411
14308W        W75597  33.903  19.269   1.437
14309W        W75598  32.090  33.979   3.364
14310W        W75599  13.174  40.525  14.929
14311W        W75600  40.483  27.648  11.942
14312W        W75601  35.522  29.000  10.913
14313W        W75602  34.879   9.755  13.543
14314W        W75603  38.553  31.446   3.729
14315W        W75604  32.913  17.134  14.946
14316W        W75605  35.382  20.623   1.915
14317W        W75606  27.189  32.416   3.763
14318W        W75607  39.333   6.824   4.831
14319W        W75608  13.177  34.400  14.300
14320W        W75609  36.904  27.449  11.517
14321W        W75610  15.763   4.838   3.226
14322W        W75611  13.701  35.371   2.758
14323W        W75612  29.590  38.513  14.295
14324W        W75613   3.453  20.202  11.503
14325W        W75614  41.807   3.932  13.913
14326W        W75615  28.040  12.680   2.336
14327W        W75616   7.227  21.169  14.335
14328W        W75617  15.298  44.430   1.702
14329W        W75618  43.799  13.292  11.868
14330W        W75619   8.840  33.041   1.870
14331W        W75620   3.947  28.036  12.918
14332W        W75621   6.863  35.082   4.262
14333W        W75622  18.682  34.615  11.588
14334W        W75623  33.490   3.400  12.911
14335W        W75624   1.731  11.168   0.871
14336W        W75625  41.509  35.051   1.740
14337W        W75626  35.099  39.460   3.248
14338W        W75627  27.040  18.085  11.940
14339W        W75628  41.538  36.532  11.578
14340W        W75629  19.057  35.537   3.368
14341W        W75630  35.901  12.343  12.059
14342W        W75631  25.615   5.404  13.522
14343W        W75632  39.010  42.453  12.075
14344W        W75633   5.331  32.001  12.026
14345W        W75634  32.564   5.699   4.239
14346W        W75635  10.765  23.718   1.257
14347W        W75636  29.023  41.345   0.865
14348W        W75637  39.939  28.978  13.864
14349W        W75638  11.671  42.784   2.779
14350W        W75639  16.587   0.315   0.483
14351W        W75640  29.141  19.776  13.481
14352W        W75641  15.177  34.447   3.215
14353W        W75642  23.601  28.184  11.019
14354W        W75643   8.857   7.317  11.941
14355W        W75644  13.256  11.844  14.952
14356W        W75645   2.441  39.540   0.406
14357W        W75646  35.904  17.721  11.952
14358W        W75647  18.168  26.168  10.592
14359W        W75648   0.795   6.881   1.439
14360W        W75649  19.057  33.432   1.304
14361W        W75650  16.656  17.063   1.262
14362W        W75651  38.900   0.415  13.389
14363W        W75652  13.630  26.978  13.422
14364W        W75653  33.976   0.936   4.605
14365W        W75654  16.753  25.198  12.362
14366W        W75655  42.777  40.405  11.915
14367W        W75656  40.500  44.452   2.206
14368W        W75657  19.226  10.796   1.704
14369W        W75658   1.263  18.050  14.771
14370W        W75659  16.601  35.980  11.878
14371W        W75660  19.212  33.514   1.702
14372W        W75661   9.763  29.061  11.565
14373W        W75662  18.233  33.595  14.797
14374W        W75663   1.337   0.258  14.828
14375W        W75664  27.524   0.957  12.957
14376W        W75665   5.247   6.892   0.962
14377W        W75666  10.308   1.380   3.780
14378W        W75667  38.031  27.092   0.400
14379W        W75668  29.620  15.242  14.973
14380W        W75669  21.256   7.176  14.998
14381W        W75670  18.261  40.801   2.902
14382W        W75671  21.040  29.030  12.067
14383W        W75672  23.664   5.754  14.924
14384W        W75673  15.264  39.859   2.232
14385W        W75674  24.552  20.179   5.618
14386W        W75675  18.587  25.055  11.118
14387W        W75676  12.359   9.848  10.562
14388W        W75677  29.617  19.166   2.876
14389W        W75678  12.637  35.552   5.255
14390W        W75679   1.941  13.203  12.828
14391W        W75680  28.126  29.469   2.891
14392W        W75681  14.704   9.795   0.281
14393W        W75682  33.512  22.743   3.269
14394W        W75683  15.596   7.895  12.934
14395W        W75684  34.936  11.198   1.221
14396W        W75685  34.505   7.687   2.729
14397W        W75686  10.199  17.164   4.659
14398W        W75687  17.656  41.913  13.495
14399W        W75688  39.546  40.493   0.937
14400W        W75689  13.316  13.233   0.385
14401W        W75690  22.073   8.885  14.424
14402W        W75691  40.000  19.263   2.710
14403W        W75692  24.160   5.711   4.285
14404W        W75693  17.255  18.590   3.276
14405W        W75694  44.790  43.926   3.187
14406W        W75695  40.851  20.145   4.686
14407W        W75696  22.572  16.224   3.668
14408W        W75697  41.446  13.300   2.307
14409W        W75698  15.299   5.437  10.450
14410W        W75699  21.597  21.637  10.505
14411W        W75700  35.945  16.309  11.376
14412W        W75701  17.791  20.650   2.271
14413W        W75702   7.836  34.917  10.890
14414W        W75703   9.842  29.171   4.251
14415W        W75704  42.435  31.088  10.986
14416W        W75705   2.849  16.813  14.835
14417W        W75706  38.458  33.469   1.247
14418W        W75707  28.932  28.165   2.382
14419W        W75708  17.155  18.231   2.196
14420W        W75709  31.458  34.068  14.350
14421W        W75710  27.549  44.781   4.702
14422W        W75711  35.863  28.956   3.791
14423W        W75712   0.811  18.137   4.152
14424W        W75713  12.210  12.124   2.802
14425W        W75714   1.255  10.202   1.884
14426W        W75715  16.249  26.055   4.687
14427W        W75716  12.338  37.490   0.734
14428W        W75717  18.155  11.624   1.344
14429W        W75718  35.876  10.266   3.738
14430W        W75719  21.208  23.031  13.826
14431W        W75720  29.011  16.131   0.804
14432W        W75721  26.987  29.041   4.282
14433W        W75722  23.549  20.579  14.939
14434W        W75723  34.871  22.588  11.927
14435W        W75724   3.454  13.205   3.194
14436W        W75725  15.302   3.430  10.622
14437W        W75726  33.056  34.501  14.770
14438W        W75727   5.225  21.153   2.805
14439W        W75728  42.790  21.040   0.283
14440W        W75729  32.627  29.552   2.334
14441W        W75730  33.948  14.810  14.031
14442W        W75731   9.263  37.435   3.308
14443W        W75732  44.418  19.544  12.451
14444W        W75733  32.603  31.569  14.855
14445W        W75734  24.107   3.715  12.068
14446W        W75735   6.834  17.160   1.413
14447W        W75736  30.057  18.252   3.796
14448W        W75737  33.379  13.839  13.979
14449W        W75738  41.425  20.616  12.999
14450W        W75739  21.188   2.875  10.963
14451W        W75740   2.763  13.718   3.210
14452W        W75741  19.766  15.324  14.760
14453W        W75742  36.065  32.492   0.744
14454W        W75743  20.741  42.888   1.320
14455W        W75744  31.038  32.461   4.794
14456W        W75745  14.709  41.357  10.521
14457W        W75746  18.071  26.682  14.505
14458W        W75747   4.699  36.348  14.873
14459W        W75748   3.259  33.603   4.660
14460W        W75749   1.792  19.740  10.579
14461W        W75750   6.857   1.477   2.662
14462W        W75751   9.360  39.455  13.421
14463W        W75752  35.424  27.549  14.811
14464W        W75753   2.283  19.762   1.234
14465W        W75754  38.357  37.003  11.001
14466W        W75755  20.148  10.669   2.729
14467W        W75756   8.874   7.682   3.381
14468W        W75757  41.439  14.612  13.346
14469W        W75758  31.120  11.723   4.830
14470W        W75759  42.513   0.781   2.767
14471W        W75760  13.219  29.152   1.297
14472W        W75761  13.326   9.834  11.124
14473W        W75762  42.466   3.740  12.445
14474W        W75763  22.594  26.572   3.701
14475W        W75764  36.407  29.436  12.953
14476W        W75765  13.165  29.472  12.543
14477W        W75766   5.364  21.737   0.803
14478W        W75767  35.393  28.983  14.283
14479W        W75768  40.877  21.190   1.699
14480W        W75769  38.382  20.269  10.475
14481W        W75770  43.303  40.861   1.254
14482W        W75771  43.508  15.236   4.814
14483W        W75772  28.185  43.978   2.696
14484W        W75773  33.555  31.489   4.655
14485W        W75774  25.541  24.013  12.991
14486W        W75775   5.255  21.534  14.483
14487W        W75776  32.028  33.981   0.726
14488W        W75777  41.514  17.170  14.867
14489W        W75778  16.150  38.821   0.413
14490W        W75779  43.455  18.686  12.444
14491W        W75780  13.281  14.147   4.294
14492W        W75781  17.165  31.585  12.536
14493W        W75782  18.632   6.914  13.803
14494W        W75783  18.175  32.892   1.850
14495W        W75784  19.761   2.731   4.324
14496W        W75785  22.010  20.707   1.895
14497W        W75786  34.568  36.534  11.071
14498W        W75787  38.930  28.667  14.334
14499W        W75788  39.348  42.342  12.878
14500W        W75789  43.014   0.457   1.335
14501W        W75790  22.215  23.009  11.546
14502W        W75791  12.851  15.163  10.579
14503W        W75792  10.172  27.132   4.115
14504W        W75793  19.667  13.777  12.086
14505W        W75794  28.961   2.736  10.421
14506W        W75795  37.369  37.444   2.831
14507W        W75796  27.582  26.093   4.646
14508W        W75797  39.958  28.041   4.835
14509W        W75798  26.990   1.752   0.820
14510W        W75799  10.747  39.833  14.367
14511W        W75800  18.633  35.987   1.338
14512W        W75801   8.248  43.347  13.999
14513W        W75802  16.616  30.113  12.443
14514W        W75803  30.082  31.000   4.166
14515W        W75804   3.883  23.057  13.866
14516W        W75805  11.676  31.498   4.207
14517W        W75806   9.733  13.805   1.893
14518W        W75807  14.677  32.449  14.329
14519W        W75808  40.817   1.769  14.355
14520W        W75809  35.528  42.518  13.544
14521W        W75810  14.649   7.692  11.476
14522W        W75811  20.042  15.254   4.747
14523W        W75812  19.554   0.829  13.921
14524W        W75813  18.179  26.653  10.593
14525W        W75814   5.227  43.445  10.504
14526W        W75815  44.396  23.161  11.413
14527W        W75816  14.212  41.376   1.816
14528W        W75817  18.773  31.050  12.906
14529W        W75818  14.158  10.144  13.401
14530W        W75819  30.023  41.307  10.512
14531W        W75820  24.544  22.569  13.480
14532W        W75821  17.736  22.201  12.555
14533W        W75822  14.790  37.056   4.228
14534W        W75823  28.624   0.283  13.379
14535W        W75824  31.112  33.114  11.990
14536W        W75825  16.669  37.050   5.091
14537W        W75826  34.067  10.330  10.927
14538W        W75827  38.967  39.449   4.297
14539W        W75828  44.950   9.273  14.302
14540W        W75829   1.239  25.548  14.828
14541W        W75830  38.845   1.463   3.810
14542W        W75831  27.021  38.014   2.408
14543W        W75832  14.725   8.819   0.941
14544W        W75833   4.331  40.387   2.789
14545W        W75834  10.298  14.614   5.311
14546W        W75835  38.437  40.426   3.809
14547W        W75836  15.663   7.692   3.832
14548W        W75837  20.238   6.697  12.855
14549W        W75838  27.581  24.133   4.156
14550W        W75839  13.342  42.786   4.288
14551W        W75840  39.860   9.802   0.887
14552W        W75841  28.986   2.275  11.033
14553W        W75842  25.000   6.243  12.968
14554W        W75843  15.242  14.161  14.899
14555W        W75844  43.418  42.846  11.989
14556W        W75845  40.881  17.243   3.752
14557W        W75846  26.535  23.510   0.825
14558W        W75847  42.281  25.572  13.964
14559W        W75848  34.614  33.081  11.435
14560W        W75849  34.076  10.703  14.771
14561W        W75850   7.240  39.949  11.871
14562W        W75851  21.701   2.323  11.518
14563W        W75852   9.723  42.470   2.361
14564W        W75853  19.177  34.035  12.918
14565W        W75854  41.933  32.576   2.751
14566W        W75855  28.475  25.071   0.797
14567W        W75856   4.251  27.141  12.353
14568W        W75857  41.329   4.821  13.816
14569W        W75858  27.133  21.723   3.745
14570W        W75859   7.375  30.463   0.345
14571W        W75860  22.031  30.544   4.813
14572W        W75861  36.539   8.324   1.926
14573W        W75862  22.218  22.094   4.631
14574W        W75863  41.973  26.617  13.956
14575W        W75864  16.595   1.763   3.839
14576W        W75865   9.306   1.429   1.710
14577W        W75866  13.175   8.666   5.133
14578W        W75867   0.851  21.040   1.329
14579W        W75868  41.961  35.034   2.728
14580W        W75869   6.336   7.269  13.480
14581W        W75870  23.023  19.663   0.460
14582W        W75871   3.817  32.958   1.254
14583W        W75872  32.906  13.334   2.277
14584W        W75873  42.896  23.705   1.919
14585W        W75874  11.853  25.012  10.553
14586W        W75875  44.268  29.489   1.847
14587W        W75876  32.618  42.309  14.482
14588W        W75877  22.516   1.973  13.360
14589W        W75878  26.038   0.753  14.812
14590W        W75879   9.175  31.557   3.311
14591W        W75880  22.123  30.955  14.306
14592W        W75881   3.227   5.794   1.848
14593W        W75882  33.591  29.556   4.204
14594W        W75883  33.415   4.917  12.545
14595W        W75884  32.428  34.526   4.168
14596W        W75885   8.801  16.178   4.178
14597W        W75886   1.294   8.786  13.502
14598W        W75887  32.008  36.359  14.032
14599W        W75888   5.710  13.839  10.915
14600W        W75889  39.391  11.359  14.905
14601W        W75890  17.768  33.036   4.693
14602W        W75891  15.716  28.944   2.830
14603W        W75892  11.853  44.411   3.169
14604W        W75893   3.275  13.307  13.428
14605W        W75894  32.948  39.529   2.388
14606W        W75895  17.133  40.325  11.535
14607W        W75896  21.610   1.947   2.679
14608W        W75897  22.124  32.393  11.886
14609W        W75898  14.290  16.245  14.375
14610W        W75899   7.785  35.100  13.472
14611W        W75900   0.847  15.243   4.201
14612W        W75901  37.957   6.847   1.926
14613W        W75902   4.833  18.076  10.473
14614W        W75903  16.763  34.894  14.302
14615W        W75904   3.331  38.935   4.162
14616W        W75905  24.102  32.529   4.715
14617W        W75906  29.020  38.406  10.916
14618W        W75907  21.033  36.968   0.802
14619W        W75908  22.720  31.018  13.355
14620W        W75909   8.871  35.599  12.545
14621W        W75910  34.376  42.931  10.904
14622W        W75911  40.408  36.095   1.782
14623W        W75912  44.400  24.201   4.602
14624W        W75913  41.886  16.643  14.846
14625W        W75914  31.450  18.608  10.495
14626W        W75915  12.351  26.548  11.543
14627W        W75916  28.508   8.827  13.813
14628W        W75917   0.828  13.315  14.826
14629W        W75918  30.047  30.414  13.880
14630W        W75919  20.629  33.561  14.834
14631W        W75920  12.775  21.187   0.951
14632W        W75921  17.060  12.651   4.192
14633W        W75922  42.459  37.977  13.339
14634W        W75923   7.854  21.518   0.329
14635W        W75924  34.900  36.408  12.827
14636W        W75925  22.584  24.215   1.729
14637W        W75926   4.430  35.992   0.840
14638W        W75927   4.221  43.469  13.457
14639W        W75928  24.715  12.154   2.732
14640W        W75929   7.882  41.006  13.314
14641W        W75930  15.677   2.857  13.823
14642W        W75931  29.652  35.379   3.827
14643W        W75932  13.234  28.596   0.796
14644W        W75933  35.480   1.417  14.926
14645W        W75934  33.945  32.983  11.988
14646W        W75935  35.576  14.823   2.384
14647W        W75936  26.539  21.115   4.797
14648W        W75937  15.616  27.447  12.858
14649W        W75938  19.606  16.742   2.333
14650W        W75939  18.193  20.684   0.251
14651W        W75940  27.163  30.956  11.076
14652W        W75941  36.445   6.231  10.943
14653W        W75942  38.415   3.292   1.892
14654W        W75943   8.809  18.113  12.568
14655W        W75944  36.426  31.633   2.706
14656W        W75945  12.657  44.387   1.346
14657W        W75946  35.357  19.230   1.439
14658W        W75947  43.483   8.318   5.716
14659W        W75948  35.865  34.044   3.667
14660W        W75949  42.870  40.424  13.416
14661W        W75950  22.169   5.882   0.378
14662W        W75951   5.870   3.862  11.096
14663W        W75952  31.022   4.224   4.274
14664W        W75953  10.859   8.827   2.209
14665W        W75954   8.778  34.040  14.005
14666W        W75955   0.316  44.854   4.767
14667W        W75956  39.336  33.572  11.125
14668W        W75957   6.385  15.593   3.375
14669W        W75958  29.637   3.713   1.340
14670W        W75959  28.034  38.341   3.354
14671W        W75960   8.181  38.561  13.513
14672W        W75961  22.157  17.737   2.234
14673W        W75962  41.977  43.999  14.378
14674W        W75963  30.519   8.403   5.806
14675W        W75964  10.371  35.523   3.295
14676W        W75965  22.593  39.337   2.277
14677W        W75966   3.306   3.876  12.945
14678W        W75967  11.243  28.947  14.007
14679W        W75968   0.360   3.307   5.181
14680W        W75969  29.147   7.802   2.892
14681W        W75970   4.858  17.562   1.707
14682W        W75971  19.619  10.794   1.931
14683W        W75972   4.863  40.327  12.071
14684W        W75973  23.045  11.184   1.410
14685W        W75974  26.615  12.622   9.973
14686W        W75975   1.786  23.045   3.324
14687W        W75976   2.799  39.352   0.350
14688W        W75977   5.717  20.227  12.456
14689W        W75978   3.243  26.487   4.136
14690W        W75979  23.669   6.411   3.280
14691W        W75980  20.065  12.247  14.778
14692W        W75981  25.147   8.759   1.333
14693W        W75982  40.402  13.108   1.259
14694W        W75983  43.369  17.675  11.072
14695W        W75984  11.131  18.780  14.509
14696W        W75985  26.661  44.472  14.395
14697W        W75986   9.785  14.614   4.611
14698W        W75987  19.221   0.464  11.383
14699W        W75988  32.539   4.440  12.558
14700W        W75989  40.805  34.537   3.802
14701W        W75990   5.789  37.914  14.803
14702W        W75991  12.313  26.129  13.307
14703W        W75992  29.610  33.410  11.959
14704W        W75993   2.881   5.409   4.194
14705W        W75994  34.380   6.910   4.614
14706W        W75995   4.848   8.294  13.317
14707W        W75996   9.301  11.371  12.030
14708W        W75997   1.796  20.043   0.384
14709W        W75998  15.690   8.258   0.320
14710W        W75999   1.408   4.424   0.873
14711W        W76000  32.627  19.125  11.100
14712W        W76001  33.051  13.613  13.008
14713W        W76002  11.644  23.578  13.421
14714W        W76003  38.538   5.712  13.385
14715W        W76004  13.209  31.977   3.759
14716W        W76005   4.437  30.114   4.268
14717W        W76006  33.529  15.691   0.958
14718W        W76007  12.269   4.869  11.043
14719W        W76008  36.489   2.421   2.672
14720W        W76009  38.463   6.296  13.980
14721W        W76010  20.210  28.001  12.842
14722W        W76011  27.654   3.435   3.717
14723W        W76012  33.432  29.136   1.318
14724W        W76013  15.273  32.957   3.317
14725W        W76014  18.068  23.102  12.414
14726W        W76015  16.755  36.382   4.736
14727W        W76016  22.547  25.571   9.956
14728W        W76017  25.591  31.023  13.803
14729W        W76018  23.730  34.549   0.297
14730W        W76019  42.994  21.656   4.686
14731W        W76020  17.099  12.657   1.358
14732W        W76021  29.007  11.839   0.392
14733W        W76022   2.923   1.476   0.920
14734W        W76023  33.381  40.488   4.609
14735W        W76024  25.695  26.106  12.482
14736W        W76025  29.426  19.668  13.467
14737W        W76026  34.404  13.297  10.895
14738W        W76027  23.509  25.184   4.817
14739W        W76028   0.377  29.640   4.142
14740W        W76029  18.691  14.752  12.977
14741W        W76030  38.822  33.403  14.814
14742W        W76031  33.494  44.325  14.463
14743W        W76032  41.394  26.505  12.415
14744W        W76033  18.163  40.923  10.486
14745W        W76034  29.077  24.487  13.995
14746W        W76035  33.426   5.287  14.444
14747W        W76036  36.549   6.867  12.511
14748W        W76037  37.545  12.769  10.016
14749W        W76038  11.356   0.808   0.898
14750W        W76039  22.172  21.085   4.621
14751W        W76040   9.173   5.377  12.501
14752W        W76041   5.408  25.604   2.403
14753W        W76042  33.453  16.208   1.383
14754W        W76043  36.970  18.593  11.998
14755W        W76044   0.918  31.504   0.750
14756W        W76045  22.084  16.665   0.962
14757W        W76046  19.686   2.907  14.508
14758W        W76047  41.989  41.368   1.346
14759W        W76048  43.843  11.149  10.532
14760W        W76049  17.591  39.038  14.304
14761W        W76050  40.351  40.430   1.792
14762W        W76051  41.790  25.624   0.821
14763W        W76052  35.501   2.931   0.776
14764W        W76053  21.596   6.369  14.936
14765W        W76054  41.370   0.887  13.879
14766W        W76055  42.979  44.438  11.458
14767W        W76056  25.497  29.141   4.179
14768W        W76057   6.771  20.603   1.219
14769W        W76058  17.241  44.457  12.458
14770W        W76059   4.829  32.456   0.464
14771W        W76060  40.023  37.988   0.328
14772W        W76061  30.120  43.789   1.766
14773W        W76062   2.720  29.643   3.194
14774W        W76063  11.240  19.258  11.950
14775W        W76064   7.746  23.088  14.002
14776W        W76065   1.280  29.436   0.445
14777W        W76066  16.714  32.114   2.303
14778W        W76067   9.315   3.348   4.705
14779W        W76068  23.174   0.342  14.462
14780W        W76069  38.896  32.906   1.837
14781W        W76070   9.736   2.314   2.349
14782W        W76071  24.150  38.351  10.599
14783W        W76072   8.160  26.663   3.224
14784W        W76073  11.228  18.730   4.351
14785W        W76074  24.994  43.941   4.739
14786W        W76075  16.669  10.319   4.343
14787W        W76076  28.568  12.643   2.872
14788W        W76077  27.115  20.188  12.956
14789W        W76078   9.252  12.648   3.847
14790W        W76079  25.094   7.879   0.925
14791W        W76080  42.395  27.000  13.877
14792W        W76081  42.427  39.488  11.128
14793W        W76082  16.662  36.026   1.231
14794W        W76083  25.110   4.319   0.479
14795W        W76084  20.650  39.541  10.542
14796W        W76085  10.824  15.256  12.449
14797W        W76086  31.518  39.492   1.798
14798W        W76087  35.505  35.925  13.911
14799W        W76088  23.159  23.531  13.867
14800W        W76089   3.710  39.355   4.771
14801W        W76090  25.577  12.331  12.905
14802W        W76091   1.299  12.331   1.720
14803W        W76092  12.801   9.259   1.703
14804W        W76093  29.490   8.361   9.587
14805W        W76094   8.378  16.224   1.429
14806W        W76095  24.004  21.654  12.877
14807W        W76096  44.992  10.367   4.173
14808W        W76097  32.454  19.559  11.925
14809W        W76098  40.899  43.280  10.409
14810W        W76099  28.654  10.750  11.882
14811W        W76100  37.919  28.157   3.677
14812W        W76101  10.344  14.794   1.361
14813W        W76102  41.881  40.936  11.580
14814W        W76103   3.401  10.791  14.901
14815W        W76104  33.889  27.133   1.812
14816W        W76105   2.743  12.261  13.852
14817W        W76106  40.417  29.647  12.056
14818W        W76107   0.336  22.203   0.270
14819W        W76108  19.255  30.984   2.259
14820W        W76109  29.944   2.398  11.902
14821W        W76110  14.211  32.037   4.627
14822W        W76111   5.284  33.007   2.782
14823W        W76112   8.686  24.084  13.033
14824W        W76113  40.043   3.384   1.869
14825W        W76114   2.304  36.419  11.948
14826W        W76115  39.950  33.533   3.783
14827W        W76116  41.010  23.703   2.345
14828W        W76117  32.618  22.503  13.500
14829W        W76118  23.594  22.578  14.004
14830W        W76119  30.111   4.395  12.992
14831W        W76120  41.474  40.041   4.313
14832W        W76121  22.243  43.422   4.304
14833W        W76122  36.404  38.527   3.715
14834W        W76123   8.264  18.105   1.716
14835W        W76124  25.967   6.340  10.947
14836W        W76125  41.303  37.002   3.770
14837W        W76126  32.447  22.036   2.728
14838W        W76127  19.227   6.203  12.553
14839W        W76128  18.728  31.998  12.555
14840W        W76129   7.416  14.310   5.304
14841W        W76130  44.400  40.858  12.981
14842W        W76131  14.227  16.621  11.884
14843W        W76132  14.733  26.124  12.510
14844W        W76133  37.420  18.056   3.237
14845W        W76134  18.779  17.647   2.889
14846W        W76135  17.248  28.025   3.344
14847W        W76136  34.370   6.686   0.343
14848W        W76137  39.895  32.588  14.010
14849W        W76138  29.941  17.731   3.691
14850W        W76139   9.214  22.550  14.449
14851W        W76140   1.472  34.497  11.078
14852W        W76141   3.248   9.743   0.821
14853W        W76142  20.183  26.637  10.073
14854W        W76143  29.461  37.850  13.924
14855W        W76144   5.934  23.234  13.459
14856W        W76145  39.062  21.676  13.508
14857W        W76146  12.703  42.900   2.848
14858W        W76147  28.158  25.605   0.926
14859W        W76148  38.367   0.792  10.589
14860W        W76149  34.089  27.545   2.180
14861W        W76150  10.851  23.532   3.638
14862W        W76151  14.184  31.957  14.469
14863W        W76152   8.387  29.435  12.399
14864W        W76153  29.965   8.784  10.055
14865W        W76154  43.919   9.318   0.938
14866W        W76155  28.938  43.944  12.351
14867W        W76156  10.323  22.609   1.415
14868W        W76157  41.831  40.349  13.446
14869W        W76158  40.311   6.362   5.102
14870W        W76159  18.137   3.256   4.207
14871W        W76160   1.479  42.943   2.812
14872W        W76161   2.844   3.304   0.755
14873W        W76162  15.302  22.635   3.167
14874W        W76163  16.080  23.187   0.425
14875W        W76164  19.258  38.849  10.498
14876W        W76165   0.912   2.430   2.286
14877W        W76166  35.439  19.276   5.756
14878W        W76167  41.456  11.236  11.051
14879W        W76168  30.588  13.146   0.752
14880W        W76169  36.959  28.093   3.183
14881W        W76170  22.161  12.791  13.454
14882W        W76171   3.276  44.868  13.937
14883W        W76172  25.049  37.981  13.332
14884W        W76173  38.333  14.181   0.752
14885W        W76174  40.469  16.586  14.023
14886W        W76175  15.154  33.545  10.443
14887W        W76176  41.892  27.173   4.284
14888W        W76177  19.653  15.668   3.669
14889W        W76178  44.802  16.125  14.989
14890W        W76179  11.636  44.385  13.916
14891W        W76180  19.567  32.443   4.805
14892W        W76181  23.520  29.080   4.116
14893W        W76182  41.470  25.168  14.361
14894W        W76183  16.679  33.383  10.483
14895W        W76184  20.647  31.927  11.566
14896W        W76185  21.646   5.238   3.822
14897W        W76186   5.780  12.845   2.864
14898W        W76187  11.731   5.908   0.808
14899W        W76188  13.810  33.952  13.446
14900W        W76189  44.297  30.551   1.803
14901W        W76190  35.550  35.993  10.443
14902W        W76191  42.890  14.768   2.811
14903W        W76192  24.658  37.579   3.634
14904W        W76193  35.010  39.862  12.437
14905W        W76194  10.669  29.554  12.438
14906W        W76195  34.085  22.738  13.012
14907W        W76196   9.850  15.782   4.640
14908W        W76197  22.011  32.066   2.722
14909W        W76198  39.480   4.945  10.567
14910W        W76199   5.883  40.405   3.765
14911W        W76200   3.448  38.428   3.702
14912W        W76201   8.847  22.529  13.362
14913W        W76202  44.908  26.080   2.714
14914W        W76203  43.916   9.209   2.787
14915W        W76204  23.230  22.534  12.067
14916W        W76205  37.896  28.130   4.272
14917W        W76206  40.395  21.202   4.126
14918W        W76207   3.866   0.829  14.284
14919W        W76208  35.361  15.234   1.251
14920W        W76209  31.897  24.016   1.765
14921W        W76210  12.786  30.962   3.267
14922W        W76211  40.813   7.322  13.396
14923W        W76212  10.380  32.062  14.885
14924W        W76213  10.744  22.514  10.115
14925W        W76214  28.074  27.028  13.513
14926W        W76215  10.378   6.732   1.821
14927W        W76216  23.553  12.813   2.668
14928W        W76217   1.352  40.827   1.399
14929W        W76218  21.072  40.336   4.641
14930W        W76219   9.711  16.184  10.506
14931W        W76220  24.067  16.754  11.540
14932W        W76221  18.726  37.943   3.317
14933W        W76222  36.871   1.852  14.883
14934W        W76223   6.269  25.496   5.151
14935W        W76224   6.229  28.623   2.828
14936W        W76225  44.921  14.327   2.343
14937W        W76226  36.050  17.292  12.397
14938W        W76227  28.045   9.645   2.326
14939W        W76228   5.380  36.898   4.614
14940W        W76229  11.138  16.196   1.820
14941W        W76230  20.204  26.536   0.908
14942W        W76231  24.216  28.661   1.785
14943W        W76232  42.526  23.997  13.934
14944W        W76233  37.341  20.087   3.729
14945W        W76234  27.106  32.962   0.954
14946W        W76235   1.381  39.457   2.247
14947W        W76236  13.831  15.090  13.791
14948W        W76237   7.198  40.331  14.290
14949W        W76238  25.591  21.154   5.217
14950W        W76239  25.218  35.060  10.907
14951W        W76240  35.522  15.773  13.053
14952W        W76241  34.569  37.390  14.408
14953W        W76242  24.500   0.885   3.166
14954W        W76243   8.896  21.604  11.927
14955W        W76244  14.259   1.404   4.145
14956W        W76245  31.949  43.478  13.960
14957W        W76246   3.304  29.923   3.773
14958W        W76247  40.475  24.113  12.512
14959W        W76248  43.794  15.086   2.203
14960W        W76249  35.395  28.931  12.426
14961W        W76250  36.586  17.653   3.300
14962W        W76251  23.075  27.104  13.973
14963W        W76252   5.799   4.770  14.490
14964W        W76253  24.519   9.839   1.433
14965W        W76254  34.879  27.542  11.129
14966W        W76255  39.432  44.809   1.411
14967W        W76256  29.593  14.608   3.674
14968W        W76257  20.633  27.176   1.709
14969W        W76258  15.580  27.613   1.448
14970W        W76259  20.538   6.339  10.891
14971W        W76260  10.203  28.511   4.272
14972W        W76261  43.509  24.131   4.258
14973W        W76262  42.456  25.218   0.945
14974W        W76263   3.275   0.830   1.904
14975W        W76264   6.764  41.387   4.702
14976W        W76265  44.946  15.646  11.988
14977W        W76266  30.525  15.291   0.745
14978W        W76267   6.919  42.930   2.804
14979W        W76268  30.569  16.155  11.887
14980W        W76269   3.458   1.880   0.258
14981W        W76270   6.268  43.966  12.851
14982W        W76271  24.983  31.127   3.234
14983W        W76272  31.626  41.383  11.566
14984W        W76273  21.704  23.733  12.479
14985W        W76274  29.936  18.118   1.882
14986W        W76275  36.024  36.971  10.473
14987W        W76276  10.691  36.918  13.960
14988W        W76277  36.438  26.133   4.301
14989W        W76278   8.663  37.892  11.408
14990W        W76279   2.429  29.488  14.343
14991W        W76280  23.564  43.354   1.317
14992W        W76281   4.328  37.039   1.856
14993W        W76282  40.543  27.603  14.353
14994W        W76283   5.381  26.097   3.328
14995W        W76284  34.062  40.053   1.338
14996W        W76285  38.908  10.696   1.843
14997W        W76286  36.394  22.103  11.076
14998W        W76287  35.366   8.287   1.393
14999W        W76288   0.782  27.954  12.376
15000W        W76289  17.155  10.793  11.071
15001W        W76290  11.210  14.169   0.401
15002W        W76291  27.057  41.293   3.798
15003W        W76292   9.247  28.134   1.902
15004W        W76293  22.518  38.834   4.835
15005W        W76294  27.038  13.169  13.981
15006W        W76295   6.299  14.132  11.956
15007W        W76296  37.503  10.149  10.563
15008W        W76297  13.279  16.220  11.038
15009W        W76298   1.883  32.067   4.332
15010W        W76299  34.494  37.527   2.419
15011W        W76300  24.105   8.215  10.636
15012W        W76301  18.633  43.480  10.535
15013W        W76302  36.484   4.396  12.487
15014W        W76303  19.700  24.561   0.902
15015W        W76304  28.170  34.396  10.072
15016W        W76305  38.496  38.987   4.279
15017W        W76306  31.065  29.593  12.067
15018W        W76307  41.431  26.090   4.821
15019W        W76308  43.503  29.576  12.397
15020W        W76309  17.743  20.645   3.778
15021W        W76310  35.885   8.358   3.317
15022W        W76311  15.604  19.667   4.706
15023W        W76312  38.010  22.678   4.304
15024W        W76313  37.858  14.159  11.885
15025W        W76314   5.886  23.719   2.709
15026W        W76315  41.006   3.276  14.500
15027W        W76316  23.517  37.401   2.233
15028W        W76317  20.149   8.309   2.820
15029W        W76318  11.149  11.737  13.873
15030W        W76319  16.137  44.858  13.801
15031W        W76320  41.306  10.261  10.545
15032W        W76321  25.483  29.437   4.257
15033W        W76322   0.251  10.259  14.871
15034W        W76323  23.138  23.495  12.947
15035W        W76324  34.426  34.894  13.324
15036W        W76325  12.668   1.462  14.026
15037W        W76326  21.563   3.875  11.400
15038W        W76327   9.364  24.178  11.970
15039W        W76328  27.071  24.072   3.655
15040W        W76329  18.765  36.539   0.327
15041W        W76330  16.093  37.038  13.030
15042W        W76331  18.782   0.865  14.977
15043W        W76332  25.085  40.385  10.483
15044W        W76333   2.916  16.176   3.197
15045W        W76334  11.295   7.891  10.600
15046W        W76335   8.231  11.281  12.398
15047W        W76336  13.778  41.043  12.440
15048W        W76337  23.670  16.204   3.777
15049W        W76338  23.709   6.187   2.676
15050W        W76339  22.092  19.223  14.337
15051W        W76340  10.840  27.064   4.695
15052W        W76341  36.428  28.513   1.340
15053W        W76342  11.346  23.048   0.395
15054W        W76343  32.507  38.039  13.450
15055W        W76344  22.142  29.955   0.396
15056W        W76345  23.132   7.810  13.850
15057W        W76346   9.304  19.553   1.761
15058W        W76347  27.464   3.954   1.739
15059W        W76348  15.107  22.067   4.810
15060W        W76349   7.287  16.785   0.814
15061W        W76350  33.502  31.472  14.502
15062W        W76351  21.524  19.546  12.944
15063W        W76352  32.406  40.884   4.708
15064W        W76353  20.085  10.276  12.999
15065W        W76354  15.117  29.621   1.709
15066W        W76355   9.292  41.876  14.480
15067W        W76356  11.789  13.708   4.140
15068W        W76357  31.116  19.756   1.448
15069W        W76358  34.530  44.760  14.421
15070W        W76359   6.789  24.546  12.069
15071W        W76360   2.869  35.570  14.347
15072W        W76361   6.358  38.517   3.845
15073W        W76362   1.945  13.274   4.728
15074W        W76363  12.157  17.609   3.644
15075W        W76364  38.068  31.071   2.701
15076W        W76365  36.540  18.681   2.234
15077W        W76366  25.709  28.047   3.375
15078W        W76367   3.907   9.741  11.583
15079W        W76368   8.228   1.357  14.280
15080W        W76369   6.184   7.364  14.327
15081W        W76370   6.775  14.229  11.580
15082W        W76371   2.452  29.556   1.427
15083W        W76372   2.471  28.087  14.326
15084W        W76373  16.104  17.658   0.815
15085W        W76374  12.300  13.340   1.850
15086W        W76375   8.386   2.447  10.591
15087W        W76376   5.735   2.396  14.767
15088W        W76377   1.808  27.670  12.047
15089W        W76378  15.676   0.434   0.739
15090W        W76379   3.718  33.059  10.627
15091W        W76380  25.052  14.133  10.454
15092W        W76381  10.651  11.834  12.083
15093W        W76382   7.828  42.001  10.514
15094W        W76383   7.814  40.415  14.490
15095W        W76384  30.910   9.239   0.933
15096W        W76385   9.361  34.376   1.869
15097W        W76386  26.642  25.474   0.780
15098W        W76387  11.761  44.391  11.080
15099W        W76388  38.842  32.916  11.532
15100W        W76389  14.629  11.633   0.834
15101W        W76390  31.511   3.794  13.467
15102W        W76391  20.254  38.915  10.483
15103W        W76392  16.255  26.613  10.515
15104W        W76393  23.706  11.300   4.212
15105W        W76394  24.631   9.834   1.771
15106W        W76395  29.492  43.782  14.775
15107W        W76396  18.705   6.823   0.303
15108W        W76397  19.127  12.806  13.845
15109W        W76398  35.491   4.249  10.564
15110W        W76399  35.881  14.312  14.955
15111W        W76400  42.312   5.336   0.909
15112W        W76401   0.326  44.325  10.620
15113W        W76402   8.287  28.489   1.369
15114W        W76403  39.949   0.985  13.917
15115W        W76404  26.471  31.010   0.727
15116W        W76405  44.952  14.187  13.968
15117W        W76406  42.937   1.398   0.955
15118W        W76407   5.283  20.243  11.524
15119W        W76408   5.303  30.437  14.797
15120W        W76409  14.228  16.800  12.454
15121W        W76410   8.259  39.991  14.889
15122W        W76411   8.188  25.049   3.656
15123W        W76412  39.501  24.561   3.154
15124W        W76413  18.230   7.303  10.595
15125W        W76414  43.359  27.599   1.348
15126W        W76415   6.789  43.921   1.432
15127W        W76416  12.280   4.790   4.733
15128W        W76417  32.900  17.219  13.320
15129W        W76418   5.260  25.023   5.639
15130W        W76419   9.243   8.750  11.591
15131W        W76420  13.609  34.409   4.773
15132W        W76421   1.865  41.448  11.082
15133W        W76422  37.069  39.343  11.074
15134W        W76423   8.716  37.062  14.913
15135W        W76424  13.626  28.587   4.801
15136W        W76425  27.039  26.124  12.542
15137W        W76426  27.105  32.612   3.241
15138W        W76427  12.788   3.947   4.118
15139W        W76428  15.813  32.511   5.198
15140W        W76429  21.097  43.283   0.818
15141W        W76430  15.761  43.867   0.290
15142W        W76431  17.066  13.602  10.972
15143W        W76432  32.966  34.392   4.678
15144W        W76433  30.010  22.158  14.969
15145W        W76434  14.294  26.114  14.379
15146W        W76435  41.838  28.939  12.559
15147W        W76436  26.165  19.713   4.310
15148W        W76437   8.792   0.391   3.870
15149W        W76438  10.278  33.609  12.350
15150W        W76439  16.176  42.966  13.322
15151W        W76440  39.439   0.274   0.262
15152W        W76441  10.794  21.703   3.843
15153W        W76442  18.737  40.457   2.772
15154W        W76443  32.619  20.603   1.215
15155W        W76444  25.018  16.131   3.250
15156W        W76445  39.007  41.477   0.916
15157W        W76446  33.563  20.217  13.481
15158W        W76447  19.163  40.053  10.516
15159W        W76448  42.841  41.803  14.504
15160W        W76449  15.286  35.438   3.170
15161W        W76450  21.541  18.607  10.498
15162W        W76451  40.497  13.290  11.438
15163W        W76452   9.697  32.573  11.600
15164W        W76453  32.585  22.230  14.966
15165W        W76454  40.865  19.764   2.878
15166W        W76455  43.789  37.455  12.934
15167W        W76456  37.384  34.885  13.016
15168W        W76457  21.656  16.098   2.792
15169W        W76458  39.843  28.488  12.006
15170W        W76459  28.169  19.126  14.292
15171W        W76460   2.236   1.915   2.764
15172W        W76461   0.472  10.281   5.182
15173W        W76462  33.588  34.510  13.884
15174W        W76463   2.884  15.173   2.222
15175W        W76464  33.567  34.019  14.965
15176W        W76465   5.880  11.725   3.679
15177W        W76466  18.678  28.078   5.084
15178W        W76467   6.342  31.442   1.248
15179W        W76468   5.698  16.278  10.895
15180W        W76469  28.942  29.147  14.440
15181W        W76470  41.797  42.852   9.984
15182W        W76471  31.481  13.755  13.800
15183W        W76472   8.721  21.557   3.363
15184W        W76473  10.327  41.426  10.929
15185W        W76474  29.584  30.907  12.836
15186W        W76475  39.889  17.744   0.372
15187W        W76476  43.330  31.409   1.778
15188W        W76477  13.136  12.165   4.288
15189W        W76478  40.989  31.139   2.202
15190W        W76479  37.582  41.882  11.415
15191W        W76480  34.544  19.606  12.860
15192W        W76481  32.076  37.845   0.866
15193W        W76482  39.471  13.838   1.274
15194W        W76483   8.211  26.085   0.249
15195W        W76484  42.981  21.176   0.944
15196W        W76485  44.463  11.271   2.206
15197W        W76486  21.647  12.743  14.455
15198W        W76487   6.719  31.957   4.333
15199W        W76488  36.047   7.260  12.476
15200W        W76489  31.567   8.886  14.794
15201W        W76490  16.276  33.948   2.738
15202W        W76491  33.041   3.428  12.894
15203W        W76492   2.406  26.476   3.650
15204W        W76493  42.400   1.454   1.248
15205W        W76494   7.270  30.484  13.812
15206W        W76495  11.777  36.009  13.975
15207W        W76496  36.467  34.977  12.950
15208W        W76497   9.886  42.789   3.276
15209W        W76498  44.773  44.331   4.297
15210W        W76499  21.240  14.745   2.820
15211W        W76500  31.474  18.120   3.250
15212W        W76501  16.297   4.361  10.609
15213W        W76502   8.715  26.049  12.852
15214W        W76503  25.608  20.159   4.647
15215W        W76504   3.450  32.016   3.216
15216W        W76505  32.411  16.711   1.844
15217W        W76506  26.100   2.817   1.267
15218W        W76507   1.447  31.619   4.313
15219W        W76508  21.206   1.742  11.061
15220W        W76509   8.773   8.322  14.413
15221W        W76510  44.437  30.469   3.735
15222W        W76511  27.965  32.505  13.812
15223W        W76512   6.797  18.784   3.802
15224W        W76513  44.976  10.223   1.270
15225W        W76514   0.303  22.604  12.505
15226W        W76515   9.178  27.615  13.394
15227W        W76516   8.792  29.996   2.419
15228W        W76517  11.134  32.434   0.415
15229W        W76518  30.473  26.130   2.240
15230W        W76519  33.067  37.526   4.801
15231W        W76520  35.013  29.988   0.736
15232W        W76521  44.492  15.702  10.490
15233W        W76522   5.782  22.023  12.374
15234W        W76523  34.075  39.904  13.870
15235W        W76524   2.227  13.124  10.569
15236W        W76525  37.040  11.798  11.915
15237W        W76526  11.778  34.909   1.899
15238W        W76527  33.536  25.560   4.170
15239W        W76528  20.195  31.975   0.339
15240W        W76529  29.988   9.297   1.364
15241W        W76530  38.377  39.024   2.880
15242W        W76531   0.367  18.695   4.793
15243W        W76532  29.001  42.890   3.277
15244W        W76533  32.036  19.569   3.380
15245W        W76534  13.294  29.473   2.821
15246W        W76535  31.985  31.414   2.188
15247W        W76536  42.853   0.356   0.312
15248W        W76537  29.542  23.605   3.305
15249W        W76538   8.853   8.838  11.452
15250W        W76539   2.458  36.090   5.109
15251W        W76540   5.904  43.008  14.787
15252W        W76541  16.768  37.031   4.339
15253W        W76542   4.418  15.229   2.294
15254W        W76543   7.347   4.303  14.010
15255W        W76544  32.909  17.281  12.417
15256W        W76545  43.329  22.234   2.299
15257W        W76546   1.249  24.615   4.834
15258W        W76547  33.584   0.491  12.390
15259W        W76548  29.478  12.223  12.448
15260W        W76549  13.108  24.990  12.852
15261W        W76550  40.944  30.548   0.410
15262W        W76551  24.675  16.667  11.541
15263W        W76552  42.945  24.024   1.805
15264W        W76553   2.330  24.979   3.696
15265W        W76554  39.840  31.405  11.987
15266W        W76555  26.675   3.268   4.794
15267W        W76556  13.216   7.317   0.811
15268W        W76557  16.187  21.128  13.466
15269W        W76558   0.276  15.272  12.421
15270W        W76559  11.296  24.114  13.889
15271W        W76560   3.756   8.356  13.322
15272W        W76561  35.034  37.085   2.822
15273W        W76562  33.502  14.703  10.922
15274W        W76563  16.300   9.709   1.411
15275W        W76564  15.584  18.643   4.190
15276W        W76565  40.442  21.749  10.984
15277W        W76566   7.813  35.362   2.670
15278W        W76567   1.456  37.032   3.740
15279W        W76568  32.082  33.538   5.318
15280W        W76569  36.056  13.801   2.852
15281W        W76570  28.001  36.577  13.405
15282W        W76571  37.023  34.091   1.924
15283W        W76572  18.295   2.442   0.428
15284W        W76573  26.956  15.622   3.379
15285W        W76574  17.275  38.428  14.890
15286W        W76575  12.778  40.403  12.053
15287W        W76576   4.428   3.885  13.010
15288W        W76577   4.447  18.699   4.169
15289W        W76578  28.669   4.768  13.493
15290W        W76579  10.177  35.373   4.642
15291W        W76580  41.375  41.469  12.563
15292W        W76581   6.275  44.400   4.306
15293W        W76582  25.478  19.264   5.302
15294W        W76583  22.687  43.328  14.879
15295W        W76584  17.555  30.932   0.826
15296W        W76585  32.892   4.215  14.799
15297W        W76586  43.434   5.779   2.240
15298W        W76587  12.160  14.180  13.414
15299W        W76588  27.193   8.890  13.932
15300W        W76589  32.112   1.775   2.852
15301W        W76590  28.613  26.123   0.731
15302W        W76591   8.178  13.155  11.034
15303W        W76592   4.274   8.830   4.655
15304W        W76593   1.933  34.942  12.541
15305W        W76594  26.003  22.144  12.557
15306W        W76595  17.180  34.414  13.519
15307W        W76596   3.833  42.936  14.803
15308W        W76597  33.918  34.387   1.225
15309W        W76598  43.488  10.808  12.021
15310W        W76599  21.145   4.215   3.212
15311W        W76600  15.310  23.105   5.292
15312W        W76601  17.298   6.294  12.957
15313W        W76602   4.235  36.481   4.781
15314W        W76603   5.806  20.667   0.811
15315W        W76604  17.235  31.069  12.560
15316W        W76605   7.728   2.306  10.980
15317W        W76606   8.227  44.830  10.887
15318W        W76607  24.981  26.579  12.917
15319W        W76608  24.522  10.752   4.703
15320W        W76609   7.417  31.581   1.414
15321W        W76610   3.749  33.082  14.803
15322W        W76611  25.999  30.931   1.758
15323W        W76612  22.153  19.771   1.274
15324W        W76613  41.997   2.723   0.442
15325W        W76614  29.012  12.346   0.259
15326W        W76615  13.214  20.137  14.761
15327W        W76616  23.020  13.244   2.878
15328W        W76617   2.766  31.055   0.259
15329W        W76618  23.641  39.813  14.474
15330W        W76619   4.406  35.373  13.959
15331W        W76620  44.818  26.118   1.717
15332W        W76621  16.601  14.834   4.665
15333W        W76622  31.945   8.782   2.789
15334W        W76623  27.961  17.566   4.760
15335W        W76624  16.260  34.902   0.875
15336W        W76625  13.312  37.066   4.724
15337W        W76626  25.522  17.573  11.497
15338W        W76627  31.110  41.925  13.061
15339W        W76628  34.074  28.466  11.502
15340W        W76629  35.941  22.178  14.381
15341W        W76630  32.500  25.098  14.859
15342W        W76631  14.664  18.677  10.034
15343W        W76632  36.418   1.969   2.328
15344W        W76633  29.081  22.657  14.419
15345W        W76634   2.347  22.610   4.619
15346W        W76635   9.748  24.044   9.978
15347W        W76636  15.220   1.384   3.265
15348W        W76637  25.502  41.922   2.765
15349W        W76638  27.996   0.970   0.423
15350W        W76639  32.620  39.398   3.246
15351W        W76640  36.042  31.940  11.010
15352W        W76641  26.157  40.358   0.765
15353W        W76642  31.060  38.009   4.234
15354W        W76643  23.038  17.679   2.714
15355W        W76644  42.414  21.712  12.985
15356W        W76645  27.090  44.833   0.400
15357W        W76646  31.977  12.759   1.729
15358W        W76647  38.570  15.794   4.597
15359W        W76648   2.245   2.242   2.885
15360W        W76649   3.807  43.351  10.450
15361W        W76650  18.567  12.307  14.309
15362W        W76651  23.559   4.427  14.425
15363W        W76652   4.779  35.866   0.870
15364W        W76653  26.504  36.566  12.869
15365W        W76654  31.909   6.341   3.156
15366W        W76655  42.433  12.779   4.151
15367W        W76656  36.866  25.181  14.830
15368W        W76657  31.124  25.067   1.261
15369W        W76658  34.964  30.422   2.195
15370W        W76659   8.377  29.664   4.237
15371W        W76660  42.485  15.716   1.834
15372W        W76661  16.138  39.887  12.374
15373W        W76662  11.144   1.340   2.279
15374W        W76663   0.310   3.828  12.966
15375W        W76664  18.606  17.271  12.408
15376W        W76665   0.979   8.311  12.516
15377W        W76666  13.684   5.377   1.285
15378W        W76667  37.447  28.964   0.452
15379W        W76668  39.528  44.484   3.767
15380W        W76669   5.314  43.792  13.341
15381W        W76670  26.568  26.470   3.671
15382W        W76671   2.955  16.228   1.312
15383W        W76672  36.437  20.702   2.329
15384W        W76673   4.254  19.546   4.178
15385W        W76674  10.821  13.822  10.975
15386W        W76675  33.907  37.414  12.910
15387W        W76676  25.572   1.753  11.942
15388W        W76677   9.709   2.453  11.085
15389W        W76678  42.831  34.867  14.309
15390W        W76679   1.825  13.213   3.727
15391W        W76680  25.530  37.376  14.345
15392W        W76681   9.725  44.823   3.651
15393W        W76682  12.655  43.507   2.807
15394W        W76683  12.762   3.273   5.254
15395W        W76684  19.572  44.874   4.699
15396W        W76685  28.544  28.459   0.931
15397W        W76686  43.460   9.381   0.313
15398W        W76687  22.646  24.098  12.900
15399W        W76688  13.213  31.934  11.009
15400W        W76689   0.765  16.145  12.553
15401W        W76690  32.992   8.898   3.195
15402W        W76691  31.141   5.767  13.834
15403W        W76692  35.504   4.401  10.976
15404W        W76693   9.272  44.891   4.718
15405W        W76694   7.183   6.393  13.433
15406W        W76695  34.996  35.093   2.840
15407W        W76696  19.280  30.539   3.649
15408W        W76697  34.873   1.391  13.464
15409W        W76698  30.000   1.338   2.276
15410W        W76699   5.259  26.665  13.988
15411W        W76700  38.854  41.320  14.850
15412W        W76701  12.829  30.007   3.776
15413W        W76702  28.982  27.681  10.605
15414W        W76703  26.524   0.467   3.189
15415W        W76704  12.177   8.321   2.845
15416W        W76705  24.994   8.701  10.096
15417W        W76706  24.135  18.257   1.441
15418W        W76707  11.658   2.821  12.403
15419W        W76708  41.023  20.196  11.017
15420W        W76709  19.252  34.543   1.815
15421W        W76710  19.087  28.516  14.301
15422W        W76711  23.643  29.022   2.746
15423W        W76712   8.785  38.391   3.152
15424W        W76713  37.412  39.836   0.254
15425W        W76714   8.860  42.345  10.996
15426W        W76715  15.708   9.161  11.990
15427W        W76716  31.581  26.050  14.028
15428W        W76717  39.545  37.015  10.481
15429W        W76718   0.953  21.046  11.119
15430W        W76719  16.579  19.697   2.850
15431W        W76720  15.801  22.165   0.800
15432W        W76721   1.855  43.420   0.953
15433W        W76722  16.216  41.382   5.778
15434W        W76723  22.536  35.435  14.865
15435W        W76724  32.634  11.637   3.378
15436W        W76725   6.781  28.023  11.611
15437W        W76726  35.435  41.307   2.246
15438W        W76727  38.476  30.927  14.377
15439W        W76728  41.312  28.522  13.819
15440W        W76729  28.981  27.130  11.884
15441W        W76730  33.967  36.910  10.993
15442W        W76731  20.128   7.222   4.228
15443W        W76732  21.728  11.826  13.442
15444W        W76733  28.649  15.801  14.828
15445W        W76734  37.905  42.449   3.757
15446W        W76735  25.196   0.457   0.886
15447W        W76736  21.165  26.498   5.129
15448W        W76737   8.883  31.014  14.838
15449W        W76738  38.509   0.350   3.168
15450W        W76739  41.396  38.055   2.849
15451W        W76740   8.201  26.010  11.000
15452W        W76741  29.175  12.658   3.812
15453W        W76742   3.730  19.208  12.478
15454W        W76743  22.603  29.515  10.599
15455W        W76744  33.984  25.635   3.678
15456W        W76745   1.392  24.591   0.376
15457W        W76746  15.749  15.677  14.778
15458W        W76747  19.626   9.805   3.343
15459W        W76748   6.701   5.765   1.874
15460W        W76749  16.176  24.496   1.437
15461W        W76750  10.674   6.863  13.984
15462W        W76751  28.653  21.245   0.432
15463W        W76752   0.761   8.219   1.865
15464W        W76753  27.095  42.325  14.823
15465W        W76754  22.504  36.362  13.331
15466W        W76755  33.442   1.345  12.543
15467W        W76756   4.324   3.872   0.288
15468W        W76757  11.248  39.869  13.490
15469W        W76758  29.588  42.903  13.802
15470W        W76759  35.854  25.974  14.349
15471W        W76760  24.062  41.024  12.007
15472W        W76761  19.264  35.433   1.759
15473W        W76762  22.738  31.925   0.930
15474W        W76763  32.593  24.555   0.726
15475W        W76764  32.621  33.038  12.093
15476W        W76765  31.900  15.626  13.875
15477W        W76766   9.766   7.700  10.408
15478W        W76767  33.601  34.451  11.597
15479W        W76768  38.960  12.683  14.499
15480W        W76769  15.689  33.565   4.713
15481W        W76770  13.599  24.537  12.981
15482W        W76771  19.202  30.449  14.843
15483W        W76772  14.126  41.843  10.033
15484W        W76773  18.144  39.900   4.773
15485W        W76774  21.519  11.324   4.661
15486W        W76775  13.674  44.829   4.644
15487W        W76776  18.247  14.597  10.889
15488W        W76777  33.108  33.579   4.653
15489W        W76778   2.923  15.184  10.521
15490W        W76779   7.339  31.499   2.201
15491W        W76780  25.001  40.918  14.509
15492W        W76781   4.815  42.792   5.183
15493W        W76782  41.898  20.706   3.729
15494W        W76783  41.464  42.861  10.437
15495W        W76784  28.673  31.588   0.896
15496W        W76785   0.492  10.185  11.550
15497W        W76786  23.140   8.790  14.983
15498W        W76787  43.911  34.426   2.308
15499W        W76788  19.616  14.232   1.821
15500W        W76789  14.254  26.659   0.883
15501W        W76790  44.871   5.911   1.311
15502W        W76791   6.689  17.602   3.748
15503W        W76792  15.631  39.060   5.232
15504W        W76793   9.745   3.798   2.815
15505W        W76794  40.544  26.595  14.387
15506W        W76795  24.687  14.297   0.962
15507W        W76796   9.698  44.261  14.976
15508W        W76797  12.620  44.922   2.253
15509W        W76798  38.075   8.167   0.245
15510W        W76799  35.438  38.515  14.892
15511W        W76800  17.770  23.520  14.832
15512W        W76801   3.252   8.161  14.995
15513W        W76802  27.604  34.443   1.248
15514W        W76803   7.752   6.244   2.767
15515W        W76804  12.301  27.054   0.856
15516W        W76805  29.530  30.052   0.893
15517W        W76806  40.030  11.813   0.738
15518W        W76807  39.938  37.545  14.337
15519W        W76808  30.928  28.133   0.360
15520W        W76809  23.613  17.801  11.475
15521W        W76810  34.964  39.972  11.547
15522W        W76811  21.704  19.149   3.193
15523W        W76812   9.372  30.141  13.489
15524W        W76813  17.230  26.573   2.684
15525W        W76814  16.280  13.816  13.883
15526W        W76815   2.732   6.223   1.224
15527W        W76816  40.519  40.917   1.903
15528W        W76817  18.763   9.729  12.046
15529W        W76818  40.875   2.840   2.865
15530W        W76819  21.585  40.425   3.824
15531W        W76820  33.519  19.134  10.556
15532W        W76821  26.976  14.183   4.662
15533W        W76822   0.455   8.254  14.931
15534W        W76823  35.956  29.630  13.955
15535W        W76824  39.507   2.381   1.406
15536W        W76825  21.147  38.440   0.757
15537W        W76826   3.259   4.862  11.858
15538W        W76827  28.058   5.845  13.974
15539W        W76828  30.659  42.958   1.869
15540W        W76829  26.207  10.820   0.376
15541W        W76830   1.394  34.393  13.395
15542W        W76831   6.364   1.897  14.425
15543W        W76832  44.846  24.073  11.553
15544W        W76833  36.396  17.789   5.796
15545W        W76834  29.065  39.039  12.411
15546W        W76835  26.084   9.189  13.466
15547W        W76836  38.964  30.042   3.171
15548W        W76837  30.457  43.852  11.468
15549W        W76838  25.030  35.590   4.746
15550W        W76839  42.024  25.602  14.349
15551W        W76840   5.373  20.748   2.381
15552W        W76841  40.367  33.626  13.515
15553W        W76842  26.169   2.338  10.988
15554W        W76843   6.884   6.713   0.347
15555W        W76844  18.599  29.947  11.474
15556W        W76845  10.161  38.922   4.734
15557W        W76846   3.339  33.381   1.432
15558W        W76847  21.545   4.363  10.515
15559W        W76848  13.774   9.211  14.806
15560W        W76849  30.079  16.239   1.285
15561W        W76850  25.518   9.838  10.547
15562W        W76851   8.362   8.232   2.330
15563W        W76852  43.991  42.285   1.694
15564W        W76853  27.682  15.792  14.897
15565W        W76854  25.714  43.470  11.571
15566W        W76855  12.849  21.179  11.583
15567W        W76856   9.285  25.209   4.319
15568W        W76857  36.462  26.544  12.019
15569W        W76858  29.626   4.783   0.907
15570W        W76859  19.636  18.213   4.325
15571W        W76860  22.244   8.232  14.857
15572W        W76861  12.125   2.894  13.430
15573W        W76862  24.514  15.233  10.896
15574W        W76863  12.703  33.992   4.304
15575W        W76864  36.073  22.013  12.007
15576W        W76865  37.937  16.098   2.880
15577W        W76866   3.755  27.110  11.402
15578W        W76867   9.264  33.892   5.151
15579W        W76868  37.013   2.943   0.398
15580W        W76869  30.602   9.308  12.380
15581W        W76870   0.459   8.384   1.711
15582W        W76871   7.844  36.007   1.900
15583W        W76872  21.036  17.583   4.793
15584W        W76873  18.626   4.373   2.236
15585W        W76874  36.844  37.536  13.438
15586W        W76875  13.271  39.453   3.245
15587W        W76876  42.925  24.611  12.390
15588W        W76877   2.310  31.963   0.750
15589W        W76878  44.372  21.182   2.308
15590W        W76879  14.195   1.402   2.272
15591W        W76880  19.096   0.261  11.974
15592W        W76881  22.210  38.435  12.853
15593W        W76882  29.534   2.256  14.491
15594W        W76883  39.848  29.954  14.331
15595W        W76884  23.610  41.404   2.324
15596W        W76885  20.099  18.774  13.440
15597W        W76886  44.407  22.739  11.401
15598W        W76887   7.297  20.570  14.937
15599W        W76888  12.659  32.419   2.337
15600W        W76889  34.602  19.126   0.933
15601W        W76890  12.154  33.426   0.373
15602W        W76891   3.242  40.945   2.248
15603W        W76892   7.288  37.550  11.974
15604W        W76893  22.113  40.525  14.993
15605W        W76894  14.803   0.798   9.966
15606W        W76895   0.866  22.556   4.689
15607W        W76896  30.100  36.939   3.251
15608W        W76897   2.287  43.929   3.242
15609W        W76898   4.802  36.502  11.474
15610W        W76899  40.323  39.997   3.213
15611W        W76900  41.395  23.175  10.549
15612W        W76901  39.519  42.428   2.281
15613W        W76902   9.684  17.794   1.215
15614W        W76903   3.743  34.050  14.873
15615W        W76904  26.634  22.216   2.844
15616W        W76905  11.827   7.892   5.153
15617W        W76906   0.790  16.650  13.371
15618W        W76907  23.519  32.022  12.489
15619W        W76908  35.886  35.924   2.229
15620W        W76909  28.012  42.342   0.250
15621W        W76910  15.644  27.945   5.215
15622W        W76911  13.298  41.799  13.053
15623W        W76912  21.162  43.951  12.414
15624W        W76913  22.627  11.293  14.817
15625W        W76914  34.580   3.233  11.487
15626W        W76915  15.722  23.105   0.761
15627W        W76916   8.205  43.320   3.375
15628W        W76917   5.239  22.232  10.888
15629W        W76918  32.911  36.501   2.330
15630W        W76919  36.420   5.345  13.921
15631W        W76920  38.348  41.036  10.928
15632W        W76921  31.111  38.999  11.013
15633W        W76922  33.891  10.324   0.476
15634W        W76923  32.913  38.434   0.914
15635W        W76924  40.920  32.420  13.339
15636W        W76925   0.293  38.451   1.704
15637W        W76926  30.656  19.753  12.008
15638W        W76927  43.851  40.857   1.698
15639W        W76928  11.349  22.050  10.965
15640W        W76929  24.722  32.574  10.540
15641W        W76930  36.450  23.090  14.329
15642W        W76931  42.446  23.206   0.274
15643W        W76932   2.892  16.786  14.028
15644W        W76933  26.500  36.555   4.207
15645W        W76934   3.394   6.377  13.958
15646W        W76935   0.843  35.885   2.245
15647W        W76936   2.731   3.227  13.998
15648W        W76937  25.021  33.503   2.179
15649W        W76938  38.480   4.745  11.384
15650W        W76939   4.266  19.559  12.554
15651W        W76940   0.314  39.860   1.918
15652W        W76941  12.795   6.314   1.711
15653W        W76942  36.430  37.040  10.602
15654W        W76943   8.804  35.863  10.560
15655W        W76944   5.814   3.247  13.063
15656W        W76945  18.113  21.078   2.893
15657W        W76946  25.547   0.462  12.909
15658W        W76947  31.531  35.010  14.453
15659W        W76948   7.182  23.560  12.981
15660W        W76949  40.897   6.692   0.482
15661W        W76950  19.686   9.651  13.833
15662W        W76951  40.404   0.906   1.326
15663W        W76952  35.958  16.251  12.996
15664W        W76953  21.227   2.963   3.308
15665W        W76954   4.376  33.910  14.999
15666W        W76955  25.971  15.745   4.325
15667W        W76956  16.277  38.835  14.937
15668W        W76957  31.987   7.262   2.770
15669W        W76958  36.529  39.831   0.886
15670W        W76959   8.693  39.044  10.574
15671W        W76960  17.161  27.153  13.847
15672W        W76961  16.582  11.168  11.075
15673W        W76962  20.587  28.547  13.468
15674W        W76963  15.165  28.986   2.225
15675W        W76964   4.371  24.638   0.730
15676W        W76965  27.572  36.482  11.911
15677W        W76966  16.757  14.642   3.304
15678W        W76967  35.015  20.595   3.367
15679W        W76968  10.840  42.932   3.339
15680W        W76969  12.618  30.535   0.423
15681W        W76970   5.914  39.939  13.862
15682W        W76971  28.048  34.556   5.243
15683W        W76972  43.872  16.772  12.977
15684W        W76973  32.026   8.398   4.146
15685W        W76974  27.103  26.106   0.757
15686W        W76975  13.751  44.962   1.700
15687W        W76976  27.639  22.702  14.967
15688W        W76977  11.295   4.337  12.997
15689W        W76978  35.542  36.933  14.844
15690W        W76979  11.687  13.742   0.324
15691W        W76980  28.522  38.521   3.840
15692W        W76981  40.845  18.057  13.906
15693W        W76982  32.093  14.163  13.404
15694W        W76983   1.771  44.305  14.423
15695W        W76984  40.020   6.216   2.736
15696W        W76985  16.311  36.984   9.530
15697W        W76986   9.241  22.064   2.719
15698W        W76987   5.315  34.080  11.014
15699W        W76988   1.325  28.949   0.470
15700W        W76989  24.484  26.619   0.893
15701W        W76990  23.711  12.782  14.010
15702W        W76991   7.855  24.009   1.440
15703W        W76992   9.370  14.222   1.253
15704W        W76993  31.049   2.283  13.396
15705W        W76994  18.766  29.032  12.823
15706W        W76995  35.397  17.077  10.128
15707W        W76996  33.895  34.000   1.801
15708W        W76997   9.298  31.549   0.334
15709W        W76998  24.201  32.112   2.844
15710W        W76999  43.434  10.192   5.649
15711W        W77000  30.480   5.339  11.573
15712W        W77001  37.930  21.211  12.946
15713W        W77002  40.429   2.319  13.449
15714W        W77003   0.765  37.490   2.806
15715W        W77004  34.500   4.885   0.751
15716W        W77005  36.440  39.952  14.479
15717W        W77006  14.281   0.401  10.050
15718W        W77007  42.346  25.512   2.793
15719W        W77008  43.434  30.053  14.951
15720W        W77009  20.145  38.011   2.759
15721W        W77010  34.398  19.119  11.078
15722W        W77011  40.435  36.420   4.691
15723W        W77012  37.969  10.681  12.916
15724W        W77013  27.494   2.912   2.672
15725W        W77014   7.257  27.941  13.391
15726W        W77015  34.471  19.622  11.547
15727W        W77016  37.934  13.822  13.997
15728W        W77017  24.545  41.414   0.795
15729W        W77018  30.983  30.431   1.819
15730W        W77019  11.694  36.480   1.281
15731W        W77020   9.337  19.681  14.392
15732W        W77021  34.946  12.639  13.058
15733W        W77022  35.455  17.705   4.347
15734W        W77023  21.731  37.344   1.257
15735W        W77024  27.498  22.200   0.472
15736W        W77025  32.622  30.553  11.505
15737W        W77026  39.362  23.071   4.824
15738W        W77027  43.452  39.052   9.975
15739W        W77028  39.947  26.120  12.048
15740W        W77029   2.241  25.085  12.392
15741W        W77030  39.820  19.107   1.744
15742W        W77031   0.800  22.186   3.871
15743W        W77032  14.649  11.170   2.870
15744W        W77033  23.644  23.652  12.486
15745W        W77034  32.990   0.425   4.654
15746W        W77035  23.583  32.026  10.968
15747W        W77036  30.573  18.289  12.854
15748W        W77037  23.609   1.863   2.729
15749W        W77038  17.129  31.632   3.328
15750W        W77039  37.348   5.843   2.781
15751W        W77040  30.922  17.801   2.388
15752W        W77041  22.128  21.097   3.839
15753W        W77042  21.678  43.466   0.351
15754W        W77043  40.021  18.755  11.404
15755W        W77044   3.951  27.595  11.427
15756W        W77045  26.555  31.499  13.446
15757W        W77046  16.635  22.685   4.788
15758W        W77047  27.530  34.397   4.202
15759W        W77048  21.249  34.614  10.901
15760W        W77049  23.517  29.046   1.392
15761W        W77050  36.560  16.606  12.836
15762W        W77051  27.086   6.809  11.956
15763W        W77052  22.148  34.494   0.794
15764W        W77053  12.620   9.179  12.948
15765W        W77054  37.001  27.177   1.214
15766W        W77055  28.629  44.500   3.845
15767W        W77056  44.005   1.283  11.053
15768W        W77057  12.672  11.739  14.946
15769W        W77058  29.543  29.115   1.246
15770W        W77059  29.997  17.596  14.362
15771W        W77060  21.026  39.538  10.409
15772W        W77061  10.752   0.811  11.974
15773W        W77062  31.966   6.919  10.421
15774W        W77063  23.556   5.851  13.845
15775W        W77064   3.412  27.084  11.561
15776W        W77065  39.822  39.533   4.771
15777W        W77066  10.847  16.790   4.689
15778W        W77067  39.470  20.670  13.815
15779W        W77068  33.087  20.180  14.846
15780W        W77069  17.221  13.230  12.904
15781W        W77070  26.098  24.117   4.706
15782W        W77071   1.389  28.522  12.082
15783W        W77072   1.738  31.550   3.299
15784W        W77073  26.031   5.852   4.314
15785W        W77074   9.679  41.423  11.045
15786W        W77075   6.881  12.612   3.354
15787W        W77076  20.039  10.253  10.966
15788W        W77077  28.118  17.722   4.250
15789W        W77078  15.132  38.981  11.553
15790W        W77079  41.926   5.727  11.478
15791W        W77080  22.735   4.434   4.785
15792W        W77081   8.203  35.069   1.781
15793W        W77082  10.666  26.206  13.438
15794W        W77083  12.816  35.033   0.836
15795W        W77084  43.841  33.521  14.929
15796W        W77085   9.271  29.958   5.084
15797W        W77086  41.805  29.485  14.861
15798W        W77087  24.538   6.248   3.646
15799W        W77088  42.483  33.523  12.407
15800W        W77089  29.133  24.175  11.931
15801W        W77090  44.808  33.987   3.634
15802W        W77091  22.066  36.980  11.479
15803W        W77092   9.874  17.228   0.370
15804W        W77093  14.808   0.476   1.790
15805W        W77094  41.418  29.653   0.823
15806W        W77095  32.462   4.236   1.271
15807W        W77096  19.261   5.292   2.769
15808W        W77097  29.535   3.908   4.202
15809W        W77098  19.588  21.222   5.085
15810W        W77099  31.409  34.039  10.532
15811W        W77100  24.697  44.490  10.610
15812W        W77101  39.418  12.221  10.564
15813W        W77102  27.122  37.984  12.967
15814W        W77103  42.982   3.869   0.826
15815W        W77104  41.043  42.816   1.924
15816W        W77105  34.008   6.414   4.195
15817W        W77106  18.618   9.154  13.053
15818W        W77107  32.524  19.562   3.790
15819W        W77108   7.800  16.078  10.898
15820W        W77109  31.024   7.198  12.943
15821W        W77110  35.531   4.379  10.103
15822W        W77111  11.207  16.806  10.575
15823W        W77112  11.210  13.108   0.761
15824W        W77113  23.997  23.995   1.851
15825W        W77114  36.929  33.618   3.647
15826W        W77115   2.234  10.641  13.537
15827W        W77116  36.841  41.012  12.474
15828W        W77117  24.190  25.188   3.817
15829W        W77118   9.866  25.086   4.698
15830W        W77119  20.719  37.380  11.103
15831W        W77120  39.389   9.158   1.349
15832W        W77121  25.577  32.889   2.730
15833W        W77122   7.841   2.922   0.935
15834W        W77123  15.328  33.886  13.495
15835W        W77124  24.051  42.000   4.759
15836W        W77125  24.080  21.167   5.150
15837W        W77126   1.951   3.362   2.201
15838W        W77127  24.499   8.270   3.231
15839W        W77128  18.279   4.271  14.389
15840W        W77129  25.567  35.014   2.694
15841W        W77130  13.629  13.339  10.552
15842W        W77131  28.022  19.206  10.984
15843W        W77132  42.927  25.999  14.029
15844W        W77133   2.903  23.618  10.405
15845W        W77134  44.771  30.090  14.790
15846W        W77135  38.508  28.965   2.384
15847W        W77136  15.779  18.089  14.452
15848W        W77137  39.400  40.966  14.829
15849W        W77138  10.774  43.346   4.776
15850W        W77139  27.610   2.805   0.472
15851W        W77140  26.109  29.631  11.493
15852W        W77141  22.047  12.182   3.327
15853W        W77142  39.450  43.474  12.466
15854W        W77143   3.769  20.169  13.006
15855W        W77144  14.328  33.437   5.134
15856W        W77145  13.607  25.622   2.328
15857W        W77146  10.706  32.444   3.867
15858W        W77147  18.069  22.234   2.261
15859W        W77148   8.847  22.133   1.417
15860W        W77149  23.231  43.406   2.803
15861W        W77150   0.424  43.430  10.903
15862W        W77151  16.669   9.855  12.061
15863W        W77152   4.415  16.606   4.175
15864W        W77153  17.777  18.657   2.705
15865W        W77154   5.886  32.543   1.260
15866W        W77155  17.637  19.769  14.889
15867W        W77156  12.201  44.932   5.715
15868W        W77157  28.528   5.229   0.920
15869W        W77158  25.132  17.646  11.099
15870W        W77159   6.270  34.922   1.789
15871W        W77160   1.744  34.550  11.053
15872W        W77161   2.911  40.998  10.583
15873W        W77162  43.004   2.228   1.393
15874W        W77163  30.995  31.429  14.342
15875W        W77164  32.615  40.349  10.409
15876W        W77165   6.902  42.282  14.819
15877W        W77166  38.847  41.394   2.220
15878W        W77167  19.166  14.285  14.943
15879W        W77168  14.590  31.908  10.472
15880W        W77169  26.641  38.919  13.908
15881W        W77170   6.363  40.979   3.807
15882W        W77171  19.591   5.383   0.455
15883W        W77172  12.756  22.218   4.640
15884W        W77173   2.364  18.715  12.480
15885W        W77174  35.087  40.012   2.330
15886W        W77175  25.992   1.300   1.251
15887W        W77176  11.868   6.409  14.465
15888W        W77177  34.424  35.443  13.344
15889W        W77178  30.477  11.232  12.070
15890W        W77179   0.389  41.304  13.389
15891W        W77180  19.058  37.981   2.837
15892W        W77181  10.841  19.146  13.493
15893W        W77182   8.718   5.878  14.342
15894W        W77183   1.308  14.214  12.878
15895W        W77184  44.309  35.439  13.505
15896W        W77185  30.024  33.458  14.759
15897W        W77186  14.692  44.001  12.343
15898W        W77187  36.393   2.295  11.392
15899W        W77188   2.311   4.256  13.905
15900W        W77189  10.636  37.029   2.676
15901W        W77190  23.611  29.652  14.382
15902W        W77191  25.512  31.017   3.848
15903W        W77192  14.589  37.526  11.500
15904W        W77193  13.711  26.183   0.271
15905W        W77194  25.631  22.219  12.027
15906W        W77195  18.743  19.124   0.337
15907W        W77196   5.746   5.296   0.331
15908W        W77197   3.295  21.070   9.938
15909W        W77198   1.961  35.448   3.700
15910W        W77199  28.104  39.927   5.166
15911W        W77200   8.172  42.851   3.248
15912W        W77201  18.275  28.027   4.656
15913W        W77202   5.351  10.854  14.448
15914W        W77203  15.817  44.932  14.974
15915W        W77204  26.172   3.908  12.931
15916W        W77205  15.323   4.737  13.322
15917W        W77206  43.866  26.126   3.704
15918W        W77207  38.506  34.883   3.266
15919W        W77208  42.413  23.198   3.638
15920W        W77209  39.407   8.762   2.285
15921W        W77210  24.152  44.835   2.775
15922W        W77211  44.489  30.070  12.067
15923W        W77212   4.340  22.107   4.680
15924W        W77213  37.448   8.730  13.358
15925W        W77214  12.119  16.200  14.412
15926W        W77215  30.990   2.949  13.315
15927W        W77216  38.543  24.725  13.986
15928W        W77217  41.873  36.023  11.412
15929W        W77218  23.521  20.565  13.341
15930W        W77219  30.449  43.938   0.885
15931W        W77220   5.304  23.132  14.485
15932W        W77221   6.772  33.128   2.789
15933W        W77222  27.503   0.329   2.207
15934W        W77223  26.115  10.842   3.864
15935W        W77224  20.057  27.633   4.672
15936W        W77225   9.264   3.860  11.918
15937W        W77226  29.042   4.222   5.094
15938W        W77227  32.508  31.126   0.759
15939W        W77228  28.965   1.925   1.719
15940W        W77229  40.883  11.217   2.718
15941W        W77230  28.628  20.046   0.413
15942W        W77231  30.510  30.598  10.902
15943W        W77232   6.891  29.140  14.458
15944W        W77233  41.805  25.017   0.325
15945W        W77234   6.883  39.348  12.877
15946W        W77235   4.257   7.331  14.379
15947W        W77236  10.728   5.196   4.650
15948W        W77237  38.329   5.788   4.308
15949W        W77238  33.987  12.309  12.867
15950W        W77239  19.060  10.138   2.903
15951W        W77240  43.322  39.990  12.946
15952W        W77241  35.917  19.693  14.437
15953W        W77242   1.892  43.868  11.421
15954W        W77243  27.620  38.327   3.253
15955W        W77244   1.417  19.557   4.633
15956W        W77245  33.608  17.211   2.373
15957W        W77246   8.254  13.279  10.631
15958W        W77247   2.348   5.870   2.271
15959W        W77248  10.156  43.344  13.838
15960W        W77249  26.699  14.181   3.851
15961W        W77250  19.204  14.743   3.299
15962W        W77251  23.013   0.474  12.479
15963W        W77252   1.894  30.912  12.018
15964W        W77253  34.076  34.586  13.796
15965W        W77254  22.178   8.729   1.899
15966W        W77255  42.840  41.881   3.863
15967W        W77256   3.272   3.732  14.832
15968W        W77257  20.226  23.631  13.417
15969W        W77258  41.325  21.736  12.945
15970W        W77259  24.018  11.633  13.457
15971W        W77260  40.452  21.682  11.439
15972W        W77261  16.615  20.667   3.377
15973W        W77262  37.573  29.579  13.811
15974W        W77263  14.323   5.217  11.604
15975W        W77264   9.157  13.648  14.310
15976W        W77265   6.231  17.166   2.282
15977W        W77266   4.219  17.065  11.934
15978W        W77267  17.187  34.938   3.208
15979W        W77268  32.443  40.931   4.194
15980W        W77269   7.813  13.776  11.584
15981W        W77270  21.593  38.911   0.931
15982W        W77271  24.209  37.557  12.993
15983W        W77272  22.130  30.592   0.422
15984W        W77273  21.541  30.589  10.562
15985W        W77274  29.029  22.204   0.748
15986W        W77275  26.495  32.041   3.710
15987W        W77276  24.130   5.286   4.611
15988W        W77277   3.402  36.858   4.688
15989W        W77278   4.836   9.876  10.967
15990W        W77279  30.560  18.760   4.344
15991W        W77280  10.223   0.939   2.317
15992W        W77281  31.497  14.753  10.490
15993W        W77282  13.780   3.715   4.329
15994W        W77283  32.006  39.969   3.322
15995W        W77284   5.327  24.479  12.347
15996W        W77285  18.685  24.199  13.403
15997W        W77286   6.192   4.264  13.513
15998W        W77287  43.854   3.411  11.559
15999W        W77288  18.240  29.565   0.800
16000W        W77289  22.703  43.885   3.637
16001W        W77290  31.408   0.446   3.825
16002W        W77291   1.285  22.540  12.473
16003W        W77292  19.263  16.662  13.311
16004W        W77293   0.748  44.773   0.245
16005W        W77294  12.235  23.058  12.414
16006W        W77295  23.578  32.535   4.792
16007W        W77296  17.581  16.236   2.858
16008W        W77297  26.096  36.866  13.383
16009W        W77298   5.730  23.661   0.279
16010W        W77299   9.762  26.653  13.868
16011W        W77300  20.188  44.346  13.322
16012W        W77301  32.537  12.656   1.730
16013W        W77302  25.575  41.036   4.159
16014W        W77303  36.928   1.944   3.241
16015W        W77304  37.521  20.271  13.854
16016W        W77305   2.294  27.161   0.922
16017W        W77306  31.937  38.996  11.885
16018W        W77307   4.827  15.169   2.406
16019W        W77308  15.284  24.085  10.559
16020W        W77309   0.441  20.242   1.849
16021W        W77310   7.905  36.487   0.789
16022W        W77311  44.973  38.942   4.141
16023W        W77312  10.635  27.066   3.206
16024W        W77313  10.205   2.260  14.457
16025W        W77314   2.374  34.087   3.243
16026W        W77315   3.269  42.010  10.635
16027W        W77316  12.337  11.712   2.798
16028W        W77317   6.783  31.144  14.991
16029W        W77318  36.918  15.250  10.033
16030W        W77319   5.872   2.345  13.985
16031W        W77320  37.369   0.410   9.942
16032W        W77321  39.920  16.311  13.406
16033W        W77322  38.026   9.802  13.446
16034W        W77323  25.513  14.329  10.133
16035W        W77324  14.645  11.306  14.874
16036W        W77325  38.422   9.347   4.650
16037W        W77326  32.523  26.485  13.833
16038W        W77327   6.833  27.962   1.747
16039W        W77328  42.507   9.875  12.945
16040W        W77329  23.181   3.741   4.720
16041W        W77330  13.757  16.081   0.432
16042W        W77331  36.463  15.265   4.210
16043W        W77332  29.472  22.050   2.893
16044W        W77333  37.034  43.515   3.214
16045W        W77334   9.814   0.463   0.479
16046W        W77335  31.637   8.298   4.780
16047W        W77336  27.524  29.587  13.037
16048W        W77337  11.659  26.671   2.274
16049W        W77338  10.307  26.084   3.326
16050W        W77339  14.707  24.031   3.742
16051W        W77340  30.053  19.722   4.739
16052W        W77341  33.911  20.133  12.394
16053W        W77342  42.998   4.870  14.295
16054W        W77343  24.196  22.022  12.522
16055W        W77344   3.421  41.853   4.780
16056W        W77345   6.747  43.498  10.527
16057W        W77346   3.823  17.199   4.143
16058W        W77347   3.406  38.882   2.782
16059W        W77348  44.934   4.391  11.418
16060W        W77349  12.635  17.581  10.513
16061W        W77350   6.205  28.124   3.868
16062W        W77351  42.393   8.840  14.759
16063W        W77352   1.834  33.574  12.464
16064W        W77353  23.518  38.335   3.847
16065W        W77354   6.388  41.406  11.417
16066W        W77355  11.689   5.913   4.655
16067W        W77356   7.304   0.763  13.318
16068W        W77357  34.572  17.560  10.408
16069W        W77358   8.776  41.006  11.429
16070W        W77359   3.900  30.599   3.676
16071W        W77360  17.178  16.567  14.507
16072W        W77361   8.843  31.494   4.609
16073W        W77362  35.531  23.641  11.933
16074W        W77363   6.846  39.421  10.563
16075W        W77364  35.589  27.570   0.864
16076W        W77365  43.405  42.341  12.961
16077W        W77366   2.827  15.795   1.769
16078W        W77367  24.012  12.359   2.323
16079W        W77368  41.337   3.726  12.063
16080W        W77369  32.403  39.838  14.847
16081W        W77370  36.847   7.681  14.778
16082W        W77371  30.016   4.253   3.239
16083W        W77372   1.254  44.754  15.000
16084W        W77373  14.646  32.026   4.308
16085W        W77374  23.683   4.877   2.896
16086W        W77375  23.538  21.657   5.138
16087W        W77376   6.741  12.704  10.604
16088W        W77377  37.562   3.829   3.850
16089W        W77378  37.833  12.825   4.134
16090W        W77379  40.033   6.414  13.526
16091W        W77380  12.855  35.039  12.482
16092W        W77381   0.434  40.988  14.293
16093W        W77382  15.752  20.167  11.954
16094W        W77383   9.307   9.200   1.248
16095W        W77384  18.050  34.980  11.476
16096W        W77385  32.618   4.206   4.760
16097W        W77386  32.971  14.641   2.295
16098W        W77387   5.834   9.238   0.374
16099W        W77388  29.621  28.581  14.918
16100W        W77389  41.858  34.379  11.045
16101W        W77390   2.331  10.642  12.563
16102W        W77391  11.346  41.536   1.860
16103W        W77392  23.098  33.877  13.335
16104W        W77393   1.363  19.640  12.031
16105W        W77394  18.776  18.649  12.826
16106W        W77395  12.286  29.632   1.698
16107W        W77396  15.213  32.493  13.460
16108W        W77397  17.583  40.455   2.210
16109W        W77398   9.351   0.759   2.270
16110W        W77399  24.028   5.857   0.453
16111W        W77400   8.191  38.434   3.727
16112W        W77401  36.371  24.704  14.882
16113W        W77402  22.574  41.517  13.422
16114W        W77403  31.973  27.135  12.470
16115W        W77404  30.470   9.682  12.913
16116W        W77405  17.154  41.415   3.826
16117W        W77406   6.890   2.336   0.933
16118W        W77407  27.031   6.246  14.948
16119W        W77408  20.082  22.583   3.188
16120W        W77409  16.712  18.258  12.398
16121W        W77410  26.150   2.408   1.926
16122W        W77411  13.125  29.920   3.235
16123W        W77412  28.599  32.929   0.255
16124W        W77413   4.859  12.627   0.336
16125W        W77414  12.168  43.508  10.013
16126W        W77415   6.319  32.890  14.979
16127W        W77416  38.472   6.706  13.026
16128W        W77417  27.499  44.876   0.761
16129W        W77418   9.287   1.866  13.946
16130W        W77419  42.480   6.415  14.316
16131W        W77420  18.557  27.078   2.868
16132W        W77421   7.745  13.128  13.478
16133W        W77422   3.881  39.466  13.409
16134W        W77423  18.283   1.921  14.360
16135W        W77424  31.963  21.546   4.688
16136W        W77425   3.922  22.176   2.713
16137W        W77426  22.582  33.543  10.546
16138W        W77427  24.032   9.266  11.128
16139W        W77428   7.775  26.674   1.399
16140W        W77429   9.333  36.478   2.774
16141W        W77430  23.170  42.945  14.820
16142W        W77431   6.747  11.735   3.343
16143W        W77432  24.615   2.915   4.202
16144W        W77433  33.505  10.284  10.001
16145W        W77434  23.489  24.151   0.955
16146W        W77435  28.126  40.838  10.961
16147W        W77436   2.400  44.421   0.905
16148W        W77437  33.579  30.444   0.950
16149W        W77438   1.926  17.707   1.318
16150W        W77439  37.499  22.580  14.475
16151W        W77440  17.593  24.675   2.326
16152W        W77441   8.284  24.204  13.310
16153W        W77442  38.390  28.448   0.276
16154W        W77443  39.532  40.320   2.305
16155W        W77444  18.117  10.215  13.035
16156W        W77445  27.132  12.688   2.898
16157W        W77446   7.185  19.186  14.418
16158W        W77447  40.310  16.761  12.382
16159W        W77448   1.312  11.856  10.944
16160W        W77449   6.183  35.426   2.881
16161W        W77450   9.740   8.195   4.797
16162W        W77451   6.864  29.099  11.923
16163W        W77452  25.562   2.857  14.834
16164W        W77453  37.951  31.501  12.386
16165W        W77454  14.628  25.033   0.449
16166W        W77455   3.722  13.797  12.441
16167W        W77456  25.558  42.346   1.791
16168W        W77457  41.374  25.198  10.498
16169W        W77458  40.015  34.099  10.555
16170W        W77459  21.538  34.067   3.148
16171W        W77460  15.256  44.417  12.915
16172W        W77461   0.891   6.369   4.690
16173W        W77462   5.337  18.102   4.609
16174W        W77463  42.923  33.098  13.021
16175W        W77464   7.234  44.382  10.130
16176W        W77465  27.961  11.249   3.651
16177W        W77466  26.499  39.373   1.300
16178W        W77467  44.344   8.379   1.918
16179W        W77468  22.558  27.677   4.743
16180W        W77469  20.548  35.991   2.784
16181W        W77470  20.243  39.484   0.405
16182W        W77471   7.912  36.953  10.476
16183W        W77472  13.744   3.955  13.382
16184W        W77473  14.627   3.252  12.487
16185W        W77474   4.702   7.903  14.390
16186W        W77475  40.806  26.639   3.707
16187W        W77476   6.232  26.061  14.389
16188W        W77477  33.975  20.710   1.385
16189W        W77478  36.543  36.464  14.331
16190W        W77479   9.266   7.869  11.609
16191W        W77480  28.491  13.841   3.237
16192W        W77481  22.157  36.882   3.859
16193W        W77482  26.056  39.392  11.433
16194W        W77483   3.764  13.775   3.738
16195W        W77484  23.189  17.558   0.822
16196W        W77485   4.817   9.328   2.372
16197W        W77486  32.083  35.885   2.214
16198W        W77487   1.471  39.832   1.895
16199W        W77488  38.863  33.398   1.807
16200W        W77489   0.349   3.891  13.442
16201W        W77490  16.630  13.212  10.629
16202W        W77491  31.443  26.653  12.420
16203W        W77492   0.436  31.091  11.021
16204W        W77493  38.056   3.911   1.419
16205W        W77494  20.038  36.457   4.826
16206W        W77495  13.239  35.899  13.329
16207W        W77496  33.388  20.688   0.368
16208W        W77497   8.206  17.115  11.859
16209W        W77498  15.699  40.330  11.125
16210W        W77499  11.173  21.640   2.885
16211W        W77500   1.281  39.466  12.060
16212W        W77501  23.226  32.545   1.805
16213W        W77502  39.855  40.813  11.442
16214W        W77503  14.634  20.252   4.776
16215W        W77504  37.985  18.239  13.464
16216W        W77505  28.591  40.421  14.016
16217W        W77506  26.953  29.482  10.422
16218W        W77507  19.269  23.064  10.460
16219W        W77508  30.634   9.695  14.872
16220W        W77509  23.714  19.633   3.202
16221W        W77510  40.034  36.378  11.506
16222W        W77511   0.958  22.232  11.455
16223W        W77512  41.825  15.312   4.267
16224W        W77513  12.242  44.971  10.586
16225W        W77514  33.464  25.984   3.373
16226W        W77515  40.895  19.168   4.310
16227W        W77516   0.292  26.532  11.966
16228W        W77517  43.376  24.494   1.394
16229W        W77518  30.568  35.925   2.719
16230W        W77519  15.313  25.140   2.237
16231W        W77520  31.444  33.017  11.033
16232W        W77521  39.864  35.058  11.375
16233W        W77522  43.801   9.719  14.447
16234W        W77523   8.304  12.691   1.857
16235W        W77524   1.238   5.402  12.950
16236W        W77525  14.286  37.888  11.930
16237W        W77526  28.045  16.606   3.319
16238W        W77527  19.102  41.806  13.516
16239W        W77528   5.818  34.043   2.234
16240W        W77529  16.657   8.898   2.384
16241W        W77530  10.713  33.998   2.737
16242W        W77531  14.169  13.819   4.831
16243W        W77532  19.127   0.408  10.915
16244W        W77533   2.911  17.595   2.785
16245W        W77534  44.301  25.494  11.403
16246W        W77535  21.025   5.203  14.998
16247W        W77536  14.742  16.133   3.317
16248W        W77537  14.593  38.334  11.966
16249W        W77538  39.366  19.128  11.374
16250W        W77539   8.704  16.271   1.831
16251W        W77540  13.110  10.784   0.256
16252W        W77541  41.339   8.799  11.464
16253W        W77542  37.935  10.145   4.322
16254W        W77543  28.010  10.704   3.819
16255W        W77544  43.927  38.362   3.636
16256W        W77545  20.609  29.659   3.249
16257W        W77546  29.133  34.596  12.548
16258W        W77547  22.241  17.770   3.300
16259W        W77548  24.103   6.879  14.890
16260W        W77549   3.429  16.801   3.273
16261W        W77550  28.561   6.734   4.822
16262W        W77551  30.560  30.968  14.763
16263W        W77552  39.024  42.014   2.696
16264W        W77553  37.955  27.542  12.558
16265W        W77554  12.806  38.987   5.287
16266W        W77555  13.215  37.984  14.430
16267W        W77556  29.154  38.469  12.491
16268W        W77557  38.836   5.827  13.365
16269W        W77558  39.500  24.603   1.850
16270W        W77559  16.160  24.183   3.235
16271W        W77560  40.002   4.291   2.211
16272W        W77561  20.627  33.614   3.733
16273W        W77562   5.365  15.221   3.712
16274W        W77563   6.891  42.827  14.422
16275W        W77564  12.741  35.971  12.452
16276W        W77565  12.800  39.443  10.605
16277W        W77566  29.482  13.248  13.372
16278W        W77567  12.283  44.444  14.366
16279W        W77568  41.030  38.503  11.473
16280W        W77569   6.410  15.615   0.804
16281W        W77570  36.554  31.623  11.383
16282W        W77571  29.598   7.751  11.920
16283W        W77572  36.438  19.051   2.726
16284W        W77573  15.587  24.194  10.416
16285W        W77574  10.805  36.397   5.176
16286W        W77575   9.327  36.003   4.786
16287W        W77576  32.996  21.126   0.958
16288W        W77577   5.823  42.412   4.646
16289W        W77578   4.894  22.501   4.719
16290W        W77579  27.190  43.830   3.279
16291W        W77580  31.555   2.312   3.713
16292W        W77581  16.573  26.503   3.706
16293W        W77582  35.035   2.915  14.377
16294W        W77583  14.113   3.885   5.173
16295W        W77584  24.679   4.309  12.420
16296W        W77585  36.935  29.471   3.275
16297W        W77586  13.194  32.010   4.142
16298W        W77587  27.140  43.454   4.331
16299W        W77588  37.570   0.370  11.873
16300W        W77589  26.096  17.670  12.367
16301W        W77590  37.404  38.819  11.472
16302W        W77591   5.835  37.371   0.924
16303W        W77592   3.833  24.687   1.818
16304W        W77593  33.479   6.713   2.219
16305W        W77594  34.948  25.609   0.902
16306W        W77595  29.954  31.588  11.077
16307W        W77596   0.421  11.746   3.350
16308W        W77597  13.726   2.382   3.691
16309W        W77598   9.681  40.892   3.293
16310W        W77599  38.363  39.374  10.435
16311W        W77600   6.375  29.023  11.951
16312W        W77601   0.268  40.327   2.246
16313W        W77602  24.505   3.804  14.804
16314W        W77603   9.164   4.291   3.297
16315W        W77604   2.420  36.422   3.829
16316W        W77605  18.051  18.100   4.834
16317W        W77606  16.641  29.094   0.818
16318W        W77607  30.500  38.569   0.261
16319W        W77608  34.982  44.841  14.873
16320W        W77609   2.257  37.341   9.971
16321W        W77610   8.395  16.672  13.416
16322W        W77611   8.361  35.448   0.383
16323W        W77612  26.104   9.311  11.952
16324W        W77613  15.815  42.929  10.153
16325W        W77614  41.923  44.758  14.923
16326W        W77615  41.895   2.426  14.815
16327W        W77616   8.279  15.294   4.773
16328W        W77617  33.564  30.048  12.845
16329W        W77618  39.950   9.234   9.936
16330W        W77619  39.859   4.318   0.782
16331W        W77620  28.948  44.328  12.042
16332W        W77621  12.856   7.674  14.974
16333W        W77622  40.534  17.557  12.847
16334W        W77623   6.866  14.801   0.768
16335W        W77624  15.743  34.116   1.245
16336W        W77625  28.464  29.170   1.224
16337W        W77626   8.200  16.104  14.293
16338W        W77627  23.586  43.458  12.962
16339W        W77628  28.106  25.127  10.019
16340W        W77629  23.594  18.575   1.811
16341W        W77630  36.047  20.240  12.366
16342W        W77631  33.510  43.474   1.775
16343W        W77632   7.768  25.569  12.521
16344W        W77633  43.481  21.560  14.404
16345W        W77634  24.226  17.667  13.392
16346W        W77635   0.458   5.328  11.074
16347W        W77636  42.492  15.155   2.877
16348W        W77637  37.861   7.669   2.405
16349W        W77638  24.044  42.872   4.714
16350W        W77639  39.001   3.801   0.423
16351W        W77640  31.646  23.595   4.125
16352W        W77641  42.298  22.506   1.904
16353W        W77642  44.890  33.070  10.900
16354W        W77643  35.093  23.616   3.172
16355W        W77644  22.711  14.139   1.373
16356W        W77645   8.401  10.845   2.871
16357W        W77646   3.795   0.932  14.964
16358W        W77647   6.774  29.487  11.088
16359W        W77648  11.801  12.359  14.322
16360W        W77649  40.965  23.097  14.417
16361W        W77650  40.352   8.309   0.909
16362W        W77651   9.211  36.499  13.002
16363W        W77652   4.861  32.025   3.818
16364W        W77653   9.191  11.289   4.211
16365W        W77654  13.747  28.166  12.866
16366W        W77655  25.003  21.665  13.951
16367W        W77656  42.401  14.337  14.328
16368W        W77657  11.860   8.388  13.423
16369W        W77658  12.207   3.810   1.316
16370W        W77659  13.613  39.041   4.120
16371W        W77660   7.177   3.329  11.116
16372W        W77661  21.126  39.372   2.207
16373W        W77662  36.894  35.873   2.245
16374W        W77663  20.070  30.546   2.418
16375W        W77664  18.709   6.834   2.848
16376W        W77665   5.367  33.883   1.824
16377W        W77666  14.592   0.745  14.883
16378W        W77667  37.520  39.396  14.375
16379W        W77668  33.055  35.052   4.780
16380W        W77669   7.828  14.597   1.259
16381W        W77670  11.321  36.073   2.183
16382W        W77671  37.361   5.253  10.461
16383W        W77672   1.783  36.003  11.009
16384W        W77673  36.494  13.289  11.493
16385W        W77674  18.758   0.293   1.362
16386W        W77675  15.606   0.425  10.113
16387W        W77676  39.476  34.107   2.284
16388W        W77677  25.661  15.692   0.905
16389W        W77678  22.094   4.372   3.711
16390W        W77679  10.651  41.292   3.151
16391W        W77680   8.883   2.778   3.304
16392W        W77681  37.531   3.441  14.444
16393W        W77682   3.309  22.229   1.825
16394W        W77683  17.689  37.375   3.220
16395W        W77684  15.732  13.835  11.502
16396W        W77685  38.450  43.977   0.269
16397W        W77686  27.011  10.141  12.539
16398W        W77687  10.696  14.602   0.418
16399W        W77688  24.135  20.048   4.638
16400W        W77689  40.394  31.971  12.948
16401W        W77690   7.172  18.143   4.664
16402W        W77691  15.261  37.371  11.494
16403W        W77692  33.457   1.976  11.944
16404W        W77693   3.795  20.144   3.153
16405W        W77694  26.583  17.607   1.886
16406W        W77695   7.398  40.024  11.601
16407W        W77696  33.448  17.799  14.941
16408W        W77697  38.465  25.173   0.804
16409W        W77698  40.342  29.627  13.475
16410W        W77699   3.250   2.336   0.852
16411W        W77700  30.502  15.690  14.922
16412W        W77701  36.084  11.709  10.490
16413W        W77702   1.750   4.779  10.913
16414W        W77703  11.649   6.706   1.432
16415W        W77704   4.329  40.942  13.033
16416W        W77705  13.318  41.944   1.935
16417W        W77706  24.616  35.446   4.249
16418W        W77707  17.285   8.323   4.318
16419W        W77708  32.091   3.345   1.793
16420W        W77709   3.402   6.237  11.540
16421W        W77710  31.431   9.812  14.987
16422W        W77711   3.718  30.140  10.932
16423W        W77712  44.272  19.583   4.224
16424W        W77713  40.395   2.724   2.816
16425W        W77714   6.329  21.228  14.505
16426W        W77715  18.740  32.591   4.704
16427W        W77716  37.997  38.495  14.940
16428W        W77717  37.419  23.570  11.535
16429W        W77718  44.265  33.503   5.087
16430W        W77719  11.154  32.948   3.681
16431W        W77720  26.694   1.741   0.409
16432W        W77721  17.676  21.715   1.738
16433W        W77722   8.226  23.191   2.248
16434W        W77723  42.814  26.683   1.248
16435W        W77724  15.221   6.413   2.263
16436W        W77725   3.344  25.122  11.400
16437W        W77726   2.261   0.857  11.593
16438W        W77727  34.509  31.485  14.820
16439W        W77728   2.439  33.941  10.618
16440W        W77729  16.591   2.816   3.197
16441W        W77730  39.487   4.257  11.420
16442W        W77731   5.387   4.416   3.648
16443W        W77732   2.937  22.069  11.980
16444W        W77733  41.878  37.008   1.860
16445W        W77734  43.800   2.773   4.311
16446W        W77735   9.202   2.843  12.030
16447W        W77736  28.168  40.425  10.160
16448W        W77737  26.557   7.898   3.315
16449W        W77738  32.635  41.337   0.844
16450W        W77739   1.928  35.012  13.833
16451W        W77740  41.318  39.485   0.783
16452W        W77741  25.966  20.191  14.847
16453W        W77742  33.902   1.379   1.306
16454W        W77743  41.531  32.967  13.941
16455W        W77744   6.192  10.730  11.910
16456W        W77745  44.273   0.426  13.955
16457W        W77746  29.134   9.767   3.258
16458W        W77747   1.239  33.054   2.763
16459W        W77748  13.285  16.166  14.436
16460W        W77749  36.907  41.849   2.791
16461W        W77750   9.183  40.338  10.916
16462W        W77751  28.632  16.578   3.669
16463W        W77752  27.044  23.004  13.464
16464W        W77753  35.418  11.658   3.179
16465W        W77754  23.995  39.960   2.843
16466W        W77755  26.568  40.896   2.810
16467W        W77756  40.382  27.062   3.189
16468W        W77757  30.971  18.195  12.457
16469W        W77758  35.443  18.704  13.056
16470W        W77759  22.156  44.931   0.936
16471W        W77760  19.779  20.583   2.667
16472W        W77761  26.998  13.305   0.419
16473W        W77762  35.982   6.353   2.688
16474W        W77763  10.726   1.969  11.498
16475W        W77764  19.624   0.358  14.452
16476W        W77765  27.945  28.061   1.291
16477W        W77766  24.601   8.369  11.375
16478W        W77767   9.717  22.113  12.955
16479W        W77768  27.538  37.960   4.301
16480W        W77769  28.549  41.472  10.510
16481W        W77770  43.363  15.229  11.891
16482W        W77771  29.977  21.598   0.385
16483W        W77772  26.586   6.344   1.882
16484W        W77773  23.089  10.178  12.859
16485W        W77774  36.415  44.495   5.284
16486W        W77775  15.140  40.917  13.857
16487W        W77776   1.318  28.635   4.612
16488W        W77777  25.210  23.610  10.575
16489W        W77778  41.468  10.270  11.053
16490W        W77779  33.574  42.792  11.042
16491W        W77780  20.594  24.001   4.711
16492W        W77781  12.172  40.472  10.973
16493W        W77782  11.141  41.974  13.848
16494W        W77783  16.588  18.098   3.230
16495W        W77784  41.309   4.879  11.544
16496W        W77785  25.601  38.852  10.602
16497W        W77786  42.421  22.707  14.399
16498W        W77787  36.965  17.572   2.281
16499W        W77788  20.076  27.051  14.972
16500W        W77789   7.795  43.845  14.026
16501W        W77790  25.574  27.127   4.305
16502W        W77791  21.521   0.889  13.894
16503W        W77792  25.539  39.024   2.299
16504W        W77793  34.389  19.265  12.033
16505W        W77794   3.767  36.542  14.867
16506W        W77795   1.370  31.915   1.395
16507W        W77796   1.474  38.902   3.158
16508W        W77797  11.162  14.298   0.851
16509W        W77798  22.226   9.785   2.233
16510W        W77799  18.190  30.134  11.404
16511W        W77800   2.951  43.376  12.864
16512W        W77801   2.324  41.426   1.283
16513W        W77802  27.129  41.485  10.614
16514W        W77803   0.283  16.118   1.258
16515W        W77804  41.005  43.379  11.517
16516W        W77805   7.839  28.480   0.472
16517W        W77806  32.510  38.933   3.814
16518W        W77807  28.058  44.278   4.746
16519W        W77808  23.122  29.496  12.445
16520W        W77809  40.364  18.647   3.177
16521W        W77810  14.124  36.531   9.640
16522W        W77811  29.602  37.955  12.470
16523W        W77812   1.850  25.178  14.791
16524W        W77813   9.683  32.925   0.384
16525W        W77814   7.244  30.975  11.856
16526W        W77815   6.332  36.354   2.871
16527W        W77816  28.679  32.581   0.457
16528W        W77817   9.197  38.532   3.747
16529W        W77818  44.391  42.344  12.840
16530W        W77819  41.458  28.581  12.580
16531W        W77820  36.364  13.341  11.033
16532W        W77821   9.219  44.358   0.803
16533W        W77822  36.540  32.992  12.424
16534W        W77823   1.863  13.601  10.973
16535W        W77824   0.409  23.687   4.235
16536W        W77825  37.397   4.700  11.595
16537W        W77826  18.166  33.966  13.377
16538W        W77827  19.223  13.203  13.873
16539W        W77828  33.934   4.767  14.798
16540W        W77829  37.406  19.154  11.555
16541W        W77830  26.620  25.534   4.252
16542W        W77831   4.758  29.629   4.214
16543W        W77832  41.801   3.917   2.290
16544W        W77833  32.424  32.996  10.527
16545W        W77834  17.229  11.735   3.752
16546W        W77835   4.434  22.211  10.930
16547W        W77836  12.183  41.455  12.052
16548W        W77837  20.171  34.030   0.775
16549W        W77838   9.384  22.612   0.939
16550W        W77839  43.945  44.959   3.735
16551W        W77840  21.253   8.179  14.785
16552W        W77841  32.568  33.508   3.840
16553W        W77842   0.320  14.664  14.960
16554W        W77843   0.295  28.966  12.084
16555W        W77844  14.198  38.425   1.418
16556W        W77845  15.659  36.007  13.472
16557W        W77846  40.977  28.076   4.119
16558W        W77847  13.612  25.169   4.654
16559W        W77848  37.349   3.797   2.714
16560W        W77849  41.465  25.187   3.775
16561W        W77850  44.822  36.062  12.826
16562W        W77851  13.263  10.782  13.047
16563W        W77852  33.038  23.599   0.945
16564W        W77853  18.651  28.121  14.873
16565W        W77854  15.123  42.823   0.788
16566W        W77855  23.109  14.620   0.320
16567W        W77856  17.151  33.051   0.944
16568W        W77857  24.168  25.989   1.436
16569W        W77858  39.388  43.342  11.071
16570W        W77859  37.515  30.984   0.462
16571W        W77860  41.819   1.799  12.496
16572W        W77861  27.189  13.789  11.100
16573W        W77862  44.307  11.185  13.013
16574W        W77863  38.479  13.747  13.998
16575W        W77864  25.109  13.164  10.500
16576W        W77865   4.829  21.040  10.912
16577W        W77866  42.921  34.497   4.697
16578W        W77867  34.384  13.226  13.472
16579W        W77868  32.515  43.278  11.988
16580W        W77869  18.775  15.771   2.277
16581W        W77870  20.078  15.813  13.968
16582W        W77871  24.127  38.070   0.946
16583W        W77872  44.833  22.663  13.382
16584W        W77873   0.980  27.568   3.852
16585W        W77874  43.938  17.693  12.959
16586W        W77875  31.120   7.361   2.880
16587W        W77876   1.863   5.348   2.812
16588W        W77877  24.530  13.825  11.859
16589W        W77878  10.314  30.163  14.895
16590W        W77879  14.271  14.590   1.434
16591W        W77880  43.941  44.467  14.312
16592W        W77881  26.954  27.976  12.859
16593W        W77882  38.441  39.865  12.440
16594W        W77883  13.748  36.892   3.254
16595W        W77884  16.736  34.938  11.454
16596W        W77885  26.132  32.987  11.516
16597W        W77886  14.184  17.600   2.263
16598W        W77887   2.338  21.546   2.887
16599W        W77888  38.415   4.442   1.865
16600W        W77889  39.517   2.448  13.834
16601W        W77890  30.952   2.363   1.802
16602W        W77891  43.781  40.812  12.545
16603W        W77892  18.674  23.708   3.732
16604W        W77893  35.882  13.313   2.377
16605W        W77894  29.611  28.446   3.754
16606W        W77895  31.503   1.736   3.352
16607W        W77896  18.637  40.958   2.843
16608W        W77897  43.415  25.574   4.705
16609W        W77898   9.330   6.812  13.033
16610W        W77899  29.648  38.523  11.389
16611W        W77900  35.553  11.311   0.378
16612W        W77901  32.441  27.597  14.351
16613W        W77902  36.070   6.777   2.383
16614W        W77903   8.328  39.524  13.831
16615W        W77904  42.485  14.326   1.828
16616W        W77905   2.278  37.523  12.032
16617W        W77906  17.720  40.976   1.928
16618W        W77907  41.452  44.269   1.704
16619W        W77908  39.430   9.796   1.821
16620W        W77909  44.905  41.923  10.632
16621W        W77910   8.671   7.668   1.271
16622W        W77911  37.498  39.983   1.935
16623W        W77912  10.294  44.910   1.354
16624W        W77913  15.708  36.014   0.285
16625W        W77914   8.391  28.024  13.502
16626W        W77915  36.376  22.699   1.805
16627W        W77916   4.301  13.276   4.724
16628W        W77917  15.640  36.442   2.269
16629W        W77918   6.757  31.023   2.756
16630W        W77919  31.129  32.117  14.487
16631W        W77920  12.282  38.995  14.014
16632W        W77921  16.654  44.382  13.486
16633W        W77922  38.018   1.310  12.084
16634W        W77923  40.430   5.258  11.102
16635W        W77924  30.012  25.122   1.851
16636W        W77925  24.041  24.170   2.252
16637W        W77926  10.340  17.282  13.928
16638W        W77927  26.076  32.111   1.733
16639W        W77928  17.306   6.276   3.330
16640W        W77929  29.590   5.770  11.529
16641W        W77930  28.086   6.238  12.400
16642W        W77931  19.094  20.220   1.348
16643W        W77932  14.639  37.014   1.425
16644W        W77933   7.350  43.885  11.371
16645W        W77934  19.239  43.997   0.400
16646W        W77935   7.668   9.303   4.211
16647W        W77936  20.031  38.363  14.014
16648W        W77937  12.282  38.012  12.951
16649W        W77938  22.244  36.020  13.430
16650W        W77939  44.007  37.940   3.354
16651W        W77940  29.160  30.048   4.754
16652W        W77941   8.343  28.947  10.570
16653W        W77942  25.519  24.637   2.771
16654W        W77943  33.924   3.319  11.466
16655W        W77944  44.401  33.532   3.337
16656W        W77945   0.300   5.705   4.622
16657W        W77946   9.827  33.530   0.242
16658W        W77947  39.882  18.104  11.881
16659W        W77948  36.393  15.745   2.694
16660W        W77949  13.327  39.378   1.305
16661W        W77950   2.825   2.899   2.245
16662W        W77951  23.063  27.563  13.500
16663W        W77952   3.712  18.720  14.436
16664W        W77953  33.432  17.211  10.529
16665W        W77954  34.586  29.643  13.546
16666W        W77955  18.551  12.171  13.991
16667W        W77956  15.127  35.430  13.499
16668W        W77957  19.102  21.514   3.831
16669W        W77958  27.458  44.454   0.861
16670W        W77959  43.954  26.505   0.405
16671W        W77960  32.605  12.311  10.493
16672W        W77961  11.287  31.460  14.775
16673W        W77962   4.818   9.775  14.826
16674W        W77963  15.285  31.066   2.869
16675W        W77964  14.756  36.563  12.470
16676W        W77965  27.555   8.362  11.056
16677W        W77966  42.322  30.123  14.331
16678W        W77967  33.623  22.622  14.850
16679W        W77968  13.134  24.647   4.164
16680W        W77969   4.788   6.784   3.672
16681W        W77970   2.264  36.355  12.905
16682W        W77971  18.213  16.597  14.009
16683W        W77972  26.680  34.999  10.945
16684W        W77973  44.851  31.059  13.048
16685W        W77974   2.454  27.664  13.457
16686W        W77975  13.216  22.137  11.089
16687W        W77976  33.963  23.988   2.303
16688W        W77977  15.745  10.368  13.950
16689W        W77978  16.608  25.064   3.706
16690W        W77979  35.953  18.210   4.824
16691W        W77980  35.883   5.749  14.349
16692W        W77981  32.057  27.593  14.857
16693W        W77982  39.856  29.431  11.923
16694W        W77983  21.610  15.142  12.923
16695W        W77984  18.293  22.104   0.779
16696W        W77985  42.888  29.935  12.924
16697W        W77986  34.975  21.100  12.929
16698W        W77987   6.327  37.930  10.976
16699W        W77988   6.361  39.818  14.342
16700W        W77989  23.036  25.701  11.529
16701W        W77990  40.478   4.904  11.952
16702W        W77991  23.532  31.550   2.725
16703W        W77992  32.062  27.656  14.388
16704W        W77993  27.538  28.523  12.402
16705W        W77994   0.750  17.704   3.843
16706W        W77995  18.684  22.563   3.319
16707W        W77996  41.531   6.255   1.404
16708W        W77997  21.652  17.065   1.305
16709W        W77998  39.361   3.818  11.514
16710W        W77999  23.604  13.201  14.829
16711W        W78000   1.389  32.448  14.463
16712W        W78001   0.828  16.073  10.476
16713W        W78002  17.099   1.376   4.736
16714W        W78003   6.767  40.002  14.299
16715W        W78004  34.509  39.835  14.470
16716W        W78005  19.090   4.380   4.701
16717W        W78006  29.454  30.032   3.728
16718W        W78007  37.066  23.499   1.718
16719W        W78008  12.840  19.236   0.384
16720W        W78009   2.287  43.014  12.862
16721W        W78010  35.513   9.279   1.370
16722W        W78011   6.776  41.031   0.281
16723W        W78012  33.493  34.561  12.562
16724W        W78013  39.865   1.413  11.957
16725W        W78014  37.832  39.856   2.774
16726W        W78015   2.727   7.265  12.055
16727W        W78016  39.834  29.434  14.468
16728W        W78017  23.566  35.942   2.355
16729W        W78018  35.471  10.696  11.076
16730W        W78019  42.477  11.765   3.666
16731W        W78020   6.887  17.681  10.946
16732W        W78021   7.725  32.076  12.495
16733W        W78022  11.185  21.147   1.712
16734W        W78023  10.745  25.035   0.367
16735W        W78024  27.189  21.692  10.533
16736W        W78025   7.400   0.866  11.497
16737W        W78026   7.791  12.344   1.727
16738W        W78027  15.087  42.361  10.977
16739W        W78028   9.326  39.990   3.157
16740W        W78029  44.271  20.542   5.202
16741W        W78030  14.203  23.212   3.670
16742W        W78031  31.940  28.138   0.477
16743W        W78032  20.125  39.911   0.759
16744W        W78033   8.396  26.103   4.810
16745W        W78034  20.736   3.346   1.712
16746W        W78035  35.365  37.844  13.790
16747W        W78036  12.668  40.398  10.441
16748W        W78037   6.677  33.447  12.836
16749W        W78038  10.289  20.530  12.413
16750W        W78039   3.728  39.330   0.879
16751W        W78040  39.490   1.422   2.240
16752W        W78041   4.369  40.040  10.640
16753W        W78042  29.068  43.925  14.795
16754W        W78043  33.044  26.629  12.082
16755W        W78044  19.267  31.959   0.274
16756W        W78045  34.016  20.702  12.400
16757W        W78046  14.788  12.194   0.938
16758W        W78047  21.241  27.447  14.357
16759W        W78048   9.231  21.038  14.992
16760W        W78049  28.493  27.541  13.841
16761W        W78050  21.546  26.520   3.764
16762W        W78051   0.932  28.152  13.880
16763W        W78052  17.778   3.713  14.434
16764W        W78053  27.659  14.320  11.465
16765W        W78054  11.349   2.240  11.887
16766W        W78055  21.533  25.983  13.410
16767W        W78056   2.438   0.979   2.331
16768W        W78057  29.548  27.462  10.407
16769W        W78058   9.193  22.075  10.421
16770W        W78059  24.184   0.251   4.196
16771W        W78060  36.502  28.019  13.439
16772W        W78061  34.923  38.935  11.067
16773W        W78062  11.139  42.830   5.266
16774W        W78063  15.180   3.875   4.699
16775W        W78064  33.044  32.448   3.236
16776W        W78065  36.089   1.889  11.567
16777W        W78066  18.192  36.498  11.579
16778W        W78067  11.349  32.091   3.795
16779W        W78068  19.585  39.926  14.327
16780W        W78069  21.638  28.681  13.822
16781W        W78070  39.560  19.085   5.301
16782W        W78071   9.769  20.680   4.780
16783W        W78072  16.629  41.452  13.931
16784W        W78073  34.967  31.446   4.254
16785W        W78074  16.692   4.292   4.763
16786W        W78075  29.052   0.869   0.378
16787W        W78076  39.006  44.969   0.310
16788W        W78077  33.064  28.051  13.531
16789W        W78078   8.857  34.441  14.821
16790W        W78079  29.434  24.040   0.923
16791W        W78080  32.897  19.179   4.267
16792W        W78081  26.575   7.746   4.812
16793W        W78082  19.699  14.826  11.043
16794W        W78083  43.965  19.703   4.778
16795W        W78084  11.255  19.202   0.375
16796W        W78085  34.593  19.657   0.405
16797W        W78086  37.531  17.076  11.990
16798W        W78087  18.690  44.381   0.340
16799W        W78088   8.869  27.602   4.167
16800W        W78089  37.371   0.787  13.362
16801W        W78090  24.667  27.560  10.997
16802W        W78091  36.055  31.143  12.532
16803W        W78092   8.168  25.194  10.030
16804W        W78093  28.676  31.639  10.410
16805W        W78094  34.034  32.522   2.875
16806W        W78095  39.844  22.662  14.815
16807W        W78096  11.243  15.761  14.769
16808W        W78097  37.852  13.136  11.604
16809W        W78098  20.715  10.741  12.992
16810W        W78099  17.303  17.242   0.464
16811W        W78100  15.768  18.676  12.440
16812W        W78101  25.643   7.362   1.916
16813W        W78102   3.745  20.641  14.368
16814W        W78103  37.834  32.507   2.352
16815W        W78104  27.106  42.816  14.500
16816W        W78105   0.959  40.461  12.965
16817W        W78106   2.906  16.666   0.920
16818W        W78107  32.033  12.695   2.227
16819W        W78108   6.323  23.645   5.119
16820W        W78109  16.106   7.840  12.569
16821W        W78110   5.826  18.208  11.448
16822W        W78111  40.490  12.736   0.479
16823W        W78112  27.651  37.964  12.961
16824W        W78113   9.253  37.069  13.468
16825W        W78114  40.989  40.804  11.879
16826W        W78115  30.476  24.175   4.253
16827W        W78116  32.599   1.361  12.554
16828W        W78117  29.078  21.262  13.431
16829W        W78118  12.851  15.598   2.211
16830W        W78119  29.147  18.292   3.836
16831W        W78120  11.848   0.381   2.374
16832W        W78121   4.241  43.954   0.966
16833W        W78122  12.145  15.135   0.457
16834W        W78123  12.824   8.225  12.454
16835W        W78124  13.605   9.274   0.284
16836W        W78125   3.944  37.919  11.121
16837W        W78126  18.261  40.892  11.991
16838W        W78127  17.655   7.327   2.307
16839W        W78128   5.371   9.886  13.885
16840W        W78129  26.142  23.050  14.397
16841W        W78130  20.651  22.223   4.722
16842W        W78131  14.130  41.825  14.325
16843W        W78132  22.541  40.900   2.277
16844W        W78133  28.539  38.004  13.955
16845W        W78134   4.833   0.743  12.043
16846W        W78135  12.360  29.622  13.436
16847W        W78136  43.343  39.422  14.343
16848W        W78137  42.829  14.109  14.308
16849W        W78138   9.150   7.348  13.448
16850W        W78139  27.197  44.418  12.855
16851W        W78140  10.286  37.056   1.400
16852W        W78141   2.724  27.093  11.873
16853W        W78142  32.923   2.886   0.849
16854W        W78143  13.725  38.496  13.863
16855W        W78144  31.001  29.986  13.904
16856W        W78145  15.643  40.053  11.001
16857W        W78146  37.373  29.569  12.469
16858W        W78147  19.699  21.113  14.836
16859W        W78148  11.145   2.880   3.732
16860W        W78149  21.077  10.327  12.465
16861W        W78150   6.264  25.680  11.897
16862W        W78151  38.991  25.982  13.011
16863W        W78152   8.815  15.717   3.836
16864W        W78153  36.003  34.914  12.847
16865W        W78154   4.721   8.322   4.810
16866W        W78155  16.719  31.504   1.285
16867W        W78156  17.235   0.752  11.442
16868W        W78157  26.039  26.972   3.227
16869W        W78158  41.916   8.192   4.239
16870W        W78159  16.765  11.786   4.137
16871W        W78160  37.024  36.520  11.554
16872W        W78161   5.202   5.351  13.044
16873W        W78162   9.306  32.615  14.864
16874W        W78163  39.958  20.261  13.042
16875W        W78164  43.934   1.291   1.227
16876W        W78165  27.092  31.977   0.962
16877W        W78166  13.322   6.355  14.492
16878W        W78167  34.609  28.509   0.402
16879W        W78168  35.376  38.557  10.955
16880W        W78169  39.339   7.850  11.402
16881W        W78170  29.058  33.410  10.930
16882W        W78171  40.408   7.345  12.847
16883W        W78172   6.395  19.086   0.420
16884W        W78173  30.557  29.088  11.398
16885W        W78174  24.505  19.279  13.995
16886W        W78175   1.287  26.080  14.963
16887W        W78176   7.365  44.824   4.229
16888W        W78177  27.505  22.020  14.369
16889W        W78178  32.094  38.371  10.522
16890W        W78179  12.257  24.002   0.889
16891W        W78180  39.870  32.000  13.488
16892W        W78181  10.741  30.113   3.286
16893W        W78182  14.792  14.306   5.285
16894W        W78183  21.572   6.338   1.232
16895W        W78184  34.040   1.406  14.859
16896W        W78185  44.329  30.962  13.855
16897W        W78186  40.519  12.802   3.229
16898W        W78187  16.755   6.886   4.317
16899W        W78188  42.359  24.016   3.725
16900W        W78189  26.674   2.950  13.887
16901W        W78190  35.412  16.667  10.148
16902W        W78191  20.163  21.167  12.445
16903W        W78192  44.907  42.942  13.797
16904W        W78193  14.149   7.746   3.753
16905W        W78194  28.575  23.627  11.376
16906W        W78195  38.054   1.898   2.762
16907W        W78196   2.797  21.534  11.452
16908W        W78197  15.800  28.964  14.955
16909W        W78198   2.786   2.392  14.430
16910W        W78199   3.382  38.563  14.300
16911W        W78200   1.281   7.894  11.429
16912W        W78201   0.966  29.589  13.424
16913W        W78202  30.555  29.925  10.968
16914W        W78203  15.119  28.607   2.367
16915W        W78204   4.852  11.836  13.819
16916W        W78205   1.942   9.210  11.495
16917W        W78206  37.498  14.154   5.199
16918W        W78207   0.357  18.284   1.740
16919W        W78208   8.780  39.943  11.856
16920W        W78209  25.614  28.958  10.118
16921W        W78210   1.793   6.188   0.788
16922W        W78211  14.135  40.383   2.178
16923W        W78212  12.281  38.401  14.322
16924W        W78213  16.721  44.848  14.905
16925W        W78214  22.547  37.880   3.630
16926W        W78215   3.935  17.201  12.031
16927W        W78216  36.560  12.333  14.788
16928W        W78217  36.546  36.491  11.113
16929W        W78218  35.567  26.204   2.230
16930W        W78219  34.910  39.396  14.859
16931W        W78220   7.360  24.133   3.865
16932W        W78221  42.979   0.967   0.775
16933W        W78222  10.786  13.235  11.995
16934W        W78223  18.773   0.989   4.290
16935W        W78224  18.584  34.087  12.086
16936W        W78225   1.341  10.141  12.858
16937W        W78226  30.141  40.830   1.326
16938W        W78227  18.288   6.271   0.395
16939W        W78228  39.014  22.097  11.926
16940W        W78229   0.975  31.135  13.048
16941W        W78230  15.232  34.566  14.419
16942W        W78231  31.605  28.507   3.763
16943W        W78232  33.414  28.032  12.907
16944W        W78233  38.365  13.104  14.330
16945W        W78234  14.798  38.490  14.503
16946W        W78235   9.268  23.047  13.865
16947W        W78236  33.474  37.535   4.283
16948W        W78237  37.853  28.588  14.912
16949W        W78238   9.672  16.700   1.921
16950W        W78239  31.499  38.435   2.188
16951W        W78240   4.238   3.437  11.545
16952W        W78241  30.949  33.500  14.013
16953W        W78242  41.369  19.264   0.462
16954W        W78243  15.155  17.125  13.962
16955W        W78244  33.069  42.826  10.920
16956W        W78245  23.534   8.348   2.720
16957W        W78246  17.156  44.981   0.276
16958W        W78247   8.777   4.310  14.998
16959W        W78248  18.235  11.347   2.334
16960W        W78249  12.763  20.703  10.986
16961W        W78250  16.212   5.346   4.282
16962W        W78251  32.412  36.518   0.455
16963W        W78252  30.162  36.460  14.346
16964W        W78253   9.759   0.485  13.526
16965W        W78254  20.263  24.132   1.864
16966W        W78255   5.798  16.666  10.965
16967W        W78256  19.041  38.054   1.402
16968W        W78257  25.183  10.827  11.867
16969W        W78258  43.463  44.404   0.333
16970W        W78259  36.490  13.163   0.814
16971W        W78260  24.171   9.383  13.888
16972W        W78261   3.817  11.130   4.727
16973W        W78262  10.183  24.608  11.904
16974W        W78263   9.820   2.893  14.838
16975W        W78264   9.830  30.106   0.894
16976W        W78265   2.233  36.527  11.423
16977W        W78266  42.422  36.907   2.710
16978W        W78267  23.490  39.509   0.928
16979W        W78268  33.504  21.216  11.418
16980W        W78269  17.146  30.058  14.304
16981W        W78270  24.133  36.447  13.917
16982W        W78271  42.492  39.869   0.833
16983W        W78272  39.536  11.237  11.999
16984W        W78273  25.493  20.525   5.214
16985W        W78274  32.614  11.149   0.821
16986W        W78275  18.651  28.629   3.640
16987W        W78276  29.992   9.753   2.351
16988W        W78277  38.492   2.328  12.079
16989W        W78278  20.649   0.920  11.499
16990W        W78279   5.780  19.235   0.395
16991W        W78280  32.429   8.856  13.330
16992W        W78281  32.432  13.616   3.632
16993W        W78282  17.109  34.069  13.958
16994W        W78283  23.009  26.113  14.844
16995W        W78284  43.814  16.691  11.506
16996W        W78285  21.713  15.237   4.315
16997W        W78286  21.680  39.553   1.441
16998W        W78287  42.437  34.564   0.760
16999W        W78288  16.097   9.295   3.153
17000W        W78289  43.421  13.301   2.740
17001W        W78290  10.257  42.789  13.815
17002W        W78291   4.893  19.553  12.550
17003W        W78292  11.622  43.380  11.556
17004W        W78293  17.146  24.720  10.986
17005W        W78294   1.842  23.125   0.399
17006W        W78295  25.491  39.426   0.324
17007W        W78296  43.436  15.217  13.919
17008W        W78297  31.617  29.001   2.269
17009W        W78298  14.699  39.861   4.614
17010W        W78299  26.968   2.461   3.674
17011W        W78300   3.785  21.025   3.168
17012W        W78301  10.325  12.857  14.942
17013W        W78302  19.775  16.142   2.265
17014W        W78303  40.982  18.280   3.835
17015W        W78304  14.150  10.829   3.377
17016W        W78305  10.661  37.549   0.421
17017W        W78306  36.083  20.200   5.244
17018W        W78307  38.038  18.184  14.844
17019W        W78308  30.161   8.681   9.592
17020W        W78309  33.434  25.064  12.060
17021W        W78310  33.589  21.739   0.779
17022W        W78311  14.697   1.303  14.780
17023W        W78312  32.419  24.565   3.265
17024W        W78313  42.815  26.185   3.300
17025W        W78314   1.324  12.798   1.820
17026W        W78315  23.095   5.228  11.059
17027W        W78316  36.998  19.103  14.866
17028W        W78317  13.254  40.969  14.949
17029W        W78318   8.210   3.302   4.745
17030W        W78319  23.704   1.813  13.855
17031W        W78320  37.506  29.961  10.973
17032W        W78321  26.047   6.242   0.341
17033W        W78322   9.223   1.808   2.853
17034W        W78323  31.910   1.421  11.967
17035W        W78324   6.723  43.931  13.816
17036W        W78325  21.535   4.252  12.454
17037W        W78326  39.911  35.477   3.637
17038W        W78327  34.032  31.570  12.955
17039W        W78328  37.917  14.599  14.013
17040W        W78329  28.055  32.617  12.341
17041W        W78330  44.845  35.005   0.834
17042W        W78331   7.857  19.235   4.635
17043W        W78332  40.799  13.277   0.840
17044W        W78333   1.731  15.093  13.955
17045W        W78334  38.505   4.329  13.381
17046W        W78335  35.003  10.677  13.450
17047W        W78336  27.588   2.743  10.516
17048W        W78337  27.110  38.935  10.411
17049W        W78338  12.237  27.992  11.047
17050W        W78339  27.690  31.506   3.360
17051W        W78340   7.344   9.860   0.260
17052W        W78341   7.203  18.216   1.763
17053W        W78342  40.013  35.990  13.024
17054W        W78343  24.211  41.902   0.732
17055W        W78344  30.108  15.113   3.750
17056W        W78345  21.686   7.792   3.798
17057W        W78346  41.453  44.986  14.960
17058W        W78347   9.229  30.089  12.344
17059W        W78348  34.040  12.833   0.292
17060W        W78349  11.234  18.580   1.346
17061W        W78350  26.490  32.064   2.762
17062W        W78351  19.040  26.654  14.954
17063W        W78352   2.822  44.002   2.334
17064W        W78353  17.772  26.975   2.356
17065W        W78354   7.895  10.337  14.854
17066W        W78355  43.414  39.829   2.254
17067W        W78356   2.457  12.683   2.374
17068W        W78357  19.040  14.141  13.922
17069W        W78358  39.416   3.935   4.339
17070W        W78359  26.180  43.838   0.818
17071W        W78360  35.570   0.442  12.847
17072W        W78361  27.090  19.070  11.124
17073W        W78362   1.384  23.104  13.958
17074W        W78363  16.695  19.158   0.849
17075W        W78364  40.318  42.322  12.465
17076W        W78365   4.703  22.682   3.155
17077W        W78366   5.418  18.636  14.298
17078W        W78367  24.114   4.777   2.696
17079W        W78368  33.944  44.976   0.319
17080W        W78369  37.873  26.032  12.435
17081W        W78370  17.669  27.051   1.920
17082W        W78371  28.031  33.448   1.779
17083W        W78372   3.824   3.746   1.876
17084W        W78373  36.540  37.361  10.989
17085W        W78374  17.301  41.330  10.963
17086W        W78375   7.828  22.155  13.832
17087W        W78376  24.976  38.968  11.858
17088W        W78377  38.555  19.225   0.408
17089W        W78378  27.542   2.897  12.534
17090W        W78379  34.067  17.177  13.542
17091W        W78380  27.683  21.167   0.900
17092W        W78381  34.059  22.718   0.359
17093W        W78382  14.243   7.376   0.466
17094W        W78383  22.121  31.460   2.782
17095W        W78384   3.339  41.413  13.051
17096W        W78385  38.895  28.671   2.800
17097W        W78386  11.144  11.759   2.714
17098W        W78387  36.570  14.116   2.305
17099W        W78388   2.248   0.837  12.015
17100W        W78389  22.563   4.728  11.930
17101W        W78390  38.074   5.201   2.816
17102W        W78391  13.294  19.726   3.225
17103W        W78392  36.872  18.240   0.958
17104W        W78393  25.977   3.803   0.871
17105W        W78394  39.381  43.302   0.481
17106W        W78395  27.160  26.037  10.546
17107W        W78396  38.056  40.499  10.097
17108W        W78397   5.203  44.991  10.463
17109W        W78398  20.203   3.747  12.965
17110W        W78399  20.143  28.522  13.008
17111W        W78400  43.897  23.498   3.290
17112W        W78401  38.348   5.768  14.444
17113W        W78402  41.494  10.826   1.367
17114W        W78403  25.598  12.834   1.810
17115W        W78404  14.745  37.863  13.022
17116W        W78405  17.252  11.743  10.964
17117W        W78406   5.872  38.004  12.509
17118W        W78407  23.558  33.448   3.275
17119W        W78408  33.571   6.428   3.334
17120W        W78409  37.037   5.355   2.251
17121W        W78410  37.405  15.303   3.284
17122W        W78411  25.661  12.700   0.357
17123W        W78412   6.341  31.970  11.501
17124W        W78413  23.071  33.874  11.861
17125W        W78414  17.265  32.073  10.964
17126W        W78415  22.121  23.655  14.440
17127W        W78416  10.336  32.522  13.409
17128W        W78417  12.714  32.992  14.860
17129W        W78418  40.407  10.795   2.741
17130W        W78419  27.586  44.312  12.907
17131W        W78420  15.204   8.229  12.580
17132W        W78421   8.324  15.145   3.845
17133W        W78422  29.640  18.786   0.412
17134W        W78423   0.768  34.907  11.115
17135W        W78424  32.599   4.259  13.536
17136W        W78425   1.872  36.918   2.198
17137W        W78426  17.758  21.610   3.868
17138W        W78427  25.704  41.831   0.868
17139W        W78428   0.900  41.030  12.530
17140W        W78429  31.567  44.826   3.791
17141W        W78430  24.654   8.897   4.755
17142W        W78431  27.605  16.278  14.346
17143W        W78432  22.720  38.983   5.168
17144W        W78433  11.849  22.640  13.309
17145W        W78434   6.765  21.079   4.237
17146W        W78435   1.745   4.873  12.092
17147W        W78436  34.045   5.884  14.396
17148W        W78437  44.822   4.710  12.539
17149W        W78438  18.270  27.090  14.497
17150W        W78439  27.962  36.096   2.332
17151W        W78440  38.870  31.115   3.254
17152W        W78441  11.199   6.778  13.936
17153W        W78442  14.671   6.838  13.991
17154W        W78443   5.794  30.966  10.993
17155W        W78444   3.881  31.534  14.017
17156W        W78445  21.601  13.177   3.226
17157W        W78446  23.131  41.993   4.251
17158W        W78447   2.729  10.671  12.838
17159W        W78448  26.053  20.093   3.253
17160W        W78449  12.711   6.912  11.421
17161W        W78450  31.939   4.706   2.353
17162W        W78451  16.702  44.359   4.789
17163W        W78452   7.897  22.729   1.766
17164W        W78453  39.328  15.690  12.541
17165W        W78454   8.354  11.849  14.304
17166W        W78455  12.830   3.223  12.887
17167W        W78456  43.373  21.250   1.242
17168W        W78457  30.585  10.352   1.808
17169W        W78458  44.450  32.529   1.390
17170W        W78459  23.179  16.728   2.246
17171W        W78460  41.521  28.947  10.591
17172W        W78461  31.057  43.414  12.011
17173W        W78462  16.090  22.733  14.425
17174W        W78463   9.375   6.394   4.612
17175W        W78464  10.186  29.589  11.414
17176W        W78465  28.640  32.503   2.246
17177W        W78466  20.614  39.548  11.592
17178W        W78467  38.935  36.572   3.847
17179W        W78468  32.075  39.406  11.973
17180W        W78469  26.981  31.425   0.760
17181W        W78470  42.460  43.303   3.200
17182W        W78471  39.492  22.113   2.888
17183W        W78472   7.327   2.305  14.784
17184W        W78473  23.079   3.748   3.674
17185W        W78474  40.007  14.128   2.662
17186W        W78475  39.464  37.870   3.639
17187W        W78476  43.375  19.756   5.317
17188W        W78477  27.581   9.686   1.286
17189W        W78478  42.285  12.357   4.655
17190W        W78479  32.956  34.881   3.240
17191W        W78480  38.558  11.844  13.917
17192W        W78481  25.124  16.274  10.644
17193W        W78482   7.731  37.874  13.907
17194W        W78483  10.651   9.669   4.749
17195W        W78484  10.824  10.264   0.409
17196W        W78485  27.132  21.157  13.521
17197W        W78486  37.030  34.522   0.789
17198W        W78487   8.263  27.982   3.830
17199W        W78488  41.879   3.806   1.236
17200W        W78489  15.239  27.012   1.446
17201W        W78490  43.887  27.078  11.425
17202W        W78491  34.410   7.316  14.998
17203W        W78492   4.943   8.674   5.295
17204W        W78493  29.091  39.913  12.037
17205W        W78494  44.871   8.324  14.895
17206W        W78495  36.365  21.089  10.932
17207W        W78496  16.714  14.310   3.713
17208W        W78497   2.299  10.179   1.350
17209W        W78498  33.466  13.815   4.671
17210W        W78499   0.393   1.295   2.779
17211W        W78500  19.764  41.882  13.965
17212W        W78501   2.372  39.042  14.516
17213W        W78502  33.395  37.386   2.671
17214W        W78503  15.256  30.922   1.829
17215W        W78504   8.692  37.841   1.264
17216W        W78505  39.450  11.783   0.914
17217W        W78506  18.637  36.870   3.707
17218W        W78507   6.207  19.236   1.376
17219W        W78508  42.332  25.609  12.374
17220W        W78509  39.484  38.558  14.829
17221W        W78510  18.199  25.141   3.813
17222W        W78511  17.662  44.284   2.313
17223W        W78512  35.013   3.917  12.346
17224W        W78513  12.284   4.265   2.387
17225W        W78514  18.153  44.961   3.294
17226W        W78515  23.991   0.971  14.862
17227W        W78516  43.512  35.001   0.354
17228W        W78517  31.937  37.403  14.786
17229W        W78518  23.579  23.191  13.487
17230W        W78519  24.503  18.628   1.841
17231W        W78520  12.611  31.493   3.277
17232W        W78521  31.948  33.500   4.273
17233W        W78522  36.956  44.331  12.077
17234W        W78523  15.803   7.318   3.652
17235W        W78524  19.697  23.073  11.461
17236W        W78525  22.631  21.664   4.730
17237W        W78526  42.413  38.516  12.422
17238W        W78527  38.934  23.065   4.314
17239W        W78528  26.109   4.254  10.603
17240W        W78529   1.886  40.977   2.217
17241W        W78530   6.833  24.707   2.375
17242W        W78531  18.762  22.211   3.177
17243W        W78532  29.927  41.482  11.979
17244W        W78533  13.640  42.848  10.597
17245W        W78534  39.847   6.905  13.518
17246W        W78535  36.519  16.078  10.528
17247W        W78536  19.731  28.000   1.371
17248W        W78537  25.578  16.075   0.397
17249W        W78538   2.352  12.341  12.861
17250W        W78539  20.232  24.070   4.726
17251W        W78540  25.207  43.771   1.762
17252W        W78541  26.176   1.256  14.798
17253W        W78542   6.799  30.145  10.999
17254W        W78543  34.908  28.549  13.324
17255W        W78544  38.889  43.471   3.233
17256W        W78545  29.423  31.147   1.777
17257W        W78546  41.850  17.158  11.860
17258W        W78547  33.567  11.808   0.933
17259W        W78548  36.532  37.466   3.214
17260W        W78549  22.687  33.038  11.078
17261W        W78550   6.908   0.764   2.254
17262W        W78551  31.125  28.607   2.249
17263W        W78552   9.795  43.430   3.756
17264W        W78553  27.018  15.639  12.382
17265W        W78554  22.708  44.852  12.918
17266W        W78555  14.304  18.769   5.302
17267W        W78556  38.398  23.190   4.837
17268W        W78557  32.091   5.301   0.411
17269W        W78558  34.074  22.056   1.725
17270W        W78559  26.155   3.240  10.578
17271W        W78560  26.011  27.567   3.213
17272W        W78561  28.587  20.552   4.731
17273W        W78562   9.776   5.896  10.499
17274W        W78563  24.701   0.759  10.437
17275W        W78564  11.312   6.340  12.498
17276W        W78565   2.797  16.809  11.881
17277W        W78566  14.686  25.980   1.886
17278W        W78567   7.318  32.035   3.287
17279W        W78568  34.488  18.583   1.837
17280W        W78569  29.526  26.530  11.450
17281W        W78570  20.204   4.435  14.973
17282W        W78571  21.071   9.751   3.837
17283W        W78572  18.172  34.450  12.539
17284W        W78573   1.768  38.398  14.329
17285W        W78574  21.544   6.870  11.905
17286W        W78575  14.769   0.267  14.927
17287W        W78576  39.826  17.633   3.187
17288W        W78577  19.240  43.486   2.752
17289W        W78578  41.824  41.036  11.993
17290W        W78579  43.914  18.100   4.227
17291W        W78580  35.956  32.069   1.325
17292W        W78581  11.336  16.198  11.577
17293W        W78582  22.537  13.206   3.352
17294W        W78583  22.136  27.018   4.185
17295W        W78584   4.415  44.501   4.633
17296W        W78585   2.769   8.664  14.454
17297W        W78586   0.431  27.580   1.232
17298W        W78587  24.666  11.201   0.797
17299W        W78588  10.243   6.884   0.776
17300W        W78589  40.419  13.785   4.785
17301W        W78590   7.278  30.993  10.604
17302W        W78591   3.306   4.899  11.055
17303W        W78592   5.208  26.125  14.398
17304W        W78593  24.643   0.362   1.907
17305W        W78594  23.718  32.518   3.826
17306W        W78595  19.710  41.435   1.429
17307W        W78596   6.389  24.031   4.282
17308W        W78597  17.557   1.811  14.960
17309W        W78598  39.363   2.902   3.235
17310W        W78599   6.269  31.936   3.739
17311W        W78600   7.729  19.659   3.172
17312W        W78601  23.115   1.371  13.440
17313W        W78602  14.721  10.163   1.226
17314W        W78603  38.828  13.819  11.962
17315W        W78604  35.449  37.365   0.287
17316W        W78605  44.769  14.301   1.355
17317W        W78606   3.227  13.749   0.880
17318W        W78607  33.587  29.593   0.845
17319W        W78608  27.636  27.519   3.801
17320W        W78609  41.471  42.932   0.889
17321W        W78610  22.699  23.037  14.378
17322W        W78611  35.929  44.929   2.255
17323W        W78612   6.348  42.442   0.326
17324W        W78613   3.878  24.522  12.407
17325W        W78614   7.255  41.008   4.259
17326W        W78615  41.928  22.730  11.445
17327W        W78616  38.571   9.201  13.894
17328W        W78617  40.921  40.851  11.581
17329W        W78618  32.962  32.944   0.799
17330W        W78619  17.593  35.465  13.011
17331W        W78620  32.405  24.078  12.541
17332W        W78621  22.501  37.336   4.614
17333W        W78622  13.253  43.883  14.416
17334W        W78623  26.459  31.609  14.005
17335W        W78624  35.369  26.541   1.790
17336W        W78625   2.723  24.545   2.185
17337W        W78626  17.236  23.200  12.455
17338W        W78627  23.996  27.061   0.418
17339W        W78628  17.213  33.400   2.663
17340W        W78629  41.461  41.409  13.046
17341W        W78630  34.484  42.980   1.907
17342W        W78631   3.280  20.698   2.665
17343W        W78632  27.660  40.931   1.715
17344W        W78633  33.104   4.248   0.370
17345W        W78634  20.100  43.829  13.802
17346W        W78635  38.948  44.505  11.994
17347W        W78636  19.605   1.850   1.700
17348W        W78637   9.194  40.413  12.848
17349W        W78638   6.301  19.653  12.853
17350W        W78639  13.190  36.571   0.421
17351W        W78640  23.701  26.030  14.964
17352W        W78641  30.123   7.905   1.837
17353W        W78642  17.682  36.446  13.959
17354W        W78643  40.485  10.153  14.760
17355W        W78644  42.391  26.188  10.920
17356W        W78645  32.518  21.134   3.225
17357W        W78646   4.757  34.019   0.898
17358W        W78647  43.934  10.818  13.355
17359W        W78648  32.491   5.244  10.487
17360W        W78649  24.668  19.650  13.329
17361W        W78650   3.366  25.206   1.905
17362W        W78651  43.895  12.787  14.940
17363W        W78652   0.816  32.946   1.757
17364W        W78653  19.259  26.017   0.748
17365W        W78654  10.170  20.638   4.639
17366W        W78655   9.766  29.031  11.925
17367W        W78656  23.084  13.279  11.093
17368W        W78657  18.619  16.278   2.727
17369W        W78658  20.149  16.214   1.262
17370W        W78659  43.775  11.265   2.854
17371W        W78660  42.027   9.332  13.450
17372W        W78661  23.150  36.507  14.395
17373W        W78662  33.409  15.242  13.344
17374W        W78663  19.247   2.268   4.337
17375W        W78664  34.094  14.736   1.324
17376W        W78665   2.888   2.330   1.724
17377W        W78666  15.238   9.194   0.849
17378W        W78667  29.079  34.056  10.929
17379W        W78668  18.768   0.417   5.293
17380W        W78669  39.466  38.373  12.901
17381W        W78670  12.727  17.579   0.330
17382W        W78671  13.759  23.512   2.803
17383W        W78672  15.588  42.905   0.261
17384W        W78673  15.197  34.474   0.804
17385W        W78674  24.226  18.714  11.046
17386W        W78675   4.792  34.399   0.251
17387W        W78676  38.915   1.780   1.303
17388W        W78677  33.077  14.702   0.887
17389W        W78678  42.027  43.974   1.286
17390W        W78679  34.538  13.745  10.907
17391W        W78680  41.369  16.686  13.349
17392W        W78681  10.229   3.726  11.067
17393W        W78682   8.796  36.387   5.264
17394W        W78683  37.555  15.673  10.931
17395W        W78684  28.039  34.482  11.939
17396W        W78685  35.060   1.864   4.293
17397W        W78686  11.802   0.754  12.957
17398W        W78687   5.289  17.254   2.222
17399W        W78688  30.543  19.646  13.463
17400W        W78689  17.739  21.608  11.562
17401W        W78690  17.064   9.840  10.504
17402W        W78691  41.856  13.758   0.301
17403W        W78692  38.897  20.089  14.998
17404W        W78693  12.619  13.260  12.484
17405W        W78694  24.178  39.528   3.676
17406W        W78695  31.105   6.403   1.859
17407W        W78696  40.377  21.580  14.789
17408W        W78697  17.795   8.351   2.180
17409W        W78698   7.812  17.208  14.446
17410W        W78699  12.626  23.728   1.446
17411W        W78700  36.096  19.092  11.437
17412W        W78701  20.093  24.132  11.929
17413W        W78702  13.166  36.581   0.870
17414W        W78703   7.325  37.012   0.291
17415W        W78704   5.258  37.060   2.745
17416W        W78705  28.134   0.788   2.323
17417W        W78706  32.624  39.451  11.944
17418W        W78707   6.348  20.241  11.963
17419W        W78708  10.643  18.064  11.528
17420W        W78709  11.775   5.805   1.404
17421W        W78710  22.674   5.690   4.121
17422W        W78711  41.341  41.308   3.352
17423W        W78712  43.012  25.978  11.418
17424W        W78713  40.946  22.622   2.862
17425W        W78714  26.621   6.346  10.407
17426W        W78715   9.867  30.975   5.736
17427W        W78716   0.844  15.281  13.832
17428W        W78717  32.010   2.284  12.866
17429W        W78718  15.803  32.422  12.368
17430W        W78719   1.403   8.307  13.925
17431W        W78720  29.476  31.924  12.028
17432W        W78721  42.841  42.410  12.371
17433W        W78722  18.558  27.574  11.605
17434W        W78723  16.118  25.687   0.301
17435W        W78724  21.742  39.503  10.507
17436W        W78725   4.828  29.071   1.854
17437W        W78726  32.539  26.628   2.245
17438W        W78727   2.944  18.716  13.983
17439W        W78728  13.327  15.196   3.183
17440W        W78729  24.543  37.991  11.935
17441W        W78730   0.876  36.525   4.658
17442W        W78731  35.476  39.351   3.854
17443W        W78732   8.402  14.311   0.863
17444W        W78733  16.250  29.668  13.043
17445W        W78734  38.041   7.738   4.125
17446W        W78735  23.668   7.273   2.223
17447W        W78736  41.433   9.768  11.398
17448W        W78737  29.954   7.334  13.483
17449W        W78738  25.171  20.534  10.471
17450W        W78739   3.718  13.701   2.701
17451W        W78740   1.431  44.368   4.171
17452W        W78741   4.394  40.952   1.842
17453W        W78742  10.360  21.591  14.284
17454W        W78743   9.168   3.309  11.440
17455W        W78744  29.595  30.443  13.923
17456W        W78745  21.589  30.497   1.863
17457W        W78746  29.509   0.869  10.636
17458W        W78747  27.624  20.695  13.365
17459W        W78748  26.134  14.229  14.295
17460W        W78749  15.769  10.871  13.493
17461W        W78750  25.163  12.312  11.395
17462W        W78751  16.806  37.458  13.796
17463W        W78752   7.304  36.956   2.833
17464W        W78753  28.029   9.253  12.981
17465W        W78754  11.857  40.879   4.136
17466W        W78755  14.295  19.213  14.494
17467W        W78756   4.228  42.526  10.964
17468W        W78757  10.723  24.652  13.964
17469W        W78758  44.004  34.550  14.444
17470W        W78759  34.491  32.550  10.632
17471W        W78760  38.825  27.970   4.719
17472W        W78761  25.978  18.789   3.708
17473W        W78762  11.763  40.000   2.779
17474W        W78763   0.262  25.996   1.210
17475W        W78764  33.913  13.203   9.939
17476W        W78765  26.645  32.915  10.409
17477W        W78766   6.393  19.683   3.633
17478W        W78767  40.854  24.552  10.533
17479W        W78768  36.893  13.253   1.357
17480W        W78769  23.721  44.952  13.939
17481W        W78770  44.486  13.267  11.054
17482W        W78771   2.930  25.496  13.021
17483W        W78772  36.873  26.657   0.329
17484W        W78773   7.838  39.388   1.397
17485W        W78774  26.478  25.021  11.443
17486W        W78775   5.846   9.718  11.461
17487W        W78776  41.922  18.672   5.607
17488W        W78777  36.467  40.800  13.899
17489W        W78778   6.818  22.020   4.642
17490W        W78779  18.239  23.622  11.548
17491W        W78780  16.788  38.868  13.939
17492W        W78781  16.609  21.611   3.734
17493W        W78782  39.953  44.487   2.302
17494W        W78783  33.091  26.066  10.474
17495W        W78784  17.096  26.132  11.099
17496W        W78785  15.291  20.085  11.043
17497W        W78786  26.569  43.377  11.986
17498W        W78787  36.985  12.272  12.884
17499W        W78788  36.439  17.663   2.301
17500W        W78789  29.621  38.400   0.882
17501W        W78790  40.992   2.227   3.370
17502W        W78791  20.190  11.144   2.707
17503W        W78792  27.601  11.173   1.388
17504W        W78793  19.735  22.018   4.658
17505W        W78794  29.554   8.223   3.785
17506W        W78795  14.108   3.288   0.918
17507W        W78796  31.501  24.586  13.502
17508W        W78797  16.263  44.898   1.749
17509W        W78798  44.824   9.328   0.421
17510W        W78799  31.616  23.655  12.387
17511W        W78800   3.819  39.331  11.429
17512W        W78801  24.519   8.188   0.740
17513W        W78802  18.063   5.319   2.815
17514W        W78803  23.023   8.784   0.940
17515W        W78804  35.464  18.715   4.680
17516W        W78805  13.254  13.154   2.274
17517W        W78806  43.848   2.957   1.812
17518W        W78807  40.521  10.674  12.382
17519W        W78808  31.059   8.794   1.322
17520W        W78809  35.878  21.082   4.158
17521W        W78810  20.583  10.780   1.376
17522W        W78811  33.588   0.988   0.919
17523W        W78812  10.681  40.476   3.278
17524W        W78813  39.525  40.988   0.243
17525W        W78814  39.502   7.248   1.431
17526W        W78815   1.885  41.829   3.738
17527W        W78816   4.869  22.032   1.432
17528W        W78817  13.632  27.455  13.438
17529W        W78818   1.890  41.924  14.328
17530W        W78819  21.569  30.559   4.259
17531W        W78820  13.823  21.026  14.279
17532W        W78821  37.045   8.812   2.377
17533W        W78822  10.740  41.941  13.028
17534W        W78823  30.502  30.078   0.735
17535W        W78824   5.758  38.883   3.757
17536W        W78825   9.868   5.766  12.983
17537W        W78826   5.916  24.136  13.423
17538W        W78827  42.371   8.767  14.455
17539W        W78828  18.244  16.298   3.852
17540W        W78829  10.742   2.238   4.210
17541W        W78830  24.655  10.284  14.346
17542W        W78831   3.456  42.398   1.403
17543W        W78832  28.165  40.005   1.724
17544W        W78833  28.978  38.441  10.535
17545W        W78834   9.730   2.814   1.743
17546W        W78835  40.011   7.342  11.125
17547W        W78836   3.904  37.568  10.968
17548W        W78837  25.115  28.515  11.545
17549W        W78838   3.715  18.655  11.119
17550W        W78839  25.551  23.137  12.915
17551W        W78840  35.443   0.855   0.456
17552W        W78841  44.824  14.710   0.890
17553W        W78842   6.319  27.538   3.323
17554W        W78843   8.839  41.411   1.259
17555W        W78844  21.689   6.754   1.255
17556W        W78845  29.615   6.358  12.966
17557W        W78846  29.943   8.674   3.303
17558W        W78847   5.753   2.443   1.328
17559W        W78848  38.503   1.908  12.832
17560W        W78849   5.888   4.211   1.857
17561W        W78850  33.530  33.930  12.361
17562W        W78851  30.057   7.774   3.194
17563W        W78852   1.247   7.409  12.561
17564W        W78853  16.192   0.748   3.774
17565W        W78854  24.199  42.953   4.122
17566W        W78855  44.350  18.103   1.910
17567W        W78856   2.366  38.536  11.947
17568W        W78857  11.215  26.577  12.027
17569W        W78858  32.491  20.633   2.211
17570W        W78859  13.691  41.794   1.394
17571W        W78860  43.294  25.047  14.951
17572W        W78861  40.844  35.985   0.339
17573W        W78862   9.799   0.279   4.204
17574W        W78863  28.544  16.147   1.375
17575W        W78864  15.326  20.554   3.163
17576W        W78865  42.405   0.376  14.909
17577W        W78866  13.740  22.503   4.752
17578W        W78867  24.666  29.532  12.039
17579W        W78868  36.546  29.102  10.550
17580W        W78869  41.440  21.669  10.537
17581W        W78870  20.595  15.807  14.779
17582W        W78871  17.760   3.400  11.537
17583W        W78872   4.901   0.906   4.147
17584W        W78873  41.424   4.358  12.067
17585W        W78874  28.080  23.624   4.148
17586W        W78875  33.527  19.234  12.902
17587W        W78876  12.805  16.755   3.152
17588W        W78877  43.883  23.519   3.665
17589W        W78878  15.133  22.158  11.991
17590W        W78879  44.824  32.535  10.946
17591W        W78880  19.661   6.325   3.287
17592W        W78881  32.413  16.751   4.714
17593W        W78882  29.064  13.173  11.981
17594W        W78883  33.010  13.815  10.892
17595W        W78884  27.051  23.044   3.371
17596W        W78885   6.312  26.195  10.968
17597W        W78886  26.140  36.934   3.227
17598W        W78887   7.297  11.239   3.822
17599W        W78888  28.442  28.484  14.313
17600W        W78889  38.879  26.026   0.772
17601W        W78890  27.103  25.468   2.841
17602W        W78891   7.821   9.265  11.891
17603W        W78892  38.524  42.364   3.152
17604W        W78893  21.720  30.966  13.965
17605W        W78894  31.630  37.873   3.843
17606W        W78895   6.779   2.306   1.815
17607W        W78896  18.707   3.446  10.485
17608W        W78897   7.371  27.085   0.828
17609W        W78898  41.299  22.183   4.767
17610W        W78899   9.359  11.277  12.854
17611W        W78900   6.809  43.903   4.824
17612W        W78901  23.161  21.617   0.795
17613W        W78902   0.470  22.035  10.925
17614W        W78903  34.062  25.633  13.977
17615W        W78904  43.828   7.216  10.052
17616W        W78905  32.604  44.446   2.719
17617W        W78906  30.085  14.239   0.752
17618W        W78907   9.170  36.878  10.893
17619W        W78908  39.037  20.576  14.914
17620W        W78909  27.170  16.771   2.192
17621W        W78910  42.938  13.293  13.471
17622W        W78911  15.096  15.590   4.736
17623W        W78912  31.021  40.456  12.090
17624W        W78913  44.368   5.311  11.918
17625W        W78914  23.181   9.852   0.399
17626W        W78915  23.142  16.580   0.897
17627W        W78916  12.753  14.715   2.207
17628W        W78917  11.682  26.022   3.807
17629W        W78918  39.064  28.483  10.987
17630W        W78919  16.236  26.012   2.674
17631W        W78920  13.651  10.249  13.311
17632W        W78921  16.178  13.834  13.033
17633W        W78922   0.407  20.208   2.738
17634W        W78923   2.226  27.157  10.616
17635W        W78924  29.484  39.994  10.560
17636W        W78925  20.159  39.443   2.729
17637W        W78926  29.669  19.088   1.398
17638W        W78927  15.089  34.109  10.599
17639W        W78928  23.049  29.068   1.212
17640W        W78929  25.993  23.490  14.285
17641W        W78930  24.028  11.868   3.295
17642W        W78931  27.533  42.878  12.430
17643W        W78932  41.392   7.897   1.406
17644W        W78933   1.817  21.668  11.861
17645W        W78934  14.617  26.482  10.995
17646W        W78935   0.857  19.656   4.300
17647W        W78936  25.533   3.228  11.541
17648W        W78937   5.393  24.027  12.390
17649W        W78938  36.464  17.602   1.718
17650W        W78939   2.735   2.745  14.471
17651W        W78940   5.385  28.934   2.704
17652W        W78941  43.971  20.133  12.071
17653W        W78942   7.886   8.857   2.753
17654W        W78943  34.094  18.747  12.435
17655W        W78944  36.904  19.119  12.496
17656W        W78945   6.404   0.852   4.611
17657W        W78946  18.250  16.244   1.213
17658W        W78947  14.306  18.178   4.641
17659W        W78948  43.405   5.207   2.834
17660W        W78949  21.133   0.927   1.727
17661W        W78950   0.392   8.388  13.320
17662W        W78951   4.833  43.511  11.950
17663W        W78952  18.735   3.734   3.819
17664W        W78953  24.074  41.032  10.534
17665W        W78954  38.025  43.486   4.232
17666W        W78955   6.846  25.638  11.446
17667W        W78956   9.684  20.176   4.757
17668W        W78957   3.920  37.532   0.783
17669W        W78958  19.774  11.180   0.483
17670W        W78959  26.194   5.359  14.313
17671W        W78960   7.857   6.849  11.105
17672W        W78961  41.388   9.811   2.699
17673W        W78962  23.995  42.864  10.579
17674W        W78963  15.798   1.834  11.073
17675W        W78964   1.799  30.983   3.867
17676W        W78965  37.939   8.873  13.413
17677W        W78966  40.364   9.795  13.034
17678W        W78967  27.589  39.003   4.648
17679W        W78968  24.589  31.134  13.412
17680W        W78969  15.180  29.002   4.664
17681W        W78970  37.401   0.447   3.255
17682W        W78971   4.354   9.161   4.638
17683W        W78972  31.497  16.764  13.954
17684W        W78973  41.966   4.885   5.274
17685W        W78974  35.863  21.708   4.726
17686W        W78975  18.678  33.436   3.756
17687W        W78976  29.001  39.541  13.376
17688W        W78977  38.008  24.167   0.351
17689W        W78978  43.313  16.243   1.242
17690W        W78979  29.999  19.747  14.472
17691W        W78980   4.448  11.671  11.873
17692W        W78981  12.143   3.711   3.749
17693W        W78982  15.596  14.623   1.705
17694W        W78983   4.867  34.463   2.332
17695W        W78984  17.607  25.080  13.436
17696W        W78985   6.182  14.293  12.508
17697W        W78986  42.469   3.354  13.486
17698W        W78987  30.646  24.597   2.812
17699W        W78988  18.107   1.474  11.422
17700W        W78989  44.368  39.389  13.819
17701W        W78990  36.077  31.052  11.122
17702W        W78991  27.087   7.834   0.400
17703W        W78992  25.546  27.574   2.862
17704W        W78993  27.637  11.336   4.333
17705W        W78994  41.396  37.963   4.821
17706W        W78995  34.559  44.939  11.887
17707W        W78996  18.559   5.802  12.462
17708W        W78997  25.035  12.194   1.738
17709W        W78998  34.961   4.740   3.379
17710W        W78999   7.332  29.146   0.752
17711W        W79000  26.700  21.577   5.237
17712W        W79001  38.442  16.088   9.514
17713W        W79002  30.994  29.562   4.219
17714W        W79003  12.819   6.292   2.277
17715W        W79004  37.566  26.159   2.335
17716W        W79005  39.457  16.778  11.080
17717W        W79006  17.230  21.042   3.164
17718W        W79007  13.799   6.875  14.284
17719W        W79008  21.228  37.366   2.805
17720W        W79009  27.033  20.084   0.779
17721W        W79010  36.092   9.285   2.728
17722W        W79011   7.341  35.511  13.032
17723W        W79012   4.757  36.869   3.785
17724W        W79013  34.452   4.380  14.291
17725W        W79014   4.858  38.014  11.970
17726W        W79015  27.192   0.413   1.789
17727W        W79016  28.108  40.883  11.603
17728W        W79017   6.882  34.600   1.261
17729W        W79018  19.216  31.575   2.209
17730W        W79019   7.792   3.765  11.087
17731W        W79020  40.350  35.050   0.466
17732W        W79021  10.827  27.992   4.698
17733W        W79022  26.687   2.445   1.918
17734W        W79023  42.412  37.978   4.163
17735W        W79024  31.447  21.090   2.843
17736W        W79025   7.346  19.677  10.511
17737W        W79026   9.669  11.292  14.899
17738W        W79027  12.161   6.889   3.328
17739W        W79028   4.433   9.714  10.464
17740W        W79029   6.842  10.696  14.870
17741W        W79030  14.616  35.517  14.510
17742W        W79031  11.713  20.217  12.021
17743W        W79032  30.026   3.953  10.467
17744W        W79033   0.331  40.486  12.956
17745W        W79034   8.835  36.369  10.990
17746W        W79035  40.470  40.327  14.774
17747W        W79036  38.536  32.955  10.931
17748W        W79037   2.239  31.465   1.705
17749W        W79038   3.400   6.863   0.826
17750W        W79039  42.442   5.775  14.326
17751W        W79040  30.958  34.919  14.996
17752W        W79041  11.354  41.925  14.853
17753W        W79042  19.617  34.934  14.281
17754W        W79043   1.298  41.391   0.734
17755W        W79044  44.925  39.343  13.369
17756W        W79045  38.877   5.766   3.692
17757W        W79046  23.685  30.153   4.161
17758W        W79047   5.826  16.583   0.327
17759W        W79048   2.941  19.557  14.494
17760W        W79049  14.728  28.566  14.790
17761W        W79050   9.340   5.747   2.757
17762W        W79051  44.261  29.120   2.721
17763W        W79052  42.890  44.466   3.239
17764W        W79053  26.597  40.039   3.228
17765W        W79054  27.948  23.498  14.856
17766W        W79055  17.556  22.703   1.403
17767W        W79056  35.914  15.219   3.159
17768W        W79057  27.551   1.906  13.972
17769W        W79058  25.707  33.476   2.760
17770W        W79059   9.735  17.647   2.397
17771W        W79060   2.418  14.634   0.357
17772W        W79061  27.518   1.750  12.354
17773W        W79062  33.599   0.418   3.258
17774W        W79063   2.846  25.988  12.524
17775W        W79064  38.461  40.053   2.403
17776W        W79065   4.766  39.037   3.723
17777W        W79066  20.163  13.282   1.437
17778W        W79067   6.272   5.264   1.297
17779W        W79068  34.958  14.268  10.953
17780W        W79069  17.096  20.141  14.390
17781W        W79070  26.629  19.595  12.073
17782W        W79071  12.624  31.909   4.312
17783W        W79072  44.898  44.500  11.548
17784W        W79073  15.121  29.128  13.997
17785W        W79074  21.196  13.284   4.255
17786W        W79075  42.497  29.987   2.307
17787W        W79076  16.684  43.906   1.287
17788W        W79077  43.281  25.068   2.415
17789W        W79078  21.150  17.086  11.591
17790W        W79079  28.462  36.062  11.387
17791W        W79080  28.990  44.802  13.047
17792W        W79081  30.497  18.567  11.880
17793W        W79082   0.770  36.878   4.754
17794W        W79083   1.359   1.352  11.501
17795W        W79084   2.923  11.621  15.000
17796W        W79085  18.258  36.871  10.554
17797W        W79086   2.741  37.076   2.878
17798W        W79087  19.142  42.797  14.935
17799W        W79088   2.757   0.924  13.053
17800W        W79089  40.537   1.357   2.185
17801W        W79090  41.914   0.259  12.836
17802W        W79091  28.471  36.389   0.365
17803W        W79092   7.349   6.297   3.640
17804W        W79093  34.877   2.366  11.577
17805W        W79094  33.028  42.507  10.448
17806W        W79095  20.545  21.078  11.412
17807W        W79096  34.496  32.067  12.458
17808W        W79097  39.869  12.666   0.296
17809W        W79098  16.151   7.218  14.881
17810W        W79099  21.583  15.785   1.867
17811W        W79100  38.016  35.363  14.776
17812W        W79101   6.323   0.373   2.400
17813W        W79102  12.857  42.492  13.946
17814W        W79103  27.496  25.541  14.008
17815W        W79104  42.935   9.735  13.396
17816W        W79105  41.448  17.673   3.305
17817W        W79106  12.242  34.884  12.029
17818W        W79107  39.536  24.104   1.883
17819W        W79108  21.733  37.043   4.810
17820W        W79109  27.083  24.122  11.536
17821W        W79110  12.224  25.613   3.642
17822W        W79111  35.072  23.092   0.782
17823W        W79112  22.537   2.405  14.819
17824W        W79113  17.271  18.208   5.183
17825W        W79114  10.299  11.713  12.879
17826W        W79115   2.271  43.484   0.423
17827W        W79116  44.394  16.576  11.897
17828W        W79117  40.826  27.671  11.580
17829W        W79118  35.010   2.733   2.725
17830W        W79119  13.752   7.338   0.888
17831W        W79120  16.573  15.679   0.281
17832W        W79121  42.521  26.461  13.904
17833W        W79122  38.929  22.670  13.432
17834W        W79123  27.031  27.474   2.776
17835W        W79124  13.118   9.168  11.523
17836W        W79125  14.832  33.462  14.926
17837W        W79126  35.562  25.211  13.462
17838W        W79127  43.970  44.921  14.818
17839W        W79128  14.228  30.150   1.252
17840W        W79129   2.225  26.966  12.996
17841W        W79130  16.743   5.816   3.280
17842W        W79131   4.414  22.207  12.084
17843W        W79132  30.117  25.035   2.758
17844W        W79133  33.956  39.979   1.820
17845W        W79134   6.819  32.960   2.317
17846W        W79135  36.358  22.521   2.335
17847W        W79136  41.361   3.877   2.670
17848W        W79137  34.956  21.553  12.880
17849W        W79138  44.325  27.997   3.667
17850W        W79139  35.064  41.004  10.993
17851W        W79140  27.020  13.129  10.983
17852W        W79141   0.279  21.548  11.105
17853W        W79142  17.209  42.335  13.436
17854W        W79143   9.661  13.271   3.785
17855W        W79144   0.791  14.269  12.844
17856W        W79145  27.592  18.272  14.964
17857W        W79146  27.452  11.350   5.132
17858W        W79147  15.798  40.516   4.205
17859W        W79148  44.861   5.840   2.741
17860W        W79149  38.919  34.116   2.202
17861W        W79150   0.274  16.300   2.410
17862W        W79151   4.215  29.661   2.279
17863W        W79152  22.576  27.113  10.640
17864W        W79153  37.908  23.201   3.305
17865W        W79154   8.298   1.765  13.906
17866W        W79155  28.537   5.781  11.588
17867W        W79156   0.798  20.124   4.257
17868W        W79157  17.634  16.767  11.443
17869W        W79158  25.138  24.212   9.633
17870W        W79159   0.782  23.647  13.441
17871W        W79160  26.574   6.323   1.350
17872W        W79161  30.637  18.182  13.319
17873W        W79162  29.516  12.159   2.756
17874W        W79163  12.672  30.545   1.896
17875W        W79164  22.726   7.223   1.861
17876W        W79165  19.090  10.227  11.437
17877W        W79166  27.612   8.862   1.245
17878W        W79167  19.284  38.430   4.658
17879W        W79168  34.471  25.532   2.304
17880W        W79169  35.943   5.317  14.835
17881W        W79170  14.107  28.068   3.772
17882W        W79171   6.756   6.267   0.364
17883W        W79172   4.373  26.956  11.046
17884W        W79173   2.259  23.232   4.700
17885W        W79174  33.971  31.103   4.332
17886W        W79175  30.135  34.549  10.573
17887W        W79176  43.408  29.159   3.758
17888W        W79177  12.342  40.434   3.298
17889W        W79178  41.993  21.077  10.913
17890W        W79179  10.724  24.182   9.999
17891W        W79180  22.716  37.471  12.506
17892W        W79181   9.311  20.063  11.525
17893W        W79182   2.751  40.956   4.820
17894W        W79183   6.721  15.639   4.633
17895W        W79184  18.185  10.151   1.446
17896W        W79185  44.361  35.548   4.638
17897W        W79186  21.259  30.995  13.488
17898W        W79187   4.376   9.673   4.815
17899W        W79188  43.281  15.111   0.758
17900W        W79189  32.474  26.574  12.878
17901W        W79190  41.907  23.221  14.343
17902W        W79191  15.100  10.145   2.893
17903W        W79192  39.527  29.150   3.374
17904W        W79193  13.279  40.955   9.953
17905W        W79194  36.941  33.492   2.820
17906W        W79195   9.281  34.513   0.275
17907W        W79196  44.935  12.306   3.686
17908W        W79197  27.531  43.860   0.285
17909W        W79198  44.981  10.667   2.814
17910W        W79199  23.575  10.727   4.667
17911W        W79200  32.498  25.169   3.776
17912W        W79201   1.830   0.379  10.921
17913W        W79202  14.797  19.567  12.850
17914W        W79203  21.604  29.161  10.898
17915W        W79204   9.790  19.111  10.940
17916W        W79205  13.709  30.152   2.811
17917W        W79206  11.647  11.751  14.931
17918W        W79207  25.700  43.338   3.703
17919W        W79208  11.715   1.408   3.776
17920W        W79209  18.154  42.443   0.255
17921W        W79210  30.985  25.594  13.380
17922W        W79211  35.857   8.292   2.359
17923W        W79212  23.703  12.796   0.436
17924W        W79213  41.007   8.882   3.760
17925W        W79214  43.900  11.824   1.912
17926W        W79215   2.369   1.957  11.497
17927W        W79216  33.441  40.032   3.847
17928W        W79217  26.622  33.019   1.833
17929W        W79218  18.268  27.101  11.525
17930W        W79219  16.702  23.505   3.707
17931W        W79220   1.330  44.478  11.514
17932W        W79221  28.642  38.847   1.789
17933W        W79222  28.474  18.727  11.592
17934W        W79223  17.228  21.577  13.904
17935W        W79224  33.882  30.431  11.941
17936W        W79225   8.829  13.270   5.089
17937W        W79226  15.272  25.658  12.939
17938W        W79227  33.945  39.416  10.933
17939W        W79228   0.863  26.168   0.891
17940W        W79229  40.338   3.260   2.901
17941W        W79230  21.694  33.064  13.853
17942W        W79231  36.055  44.979   0.344
17943W        W79232   7.241  22.731   0.829
17944W        W79233   8.723  29.021   0.770
17945W        W79234  24.584  21.239   9.475
17946W        W79235   9.666   8.246   1.824
17947W        W79236  43.324  35.041  11.111
17948W        W79237   3.926  32.453  10.639
17949W        W79238   2.468   3.936  14.275
17950W        W79239  35.071  42.853  10.942
17951W        W79240  14.265  37.850   0.244
17952W        W79241   7.726  13.713   4.129
17953W        W79242   7.206   3.357   0.313
17954W        W79243  15.737   8.246   3.748
17955W        W79244   2.750  34.875   3.654
17956W        W79245   1.758  37.359   0.801
17957W        W79246   2.470  18.565  12.935
17958W        W79247  11.278  40.867   0.844
17959W        W79248   2.942  26.988   1.229
17960W        W79249  30.651  32.071  11.065
17961W        W79250  20.159  17.125   5.318
17962W        W79251   6.728  43.788   3.338
17963W        W79252   2.723  32.957   2.810
17964W        W79253  23.042  41.993  13.924
17965W        W79254  22.995  38.885  12.476
17966W        W79255  42.796  44.405   2.748
17967W        W79256  23.499  19.728  12.375
17968W        W79257   3.234  33.942  13.822
17969W        W79258  25.624  31.535  12.533
17970W        W79259  40.409  30.538   2.897
17971W        W79260   7.717  28.546  10.536
17972W        W79261  19.752  30.530   1.346
17973W        W79262  24.680   0.353  12.051
17974W        W79263  15.663  28.674   4.321
17975W        W79264  37.017   3.304   4.803
17976W        W79265  28.065  22.695  11.120
17977W        W79266  19.651  24.582  10.594
17978W        W79267  28.456  16.120  14.849
17979W        W79268   3.226   0.777  12.993
17980W        W79269  16.289   9.760  11.587
17981W        W79270   1.770  32.496   3.227
17982W        W79271  37.057  38.028   1.908
17983W        W79272  39.943  21.555  10.428
17984W        W79273  35.568  35.057   2.742
17985W        W79274  26.566  28.584  12.831
17986W        W79275  44.832  35.886  11.409
17987W        W79276  42.439   1.933  12.885
17988W        W79277   8.837  12.674   2.261
17989W        W79278  34.104  20.612  11.612
17990W        W79279  13.281   5.751  10.504
17991W        W79280  38.935  18.211  11.470
17992W        W79281  12.328  10.781  12.493
17993W        W79282  26.678  12.814   2.740
17994W        W79283  17.674  34.394  14.954
17995W        W79284  40.417  30.463  10.534
17996W        W79285  32.585   0.349   0.247
17997W        W79286   1.738  11.691   3.375
17998W        W79287  32.914  38.008   1.742
17999W        W79288  15.759  38.966   5.598
18000W        W79289  33.012  10.803  11.118
18001W        W79290  40.397   7.400  14.500
18002W        W79291  29.009  17.613   1.246
18003W        W79292  25.002   1.752   4.670
18004W        W79293  11.648  15.805   1.932
18005W        W79294   6.368  38.820  12.548
18006W        W79295  30.501   5.248   1.730
18007W        W79296   3.900  36.984   0.790
18008W        W79297   5.895   9.271  12.498
18009W        W79298   3.388   5.826  11.951
18010W        W79299   3.718  13.245  12.049
18011W        W79300   4.385  41.990  14.987
18012W        W79301  37.482  44.484  10.916
18013W        W79302  11.626  15.822  13.335
18014W        W79303   3.792   5.389   1.307
18015W        W79304  36.559   0.367  12.564
18016W        W79305   7.417  38.056   0.965
18017W        W79306  26.111  20.153   2.234
18018W        W79307   1.273  26.051  13.820
18019W        W79308  30.145  37.580  10.588
18020W        W79309  33.042  16.680   3.677
18021W        W79310  34.008  38.550  12.498
18022W        W79311  26.072  16.644   4.308
18023W        W79312  24.215  38.479   0.807
18024W        W79313   9.706  25.545  12.891
18025W        W79314   0.938  15.219  12.382
18026W        W79315  30.628  17.705   2.684
18027W        W79316  25.126  16.770   2.706
18028W        W79317   7.833  26.682  11.883
18029W        W79318  29.053  38.429  14.354
18030W        W79319  11.820  16.736   2.684
18031W        W79320  39.968  20.658  12.397
18032W        W79321  33.082   9.194  12.054
18033W        W79322  27.482   6.854  14.804
18034W        W79323  10.282   3.799  11.515
18035W        W79324  10.296  27.102  10.619
18036W        W79325  17.676  42.895   0.434
18037W        W79326  41.872  36.944  10.935
18038W        W79327  10.264   9.200  14.810
18039W        W79328  40.311   3.284  13.534
18040W        W79329   3.452  11.358  14.430
18041W        W79330  17.591   9.723   2.875
18042W        W79331  21.161  25.529  13.539
18043W        W79332  30.093  31.554   0.803
18044W        W79333   0.770   3.820   2.267
18045W        W79334  24.058   8.173  11.403
18046W        W79335   7.737   2.842   2.895
18047W        W79336  18.153  33.450  12.882
18048W        W79337   4.347  13.753  14.321
18049W        W79338  26.631   3.893   2.791
18050W        W79339  42.348  44.405  13.916
18051W        W79340  37.087   9.862   3.696
18052W        W79341  44.265  23.112  12.414
18053W        W79342  21.135  22.216   2.365
18054W        W79343   9.212  39.839  14.469
18055W        W79344   8.377  26.984  10.991
18056W        W79345  27.104  14.155  14.811
18057W        W79346  29.485  12.856   2.400
18058W        W79347  16.708  32.556   0.463
18059W        W79348  29.609  39.534   1.329
18060W        W79349  32.440  30.150   1.809
18061W        W79350   8.769  40.411   2.731
18062W        W79351  34.007  27.543  14.483
18063W        W79352  35.513  17.649  11.520
18064W        W79353  42.806   8.808   3.200
18065W        W79354  32.433  41.904   0.293
18066W        W79355  18.241  10.718  14.896
18067W        W79356  28.961  30.040   1.861
18068W        W79357  19.219  32.962   2.334
18069W        W79358  25.048  39.060   3.847
18070W        W79359  35.505  43.917   3.819
18071W        W79360  38.496  40.339  14.800
18072W        W79361   8.313   1.261  13.315
18073W        W79362  42.918   7.780   3.703
18074W        W79363  43.805   1.284   1.739
18075W        W79364  40.033  28.000   2.721
18076W        W79365  13.268  15.283   2.274
18077W        W79366  38.921  13.663   0.262
18078W        W79367  29.999   8.879   0.938
18079W        W79368  18.741   2.382   2.342
18080W        W79369  42.022  26.178  12.955
18081W        W79370  29.160  27.003  14.426
18082W        W79371  19.758  13.825  10.954
18083W        W79372  27.591  15.785   2.299
18084W        W79373   5.205  11.651  13.508
18085W        W79374  23.009  11.185   3.775
18086W        W79375   6.827  23.101  12.578
18087W        W79376  27.629  24.211   2.727
18088W        W79377  24.618  43.383  13.009
18089W        W79378   5.819  21.128  13.516
18090W        W79379  36.041  19.130   9.459
18091W        W79380  27.516  19.107  12.379
18092W        W79381  43.950  18.191  11.930
18093W        W79382  21.621  10.278  11.869
18094W        W79383   8.372  32.970   2.711
18095W        W79384   5.222   1.308   0.874
18096W        W79385   6.866   7.243  14.879
18097W        W79386  36.485   6.332  14.883
18098W        W79387   0.947  22.217  10.593
18099W        W79388  16.633  13.768  10.974
18100W        W79389  43.983  19.161   0.938
18101W        W79390  39.426  15.748  12.955
18102W        W79391   2.285  22.587   1.249
18103W        W79392   8.711  32.949   2.758
18104W        W79393  34.538   0.745   1.830
18105W        W79394  43.820  18.198  10.909
18106W        W79395   9.682  40.458   1.233
18107W        W79396  42.374   7.824  10.507
18108W        W79397  30.089  18.681   2.249
18109W        W79398  11.690  30.501  14.821
18110W        W79399   1.463  28.451  11.004
18111W        W79400   8.384  18.198  11.030
18112W        W79401  22.126   1.957   3.370
18113W        W79402  26.680  30.130   4.788
18114W        W79403   4.911  24.534  13.425
18115W        W79404  44.294   9.649  14.447
18116W        W79405  25.004   1.828  11.388
18117W        W79406  34.112  16.304   1.729
18118W        W79407   4.260   2.370   2.228
18119W        W79408  43.444   9.719  10.148
18120W        W79409  24.639  40.989   2.190
18121W        W79410   7.719   2.339   0.447
18122W        W79411  41.902  10.756  14.982
18123W        W79412  28.988  32.940  14.978
18124W        W79413  42.793  33.887  13.875
18125W        W79414  13.821  36.418  10.504
18126W        W79415  41.314  27.528   3.364
18127W        W79416  23.570  19.720  13.518
18128W        W79417  27.944  30.611   4.781
18129W        W79418   7.238   9.881  12.890
18130W        W79419  23.514  25.595   0.268
18131W        W79420  23.561  42.518  12.506
18132W        W79421  20.143   3.379   2.706
18133W        W79422   7.352  32.469   3.777
18134W        W79423  43.472  37.387   4.717
18135W        W79424   6.196  21.600  10.444
18136W        W79425  13.762   9.203  14.295
18137W        W79426  38.363  12.225  13.423
18138W        W79427  23.108  32.890  13.321
18139W        W79428   7.237  36.387   4.739
18140W        W79429  29.606  21.681   0.865
18141W        W79430   1.937  33.077   2.351
18142W        W79431   1.756  32.049  13.045
18143W        W79432  44.967  35.967  10.469
18144W        W79433   9.343   8.254   4.722
18145W        W79434  37.555  40.996   0.348
18146W        W79435  42.469  17.106   1.396
18147W        W79436  23.634  23.984  12.422
18148W        W79437   1.238  41.391   1.804
18149W        W79438  25.672  14.130   3.657
18150W        W79439  21.036  37.554   5.098
18151W        W79440  22.048   0.790   0.948
18152W        W79441  28.096  33.570  10.405
18153W        W79442  37.994  28.021  11.857
18154W        W79443  36.852  11.253   3.667
18155W        W79444   6.349  31.492  11.957
18156W        W79445  11.831  22.572  10.969
18157W        W79446  25.635  34.539   4.750
18158W        W79447   9.754   2.386   1.835
18159W        W79448  28.547  23.734  11.901
18160W        W79449  14.651  19.634   0.349
18161W        W79450  23.520  12.230  14.410
18162W        W79451  16.256  18.779  11.589
18163W        W79452   2.369   1.760   2.313
18164W        W79453  36.565   9.168  11.044
18165W        W79454  19.765  13.236  13.888
18166W        W79455  11.311  13.769   4.701
18167W        W79456  24.129  22.628   0.417
18168W        W79457  24.711  42.795  11.593
18169W        W79458   1.951   8.768   1.718
18170W        W79459  30.547  13.183   2.889
18171W        W79460  22.661   3.793   2.233
18172W        W79461  27.160  35.368   0.966
18173W        W79462  23.582  30.575  11.593
18174W        W79463   7.344   0.910  14.849
18175W        W79464  24.039   8.662   2.705
18176W        W79465  18.654  31.444   1.873
18177W        W79466  31.131  15.237  13.854
18178W        W79467   7.844  44.479   1.228
18179W        W79468  28.447   1.455   1.430
18180W        W79469  42.968   7.339  13.035
18181W        W79470  43.807  37.508  14.314
18182W        W79471  21.083  42.955   4.121
18183W        W79472  10.311   3.221   4.123
18184W        W79473   4.698  26.082   1.833
18185W        W79474  32.094  15.253  11.100
18186W        W79475  19.545   5.264  13.883
18187W        W79476  36.525  24.096  12.915
18188W        W79477  14.630  18.785   2.419
18189W        W79478  44.863  15.205  12.379
18190W        W79479   6.706  15.120  10.418
18191W        W79480  33.906  20.747   2.258
18192W        W79481  24.605  23.124   3.288
18193W        W79482  24.169   4.926   1.281
18194W        W79483  22.745  13.271  11.542
18195W        W79484  16.737  23.072   2.724
18196W        W79485  31.033  27.071   4.794
18197W        W79486   3.902  32.064   3.747
18198W        W79487  34.487   0.966  11.075
18199W        W79488  33.589  30.609   2.325
18200W        W79489   3.728  24.204   0.295
18201W        W79490  32.535  33.403  12.508
18202W        W79491   7.837   1.429  12.547
18203W        W79492  39.061   9.833  12.469
18204W        W79493  19.737   4.332   2.352
18205W        W79494  32.449  24.224   3.271
18206W        W79495  37.895  44.261   0.892
18207W        W79496  32.110   4.232   3.784
18208W        W79497  40.905  16.198   2.316
18209W        W79498  38.892  37.968  12.970
18210W        W79499  19.592  28.670   0.320
18211W        W79500  23.712  12.126   1.442
18212W        W79501  19.697  43.787   4.717
18213W        W79502  15.794   5.347  12.419
18214W        W79503  27.114  15.620  13.500
18215W        W79504  21.685  12.329   1.272
18216W        W79505  25.683  18.260   2.270
18217W        W79506  17.618  29.041   4.606
18218W        W79507   0.945  42.330   3.372
18219W        W79508  27.618  18.225   1.333
18220W        W79509  10.833  38.883  13.865
18221W        W79510  29.433   2.939   1.413
18222W        W79511   6.722   9.170  14.445
18223W        W79512  41.796  37.558   2.845
18224W        W79513  23.034  31.091   3.297
18225W        W79514  32.997  21.095   4.807
18226W        W79515  42.470  21.191  10.551
18227W        W79516  43.306  11.182   3.680
18228W        W79517  33.017  40.414  13.982
18229W        W79518  32.490   6.288  13.054
18230W        W79519  42.873  41.305   9.980
18231W        W79520  24.166   3.841  13.471
18232W        W79521  41.422  32.549   4.180
18233W        W79522  11.743  27.165   3.630
18234W        W79523   7.909  36.847  14.771
18235W        W79524  14.738  10.773   0.727
18236W        W79525  33.939  21.676   3.799
18237W        W79526  15.203  39.463  13.372
18238W        W79527  29.095  35.386  12.565
18239W        W79528   1.431   2.364   2.793
18240W        W79529  43.853   5.865   3.373
18241W        W79530  42.308   7.369  10.537
18242W        W79531  37.485  32.058  14.009
18243W        W79532  27.533  31.549  12.855
18244W        W79533  15.095  22.194  11.528
18245W        W79534  18.206  20.215   2.763
18246W        W79535  35.085  26.995  10.546
18247W        W79536  21.177  23.631  14.304
18248W        W79537  24.513  31.569   1.712
18249W        W79538  24.223   4.220   3.279
18250W        W79539   3.929  34.887   3.345
18251W        W79540   6.203  30.440  11.390
18252W        W79541  39.865  23.113   0.332
18253W        W79542   5.294  32.059   0.376
18254W        W79543   1.339  43.807  11.590
18255W        W79544   1.296  44.377  14.024
18256W        W79545  42.375  14.613  13.055
18257W        W79546  13.153   2.957   0.888
18258W        W79547  23.735  39.960  12.470
18259W        W79548  22.174  14.338   2.344
18260W        W79549  13.314  38.505   1.849
18261W        W79550   6.310  42.990   3.847
18262W        W79551   3.256  18.063  14.325
18263W        W79552  17.559   7.851   3.385
18264W        W79553  38.902  16.182   2.870
18265W        W79554   0.757  28.987   4.626
18266W        W79555  19.721  43.935   1.366
18267W        W79556   6.204  36.021   0.798
18268W        W79557  24.507  44.890   2.901
18269W        W79558  26.686  13.785  11.435
18270W        W79559  36.461   6.357   3.754
18271W        W79560   2.267  39.501  13.791
18272W        W79561  19.232   0.412   0.819
18273W        W79562  41.400   8.294  11.573
18274W        W79563  19.541   7.288  10.552
18275W        W79564  10.777  22.069   0.381
18276W        W79565  38.359  39.404   2.356
18277W        W79566  16.719  20.029   3.817
18278W        W79567  37.482  40.973   3.852
18279W        W79568  44.853  35.069  13.366
18280W        W79569  24.078   0.275  13.375
18281W        W79570  22.720  42.307   2.246
18282W        W79571  29.927  26.479   2.849
18283W        W79572   6.696  41.809   1.360
18284W        W79573  35.088  43.003   3.755
18285W        W79574  17.730  37.952   2.805
18286W        W79575  13.604   1.478  13.384
18287W        W79576  41.506  19.636  11.412
18288W        W79577  15.729  14.693  12.054
18289W        W79578  23.621  21.517  14.935
18290W        W79579  19.250  28.107  10.521
18291W        W79580  36.893   2.259  14.366
18292W        W79581   6.676  20.124   3.744
18293W        W79582  41.984  16.777  13.048
18294W        W79583  21.704  20.737   2.889
18295W        W79584  38.931  36.047  12.846
18296W        W79585  43.296  10.732  11.579
18297W        W79586  39.864  12.745  11.559
18298W        W79587  29.563  29.028   3.694
18299W        W79588  39.918  25.675  14.456
18300W        W79589  14.274  17.736   4.209
18301W        W79590  12.621   4.838   0.897
18302W        W79591  40.976  21.074   0.413
18303W        W79592   9.355  38.021  12.834
18304W        W79593  34.413  22.652  10.990
18305W        W79594   0.783   5.302  14.316
18306W        W79595  16.605  20.061  14.891
18307W        W79596  13.219  19.104   4.725
18308W        W79597  28.980  42.031   4.302
18309W        W79598  11.757  27.019  13.408
18310W        W79599  19.639  41.912   3.151
18311W        W79600  36.947  16.763  13.937
18312W        W79601  40.899  41.998   4.277
18313W        W79602  28.663  10.829   2.707
18314W        W79603  25.183   7.195  12.952
18315W        W79604  37.359  43.358  12.863
18316W        W79605  26.667  33.571  11.871
18317W        W79606  32.975  27.055  11.600
18318W        W79607  33.984  25.578   2.854
18319W        W79608   7.877  40.449  12.504
18320W        W79609   5.821  36.862   1.841
18321W        W79610   6.740  40.489  13.434
18322W        W79611   8.792  15.723   1.841
18323W        W79612  36.407  41.004  12.034
18324W        W79613   1.964  13.705   3.331
18325W        W79614   9.882  39.831   0.798
18326W        W79615  11.623  27.189  13.834
18327W        W79616   0.357  34.597  13.872
18328W        W79617  27.557  25.201   2.858
18329W        W79618  38.827  18.071   2.860
18330W        W79619  29.028  19.197   4.306
18331W        W79620   4.710  41.332  11.020
18332W        W79621  16.670  19.573   4.118
18333W        W79622  40.049  41.510   3.228
18334W        W79623   4.702  40.467  11.559
18335W        W79624  18.708  40.966   0.323
18336W        W79625   7.197  33.902  13.451
18337W        W79626  14.736  34.868  13.940
18338W        W79627  21.127   8.206   1.214
18339W        W79628  30.107  21.645  11.396
18340W        W79629  37.441  26.669  12.856
18341W        W79630  10.243  14.190  10.441
18342W        W79631  41.439  34.540  14.412
18343W        W79632  13.281  30.601  13.057
18344W        W79633  17.112  13.214   4.825
18345W        W79634  33.465  11.169   3.830
18346W        W79635  27.520  21.233  10.623
18347W        W79636  31.644  35.461  11.911
18348W        W79637   6.768  27.610   4.270
18349W        W79638  40.368  16.115  14.985
18350W        W79639  12.211   3.906  12.086
18351W        W79640  30.472  34.571  12.018
18352W        W79641  37.445  26.026  11.520
18353W        W79642   6.274  41.453   9.948
18354W        W79643  31.513  15.185  12.555
18355W        W79644   7.382  14.267  11.395
18356W        W79645   2.322   9.752  14.922
18357W        W79646  29.934  13.118  13.928
18358W        W79647  36.877  23.726   2.684
18359W        W79648  38.328  23.637   1.764
18360W        W79649  29.071   9.313   3.215
18361W        W79650  37.552  39.043   4.773
18362W        W79651  40.029  15.796  13.531
18363W        W79652   1.423  21.131   0.468
18364W        W79653  16.206  33.925   1.761
18365W        W79654  35.041  11.145  11.963
18366W        W79655  35.383  39.425  12.443
18367W        W79656   6.829  34.499  13.522
18368W        W79657  34.118  43.297   2.860
18369W        W79658  40.531   7.267   3.788
18370W        W79659  42.818  23.494  13.796
18371W        W79660  15.251  29.026  11.024
18372W        W79661  32.034  10.722   4.737
18373W        W79662  42.937  43.391  13.953
18374W        W79663  14.813  22.146   1.434
18375W        W79664  31.587   5.710   2.687
18376W        W79665  24.495  21.138   4.276
18377W        W79666  36.460  12.353  14.498
18378W        W79667  36.545  20.737  11.384
18379W        W79668   1.459  15.648  10.438
18380W        W79669  14.192  18.758   0.828
18381W        W79670  32.629   7.275   5.150
18382W        W79671   6.903  39.874  12.034
18383W        W79672   7.900  39.466  12.401
18384W        W79673  16.237  22.172  14.868
18385W        W79674   7.352  41.917   1.914
18386W        W79675  41.001   8.349   2.411
18387W        W79676  32.960  13.268  12.000
18388W        W79677  23.583  13.786  14.476
18389W        W79678  40.962  11.839  11.469
18390W        W79679   8.733  37.970  14.424
18391W        W79680  11.797  37.449  12.481
18392W        W79681  31.636  14.330  14.282
18393W        W79682  20.546  31.502   2.400
18394W        W79683  17.159  23.664   4.308
18395W        W79684  30.973  25.064   5.176
18396W        W79685  10.730  35.004   2.829
18397W        W79686   6.769  40.493  11.454
18398W        W79687  40.918   5.716  14.829
18399W        W79688   0.445  22.737  13.919
18400W        W79689  34.052  28.444   1.814
18401W        W79690  28.178  37.016  13.938
18402W        W79691   3.461  34.524  11.458
18403W        W79692   2.757  37.060  13.485
18404W        W79693  40.453   8.781   0.924
18405W        W79694  13.644  24.576   3.254
18406W        W79695  43.824  15.310  11.503
18407W        W79696   6.302  12.853  10.405
18408W        W79697   1.363  38.400   4.622
18409W        W79698   4.352  22.233  13.393
18410W        W79699  26.548  37.971  14.282
18411W        W79700  23.562  31.424   1.882
18412W        W79701  31.628  35.520  14.972
18413W        W79702  30.931   7.684  14.005
18414W        W79703  24.635  28.509  11.937
18415W        W79704   5.788  10.704  14.479
18416W        W79705  15.304   6.860   0.818
18417W        W79706  35.552  26.051   0.419
18418W        W79707   1.441   7.803   3.844
18419W        W79708  44.995  24.074  10.473
18420W        W79709  33.030  31.011   2.375
18421W        W79710  24.720  26.609  14.502
18422W        W79711   9.223  33.060   1.294
18423W        W79712   4.447  26.459  10.576
18424W        W79713  25.543  15.594  11.531
18425W        W79714  26.958  12.785   4.273
18426W        W79715  13.268  41.433  11.064
18427W        W79716   9.308  43.430  11.376
18428W        W79717  26.697  28.662  11.600
18429W        W79718  36.857  28.051  13.373
18430W        W79719  28.595  17.585   4.250
18431W        W79720   2.415  13.268  10.928
18432W        W79721  29.659  40.544   0.929
18433W        W79722  38.475  36.471   4.627
18434W        W79723   8.741   4.425   4.741
18435W        W79724  26.547  36.402  14.439
18436W        W79725  20.163   4.871  11.521
18437W        W79726  43.336  24.574  14.506
18438W        W79727  20.104  32.902   0.412
18439W        W79728   2.420  37.024  14.483
18440W        W79729   2.270  17.306  10.438
18441W        W79730  25.201   0.486  11.882
18442W        W79731  39.015  18.076   1.293
18443W        W79732  12.191  33.444  13.987
18444W        W79733   3.436  15.254  13.910
18445W        W79734   1.775   5.327   1.359
18446W        W79735   7.898  19.592  13.494
18447W        W79736  11.669  36.564   2.406
18448W        W79737  42.005  21.125   4.635
18449W        W79738  31.925   0.366  14.786
18450W        W79739   2.267  30.067  12.436
18451W        W79740  22.154   9.363  11.438
18452W        W79741  34.883  13.107   5.172
18453W        W79742  40.977   7.345  10.899
18454W        W79743  36.358  34.118  12.885
18455W        W79744   9.243   8.775   2.697
18456W        W79745   0.868  14.632  14.920
18457W        W79746  11.766  10.274  11.541
18458W        W79747   8.197   7.191   4.636
18459W        W79748  13.840  27.671   2.795
18460W        W79749  36.043  31.607  12.452
18461W        W79750  34.389  22.587  13.311
18462W        W79751   0.406   3.884  11.483
18463W        W79752  44.474  30.525   5.310
18464W        W79753  41.957  37.931   3.256
18465W        W79754  21.607  13.302   0.872
18466W        W79755  44.328  39.533  12.015
18467W        W79756  33.457  27.126   4.770
18468W        W79757  44.409  15.667   3.704
18469W        W79758   5.709  20.672   2.337
18470W        W79759  38.998   4.764   0.471
18471W        W79760  20.034  16.586  10.636
18472W        W79761  22.010   1.291   1.892
18473W        W79762  19.050  19.563  11.960
18474W        W79763  37.006  31.469  14.887
18475W        W79764   6.707  13.149  12.390
18476W        W79765  31.507  32.409   3.206
18477W        W79766   2.403   3.221   2.247
18478W        W79767  39.060   3.785  11.071
18479W        W79768   3.861  19.692   3.167
18480W        W79769  37.401   8.664   4.604
18481W        W79770  29.426  32.468   1.755
18482W        W79771  26.121  40.894  13.986
18483W        W79772  24.671  39.012  13.530
18484W        W79773   4.792  31.066  14.796
18485W        W79774  24.010  33.516  12.956
18486W        W79775  18.678  34.483  10.518
18487W        W79776  22.669  38.455   1.710
18488W        W79777  41.817   1.822   4.711
18489W        W79778  20.099  19.076  11.112
18490W        W79779   2.880  31.422   3.185
18491W        W79780   8.757   4.842   2.358
18492W        W79781  42.487  30.069  13.812
18493W        W79782  35.960  40.402  12.568
18494W        W79783  19.071   7.179   0.930
18495W        W79784  10.828  32.407  14.370
18496W        W79785  37.568  42.893   4.295
18497W        W79786  21.077  42.325  11.078
18498W        W79787  33.588  12.262  14.407
18499W        W79788  17.565  12.657   0.287
18500W        W79789  31.069   8.265  13.994
18501W        W79790  32.100  23.574   4.662
18502W        W79791  23.048   6.411   4.297
18503W        W79792  30.466  14.121   1.316
18504W        W79793   3.900   7.875  14.367
18505W        W79794  37.442  14.280   1.762
18506W        W79795   6.765   8.854   0.840
18507W        W79796  41.399  43.474  13.940
18508W        W79797  13.305  19.182   3.741
18509W        W79798  44.917  37.550   0.374
18510W        W79799  23.147  29.106  10.900
18511W        W79800   3.758  13.343  12.873
18512W        W79801  27.523  11.265   0.959
18513W        W79802  34.565   1.310   0.731
18514W        W79803  42.820  17.153   0.759
18515W        W79804  27.968  29.067  13.368
18516W        W79805  23.598  18.725   0.250
18517W        W79806  14.102   4.259   4.320
18518W        W79807  10.280  30.927   0.762
18519W        W79808  34.988   7.744   1.295
18520W        W79809  15.644  25.625  10.160
18521W        W79810  21.740   4.719   4.236
18522W        W79811   8.364  20.251  13.849
18523W        W79812  29.045  27.053   1.297
18524W        W79813  41.459  42.289  11.988
18525W        W79814  13.845  41.807   1.817
18526W        W79815  24.100   8.243  10.892
18527W        W79816  43.827   7.336  11.129
18528W        W79817   1.375  10.791   2.317
18529W        W79818  34.427  12.659  14.362
18530W        W79819  38.344  19.572  11.402
18531W        W79820  36.533  43.985   3.362
18532W        W79821   9.332  15.602   1.792
18533W        W79822  16.665   6.273  14.966
18534W        W79823   5.767  25.175   2.238
18535W        W79824   7.785  31.975   4.302
18536W        W79825   8.842  21.187  11.005
18537W        W79826  20.142   8.821   2.278
18538W        W79827  32.120   5.225   3.645
18539W        W79828  39.960   9.245  12.395
18540W        W79829  14.629  12.320  12.510
18541W        W79830  13.638   0.861  14.351
18542W        W79831  13.271  39.878   0.435
18543W        W79832  40.821  44.762  12.537
18544W        W79833  37.369   0.274  12.916
18545W        W79834  40.396  21.568   1.348
18546W        W79835  32.032  12.718   3.345
18547W        W79836  35.073  40.505   3.792
18548W        W79837   0.354   9.191   2.395
18549W        W79838  30.539   6.750   4.646
18550W        W79839  25.144  19.192   3.337
18551W        W79840  39.355  35.567   3.306
18552W        W79841  21.595  36.018  11.484
18553W        W79842   2.865  10.361  13.808
18554W        W79843  38.017  18.688   3.666
18555W        W79844  27.954  12.687   4.235
18556W        W79845  34.076  39.929   0.867
18557W        W79846  38.352   9.693  11.072
18558W        W79847  33.995  17.267   2.797
18559W        W79848  17.159  36.039  14.794
18560W        W79849  30.968   3.405  13.909
18561W        W79850   6.816  20.628  12.084
18562W        W79851  12.839  29.526  13.534
18563W        W79852  16.131  40.514  12.540
18564W        W79853  20.695  34.511  10.415
18565W        W79854   0.966  12.796  11.587
18566W        W79855   1.424  13.708  14.851
18567W        W79856  15.721  29.503   1.751
18568W        W79857  28.479  29.921  14.965
18569W        W79858  40.877   4.324   0.867
18570W        W79859  33.401  10.861  14.394
18571W        W79860  38.342  12.699  13.462
18572W        W79861  10.154   0.395  13.881
18573W        W79862   6.205  40.509   1.347
18574W        W79863  33.464   2.362   1.372
18575W        W79864   1.977  17.727   4.804
18576W        W79865   5.409  36.460  11.432
18577W        W79866  39.976  14.221  13.956
18578W        W79867  35.912  35.933   4.183
18579W        W79868   9.382  15.708   0.794
18580W        W79869  23.165  25.982   2.789
18581W        W79870  30.973  32.890  12.472
18582W        W79871  44.757  42.964  11.058
18583W        W79872  12.647  30.433  10.490
18584W        W79873   5.916  36.459   2.286
18585W        W79874  42.858  34.465  11.597
18586W        W79875  28.572  41.899   1.833
18587W        W79876  19.236  16.790   2.240
18588W        W79877  42.467  35.992  13.036
18589W        W79878  33.935  24.195  13.465
18590W        W79879  25.530  25.967  14.511
18591W        W79880  28.514  23.153  14.900
18592W        W79881  17.125  10.372  11.597
18593W        W79882  24.706  44.817  11.560
18594W        W79883   3.370  17.233   5.254
18595W        W79884  30.917   5.845   0.880
18596W        W79885  26.525  34.494  14.355
18597W        W79886  34.900  11.791  13.516
18598W        W79887   6.202   8.828   3.255
18599W        W79888   5.874  42.302  13.420
18600W        W79889  26.631   9.800   0.440
18601W        W79890   7.888  42.405  12.039
18602W        W79891  32.012  35.429  11.489
18603W        W79892  22.563   1.358   1.832
18604W        W79893  19.187   6.289  12.095
18605W        W79894  18.691  37.868  14.816
18606W        W79895  21.643  37.555   4.256
18607W        W79896  23.230   7.808   4.136
18608W        W79897  19.043  12.855   1.317
18609W        W79898  23.014  27.124  12.506
18610W        W79899   9.165  24.212   0.747
18611W        W79900  32.972   4.778  14.325
18612W        W79901   2.334  23.114  10.450
18613W        W79902  24.655   9.817   9.658
18614W        W79903  24.621   2.892  12.392
18615W        W79904  27.126  42.858   3.742
18616W        W79905  20.679  13.157   2.200
18617W        W79906  11.633  35.011   4.277
18618W        W79907  21.695  41.840  12.096
18619W        W79908  24.168   2.814   1.857
18620W        W79909  34.471  23.110  10.925
18621W        W79910  26.121  17.129  11.984
18622W        W79911   6.397  44.992   4.786
18623W        W79912  25.999   1.890  13.372
18624W        W79913   2.272  14.793   1.731
18625W        W79914  44.835  21.621   0.276
18626W        W79915  25.186  37.413  14.279
18627W        W79916  33.939   9.708  11.924
18628W        W79917  26.665  37.070   0.337
18629W        W79918  33.551   4.898   1.388
18630W        W79919   8.705  40.410   0.421
18631W        W79920   7.816  16.773  13.367
18632W        W79921  18.067  17.102  10.458
18633W        W79922  29.519  22.024  14.307
18634W        W79923  39.064   3.716   1.366
18635W        W79924  28.435   0.890   2.405
18636W        W79925  18.250  25.193   2.178
18637W        W79926  28.610  40.411   0.389
18638W        W79927  38.929  28.465  12.913
18639W        W79928  18.080   2.404   3.765
18640W        W79929  15.295   9.313   3.249
18641W        W79930   2.447  29.118  11.989
18642W        W79931  16.297  12.799   2.251
18643W        W79932  37.867   4.939  11.937
18644W        W79933  17.196  27.630  11.527
18645W        W79934   3.901  23.066  11.943
18646W        W79935   5.432  36.453  14.928
18647W        W79936  42.027  27.175  13.871
18648W        W79937  25.181   3.216  12.364
18649W        W79938  37.888  41.425   0.358
18650W        W79939  18.755  14.588  11.419
18651W        W79940  13.123  40.363   1.791
18652W        W79941   0.425  37.932  12.580
18653W        W79942  37.542  35.084  11.856
18654W        W79943   7.806  37.047  12.849
18655W        W79944  35.584  21.648   4.838
18656W        W79945  11.338  28.932   2.740
18657W        W79946  19.686  34.882   2.223
18658W        W79947  33.933   9.304   0.818
18659W        W79948  38.377   2.253   2.679
18660W        W79949  19.231  31.133  13.398
18661W        W79950  39.485  41.419   0.810
18662W        W79951   2.342   5.883  13.888
18663W        W79952  16.229   3.840   0.896
18664W        W79953   6.399  30.413  13.042
18665W        W79954  35.455  31.619   0.253
18666W        W79955  44.788  13.652   3.827
18667W        W79956  30.002   8.899  14.897
18668W        W79957  16.247  24.678  10.136
18669W        W79958  16.715   4.229  11.450
18670W        W79959  14.667  42.419  11.472
18671W        W79960  32.014   9.651  12.865
18672W        W79961   9.329   6.275  10.597
18673W        W79962  35.374  18.094   4.717
18674W        W79963   4.309  42.372  12.976
18675W        W79964  21.158  30.969   1.866
18676W        W79965  30.628  41.299  12.864
18677W        W79966  39.522   0.850  11.898
18678W        W79967   7.403  35.370  12.519
18679W        W79968  14.184  30.491  13.842
18680W        W79969  44.849   5.375   0.275
18681W        W79970  39.021  26.474  14.359
18682W        W79971  31.552  23.657  11.432
18683W        W79972  42.780  11.218  14.436
18684W        W79973  19.101  15.726   1.908
18685W        W79974  22.098   4.441   0.735
18686W        W79975  17.724  18.732   2.204
18687W        W79976  42.868   5.811  11.116
18688W        W79977  43.428  29.985  13.426
18689W        W79978  28.114   4.748  10.429
18690W        W79979  23.987   7.362   5.237
18691W        W79980  30.942  19.052  14.976
18692W        W79981  36.979  15.255  11.469
18693W        W79982   5.833  41.003  11.557
18694W        W79983  26.986  25.543   0.932
18695W        W79984  17.284  43.816   3.166
18696W        W79985  42.923  32.468  12.455
18697W        W79986   3.234  15.821   4.115
18698W        W79987  20.231  15.610   4.761
18699W        W79988  10.347  27.192  11.012
18700W        W79989  11.739  21.131   3.797
18701W        W79990   9.739  22.726   0.877
18702W        W79991  41.908  44.856   1.447
18703W        W79992   2.935  16.089   0.829
18704W        W79993  28.942  24.536   1.218
18705W        W79994  23.200  35.416   0.890
18706W        W79995  31.486  38.902   1.907
18707W        W79996  29.009  29.931  14.905
18708W        W79997  28.128  24.639  14.844
18709W        W79998  23.164  44.376  14.881
18710W        W79999  32.077  11.840   4.158
18711W        W80000  24.515  37.008  12.529
18712W        W80001  22.662  22.501   2.838
18713W        W80002  14.613  27.494  12.039
18714W        W80003  40.404  38.507  14.985
18715W        W80004  44.392  32.429   3.223
18716W        W80005  26.956  35.441  13.921
18717W        W80006  41.888  43.765  12.418
18718W        W80007   4.429  22.736   5.131
18719W        W80008  42.031  26.068   0.773
18720W        W80009  25.064  16.798  11.116
18721W        W80010  11.147  40.419  11.389
18722W        W80011  42.800  44.449   2.179
18723W        W80012  18.179  36.530   9.571
18724W        W80013  21.195  10.643   0.933
18725W        W80014  40.512   3.376   5.244
18726W        W80015  29.960   0.320   0.347
18727W        W80016   1.404  26.962   2.787
18728W        W80017  43.817  14.319   3.172
18729W        W80018   0.979  44.003   1.740
18730W        W80019  43.423  25.200  14.514
18731W        W80020  16.617   8.289   1.375
18732W        W80021  18.127  43.411   4.731
18733W        W80022  32.562  32.521  14.333
18734W        W80023  42.821   7.331   1.713
18735W        W80024  14.262  24.574  10.591
18736W        W80025   1.478  27.961   4.182
18737W        W80026  12.239  43.839  13.865
18738W        W80027  43.504  28.645  13.932
18739W        W80028   9.643  15.279   1.321
18740W        W80029  38.833  18.285   1.735
18741W        W80030   8.850  21.662  12.969
18742W        W80031  14.685  43.797  11.093
18743W        W80032  32.026  21.237   1.429
18744W        W80033  31.611  16.664  12.505
18745W        W80034  29.648   9.643   5.198
18746W        W80035  11.857  19.147   2.215
18747W        W80036  39.019  40.974   2.293
18748W        W80037  24.488  20.556   4.334
18749W        W80038  29.565  17.109  12.546
18750W        W80039  38.965  27.689  11.487
18751W        W80040  31.055  20.032  11.932
18752W        W80041   9.790  38.383  12.471
18753W        W80042  14.785  30.473   1.385
18754W        W80043  40.304   1.333  14.770
18755W        W80044  14.307  25.708  10.987
18756W        W80045  14.824  29.991   0.912
18757W        W80046  17.276  33.488  13.863
18758W        W80047   6.330  21.185   3.157
18759W        W80048  38.855  13.151  13.462
18760W        W80049   3.338  21.102  14.424
18761W        W80050  42.357  31.062   4.251
18762W        W80051  15.098   3.445  13.344
18763W        W80052  28.023  36.472  13.871
18764W        W80053   4.414  39.335  12.436
18765W        W80054  25.488   2.922   4.250
18766W        W80055  15.246  19.060   2.766
18767W        W80056  11.646  35.062   2.396
18768W        W80057  41.436  38.966  13.839
18769W        W80058  30.097  14.119   4.220
18770W        W80059  23.500  26.953   0.371
18771W        W80060  13.217  14.833  12.522
18772W        W80061  20.258  36.550   1.402
18773W        W80062  33.901  27.162  12.532
18774W        W80063  16.111  43.767  14.833
18775W        W80064  39.949   1.750  14.962
18776W        W80065  22.726  44.974   0.912
18777W        W80066   5.410  12.767   4.662
18778W        W80067  10.261  13.618   0.394
18779W        W80068  14.589  31.965  10.080
18780W        W80069  10.751  27.672   1.752
18781W        W80070  12.729  14.705  13.058
18782W        W80071  19.710  34.460   4.261
18783W        W80072  28.544  19.195   0.289
18784W        W80073  19.716  44.287  12.432
18785W        W80074   4.848  11.630   0.728
18786W        W80075  25.140  15.091   1.338
18787W        W80076  40.308  23.616   3.841
18788W        W80077  18.688   8.774   0.360
18789W        W80078   6.279  42.526  11.417
18790W        W80079  34.388   8.774   2.855
18791W        W80080  41.397  28.490   2.217
18792W        W80081  28.597  18.630  14.815
18793W        W80082   2.308  10.302  11.497
18794W        W80083   5.783  15.159   2.794
18795W        W80084  19.742  14.650   2.390
18796W        W80085  18.620  36.467  11.064
18797W        W80086  26.976   6.696  11.542
18798W        W80087  39.527   9.160   4.815
18799W        W80088  43.945  29.088   3.641
18800W        W80089  18.063  28.552  12.361
18801W        W80090  15.609  13.614   3.641
18802W        W80091  21.175  23.528   2.719
18803W        W80092  29.488  10.744   3.848
18804W        W80093  14.758  11.821   1.407
18805W        W80094  10.688   5.425  10.994
18806W        W80095  14.289  19.630   2.724
18807W        W80096  19.055   6.219  14.430
18808W        W80097   3.404  36.992   2.813
18809W        W80098  21.142  34.375   4.319
18810W        W80099  21.582   7.823   2.717
18811W        W80100  38.011  11.163  12.010
18812W        W80101  16.602  32.580  13.830
18813W        W80102  16.590   9.212   1.451
18814W        W80103  24.704  28.472  13.313
18815W        W80104   3.847  33.945   0.253
18816W        W80105  18.089   4.851  12.459
18817W        W80106  22.565   0.950  10.492
18818W        W80107   5.339  17.236  14.276
18819W        W80108   6.702  13.158   2.707
18820W        W80109  10.176  37.000   5.227
18821W        W80110  21.525  40.048  13.394
18822W        W80111  22.161  15.279   1.273
18823W        W80112  44.407  17.258  11.568
18824W        W80113  43.411  27.982   3.855
18825W        W80114  37.976  11.646   9.960
18826W        W80115   2.853   3.232   3.163
18827W        W80116  20.640  36.843   2.228
18828W        W80117   8.661  25.111  14.397
18829W        W80118  19.161  11.701  12.407
18830W        W80119  15.779  17.139   0.303
18831W        W80120  24.011  30.994  14.848
18832W        W80121  23.098  39.340   4.629
18833W        W80122  36.851  13.640  14.937
18834W        W80123  20.070  30.934  10.962
18835W        W80124  15.103  43.838   0.796
18836W        W80125  38.409  26.199  12.995
18837W        W80126  19.592  23.225  12.470
18838W        W80127  12.786  25.521  13.055
18839W        W80128  10.264  42.880  12.489
18840W        W80129  13.243   3.727   4.627
18841W        W80130  22.184  41.316   0.894
18842W        W80131   9.219  39.820   1.817
18843W        W80132  33.488  17.621  13.005
18844W        W80133   4.402  23.693   2.185
18845W        W80134  19.697  21.065   3.316
18846W        W80135  23.137  34.496  10.570
18847W        W80136  21.254  15.601   4.619
18848W        W80137  44.341  11.326  14.513
18849W        W80138  17.623  22.110   1.373
18850W        W80139   7.224   4.814   4.324
18851W        W80140  35.949  11.262   3.654
18852W        W80141  44.851  44.002  14.983
18853W        W80142  36.406  23.627   2.724
18854W        W80143   0.960  25.661   3.198
18855W        W80144  30.063   1.387  12.830
18856W        W80145  44.886  15.313  11.105
18857W        W80146  11.677  41.986   2.397
18858W        W80147  22.237  15.214   2.287
18859W        W80148  11.337  39.943  10.929
18860W        W80149  33.548  35.067  14.879
18861W        W80150  31.512  30.099   3.329
18862W        W80151  41.035  16.740  14.910
18863W        W80152   7.336  37.930  14.371
18864W        W80153   4.389  31.055   1.306
18865W        W80154   0.806  36.003   0.873
18866W        W80155  31.029  29.032  12.486
18867W        W80156   9.831  29.937  10.542
18868W        W80157  35.995  12.122   2.871
18869W        W80158  29.433   2.959   3.824
18870W        W80159  30.912  31.463   4.759
18871W        W80160  37.012  14.727   2.691
18872W        W80161  20.549   0.481  13.888
18873W        W80162  13.205  15.149  12.441
18874W        W80163  25.650   2.377  11.082
18875W        W80164   6.403  27.961  10.084
18876W        W80165   2.908  15.265  13.035
18877W        W80166  37.435  11.691  13.464
18878W        W80167   5.774  31.926   4.127
18879W        W80168  10.857   7.856   3.686
18880W        W80169   1.427  17.597  13.440
18881W        W80170  29.038  24.039  11.402
18882W        W80171  33.442  11.759   4.175
18883W        W80172  23.541  44.970   1.246
18884W        W80173   9.848  36.567   0.897
18885W        W80174  21.143  40.398  14.912
18886W        W80175  44.368  35.439  12.017
18887W        W80176  33.940  22.198   2.417
18888W        W80177  35.409  11.712   1.447
18889W        W80178  26.504   0.444  11.025
18890W        W80179  32.390  15.141   1.391
18891W        W80180  21.223   5.263  10.994
18892W        W80181   2.460  23.013  14.475
18893W        W80182  10.371   7.274  11.522
18894W        W80183  34.945  43.469  14.973
18895W        W80184   4.729  27.556   1.698
18896W        W80185  15.811  20.601  13.336
18897W        W80186  38.837  38.933  11.036
18898W        W80187   7.317  40.530  14.781
18899W        W80188   6.218  33.965  10.459
18900W        W80189  18.134  12.678  14.304
18901W        W80190   0.895  34.110   3.201
18902W        W80191  21.095  19.775   1.858
18903W        W80192  26.654   8.655  12.424
18904W        W80193  20.187  16.177  12.497
18905W        W80194   8.724  19.256   4.123
18906W        W80195   1.759   3.931  11.048
18907W        W80196   2.741  38.826   0.805
18908W        W80197  23.644  20.256  12.022
18909W        W80198  35.901  23.491   3.322
18910W        W80199   4.352  26.188  14.321
18911W        W80200  35.581  18.095  10.950
18912W        W80201  23.173  25.498  14.510
18913W        W80202  15.740  22.612  12.943
18914W        W80203  10.823  34.603   4.820
18915W        W80204  32.009  20.618  14.903
18916W        W80205  28.024  29.143   4.690
18917W        W80206  13.631   8.710  14.012
18918W        W80207  38.440  14.298  11.550
18919W        W80208  12.718  11.306  12.065
18920W        W80209  41.005   7.329   3.184
18921W        W80210   0.820  14.147   4.354
18922W        W80211   1.912  24.605  12.482
18923W        W80212  17.240  29.140   2.779
18924W        W80213  14.201  34.392   3.859
18925W        W80214  25.173  37.524   5.143
18926W        W80215   5.366   2.818   4.752
18927W        W80216  35.897  35.863   0.856
18928W        W80217  36.902   1.449  11.578
18929W        W80218  14.141  38.513  11.895
18930W        W80219   5.823  33.990   0.262
18931W        W80220  38.387  10.222  14.955
18932W        W80221  36.006  30.916   3.358
18933W        W80222  32.026   2.785  13.441
18934W        W80223  41.437  35.859   0.940
18935W        W80224  28.072   1.836   2.408
18936W        W80225  36.379  11.641   4.229
18937W        W80226  44.959  44.426  13.983
18938W        W80227  27.947  27.466  14.346
18939W        W80228  11.365  44.379   4.345
18940W        W80229  17.163   7.775  10.412
18941W        W80230  34.905  38.883   3.694
18942W        W80231   0.908  31.917   4.194
18943W        W80232  13.290   5.230  13.864
18944W        W80233  12.647  24.524   0.785
18945W        W80234   7.218  40.936   4.656
18946W        W80235  36.954  40.463  14.762
18947W        W80236  40.995  12.169  14.278
18948W        W80237   5.828  38.430   3.716
18949W        W80238   2.399  31.536  12.565
18950W        W80239  32.447  20.139   1.765
18951W        W80240  10.247  16.268  14.417
18952W        W80241  13.630  31.071   0.867
18953W        W80242  44.431  10.781   4.151
18954W        W80243  35.564   4.868   5.136
18955W        W80244  21.662  26.525  14.371
18956W        W80245  23.712   8.265  11.024
18957W        W80246  41.941  23.126  11.036
18958W        W80247  16.267  40.017   4.796
18959W        W80248  15.106  15.751  13.018
18960W        W80249  38.966   0.906   0.738
18961W        W80250  27.083  24.550  11.454
18962W        W80251   6.203  16.165   4.617
18963W        W80252  42.983  17.283   4.291
18964W        W80253  12.786  37.399   3.268
18965W        W80254  32.533  38.414   2.710
18966W        W80255   5.249  30.983  13.989
18967W        W80256  37.543   6.819   2.885
18968W        W80257  27.099  16.258   1.436
18969W        W80258   5.236  31.040  11.447
18970W        W80259   1.861  18.598   2.252
18971W        W80260  11.226   7.246   4.168
18972W        W80261  31.452   1.437   4.783
18973W        W80262  13.209   5.768  11.916
18974W        W80263  22.594  37.520  14.758
18975W        W80264  30.042  16.665   4.637
18976W        W80265   0.365  11.809   0.385
18977W        W80266  44.409  28.101  10.443
18978W        W80267  32.917  12.176  13.367
18979W        W80268  44.399  44.437  11.444
18980W        W80269  23.689  38.502   2.318
18981W        W80270  44.499  43.421  11.924
18982W        W80271  35.574   5.869   4.344
18983W        W80272  10.752  16.725   2.694
18984W        W80273  24.570  26.679  12.853
18985W        W80274  15.584  28.573  14.018
18986W        W80275  27.573  36.857   0.925
18987W        W80276   7.849   3.821  12.998
18988W        W80277   2.396  44.395   0.378
18989W        W80278  38.989  11.634   4.332
18990W        W80279  28.037  34.029   2.400
18991W        W80280  31.613  25.549   4.157
18992W        W80281  29.016  12.203  11.092
18993W        W80282  44.894  32.575  13.958
18994W        W80283  38.379  21.119   0.774
18995W        W80284  42.800  24.570   3.163
18996W        W80285  36.557  38.046   0.960
18997W        W80286  30.127   4.415   1.836
18998W        W80287  27.123  40.444  12.536
18999W        W80288  12.191  40.052  14.916
19000W        W80289  44.289   5.360  11.089
19001W        W80290  30.428  26.172  12.838
19002W        W80291  27.685  39.447  13.480
19003W        W80292  42.831   9.730   1.327
19004W        W80293  16.212  43.977  12.919
19005W        W80294   9.278  23.665   4.305
19006W        W80295  24.582  39.560  13.836
19007W        W80296   1.942  43.781  11.875
19008W        W80297  16.276  36.420  14.470
19009W        W80298  28.494  38.862   2.868
19010W        W80299  36.411   4.900  13.312
19011W        W80300   2.831  18.752   4.700
19012W        W80301  33.985  44.294   3.347
19013W        W80302  44.837  17.247   0.246
19014W        W80303  31.071  42.947   2.752
19015W        W80304  33.618  33.423   2.300
19016W        W80305   6.416  21.536  14.389
19017W        W80306  19.187  25.131  12.396
19018W        W80307   1.296  16.312   1.410
19019W        W80308  22.015   9.714  13.529
19020W        W80309  38.924  11.135   1.897
19021W        W80310   5.275  36.460  14.364
19022W        W80311  36.346  22.014  14.391
19023W        W80312  18.095  27.560  12.841
19024W        W80313  39.508  29.083  12.400
19025W        W80314  13.830  42.421   1.215
19026W        W80315  22.195  27.597  11.019
19027W        W80316  27.515  42.849   1.865
19028W        W80317  43.893  22.594  11.555
19029W        W80318  23.102  24.532  12.860
19030W        W80319  24.673  31.924  12.988
19031W        W80320  16.096  11.198   2.406
19032W        W80321   2.275  22.145   0.862
19033W        W80322  22.229  37.960   1.430
19034W        W80323  11.257  36.019   3.841
19035W        W80324  15.748  19.259  12.999
19036W        W80325  34.568   5.780   4.253
19037W        W80326  16.715  16.095   0.340
19038W        W80327   5.731  11.771   0.801
19039W        W80328   3.801  15.776  11.388
19040W        W80329  10.170   4.932  10.610
19041W        W80330  40.311   0.908   1.700
19042W        W80331  22.595  21.579  14.439
19043W        W80332  39.932  26.100   0.427
19044W        W80333  40.456  19.188  10.607
19045W        W80334   0.457  21.542  14.996
19046W        W80335  42.420   9.762  14.890
19047W        W80336   1.293  19.687  13.043
19048W        W80337  40.883  10.733   1.755
19049W        W80338  27.645   0.327   0.796
19050W        W80339  39.049  40.424   5.303
19051W        W80340   0.987  19.645  13.831
19052W        W80341  20.646   1.948  14.480
19053W        W80342  33.023  22.525   1.414
19054W        W80343  42.415  36.405  10.447
19055W        W80344  19.589  35.919   0.919
19056W        W80345   4.356   1.402  11.957
19057W        W80346  29.154  39.386  14.901
19058W        W80347  38.919  26.542  13.444
19059W        W80348  27.653  22.187   0.806
19060W        W80349  22.039  19.692   0.368
19061W        W80350  24.606   0.792  14.444
19062W        W80351   8.203  12.698   3.657
19063W        W80352  12.677  26.616   1.331
19064W        W80353  28.434  21.572   5.645
19065W        W80354  11.656  13.703  11.099
19066W        W80355   1.784  26.153   2.226
19067W        W80356   2.274  19.749   0.823
19068W        W80357   7.788   7.703  11.608
19069W        W80358  18.653   6.375  11.897
19070W        W80359  27.138  21.158  12.470
19071W        W80360   2.806   1.260  14.340
19072W        W80361  12.640  10.754  13.524
19073W        W80362  35.099   6.863   2.893
19074W        W80363  16.154  34.983  12.903
19075W        W80364  24.488  34.433  10.473
19076W        W80365  43.808  19.638   2.329
19077W        W80366  12.247  30.153  12.832
19078W        W80367   9.200  41.382   3.385
19079W        W80368   7.335  39.997  14.431
19080W        W80369  37.890  32.633  10.989
19081W        W80370   0.351  19.073   1.924
19082W        W80371  17.594   9.180   0.750
19083W        W80372  16.566  44.774   1.899
19084W        W80373  22.206  15.595   3.381
19085W        W80374  28.086  31.973  10.936
19086W        W80375  18.262  12.682  10.529
19087W        W80376  25.647  19.178  10.430
19088W        W80377   8.661  13.223  12.361
19089W        W80378   8.343  13.746  14.291
19090W        W80379  31.614  38.384  10.890
19091W        W80380   4.246  42.947   4.205
19092W        W80381  15.626  36.473   3.201
19093W        W80382  39.535  31.479   3.719
19094W        W80383  10.727  18.154   1.760
19095W        W80384  43.344  18.756   2.220
19096W        W80385  25.128   1.909   0.427
19097W        W80386   1.891  41.529   2.311
19098W        W80387  35.894  37.054   2.361
19099W        W80388  43.793  37.047   0.448
19100W        W80389  26.180  37.344  13.350
19101W        W80390  24.131   1.411  10.417
19102W        W80391  37.005  23.515  14.502
19103W        W80392   7.752  38.957   2.717
19104W        W80393  18.214  36.584  13.947
19105W        W80394   5.905  36.887  11.932
19106W        W80395  38.047  26.499   0.957
19107W        W80396   1.319  16.637  10.920
19108W        W80397  13.732  34.116   2.765
19109W        W80398   3.330  25.001   0.965
19110W        W80399  17.145  14.631   2.285
19111W        W80400  27.075   0.384   3.672
19112W        W80401  39.401  25.971  14.811
19113W        W80402  32.013   0.904  11.065
19114W        W80403  21.642  22.672  13.521
19115W        W80404  44.328  20.186  13.403
19116W        W80405  24.982  42.967   3.326
19117W        W80406  41.897  35.900   0.313
19118W        W80407  43.306  39.940  13.424
19119W        W80408   0.434  11.223   0.751
19120W        W80409  18.668  22.125  10.495
19121W        W80410  33.934  19.229  14.406
19122W        W80411   0.767   2.457  11.446
19123W        W80412  25.631  42.825   4.612
19124W        W80413  39.973  34.516   2.387
19125W        W80414  24.215  25.602  14.419
19126W        W80415  41.323  41.370   2.372
19127W        W80416  32.131  41.325   3.785
19128W        W80417   5.238   8.297   3.717
19129W        W80418  25.549   5.744   2.780
19130W        W80419  14.307  11.675  12.350
19131W        W80420   4.827  38.051  11.096
19132W        W80421   1.851  18.715  14.413
19133W        W80422   9.812  19.048  12.360
19134W        W80423  34.523  42.936  12.063
19135W        W80424  38.073  44.445   0.271
19136W        W80425  15.251   0.920   3.293
19137W        W80426   7.366  20.191  11.533
19138W        W80427   9.385  33.446   0.889
19139W        W80428  44.979  38.540  14.011
19140W        W80429  44.840   9.233   1.795
19141W        W80430  26.151  41.839  11.900
19142W        W80431  34.392  19.681   1.296
19143W        W80432   0.797   6.870   3.258
19144W        W80433  16.242  41.391   1.847
19145W        W80434  25.656  42.510   0.960
19146W        W80435  39.415  32.142  14.506
19147W        W80436   4.804  43.888   0.364
19148W        W80437  20.700  30.160  14.280
19149W        W80438  35.880  42.963  10.562
19150W        W80439  17.734  18.690  13.030
19151W        W80440  27.598   6.680   3.295
19152W        W80441  34.050  23.728   1.360
19153W        W80442  44.304  34.601   0.747
19154W        W80443   0.445  44.274   3.809
19155W        W80444  14.338  20.661   3.338
19156W        W80445  32.084  34.017   3.694
19157W        W80446  38.873  27.654   2.224
19158W        W80447  11.807  42.866  14.435
19159W        W80448  30.102  20.154  13.873
19160W        W80449  17.151  44.803   1.237
19161W        W80450  19.560  24.085   0.307
19162W        W80451  28.641  41.868  11.516
19163W        W80452  40.957  18.672   3.321
19164W        W80453  23.049  38.360  11.387
19165W        W80454  15.172   0.485  11.025
19166W        W80455  39.455  23.687   3.792
19167W        W80456  27.571  12.628  14.290
19168W        W80457  13.116  44.836   1.733
19169W        W80458  26.024  12.135   1.920
19170W        W80459  41.859  34.919  12.982
19171W        W80460  13.711  29.501   0.835
19172W        W80461  13.292  41.998   1.322
19173W        W80462  28.952  15.802   1.342
19174W        W80463  18.165   4.807  14.835
19175W        W80464  44.304   4.729   1.259
19176W        W80465  28.093  34.605   4.212
19177W        W80466   4.358  34.036  12.888
19178W        W80467   8.767  12.130  11.610
19179W        W80468  41.857  40.329  10.444
19180W        W80469  14.688  40.430   0.913
19181W        W80470  27.154  31.444  13.349
19182W        W80471  40.485   3.216  12.951
19183W        W80472   3.292   8.796   4.640
19184W        W80473  30.930  41.361   5.282
19185W        W80474  40.422  24.506  13.925
19186W        W80475   8.790   9.250  11.040
19187W        W80476   7.842  16.267   0.818
19188W        W80477  42.850  36.912  12.870
19189W        W80478  22.682  41.835  12.016
19190W        W80479  42.818  20.588  11.529
19191W        W80480  24.178   4.359  13.810
19192W        W80481  38.899  26.573   5.248
19193W        W80482  19.225  28.452  11.470
19194W        W80483  33.567  30.136  14.414
19195W        W80484   8.838   5.807   4.784
19196W        W80485  20.661  15.203  14.027
19197W        W80486  30.543  18.643   5.159
19198W        W80487  14.778   2.721  14.403
19199W        W80488   0.899  37.854   0.814
19200W        W80489   1.464  41.856  11.415
19201W        W80490  10.166   5.378  10.929
19202W        W80491   6.908   6.893   0.940
19203W        W80492  33.442   5.769  14.011
19204W        W80493  38.836  13.839   2.860
19205W        W80494   4.722  35.568  10.026
19206W        W80495  32.445   5.384   2.821
19207W        W80496  17.301  14.608   4.239
19208W        W80497  43.467  31.596  11.864
19209W        W80498   1.345  34.555  14.476
19210W        W80499  25.509  22.588   1.903
19211W        W80500   5.721  22.674  10.474
19212W        W80501   4.214  18.118  10.422
19213W        W80502  27.952  28.084   4.352
19214W        W80503  15.199  11.360  12.064
19215W        W80504  28.010  14.253   0.769
19216W        W80505   2.424  21.709   0.937
19217W        W80506  40.040  14.214   4.801
19218W        W80507  10.246  28.673   1.797
19219W        W80508  34.908  17.640  13.417
19220W        W80509  10.355  21.730  12.014
19221W        W80510   6.229  32.432  12.868
19222W        W80511  15.821  21.066   1.869
19223W        W80512  20.536  35.917   3.302
19224W        W80513  12.764  23.644  13.314
19225W        W80514  41.913  10.652  12.006
19226W        W80515  41.940  18.290   2.407
19227W        W80516  32.435   4.440   0.339
19228W        W80517  24.202  44.310   1.337
19229W        W80518  34.392  22.131   4.777
19230W        W80519  40.825  41.398   0.345
19231W        W80520  13.608  14.112   1.344
19232W        W80521  20.190  13.794   1.891
19233W        W80522  29.583  25.646  11.902
19234W        W80523  37.010  28.960  14.785
19235W        W80524  22.568  20.552  13.940
19236W        W80525   2.421   7.279  14.763
19237W        W80526  32.956  31.068   3.817
19238W        W80527  29.163  42.851  14.348
19239W        W80528   5.330  39.504  13.420
19240W        W80529  22.008  11.769   1.929
19241W        W80530  22.733  17.245  12.881
19242W        W80531  39.061   5.251   2.844
19243W        W80532  31.549  33.923   1.860
19244W        W80533   4.379  32.569  11.404
19245W        W80534   5.701   3.402   2.408
19246W        W80535  31.430   0.335   2.236
19247W        W80536   3.264  36.490  14.807
19248W        W80537  26.597  13.302  13.473
19249W        W80538  36.448  43.323  12.575
19250W        W80539  40.907  36.498  12.381
19251W        W80540  10.149  21.221  11.033
19252W        W80541  19.557  28.524   3.317
19253W        W80542   3.427  30.018  12.383
19254W        W80543  36.578  21.607   2.187
19255W        W80544  29.139  17.622   2.766
19256W        W80545  27.608   6.266  10.981
19257W        W80546  40.872   7.184  12.018
19258W        W80547   0.291  35.891  11.605
19259W        W80548  19.045  36.996   1.930
19260W        W80549  35.376   5.398   2.244
19261W        W80550  20.599  39.341   2.845
19262W        W80551  21.183  22.516   0.350
19263W        W80552   7.331   3.367   3.261
19264W        W80553  22.030  39.550  11.055
19265W        W80554  31.455  23.997   0.730
19266W        W80555  41.442  21.164  12.983
19267W        W80556  40.519   3.856  12.966
19268W        W80557  37.088  26.532   3.805
19269W        W80558  31.591  40.473   3.751
19270W        W80559   1.243  17.790   0.940
19271W        W80560  42.976  41.880   1.705
19272W        W80561   3.257  34.050  13.429
19273W        W80562  32.101  37.053   0.748
19274W        W80563  35.563  24.538   3.859
19275W        W80564   2.961  26.619  13.867
19276W        W80565   8.858  41.864  14.935
19277W        W80566  26.106  10.160   4.833
19278W        W80567  23.135   9.833   3.687
19279W        W80568  39.867  21.063  13.054
19280W        W80569   1.245  42.470  13.333
19281W        W80570  38.874   6.689   0.862
19282W        W80571  27.163  11.757   4.704
19283W        W80572  25.502  17.129  13.355
19284W        W80573  26.039  33.881   3.367
19285W        W80574  34.868  17.217   1.220
19286W        W80575  13.768   2.881  12.382
19287W        W80576  18.174   8.394  11.406
19288W        W80577  18.601  34.457  14.019
19289W        W80578  21.040  34.054   0.935
19290W        W80579  34.450  42.991   2.259
19291W        W80580  20.595  26.168   0.750
19292W        W80581  44.428   2.288   2.774
19293W        W80582  31.075  24.987   2.686
19294W        W80583  15.652  36.541   1.439
19295W        W80584  40.850  17.579  11.428
19296W        W80585  42.928  13.145   4.642
19297W        W80586  22.182  38.074   2.212
19298W        W80587  36.523  43.366   4.685
19299W        W80588  14.260  26.032   4.659
19300W        W80589   7.371  20.577   1.781
19301W        W80590   9.863  10.706  12.527
19302W        W80591  10.330   1.385  12.075
19303W        W80592   1.345   3.328  11.912
19304W        W80593  18.190   6.777   0.939
19305W        W80594  27.685  20.040   1.233
19306W        W80595   9.162  40.349  11.932
19307W        W80596  43.514  15.713   1.350
19308W        W80597   3.846  43.801  11.386
19309W        W80598  14.119  30.004  12.471
19310W        W80599  41.360  13.213  10.979
19311W        W80600  13.709  43.314  12.469
19312W        W80601  32.977   2.279  11.919
19313W        W80602  40.367  39.458  11.529
19314W        W80603  18.137  38.570  14.885
19315W        W80604  42.282   5.771  13.798
19316W        W80605  17.576  41.327   0.809
19317W        W80606  32.975  43.830  12.090
19318W        W80607  19.159  23.721  11.876
19319W        W80608  36.364  34.482  12.404
19320W        W80609  15.810   7.716   4.792
19321W        W80610   9.660  16.609  12.902
19322W        W80611   1.464  11.830   4.303
19323W        W80612   9.345  44.996   1.850
19324W        W80613   4.400  32.888  12.872
19325W        W80614   9.395  22.018   1.731
19326W        W80615  28.561  10.205  11.878
19327W        W80616   5.793  35.384  13.853
19328W        W80617  12.721  17.629  12.022
19329W        W80618  25.056   6.417   4.740
19330W        W80619  22.689  11.292   4.163
19331W        W80620   5.716  33.032  13.017
19332W        W80621  39.048  43.933  10.417
19333W        W80622  14.253  22.706  13.833
19334W        W80623  26.132  20.672  12.976
19335W        W80624   7.838  17.573   3.334
19336W        W80625  13.697  39.379   2.727
19337W        W80626  24.060  14.685  14.313
19338W        W80627   1.376  22.057   3.239
19339W        W80628  38.897  39.005   2.334
19340W        W80629  16.572  34.109  12.017
19341W        W80630  18.223  26.612  12.532
19342W        W80631  22.721  35.561  12.042
19343W        W80632  31.055  33.956   4.133
19344W        W80633  20.137  17.701  13.920
19345W        W80634  37.083  17.583   3.671
19346W        W80635  41.891  13.661  13.465
19347W        W80636  20.651  38.415   1.261
19348W        W80637  19.639  37.342   3.755
19349W        W80638  27.597  42.476   4.769
19350W        W80639  39.332  33.405   1.373
19351W        W80640  19.551  17.752   1.386
19352W        W80641  18.736   3.281   2.345
19353W        W80642   9.836  39.538   1.291
19354W        W80643   0.476  11.824   2.678
19355W        W80644   3.767  32.054   3.272
19356W        W80645  34.967  37.350  10.514
19357W        W80646  18.220  30.123   1.418
19358W        W80647  21.199  26.654  14.338
19359W        W80648  35.363  23.574   2.761
19360W        W80649  14.264  35.911   4.817
19361W        W80650   5.270  27.540  14.924
19362W        W80651   3.844  29.926   4.148
19363W        W80652  37.420   8.196   3.329
19364W        W80653  17.669  43.833   0.755
19365W        W80654  19.751  37.470   2.901
19366W        W80655  19.260  20.606   1.879
19367W        W80656  41.401  17.201   5.138
19368W        W80657  13.763   4.894   1.403
19369W        W80658   6.845  23.239  14.371
19370W        W80659  14.630  34.470   0.856
19371W        W80660  40.382  33.026   3.361
19372W        W80661  41.487   7.180  10.507
19373W        W80662  34.003  13.177   2.280
19374W        W80663  21.543  40.327   3.279
19375W        W80664  26.476   8.261   1.745
19376W        W80665  25.020  33.092   3.346
19377W        W80666   2.262  19.690   2.827
19378W        W80667  19.132  34.489  10.519
19379W        W80668   0.908  12.194   3.188
19380W        W80669  32.528  37.536   0.812
19381W        W80670   6.703  41.849  12.953
19382W        W80671  20.673  39.399   4.165
19383W        W80672  22.113  16.731   4.117
19384W        W80673  13.346   4.919  13.499
19385W        W80674   5.252  17.754  14.915
19386W        W80675  18.556  23.085  14.771
19387W        W80676  11.371  38.442   2.810
19388W        W80677  43.407  38.429   3.663
19389W        W80678  18.194  32.417  10.929
19390W        W80679  32.107  41.958  14.977
19391W        W80680  25.708   6.890   4.174
19392W        W80681  21.108  21.231   1.824
19393W        W80682   8.679   8.663   3.242
19394W        W80683  28.095  25.631  14.968
19395W        W80684  23.732  26.470  12.016
19396W        W80685  26.541  21.110  13.393
19397W        W80686  13.741  15.677   0.312
19398W        W80687  26.093   9.687  12.458
19399W        W80688   5.316  36.421  10.907
19400W        W80689  40.543  19.201  10.887
19401W        W80690  34.056  23.222  12.407
19402W        W80691  11.139  23.650  10.604
19403W        W80692   9.889   7.177   2.712
19404W        W80693   0.977  37.460   2.234
19405W        W80694  32.115   3.281   1.242
19406W        W80695  36.048   0.343   3.202
19407W        W80696   0.959  27.547   1.804
19408W        W80697  43.431  24.658   1.897
19409W        W80698  18.286  36.582  14.317
19410W        W80699   6.698  18.066   0.915
19411W        W80700  33.602  36.445   4.164
19412W        W80701  20.136   2.859  10.542
19413W        W80702  27.622  34.066   1.243
19414W        W80703  14.200   4.344   1.814
19415W        W80704   5.756  37.868   1.854
19416W        W80705  35.603  33.974  14.453
19417W        W80706  40.489  30.126   2.192
19418W        W80707  23.169  20.101   0.843
19419W        W80708  23.142  44.861   1.401
19420W        W80709  43.380  28.558   4.777
19421W        W80710  29.116  12.169  12.921
19422W        W80711  11.691  27.520  14.813
19423W        W80712   8.362   1.821   2.861
19424W        W80713  22.206  40.799  10.450
19425W        W80714   9.206  10.777   0.940
19426W        W80715  15.083  32.926   4.195
19427W        W80716   9.337  26.580   4.691
19428W        W80717  28.166   0.786  10.061
19429W        W80718  19.689  17.615  13.955
19430W        W80719  28.448   1.287  10.494
19431W        W80720  20.764  36.575   4.716
19432W        W80721   9.831  42.931   0.942
19433W        W80722  25.705  39.010  13.344
19434W        W80723  40.869  15.098   4.697
19435W        W80724  23.601  12.118  11.913
19436W        W80725  20.274  43.361  14.799
19437W        W80726  11.211   5.243   4.680
19438W        W80727  16.704  12.839  12.578
19439W        W80728  28.008   6.720  14.415
19440W        W80729  43.310   1.831   3.865
19441W        W80730  10.246  30.590   4.181
19442W        W80731  10.659  22.723   2.820
19443W        W80732  27.046  14.096   1.771
19444W        W80733   6.849  37.476  12.090
19445W        W80734   0.799  23.556  11.576
19446W        W80735  29.976  37.895  14.768
19447W        W80736  22.716  21.709  13.884
19448W        W80737  23.567  15.206  12.832
19449W        W80738  40.843  15.141  12.430
19450W        W80739  44.260  26.520   1.860
19451W        W80740  33.458  23.567  13.868
19452W        W80741   8.356  32.410   9.676
19453W        W80742   0.322  19.603   1.399
19454W        W80743  24.681  33.011   4.137
19455W        W80744  18.221  36.091   1.834
19456W        W80745  26.693   5.709   4.325
19457W        W80746  37.361   6.318   1.800
19458W        W80747   0.778   2.851   2.245
19459W        W80748  42.930  31.965  14.792
19460W        W80749  23.054  32.130  14.963
19461W        W80750   4.936   0.788   5.308
19462W        W80751  31.074  16.703  11.992
19463W        W80752  15.715  41.942   2.279
19464W        W80753  41.872  17.099   2.370
19465W        W80754  29.114  33.441  10.627
19466W        W80755  10.154  21.721   3.756
19467W        W80756  42.515   3.730   0.825
19468W        W80757  10.343  15.669   4.114
19469W        W80758  21.552  19.534   4.236
19470W        W80759   6.282   0.456   0.793
19471W        W80760  41.876  39.989   4.347
19472W        W80761  28.585  23.734   1.343
19473W        W80762  20.161  33.521  10.567
19474W        W80763  17.608  32.455   4.223
19475W        W80764  32.568   6.742   4.667
19476W        W80765  34.006  15.176   2.699
19477W        W80766  33.402  40.802   0.355
19478W        W80767  36.436  10.792   2.402
19479W        W80768  15.717   1.834  11.599
19480W        W80769  31.908  15.181  14.820
19481W        W80770  11.364  29.108  14.335
19482W        W80771  39.553  26.501  11.412
19483W        W80772  10.769  16.247  10.433
19484W        W80773  22.216  20.753  11.472
19485W        W80774  18.597  15.181  11.602
19486W        W80775   0.856  30.599  11.126
19487W        W80776  17.239  19.553  12.981
19488W        W80777  11.344  10.782   1.279
19489W        W80778  32.140  31.576  14.439
19490W        W80779   2.904  43.866   4.634
19491W        W80780  12.253   0.471   3.282
19492W        W80781  42.987   6.826  14.501
19493W        W80782  12.352  16.220   4.655
19494W        W80783  16.141  14.673  13.962
19495W        W80784  44.326   7.320  14.890
19496W        W80785  13.770   4.233  11.948
19497W        W80786  12.191  14.674  11.128
19498W        W80787  11.633  38.880   4.186
19499W        W80788  16.792  16.729  13.996
19500W        W80789  26.523   6.862   4.318
19501W        W80790  32.479  27.147  11.958
19502W        W80791  30.083  12.717   2.331
19503W        W80792   8.834  44.004  14.326
19504W        W80793  38.877  28.056   3.645
19505W        W80794  24.690  20.265  14.512
19506W        W80795  26.199  22.235   2.246
19507W        W80796  22.732   1.828  10.990
19508W        W80797  21.697  20.139  13.976
19509W        W80798  29.511  17.618  10.636
19510W        W80799  22.170  28.936  10.945
19511W        W80800  27.181  29.486   2.804
19512W        W80801  42.467   5.226   3.152
19513W        W80802  44.468  39.815   1.904
19514W        W80803  35.437  36.069   4.608
19515W        W80804   7.180  14.173   1.751
19516W        W80805  24.661  15.249   0.319
19517W        W80806   2.444  20.543  13.540
19518W        W80807   5.347  11.848  11.391
19519W        W80808   0.859  33.876  10.508
19520W        W80809   1.255   4.866   3.814
19521W        W80810   7.824  24.210   3.200
19522W        W80811  29.174  40.860  13.480
19523W        W80812  14.137   3.427  13.793
19524W        W80813  11.200  33.958  12.068
19525W        W80814  29.062  19.083  13.483
19526W        W80815  13.342  12.174   0.857
19527W        W80816  38.399  12.729  10.448
19528W        W80817  36.486   5.772  14.467
19529W        W80818  38.523  43.481   4.273
19530W        W80819  31.058  29.167   0.798
19531W        W80820   2.415  19.118  12.922
19532W        W80821  36.504  20.638   0.761
19533W        W80822  22.532   4.335   1.759
19534W        W80823  17.205   9.717  13.940
19535W        W80824  24.520  43.273  13.952
19536W        W80825  32.091  44.801  13.959
19537W        W80826  20.126  42.900  14.865
19538W        W80827  11.708  44.458   3.803
19539W        W80828  23.122  12.836  14.774
19540W        W80829  42.827  38.010  12.061
19541W        W80830   1.951  42.789  11.441
19542W        W80831  30.657  35.898   0.961
19543W        W80832  39.980  35.602  14.941
19544W        W80833  12.647  44.285   2.679
19545W        W80834  25.470  31.639   0.869
19546W        W80835  22.522   8.312  14.908
19547W        W80836  31.583   9.169  14.016
19548W        W80837  14.664  30.049  13.320
19549W        W80838  40.846  11.758   2.878
19550W        W80839   2.786  17.090   0.947
19551W        W80840  27.491  14.323   2.821
19552W        W80841  19.063  15.210  12.864
19553W        W80842   6.806  32.998   3.160
19554W        W80843  40.505  12.746   4.235
19555W        W80844  19.086  35.502   0.367
19556W        W80845  30.612  22.688  13.035
19557W        W80846  30.530  12.137   0.270
19558W        W80847  13.235   1.425  14.909
19559W        W80848  10.335  29.463  12.362
19560W        W80849  10.301  38.569  11.437
19561W        W80850  30.982  17.192   0.763
19562W        W80851  21.241  29.625  14.824
19563W        W80852   7.218  18.783  14.876
19564W        W80853   9.229   7.884   0.835
19565W        W80854  14.589   7.721   3.329
19566W        W80855  37.921  13.254   2.263
19567W        W80856  40.028   7.322  14.432
19568W        W80857   8.330  44.426   4.741
19569W        W80858  42.347  25.973  14.296
19570W        W80859  35.089  16.685   3.682
19571W        W80860   9.152  29.569   1.728
19572W        W80861  21.250   6.854  14.402
19573W        W80862  21.729  38.935  10.628
19574W        W80863  32.596   7.762   3.808
19575W        W80864  18.656  12.711   4.190
19576W        W80865   2.909   6.182  10.994
19577W        W80866  42.419  31.982   4.761
19578W        W80867  35.409  17.139  12.451
19579W        W80868  25.569  41.313   0.396
19580W        W80869   1.875  26.703  14.944
19581W        W80870  40.370  44.343  11.396
19582W        W80871  42.351  38.537   0.413
19583W        W80872   4.813  31.419  14.350
19584W        W80873  37.957  10.310  10.154
19585W        W80874  16.627  34.389   3.753
19586W        W80875  37.873  27.512  10.917
19587W        W80876   8.342  43.314  14.863
19588W        W80877  43.770  40.869   2.804
19589W        W80878  15.144  16.798  14.861
19590W        W80879  40.467   4.369  11.435
19591W        W80880  24.986  44.846   0.948
19592W        W80881   8.726  38.344  12.015
19593W        W80882  41.038  10.233   4.679
19594W        W80883  11.802  34.067  13.327
19595W        W80884   7.171  10.330   1.397
19596W        W80885  25.209  28.099  14.317
19597W        W80886  16.099   7.819  10.539
19598W        W80887  28.550  15.206  14.356
19599W        W80888  17.691  28.675  11.939
19600W        W80889  15.317  38.926  12.851
19601W        W80890  35.497  22.058   2.682
19602W        W80891  23.724  36.448   0.746
19603W        W80892   8.337   6.272   1.230
19604W        W80893  13.172  44.282  12.084
19605W        W80894  44.493  27.622   1.329
19606W        W80895  16.280  37.469   0.415
19607W        W80896  22.183   3.414  14.321
19608W        W80897  32.433  25.498  11.966
19609W        W80898  40.369  24.104  11.973
19610W        W80899  38.350  33.090  14.849
19611W        W80900  33.390  30.505  13.010
19612W        W80901  29.576  12.191  13.956
19613W        W80902  24.085  17.146   2.345
19614W        W80903  29.529  33.416  13.440
19615W        W80904   6.382  23.691  12.484
19616W        W80905   0.893  28.975  12.560
19617W        W80906  34.411   2.405  13.460
19618W        W80907  16.143  14.621  14.488
19619W        W80908   5.871  32.573   2.199
19620W        W80909  29.559  35.916  14.884
19621W        W80910  38.851  15.667   1.420
19622W        W80911  28.484   1.479  11.041
19623W        W80912  26.497  32.609  10.897
19624W        W80913   9.203  21.235  11.109
19625W        W80914  14.815  21.578   0.751
19626W        W80915  29.947   8.881  12.496
19627W        W80916   9.321  36.462  11.073
19628W        W80917  17.203   9.246   3.231
19629W        W80918   5.220  14.189   0.407
19630W        W80919  22.647  41.507  12.571
19631W        W80920  24.569  39.890   1.852
19632W        W80921  27.190  19.083  14.338
19633W        W80922   4.384  41.875  12.407
19634W        W80923  22.536  18.581   5.166
19635W        W80924   9.862  23.191  10.919
19636W        W80925   2.446   4.801   4.128
19637W        W80926  18.645  30.083  12.865
19638W        W80927  42.416  12.733  14.475
19639W        W80928  41.921  22.073   1.889
19640W        W80929   9.381  19.653  13.829
19641W        W80930  44.414  29.955  13.837
19642W        W80931  21.166  16.806   4.735
19643W        W80932  12.219   7.684  11.565
19644W        W80933   3.752  34.533  14.770
19645W        W80934  16.708  17.758  13.323
19646W        W80935  29.497  36.514  11.543
19647W        W80936   0.987   1.406  10.581
19648W        W80937   9.796  42.988  10.133
19649W        W80938  43.328  11.628  10.080
19650W        W80939  17.661  13.289   2.804
19651W        W80940  30.057  25.088  13.962
19652W        W80941  32.886   0.478   0.846
19653W        W80942   0.461  26.532   2.318
19654W        W80943  27.034  35.445   0.339
19655W        W80944  42.296   9.853  11.602
19656W        W80945   0.850   2.302  14.868
19657W        W80946  39.052  21.552   0.261
19658W        W80947  42.947  28.048  11.542
19659W        W80948  28.127  20.639  11.589
19660W        W80949  17.560   7.862  11.478
19661W        W80950  12.813  44.879  12.093
19662W        W80951  20.251  35.899  10.564
19663W        W80952  40.841  35.395  12.905
19664W        W80953  16.718   0.372  11.996
19665W        W80954  40.365  40.873  14.762
19666W        W80955  23.096  40.333   1.853
19667W        W80956  19.278  13.829  12.894
19668W        W80957  18.590  37.485   9.946
19669W        W80958  18.783   5.768  14.826
19670W        W80959  34.897   8.403  10.948
19671W        W80960  29.620  14.827   4.244
19672W        W80961  14.799  31.084   2.667
19673W        W80962  25.975  43.456   2.273
19674W        W80963   9.200  16.686   1.802
19675W        W80964  25.588  13.204   4.677
19676W        W80965  39.513   2.951  14.369
19677W        W80966  21.184  14.656  10.553
19678W        W80967  19.736  40.845   2.896
19679W        W80968  23.549   6.223  13.362
19680W        W80969  30.995  11.849  12.850
19681W        W80970  38.993  34.572  12.507
19682W        W80971  33.022  28.061   0.251
19683W        W80972  16.253  23.055   5.126
19684W        W80973  26.550  21.196   2.311
19685W        W80974  42.903  35.444  13.920
19686W        W80975  41.303  29.586   1.751
19687W        W80976  28.450  35.098  14.008
19688W        W80977  32.501  10.717  12.844
19689W        W80978  18.667  35.563  12.407
19690W        W80979  19.205   7.805  11.424
19691W        W80980  43.019  18.650   0.789
19692W        W80981   4.782  35.514  12.048
19693W        W80982  17.249   1.242   1.451
19694W        W80983   2.355   4.375   0.904
19695W        W80984  22.167  30.092  11.484
19696W        W80985  16.124   9.735   3.840
19697W        W80986  30.644  18.778  14.338
19698W        W80987   7.182   1.339   1.323
19699W        W80988  36.575  35.397   0.271
19700W        W80989  38.937  20.053  11.424
19701W        W80990  33.596  39.474   4.736
19702W        W80991  34.074   5.218   1.358
19703W        W80992  31.018  28.999  11.079
19704W        W80993  25.594   3.852   4.223
19705W        W80994  38.846  25.541   2.251
19706W        W80995  22.609  10.154   2.788
19707W        W80996  42.391  26.094   2.895
19708W        W80997  22.685  27.034  11.426
19709W        W80998  25.063  10.214   4.658
19710W        W80999  35.090  17.266   0.854
19711W        W81000  24.709  43.487  14.506
19712W        W81001  29.604  43.476   1.894
19713W        W81002  44.394  43.375  12.507
19714W        W81003   9.244  19.183   0.935
19715W        W81004   8.341  18.161   0.840
19716W        W81005  15.630  38.047   0.890
19717W        W81006  18.776  43.347  12.880
19718W        W81007  27.582  17.669   0.480
19719W        W81008  30.057  10.800   1.886
19720W        W81009  43.302   9.283   3.380
19721W        W81010  27.524  11.156   0.245
19722W        W81011  29.514  16.101   2.725
19723W        W81012  26.685  15.138  14.831
19724W        W81013  14.126  34.004   0.342
19725W        W81014  31.609   6.790   2.854
19726W        W81015   0.877  31.011  10.955
19727W        W81016   1.854  37.511   1.338
19728W        W81017  42.916   3.424  12.419
19729W        W81018  23.032  22.688   1.893
19730W        W81019  23.198  11.850   1.898
19731W        W81020  12.724  25.201  12.442
19732W        W81021  26.183   9.336   2.398
19733W        W81022  36.868  30.635   0.401
19734W        W81023  40.021  23.657  14.969
19735W        W81024  41.831  41.890   1.792
19736W        W81025   7.416  15.167  13.849
19737W        W81026   7.215  12.276   1.746
19738W        W81027   2.297  13.112   4.344
19739W        W81028  33.484  27.692   1.386
19740W        W81029  37.038  44.766   1.440
19741W        W81030  22.068  25.005   2.812
19742W        W81031  20.064   0.817  13.475
19743W        W81032  34.888  28.176  11.462
19744W        W81033  20.595  20.732  14.325
19745W        W81034  37.941  26.056  12.937
19746W        W81035  19.053  40.380   4.718
19747W        W81036  35.581  30.032   2.348
19748W        W81037   4.819  21.263  11.964
19749W        W81038  10.793  39.431  14.506
19750W        W81039   6.770  25.473   3.265
19751W        W81040  21.160  34.594   0.796
19752W        W81041  35.062  36.357   4.727
19753W        W81042  39.482  27.467   3.231
19754W        W81043  26.651  38.849  11.466
19755W        W81044   8.872  43.870  10.436
19756W        W81045  14.724  43.919   3.704
19757W        W81046   0.904   5.362   0.902
19758W        W81047  21.663   5.921  13.837
19759W        W81048  12.279  35.055   2.792
19760W        W81049  20.118  22.166  11.095
19761W        W81050   9.860  39.368   3.241
19762W        W81051   0.798  16.775  14.458
19763W        W81052   8.336  20.120   2.850
19764W        W81053  25.174   0.448  13.886
19765W        W81054   3.839  42.426   4.746
19766W        W81055  11.799   8.851   3.687
19767W        W81056  39.060   8.696  14.983
19768W        W81057  24.549  42.313   4.741
19769W        W81058  29.517   2.794   4.192
19770W        W81059  23.125  32.891  13.851
19771W        W81060   6.204  16.181   1.303
19772W        W81061   7.377  36.925   0.910
19773W        W81062  25.138  26.457  12.379
19774W        W81063  18.260  20.041   3.804
19775W        W81064   9.738  44.980  13.490
19776W        W81065  43.855   5.364  11.482
19777W        W81066  20.757  26.032  14.852
19778W        W81067  38.402  30.478  12.359
19779W        W81068  40.311  18.715  14.894
19780W        W81069  35.509   2.440  11.380
19781W        W81070  23.088  27.003  12.018
19782W        W81071  37.441  27.564  14.916
19783W        W81072   6.778  20.198   0.836
19784W        W81073  21.652  16.229   4.195
19785W        W81074  43.361  15.710   2.335
19786W        W81075  21.079  10.141  10.903
19787W        W81076  14.273   9.300   2.394
19788W        W81077   3.735   0.448  14.448
19789W        W81078  35.593  42.788   1.785
19790W        W81079  35.917   3.766  11.408
19791W        W81080  36.354  18.756  10.050
19792W        W81081  39.948  16.174  12.480
19793W        W81082   7.190  39.548   0.802
19794W        W81083  37.425  19.274   4.608
19795W        W81084  15.811  13.288   2.207
19796W        W81085  44.837  44.324   1.393
19797W        W81086  12.145  26.476  11.957
19798W        W81087  20.628  19.627   1.895
19799W        W81088  37.069  23.576  13.047
19800W        W81089  34.977  23.531  12.465
19801W        W81090  36.488   0.372   4.686
19802W        W81091  25.482  20.197   2.725
19803W        W81092   8.863   6.874   3.847
19804W        W81093  21.572  21.078   2.206
19805W        W81094  10.313  12.618   5.141
19806W        W81095   1.427  29.133  13.388
19807W        W81096  44.829  15.695   1.287
19808W        W81097  30.940  40.339   3.225
19809W        W81098   4.784  33.597   3.797
19810W        W81099  42.016  17.269  11.114
19811W        W81100  34.952  30.154   4.141
19812W        W81101  13.822  10.765  11.045
19813W        W81102  17.221  39.344  12.466
19814W        W81103  21.201  35.893  10.127
19815W        W81104  38.887  25.073  10.093
19816W        W81105  35.400   4.728  10.114
19817W        W81106  17.576  38.496  13.854
19818W        W81107  27.538  31.552  13.980
19819W        W81108  12.219  36.508   2.344
19820W        W81109  15.789   1.929   9.924
19821W        W81110  34.566  21.199   4.219
19822W        W81111  31.948  41.307   4.672
19823W        W81112   4.903  30.576   3.256
19824W        W81113   1.350  14.660  14.495
19825W        W81114   9.871   3.383   1.256
19826W        W81115  42.375  25.694   3.861
19827W        W81116  26.147   2.874  11.475
19828W        W81117  35.054  13.281  12.570
19829W        W81118  39.988  34.027   1.851
19830W        W81119  26.154  16.778  10.581
19831W        W81120  30.083   8.183  10.934
19832W        W81121  17.083  40.402  13.972
19833W        W81122   2.291   6.754   4.827
19834W        W81123  19.706  21.632   1.289
19835W        W81124  22.742   8.242  11.485
19836W        W81125  43.784  39.021   4.733
19837W        W81126   6.914  43.473  14.415
19838W        W81127   4.346   4.939   0.911
19839W        W81128  28.608   9.175  11.105
19840W        W81129  33.476  31.141  13.977
19841W        W81130  27.020   3.320   2.376
19842W        W81131   4.284  41.360  11.041
19843W        W81132  26.592   8.898   2.318
19844W        W81133   2.458  20.546   1.934
19845W        W81134  33.885  14.614  14.418
19846W        W81135  36.350  41.509  13.532
19847W        W81136   2.412  25.699  14.350
19848W        W81137  36.487  20.217   1.779
19849W        W81138  30.122  44.348   0.869
19850W        W81139  15.683  35.965   3.336
19851W        W81140  40.051   6.838   1.914
19852W        W81141  17.599   0.440   1.899
19853W        W81142   4.873  35.949  14.942
19854W        W81143  11.168  13.284   3.852
19855W        W81144  15.788  34.535  10.540
19856W        W81145  10.702  41.296  14.860
19857W        W81146  17.261   9.845  12.531
19858W        W81147  42.849   7.869  10.544
19859W        W81148  28.660  32.440  12.562
19860W        W81149  38.559  23.016  11.551
19861W        W81150  23.073  33.919  12.561
19862W        W81151   7.223   9.835  14.814
19863W        W81152  30.575  44.311   1.320
19864W        W81153  38.998   5.813  11.867
19865W        W81154  31.425  23.095   0.879
19866W        W81155  25.633  26.191   0.746
19867W        W81156  15.233   6.324  12.843
19868W        W81157  11.280  14.814  13.866
19869W        W81158  11.671  18.173  10.558
19870W        W81159  10.819  29.431  13.852
19871W        W81160  14.606  27.638   0.747
19872W        W81161  11.811  14.146  10.548
19873W        W81162  40.405  23.509   4.212
19874W        W81163   1.424  33.912  12.006
19875W        W81164  33.056  11.710   4.208
19876W        W81165  22.067  38.870   2.225
19877W        W81166  30.605  18.052   0.744
19878W        W81167  27.511  10.839   5.106
19879W        W81168   9.740  26.056   3.147
19880W        W81169  43.926  17.129   2.341
19881W        W81170  41.295  13.309   4.274
19882W        W81171   6.367   1.313  14.976
19883W        W81172  43.387   9.787   9.582
19884W        W81173  31.073  18.262   2.668
19885W        W81174  28.501  29.132   3.755
19886W        W81175  13.214  37.871  13.026
19887W        W81176  13.704   8.723  11.885
19888W        W81177  32.497  14.288   2.859
19889W        W81178  26.679  43.412   2.897
19890W        W81179  30.017  13.803  13.330
19891W        W81180  38.944  37.029  11.891
19892W        W81181   2.230   2.922   0.286
19893W        W81182  23.712  32.557  10.452
19894W        W81183  35.362  11.763   2.183
19895W        W81184  31.137  17.654  11.886
19896W        W81185   4.699  11.137   3.267
19897W        W81186  44.436  27.021   0.393
19898W        W81187  13.145  26.581  12.863
19899W        W81188  25.075  24.637  12.402
19900W        W81189  14.307  14.619   4.286
19901W        W81190  27.062   9.859  12.391
19902W        W81191   5.270  29.445  13.921
19903W        W81192  37.407  42.496   1.321
19904W        W81193  33.936  20.204  12.860
19905W        W81194  34.518  12.303  11.126
19906W        W81195   3.343   4.221   1.452
19907W        W81196  28.567  11.868  12.428
19908W        W81197  24.499  42.023  13.840
19909W        W81198  14.630  30.430  13.480
19910W        W81199  23.625  23.991  12.031
19911W        W81200  22.632  34.014  10.905
19912W        W81201  26.511  43.385  13.060
19913W        W81202   0.285  21.757   4.680
19914W        W81203   9.350   6.251   0.884
19915W        W81204  19.688   8.264  11.078
19916W        W81205  19.076  30.563   3.370
19917W        W81206  32.918  11.166  11.468
19918W        W81207  31.586   8.388   2.801
19919W        W81208  12.179  11.253  14.759
19920W        W81209   8.177  12.180   1.926
19921W        W81210  11.267   4.218   5.705
19922W        W81211  41.387  14.221   2.677
19923W        W81212  17.652  34.582   3.271
19924W        W81213   1.418  26.982  11.865
19925W        W81214  41.813  13.150   2.411
19926W        W81215   2.373  39.553  12.530
19927W        W81216  28.177  32.507   2.358
19928W        W81217  29.489  20.172   4.154
19929W        W81218  19.569  22.643   4.324
19930W        W81219  40.046  21.184  13.524
19931W        W81220   8.687  40.405   1.722
19932W        W81221  10.712  37.940  12.865
19933W        W81222  15.653  33.916  10.569
19934W        W81223  29.654  41.923  12.882
19935W        W81224  34.863  24.628   0.944
19936W        W81225  23.123   0.779  13.056
19937W        W81226  33.026  12.265  13.942
19938W        W81227  42.990  39.968  14.335
19939W        W81228  31.061   2.446   5.251
19940W        W81229  14.694  14.610   0.371
19941W        W81230  29.438   6.208   1.915
19942W        W81231  14.731  19.768   5.316
19943W        W81232  44.393  44.395   0.416
19944W        W81233  15.163  12.190   4.226
19945W        W81234  18.286  12.724  12.352
19946W        W81235  35.027  42.447  12.837
19947W        W81236  31.964  32.449  11.533
19948W        W81237  13.120  30.126  14.851
19949W        W81238  18.187  14.702  12.073
19950W        W81239  40.911  41.991   0.765
19951W        W81240  20.038  11.154   3.646
19952W        W81241  41.980  20.607  11.466
19953W        W81242   6.752  18.643   3.351
19954W        W81243   0.930  44.822  12.901
19955W        W81244  16.765  40.002   2.858
19956W        W81245   2.382  27.969  13.995
19957W        W81246   4.230  17.632  12.839
19958W        W81247  22.173  42.403  11.530
19959W        W81248   2.876  30.037   4.797
19960W        W81249  44.474  13.699  11.859
19961W        W81250  21.622  16.718  12.884
19962W        W81251  32.049  42.383   0.308
19963W        W81252  29.089  34.086   4.235
19964W        W81253  37.504  38.487  11.490
19965W        W81254  16.704  37.469  12.418
19966W        W81255  32.408  12.253  11.582
19967W        W81256  22.654  41.538   0.923
19968W        W81257   6.417   4.882  10.910
19969W        W81258   5.226  21.747  12.973
19970W        W81259   6.406  40.456   4.191
19971W        W81260  13.641  26.087  13.052
19972W        W81261  30.024  35.901   1.823
19973W        W81262  28.679  29.101   0.903
19974W        W81263   3.759  21.711   2.228
19975W        W81264  15.820  43.943  14.031
19976W        W81265   5.325  38.541  14.475
19977W        W81266  32.045  44.471  11.478
19978W        W81267  25.967  44.334  12.560
19979W        W81268  24.081  21.061  14.802
19980W        W81269  31.057  28.496  14.418
19981W        W81270  34.940  32.009   2.303
19982W        W81271   7.758  34.909   2.845
19983W        W81272  19.091  44.407   1.305
19984W        W81273  27.623  42.307  12.083
19985W        W81274  18.720  35.534   2.263
19986W        W81275   1.735  12.829  11.055
19987W        W81276  39.348  42.914   0.807
19988W        W81277  23.657  39.340  11.556
19989W        W81278  15.735  41.303  11.593
19990W        W81279  40.472   3.344  13.854
19991W        W81280  33.050  11.764   2.830
19992W        W81281  36.439   0.921   3.757
19993W        W81282  30.135  43.818  14.893
19994W        W81283   7.749  31.571   3.331
19995W        W81284  13.801  27.106   4.224
19996W        W81285  43.484  13.267  10.113
19997W        W81286  12.295   2.887  10.544
19998W        W81287   4.904  24.632   2.809
19999W        W81288   6.365   5.399   4.738
20000W        W81289  32.944   5.814   1.347
20001W        W81290  31.047   0.391  13.532
20002W        W81291  23.627  12.272  12.890
20003W        W81292   4.889  33.876  14.438
20004W        W81293  31.150  44.310   1.749
20005W        W81294  14.295   3.804   4.668
20006W        W81295  15.758  24.553   1.748
20007W        W81296   9.356  24.046  10.082
20008W        W81297  32.059  10.658   4.226
20009W        W81298  30.965  12.341  11.508
20010W        W81299  15.719  17.673   2.806
20011W        W81300  12.175  25.707  11.473
20012W        W81301  25.617  22.089  12.440
20013W        W81302  13.238   9.253   2.673
20014W        W81303  39.388   7.733  14.813
20015W        W81304  28.147  20.246  14.485
20016W        W81305   9.750  22.585  10.563
20017W        W81306  25.593  33.451   5.090
20018W        W81307  13.807  31.128   2.814
20019W        W81308  22.182  33.415  10.564
20020W        W81309  10.142   1.831  12.837
20021W        W81310  24.169  35.915   3.826
20022W        W81311  21.129  27.106  13.426
20023W        W81312  35.072  11.815  10.985
20024W        W81313  30.509  30.493   4.761
20025W        W81314  21.216   0.346   4.708
20026W        W81315  12.771  23.500  11.553
20027W        W81316   7.852  37.421   2.828
20028W        W81317   4.385   6.244  11.378
20029W        W81318  25.040  17.196   4.700
20030W        W81319  43.790  32.001   2.384
20031W        W81320  17.233  39.447  10.412
20032W        W81321  27.651   5.745  12.058
20033W        W81322  40.411  34.891  10.100
20034W        W81323  16.574  12.719   1.228
20035W        W81324  27.610   1.769   4.117
20036W        W81325  13.314   2.814   4.277
20037W        W81326  27.542   9.381  11.441
20038W        W81327  36.097  37.842  10.444
20039W        W81328  13.664  18.721  13.876
20040W        W81329  18.707   0.968   0.466
20041W        W81330  10.663  14.208   0.472
20042W        W81331  35.480   5.383   9.534
20043W        W81332  24.171  42.854   5.193
20044W        W81333  39.028   2.796  11.922
20045W        W81334   0.394   1.919   0.841
20046W        W81335  18.722  34.441  11.946
20047W        W81336   7.250  14.746   3.268
20048W        W81337  43.417  31.645   0.896
20049W        W81338  27.499   9.826  11.939
20050W        W81339  41.450  10.225   1.292
20051W        W81340  28.542  44.895  13.483
20052W        W81341  34.890  19.718   5.134
20053W        W81342  11.314  42.513  11.471
20054W        W81343  11.706  22.159  10.631
20055W        W81344  42.966  44.288  13.835
20056W        W81345  36.848  19.104   2.314
20057W        W81346   3.717  20.680  13.923
20058W        W81347   1.900  29.526   1.288
20059W        W81348  21.101  30.487   2.728
20060W        W81349   0.942  19.646   0.473
20061W        W81350  11.809   9.161  10.970
20062W        W81351   3.888  29.962   2.882
20063W        W81352  43.505  26.091  12.983
20064W        W81353  30.460  30.599  13.949
20065W        W81354   9.654  11.745  11.502
20066W        W81355   3.808  37.073  10.513
20067W        W81356  18.290  22.712   2.752
20068W        W81357  23.549  20.642   0.299
20069W        W81358   8.742  15.250  11.466
20070W        W81359  17.743  35.424   4.174
20071W        W81360  25.632   5.200   4.191
20072W        W81361   7.691  35.854  11.612
20073W        W81362  15.116  39.389   1.887
20074W        W81363  37.413   4.344   3.711
20075W        W81364  11.167  10.292  11.115
20076W        W81365  22.066  18.647   1.441
20077W        W81366  29.981  35.581   0.364
20078W        W81367  23.645  35.906   4.256
20079W        W81368  24.060  20.736   9.928
20080W        W81369  40.860  39.506  13.795
20081W        W81370  38.568  14.784   3.326
20082W        W81371  15.274  36.378  11.530
20083W        W81372  43.981  44.290  14.791
20084W        W81373   5.358  33.031  10.537
20085W        W81374  16.277  28.620  13.390
20086W        W81375  14.613  27.991   4.717
20087W        W81376  10.140  41.418   1.451
20088W        W81377  32.410  15.612  10.003
20089W        W81378  24.044  42.508   2.203
20090W        W81379  35.603  23.226  14.878
20091W        W81380   0.882  38.413  13.810
20092W        W81381   4.384   2.850  14.954
20093W        W81382   8.794  10.859  14.300
20094W        W81383  17.576   3.810  13.996
20095W        W81384  36.844  17.288   1.274
20096W        W81385  22.540  43.966   2.265
20097W        W81386  26.534  14.799   4.120
20098W        W81387  25.500   8.655   2.774
20099W        W81388   9.174  25.533   0.283
20100W        W81389  12.194  41.834  10.617
20101W        W81390  37.981  26.035   1.843
20102W        W81391   9.780   3.767  11.914
20103W        W81392  27.102  31.045   0.926
20104W        W81393  16.205  12.350  13.795
20105W        W81394   2.250  32.904  12.865
20106W        W81395   1.293   2.414  12.006
20107W        W81396  34.999  25.985  14.397
20108W        W81397   2.366  10.193   4.692
20109W        W81398  40.388  38.470   1.298
20110W        W81399   5.786   7.194   1.913
20111W        W81400  11.808  36.374  13.525
20112W        W81401  32.616  35.946   1.708
20113W        W81402  29.058   9.719   1.900
20114W        W81403   1.309  36.886  12.080
20115W        W81404  19.099  15.131  10.552
20116W        W81405  32.523   7.233   3.698
20117W        W81406  13.215  34.929   5.121
20118W        W81407   6.746  17.560   2.726
20119W        W81408  21.157  28.971  12.936
20120W        W81409  31.501  21.633  10.529
20121W        W81410  29.580  41.803   1.778
20122W        W81411  13.296  32.983  12.002
20123W        W81412   5.430  21.593  11.421
20124W        W81413   4.845  43.302   0.385
20125W        W81414   5.871  31.574  11.855
20126W        W81415  12.777  22.181  13.310
20127W        W81416  23.564   5.925   2.375
20128W        W81417  39.008  19.161  11.013
20129W        W81418  36.421  41.927   4.123
20130W        W81419  16.087   2.358   2.225
20131W        W81420  13.330  26.121   3.343
20132W        W81421  23.690  20.037  12.894
20133W        W81422  13.733   3.317  10.979
20134W        W81423  23.069   4.381   1.930
20135W        W81424  29.139   8.395  13.890
20136W        W81425  26.680  16.642   0.263
20137W        W81426  22.531   9.692   1.379
20138W        W81427  22.596  19.251   3.311
20139W        W81428  13.221   7.758  10.432
20140W        W81429  43.797  17.166  10.593
20141W        W81430  35.098  30.064   1.353
20142W        W81431  40.999  34.503  11.895
20143W        W81432  29.952   1.872   0.920
20144W        W81433   5.399  25.543  11.521
20145W        W81434   3.247   1.240   3.854
20146W        W81435  19.129  26.670   3.697
20147W        W81436  40.479  17.218   0.826
20148W        W81437  13.326  31.636   4.799
20149W        W81438  10.765   8.318   4.289
20150W        W81439  19.616  33.568   2.809
20151W        W81440   6.236  36.081  10.468
20152W        W81441  38.462  36.845  14.764
20153W        W81442  14.628  17.676   2.187
20154W        W81443  36.388  43.801  11.115
20155W        W81444  12.707   7.699  13.818
20156W        W81445   0.819   6.405   3.315
20157W        W81446  33.561   1.843   0.324
20158W        W81447  11.173  28.948  11.029
20159W        W81448  25.998   1.923   0.753
20160W        W81449  26.468   1.770   0.833
20161W        W81450  32.491  19.542  14.015
20162W        W81451   0.971  25.026  13.973
20163W        W81452  28.078  29.424  11.946
20164W        W81453  30.470  39.037  14.479
20165W        W81454  40.545  33.425   3.631
20166W        W81455  17.634  27.512  14.917
20167W        W81456  23.200  26.117   4.633
20168W        W81457   3.403  23.239   0.905
20169W        W81458  31.489   7.901  13.912
20170W        W81459  10.804  10.735   2.322
20171W        W81460  28.473   2.817   2.331
20172W        W81461  29.569  25.474  11.529
20173W        W81462  27.050  44.338  14.853
20174W        W81463   3.737  38.863  11.432
20175W        W81464  12.358  38.924  12.944
20176W        W81465  16.609  40.385  11.590
20177W        W81466   3.289  16.799  13.544
20178W        W81467  23.553  44.319   0.851
20179W        W81468  10.244   8.743   2.181
20180W        W81469  17.113  13.147  11.091
20181W        W81470  37.047   5.704  12.520
20182W        W81471  31.471  17.734  13.957
20183W        W81472  21.091  25.522   1.366
20184W        W81473  13.840  21.580  12.982
20185W        W81474  31.041  31.439   0.897
20186W        W81475  28.142  25.092   5.176
20187W        W81476  15.667  14.719  12.561
20188W        W81477  42.379  14.628  14.317
20189W        W81478  24.143  29.670   1.801
20190W        W81479  22.092  36.065  10.518
20191W        W81480  18.586  12.616   0.810
20192W        W81481  25.056  19.111  13.522
20193W        W81482  37.085  40.480  11.915
20194W        W81483  32.061  27.151   2.808
20195W        W81484  43.272  11.234   9.615
20196W        W81485  34.005  29.048   1.835
20197W        W81486   6.244   7.760   2.341
20198W        W81487  22.008   4.741  14.995
20199W        W81488  36.526  16.671   1.273
20200W        W81489  20.588  24.567  12.049
20201W        W81490  26.466  30.082  12.959
20202W        W81491   1.371  21.234  11.452
20203W        W81492  17.085  19.551  11.426
20204W        W81493  15.740  20.653  14.337
20205W        W81494  15.327  21.121   2.238
20206W        W81495  41.320  19.130   4.825
20207W        W81496  12.825  37.521   5.301
20208W        W81497  28.044  38.504  11.867
20209W        W81498  20.192  20.084  13.974
20210W        W81499   0.456  30.141  12.424
20211W        W81500  13.195  41.523  13.482
20212W        W81501  39.006  25.124  14.862
20213W        W81502   8.872  44.970  13.449
20214W        W81503  13.203  25.213  11.404
20215W        W81504  28.473  30.951   2.184
20216W        W81505  28.003  16.678   4.274
20217W        W81506   8.398  16.144   2.806
20218W        W81507  17.306  14.234  10.026
20219W        W81508   2.236  23.988  13.865
20220W        W81509  43.825  40.422   4.215
20221W        W81510  35.488  20.703  12.401
20222W        W81511  44.448  36.979   3.690
20223W        W81512  14.752  21.237   1.375
20224W        W81513  39.370  10.384   1.818
20225W        W81514  39.355  38.034   1.243
20226W        W81515  22.144  30.042  12.512
20227W        W81516  22.650  30.653   5.158
20228W        W81517  31.074  33.472  10.599
20229W        W81518   3.728   3.806   0.413
20230W        W81519   8.788  39.935  11.559
20231W        W81520  20.133   9.287   1.418
20232W        W81521   3.451   1.869   2.759
20233W        W81522   3.270  24.602   2.898
20234W        W81523  37.987  35.994  11.089
20235W        W81524  15.716  26.669  10.511
20236W        W81525  43.830   2.342   3.178
20237W        W81526  10.876  39.453  11.442
20238W        W81527  15.591  19.654  11.545
20239W        W81528  35.437  26.156  12.861
20240W        W81529  11.217   8.336   1.298
20241W        W81530  13.329  41.493  12.078
20242W        W81531  23.179  44.361   3.792
20243W        W81532  42.822   9.819   3.815
20244W        W81533  33.509  35.932  12.370
20245W        W81534  40.325   6.340   1.241
20246W        W81535  40.826  34.877  12.441
20247W        W81536   5.279  30.542   2.318
20248W        W81537   9.196  29.029   4.308
20249W        W81538  31.911   4.441   1.391
20250W        W81539  39.976  44.393  13.987
20251W        W81540   1.822  36.548  10.501
20252W        W81541  15.238  32.109   1.837
20253W        W81542  44.314  27.074  11.110
20254W        W81543  31.567  35.058   0.426
20255W        W81544  26.615   5.394  10.472
20256W        W81545  42.368  28.931  10.905
20257W        W81546   5.413  22.124   4.182
20258W        W81547  14.260  13.610  11.447
20259W        W81548   7.699   8.265  12.028
20260W        W81549  11.860  33.497   2.743
20261W        W81550  28.091  32.934  13.477
20262W        W81551  17.738  19.652  11.545
20263W        W81552  16.754  10.698  12.920
20264W        W81553  35.107  25.068  10.072
20265W        W81554   1.738  44.757  13.507
20266W        W81555   7.286  26.189   1.449
20267W        W81556  24.974  27.124  12.084
20268W        W81557   2.786   9.797   3.691
20269W        W81558  15.753  33.584  11.115
20270W        W81559  30.070  16.660  12.854
20271W        W81560  14.298  29.464   4.715
20272W        W81561  33.471  18.754   3.823
20273W        W81562   8.401  35.511   0.792
20274W        W81563   4.717  26.082   1.214
20275W        W81564  43.975   6.309  12.392
20276W        W81565  24.637  36.486   2.692
20277W        W81566  20.531  39.846  11.526
20278W        W81567  39.025   1.962   1.892
20279W        W81568  17.668  36.444   1.754
20280W        W81569  30.440  18.086  14.477
20281W        W81570   3.328  33.962  12.014
20282W        W81571  28.481   1.740  11.577
20283W        W81572  22.204  33.943   1.358
20284W        W81573  20.650  20.639   0.354
20285W        W81574   7.259  12.149  14.311
20286W        W81575  44.354  30.545  10.079
20287W        W81576  27.951  24.581  11.001
20288W        W81577   6.416  18.151   1.300
20289W        W81578  33.550  12.293   2.706
20290W        W81579  35.482   2.383   1.775
20291W        W81580  25.542  15.158  14.495
20292W        W81581  15.314  33.570  14.489
20293W        W81582  43.511  30.031   0.781
20294W        W81583   4.857  29.664   1.407
20295W        W81584   9.209  23.144  11.120
20296W        W81585  23.134  38.063  14.948
20297W        W81586   6.375  17.648  14.981
20298W        W81587   2.911  39.530   0.828
20299W        W81588  17.217  40.458   4.745
20300W        W81589  28.035  43.335  10.451
20301W        W81590  16.577  38.381  10.988
20302W        W81591  10.266   1.481   2.232
20303W        W81592  20.242   7.807  11.539
20304W        W81593  23.009  15.692  11.983
20305W        W81594  44.924  44.856   1.812
20306W        W81595   7.294   8.233   3.723
20307W        W81596  27.181  10.691  13.398
20308W        W81597   3.821  36.962   0.438
20309W        W81598  41.441  30.003   4.706
20310W        W81599  34.010   6.797  13.961
20311W        W81600  26.525  21.554  10.101
20312W        W81601  33.040  42.888  13.388
20313W        W81602  17.712  43.362   4.187
20314W        W81603  23.535  13.292  10.904
20315W        W81604  29.664  20.693  12.064
20316W        W81605  17.694  36.874  10.131
20317W        W81606  34.559  18.143  12.574
20318W        W81607  18.169  16.655  11.584
20319W        W81608  40.957  15.820  14.511
20320W        W81609  30.528  28.040  13.959
20321W        W81610  26.530  28.980  10.910
20322W        W81611   1.911  14.725   1.874
20323W        W81612  22.154   2.883  14.380
20324W        W81613   9.690  41.316   3.173
20325W        W81614  25.571  24.629  13.399
20326W        W81615   4.282  26.623   3.289
20327W        W81616  38.569  41.344   2.686
20328W        W81617  30.158  31.476   3.244
20329W        W81618   0.874   7.756   4.301
20330W        W81619   4.927   3.928   0.846
20331W        W81620  43.405  25.684  13.459
20332W        W81621  40.017  17.207   1.714
20333W        W81622  14.159  23.025  11.965
20334W        W81623  34.376  25.213  13.866
20335W        W81624  22.133   1.454  11.557
20336W        W81625  44.303  24.638   3.257
20337W        W81626  23.723  27.683  10.900
20338W        W81627  44.818   8.379   4.608
20339W        W81628  19.224  29.980  10.409
20340W        W81629  31.015   4.884   4.227
20341W        W81630  11.253  10.668  13.518
20342W        W81631  33.954  38.872   4.168
20343W        W81632  10.640  13.251  14.938
20344W        W81633  42.332  26.091  10.433
20345W        W81634   2.822  44.975  12.080
20346W        W81635  34.091  15.248  11.438
20347W        W81636   5.398  13.639  10.411
20348W        W81637  38.502  28.582  10.469
20349W        W81638  27.108  13.714   0.425
20350W        W81639  17.247   2.896   0.304
20351W        W81640  13.731  12.306   0.248
20352W        W81641   9.149  35.977  10.941
20353W        W81642  31.537  21.070   0.369
20354W        W81643  43.407   6.311  12.470
20355W        W81644  19.749   2.319   4.142
20356W        W81645  27.453  11.630   2.775
20357W        W81646   1.795  19.149   1.924
20358W        W81647   2.926  37.540   2.247
20359W        W81648  29.449  30.139   1.797
20360W        W81649  42.907   2.735   3.776
20361W        W81650  15.328  24.170  10.007
20362W        W81651   3.730  22.646   4.598
20363W        W81652  26.474  40.923   2.365
20364W        W81653  12.358  35.865   2.254
20365W        W81654  24.024  32.623  11.459
20366W        W81655  24.609  24.114  10.895
20367W        W81656  17.202   7.734   2.355
20368W        W81657  10.749  36.066  10.624
20369W        W81658  10.377   8.830  14.467
20370W        W81659  29.927  12.323  11.475
20371W        W81660  22.745  19.666  12.534
20372W        W81661  43.378  20.587   3.650
20373W        W81662  10.193   4.860   0.908
20374W        W81663   3.253  17.611   4.316
20375W        W81664   2.228   0.345  12.088
20376W        W81665  19.611  40.989  13.449
20377W        W81666  24.005  35.574  13.395
20378W        W81667  30.512   6.772   4.194
20379W        W81668  34.113   8.251  11.993
20380W        W81669  17.636  23.197  10.596
20381W        W81670  36.927  23.627   0.812
20382W        W81671  15.595  34.072   3.350
20383W        W81672  41.794  43.283   1.849
20384W        W81673  17.134  30.493   4.216
20385W        W81674  30.002  33.557   1.414
20386W        W81675   6.710  15.292  12.377
20387W        W81676  32.065  18.663   2.809
20388W        W81677  31.440  41.361   1.427
20389W        W81678  40.386  35.037   0.816
20390W        W81679   5.766  14.158  11.375
20391W        W81680  30.509  39.922   4.619
20392W        W81681  39.537  33.917   3.837
20393W        W81682  31.463  11.184  13.547
20394W        W81683  28.178  24.630   4.715
20395W        W81684   1.850  15.090  11.382
20396W        W81685  36.875  27.098  14.402
20397W        W81686   1.418  27.551   4.631
20398W        W81687  34.030  40.379  10.631
20399W        W81688  20.640  24.199  10.454
20400W        W81689  33.914  15.703  13.335
20401W        W81690  30.136  22.689   1.879
20402W        W81691  30.611  29.591   2.210
20403W        W81692  18.191  28.515   2.767
20404W        W81693  40.902  38.928   3.294
20405W        W81694  34.101  42.422   2.858
20406W        W81695   1.323  22.528  14.450
20407W        W81696   9.179  10.694  14.873
20408W        W81697  34.497  28.675  12.502
20409W        W81698  44.793   3.789  11.980
20410W        W81699  14.713  30.641   3.805
20411W        W81700  22.222  14.150  13.406
20412W        W81701  29.079   1.265  13.359
20413W        W81702  10.703  11.851  11.541
20414W        W81703  44.464  13.310   2.246
20415W        W81704  12.688  34.966   2.395
20416W        W81705  28.630  15.685  13.527
20417W        W81706  18.693  32.066  14.451
20418W        W81707  11.860  12.172  11.888
20419W        W81708  20.228   9.714   3.844
20420W        W81709  12.641  17.669   1.906
20421W        W81710  34.909  22.092   2.383
20422W        W81711  32.622  18.223  10.903
20423W        W81712   6.198  21.668  12.478
20424W        W81713  41.491  37.449  13.852
20425W        W81714  10.154  35.558  14.492
20426W        W81715  20.229   1.394   0.404
20427W        W81716  19.610  44.360   2.376
20428W        W81717  17.718   6.732  12.558
20429W        W81718  24.687  21.573  13.933
20430W        W81719  25.495  16.705   1.842
20431W        W81720   5.830  35.962  14.870
20432W        W81721  23.524  30.445  10.989
20433W        W81722  14.645  12.796   3.632
20434W        W81723   2.298  43.800   0.281
20435W        W81724   9.795  31.578   5.217
20436W        W81725  11.862   3.401   5.318
20437W        W81726   4.226  17.155   3.294
20438W        W81727  37.956  12.836  11.569
20439W        W81728  23.019  44.495  13.328
20440W        W81729  15.182  31.601   1.741
20441W        W81730  30.601  35.506  12.549
20442W        W81731  10.821   9.163   4.289
20443W        W81732  20.142  18.715   4.829
20444W        W81733   6.702  18.639  12.551
20445W        W81734  17.771   8.701   3.647
20446W        W81735  25.059  43.021   0.751
20447W        W81736  19.216  41.375  13.510
20448W        W81737  28.156  23.005   4.291
20449W        W81738  38.328   3.325   3.698
20450W        W81739  15.653  33.067   3.313
20451W        W81740  33.502  37.387   2.396
20452W        W81741  27.571  36.844   2.255
20453W        W81742  11.357  36.869   2.178
20454W        W81743  24.535   3.227   3.158
20455W        W81744  34.878   7.403   2.741
20456W        W81745  36.949  13.782  14.028
20457W        W81746  26.480  11.247   4.830
20458W        W81747   1.426  16.589  13.868
20459W        W81748   9.788  36.846   2.414
20460W        W81749  22.632   1.906  14.401
20461W        W81750   7.784  23.206  11.988
20462W        W81751  11.299   8.827   3.785
20463W        W81752  44.407  34.420  10.643
20464W        W81753  14.671   8.850  13.870
20465W        W81754  10.719  12.249  10.542
20466W        W81755   5.255  37.558   3.730
20467W        W81756  40.982  35.515  11.935
20468W        W81757  35.481   0.311   0.296
20469W        W81758  40.426  29.531   0.876
20470W        W81759  19.725  33.936  14.437
20471W        W81760  12.795  36.888  11.398
20472W        W81761  16.653  28.544  14.929
20473W        W81762  31.102  39.516  11.591
20474W        W81763  35.504  29.482   0.356
20475W        W81764  37.002  12.853   4.305
20476W        W81765  19.542  32.099  13.538
20477W        W81766  18.563  12.303  11.950
20478W        W81767  41.871  22.246  12.354
20479W        W81768  28.939  22.246   3.344
20480W        W81769   4.418  35.459   3.209
20481W        W81770  16.626  30.118   2.808
20482W        W81771  21.194  44.915  10.557
20483W        W81772  29.594  41.313   4.252
20484W        W81773   6.193  40.026   3.676
20485W        W81774   7.196  17.583  13.490
20486W        W81775  44.901  24.583   1.385
20487W        W81776  26.113  14.711   0.464
20488W        W81777  26.126  19.047  14.976
20489W        W81778   2.892   4.811   3.316
20490W        W81779  44.450  21.147   3.349
20491W        W81780  23.240  38.883  14.788
20492W        W81781  23.206  28.109   0.354
20493W        W81782   6.784   1.762   2.232
20494W        W81783  29.055  24.144  11.128
20495W        W81784  30.659  11.144   1.863
20496W        W81785  25.058   0.446  13.055
20497W        W81786  37.016  22.209  13.924
20498W        W81787  27.661  40.041  11.119
20499W        W81788   0.363   4.931   0.957
20500W        W81789  18.711   7.241   4.606
20501W        W81790  32.967   0.950  11.968
20502W        W81791  36.360  26.025  13.822
20503W        W81792  20.657  32.122  10.512
20504W        W81793  20.650  18.560  12.041
20505W        W81794  24.553   9.676   5.780
20506W        W81795  41.787  10.204   5.081
20507W        W81796   8.800   4.381   0.856
20508W        W81797  39.037  36.081   4.124
20509W        W81798  25.022  43.318   2.338
20510W        W81799  28.976  20.551  13.865
20511W        W81800   3.328  15.250   2.689
20512W        W81801  28.509   5.804   1.820
20513W        W81802  18.149  20.214  12.561
20514W        W81803   7.182   8.784   2.377
20515W        W81804  44.345  37.476   4.256
20516W        W81805  29.035  44.941  11.390
20517W        W81806  29.652  37.393  13.873
20518W        W81807   7.359  43.269  11.913
20519W        W81808  23.674  12.357  13.323
20520W        W81809   7.787  14.302  11.993
20521W        W81810  25.123  21.601   4.684
20522W        W81811  12.215  16.627  12.558
20523W        W81812  44.270  16.568  13.312
20524W        W81813   5.268   6.795   3.334
20525W        W81814  36.589  27.624  11.093
20526W        W81815  40.407  40.000  10.634
20527W        W81816  18.067   9.224  13.022
20528W        W81817  36.983  41.829   1.778
20529W        W81818  40.045   2.947   1.425
20530W        W81819  26.955  10.673  11.069
20531W        W81820  25.129  31.923   1.910
20532W        W81821   1.352  32.132   9.986
20533W        W81822  44.787  44.425   3.332
20534W        W81823  10.357   0.397  12.880
20535W        W81824  43.913  37.417  14.828
20536W        W81825  41.502   7.238  11.103
20537W        W81826  35.938  37.339   1.701
20538W        W81827  23.505  25.521   0.965
20539W        W81828  43.464  26.159  10.964
20540W        W81829   6.914   2.965   3.836
20541W        W81830   1.427  28.573  12.421
20542W        W81831  25.602  38.038   2.250
20543W        W81832  18.150  40.851   2.326
20544W        W81833   3.446  10.812   2.284
20545W        W81834   3.864  37.047   1.735
20546W        W81835  29.431  25.158   4.712
20547W        W81836  38.359  11.282  11.088
20548W        W81837   8.737   9.848  14.896
20549W        W81838  39.023  37.058   2.721
20550W        W81839  42.340  21.071   0.285
20551W        W81840  27.603  31.453  14.816
20552W        W81841  37.520  13.204  11.979
20553W        W81842  44.348   0.759  13.504
20554W        W81843  32.893   7.706   3.288
20555W        W81844  17.673  31.002   1.768
20556W        W81845   9.378  15.821  10.924
20557W        W81846  34.873  27.623   2.210
20558W        W81847  15.605   4.841   5.117
20559W        W81848  43.409  19.072   0.889
20560W        W81849  33.397  15.602   0.451
20561W        W81850  32.114   2.384   2.869
20562W        W81851  21.562  42.910   4.227
20563W        W81852  31.049  31.112  12.434
20564W        W81853   3.328  11.646  13.837
20565W        W81854  20.123  40.858  11.524
20566W        W81855  44.455   5.275  12.391
20567W        W81856  18.278   1.360  11.916
20568W        W81857   0.408  42.960   4.682
20569W        W81858  12.652  10.141   3.739
20570W        W81859  20.262  39.958   1.251
20571W        W81860  33.618  33.942  12.025
20572W        W81861  40.915  20.166   3.684
20573W        W81862  12.848   7.687  13.514
20574W        W81863   5.294  43.431   2.207
20575W        W81864  39.398  15.210   4.683
20576W        W81865   6.274  26.965  14.458
20577W        W81866  13.670  17.740  14.288
20578W        W81867  22.202   4.367  13.411
20579W        W81868  35.869  22.022   0.806
20580W        W81869  28.556  16.160   1.915
20581W        W81870   6.281  16.157   3.182
20582W        W81871   1.258   4.875  11.528
20583W        W81872  38.507  19.560  13.451
20584W        W81873  11.813  37.527  14.508
20585W        W81874  20.671  14.772  14.807
20586W        W81875  38.539   0.322   0.275
20587W        W81876  37.059  26.572   0.937
20588W        W81877  42.816  12.205   1.449
20589W        W81878  43.472   9.360  11.952
20590W        W81879  21.117  43.866   2.812
20591W        W81880  19.145   8.673   3.265
20592W        W81881   0.870  25.035  11.380
20593W        W81882  18.259  22.731   3.652
20594W        W81883  37.022   8.393   1.231
20595W        W81884  12.751   1.383   1.384
20596W        W81885   0.470  10.875  11.568
20597W        W81886  38.825   9.160  14.763
20598W        W81887   3.406  43.469  13.924
20599W        W81888  44.831  14.755  11.041
20600W        W81889   4.936  30.416   1.757
20601W        W81890  22.126  41.533  14.413
20602W        W81891  21.183  31.009   4.200
20603W        W81892  10.309  22.117  14.470
20604W        W81893  38.490   8.270  13.941
20605W        W81894  31.064  28.032  11.403
20606W        W81895   1.359  20.200  11.952
20607W        W81896   3.944   3.733   4.639
20608W        W81897  30.576  10.758   3.321
20609W        W81898  38.491  41.904  14.811
20610W        W81899  19.280  24.123   3.200
20611W        W81900  44.931  16.177  12.973
20612W        W81901  19.276  44.839  11.570
20613W        W81902  35.859  38.882   4.245
20614W        W81903  39.912  44.298  14.961
20615W        W81904  33.129  25.137   3.163
20616W        W81905   2.469  26.569  14.897
20617W        W81906  31.425   2.341  12.993
20618W        W81907  27.529  14.807  13.862
20619W        W81908  43.927   4.702   4.327
20620W        W81909   0.973  26.680   2.827
20621W        W81910  37.401  14.262  14.992
20622W        W81911  26.090  25.482  10.081
20623W        W81912  21.082  29.043   0.846
20624W        W81913  16.753  14.778   2.704
20625W        W81914  35.434  22.024  12.395
20626W        W81915  13.347  34.020  12.541
20627W        W81916   4.932   2.401   1.696
20628W        W81917  42.415  36.959   3.675
20629W        W81918  17.089  41.445  14.308
20630W        W81919  22.240  16.175  13.934
20631W        W81920  12.835  40.439   0.859
20632W        W81921  32.468  34.111   2.407
20633W        W81922  39.982   0.470  10.582
20634W        W81923  25.135   2.337   3.227
20635W        W81924  28.149  36.932   3.221
20636W        W81925  32.583   8.816  12.063
20637W        W81926  21.024  40.361   5.194
20638W        W81927  38.939   3.940  14.308
20639W        W81928  44.430  14.669   0.434
20640W        W81929   1.782   7.815  10.924
20641W        W81930  35.528   7.761   0.808
20642W        W81931  17.741  20.161  13.888
20643W        W81932   5.721  17.102   1.377
20644W        W81933  44.481  23.600  14.761
20645W        W81934  23.203   2.769   3.207
20646W        W81935  33.984  19.664  10.523
20647W        W81936  33.974  34.583  14.391
20648W        W81937  34.019  22.579   4.155
20649W        W81938  35.562  28.668   0.934
20650W        W81939  44.986   5.398   2.414
20651W        W81940  37.412  20.228  11.880
20652W        W81941  34.895   3.882   2.814
20653W        W81942  10.723  24.598   3.362
20654W        W81943   9.352  41.931  11.047
20655W        W81944  25.619   2.397   2.242
20656W        W81945  29.467   1.790   3.711
20657W        W81946  21.231   2.421  11.903
20658W        W81947  20.266  40.405  12.342
20659W        W81948   7.717   4.943   5.216
20660W        W81949  13.339  43.880   2.213
20661W        W81950  35.471  34.886  10.460
20662W        W81951  22.120   6.797  13.403
20663W        W81952   9.388  44.944  11.112
20664W        W81953  37.851  29.595  14.887
20665W        W81954  18.245  29.635   0.242
20666W        W81955  13.283  19.111   3.280
20667W        W81956  19.246   4.763   3.321
20668W        W81957  18.068  23.092  11.404
20669W        W81958  38.377  37.869   4.710
20670W        W81959  24.584  24.161   1.712
20671W        W81960   9.149  11.646   2.798
20672W        W81961   4.353   6.402  13.831
20673W        W81962  34.593  13.703   2.252
20674W        W81963  20.543   2.867  12.453
20675W        W81964  35.388  12.782   2.681
20676W        W81965  17.754   2.460  12.455
20677W        W81966  23.494  24.054  13.398
20678W        W81967  27.605   7.306   4.289
20679W        W81968  15.200  11.330   3.763
20680W        W81969  20.038  29.007  14.870
20681W        W81970   8.201  43.294   1.864
20682W        W81971  41.365  24.502   4.659
20683W        W81972  38.329  24.210  11.997
20684W        W81973  21.019   9.276  12.937
20685W        W81974   1.260  26.605  13.826
20686W        W81975  24.202  20.168  14.311
20687W        W81976  20.576  37.537   3.780
20688W        W81977  14.262   4.432  11.511
20689W        W81978  22.738  28.548   4.702
20690W        W81979  22.203  33.603  12.838
20691W        W81980   0.753  21.601  12.023
20692W        W81981  39.329  30.490  12.961
20693W        W81982  40.041   3.324  13.410
20694W        W81983   5.752  13.713   2.403
20695W        W81984  35.532  31.599  13.965
20696W        W81985  37.501  31.647   1.425
20697W        W81986   8.298  22.718   0.451
20698W        W81987  12.318  20.216  10.509
20699W        W81988  39.033  27.072   2.283
20700W        W81989  29.534  33.430   0.332
20701W        W81990   5.809  43.812   0.391
20702W        W81991  10.795  13.108   4.197
20703W        W81992   1.430  12.842  13.994
20704W        W81993  27.010   8.308   3.354
20705W        W81994  26.556   8.188  12.893
20706W        W81995  25.124  21.073  14.345
20707W        W81996  15.190  26.569   1.250
20708W        W81997   3.790  29.031  10.953
20709W        W81998  39.433  34.557  12.393
20710W        W81999  44.283   5.199  13.952
20711W        W82000   7.911  39.979  11.892
20712W        W82001   1.353  31.446   3.662
20713W        W82002  26.954  30.443   2.831
20714W        W82003  27.563  19.767   1.422
20715W        W82004   9.703  31.927  11.379
20716W        W82005  26.967  39.437   0.412
20717W        W82006  25.099  23.516  13.312
20718W        W82007   5.931  18.586   4.148
20719W        W82008  38.342  26.548   4.653
20720W        W82009  13.664  13.768   2.280
20721W        W82010  43.819   5.801  13.045
20722W        W82011   1.274   5.783  12.364
20723W        W82012  40.425  36.367   0.469
20724W        W82013  43.467   7.710  11.060
20725W        W82014  20.596  44.809   2.854
20726W        W82015  11.259  37.031   4.161
20727W        W82016   3.741  44.979   4.698
20728W        W82017  42.417  37.851   0.783
20729W        W82018  36.575  15.713  12.420
20730W        W82019  41.985   3.292   1.383
20731W        W82020  41.398  10.705  13.993
20732W        W82021  29.058  36.050  10.516
20733W        W82022  21.231  25.112  14.770
20734W        W82023  16.653  19.155  11.006
20735W        W82024  19.700  12.193  10.470
20736W        W82025  10.350   4.331   0.805
20737W        W82026  36.477  16.217   1.860
20738W        W82027  29.441  20.734   1.282
20739W        W82028  14.320  20.097   0.880
20740W        W82029  33.910  19.588  14.321
20741W        W82030  19.665  20.550   2.308
20742W        W82031  29.463  10.286  14.770
20743W        W82032  44.335  25.168  12.911
20744W        W82033  24.984  19.699  14.495
20745W        W82034   0.306  26.002  14.463
20746W        W82035   6.360   5.415   4.344
20747W        W82036  15.155  15.692  11.428
20748W        W82037   6.292   4.830   3.842
20749W        W82038  30.548  16.692  11.070
20750W        W82039  44.461  23.682   4.215
20751W        W82040  44.350  39.912   0.914
20752W        W82041   6.214  40.544   0.870
20753W        W82042  26.065  42.515  10.507
20754W        W82043  22.207   6.221  11.105
20755W        W82044  31.545  23.570  10.583
20756W        W82045  30.562  30.982  12.870
20757W        W82046  30.465  25.696   4.739
20758W        W82047  14.618  14.309   4.762
20759W        W82048   5.866  41.012   4.350
20760W        W82049  26.986  40.831  13.817
20761W        W82050  36.565  24.570  11.405
20762W        W82051  16.263   0.280  11.104
20763W        W82052  23.044   6.758  14.370
20764W        W82053  35.913  39.378   3.852
20765W        W82054  17.670  17.615   1.363
20766W        W82055  28.653  20.681  14.967
20767W        W82056  31.472  32.019   0.409
20768W        W82057   9.695  22.090  12.029
20769W        W82058  11.673  21.659  13.969
20770W        W82059  17.577  20.087   2.784
20771W        W82060  26.125  38.985   2.332
20772W        W82061  17.194  20.030   2.205
20773W        W82062  23.735   2.373   2.831
20774W        W82063  19.092  33.512  14.802
20775W        W82064  21.694   4.724  11.405
20776W        W82065   1.267  41.322   1.245
20777W        W82066  22.673  15.119  11.397
20778W        W82067   1.762   7.856  14.929
20779W        W82068  28.111  12.197   1.694
20780W        W82069  15.752   9.739  13.388
20781W        W82070  18.287  32.033  13.957
20782W        W82071  34.985  16.789  14.841
20783W        W82072  25.132  18.151   1.755
20784W        W82073   0.958  13.207  14.312
20785W        W82074   4.822   5.193  11.424
20786W        W82075  29.467  19.684  12.908
20787W        W82076  10.342  25.010   1.248
20788W        W82077  15.594  14.321  11.438
20789W        W82078  38.050   2.809  14.972
20790W        W82079  35.090  13.795  12.829
20791W        W82080  42.929  13.162  12.498
20792W        W82081  27.591   1.469  11.907
20793W        W82082  41.968  42.961   3.292
20794W        W82083  38.858  31.492  11.381
20795W        W82084   5.718  33.454  12.917
20796W        W82085  37.831  23.631  12.514
20797W        W82086  38.045   1.452  12.578
20798W        W82087  15.252   8.800   0.886
20799W        W82088   2.257   9.761   3.154
20800W        W82089  17.291  25.085   4.175
20801W        W82090  25.967   3.282  12.464
20802W        W82091  33.008  43.937  11.379
20803W        W82092  30.092  25.017  12.509
20804W        W82093  17.667  10.639  11.090
20805W        W82094  21.676  27.940  11.084
20806W        W82095  16.309   7.673   1.918
20807W        W82096  11.147  31.970  11.526
20808W        W82097  44.364  18.641   0.863
20809W        W82098  22.023   3.451   4.114
20810W        W82099   5.357  38.497   0.782
20811W        W82100  43.965  44.906   0.469
20812W        W82101  21.593  10.335  10.641
20813W        W82102  35.101  34.429  12.434
20814W        W82103  35.529  36.356   2.359
20815W        W82104  41.852  31.593   0.477
20816W        W82105   2.351  25.550  12.564
20817W        W82106  14.654  35.920  10.592
20818W        W82107  20.612  21.636   1.408
20819W        W82108  29.960   8.169   0.754
20820W        W82109  10.180  39.487   1.250
20821W        W82110  38.926  10.370   3.828
20822W        W82111  37.875  22.046  12.459
20823W        W82112   6.859  25.963   4.307
20824W        W82113  39.372  44.360   3.168
20825W        W82114  24.013  26.530   2.239
20826W        W82115  14.131  10.142   5.181
20827W        W82116  35.496  21.184  14.823
20828W        W82117  14.640   4.929  11.474
20829W        W82118   4.211  17.201  10.502
20830W        W82119  16.134  39.368   0.782
20831W        W82120  13.795  18.189  10.592
20832W        W82121   9.290  35.988   0.944
20833W        W82122  29.487   5.771   1.796
20834W        W82123   0.886  44.772   3.265
20835W        W82124   1.786  41.346  13.868
20836W        W82125   6.759  44.981  11.856
20837W        W82126   4.839  18.768   4.739
20838W        W82127   1.322  37.418  11.471
20839W        W82128  14.279  28.664   4.330
20840W        W82129   5.707  33.545  11.513
20841W        W82130   4.407  32.546  13.458
20842W        W82131  16.161  10.247   3.246
20843W        W82132  14.696  42.880   4.147
20844W        W82133  15.808  24.214  13.823
20845W        W82134  22.158  42.965   0.454
20846W        W82135  13.727  38.438  14.465
20847W        W82136  10.806  11.284  10.593
20848W        W82137  37.481  25.471   1.267
20849W        W82138   0.902   1.913  14.978
20850W        W82139  26.588  35.053  13.843
20851W        W82140  24.716   6.305  14.973
20852W        W82141  42.495  36.869  12.517
20853W        W82142   7.794   6.199  14.024
20854W        W82143  19.273  19.575   2.767
20855W        W82144  13.283  30.552   2.303
20856W        W82145   3.808  39.509  12.410
20857W        W82146  10.137  13.272   3.670
20858W        W82147   3.825  22.044   4.296
20859W        W82148  35.435   7.878  12.860
20860W        W82149  27.629  22.228   2.209
20861W        W82150  40.959  28.605   4.259
20862W        W82151  28.491  13.179   2.346
20863W        W82152  23.586  41.000   2.378
20864W        W82153  15.646  12.755  10.495
20865W        W82154  39.465  14.137   3.815
20866W        W82155  41.926   8.810   9.635
20867W        W82156   1.275  14.765  11.451
20868W        W82157  33.036  34.582   3.848
20869W        W82158  26.595  31.563   0.890
20870W        W82159  40.929  37.388  12.479
20871W        W82160  28.606  36.864   0.434
20872W        W82161   0.919   5.362   1.393
20873W        W82162  13.755  39.391  11.548
20874W        W82163   2.845  13.706   4.654
20875W        W82164  19.119  19.755   4.349
20876W        W82165  37.352  38.336   0.948
20877W        W82166  43.973  25.611  13.355
20878W        W82167  25.557   5.927  10.899
20879W        W82168  44.956  23.028  14.492
20880W        W82169   9.731  43.872   1.833
20881W        W82170   9.385  10.733   1.358
20882W        W82171  44.808  13.236  12.417
20883W        W82172   8.231  29.461   2.323
20884W        W82173  17.605   3.347  10.905
20885W        W82174  13.732  22.225  14.500
20886W        W82175   7.782  25.071  12.025
20887W        W82176  36.062  32.926   4.212
20888W        W82177  35.953  26.038   3.282
20889W        W82178   0.768  38.848   3.382
20890W        W82179  22.725  19.228  10.977
20891W        W82180  28.479  32.086  11.934
20892W        W82181   3.243   9.345  11.560
20893W        W82182  20.645  25.999   3.344
20894W        W82183  37.981  28.649  11.111
20895W        W82184  15.615  18.079   2.814
20896W        W82185  32.587  13.252  13.457
20897W        W82186  24.646  29.026   4.756
20898W        W82187  33.986   3.723  14.876
20899W        W82188  25.655  16.758   3.753
20900W        W82189   3.362  13.307  11.468
20901W        W82190  20.564  33.538  11.461
20902W        W82191  40.524   9.176   9.581
20903W        W82192  15.817   9.856  12.376
20904W        W82193  39.537  22.017  14.839
20905W        W82194   4.334  28.455   1.331
20906W        W82195  21.724  32.974  11.966
20907W        W82196  29.051  12.231   3.246
20908W        W82197  14.227  13.825  12.008
20909W        W82198   8.339  30.124  11.054
20910W        W82199  18.687   5.356  14.401
20911W        W82200   8.666  42.837   4.158
20912W        W82201   8.698  10.179  10.627
20913W        W82202  31.547  41.390  14.333
20914W        W82203  37.009   6.368   2.311
20915W        W82204   7.706  15.696   0.438
20916W        W82205  33.380  35.993  13.812
20917W        W82206  10.372  24.135   1.724
20918W        W82207  30.074  19.208   1.899
20919W        W82208  26.483  43.394  11.381
20920W        W82209  31.593  33.087   4.349
20921W        W82210   0.364  25.586   1.387
20922W        W82211   1.927   2.463  12.960
20923W        W82212  15.708  15.101   9.932
20924W        W82213   0.405  12.794  14.896
20925W        W82214  27.113  13.612   2.817
20926W        W82215   2.786   5.929  11.895
20927W        W82216  20.262  19.072  11.899
20928W        W82217  18.733  37.030  14.928
20929W        W82218  40.352  29.923   2.711
20930W        W82219  39.356  26.177   4.776
20931W        W82220   7.753   5.288  14.765
20932W        W82221   2.231  19.246  13.825
20933W        W82222  28.066  44.857   1.849
20934W        W82223  39.526  27.114  14.947
20935W        W82224  42.286  39.949  13.950
20936W        W82225   2.391  33.386   9.998
20937W        W82226   0.290  25.611  14.891
20938W        W82227  36.021  43.817   4.814
20939W        W82228   1.319  34.095  14.451
20940W        W82229   6.745  28.000   1.371
20941W        W82230  43.450   6.876  13.330
20942W        W82231  13.221  39.442  14.339
20943W        W82232  13.127  32.120  14.810
20944W        W82233  10.379  30.133  12.894
20945W        W82234  25.571  33.427   3.273
20946W        W82235  26.595  13.228   3.650
20947W        W82236   5.867  43.314  13.856
20948W        W82237  25.557  41.428  11.395
20949W        W82238  37.841  40.028  14.834
20950W        W82239  26.996  42.377   1.324
20951W        W82240  37.458  35.950   4.335
20952W        W82241  21.095  37.429  11.950
20953W        W82242  24.214   2.898   0.381
20954W        W82243  18.190  26.955   2.716
20955W        W82244  22.042  10.274  11.451
20956W        W82245  39.809  39.858   4.775
20957W        W82246  15.787  40.444  13.832
20958W        W82247   0.813  11.263   4.158
20959W        W82248  13.252  36.436  14.322
20960W        W82249   7.372   4.830  13.064
20961W        W82250  26.096   7.283  11.460
20962W        W82251  38.474  41.441   4.627
20963W        W82252  11.172  22.555   3.640
20964W        W82253   3.421  21.746  12.464
20965W        W82254  30.121  38.332  12.976
20966W        W82255  17.608  37.983  10.944
20967W        W82256  10.352  14.685   0.364
20968W        W82257   6.714  21.601   2.788
20969W        W82258  25.165  22.075  11.415
20970W        W82259   8.847  25.084   2.790
20971W        W82260  24.135  41.498  11.556
20972W        W82261  34.466  15.084  11.121
20973W        W82262   0.891  28.061   3.164
20974W        W82263  29.086  16.174   4.121
20975W        W82264  26.699   4.717   2.840
20976W        W82265  11.373  34.595  14.966
20977W        W82266   2.871  28.990   3.650
20978W        W82267   7.755  20.657  11.415
20979W        W82268  29.559  35.873  14.493
20980W        W82269  32.507  15.712   0.267
20981W        W82270  33.581  36.846  12.560
20982W        W82271   6.893   8.742   4.267
20983W        W82272  29.507  44.948  14.766
20984W        W82273   6.847  35.099  14.808
20985W        W82274  39.984  12.816   4.150
20986W        W82275  18.155  43.484   4.245
20987W        W82276  41.928  40.350   0.786
20988W        W82277  24.102  26.527   5.087
20989W        W82278  42.395   2.313   4.630
20990W        W82279  15.616   9.735  14.453
20991W        W82280  29.585   5.690  12.403
20992W        W82281  11.142  23.671   0.831
20993W        W82282  38.830  38.956  13.060
20994W        W82283  18.724   2.328  10.497
20995W        W82284   3.832  27.522   2.754
20996W        W82285  35.460  20.546   0.302
20997W        W82286  18.162  16.310   4.258
20998W        W82287  16.805   4.778   3.870
20999W        W82288  20.248  10.635   0.871
21000W        W82289  26.499  22.549  14.338
21001W        W82290  17.228  42.024  11.598
21002W        W82291  23.214  38.493   4.114
21003W        W82292  38.898  17.701  13.953
21004W        W82293  25.141  27.655   4.209
21005W        W82294  15.804   6.901   3.169
21006W        W82295  44.973  26.138   1.301
21007W        W82296  11.722  11.713  12.394
21008W        W82297  23.989  41.394  13.489
21009W        W82298  34.870  12.333  12.346
21010W        W82299   0.471  22.612  12.888
21011W        W82300   1.315  18.579   4.711
21012W        W82301  27.605  19.071   4.251
21013W        W82302  43.319  38.074  14.851
21014W        W82303  40.844   4.728  12.362
21015W        W82304  34.587   3.841  13.414
21016W        W82305   1.408   9.222   1.444
21017W        W82306  24.630  29.159  14.345
21018W        W82307  44.856  29.513   0.921
21019W        W82308  18.147   8.355   4.812
21020W        W82309  26.191   4.932   3.348
21021W        W82310  21.102   2.963   4.190
21022W        W82311  37.547   0.789   1.869
21023W        W82312  26.018   2.441   2.291
21024W        W82313   8.197  21.032   4.689
21025W        W82314  24.214   3.810   3.165
21026W        W82315  42.935  32.507   4.672
21027W        W82316  33.075  41.996  13.947
21028W        W82317  13.714  11.147  13.969
21029W        W82318   1.917  34.886  11.599
21030W        W82319  12.197  39.439  13.388
21031W        W82320  14.141  34.033   2.196
21032W        W82321  31.957  20.743  13.390
21033W        W82322   3.830   4.393   2.292
21034W        W82323  44.377   1.311   2.359
21035W        W82324  29.621  44.857  11.485
21036W        W82325  15.764  23.644   0.807
21037W        W82326  29.030   1.266  11.022
21038W        W82327  34.923   8.214   3.340
21039W        W82328   8.400  24.061  13.049
21040W        W82329  37.338  43.393  13.490
21041W        W82330  25.483  10.752   3.354
21042W        W82331  36.074  34.466  14.369
21043W        W82332  20.135  17.572  11.127
21044W        W82333   6.772   6.218   2.710
21045W        W82334  34.948  22.537  10.421
21046W        W82335   7.321  26.197  13.963
21047W        W82336   7.755  28.535  14.466
21048W        W82337  12.725  24.151   4.782
21049W        W82338  36.446  31.147   2.774
21050W        W82339   9.254  31.406  12.340
21051W        W82340  40.961  21.720  14.784
21052W        W82341   9.219  38.921   0.322
21053W        W82342  23.535  34.491  10.630
21054W        W82343  28.489  39.939   1.755
21055W        W82344  16.124  19.200   4.642
21056W        W82345  29.918   2.280   2.256
21057W        W82346  28.628  21.654  14.025
21058W        W82347  12.312  35.855  14.410
21059W        W82348  18.647  31.108  13.392
21060W        W82349   3.391   6.267  12.898
21061W        W82350  42.395  20.201  14.497
21062W        W82351  20.558   9.171   4.763
21063W        W82352  25.207  43.012  13.377
21064W        W82353   0.983  39.442   0.454
21065W        W82354  41.037  40.968  10.914
21066W        W82355  10.179  31.533   3.746
21067W        W82356  25.183  35.997   3.173
21068W        W82357   8.793   0.765  11.387
21069W        W82358  35.442   6.892  11.439
21070W        W82359   0.330  40.037   1.211
21071W        W82360  26.013  39.396   2.678
21072W        W82361  43.350  43.988  13.892
21073W        W82362  41.435  28.086   3.846
21074W        W82363  33.382   7.355   0.788
21075W        W82364   3.333   0.427  12.523
21076W        W82365  39.858  35.540   1.419
21077W        W82366  19.645   8.848   0.424
21078W        W82367  29.492  21.154  11.488
21079W        W82368  15.622  13.756  10.922
21080W        W82369  15.235  29.045  12.561
21081W        W82370  30.473  29.995  14.347
21082W        W82371  31.643  19.673  12.573
21083W        W82372  37.381  38.993   5.277
21084W        W82373  21.632  35.959   2.248
21085W        W82374  41.473   6.407   2.771
21086W        W82375  42.946  44.841   4.663
21087W        W82376  23.987   3.934   1.313
21088W        W82377   4.406  41.366   1.875
21089W        W82378  10.238   6.750  11.924
21090W        W82379  17.203  39.870   2.858
21091W        W82380   3.801  32.608  11.900
21092W        W82381  35.008  30.643   0.282
21093W        W82382  34.864  40.475  10.521
21094W        W82383  34.048   8.200  13.514
21095W        W82384  27.078  19.613   2.873
21096W        W82385  24.109  35.576  11.410
21097W        W82386  38.506   4.349   4.603
21098W        W82387   8.896  28.492   3.645
21099W        W82388   4.401  34.476  11.027
21100W        W82389  37.407  16.800   1.345
21101W        W82390  40.369   9.761   3.345
21102W        W82391   3.296  18.653  13.877
21103W        W82392  14.270   7.344   0.758
21104W        W82393  16.660  17.760   3.852
21105W        W82394  44.484  12.654   2.859
21106W        W82395   3.763  30.597  13.421
21107W        W82396  26.076  13.328   2.325
21108W        W82397  42.811  30.419   2.870
21109W        W82398  34.535  19.126   4.283
21110W        W82399  26.133  31.048   4.764
21111W        W82400  25.666   6.423  11.430
21112W        W82401  31.586  24.140   1.698
21113W        W82402  44.836  14.180   4.272
21114W        W82403   3.755  19.270  13.477
21115W        W82404  11.208  19.137  14.324
21116W        W82405  43.515  16.737   0.774
21117W        W82406  12.624  23.153   4.164
21118W        W82407  38.571   2.452  13.380
21119W        W82408  21.545   7.883  10.434
21120W        W82409  43.009  25.573  12.571
21121W        W82410  27.612  15.224  13.543
21122W        W82411  31.151  44.864  11.991
21123W        W82412   7.837  41.817  12.404
21124W        W82413   5.435  34.411  12.990
21125W        W82414  13.205  24.529   0.769
21126W        W82415  36.975  27.497  14.367
21127W        W82416   6.882  40.375   0.951
21128W        W82417  34.379  37.948   0.400
21129W        W82418  43.942  23.677   0.462
21130W        W82419  13.156  33.999   4.317
21131W        W82420  42.393  36.521  12.946
21132W        W82421  33.459  10.659   0.388
21133W        W82422  15.639  16.238   3.146
21134W        W82423   0.477  33.538   0.829
21135W        W82424  24.227  23.705  10.575
21136W        W82425   2.928  29.495   4.163
21137W        W82426  27.535   9.832  14.919
21138W        W82427  21.736  24.201  10.545
21139W        W82428  25.515  14.267   1.343
21140W        W82429  13.685  43.974  12.511
21141W        W82430  16.666  12.344   3.677
21142W        W82431  42.525  44.367   3.687
21143W        W82432   5.372  16.773   3.653
21144W        W82433   8.284  27.449   0.958
21145W        W82434  32.603  24.649   4.327
21146W        W82435  17.653  22.701  13.489
21147W        W82436  15.250  31.006  11.051
21148W        W82437  28.626   3.416   3.656
21149W        W82438  25.218   7.365   0.298
21150W        W82439  25.708  23.051   3.249
21151W        W82440  28.495  40.045   0.954
21152W        W82441  29.461  33.593   2.691
21153W        W82442  14.148   5.398  14.501
21154W        W82443  17.648   4.826  14.310
21155W        W82444   6.730  44.345   0.873
21156W        W82445  40.911   2.246  13.003
21157W        W82446  21.259  23.587  10.963
21158W        W82447  14.113  34.914   1.830
21159W        W82448   8.788   2.808   0.303
21160W        W82449  25.518  20.111   4.140
21161W        W82450   2.851  30.520   4.164
21162W        W82451   8.687  41.042   3.302
21163W        W82452  44.776  28.964  14.867
21164W        W82453  21.682   6.720   0.283
21165W        W82454  10.660  17.211  12.969
21166W        W82455   7.764  19.547  13.811
21167W        W82456   2.794  38.328   2.387
21168W        W82457  21.248  21.202  10.149
21169W        W82458   5.917   2.322  11.526
21170W        W82459  22.520  10.714  10.528
21171W        W82460  25.970  26.986  14.787
21172W        W82461  20.063   0.826   2.183
21173W        W82462  40.849   0.957  11.379
21174W        W82463  19.533   1.957   2.807
21175W        W82464  43.810  43.954   0.732
21176W        W82465   4.387  19.043  12.487
21177W        W82466  34.919  44.276   0.833
21178W        W82467   9.889  26.507  14.444
21179W        W82468  17.292   2.470  10.072
21180W        W82469  25.534   1.746  11.019
21181W        W82470  17.094   7.818  13.538
21182W        W82471  37.527   1.918   1.295
21183W        W82472  31.444   9.260   3.632
21184W        W82473  31.020   7.210  14.433
21185W        W82474  17.181   7.295   3.681
21186W        W82475  22.721  36.475   1.407
21187W        W82476   2.455  35.436   2.898
21188W        W82477  34.519  41.801  13.449
21189W        W82478  18.641   2.342   2.875
21190W        W82479  11.200   1.845   0.420
21191W        W82480  18.691  32.097  11.531
21192W        W82481  23.015  41.470  11.085
21193W        W82482  23.175  22.642   2.815
21194W        W82483  29.442   7.296   2.328
21195W        W82484   6.291  16.258   4.312
21196W        W82485   8.337  24.022   2.323
21197W        W82486  28.953  31.521   0.339
21198W        W82487  19.171  32.466   1.898
21199W        W82488  42.472  42.307  11.567
21200W        W82489   2.886  29.129  11.401
21201W        W82490   8.224  26.116   1.271
21202W        W82491  15.216  18.785  10.564
21203W        W82492  33.575  20.615  13.023
21204W        W82493  17.661  23.662   0.471
21205W        W82494   0.255  33.956  14.277
21206W        W82495  32.128  42.506  13.450
21207W        W82496  37.580  22.196  14.511
21208W        W82497  42.303  27.009  12.029
21209W        W82498  32.899   8.273  13.874
21210W        W82499  36.060  23.109   0.449
21211W        W82500  36.435   1.421  11.970
21212W        W82501  25.056  36.355  14.342
21213W        W82502  39.392  28.086   3.752
21214W        W82503  33.576  25.150  11.079
21215W        W82504   6.716  37.037   3.232
21216W        W82505  16.804  24.488   0.363
21217W        W82506  31.149  35.073   4.708
21218W        W82507  36.084   0.273   4.807
21219W        W82508  20.726  38.821   4.224
21220W        W82509  17.690  12.136  11.063
21221W        W82510  19.695  26.005  10.446
21222W        W82511   3.440  29.639   1.709
21223W        W82512  42.418  29.613   2.220
21224W        W82513   1.876  14.135  13.828
21225W        W82514   4.898   1.239   2.695
21226W        W82515  38.041  10.220   1.289
21227W        W82516  12.749   1.772   3.761
21228W        W82517  28.121  37.004  12.090
21229W        W82518  31.897  41.438  13.410
21230W        W82519  22.997  37.872   0.327
21231W        W82520   5.807   7.871   2.679
21232W        W82521  16.693  17.791  12.431
21233W        W82522   2.786   6.364  11.534
21234W        W82523   3.336  22.038   4.212
21235W        W82524  14.206  43.399  11.048
21236W        W82525  17.741  13.118   1.236
21237W        W82526  14.757   8.794   3.736
21238W        W82527   3.790   4.268   4.688
21239W        W82528  44.277  19.538  10.597
21240W        W82529  28.557  10.719   0.268
21241W        W82530  17.203  14.205  11.485
21242W        W82531  40.426  22.067  11.586
21243W        W82532  35.403  29.060  11.381
21244W        W82533  24.192  33.083  12.450
21245W        W82534   3.814  14.765   3.865
21246W        W82535  15.273   1.959   3.700
21247W        W82536  41.890  36.432   1.356
21248W        W82537  42.784  30.955   1.850
21249W        W82538  11.849  28.054  13.461
21250W        W82539  29.573  30.927  13.488
21251W        W82540  13.235  26.517   0.967
21252W        W82541  33.624  15.123  12.834
21253W        W82542  41.993  34.051   2.867
21254W        W82543  12.199  36.347  13.484
21255W        W82544  18.258  15.613  14.982
21256W        W82545  32.925  30.038   0.338
21257W        W82546  12.733  44.963  14.342
21258W        W82547  34.587  25.489  14.489
21259W        W82548  33.947  17.582   1.918
21260W        W82549  24.102  18.277   2.270
21261W        W82550  44.850  21.532   1.278
21262W        W82551  12.254  39.338  13.874
21263W        W82552  14.309   7.843   4.229
21264W        W82553  39.057  20.542  10.907
21265W        W82554  28.941   2.290   4.601
21266W        W82555  12.334  25.527   1.783
21267W        W82556  41.010  20.050   4.250
21268W        W82557  41.318  11.138   1.843
21269W        W82558  18.071  19.564   2.824
21270W        W82559  19.578   3.810   0.375
21271W        W82560  11.295  34.920   0.789
21272W        W82561   2.964  15.168   4.306
21273W        W82562  15.701   9.876   2.257
21274W        W82563  41.524  32.063   3.290
21275W        W82564  36.986   9.650   3.237
21276W        W82565   1.757  31.968   3.318
21277W        W82566  13.233  26.061  11.008
21278W        W82567  37.020  38.568   4.353
21279W        W82568  21.222  39.360  11.560
21280W        W82569  16.644  42.999   3.686
21281W        W82570   1.483  34.087   4.305
21282W        W82571  33.487  15.675   4.301
21283W        W82572  12.723  29.935  13.515
21284W        W82573  26.163  12.854  11.429
21285W        W82574   2.450  17.304  14.936
21286W        W82575   9.884  38.547  11.385
21287W        W82576  19.079   7.797   4.323
21288W        W82577  12.180  18.173   1.897
21289W        W82578  14.818  38.884   2.833
21290W        W82579   6.301  36.897   4.227
21291W        W82580  35.500  28.597  10.514
21292W        W82581   5.784  13.642  12.380
21293W        W82582  10.709  17.137   0.745
21294W        W82583  43.352   2.905  12.948
21295W        W82584  22.241  22.019   9.488
21296W        W82585  32.623  20.637  13.984
21297W        W82586   7.837  39.885   4.752
21298W        W82587  16.802  22.196   3.285
21299W        W82588  44.274   7.832   2.888
21300W        W82589  27.538  10.636   3.267
21301W        W82590  25.709  19.071  13.421
21302W        W82591  16.235  28.124  11.989
21303W        W82592   4.324  38.562  11.978
21304W        W82593  19.072   7.801  13.447
21305W        W82594  27.184   7.270   3.711
21306W        W82595  30.635  41.493   4.635
21307W        W82596  44.973  44.949  14.842
21308W        W82597  23.151  36.995  10.941
21309W        W82598  21.729  33.981  11.464
21310W        W82599  11.283  26.474  10.426
21311W        W82600   6.211  41.448  14.486
21312W        W82601   1.266  24.034  11.872
21313W        W82602   7.274  43.477   0.317
21314W        W82603  24.574  32.420  12.492
21315W        W82604  23.722  14.670   4.290
21316W        W82605  43.270  41.412   3.242
21317W        W82606  33.422  36.420  14.398
21318W        W82607   3.334  17.764   0.279
21319W        W82608  25.696   4.777   1.398
21320W        W82609   1.381  42.853   1.256
21321W        W82610   5.730  12.637  13.913
21322W        W82611  44.396  13.238  11.928
21323W        W82612   9.670  30.078   2.337
21324W        W82613  20.578   9.206   0.350
21325W        W82614  39.972  41.922  10.477
21326W        W82615  41.992  30.012   4.691
21327W        W82616  16.099  13.660  12.016
21328W        W82617  26.694  38.937  12.902
21329W        W82618  32.952  44.471  14.404
21330W        W82619  43.283  35.548  10.603
21331W        W82620  41.350  29.555  12.509
21332W        W82621  37.422   0.888   0.311
21333W        W82622  40.012   1.255  13.535
21334W        W82623  42.940  44.924  13.463
21335W        W82624  33.613   4.422   3.343
21336W        W82625   9.742  14.223  13.908
21337W        W82626  43.857   7.397   4.692
21338W        W82627  37.339  38.875   1.329
21339W        W82628  16.198  30.492  14.445
21340W        W82629  41.967  16.767   0.295
21341W        W82630  27.161  17.283  14.510
21342W        W82631  33.414  14.722  13.314
21343W        W82632  32.999  33.383   3.661
21344W        W82633  40.415  25.162  10.942
21345W        W82634  19.641  12.734  12.894
21346W        W82635  27.596  39.831  13.872
21347W        W82636   5.230  15.284   4.288
21348W        W82637  38.460  22.135  12.910
21349W        W82638  40.833  39.411   1.830
21350W        W82639  41.300  33.625  13.494
21351W        W82640   8.196  11.239  11.435
21352W        W82641  34.921  18.287  11.896
21353W        W82642  42.491  11.659   1.916
21354W        W82643  42.293  39.495   4.269
21355W        W82644   6.425  30.586  14.006
21356W        W82645  40.927  14.691  12.384
21357W        W82646   9.738  22.540  10.998
21358W        W82647   2.413  17.679  14.444
21359W        W82648  37.507   4.765  12.832
21360W        W82649   5.882   7.261   2.290
21361W        W82650  14.687  26.077   1.371
21362W        W82651  29.648  20.715   2.239
21363W        W82652  22.669  28.038   1.877
21364W        W82653  13.720  14.722   2.872
21365W        W82654  15.174  43.363   0.339
21366W        W82655  24.623   8.297   4.607
21367W        W82656  12.679  18.732  14.455
21368W        W82657  32.528  10.156  12.911
21369W        W82658  35.007  19.217  10.999
21370W        W82659   4.702  37.935  13.535
21371W        W82660  18.594  12.119   2.368
21372W        W82661  10.744  31.113  13.056
21373W        W82662   0.450  27.618   1.890
21374W        W82663  25.055   4.714   4.680
21375W        W82664  10.703   1.801  14.507
21376W        W82665  36.066  43.304   0.798
21377W        W82666   5.391  34.540  14.964
21378W        W82667  33.563  35.591  11.479
21379W        W82668  33.458  25.985  10.419
21380W        W82669   5.901  12.834  13.348
21381W        W82670  22.615   6.683  14.509
21382W        W82671  19.249  12.240  10.892
21383W        W82672   0.923  10.643  12.357
21384W        W82673  25.627   6.889   1.759
21385W        W82674  24.082  41.981   2.789
21386W        W82675  40.893  38.514  12.093
21387W        W82676   2.787  20.758  13.039
21388W        W82677  23.187   4.798   3.733
21389W        W82678  23.234  27.983   4.300
21390W        W82679   8.223  18.207   2.413
21391W        W82680  31.985  25.129   5.227
21392W        W82681  38.942  24.982  13.039
21393W        W82682  29.135  21.675  10.481
21394W        W82683  22.995  11.797  12.077
21395W        W82684  24.054   7.236   0.767
21396W        W82685   8.312  13.222   2.275
21397W        W82686  10.751  26.641   1.782
21398W        W82687  33.515   7.285  13.049
21399W        W82688   6.681  21.689  10.507
21400W        W82689  22.591  25.091  12.416
21401W        W82690  20.079  35.586  12.919
21402W        W82691  20.603  15.805  14.492
21403W        W82692  36.469  33.553  14.881
21404W        W82693  30.953   0.285  12.409
21405W        W82694  39.849  19.661  10.433
21406W        W82695  16.139  21.183   0.373
21407W        W82696  19.756  41.291   2.269
21408W        W82697  26.109  12.695  14.288
21409W        W82698   6.837   4.227  14.310
21410W        W82699  19.262  11.786  11.006
21411W        W82700   0.792  33.878   4.124
21412W        W82701   1.878  31.614   2.190
21413W        W82702  38.340  32.124   4.609
21414W        W82703  42.850  32.003  11.502
21415W        W82704  25.042  20.055  12.565
21416W        W82705  28.943  24.082  10.637
21417W        W82706   8.795  19.741  11.918
21418W        W82707  33.518  44.850  13.953
21419W        W82708  23.000   4.370  14.512
21420W        W82709  40.325  20.598   9.949
21421W        W82710  19.279  15.267   2.316
21422W        W82711  25.018   0.429  12.560
21423W        W82712   0.315  15.325   2.857
21424W        W82713  30.522   9.713   2.325
21425W        W82714  16.264  38.905  12.411
21426W        W82715  43.872  16.654   4.675
21427W        W82716  14.182  41.975  13.431
21428W        W82717  44.434   2.885   3.646
21429W        W82718   7.905  28.465  14.966
21430W        W82719   9.277   7.186  12.837
21431W        W82720  36.559  36.001  10.012
21432W        W82721   3.297  43.396   0.751
21433W        W82722   5.198  42.486  11.862
21434W        W82723  40.400  21.623   2.671
21435W        W82724  23.198  29.604  14.494
21436W        W82725  43.866   2.380   4.735
21437W        W82726   1.955  14.241  10.945
21438W        W82727  36.870  14.690   2.407
21439W        W82728   3.270  12.776  13.412
21440W        W82729  12.795  19.535   4.309
21441W        W82730  25.616  20.665  12.449
21442W        W82731   5.271   5.901  13.333
21443W        W82732   8.400   4.707   2.285
21444W        W82733  22.206   4.440  14.498
21445W        W82734  39.368   4.282  13.064
21446W        W82735   6.781  43.942   1.879
21447W        W82736  29.951  12.631  10.501
21448W        W82737  29.462  17.672   4.286
21449W        W82738  34.961  23.225  11.895
21450W        W82739  44.482  41.344   9.960
21451W        W82740   3.382  26.553  13.337
21452W        W82741  22.537  34.874   4.793
21453W        W82742  43.015  15.742  10.566
21454W        W82743   2.783   8.890  10.889
21455W        W82744  28.607   6.340   2.770
21456W        W82745  43.270  19.058   4.343
21457W        W82746  20.193  39.349   3.699
21458W        W82747  41.042  13.226  13.908
21459W        W82748  14.239  23.116   1.374
21460W        W82749   9.669  30.500  13.408
21461W        W82750  13.239  39.841  11.859
21462W        W82751  36.486   0.323   9.968
21463W        W82752  31.566  18.186  13.456
21464W        W82753  14.803  20.076   2.851
21465W        W82754  24.998  43.896   1.226
21466W        W82755  19.122  25.611   0.304
21467W        W82756   4.893  36.903  14.949
21468W        W82757  18.075  13.350   2.680
21469W        W82758  22.522   5.333  14.320
21470W        W82759  25.124  25.674   1.792
21471W        W82760  29.991  26.486  12.372
21472W        W82761  18.057  37.468  10.447
21473W        W82762   0.284  27.062   4.678
21474W        W82763  10.804   9.724  11.122
21475W        W82764  18.692  15.726  10.526
21476W        W82765  32.121   1.813   1.268
21477W        W82766  26.506   6.263  12.857
21478W        W82767  39.960  11.646  11.976
21479W        W82768  11.726   2.912   2.901
21480W        W82769  43.009  36.042  12.868
21481W        W82770  37.551  30.914   5.241
21482W        W82771  14.715  17.105   0.920
21483W        W82772  25.485  36.976   1.337
21484W        W82773   1.438   9.339  14.994
21485W        W82774  11.312  41.908   3.386
21486W        W82775  43.455  19.606  11.904
21487W        W82776  42.822  26.202  11.069
21488W        W82777  27.995  38.528  10.937
21489W        W82778   3.238  40.366   0.905
21490W        W82779  15.641  24.143   4.722
21491W        W82780  18.586  30.582   1.358
21492W        W82781  16.603  19.573  13.872
21493W        W82782  33.958   5.862   0.765
21494W        W82783  32.892  12.265   3.361
21495W        W82784  19.630  39.403   3.349
21496W        W82785  39.062  32.911   4.348
21497W        W82786  39.061  37.495  11.036
21498W        W82787  18.652  37.920  14.302
21499W        W82788  10.656   3.789   1.746
21500W        W82789   5.865  13.350  14.362
21501W        W82790  24.182  26.676   1.300
21502W        W82791  34.478  30.993   4.230
21503W        W82792  20.707   8.365   2.204
21504W        W82793  16.653   5.884   4.768
21505W        W82794  38.340  34.470   3.650
21506W        W82795  37.892   4.274  14.853
21507W        W82796  36.377  14.243  10.017
21508W        W82797  17.231  23.689  11.939
21509W        W82798   9.220   9.870   4.801
21510W        W82799  16.197  13.106   2.180
21511W        W82800  19.559  39.963   0.296
21512W        W82801   0.280  34.007   3.756
21513W        W82802   3.779   5.733  12.496
21514W        W82803  23.099  29.993  13.020
21515W        W82804  30.508   7.224  14.346
21516W        W82805   2.943  25.643   2.670
21517W        W82806  34.082  28.171  11.404
21518W        W82807  37.076  42.347   2.322
21519W        W82808   5.194  27.486  14.287
21520W        W82809  19.668   7.291   4.317
21521W        W82810  24.181   1.746   5.106
21522W        W82811  24.656  23.214   2.199
21523W        W82812  41.793   0.969   0.850
21524W        W82813  40.381   5.194   0.338
21525W        W82814  30.480  36.992  13.478
21526W        W82815  41.850  19.189   5.231
21527W        W82816  38.837  43.469  11.889
21528W        W82817  42.915  20.666  13.492
21529W        W82818  28.062  41.984  10.906
21530W        W82819  41.517  44.408  11.423
21531W        W82820  33.118  26.630  14.372
21532W        W82821  13.283   3.278   0.758
21533W        W82822  14.095  30.550  14.907
21534W        W82823  36.572  25.168   0.886
21535W        W82824  17.747  23.526   0.933
21536W        W82825  33.974   7.895  13.919
21537W        W82826  41.470  25.653   1.860
21538W        W82827   1.407  12.620   1.439
21539W        W82828   6.724   8.404  11.129
21540W        W82829  16.101   8.700  13.978
21541W        W82830   8.211  10.791   3.749
21542W        W82831  28.108  24.659   1.743
21543W        W82832  29.630  34.949  11.911
21544W        W82833  17.677  36.359   1.393
21545W        W82834  24.121  42.287  12.867
21546W        W82835   3.218  12.832  10.529
21547W        W82836   3.734  40.879  11.525
21548W        W82837  31.059   5.849   0.423
21549W        W82838  43.959   7.251   4.296
21550W        W82839  34.415  31.054  14.356
21551W        W82840  44.878   5.913   0.303
21552W        W82841  15.805  16.082   1.876
21553W        W82842  37.396  18.057   2.395
21554W        W82843   6.822   0.972  13.925
21555W        W82844  12.818  20.579  10.630
21556W        W82845   1.422  33.403  11.398
21557W        W82846   8.672  29.664  11.900
21558W        W82847  15.800  29.946  11.984
21559W        W82848  33.930  14.810  10.554
21560W        W82849  27.151  43.395   1.778
21561W        W82850   5.389  12.802  10.629
21562W        W82851  21.254   4.317   4.276
21563W        W82852  13.641  16.710   2.858
21564W        W82853  12.775   9.826  11.563
21565W        W82854  11.336  21.517   0.768
21566W        W82855  16.246   1.431  13.316
21567W        W82856   8.661  42.357  14.030
21568W        W82857   6.244  19.233   2.745
21569W        W82858  35.980   4.343   0.818
21570W        W82859  21.075  24.035   4.700
21571W        W82860  19.677  13.194  12.513
21572W        W82861  33.539  20.080   0.441
21573W        W82862  35.911  43.301  10.969
21574W        W82863  30.107  40.818   1.707
21575W        W82864  44.967  40.518  13.829
21576W        W82865  40.832   4.771  11.108
21577W        W82866  27.457   1.742  14.384
21578W        W82867   1.753  25.171   1.422
21579W        W82868  38.992  32.082   1.869
21580W        W82869  10.792   9.291   0.952
21581W        W82870  11.276   0.248   3.677
21582W        W82871  19.693  38.480   3.827
21583W        W82872  12.159   0.773   2.802
21584W        W82873  40.804  28.554   3.212
21585W        W82874   7.840  31.911  11.116
21586W        W82875   5.364  41.854  13.873
21587W        W82876  35.057   5.844   0.301
21588W        W82877   4.378  11.738  14.905
21589W        W82878  34.030  20.761   2.884
21590W        W82879  12.735  44.999  12.428
21591W        W82880  12.759  11.864  11.112
21592W        W82881  35.369  44.342   4.353
21593W        W82882   3.878  26.207   0.458
21594W        W82883   7.369  17.785   2.283
21595W        W82884   9.176  10.139   3.205
21596W        W82885  36.398  13.342   2.261
21597W        W82886  23.173   4.214   2.847
21598W        W82887  16.728  42.799  14.394
21599W        W82888  32.941   1.423  14.025
21600W        W82889  36.356  30.913   4.823
21601W        W82890  15.116  18.728   1.230
21602W        W82891  42.998  33.443  11.875
21603W        W82892  40.985  20.724  12.935
21604W        W82893  26.668  36.004   3.748
21605W        W82894   7.725  12.784  12.352
21606W        W82895   3.327  35.550  14.945
21607W        W82896   9.356  38.063   3.153
21608W        W82897   2.936  33.525   3.791
21609W        W82898  34.047  10.255  14.338
21610W        W82899  32.110  29.426   3.657
21611W        W82900  43.810  26.188  12.556
21612W        W82901  43.375  31.444   3.636
21613W        W82902   4.890  28.038  12.456
21614W        W82903  35.509   2.239   5.117
21615W        W82904  27.649   7.187   0.779
21616W        W82905  28.445  27.090  11.473
21617W        W82906  27.635  34.483   4.664
21618W        W82907   6.403  14.699  14.781
21619W        W82908   5.766  39.388   4.168
21620W        W82909   2.794  12.215   1.751
21621W        W82910   4.216  13.222   3.319
21622W        W82911  37.469  12.121   2.712
21623W        W82912  43.863  38.474   2.779
21624W        W82913   3.319  20.717   0.884
21625W        W82914  29.628  40.855  13.381
21626W        W82915  43.339   6.320   1.870
21627W        W82916  21.520  29.581  12.934
21628W        W82917  31.147   4.829  10.547
21629W        W82918   6.344  44.330   3.713
21630W        W82919  28.614  34.960  12.042
21631W        W82920  20.147  17.675   0.844
21632W        W82921  21.136   7.265  12.380
21633W        W82922   9.885  16.743  11.059
21634W        W82923  16.638   5.712  13.342
21635W        W82924   5.325   5.873   3.823
21636W        W82925   5.409  12.299   2.329
21637W        W82926  12.769   2.450  12.541
21638W        W82927  17.285  29.556   4.295
21639W        W82928   1.975  32.408   1.272
21640W        W82929  29.662   3.720   2.821
21641W        W82930  42.995  34.101   0.938
21642W        W82931   3.262   6.787   1.350
21643W        W82932  12.329  37.345  12.392
21644W        W82933  21.147  32.122  14.359
21645W        W82934   0.388  28.073  13.451
21646W        W82935   2.287  10.177   2.357
21647W        W82936  13.628   9.250  10.588
21648W        W82937   5.323   0.354   3.657
21649W        W82938  34.100  39.335  13.060
21650W        W82939  33.090  27.596   2.824
21651W        W82940   5.438   7.236  11.873
21652W        W82941  24.581  19.733  11.410
21653W        W82942   0.852  42.858   3.840
21654W        W82943  41.883  12.303  13.341
21655W        W82944  43.853  15.134  12.453
21656W        W82945  25.665  43.515   2.179
21657W        W82946  10.263  44.953   2.245
21658W        W82947   2.360  10.324   3.865
21659W        W82948  14.281  28.114  12.959
21660W        W82949   3.352   8.765  11.380
21661W        W82950  10.642  27.981  11.993
21662W        W82951  10.225  26.628   0.889
21663W        W82952  42.981   0.302   4.753
21664W        W82953  44.259  21.034   2.802
21665W        W82954  37.040  42.491  10.621
21666W        W82955   4.428  34.055  10.577
21667W        W82956   9.200  40.041  12.505
21668W        W82957  16.786  15.638  11.015
21669W        W82958  24.660  11.681  12.956
21670W        W82959  43.321  13.712  13.357
21671W        W82960  12.854   0.879  13.966
21672W        W82961  19.701  16.659   9.927
21673W        W82962  35.042  31.024   1.439
21674W        W82963   6.745  39.828   1.426
21675W        W82964  12.618   7.880   1.719
21676W        W82965  34.075  43.298  10.512
21677W        W82966  16.077  12.831  14.997
21678W        W82967  34.892   4.332  10.970
21679W        W82968   4.898  21.046   9.928
21680W        W82969  42.285   7.784   3.763
21681W        W82970   5.320   9.769   0.879
21682W        W82971  35.967  26.597  12.373
21683W        W82972  39.820   2.828   2.897
21684W        W82973  31.137  19.678   0.848
21685W        W82974  36.850  20.154   0.270
21686W        W82975  17.758   6.256   1.820
21687W        W82976  20.672  17.184  13.541
21688W        W82977  39.479   0.384   3.870
21689W        W82978   0.434  38.364  11.096
21690W        W82979  38.856   4.944  12.500
21691W        W82980   6.197  20.575   1.699
21692W        W82981  11.626  36.529  11.901
21693W        W82982  16.639   5.788  11.608
21694W        W82983  12.130  21.189  12.887
21695W        W82984   9.709  14.613   4.201
21696W        W82985   5.284  25.043  13.823
21697W        W82986  15.747  29.565  10.541
21698W        W82987  43.345  11.341   5.110
21699W        W82988  30.105  27.661  13.040
21700W        W82989  20.144   7.268   2.304
21701W        W82990  14.778  22.598   0.760
21702W        W82991  33.397  25.548  13.954
21703W        W82992  23.172   4.206   3.723
21704W        W82993  18.055  25.166  10.637
21705W        W82994   3.354  23.560   1.416
21706W        W82995  37.495  30.655  13.901
21707W        W82996  17.083  13.625   2.374
21708W        W82997  26.634  25.522   3.773
21709W        W82998  36.424   9.280   2.766
21710W        W82999   7.387  20.237   5.224
21711W        W83000   3.795  23.690  14.423
21712W        W83001   6.841  19.597   1.851
21713W        W83002   5.821  40.828   0.277
21714W        W83003  19.095   0.852  14.848
21715W        W83004  15.208   0.266   5.238
21716W        W83005   6.835   0.261   3.790
21717W        W83006  39.972  39.957  14.508
21718W        W83007   4.358  34.438   1.426
21719W        W83008  42.005  31.961  12.089
21720W        W83009   1.754  17.675  14.942
21721W        W83010  22.695  33.994  13.414
21722W        W83011  29.953   4.237   4.611
21723W        W83012  41.790  31.064  11.113
21724W        W83013  27.954  42.469   4.785
21725W        W83014  35.880  41.532   2.400
21726W        W83015   3.927  44.303   0.363
21727W        W83016   9.793   5.223  10.406
21728W        W83017   5.753   8.707   2.863
21729W        W83018   7.713   2.292   1.762
21730W        W83019   1.791  24.218  13.866
21731W        W83020   6.809  10.642  14.009
21732W        W83021  40.395  15.772   1.694
21733W        W83022  32.485   6.264  14.412
21734W        W83023   3.709  15.220  11.478
21735W        W83024  33.906  40.873   3.733
21736W        W83025  19.137  11.795  13.467
21737W        W83026  39.433   2.359   1.818
21738W        W83027  24.015  40.331   1.384
21739W        W83028   9.789  19.114  14.497
21740W        W83029  29.651  43.362   3.294
21741W        W83030  31.137   8.260   4.834
21742W        W83031  28.096  27.609  11.872
21743W        W83032  17.103  34.940   2.888
21744W        W83033  39.840  29.568  11.072
21745W        W83034   5.383  44.902   4.333
21746W        W83035  35.039  36.091   2.255
21747W        W83036   0.787  14.331  13.879
21748W        W83037   6.410  27.492  12.491
21749W        W83038   9.229   6.783   2.729
21750W        W83039   7.217  39.316  14.383
21751W        W83040  27.998  30.044   0.412
21752W        W83041   5.809   6.269   1.231
21753W        W83042  15.793   9.182   2.293
21754W        W83043  42.843  24.639   0.862
21755W        W83044  14.718  25.536   3.744
21756W        W83045  35.919  23.150  12.370
21757W        W83046  28.110  16.136   4.201
21758W        W83047  27.452   9.346   4.794
21759W        W83048   8.279  18.280  14.342
21760W        W83049  37.425   4.905   2.282
21761W        W83050  33.987  19.534   3.675
21762W        W83051  43.308  34.455   4.293
21763W        W83052  40.036  18.123   1.731
21764W        W83053   0.771  38.341   3.198
21765W        W83054   1.337  34.051   3.359
21766W        W83055  43.286   8.725   4.753
21767W        W83056  18.722  12.821   1.802
21768W        W83057   9.180  16.242  13.795
21769W        W83058  43.370   3.322   2.319
21770W        W83059  21.651  41.337  13.798
21771W        W83060  35.919  29.982  12.516
21772W        W83061   2.816  41.869  13.002
21773W        W83062  23.659   8.294  12.448
21774W        W83063  11.346  43.500  11.389
21775W        W83064  32.495  33.391   0.461
21776W        W83065  42.287   5.321   1.358
21777W        W83066  29.945  38.971   3.220
21778W        W83067  40.340  14.670   0.410
21779W        W83068  12.652  34.055  10.891
21780W        W83069  12.155   3.310   4.161
21781W        W83070  10.191  18.678   3.322
21782W        W83071   1.922  10.711   0.483
21783W        W83072  41.003  34.475   1.405
21784W        W83073  10.817   3.864   1.249
21785W        W83074  11.679  14.165  14.834
21786W        W83075  13.321  41.378   0.889
21787W        W83076  36.575  12.118  11.078
21788W        W83077  11.203  36.431   4.795
21789W        W83078  43.442  25.968   2.801
21790W        W83079  21.119  39.539   3.703
21791W        W83080   0.859  21.697   4.318
21792W        W83081  39.343  15.328  11.571
21793W        W83082   7.695  44.388  11.433
21794W        W83083  22.139  22.678   4.263
21795W        W83084  27.073   5.323  13.879
21796W        W83085   0.361  35.467   1.799
21797W        W83086  25.711  26.167   4.198
21798W        W83087  43.445   0.283   0.413
21799W        W83088  24.493  40.885  10.582
21800W        W83089  26.985  13.149  12.825
21801W        W83090  32.079  33.575  11.965
21802W        W83091  37.551  36.873   4.660
21803W        W83092  13.133  33.080  12.441
21804W        W83093   2.735  23.179   1.343
21805W        W83094  26.486  12.150  12.577
21806W        W83095  22.206   8.884   0.359
21807W        W83096  39.938  23.090   3.648
21808W        W83097  34.590  14.337   3.731
21809W        W83098  33.019  13.169  14.463
21810W        W83099   4.396   5.202  13.401
21811W        W83100  16.248   8.812  10.414
21812W        W83101   5.718  11.172   0.257
21813W        W83102  13.229  34.469   1.846
21814W        W83103  10.201  43.881   2.897
21815W        W83104  44.837  20.629   1.392
21816W        W83105  28.966  38.468   4.128
21817W        W83106  19.715  20.223   1.437
21818W        W83107  31.635  37.960   2.700
21819W        W83108  27.111  20.077  14.809
21820W        W83109  31.963   5.220  12.855
21821W        W83110  15.157  33.095  13.035
21822W        W83111   8.201   1.400   4.608
21823W        W83112   7.233  21.543   3.206
21824W        W83113  32.109  11.751  13.412
21825W        W83114   0.816  29.634  10.431
21826W        W83115   0.971  31.613  11.965
21827W        W83116  32.420   6.412  13.417
21828W        W83117  28.597  23.520  10.413
21829W        W83118  44.997  13.766  10.436
21830W        W83119  43.788  33.613  11.931
21831W        W83120  29.038  19.742  14.794
21832W        W83121  12.306  10.329  12.517
21833W        W83122  12.811  35.967  11.506
21834W        W83123  41.907   8.750  13.931
21835W        W83124   5.426   8.348  10.528
21836W        W83125  13.760  20.747   5.584
21837W        W83126  42.929   5.365  13.879
21838W        W83127  27.191  27.999   1.898
21839W        W83128  14.708  37.841  14.936
21840W        W83129  11.707   9.188   3.382
21841W        W83130  24.171  24.548   3.167
21842W        W83131  18.124  34.886   2.717
21843W        W83132  31.502   1.268   0.812
21844W        W83133  36.032   5.277  13.944
21845W        W83134  39.352  40.965   2.340
21846W        W83135   4.321  27.976   2.293
21847W        W83136   3.362  26.972  12.072
21848W        W83137  37.342  26.608   3.827
21849W        W83138   5.855   4.835   1.715
21850W        W83139  38.395  12.644  12.934
21851W        W83140  16.175   5.383  14.327
21852W        W83141  43.490   0.382   3.661
21853W        W83142  28.142  43.471  13.373
21854W        W83143   8.182  19.566  11.877
21855W        W83144  28.017  18.665  12.570
21856W        W83145  20.642  37.034   0.760
21857W        W83146  26.565   4.246   0.478
21858W        W83147  22.555  41.014   1.415
21859W        W83148  11.708  40.034   9.982
21860W        W83149   4.819  34.092   0.352
21861W        W83150  32.576  29.645  10.927
21862W        W83151  35.371   1.326   1.760
21863W        W83152  30.995  16.773   2.381
21864W        W83153  33.398  34.489   1.794
21865W        W83154  44.421  37.851   3.335
21866W        W83155  27.968  38.069   4.691
21867W        W83156  12.614   5.837  14.346
21868W        W83157   1.273  24.647   2.401
21869W        W83158  22.218  29.160   4.734
21870W        W83159  16.098  32.514  11.587
21871W        W83160   7.395  33.971  14.380
21872W        W83161  25.143   6.878  11.514
21873W        W83162  33.031  21.107   1.845
21874W        W83163   2.902  11.143  14.392
21875W        W83164   5.715  22.181  14.953
21876W        W83165   8.901   6.265   5.199
21877W        W83166  11.834  21.705  12.509
21878W        W83167  40.974  44.497   4.327
21879W        W83168  42.316   9.163   0.830
21880W        W83169  19.653  28.522   4.307
21881W        W83170  41.950  34.548  11.410
21882W        W83171  25.066   4.279   4.641
21883W        W83172  30.121  33.470   1.864
21884W        W83173  41.328  34.024   2.849
21885W        W83174  25.507  21.068  14.499
21886W        W83175  44.876  28.673   3.214
21887W        W83176  12.355  43.385  10.595
21888W        W83177  17.778  38.328   2.860
21889W        W83178  36.516  26.187   4.682
21890W        W83179  17.659   9.184  13.457
21891W        W83180  32.566  14.789   3.835
21892W        W83181   9.339  24.144  10.972
21893W        W83182  26.481   0.865   3.292
21894W        W83183  18.577  32.080  13.428
21895W        W83184  11.694  27.971  11.128
21896W        W83185  25.521   2.357   0.444
21897W        W83186   1.933  23.629  10.511
21898W        W83187  33.527  33.050   2.763
21899W        W83188  33.013  38.876  12.471
21900W        W83189  44.463   0.467   1.741
21901W        W83190  12.835   6.914   4.678
21902W        W83191   7.305   1.797  12.877
21903W        W83192  25.026   8.844  14.928
21904W        W83193   2.419  33.516  14.026
21905W        W83194  32.092  16.257  10.972
21906W        W83195  29.965   9.708  12.904
21907W        W83196  10.285  37.072  13.395
21908W        W83197   8.694  13.826  14.869
21909W        W83198  27.555  24.089  11.936
21910W        W83199  17.179  38.462  12.921
21911W        W83200  20.761  37.471   1.343
21912W        W83201  40.465  18.561   0.872
21913W        W83202  19.716  25.069  14.024
21914W        W83203  42.494  33.916  12.509
21915W        W83204  31.439   2.780   2.240
21916W        W83205   4.237  25.469   5.118
21917W        W83206  31.498  28.959  12.073
21918W        W83207  36.521  25.700  11.895
21919W        W83208  39.361  20.766  12.517
21920W        W83209  23.492  25.993   4.704
21921W        W83210  32.618  23.197   0.261
21922W        W83211   8.747  38.467  10.894
21923W        W83212  25.152  41.941  10.575
21924W        W83213   9.705  23.633   3.700
21925W        W83214  12.716  34.014  13.019
21926W        W83215  23.163  14.314  14.972
21927W        W83216  21.082  19.611  11.978
21928W        W83217  16.677   3.402   2.876
21929W        W83218  39.926  30.623  13.005
21930W        W83219  28.467  25.215  14.513
21931W        W83220   9.776  36.945  11.484
21932W        W83221  32.996  37.348  14.412
21933W        W83222  13.217   8.773  14.930
21934W        W83223  17.212  36.937   3.771
21935W        W83224  25.628  28.481   1.253
21936W        W83225  24.598  21.263  13.544
21937W        W83226  16.741  25.120  13.513
21938W        W83227   7.307  31.594   0.256
21939W        W83228  38.865  44.386   1.332
21940W        W83229  39.029   3.345  13.048
21941W        W83230  38.007  16.618  12.509
21942W        W83231  35.910   0.759  10.958
21943W        W83232  43.783  32.064   4.792
21944W        W83233  10.329  11.842  11.985
21945W        W83234  43.845  33.564  11.444
21946W        W83235  43.472   3.322  11.601
21947W        W83236  36.384  13.730  10.950
21948W        W83237  43.973  16.197  14.504
21949W        W83238  22.510  23.563  14.343
21950W        W83239   6.769   1.414  14.341
21951W        W83240   2.962  10.214   4.789
21952W        W83241   8.797   3.444   4.231
21953W        W83242  27.587  28.162  13.050
21954W        W83243  34.593   4.726   3.687
21955W        W83244  13.638  36.097   1.920
21956W        W83245  26.487  29.132   2.236
21957W        W83246  37.854  11.735  12.523
21958W        W83247   2.848  43.289   0.341
21959W        W83248  18.742  32.002   9.978
21960W        W83249   1.403  17.679   3.785
21961W        W83250  22.019  24.478   0.291
21962W        W83251   5.312  37.380   1.224
21963W        W83252  37.547   4.699   0.828
21964W        W83253  42.502  19.076  11.543
21965W        W83254  32.085  21.122  11.584
21966W        W83255  18.563  33.068  14.995
21967W        W83256  16.619  34.959   4.689
21968W        W83257   3.364   6.235  14.342
21969W        W83258  33.080  26.167  13.804
21970W        W83259  34.938  22.620   1.282
21971W        W83260  39.390  27.036   4.206
21972W        W83261   8.684   8.795   2.683
21973W        W83262  27.043  18.255   3.719
21974W        W83263  14.595   3.454  11.607
21975W        W83264  32.008   1.859  14.795
21976W        W83265  14.096   5.229   3.281
21977W        W83266  22.011  31.439   1.790
21978W        W83267  35.399   9.785  10.926
21979W        W83268   4.249   3.250   1.259
21980W        W83269  24.120  40.425  11.879
21981W        W83270  10.220  33.588  10.507
21982W        W83271  20.757  29.159   4.122
21983W        W83272  22.692  25.204   4.702
21984W        W83273   7.677  37.455  12.905
21985W        W83274   8.739  37.839  10.503
21986W        W83275  43.875  39.878  14.363
21987W        W83276  18.754  43.900   0.813
21988W        W83277  30.479  17.792  14.940
21989W        W83278  37.941   3.801  10.418
21990W        W83279  25.185   7.805   1.754
21991W        W83280  25.579  33.008   4.320
21992W        W83281  40.878   8.161  10.961
21993W        W83282  19.094  29.541   3.250
21994W        W83283   5.275  15.277  14.993
21995W        W83284  19.173  25.003   3.796
21996W        W83285  37.532  33.509  11.096
21997W        W83286  22.218  20.038  12.477
21998W        W83287  19.225  15.161  14.857
21999W        W83288   1.740   3.868   1.841
22000W        W83289  22.010  23.597   1.338
22001W        W83290  31.003  24.692  11.058
22002W        W83291  33.058  19.119   4.794
22003W        W83292  41.515  16.311   1.700
22004W        W83293  12.657  17.162   3.303
22005W        W83294   8.800  18.137   2.748
22006W        W83295  10.360  21.723  11.447
22007W        W83296  22.535  18.602   3.807
22008W        W83297  15.632  11.191  14.850
22009W        W83298  41.858  24.997  11.417
22010W        W83299   3.735  20.658   1.230
22011W        W83300  23.095  42.339  10.581
22012W        W83301  14.789   3.310  12.887
22013W        W83302  28.569  35.025   0.797
22014W        W83303  19.141  34.061  14.499
22015W        W83304  34.453  24.222  13.031
22016W        W83305   6.293  44.947   4.169
22017W        W83306  34.025  25.518  12.848
22018W        W83307   7.268  11.785  12.895
22019W        W83308  44.769   9.396  12.410
22020W        W83309   4.904  21.569  14.332
22021W        W83310  11.303  11.708  11.393
22022W        W83311  42.913  18.246  11.987
22023W        W83312  36.548  19.065  11.029
22024W        W83313   9.767  24.516   2.378
22025W        W83314  44.383  22.163  10.515
22026W        W83315  41.302  23.236  12.035
22027W        W83316  19.199   5.223   4.729
22028W        W83317  35.056   4.789  10.938
22029W        W83318  38.517  10.140   3.717
22030W        W83319  22.556   0.440   2.682
22031W        W83320   8.859  36.987  11.893
22032W        W83321  28.450  29.117  11.564
22033W        W83322  11.268  27.682   1.346
22034W        W83323  25.004   8.660   3.317
22035W        W83324  38.062  36.462   3.669
22036W        W83325   7.822   6.295  10.149
22037W        W83326  36.417  14.703  14.976
22038W        W83327  22.597  36.385  11.434
22039W        W83328   7.906  22.238   1.315
22040W        W83329  27.194   9.202  11.439
22041W        W83330  21.555  25.646  11.995
22042W        W83331  13.129  36.372   4.680
22043W        W83332  30.057  12.356  14.847
22044W        W83333  19.160  29.079   0.335
22045W        W83334  30.431   5.405  14.356
22046W        W83335  43.822  14.219   2.722
22047W        W83336   1.917  31.928   2.363
22048W        W83337  38.425  37.411  13.930
22049W        W83338  16.177  25.476   4.124
22050W        W83339  38.851  19.219  12.978
22051W        W83340  11.289   3.359   0.860
22052W        W83341  37.470  39.844   1.338
22053W        W83342  41.373  42.946   3.702
22054W        W83343  30.563  18.786  11.588
22055W        W83344  44.785  33.923   0.439
22056W        W83345  20.193  23.057   3.648
22057W        W83346  32.531   9.688   4.611
22058W        W83347   0.460  24.065   1.816
22059W        W83348  41.987  34.469   4.142
22060W        W83349  37.477  22.533   5.214
22061W        W83350  22.036   2.261  13.882
22062W        W83351  39.961  31.537  14.028
22063W        W83352  44.967   2.454   4.723
22064W        W83353  20.081  10.334   4.769
22065W        W83354  27.613  12.313   3.696
22066W        W83355  18.790  41.430   0.744
22067W        W83356   3.731   8.178  10.634
22068W        W83357  19.758  30.958  11.561
22069W        W83358   3.776  27.166   0.874
22070W        W83359  28.958   1.859  14.911
22071W        W83360  30.555   2.378   9.636
22072W        W83361  20.224  43.478   4.114
22073W        W83362   8.728   2.962  10.067
22074W        W83363  33.400  17.133   1.369
22075W        W83364  24.668  16.722  13.890
22076W        W83365   6.916  26.027  14.922
22077W        W83366   8.276  34.441  12.899
22078W        W83367  18.121  11.278   1.294
22079W        W83368  20.228  22.723   0.880
22080W        W83369   4.774  15.803  13.949
22081W        W83370   0.833  24.989  10.621
22082W        W83371  33.970   3.288  12.080
22083W        W83372  25.030  38.417   1.713
22084W        W83373  15.634  23.204   9.985
22085W        W83374  14.604  26.500   0.288
22086W        W83375  23.213  38.524  14.774
22087W        W83376  16.228  20.036   1.213
22088W        W83377  13.634   8.384   3.301
22089W        W83378  42.447   8.866   1.855
22090W        W83379  43.292  31.592  14.449
22091W        W83380   0.759  32.937  11.542
22092W        W83381   1.272  32.950   2.200
22093W        W83382  35.366  24.585   4.753
22094W        W83383  41.458  24.095  14.777
22095W        W83384  44.318  40.488  10.502
22096W        W83385  31.466   0.292  10.550
22097W        W83386  26.571  30.533   2.729
22098W        W83387   1.380  33.427   4.262
22099W        W83388   4.394  43.507  14.362
22100W        W83389  20.124  18.765   3.271
22101W        W83390  20.142  12.761   3.664
22102W        W83391   7.666  18.225   4.724
22103W        W83392  22.112  35.926  13.981
22104W        W83393  25.111   3.806   3.224
22105W        W83394  11.669  39.878   4.343
22106W        W83395   4.713  36.967  14.394
22107W        W83396   2.362  42.000  14.955
22108W        W83397  43.510  36.085  11.497
22109W        W83398  38.403  36.016   4.830
22110W        W83399  41.999   8.686   1.337
22111W        W83400  36.018   7.257   2.818
22112W        W83401  23.503  41.795  12.089
22113W        W83402  16.711  44.341  10.544
22114W        W83403  23.149  29.456   3.806
22115W        W83404  30.418  15.218   3.699
22116W        W83405   1.239   9.222  10.153
22117W        W83406  25.171  41.402   2.351
22118W        W83407  35.379  44.973   2.839
22119W        W83408  17.133  44.885  13.939
22120W        W83409  41.971  37.031  10.510
22121W        W83410   7.778  18.077   2.698
22122W        W83411   9.358   6.918   4.801
22123W        W83412   4.803   1.300   3.723
22124W        W83413   6.216   9.672   2.381
22125W        W83414  44.809  27.164  12.827
22126W        W83415  25.541  23.715   1.392
22127W        W83416   8.702  20.589  13.460
22128W        W83417  14.639  33.972   3.831
22129W        W83418  16.624   9.676  14.780
22130W        W83419  28.148   4.357  10.627
22131W        W83420  40.894   1.349   3.750
22132W        W83421  14.120   6.826   1.724
22133W        W83422  27.594   5.767  13.321
22134W        W83423  33.393  13.117  12.082
22135W        W83424  19.276  44.346  12.506
22136W        W83425  33.390   1.456   4.258
22137W        W83426  30.651  25.141  11.542
22138W        W83427  37.513  40.486  11.100
22139W        W83428  20.115   9.804   0.905
22140W        W83429  17.682  28.482   2.392
22141W        W83430   5.281  32.095   1.412
22142W        W83431  28.606  40.461   4.824
22143W        W83432  40.962   6.382  13.348
22144W        W83433  23.045  34.552   3.315
22145W        W83434  22.059  32.100   1.717
22146W        W83435  14.199  33.415  10.912
22147W        W83436  15.762  36.970   3.677
22148W        W83437  15.765  43.506   5.108
22149W        W83438  34.540  39.447   4.273
22150W        W83439  22.509   6.830  12.919
22151W        W83440  22.598  44.823   3.817
22152W        W83441  12.343   4.861  14.867
22153W        W83442   8.224  18.770   3.300
22154W        W83443   7.899  26.460   0.263
22155W        W83444  36.944  31.558   2.787
22156W        W83445  10.748  14.714   2.320
22157W        W83446   3.873  40.968  11.047
22158W        W83447  12.195  30.565  14.855
22159W        W83448   1.396   1.433   2.756
22160W        W83449   8.876  32.586   3.657
22161W        W83450  15.689  33.927  13.839
22162W        W83451  39.015  29.154  14.481
22163W        W83452  21.567   2.257  14.847
22164W        W83453  29.482   1.261   2.836
22165W        W83454  41.787  34.453   2.245
22166W        W83455  11.806  20.259  13.531
22167W        W83456   5.244   2.803   3.815
22168W        W83457  30.439  25.594  14.346
22169W        W83458  28.076  19.580  11.578
22170W        W83459  23.179   7.297   1.237
22171W        W83460  33.915   7.172  11.587
22172W        W83461  31.925  25.096  12.465
22173W        W83462  14.183  40.806  13.982
22174W        W83463   9.272   4.730  10.612
22175W        W83464   7.233  23.232   3.285
22176W        W83465  14.267   3.368   4.182
22177W        W83466   4.749   0.248  11.857
22178W        W83467  12.319  26.033   0.428
22179W        W83468  16.224  19.671  13.401
22180W        W83469   5.716  32.105   1.437
22181W        W83470  30.938  33.071  11.549
22182W        W83471   8.711  12.717  13.951
22183W        W83472   0.270  41.905   3.803
22184W        W83473  18.747  20.672   0.917
22185W        W83474  39.992  42.404   1.789
22186W        W83475  42.793  20.766   2.740
22187W        W83476   7.762   7.292   4.288
22188W        W83477  41.792   3.359  10.071
22189W        W83478  20.699  23.026   4.290
22190W        W83479   6.332  31.938  14.779
22191W        W83480  40.861  34.866   3.722
22192W        W83481  11.314   5.770  13.796
22193W        W83482  44.464  43.372  12.916
22194W        W83483   3.713   4.295  13.795
22195W        W83484  31.562  25.021   4.151
22196W        W83485   8.868   4.853   1.800
22197W        W83486   2.447  16.222  14.969
22198W        W83487   5.281  18.679   1.859
22199W        W83488  28.996   5.819  10.890
22200W        W83489  19.188  25.583  10.410
22201W        W83490  18.746  26.062   2.368
22202W        W83491  29.485   4.774  11.044
22203W        W83492  28.448  32.999  13.521
22204W        W83493   0.335  17.612   4.181
22205W        W83494  38.452   2.240   4.708
22206W        W83495  11.287  30.601   2.309
22207W        W83496  13.732  14.159  11.603
22208W        W83497  24.186  26.574   0.830
22209W        W83498   6.203   0.825   2.250
22210W        W83499  14.245   0.491   2.416
22211W        W83500   8.292  32.578  12.401
22212W        W83501  22.021  27.135  12.830
22213W        W83502  19.553  33.132   1.392
22214W        W83503  17.155  42.864  13.328
22215W        W83504  14.170  10.238  13.850
22216W        W83505   7.724  10.657   3.795
22217W        W83506  25.513  23.065  14.359
22218W        W83507  39.448  27.612   4.122
22219W        W83508  42.967  34.390   0.399
22220W        W83509  27.498   8.893   4.215
22221W        W83510  17.292  23.583  11.463
22222W        W83511  38.357  18.604  10.015
22223W        W83512   9.184   7.253   3.359
22224W        W83513  13.646   6.779  11.415
22225W        W83514   6.821  13.153  10.447
22226W        W83515  28.030   6.889   9.928
22227W        W83516  42.323   0.803   4.207
22228W        W83517  20.677   3.299  13.932
22229W        W83518  12.683  10.192   1.239
22230W        W83519  11.132   8.747  11.406
22231W        W83520  28.103  18.577   4.771
22232W        W83521  31.087  14.651   2.665
22233W        W83522  16.290  32.907   2.333
22234W        W83523   7.841  15.705  10.458
22235W        W83524  30.617  37.973   0.785
22236W        W83525  10.770  30.549  11.502
22237W        W83526   5.200   9.811   3.727
22238W        W83527  11.705  11.234  11.907
22239W        W83528   6.848   5.346  11.377
22240W        W83529  26.667  32.045  11.541
22241W        W83530   1.293   0.289   0.398
22242W        W83531  42.400  27.029   3.766
22243W        W83532  16.635  16.754   3.638
22244W        W83533  32.026  36.565  14.364
22245W        W83534  26.131   9.173   3.829
22246W        W83535  44.344   3.248  13.823
22247W        W83536  31.994   9.164  10.580
22248W        W83537  32.916   9.793   3.709
22249W        W83538  20.572  31.035  14.016
22250W        W83539  31.404  29.012   1.338
22251W        W83540   0.757  15.230  14.810
22252W        W83541  13.843  40.398   0.344
22253W        W83542  26.568   3.861  12.343
22254W        W83543  30.444  22.683   0.313
22255W        W83544  12.802  41.014  11.060
22256W        W83545   8.859   9.151   1.767
22257W        W83546  27.619   3.847   0.849
22258W        W83547  32.983  13.695  13.995
22259W        W83548  28.065  19.585   3.729
22260W        W83549  13.106  42.495   3.315
22261W        W83550  24.985   9.178  12.867
22262W        W83551   9.752  34.939  12.945
22263W        W83552   3.394  10.176  13.448
22264W        W83553  17.623  27.165   3.754
22265W        W83554  12.354   3.937  12.983
22266W        W83555  39.402  17.084  11.450
22267W        W83556  22.586  31.983  14.353
22268W        W83557  16.691  20.057   1.272
22269W        W83558   1.940  16.749  12.558
22270W        W83559   1.257  18.297  13.818
22271W        W83560   2.917  32.493   3.338
22272W        W83561  21.116  10.359  10.472
22273W        W83562   5.718  40.442  11.050
22274W        W83563  24.197  37.083   1.218
22275W        W83564  40.808   0.944   4.155
22276W        W83565  22.550  17.061  12.033
22277W        W83566   4.818  23.511   3.343
22278W        W83567  39.877  27.566  11.910
22279W        W83568  10.738  21.204   3.303
22280W        W83569  17.587  28.449  12.869
22281W        W83570  26.137  20.095   0.951
22282W        W83571  23.649  33.484  12.396
22283W        W83572   0.880  39.380  11.949
22284W        W83573  25.688   9.870  13.455
22285W        W83574  11.239   8.795  13.950
22286W        W83575  36.868  30.081  14.761
22287W        W83576   5.759  33.522  10.988
22288W        W83577  13.785  33.410   4.730
22289W        W83578  28.950  20.136  10.631
22290W        W83579   9.813  11.725  13.934
22291W        W83580   3.751   4.402  10.898
22292W        W83581   2.856  27.510   4.718
22293W        W83582   4.345  15.598  11.065
22294W        W83583   4.711  23.555   1.256
22295W        W83584  41.832  19.087   3.238
22296W        W83585  20.187  10.184  12.052
22297W        W83586   3.802   4.257   4.349
22298W        W83587  35.965  36.391   3.312
22299W        W83588  32.995  44.391  13.386
22300W        W83589  11.698   4.843   2.268
22301W        W83590  32.625  29.478  10.548
22302W        W83591   3.929  28.064  10.988
22303W        W83592  40.457  24.604   4.234
22304W        W83593   2.940  31.636  12.459
22305W        W83594  18.761  19.231   0.797
22306W        W83595  32.939   4.207   4.143
22307W        W83596  35.882   6.903  12.020
22308W        W83597   2.259  14.776   3.361
22309W        W83598  39.322  38.940  14.895
22310W        W83599  21.586   0.842   1.235
22311W        W83600  19.667  16.165   0.830
22312W        W83601  15.785  40.453  11.438
22313W        W83602  10.372  15.609  12.091
22314W        W83603  29.024  15.688  13.333
22315W        W83604  30.478   1.825   3.207
22316W        W83605  42.991  38.940   1.408
22317W        W83606  25.567  44.890  14.296
22318W        W83607  10.811  11.287  14.892
22319W        W83608  25.655  24.118   0.369
22320W        W83609  13.239  34.082  11.497
22321W        W83610  43.791   3.766  13.422
22322W        W83611  19.685   4.350   0.953
22323W        W83612  34.024  40.883   1.363
22324W        W83613  17.575  38.845   1.346
22325W        W83614  37.979   8.382  10.994
22326W        W83615  16.125   0.433   0.946
22327W        W83616  34.069  36.024  13.380
22328W        W83617  30.516   8.843   5.223
22329W        W83618  42.934  11.865  11.863
22330W        W83619  33.526   6.421  13.501
22331W        W83620   8.312  32.463  14.909
22332W        W83621  13.620  40.856  12.977
22333W        W83622   3.222  17.102  12.401
22334W        W83623  28.083  14.241  14.897
22335W        W83624  22.672  37.027   3.687
22336W        W83625  36.383  43.279  11.047
22337W        W83626  26.086  26.185  11.405
22338W        W83627  26.990  17.762   3.320
22339W        W83628  26.176  21.091  10.139
22340W        W83629  12.157  19.113  14.414
22341W        W83630  36.900   1.440   4.773
22342W        W83631  31.911  36.513   0.432
22343W        W83632  17.195   8.713   3.380
22344W        W83633  24.132  29.484  11.866
22345W        W83634  27.503  14.125  14.869
22346W        W83635  14.323   7.669  14.012
22347W        W83636   3.889  31.602  12.386
22348W        W83637   4.434  12.261   0.472
22349W        W83638  34.516  35.010  11.898
22350W        W83639  18.164  40.841   1.293
22351W        W83640   7.724  42.858  13.333
22352W        W83641   3.721  39.013  10.143
22353W        W83642   9.792  36.075   3.168
22354W        W83643  24.708  30.611  13.517
22355W        W83644  16.088  36.529   0.340
22356W        W83645  12.288  41.794   0.317
22357W        W83646  29.596  21.632   2.336
22358W        W83647  30.473  11.813  11.371
22359W        W83648  33.988   7.758   2.195
22360W        W83649  39.857  15.262   3.672
22361W        W83650   7.911   5.326  13.974
22362W        W83651  19.570  10.191   1.216
22363W        W83652  34.906  41.815   4.654
22364W        W83653  13.662  29.145   2.860
22365W        W83654   6.911  34.877  11.595
22366W        W83655   1.345   5.274   1.731
22367W        W83656  41.325  18.133   1.250
22368W        W83657  39.317   6.685  13.311
22369W        W83658  36.521  42.944  14.789
22370W        W83659  10.798  13.232   4.805
22371W        W83660  10.303  27.552  10.430
22372W        W83661  18.260  40.535  13.846
22373W        W83662  12.250   9.237  12.096
22374W        W83663  34.461  22.015   4.348
22375W        W83664  31.910  31.507   2.778
22376W        W83665  14.786  23.178   2.764
22377W        W83666  27.611   8.848  13.496
22378W        W83667   8.793  14.755  10.596
22379W        W83668  32.118  16.117  10.506
22380W        W83669  31.424   1.428   2.797
22381W        W83670  17.106   2.318   4.332
22382W        W83671  14.821  36.012   9.603
22383W        W83672  34.061  26.702   4.719
22384W        W83673   3.884  42.339   2.210
22385W        W83674  16.630  36.357  11.448
22386W        W83675  19.082  29.143   2.823
22387W        W83676  26.177   7.296   2.199
22388W        W83677  12.273  24.010  12.904
22389W        W83678  42.317  36.861   3.329
22390W        W83679  35.926  33.393  12.088
22391W        W83680  25.065  11.258  10.154
22392W        W83681  21.114  33.113  13.451
22393W        W83682  25.469   6.226   0.358
22394W        W83683  34.453  35.456  14.852
22395W        W83684  29.560  23.716   4.282
22396W        W83685  17.120   8.819   4.304
22397W        W83686  40.929  41.862  14.442
22398W        W83687  14.174  22.207   0.934
22399W        W83688  37.998  42.469   1.694
22400W        W83689  42.454   7.231   5.604
22401W        W83690  32.141  23.036   2.277
22402W        W83691   0.825  25.538  12.886
22403W        W83692  17.092  26.131   0.474
22404W        W83693  15.255  27.549   3.163
22405W        W83694  21.674  41.357   4.776
22406W        W83695  25.627  13.768   4.198
22407W        W83696  21.703   2.288   4.312
22408W        W83697   3.719  12.335   3.719
22409W        W83698  33.986  30.931  12.843
22410W        W83699  11.762  23.147   0.789
22411W        W83700  15.665   9.831   9.987
22412W        W83701  19.136  22.033   1.701
22413W        W83702  28.481  43.808   0.469
22414W        W83703  22.568  44.400  14.898
22415W        W83704  13.619  40.050   1.745
22416W        W83705  22.167  10.149   1.849
22417W        W83706  43.915  11.716  10.067
22418W        W83707   5.827   5.338   0.849
22419W        W83708  39.527  28.657   4.707
22420W        W83709  18.746  44.300  14.433
22421W        W83710  38.562   7.911  14.438
22422W        W83711  17.646  42.451   2.281
22423W        W83712  25.165  39.005  13.001
22424W        W83713  44.322  16.808   2.826
22425W        W83714  22.572  42.479  11.078
22426W        W83715  35.094   5.795  14.970
22427W        W83716  43.828   6.727   0.385
22428W        W83717  31.095  37.359   1.868
22429W        W83718  42.339  20.584   2.690
22430W        W83719  15.277  23.238  13.906
22431W        W83720  24.511   9.713  14.984
22432W        W83721  39.533  29.023   0.869
22433W        W83722  32.107  32.060   2.240
22434W        W83723   6.755  36.945   2.180
22435W        W83724  24.160  14.297   0.369
22436W        W83725  22.701  19.103   1.407
22437W        W83726  30.597  33.126   2.857
22438W        W83727  32.601  22.143  11.502
22439W        W83728  23.225   2.352   1.756
22440W        W83729  24.994  29.131  11.493
22441W        W83730   0.822   8.730   2.840
22442W        W83731  38.989  41.952  13.408
22443W        W83732  26.580  27.664   3.644
22444W        W83733  17.755  27.082  10.931
22445W        W83734  33.607  28.098   3.729
22446W        W83735   2.747  20.648   0.342
22447W        W83736  42.967  28.159  13.341
22448W        W83737  21.700  36.903  13.895
22449W        W83738  13.281  23.188   4.611
22450W        W83739  33.439  32.063  11.114
22451W        W83740  35.474  44.375  11.080
22452W        W83741  14.252  29.577  14.332
22453W        W83742   7.827  17.635  10.963
22454W        W83743  14.674   1.925   2.214
22455W        W83744   6.393  21.731   3.151
22456W        W83745  31.535  18.626  12.411
22457W        W83746  27.013  35.924   0.441
22458W        W83747  42.891  41.521  11.457
22459W        W83748  44.295  19.139   0.895
22460W        W83749  12.849   7.869   3.827
22461W        W83750  17.117  24.169  10.419
22462W        W83751  30.020   9.743  13.822
22463W        W83752  25.552  15.750  12.552
22464W        W83753  11.692  44.879   0.770
22465W        W83754  21.214  31.427  12.447
22466W        W83755  38.418   6.219   0.870
22467W        W83756  15.199   2.322  10.951
22468W        W83757  16.094  40.344   5.623
22469W        W83758  25.531  40.542  11.546
22470W        W83759  32.519  22.044  13.411
22471W        W83760  25.139  10.740   1.933
22472W        W83761   9.217  10.268  11.912
22473W        W83762  30.478  15.261   1.293
22474W        W83763  30.004  40.534   2.853
22475W        W83764  34.059  23.593   3.765
22476W        W83765  43.441  16.596  13.044
22477W        W83766  11.254   7.794   2.717
22478W        W83767  40.435  28.166  13.857
22479W        W83768  26.143  18.173   4.223
22480W        W83769  28.136   0.410   3.332
22481W        W83770  21.546  39.053  12.439
22482W        W83771   3.768  26.178   2.849
22483W        W83772   7.172  36.087  13.461
22484W        W83773  38.333  32.910  14.357
22485W        W83774  38.934  34.477   2.342
22486W        W83775  18.206  35.093   0.802
22487W        W83776  42.331   0.357  10.517
22488W        W83777  36.041  34.911  13.505
22489W        W83778  35.914  38.544  12.485
22490W        W83779  29.001  29.454  11.002
22491W        W83780  18.132   1.862  10.497
22492W        W83781  44.465  13.144  10.438
22493W        W83782  34.435   1.332   2.858
22494W        W83783  29.083  15.585   2.848
22495W        W83784   8.691   2.246   3.147
22496W        W83785  43.931  22.728  12.545
22497W        W83786  22.113   7.837   1.293
22498W        W83787  10.782  32.536   1.345
22499W        W83788  39.970  27.653  11.596
22500W        W83789  36.929  36.925  13.871
22501W        W83790  19.273  35.066  11.866
22502W        W83791  25.557  20.151  10.101
22503W        W83792  31.118  22.170   2.400
22504W        W83793  27.594  44.459   1.856
22505W        W83794  27.095  36.542  11.567
22506W        W83795  31.498  32.006   0.861
22507W        W83796  13.284  42.858  14.361
22508W        W83797   1.473  30.073  13.977
22509W        W83798  27.549  28.042  14.908
22510W        W83799  15.109  27.965   1.815
22511W        W83800  13.759  27.941   3.840
22512W        W83801  16.107   9.274  14.821
22513W        W83802   3.364  23.637  12.994
22514W        W83803  37.918   0.927  12.480
22515W        W83804  29.067  14.732   1.213
22516W        W83805  24.161  32.524   0.828
22517W        W83806   6.798  40.978   4.155
22518W        W83807  26.016  22.146   3.679
22519W        W83808  13.347  42.852  11.486
22520W        W83809  39.401   1.877   4.597
22521W        W83810  14.778  11.268   1.269
22522W        W83811  21.748  24.202  13.904
22523W        W83812   0.809   3.948  10.960
22524W        W83813  44.848  15.792  10.579
22525W        W83814  21.045  26.641  13.354
22526W        W83815  22.631   5.303   3.242
22527W        W83816  24.547  32.054   3.235
22528W        W83817   0.485   1.822  10.963
22529W        W83818  13.761  41.456   0.851
22530W        W83819   1.732  43.455  13.350
22531W        W83820  34.945  32.493   3.656
22532W        W83821  17.666  40.472   1.742
22533W        W83822  33.504  36.993   2.285
22534W        W83823  42.031  33.622  10.944
22535W        W83824   1.864  26.658   4.172
22536W        W83825  40.799  37.423  14.367
22537W        W83826  18.635  32.525  14.277
22538W        W83827  44.867  32.126  11.874
22539W        W83828   5.782  23.113  13.046
22540W        W83829  38.521  42.433   0.415
22541W        W83830  28.988   7.283  12.995
22542W        W83831  37.450  41.431  13.464
22543W        W83832  22.674  38.397   1.357
22544W        W83833  23.226  18.623   3.821
22545W        W83834  14.619  20.722  13.053
22546W        W83835  23.634  34.607  13.419
22547W        W83836  26.162  38.828   0.303
22548W        W83837   7.830   9.364  13.887
22549W        W83838   3.396  13.817   2.736
22550W        W83839   3.365  12.209   2.839
22551W        W83840  29.965   2.296  14.930
22552W        W83841  44.946   8.366  10.042
22553W        W83842  42.813  24.491  11.593
22554W        W83843  38.494   9.338  11.048
22555W        W83844  21.557  39.516   3.270
22556W        W83845  10.767  39.959  10.565
22557W        W83846  19.050  11.265  14.841
22558W        W83847   9.257  16.257   3.734
22559W        W83848  28.676  34.097   4.789
22560W        W83849  38.566  15.806   0.903
22561W        W83850  44.340  10.224   2.418
22562W        W83851  27.007  34.884  12.963
22563W        W83852  19.208   7.715  14.796
22564W        W83853  20.081  31.064  13.392
22565W        W83854  28.124   1.314  12.435
22566W        W83855   9.679  38.902  13.456
22567W        W83856  29.638  44.385  10.618
22568W        W83857   0.975  24.025   3.858
22569W        W83858  20.194  33.450   1.732
22570W        W83859  18.157  12.129  12.383
22571W        W83860   5.901  26.138   3.160
22572W        W83861  10.375  26.652  13.049
22573W        W83862   2.946   4.771  12.404
22574W        W83863  17.658  35.105  11.434
22575W        W83864  27.676  43.451   4.730
22576W        W83865  29.575   8.660  13.535
22577W        W83866  26.161  15.261   1.783
22578W        W83867  17.287  11.707  13.026
22579W        W83868  19.770  27.078  12.052
22580W        W83869  35.557  42.959  13.421
22581W        W83870  11.767   8.686   9.984
22582W        W83871  38.011  26.989   0.765
22583W        W83872  31.965  10.642   1.761
22584W        W83873  44.915  35.457   0.432
22585W        W83874  19.664   7.897  12.441
22586W        W83875   1.800  35.933   0.280
22587W        W83876   7.201  28.993   1.430
22588W        W83877  15.305  17.244   0.872
22589W        W83878  25.994  30.950  13.837
22590W        W83879  27.020  34.446  13.933
22591W        W83880  25.663  31.555  14.499
22592W        W83881  15.266  30.124  12.507
22593W        W83882  31.408   7.768  10.486
22594W        W83883  34.485  37.566  10.589
22595W        W83884   8.359  35.581  13.821
22596W        W83885  11.255  32.430  12.392
22597W        W83886  40.389  30.489   4.795
22598W        W83887   0.347  41.788   1.371
22599W        W83888  38.958  40.408   4.832
22600W        W83889  21.114  39.819   4.125
22601W        W83890   5.426  29.086   0.463
22602W        W83891  36.024  16.701  11.405
22603W        W83892  30.568  43.494   3.271
22604W        W83893   8.297   4.326  12.061
22605W        W83894  38.859  11.285  10.595
22606W        W83895  34.912  41.986   0.919
22607W        W83896  24.538  28.451  10.509
22608W        W83897   0.766   0.976  14.990
22609W        W83898   4.860  23.049  10.589
22610W        W83899  34.389   0.460   0.446
22611W        W83900  10.637  39.411  12.529
22612W        W83901  23.234   1.373  11.057
22613W        W83902  11.295  30.958   3.759
22614W        W83903  44.294  36.568  12.546
22615W        W83904  37.347   8.887   3.358
22616W        W83905  18.687   0.486   1.874
22617W        W83906  41.934  44.754   2.719
22618W        W83907  24.201  30.564   4.766
22619W        W83908  31.548   8.279  13.852
22620W        W83909  24.143  23.236  12.904
22621W        W83910  13.682   4.237   3.683
22622W        W83911  14.720  31.111  11.452
22623W        W83912  32.413  43.373   4.605
22624W        W83913  37.874   8.729  14.316
22625W        W83914  26.609  14.241  14.484
22626W        W83915   3.306  22.133   2.664
22627W        W83916  33.983   1.778   3.864
22628W        W83917  11.629  29.957   3.692
22629W        W83918  37.904  19.752   3.698
22630W        W83919  40.545  44.336  14.031
22631W        W83920  15.743  10.295   0.936
22632W        W83921  34.060   5.415   3.786
22633W        W83922  28.074  39.402  12.486
22634W        W83923  23.663  39.911  13.494
22635W        W83924  30.436  20.209  13.341
22636W        W83925  38.918  17.611   4.151
22637W        W83926  27.082   1.344   1.833
22638W        W83927  11.815  25.078   2.701
22639W        W83928   3.853   6.280   1.773
22640W        W83929  30.056  41.032   0.347
22641W        W83930  39.990  22.709  13.504
22642W        W83931  27.578  30.044   4.603
22643W        W83932  13.775  44.911  11.449
22644W        W83933  43.871  14.626   0.454
22645W        W83934  10.312   2.289  11.385
22646W        W83935  22.529  23.194   2.728
22647W        W83936  24.088  34.511  14.482
22648W        W83937  18.233  25.007  10.906
22649W        W83938  31.975  33.081  12.926
22650W        W83939  27.032  21.747   0.381
22651W        W83940  15.160   1.346   0.425
22652W        W83941  35.892   5.358   1.894
22653W        W83942   9.276  29.130   0.747
22654W        W83943  44.409  14.246   2.191
22655W        W83944   5.711  12.833   3.275
22656W        W83945  29.583  13.740  13.795
22657W        W83946  39.560  25.710   2.701
22658W        W83947  43.332  13.121  14.406
22659W        W83948  29.972  32.598   1.733
22660W        W83949  29.452  28.481  10.621
22661W        W83950   1.275  12.793  11.119
22662W        W83951  39.005  15.187   4.705
22663W        W83952  26.019  31.589  13.444
22664W        W83953  41.038  29.135  13.005
22665W        W83954  13.684  43.824   2.378
22666W        W83955  29.098  40.798  10.994
22667W        W83956  21.170   8.358  10.616
22668W        W83957  32.547  23.164   1.420
22669W        W83958   4.945  22.092   5.135
22670W        W83959   7.685  23.603  12.828
22671W        W83960  40.977  10.263  12.346
22672W        W83961  32.539  26.121   3.366
22673W        W83962   9.854  36.935  11.105
22674W        W83963   8.769  29.002  11.451
22675W        W83964   8.219   8.236   1.738
22676W        W83965  14.637  10.661  12.361
22677W        W83966  14.224  26.186   2.883
22678W        W83967  21.082  40.825   2.847
22679W        W83968  29.517  14.175   4.683
22680W        W83969  43.897   1.293  12.826
22681W        W83970   6.822  32.573   2.393
22682W        W83971  34.527  18.101  11.115
22683W        W83972  14.242  36.025   0.869
22684W        W83973  30.543   7.304   4.836
22685W        W83974   8.268  39.412   3.634
22686W        W83975  23.695  20.200  12.501
22687W        W83976   0.288  36.037  12.431
22688W        W83977  17.764  13.150   4.206
22689W        W83978  32.392  38.429   3.732
22690W        W83979  25.033  19.047   4.355
22691W        W83980   4.273   2.306   1.289
22692W        W83981  29.619  32.550  11.045
22693W        W83982  42.801  36.590   4.734
22694W        W83983  16.786  25.071   0.960
22695W        W83984  34.510  22.527   4.351
22696W        W83985  38.416   6.249  11.376
22697W        W83986  26.127  26.491   2.728
22698W        W83987  43.449  44.386   3.304
22699W        W83988  42.846  17.066  12.547
22700W        W83989  22.603  25.095  14.298
22701W        W83990  25.496   1.837   5.277
22702W        W83991  31.505   5.436   2.207
22703W        W83992  37.531  34.932   0.353
22704W        W83993  33.021   0.309  10.960
22705W        W83994  11.159   9.697  13.818
22706W        W83995   9.747  16.631   0.835
22707W        W83996   4.772  24.596   1.819
22708W        W83997  25.062  27.638  12.960
22709W        W83998  27.613  29.124  10.903
22710W        W83999  16.190  33.545  10.085
22711W        W84000  31.056  39.372   2.353
22712W        W84001  40.426  39.974   2.692
22713W        W84002  12.300  32.396   3.814
22714W        W84003  20.625  30.437  14.346
22715W        W84004   8.673  38.447   2.681
22716W        W84005  23.016   0.853  14.493
22717W        W84006  43.388  21.535   3.274
22718W        W84007   7.203  23.520   2.700
22719W        W84008  16.290   7.331   0.878
22720W        W84009  18.279  15.251   4.753
22721W        W84010   9.674  21.593  14.396
22722W        W84011  42.491  38.402   3.290
22723W        W84012   0.812  30.086  13.450
22724W        W84013   6.299  30.152   4.756
22725W        W84014  31.648  43.486   2.805
22726W        W84015  29.477  25.637   1.300
22727W        W84016  41.001  26.574   4.169
22728W        W84017  17.134  42.344   4.125
22729W        W84018  22.545  17.698  12.094
22730W        W84019  37.462   5.345   2.377
22731W        W84020  12.282  14.197  14.952
22732W        W84021  13.682  14.218  13.322
22733W        W84022  16.750   4.869  11.471
22734W        W84023  25.111  37.513   2.253
22735W        W84024  36.903   1.856  13.804
22736W        W84025  19.647   5.748   0.904
22737W        W84026  20.111  30.912  12.534
22738W        W84027  18.651  15.794   9.981
22739W        W84028  29.098  30.497   0.417
22740W        W84029  10.139  40.453  10.998
22741W        W84030  27.095  25.594   1.724
22742W        W84031  36.891  22.165  14.320
22743W        W84032   6.837  41.479  11.517
22744W        W84033  27.160  31.498  13.009
22745W        W84034  15.811  30.486   3.257
22746W        W84035  44.381  20.742  10.998
22747W        W84036  40.883  42.989  10.428
22748W        W84037  10.220  33.087  14.275
22749W        W84038  19.545  39.383   0.373
22750W        W84039   5.905   7.883  13.411
22751W        W84040  16.594  33.602   0.771
22752W        W84041  35.456  38.921   1.382
22753W        W84042  44.772  40.006  13.954
22754W        W84043  40.972  34.465  11.398
22755W        W84044  40.377   4.283   2.278
22756W        W84045  14.301  18.160   0.371
22757W        W84046  13.334  27.957   0.911
22758W        W84047  36.354  20.749   1.225
22759W        W84048  12.317  44.996  12.860
22760W        W84049  23.524   9.314   2.364
22761W        W84050  43.412  44.446  14.903
22762W        W84051  14.228  31.957  13.795
22763W        W84052  13.157  19.136   0.814
22764W        W84053  15.769  37.463  14.446
22765W        W84054   6.384  43.847   1.872
22766W        W84055  42.003  39.871  10.440
22767W        W84056   5.852   5.864   2.346
22768W        W84057  32.420  26.527  10.047
22769W        W84058   6.852  15.622  10.529
22770W        W84059  15.198  26.541   4.213
22771W        W84060  40.833  32.985  11.493
22772W        W84061  25.540  13.285  13.938
22773W        W84062  40.938   1.312   0.802
22774W        W84063  12.723  12.664   3.368
22775W        W84064  30.639  21.108  14.945
22776W        W84065  39.422  12.119   1.451
22777W        W84066  38.971   6.732  14.397
22778W        W84067   3.875  34.386   2.693
22779W        W84068  23.604  18.660   3.816
22780W        W84069  29.655  39.809  13.878
22781W        W84070  12.843  43.348  10.488
22782W        W84071  39.537  11.226   4.180
22783W        W84072   0.432  10.378  12.413
22784W        W84073  23.128  16.264  10.511
22785W        W84074  15.636  15.157  11.463
22786W        W84075  10.741  34.425  12.928
22787W        W84076   6.852  12.148   1.358
22788W        W84077   5.303  33.423  13.848
22789W        W84078  22.024   1.753  12.577
22790W        W84079  27.589   6.783   5.696
22791W        W84080   4.838  16.595  11.426
22792W        W84081  40.494   1.402  10.632
22793W        W84082  35.377  29.129   2.359
22794W        W84083   0.940  43.879   4.754
22795W        W84084   5.899  26.145   1.348
22796W        W84085  15.694   4.854  13.364
22797W        W84086  37.909  11.693  11.512
22798W        W84087   3.220  15.237   3.641
22799W        W84088  12.844   4.797   3.836
22800W        W84089  11.848   7.763  12.875
22801W        W84090  19.200  40.545  11.004
22802W        W84091  11.178  34.970   3.775
22803W        W84092  31.919  13.810  14.883
22804W        W84093   9.777  32.434  14.515
22805W        W84094   7.298   0.340   1.396
22806W        W84095  24.487   5.688  14.326
22807W        W84096  32.960   4.804  12.011
22808W        W84097  19.103  29.939  13.525
22809W        W84098   5.305  31.555   1.398
22810W        W84099  42.825  24.480   3.731
22811W        W84100  32.429   9.662  10.982
22812W        W84101  12.262   5.807   2.364
22813W        W84102  34.993  17.640   4.185
22814W        W84103  12.823  28.046   2.687
22815W        W84104  11.218  26.663   3.691
22816W        W84105  12.173   7.204   2.827
22817W        W84106  34.376  16.166  12.387
22818W        W84107  25.467  32.963   0.441
22819W        W84108  15.703  32.616   0.427
22820W        W84109  29.957  39.386   0.334
22821W        W84110  12.268   5.706   1.422
22822W        W84111  40.473  40.503  11.094
22823W        W84112   8.730  28.661   2.810
22824W        W84113  33.519  30.076   1.306
22825W        W84114  24.485  13.677  10.602
22826W        W84115   7.794  10.138   2.285
22827W        W84116  13.784  28.467  11.930
22828W        W84117  38.471   3.908  10.613
22829W        W84118  26.629   4.809   5.217
22830W        W84119   2.882   8.814  13.410
22831W        W84120  22.129  26.508  14.328
22832W        W84121  15.609  14.189   4.829
22833W        W84122  35.002   7.701   3.244
22834W        W84123  36.021  17.743   4.615
22835W        W84124   5.410  17.189   1.864
22836W        W84125  28.597  22.227  13.050
22837W        W84126  42.961   6.233   5.194
22838W        W84127  26.998  44.503  12.473
22839W        W84128  37.525   8.217   4.694
22840W        W84129  36.401  40.959   0.379
22841W        W84130  33.021   5.693   2.836
22842W        W84131  34.606  19.542  14.898
22843W        W84132   5.333   7.369   2.387
22844W        W84133  13.244  23.686   2.862
22845W        W84134  28.965   1.300   0.805
22846W        W84135  19.156   8.835   2.897
22847W        W84136  26.531  22.659   1.274
22848W        W84137   9.203  13.161  11.487
22849W        W84138   4.768  34.601   1.326
22850W        W84139  14.216  24.170   2.215
22851W        W84140  27.592  10.823  14.025
22852W        W84141  14.767  29.590  10.995
22853W        W84142  10.705   3.449  14.324
22854W        W84143   5.801  23.138   3.816
22855W        W84144  41.844  34.069  11.004
22856W        W84145  16.593  39.325   3.685
22857W        W84146  26.953  42.454   0.435
22858W        W84147  32.443  36.931  12.393
22859W        W84148  33.939  44.474   4.677
22860W        W84149  39.544   4.757   3.870
22861W        W84150  32.006  19.178   1.742
22862W        W84151  40.531  30.600   1.812
22863W        W84152  14.701  40.934  12.537
22864W        W84153  13.626  28.653  13.891
22865W        W84154  38.425   7.802   0.304
22866W        W84155  18.269  12.250   2.683
22867W        W84156   2.782  19.172   4.796
22868W        W84157  16.090  34.394   1.907
22869W        W84158  27.649  34.025  12.037
22870W        W84159  14.144  25.172  10.944
22871W        W84160  27.192  15.598   2.676
22872W        W84161  19.542  32.913   4.629
22873W        W84162   9.329  32.086  10.896
22874W        W84163   3.942  36.582   1.410
22875W        W84164   3.408  37.051  12.954
22876W        W84165  38.480  35.880   3.729
22877W        W84166  38.475  29.136  13.372
22878W        W84167  27.584  12.807   0.762
22879W        W84168  36.519  43.330   0.938
22880W        W84169  27.048   1.442   3.208
22881W        W84170   9.750   2.758   0.887
22882W        W84171  32.391  12.190   2.804
22883W        W84172  29.958  20.100   2.793
22884W        W84173  28.598  16.566   2.318
22885W        W84174   6.780  26.161   3.634
22886W        W84175  10.345  44.298  13.797
22887W        W84176  16.116  23.216   0.764
22888W        W84177  18.093  19.762  13.996
22889W        W84178  13.219  18.597   1.241
22890W        W84179  38.970  25.499  12.863
22891W        W84180  16.156  39.809  14.480
22892W        W84181  39.477   5.197   4.778
22893W        W84182  21.592   7.905  14.998
22894W        W84183   3.740  44.804   3.760
22895W        W84184  14.634  44.986  11.513
22896W        W84185  24.018   8.330   4.794
22897W        W84186   0.779  27.550   0.799
22898W        W84187   8.333  21.115  10.900
22899W        W84188  44.807  42.381   0.374
22900W        W84189  44.979  25.164  14.761
22901W        W84190   4.942  17.801   4.128
22902W        W84191  22.589   2.253   3.349
22903W        W84192   8.407   9.331  10.581
22904W        W84193  17.605  41.835   3.796
22905W        W84194  11.142  41.307  11.387
22906W        W84195  44.300  31.104   0.253
22907W        W84196  13.152  24.527  12.841
22908W        W84197  20.547   9.175   2.826
22909W        W84198  26.181  41.370  10.950
22910W        W84199  10.825  28.592   1.426
22911W        W84200  17.269  22.189  11.535
22912W        W84201  23.507   0.358   2.661
22913W        W84202  37.999   0.261   2.251
22914W        W84203  37.980   4.281  14.508
22915W        W84204  36.883  41.912  13.032
22916W        W84205  26.587  15.628   1.788
22917W        W84206  32.041  26.579   4.354
22918W        W84207   9.772  22.543  11.995
22919W        W84208  34.991  37.081   3.841
22920W        W84209  13.721  25.054  12.417
22921W        W84210  44.461  25.503   2.758
22922W        W84211  25.564  29.628  12.902
22923W        W84212  43.398   6.815  12.349
22924W        W84213  26.606   1.369   1.403
22925W        W84214   3.379  33.007   2.210
22926W        W84215  39.406  24.231   2.186
22927W        W84216   6.381  39.883  11.568
22928W        W84217  34.965   2.804  10.491
22929W        W84218  39.334  35.973  12.551
22930W        W84219  10.236  22.660  10.994
22931W        W84220  26.652  12.222  10.989
22932W        W84221  39.497  32.136   4.815
22933W        W84222  32.055  25.712   4.687
22934W        W84223   5.860  35.054  12.034
22935W        W84224  31.613   0.889   0.481
22936W        W84225  27.025  31.416   1.773
22937W        W84226  36.858  39.474   3.312
22938W        W84227  41.478  26.574  13.351
22939W        W84228  33.441  29.488  12.545
22940W        W84229  19.215  25.520  11.987
22941W        W84230  21.243   9.763  13.364
22942W        W84231   9.182  43.980  13.037
22943W        W84232  29.125  28.642   1.842
22944W        W84233  10.833   0.758  13.816
22945W        W84234  12.338  27.948   4.697
22946W        W84235  12.828  21.239   5.570
22947W        W84236  18.252   1.301   1.878
22948W        W84237   0.409  26.509   3.730
22949W        W84238  17.574  23.551   9.975
22950W        W84239  21.142  41.788   4.839
22951W        W84240   5.699  14.220   0.760
22952W        W84241   8.347  26.572  14.288
22953W        W84242   6.715   5.275   2.383
22954W        W84243  44.489  19.651   1.309
22955W        W84244  20.247  35.079  11.991
22956W        W84245  42.420  13.764   0.870
22957W        W84246  12.170  44.298  12.826
22958W        W84247  12.295   5.907  11.380
22959W        W84248  19.716  37.927  10.583
22960W        W84249  31.031  34.009  12.970
22961W        W84250  31.013  18.197   2.311
22962W        W84251  13.205  28.624   3.306
22963W        W84252  25.627  15.596   2.312
22964W        W84253  33.432   5.337  11.977
22965W        W84254  10.229  34.013   1.253
22966W        W84255  39.981  26.048   2.338
22967W        W84256  26.154  27.942   4.659
22968W        W84257  22.747  27.172   0.366
22969W        W84258   2.409   6.190  12.429
22970W        W84259   9.824   0.360  10.133
22971W        W84260  31.414  25.140  12.548
22972W        W84261  26.018  22.519  12.566
22973W        W84262  10.717  35.601   9.938
22974W        W84263  27.624  28.471   1.438
22975W        W84264  27.105  14.228  10.545
22976W        W84265  41.879  24.188  13.530
22977W        W84266  28.994  39.031   0.261
22978W        W84267  21.625  40.508  13.350
22979W        W84268   1.892  31.896   0.456
22980W        W84269  34.072  28.104  14.967
22981W        W84270  21.051  15.285  11.387
22982W        W84271   9.807  25.162  14.292
22983W        W84272  29.991  29.159  12.507
22984W        W84273  39.484  26.585  10.454
22985W        W84274   7.312  10.321  13.060
22986W        W84275  31.123  10.776  11.035
22987W        W84276  37.897  34.576   3.215
22988W        W84277  31.598  27.671   0.468
22989W        W84278  15.681  39.818   4.324
22990W        W84279   5.204  36.528  13.478
22991W        W84280  17.123  24.490  12.077
22992W        W84281   6.330   7.345   0.349
22993W        W84282  16.216   8.770   0.434
22994W        W84283  22.228  35.919   4.607
22995W        W84284   4.900  12.702   3.330
22996W        W84285  11.836  13.692   3.255
22997W        W84286  34.415  10.675   0.318
22998W        W84287  27.016  41.508  12.858
22999W        W84288  21.687  24.639   1.349
23000W        W84289  21.072  25.996   2.779
23001W        W84290   0.291  12.167   4.119
23002W        W84291  28.040   9.157   0.475
23003W        W84292  20.709   6.337   0.855
23004W        W84293  34.009  37.538  11.957
23005W        W84294   6.334  43.818   4.646
23006W        W84295   0.888  38.866  14.005
23007W        W84296  11.179  33.403  12.913
23008W        W84297  37.065  37.484  14.816
23009W        W84298  44.460  42.914  11.524
23010W        W84299  26.199  32.908  10.628
23011W        W84300  21.603  27.073  14.433
23012W        W84301  22.558  42.974   3.800
23013W        W84302  20.119  42.326  13.495
23014W        W84303  13.150  11.250  11.586
23015W        W84304  26.530  12.316  14.881
23016W        W84305  32.420   8.823  12.349
23017W        W84306   2.817  36.046  14.878
23018W        W84307  34.392  23.494   3.772
23019W        W84308  33.956  37.887  13.310
23020W        W84309  40.520  20.623   5.127
23021W        W84310  27.534  32.401  10.599
23022W        W84311  29.473  27.484  13.471
23023W        W84312  26.965  20.038   3.769
23024W        W84313   5.385  20.122   1.708
23025W        W84314  41.473  19.122  13.435
23026W        W84315  33.493  42.525   0.961
23027W        W84316  25.986  13.167  11.013
23028W        W84317  17.797  25.048   2.351
23029W        W84318  37.548  25.622  11.095
23030W        W84319  20.675  19.728   4.161
23031W        W84320  14.604  22.616  10.462
23032W        W84321  15.769  14.607   0.273
23033W        W84322   0.488  16.234  11.080
23034W        W84323   7.244  28.000   0.465
23035W        W84324  39.037  40.481  11.468
23036W        W84325  40.890  10.693   2.903
23037W        W84326  42.377  30.107   3.737
23038W        W84327  13.300  23.556  12.403
23039W        W84328  16.259  17.678   1.762
23040W        W84329  19.133  42.891  14.492
23041W        W84330  36.461  35.977   1.318
23042W        W84331  41.797   5.240   2.395
23043W        W84332  27.963  32.100   4.220
23044W        W84333  21.576   1.809   5.189
23045W        W84334   4.883   2.410  11.960
23046W        W84335  19.103  25.568   1.281
23047W        W84336  39.316  35.505  10.909
23048W        W84337  13.198  19.693   4.334
23049W        W84338   8.857  23.709   3.711
23050W        W84339   1.833   2.954  13.908
23051W        W84340  17.180  31.409  12.856
23052W        W84341  32.477  38.339   1.799
23053W        W84342   1.413  37.395  10.492
23054W        W84343  32.391  17.298  12.474
23055W        W84344   1.828  13.153   1.427
23056W        W84345  21.680   4.349  13.927
23057W        W84346  10.702  43.312  12.966
23058W        W84347  19.196  28.552   3.226
23059W        W84348  44.284  29.616  14.952
23060W        W84349  28.544  42.501  10.962
23061W        W84350   2.890  28.637   0.839
23062W        W84351  36.413  42.396  11.548
23063W        W84352   7.223  14.631  11.128
23064W        W84353  44.495  11.214   1.697
23065W        W84354  14.163   8.199  10.902
23066W        W84355  32.991  31.424  12.051
23067W        W84356  16.681  29.053   3.239
23068W        W84357  12.131   9.176  14.806
23069W        W84358  24.063  43.477  12.905
23070W        W84359  41.297  21.122   1.777
23071W        W84360  11.291  19.056   1.770
23072W        W84361   7.393  35.494   3.316
23073W        W84362  34.473  25.669  12.570
23074W        W84363  15.740  23.050  11.492
23075W        W84364  20.651  12.126  10.497
23076W        W84365   7.828   7.725  12.435
23077W        W84366  37.496   3.413   2.730
23078W        W84367  38.027  11.144  11.403
23079W        W84368  32.432  34.444  14.387
23080W        W84369   1.928   9.674  12.465
23081W        W84370  36.420  24.720  14.483
23082W        W84371   1.914  35.400  14.823
23083W        W84372   5.859  31.566   0.256
23084W        W84373  19.632  27.653   1.830
23085W        W84374  44.496   4.328  12.459
23086W        W84375   1.936  14.165   2.352
23087W        W84376  27.028   2.228  11.470
23088W        W84377  27.149  32.927   2.195
23089W        W84378  16.682  12.831  13.458
23090W        W84379   3.769  27.100   0.454
23091W        W84380  15.794  22.524   2.835
23092W        W84381  30.479  26.143  13.928
23093W        W84382  15.583   1.758   3.320
23094W        W84383  25.036  31.517   4.277
23095W        W84384  35.077  12.300  11.398
23096W        W84385  14.242  26.986   3.233
23097W        W84386   7.899  25.203  13.821
23098W        W84387   5.255  19.620  14.825
23099W        W84388   5.346  38.052  14.760
23100W        W84389  13.170  30.542  10.978
23101W        W84390  20.719   3.723  14.367
23102W        W84391  17.139  10.879  11.500
23103W        W84392   7.229  34.371  11.018
23104W        W84393  41.998  19.571  12.011
23105W        W84394  33.452   3.300  12.492
23106W        W84395  18.693  39.833   2.385
23107W        W84396  17.138  25.519  13.990
23108W        W84397   9.780  17.684  12.412
23109W        W84398  35.468   1.358   1.374
23110W        W84399  14.620  28.579  12.552
23111W        W84400   4.246  43.284   4.222
23112W        W84401  36.920  19.081   0.438
23113W        W84402  18.646  37.565  13.042
23114W        W84403  10.187  22.654   4.715
23115W        W84404  22.719  10.189  10.463
23116W        W84405  23.101   2.860  12.425
23117W        W84406   8.760   7.714  12.366
23118W        W84407   8.207  30.587   3.288
23119W        W84408  33.909  43.785   1.732
23120W        W84409  20.666  16.808  14.899
23121W        W84410  34.500  24.543  12.881
23122W        W84411  16.802  11.198  12.039
23123W        W84412   4.767  36.009   1.298
23124W        W84413  27.123  44.994  14.852
23125W        W84414  35.909  11.747  12.866
23126W        W84415  22.006   9.882   1.250
23127W        W84416  21.529  24.580  10.513
23128W        W84417  42.003  43.383  13.928
23129W        W84418  41.929  12.280  12.485
23130W        W84419   8.771  13.306   1.371
23131W        W84420  35.497   0.869  14.471
23132W        W84421  12.134   7.846   0.727
23133W        W84422  34.441   9.730   4.274
23134W        W84423   3.368   5.263   0.819
23135W        W84424   9.295  31.138  13.021
23136W        W84425  20.210  15.293   1.313
23137W        W84426   0.890   1.379   0.826
23138W        W84427  38.904  31.564   0.777
23139W        W84428   4.784  44.429  13.523
23140W        W84429  29.513  35.444  10.522
23141W        W84430   4.738  43.460   2.251
23142W        W84431   0.751   9.869  12.907
23143W        W84432  23.560  31.098  10.541
23144W        W84433  13.105  34.022  10.438
23145W        W84434  41.396  17.580   2.722
23146W        W84435  18.167   3.453  11.891
23147W        W84436   3.925  23.192  11.576
23148W        W84437  11.159  25.010   0.342
23149W        W84438  10.699  20.168  11.085
23150W        W84439  18.556   1.353  14.014
23151W        W84440  10.251   0.375  14.404
23152W        W84441  44.783  14.629   2.799
23153W        W84442  37.990  37.862  14.784
23154W        W84443  28.095  21.634  12.919
23155W        W84444  13.289  16.165  12.034
23156W        W84445  41.824  18.099   4.753
23157W        W84446   8.889  30.442   2.763
23158W        W84447  25.044  24.585   4.661
23159W        W84448  34.467   4.877  13.028
23160W        W84449  18.650  33.584  10.637
23161W        W84450  42.993  43.009  10.421
23162W        W84451  26.502  29.029   4.188
23163W        W84452  18.698  26.487  13.384
23164W        W84453  36.888  25.540   3.240
23165W        W84454  14.316  14.814   1.921
23166W        W84455  32.958  35.981   3.204
23167W        W84456  31.151  12.161  12.827
23168W        W84457  27.157  42.944   0.257
23169W        W84458  13.310   2.806   2.815
23170W        W84459   4.390  33.901  14.329
23171W        W84460  39.920   2.296   2.800
23172W        W84461  21.115  28.068   5.250
23173W        W84462  35.549  31.957  11.966
23174W        W84463   1.892   9.716  11.003
23175W        W84464  35.911  31.907  14.288
23176W        W84465  44.482  28.530   0.834
23177W        W84466   3.866  32.944   0.307
23178W        W84467   7.782  36.022  10.080
23179W        W84468  44.007   3.332  10.908
23180W        W84469  24.644  39.472  10.525
23181W        W84470   1.765  27.565   3.262
23182W        W84471   7.390  31.941   5.273
23183W        W84472  15.237  41.491  11.047
23184W        W84473   2.922  44.912  10.595
23185W        W84474  29.524  15.752   2.321
23186W        W84475  36.502  38.943  13.366
23187W        W84476  38.400  32.492   0.750
23188W        W84477  31.020  17.562   3.347
23189W        W84478  12.793  12.177   1.217
23190W        W84479  26.196  16.709   3.689
23191W        W84480   6.897   6.315   2.345
23192W        W84481  34.555   1.787   3.713
23193W        W84482  15.643  33.899  13.397
23194W        W84483  41.812  39.823  10.953
23195W        W84484   4.209  21.110   3.792
23196W        W84485  22.681  25.686  11.876
23197W        W84486   9.784  18.172  10.569
23198W        W84487   2.765  31.554   2.272
23199W        W84488  28.966   1.753  12.952
23200W        W84489  15.108  13.835   3.373
23201W        W84490  38.945   4.809  12.823
23202W        W84491  30.915   2.262  14.485
23203W        W84492  11.864  14.259  13.417
23204W        W84493  23.225   0.484  14.878
23205W        W84494  26.543  42.322  10.900
23206W        W84495  24.017  16.718   1.915
23207W        W84496  42.819   0.346  13.348
23208W        W84497  31.424   7.709   2.882
23209W        W84498  10.292  27.034  12.467
23210W        W84499  22.633  18.052   2.289
23211W        W84500  30.950  24.015   0.766
23212W        W84501  39.947  36.871  14.278
23213W        W84502  38.495  27.159   2.216
23214W        W84503  11.851   2.227   2.187
23215W        W84504   1.304  43.306  14.483
23216W        W84505  39.471  34.425  11.514
23217W        W84506  26.192  15.736   4.805
23218W        W84507  32.083   0.975  13.382
23219W        W84508  35.072  15.793  11.441
23220W        W84509  37.535   8.337  11.558
23221W        W84510  28.561   8.686   3.306
23222W        W84511  15.799   3.431   5.152
23223W        W84512  23.060  20.529   4.143
23224W        W84513  15.220  35.073   0.829
23225W        W84514  35.091   8.658  12.466
23226W        W84515  28.151  23.045   1.855
23227W        W84516  19.689  43.311  11.975
23228W        W84517  22.998  18.286  13.977
23229W        W84518  12.688  22.714   2.708
23230W        W84519  30.551  36.346  13.434
23231W        W84520  27.597  37.994  13.956
23232W        W84521   0.256  28.496   2.802
23233W        W84522  26.167  13.806   3.168
23234W        W84523  42.979  26.545   2.218
23235W        W84524  33.418  17.691   3.834
23236W        W84525  31.927  39.964  12.094
23237W        W84526  30.447  12.645  14.810
23238W        W84527  41.347  26.503   3.201
23239W        W84528  29.432  24.487   4.139
23240W        W84529  25.114  42.008   0.371
23241W        W84530  29.996  36.875  11.071
23242W        W84531   8.871  23.562   3.196
23243W        W84532  24.075   8.316  12.915
23244W        W84533   3.222   7.858  11.506
23245W        W84534   2.439  13.241  14.483
23246W        W84535  33.529  22.544  12.502
23247W        W84536  18.271  23.006  14.826
23248W        W84537  34.384  34.480  12.860
23249W        W84538  29.027   9.223   1.811
23250W        W84539  44.321   0.899   3.712
23251W        W84540  30.097  24.564  14.446
23252W        W84541  38.527  44.941  10.497
23253W        W84542  44.441  12.810  14.945
23254W        W84543  38.401  39.817   1.416
23255W        W84544  18.055  20.654   4.687
23256W        W84545  26.678  20.236  10.430
23257W        W84546  26.585  21.735  14.446
23258W        W84547  33.951   0.748  10.451
23259W        W84548  27.619  41.383  12.534
23260W        W84549  17.775  19.068  11.584
23261W        W84550  41.846   6.282   0.327
23262W        W84551  22.518   4.217  12.578
23263W        W84552   6.777  28.960   0.915
23264W        W84553  38.882   7.325   3.642
23265W        W84554   0.830  11.649   9.954
23266W        W84555  23.717  29.551   3.316
23267W        W84556  42.786  42.405   2.834
23268W        W84557  39.012  11.656   1.294
23269W        W84558   8.804  18.143  14.452
23270W        W84559  36.040  12.619  14.284
23271W        W84560  30.088  38.488  10.635
23272W        W84561  11.700  21.607   3.378
23273W        W84562   5.239   9.373  11.875
23274W        W84563  38.455  23.195   1.911
23275W        W84564  17.202  24.197   0.832
23276W        W84565  44.389  27.120   2.737
23277W        W84566  14.783   2.300   0.911
23278W        W84567   3.883  27.567  14.028
23279W        W84568  23.687  42.906  11.083
23280W        W84569  27.680   6.717   2.316
23281W        W84570  13.248   4.896   2.664
23282W        W84571  34.021   7.797   1.738
23283W        W84572  32.399  28.465  14.283
23284W        W84573   8.711  33.623   2.278
23285W        W84574   8.731   4.798   3.731
23286W        W84575  26.088   9.207  14.290
23287W        W84576  39.917  11.200   1.358
23288W        W84577   5.234  13.624   3.198
23289W        W84578  25.561  25.984   3.829
23290W        W84579  44.883  40.907   4.686
23291W        W84580  31.559   4.900  13.386
23292W        W84581  12.637  10.638   1.783
23293W        W84582  22.587  14.220  12.059
23294W        W84583  23.089  18.181  14.391
23295W        W84584  41.393   7.351  13.370
23296W        W84585  27.957  12.700   3.160
23297W        W84586   1.861  34.021   4.809
23298W        W84587  19.067  16.178   4.192
23299W        W84588  43.413   7.833   3.232
23300W        W84589  34.531  12.816   2.183
23301W        W84590   8.871  15.128   2.333
23302W        W84591  18.185  30.996   0.922
23303W        W84592   5.753  20.046   2.309
23304W        W84593  36.377   1.756   3.653
23305W        W84594   0.922  24.181  14.444
23306W        W84595  44.314  19.603  14.874
23307W        W84596  39.417  17.688   3.304
23308W        W84597  22.573  17.702  14.293
23309W        W84598  15.736  13.760  13.836
23310W        W84599  19.221  36.459   3.150
23311W        W84600  31.924  23.659  13.483
23312W        W84601  34.613  23.021  14.296
23313W        W84602  20.602  13.298  11.023
23314W        W84603  31.415  44.497  10.634
23315W        W84604  39.845  44.886  14.497
23316W        W84605  18.711  11.184  10.902
23317W        W84606  41.479  19.168   2.286
23318W        W84607   1.819  31.464  13.825
23319W        W84608  44.962   2.868  14.355
23320W        W84609  12.656  30.106   0.844
23321W        W84610  13.638  20.575   1.418
23322W        W84611  26.067  20.591   3.303
23323W        W84612  39.008  16.739   2.664
23324W        W84613  26.118  27.983  14.922
23325W        W84614  21.068  22.527   2.712
23326W        W84615  22.046  32.391   4.229
23327W        W84616  16.228  25.000  11.920
23328W        W84617  21.587  33.012   2.720
23329W        W84618  36.906  41.456   4.169
23330W        W84619   8.196  24.656  11.983
23331W        W84620  38.984  41.429  12.470
23332W        W84621   1.894  15.741   1.789
23333W        W84622  15.715  10.635   2.723
23334W        W84623  19.169  37.556  11.077
23335W        W84624  41.793  20.049  13.434
23336W        W84625  17.650  44.344   1.885
23337W        W84626  20.689  10.361  14.492
23338W        W84627   1.810  12.285  11.381
23339W        W84628  13.737   8.871   3.800
23340W        W84629  44.888  25.496   3.316
23341W        W84630  27.491  28.560  11.401
23342W        W84631  22.588  21.229  11.051
23343W        W84632  22.623  19.543   1.332
23344W        W84633   6.695   3.327  14.442
23345W        W84634  25.584  26.512  12.491
23346W        W84635  42.950  13.711   1.880
23347W        W84636  15.745   5.805  11.460
23348W        W84637  24.520  27.656   1.342
23349W        W84638  38.492  24.642  12.945
23350W        W84639   2.731   8.742   1.868
23351W        W84640  37.891   6.720   4.738
23352W        W84641  11.198  23.985  11.937
23353W        W84642  18.221  38.861  13.928
23354W        W84643  12.270  42.324   3.841
23355W        W84644  42.469  23.518  11.471
23356W        W84645  26.584   4.320   0.957
23357W        W84646   1.791  28.937   2.737
23358W        W84647   1.365  43.883  14.463
23359W        W84648  32.486   0.480  14.826
23360W        W84649  10.855  27.459  12.918
23361W        W84650   7.217  38.439  12.827
23362W        W84651  11.853   6.701   2.878
23363W        W84652   7.179  34.929  14.352
23364W        W84653  32.089  40.962  11.878
23365W        W84654  11.205  16.776  12.489
23366W        W84655  22.521  42.984  12.078
23367W        W84656  12.620  43.432  12.906
23368W        W84657  43.418  16.103  14.777
23369W        W84658  11.623   2.863   5.638
23370W        W84659  30.420  31.930   2.662
23371W        W84660  38.394  19.136  12.005
23372W        W84661   3.916  43.800   3.250
23373W        W84662   4.222   1.838  14.789
23374W        W84663   1.325  36.059  14.311
23375W        W84664  26.148   1.916  14.301
23376W        W84665   2.938  27.023   0.411
23377W        W84666  26.603  24.485  11.003
23378W        W84667  22.617  20.653   3.288
23379W        W84668  25.612   4.392  11.577
23380W        W84669  32.405  11.780  14.980
23381W        W84670   0.781   1.886   0.325
23382W        W84671  43.008  33.558   2.773
23383W        W84672  36.474   7.856   4.272
23384W        W84673  42.789   5.893   2.305
23385W        W84674   3.889  24.192  12.924
23386W        W84675  16.144  11.749  12.473
23387W        W84676  17.223   0.957   2.340
23388W        W84677  27.553  35.568  14.275
23389W        W84678  40.819   3.886  14.024
23390W        W84679   0.821  22.537  12.346
23391W        W84680  37.466  37.967  11.072
23392W        W84681  39.940  32.584   2.319
23393W        W84682  33.422  13.249   3.721
23394W        W84683  44.323  20.645  12.861
23395W        W84684  42.339   4.880  11.557
23396W        W84685  17.760  23.187   3.692
23397W        W84686   5.439  41.949  12.070
23398W        W84687  43.501  14.255  11.607
23399W        W84688  39.943  24.078   0.425
23400W        W84689   0.816   4.374  14.351
23401W        W84690  13.203   3.350  12.842
23402W        W84691   3.246  40.385  10.438
23403W        W84692  11.659  34.597  14.857
23404W        W84693   3.255   5.424  11.015
23405W        W84694  24.514  33.611   4.153
23406W        W84695  19.556   6.712  11.875
23407W        W84696  32.633  27.049   2.256
23408W        W84697   8.765  34.434  12.451
23409W        W84698  26.534  41.313  11.109
23410W        W84699  41.499  35.522  14.455
23411W        W84700  38.058   3.781   2.762
23412W        W84701   7.835  40.395  11.539
23413W        W84702   7.670   5.900   1.899
23414W        W84703   0.756   7.229  12.982
23415W        W84704  44.949  39.454   4.204
23416W        W84705  11.666  18.589   2.686
23417W        W84706  11.203   1.768   3.217
23418W        W84707  41.473  44.006   2.242
23419W        W84708  25.197  18.285   1.398
23420W        W84709  13.606   5.283   3.664
23421W        W84710  14.804  20.664  13.536
23422W        W84711  27.671   6.695  11.451
23423W        W84712   8.389   7.223   0.247
23424W        W84713  32.964  20.661   3.766
23425W        W84714  15.290  42.915   4.212
23426W        W84715  34.465  19.096  14.934
23427W        W84716  33.617  32.891  12.843
23428W        W84717  16.200   4.296  11.016
23429W        W84718   1.876  18.135  10.439
23430W        W84719  19.739  13.275  10.612
23431W        W84720  31.004  35.368  14.407
23432W        W84721  25.198   5.820   2.183
23433W        W84722  35.494  24.483  12.864
23434W        W84723  26.474  16.239   4.823
23435W        W84724   8.879   5.744  11.023
23436W        W84725  19.145  42.461   1.922
23437W        W84726  14.809  26.974  12.444
23438W        W84727  40.945   1.820   4.723
23439W        W84728  24.185  39.896   1.290
23440W        W84729   8.760   0.313   5.681
23441W        W84730  25.478  28.119  13.458
23442W        W84731  42.902  36.927   4.288
23443W        W84732   6.719   5.417   0.938
23444W        W84733  31.911  19.059   2.337
23445W        W84734  24.107  25.613   3.659
23446W        W84735   0.955  15.108   0.426
23447W        W84736  18.730  41.366   5.105
23448W        W84737  23.041   4.297  13.842
23449W        W84738  23.234   9.785  10.483
23450W        W84739  41.312  41.325  10.465
23451W        W84740  19.622   5.789  10.556
23452W        W84741   4.403  23.145   4.305
23453W        W84742  14.761  25.497   2.291
23454W        W84743  14.715  24.530  13.898
23455W        W84744  37.063  26.534  14.997
23456W        W84745  17.307  41.822   3.713
23457W        W84746  29.562   1.404  10.481
23458W        W84747  42.510  22.051  13.385
23459W        W84748   4.307   4.939  11.526
23460W        W84749  36.451  31.074   0.812
23461W        W84750  31.153   1.902  13.972
23462W        W84751   6.323   7.216  11.899
23463W        W84752  13.248   9.191   4.830
23464W        W84753   7.298  22.064   0.316
23465W        W84754  18.615   5.850   2.381
23466W        W84755  10.290  23.720   1.911
23467W        W84756   8.327   9.707   2.287
23468W        W84757  39.324  15.617  13.452
23469W        W84758   5.257  34.061  13.955
23470W        W84759   5.364  19.738  13.059
23471W        W84760  38.957  26.190  12.362
23472W        W84761  40.026  23.636   2.788
23473W        W84762  26.031   7.252  13.527
23474W        W84763  17.214  30.111  11.922
23475W        W84764  22.239  22.678   5.121
23476W        W84765  38.378  19.745   2.195
23477W        W84766   6.248  32.617   1.440
23478W        W84767   0.789   9.776   2.802
23479W        W84768  35.063  34.477   4.277
23480W        W84769  36.443  11.814   0.828
23481W        W84770  14.327  19.152   4.320
23482W        W84771   8.272  35.864  14.835
23483W        W84772  44.429   8.754  13.396
23484W        W84773   0.804   2.939  10.568
23485W        W84774  18.110   2.792  10.594
23486W        W84775   7.353  23.165   4.147
23487W        W84776  43.890  31.095  12.479
23488W        W84777  27.522  14.701  12.078
23489W        W84778  11.634  28.471  13.836
23490W        W84779  37.033  39.322   1.865
23491W        W84780  33.993   6.790  11.550
23492W        W84781  30.116   0.467  11.112
23493W        W84782  38.838  41.350   4.150
23494W        W84783   4.866   8.771  12.379
23495W        W84784  44.966  27.622   0.851
23496W        W84785   5.393  43.295  12.940
23497W        W84786  15.635   8.772   3.373
23498W        W84787  26.003  21.046   3.807
23499W        W84788  38.022  34.516  12.580
23500W        W84789  13.301  42.927  13.000
23501W        W84790   0.887  13.335  10.536
23502W        W84791   7.912   6.244   4.169
23503W        W84792  13.122   5.810  13.819
23504W        W84793  32.460   9.686   1.340
23505W        W84794  19.181   2.359   1.716
23506W        W84795  42.936  44.789  12.432
23507W        W84796   8.331  33.064  11.506
23508W        W84797  39.474  38.894  10.591
23509W        W84798  11.696  19.548  11.127
23510W        W84799  26.680   3.224  11.568
23511W        W84800  11.781  33.624  12.398
23512W        W84801   9.864   5.740   1.849
23513W        W84802  13.245  31.537   2.298
23514W        W84803  30.918  41.362   1.748
23515W        W84804   5.895  43.976  13.907
23516W        W84805   4.336   1.754  13.486
23517W        W84806  28.680   0.393   3.167
23518W        W84807  21.675  19.208  13.933
23519W        W84808  33.126   1.804  14.861
23520W        W84809  37.385  36.381   2.774
23521W        W84810  16.687  10.230   2.849
23522W        W84811   7.227  26.554   4.648
23523W        W84812  27.198  38.072  11.477
23524W        W84813  35.009  29.035  12.921
23525W        W84814  37.067  27.070  12.016
23526W        W84815   5.808   9.667   3.655
23527W        W84816   6.334  26.145  13.807
23528W        W84817   9.830  21.255   3.752
23529W        W84818  30.116  39.915  11.489
23530W        W84819  20.755   9.736   1.866
23531W        W84820  10.781  36.471  13.452
23532W        W84821  41.890  40.444   3.185
23533W        W84822  23.733  27.581  10.594
23534W        W84823  15.698  23.138  13.799
23535W        W84824  10.810   7.871   2.732
23536W        W84825  26.066  28.016  10.584
23537W        W84826  43.939  19.598  12.531
23538W        W84827  14.322  41.023   4.758
23539W        W84828  33.585  43.366   4.778
23540W        W84829  33.432  39.013   2.400
23541W        W84830  27.449   1.464  10.408
23542W        W84831   3.362  36.440  10.922
23543W        W84832  43.444  25.496   1.806
23544W        W84833   5.425   6.318   1.442
23545W        W84834  34.549  42.904  10.552
23546W        W84835   0.438  19.728   3.175
23547W        W84836  12.343  24.163  12.080
23548W        W84837  41.831  22.136  14.435
23549W        W84838   5.327  42.357   3.715
23550W        W84839   5.422   9.273  14.936
23551W        W84840  36.453  43.007  10.905
23552W        W84841  36.365  38.334   4.182
23553W        W84842  31.083  11.727  10.951
23554W        W84843  36.007  10.174  11.897
23555W        W84844  21.230  27.118   3.368
23556W        W84845   0.326  13.338   1.213
23557W        W84846   7.843   1.350   4.235
23558W        W84847  11.790  38.826   2.256
23559W        W84848  23.541  34.606  12.939
23560W        W84849  36.016  38.847   2.704
23561W        W84850  12.740  40.826   4.747
23562W        W84851  19.580  15.687  14.441
23563W        W84852  44.994   9.219   3.179
23564W        W84853   2.868   5.918   1.818
23565W        W84854  26.170   7.852  11.406
23566W        W84855   7.895  11.193  12.865
23567W        W84856  26.565  34.485   5.234
23568W        W84857  40.317  12.749   2.292
23569W        W84858  25.988  26.534   4.156
23570W        W84859   2.836  17.162  11.372
23571W        W84860  23.539  27.977   0.914
23572W        W84861  34.897  21.157  12.075
23573W        W84862  41.038  24.487   0.808
23574W        W84863  35.420  10.723  11.546
23575W        W84864  27.552  41.526   2.253
23576W        W84865   4.300  41.392  13.404
23577W        W84866  35.992  36.562  11.024
23578W        W84867  17.136  22.088  14.460
23579W        W84868   4.864  25.510  14.933
23580W        W84869  32.986  19.761   4.744
23581W        W84870  17.280  29.663   3.326
23582W        W84871  36.413  35.498  14.847
23583W        W84872  43.976  27.979  13.962
23584W        W84873  39.448   0.768  13.453
23585W        W84874  41.834  40.428   2.360
23586W        W84875  19.666  25.996   1.229
23587W        W84876   6.249  40.883  13.956
23588W        W84877  20.524  14.176  11.481
23589W        W84878  17.224  22.159   0.384
23590W        W84879  17.230  33.621   0.480
23591W        W84880   7.321   3.826   1.735
23592W        W84881   6.813  40.947  12.974
23593W        W84882  13.311  27.067   1.698
23594W        W84883  33.414  27.022  13.330
23595W        W84884  36.523  21.691   1.917
23596W        W84885  34.033  24.697  12.021
23597W        W84886  22.506  30.974   1.924
23598W        W84887  18.691   5.424  11.033
23599W        W84888  16.630  39.503  13.932
23600W        W84889   2.347  43.354   0.778
23601W        W84890  33.447   9.218  13.042
23602W        W84891  17.274  34.888  10.420
23603W        W84892   3.296  15.796   5.291
23604W        W84893  41.799  13.351   3.307
23605W        W84894   9.821  12.774  14.979
23606W        W84895  11.365  21.057   3.763
23607W        W84896  17.243   7.683   4.706
23608W        W84897  12.673  12.679   0.377
23609W        W84898  42.775  43.883   2.179
23610W        W84899  29.142  16.729  14.452
23611W        W84900  44.358  31.053   1.368
23612W        W84901  16.274  43.448   1.747
23613W        W84902  37.881  42.346   2.877
23614W        W84903  23.004  27.038  11.005
23615W        W84904  15.160  32.060  13.021
23616W        W84905  31.491  20.668   3.854
23617W        W84906  43.449   5.197   2.256
23618W        W84907  12.224   3.737   3.260
23619W        W84908   5.412  42.971  14.906
23620W        W84909  37.469  34.575   1.311
23621W        W84910  16.250  27.575   1.924
23622W        W84911  43.936  31.946  11.561
23623W        W84912  18.635  12.671   3.636
23624W        W84913  22.034  35.559  10.589
23625W        W84914  16.575  30.615   1.865
23626W        W84915   7.254  15.096  14.866
23627W        W84916  42.322  31.562  12.962
23628W        W84917  25.114  44.357  13.954
23629W        W84918  16.753  13.316  12.846
23630W        W84919  30.524  19.051   3.844
23631W        W84920   7.239  25.596   2.264
23632W        W84921  43.020   3.217   0.263
23633W        W84922  10.384  26.081   1.248
23634W        W84923  14.119   5.350  14.967
23635W        W84924  27.092  33.545  11.924
23636W        W84925  32.969  40.395  11.915
23637W        W84926  24.076   7.787  11.864
23638W        W84927  38.940  37.541  14.275
23639W        W84928  13.143  38.409  14.356
23640W        W84929  42.989  26.082  14.381
23641W        W84930  18.211  24.496  13.830
23642W        W84931  18.778  38.868  11.463
23643W        W84932   2.948  38.459   1.873
23644W        W84933   9.297  32.975   2.758
23645W        W84934  44.774  10.209   0.253
23646W        W84935  28.660  42.857   2.244
23647W        W84936  15.597  20.173  10.597
23648W        W84937  14.627  13.195  12.989
23649W        W84938  39.933   2.261  10.516
23650W        W84939  25.159  35.602   4.220
23651W        W84940  34.426  12.252  12.096
23652W        W84941  19.540  26.028   0.473
23653W        W84942  31.980  30.480   4.603
23654W        W84943  44.426  40.806  13.839
23655W        W84944  24.481  35.999  13.801
23656W        W84945  38.065  14.229  13.980
23657W        W84946  23.216  29.001   1.741
23658W        W84947   7.370  10.161   4.687
23659W        W84948  16.707   5.257  14.368
23660W        W84949  26.661  32.611   4.747
23661W        W84950  44.010   9.754  13.329
23662W        W84951  20.130  40.486  10.539
23663W        W84952  24.191   6.411  13.858
23664W        W84953  42.886   2.758   1.813
23665W        W84954   9.233  32.504   0.272
23666W        W84955  16.296  25.011  13.975
23667W        W84956   9.691  26.543   4.234
23668W        W84957   0.974  15.685  13.003
23669W        W84958  40.351   4.757  14.762
23670W        W84959  17.268  40.435  14.275
23671W        W84960  17.755  40.940   4.766
23672W        W84961   9.777  31.916  14.401
23673W        W84962   6.206  36.870   4.816
23674W        W84963  32.894  21.229  11.962
23675W        W84964  19.114  28.470   4.602
23676W        W84965  44.410  25.970   3.741
23677W        W84966  17.140  30.937   0.835
23678W        W84967  31.619  19.125  10.611
23679W        W84968   1.398  39.845  11.006
23680W        W84969   5.776  20.605   1.233
23681W        W84970  11.745  10.736   4.284
23682W        W84971  13.687  16.804   3.299
23683W        W84972  23.682   2.387  13.337
23684W        W84973  31.028  30.910   3.294
23685W        W84974  40.850   6.358   3.798
23686W        W84975  31.092   5.281  11.005
23687W        W84976  10.804  11.712   2.831
23688W        W84977  44.433  36.002  11.562
23689W        W84978  29.107  19.045  10.432
23690W        W84979  22.639  27.072   3.776
23691W        W84980  41.791  21.643   1.934
23692W        W84981  26.043  12.833  11.079
23693W        W84982  37.040   8.402  14.916
23694W        W84983  36.943  29.023   3.299
23695W        W84984  37.063  29.064  13.360
23696W        W84985  33.518  26.558   4.737
23697W        W84986   2.415   6.203   1.733
23698W        W84987   7.867  27.947   4.752
23699W        W84988  36.853   4.274  11.069
23700W        W84989  17.096  40.039  11.938
23701W        W84990  32.424  22.657  12.520
23702W        W84991  23.638  17.659  13.976
23703W        W84992  37.346  43.905   2.392
23704W        W84993  43.401  12.775  13.541
23705W        W84994   2.446  37.889   0.365
23706W        W84995  11.809  44.404   4.804
23707W        W84996  23.623   4.858  13.415
23708W        W84997  29.669  39.819  11.536
23709W        W84998   2.885   8.281  10.453
23710W        W84999  17.147  27.555   4.811
23711W        W85000  31.618   9.699  13.949
23712W        W85001  15.226  11.838  14.958
23713W        W85002   4.839  13.166   4.822
23714W        W85003  27.153  22.109  13.434
23715W        W85004  28.514  43.319   0.820
23716W        W85005   5.741   7.324   4.829
23717W        W85006   2.921   4.788   0.348
23718W        W85007  30.018   2.898   3.300
23719W        W85008  39.451   6.306   4.688
23720W        W85009  33.982  15.166  12.520
23721W        W85010  13.609  18.162   0.339
23722W        W85011  10.877   4.285  12.375
23723W        W85012   4.297  11.348   4.155
23724W        W85013  13.607  23.535  11.462
23725W        W85014   6.774  28.519  13.802
23726W        W85015  44.768   4.700  14.398
23727W        W85016   7.215  13.114  12.580
23728W        W85017   1.320  24.067   3.208
23729W        W85018  11.681  35.490  12.390
23730W        W85019   7.259  23.576   3.374
23731W        W85020  25.634  26.517   1.710
23732W        W85021  35.527  18.560  10.581
23733W        W85022  42.777  41.403  11.933
23734W        W85023  10.170   1.809   4.831
23735W        W85024  22.158   9.816  11.438
23736W        W85025   8.300  20.529  13.547
23737W        W85026  29.918  25.160   0.886
23738W        W85027  41.483   0.942   2.672
23739W        W85028  19.662  11.863  12.838
23740W        W85029  40.450  17.213   3.695
23741W        W85030  25.202   1.918  13.900
23742W        W85031  29.974   9.149   4.328
23743W        W85032   9.650  38.982   3.797
23744W        W85033  38.042  30.503   5.199
23745W        W85034  13.203  33.921   1.753
23746W        W85035  34.407  41.791  10.520
23747W        W85036   8.234  28.028   2.305
23748W        W85037  44.412   5.439  14.760
23749W        W85038  38.914  13.299   4.686
23750W        W85039  38.419  11.835   3.684
23751W        W85040   1.776  26.545  13.939
23752W        W85041  14.710  14.659  13.466
23753W        W85042  44.476  34.085  13.874
23754W        W85043  21.683  10.245  11.391
23755W        W85044  27.667  32.070   0.300
23756W        W85045  23.689  33.578   2.824
23757W        W85046  40.912   0.449   3.246
23758W        W85047  26.156  33.044  11.035
23759W        W85048  17.079  27.007   1.695
23760W        W85049  29.118  35.871   1.796
23761W        W85050  43.807  39.512  13.519
23762W        W85051  25.484  19.197   0.466
23763W        W85052   5.281  20.696  12.843
23764W        W85053  33.566  41.969  12.384
23765W        W85054  28.078   2.802   3.719
23766W        W85055  37.015  10.260  13.421
23767W        W85056  39.433  27.654  11.456
23768W        W85057  25.653   5.357   0.263
23769W        W85058   5.325  24.198  14.462
23770W        W85059  30.136  31.900   3.253
23771W        W85060  22.516  32.602  14.957
23772W        W85061  34.103   3.229   0.423
23773W        W85062  10.745  33.476  10.033
23774W        W85063  39.888  32.575   2.852
23775W        W85064  44.998   6.384   0.746
23776W        W85065  23.510  40.526   0.408
23777W        W85066  38.361   9.733  12.454
23778W        W85067   2.329   2.839  13.990
23779W        W85068  39.498  21.612  10.413
23780W        W85069  31.548  40.833   3.749
23781W        W85070  42.800   4.778  11.974
23782W        W85071  24.049   4.928   5.197
23783W        W85072  23.689   4.774   1.372
23784W        W85073  32.520  18.623  13.984
23785W        W85074  22.726  14.171   5.186
23786W        W85075  12.742  19.113  12.427
23787W        W85076  31.579   7.331  13.467
23788W        W85077  30.135  11.812   0.465
23789W        W85078  36.391  28.934  12.412
23790W        W85079  10.151  17.581  10.929
23791W        W85080   3.712  11.164  12.372
23792W        W85081  15.657  20.138   5.318
23793W        W85082  30.638   3.918  13.835
23794W        W85083  14.301  34.047   0.763
23795W        W85084  21.144  22.027   0.431
23796W        W85085  39.876   8.382  10.974
23797W        W85086  31.418   9.689   1.284
23798W        W85087  23.114  26.114  11.474
23799W        W85088  39.967  27.114   2.745
23800W        W85089  37.566  32.020   4.148
23801W        W85090   7.414  20.622   2.315
23802W        W85091   3.818  40.871  12.472
23803W        W85092   5.336  35.375   1.292
23804W        W85093  22.563  25.058  13.847
23805W        W85094  11.242   2.866  10.933
23806W        W85095  30.575  27.985  14.878
23807W        W85096  24.221  22.226  13.944
23808W        W85097  19.159  43.465  13.953
23809W        W85098  24.482  26.071   5.602
23810W        W85099  32.426  18.791   4.138
23811W        W85100   1.269  26.525  12.339
23812W        W85101  26.126  37.928   4.194
23813W        W85102   7.308  37.905   4.792
23814W        W85103  30.497   7.209  10.430
23815W        W85104  21.068  24.679  10.460
23816W        W85105  34.036  35.960  11.073
23817W        W85106  32.942  12.657  12.534
23818W        W85107  12.262  35.418   4.181
23819W        W85108  34.918  24.630  13.045
23820W        W85109   6.240  18.124   2.724
23821W        W85110  30.433   7.358   4.162
23822W        W85111   7.203   1.976   2.814
23823W        W85112  21.172  31.095  11.402
23824W        W85113  35.551   3.233  12.478
23825W        W85114  33.538   4.762   2.205
23826W        W85115  42.295  13.761   4.335
23827W        W85116  22.617  42.396  13.975
23828W        W85117  14.291  38.857  10.409
23829W        W85118  13.782  42.392   4.203
23830W        W85119   7.176   8.683  12.891
23831W        W85120   2.393   7.392   1.935
23832W        W85121  12.225  24.223  13.970
23833W        W85122   5.789  43.372   1.926
23834W        W85123  11.852  16.273  12.019
23835W        W85124  13.341  13.830  14.983
23836W        W85125  36.851  40.901  14.392
23837W        W85126  35.083  35.521   2.198
23838W        W85127   0.858  41.509  12.824
23839W        W85128   4.941  32.037   4.163
23840W        W85129  20.731   9.770  12.519
23841W        W85130  22.676  39.500  14.302
23842W        W85131  31.969   5.257   1.290
23843W        W85132  37.532  23.604  14.769
23844W        W85133  28.100  37.410   1.829
23845W        W85134  21.700  20.182   0.755
23846W        W85135  11.305   4.204   2.274
23847W        W85136  41.411  22.080  12.489
23848W        W85137  43.495  15.591  14.798
23849W        W85138  27.061   9.738   1.749
23850W        W85139  30.621  16.812  11.605
23851W        W85140  36.898   2.358   1.910
23852W        W85141  44.872  38.879  13.944
23853W        W85142  28.079  30.567   0.374
23854W        W85143  26.181   0.409   1.743
23855W        W85144   5.848  34.972   1.715
23856W        W85145  40.382   3.955  14.771
23857W        W85146  20.037  38.819  10.985
23858W        W85147  28.603  17.121   1.919
23859W        W85148  25.057  17.131   5.322
23860W        W85149  17.765  23.174  14.780
23861W        W85150  31.525  40.446  10.532
23862W        W85151  41.299  39.854  12.408
23863W        W85152  19.051  40.356   0.805
23864W        W85153  43.902   2.797  12.986
23865W        W85154  36.944  42.889   0.903
23866W        W85155  16.711  12.166  11.932
23867W        W85156   5.285  19.638   3.150
23868W        W85157  40.435  44.259   3.671
23869W        W85158   2.262  23.625  12.406
23870W        W85159  41.317   8.750   1.829
23871W        W85160  14.789   4.917  12.409
23872W        W85161  26.473  30.578  12.833
23873W        W85162  16.118  24.695   5.718
23874W        W85163   1.768  33.587   2.226
23875W        W85164  30.987  26.956   3.163
23876W        W85165  42.356   5.424  14.500
23877W        W85166  42.989  17.763   3.186
23878W        W85167  23.505  42.946  12.362
23879W        W85168  24.153  28.033   4.640
23880W        W85169  20.090  38.853   4.708
23881W        W85170  22.621  10.753   4.754
23882W        W85171   7.335   7.286   3.171
23883W        W85172  11.279  32.009   1.280
23884W        W85173   4.257  12.246  14.992
23885W        W85174   0.362  26.484  14.948
23886W        W85175   1.828  10.242  11.393
23887W        W85176  11.745  42.777  12.994
23888W        W85177   9.379  20.696  11.039
23889W        W85178  21.752  25.033  10.920
23890W        W85179   8.298  27.574  12.480
23891W        W85180  43.299  27.445   0.419
23892W        W85181  26.053   4.814   3.683
23893W        W85182  11.857  13.287  13.800
23894W        W85183  28.146   1.952  14.491
23895W        W85184  39.877  38.451  14.947
23896W        W85185  33.541  20.637   1.381
23897W        W85186   7.356  18.071  12.557
23898W        W85187   1.833  44.364   0.435
23899W        W85188  17.630  39.859  14.351
23900W        W85189   7.294  34.082   2.770
23901W        W85190  21.075   6.717  13.471
23902W        W85191  12.308  18.237   2.232
23903W        W85192  19.607  16.073   4.351
23904W        W85193  27.951   0.441   1.808
23905W        W85194  38.413  11.754  12.850
23906W        W85195  27.042   0.976   3.342
23907W        W85196   0.809   5.767   4.721
23908W        W85197  19.168  25.514  11.458
23909W        W85198  43.489  41.791   0.873
23910W        W85199  17.070  38.041   0.813
23911W        W85200  18.094   9.315  14.847
23912W        W85201  19.083   8.321  13.930
23913W        W85202  43.431  44.782   1.866
23914W        W85203   0.344  10.768   0.952
23915W        W85204  31.527   2.453   0.302
23916W        W85205   6.909  17.753   3.357
23917W        W85206   7.197  26.459   2.843
23918W        W85207  14.309  28.989   4.347
23919W        W85208  10.194  37.527   1.349
23920W        W85209  14.698  13.647   2.265
23921W        W85210   5.328   0.247   4.835
23922W        W85211  29.040  27.482  13.351
23923W        W85212  29.537  13.219  13.890
23924W        W85213   4.884  13.195  10.516
23925W        W85214   5.271   2.921   2.752
23926W        W85215   5.916  41.447  13.991
23927W        W85216  27.126  36.963  11.579
23928W        W85217  11.842  43.417   1.703
23929W        W85218  43.454  40.426  13.473
23930W        W85219   7.401  35.472  13.473
23931W        W85220   6.831   6.831   4.311
23932W        W85221  26.144  43.303  13.989
23933W        W85222  26.122  20.655  13.420
23934W        W85223   5.807  36.894   1.444
23935W        W85224  28.444  25.571  10.642
23936W        W85225  22.661  31.505   1.244
23937W        W85226  29.074  10.750  14.813
23938W        W85227   9.848   6.214   2.243
23939W        W85228  27.072  20.648   3.797
23940W        W85229  12.623  36.588   1.729
23941W        W85230  14.599  17.149   3.845
23942W        W85231  34.953  43.399   4.776
23943W        W85232  42.946   6.413  10.593
23944W        W85233  41.810   1.378   0.788
23945W        W85234   4.423  22.583  10.593
23946W        W85235  17.088  32.506  14.963
23947W        W85236  43.004  14.632   3.643
23948W        W85237  39.931  15.323   0.817
23949W        W85238  43.448  40.914   0.932
23950W        W85239   4.330  15.084  11.948
23951W        W85240  15.177  33.559   1.907
23952W        W85241  40.496  17.244   2.669
23953W        W85242  33.500  25.967  14.371
23954W        W85243  31.540   8.873   3.819
23955W        W85244   5.717   0.769  14.451
23956W        W85245  27.064  40.319  13.465
23957W        W85246  43.936   2.299  14.466
23958W        W85247  34.556  29.140   4.170
23959W        W85248  26.186   4.785  12.892
23960W        W85249   1.474  28.460  14.784
23961W        W85250  43.993  19.218  11.066
23962W        W85251  25.481  20.191   1.445
23963W        W85252  17.287   9.878   2.691
23964W        W85253  36.417   7.836  12.571
23965W        W85254   3.327  32.100  14.779
23966W        W85255   3.272  11.826   3.359
23967W        W85256   8.814  20.684   4.263
23968W        W85257   8.819  44.974   1.369
23969W        W85258  25.040  34.905  13.399
23970W        W85259   7.784  14.143   0.771
23971W        W85260  21.605   3.851   3.151
23972W        W85261  19.557   7.298  11.390
23973W        W85262  36.461  12.251   2.319
23974W        W85263  29.553  26.082  11.583
23975W        W85264   8.189  26.183  13.935
23976W        W85265   8.656  31.591  13.061
23977W        W85266  26.175  15.241  10.591
23978W        W85267  27.491  44.770   2.679
23979W        W85268  41.291   2.953   4.699
23980W        W85269   6.339   4.282  12.448
23981W        W85270  23.039  28.002  12.860
23982W        W85271  42.887   5.239  11.013
23983W        W85272  29.535  16.752  14.930
23984W        W85273  17.115   6.886  11.528
23985W        W85274  28.171  37.526   0.845
23986W        W85275  42.433  11.857  12.020
23987W        W85276  43.427  18.113   3.868
23988W        W85277  17.276   8.806   2.314
23989W        W85278  34.509  16.157  13.971
23990W        W85279   1.334  17.163  14.378
23991W        W85280   9.792  24.061   5.111
23992W        W85281   7.376  33.557   2.696
23993W        W85282  17.257  12.808   4.785
23994W        W85283   8.405  26.485   3.806
23995W        W85284  20.137   0.777   4.757
23996W        W85285   7.226  42.503   1.707
23997W        W85286  22.104  35.388  10.986
23998W        W85287  14.258   8.275  12.836
23999W        W85288  34.930  40.496   0.412
24000W        W85289  17.171  16.260  13.451
24001W        W85290  29.457  13.326   0.355
24002W        W85291  43.411  27.964  13.340
24003W        W85292   5.420  24.094   0.249
24004W        W85293   8.316  39.956  14.429
24005W        W85294   1.933   7.202   4.274
24006W        W85295  21.529  17.622   1.918
24007W        W85296  29.044  25.972   2.233
24008W        W85297  32.059   9.714  12.090
24009W        W85298   8.731  36.080   4.679
24010W        W85299  16.803   3.369   3.385
24011W        W85300   3.923  22.681   3.691
24012W        W85301  40.452   0.445   4.814
24013W        W85302  43.486   6.196  14.849
24014W        W85303  37.426  19.120   2.216
24015W        W85304  29.037  11.288   1.935
24016W        W85305  23.547  25.689  14.473
24017W        W85306  18.730  16.598  14.851
24018W        W85307  32.394  31.079   4.263
24019W        W85308  17.620  35.099  13.973
24020W        W85309  39.515  23.575  12.497
24021W        W85310  28.517  25.041  11.569
24022W        W85311  43.318   6.882   2.239
24023W        W85312  20.594   6.773   2.245
24024W        W85313  33.452  23.612   2.323
24025W        W85314   1.260   8.182   2.823
24026W        W85315  29.083  38.031   1.774
24027W        W85316  17.286  23.114  11.946
24028W        W85317   0.957  33.492  12.553
24029W        W85318  37.414  43.790   3.790
24030W        W85319  18.253  39.044   2.811
24031W        W85320  19.214  21.705   0.398
24032W        W85321  43.858  20.664  11.408
24033W        W85322  22.013  11.864   2.846
24034W        W85323  17.263  29.158   3.200
24035W        W85324  36.040   7.801   1.230
24036W        W85325  38.531  23.587   0.443
24037W        W85326  23.511   7.317  13.822
24038W        W85327  16.171  30.154   0.405
24039W        W85328   6.910  39.883   2.296
24040W        W85329  18.587  22.083  11.578
24041W        W85330   7.836  11.325   4.204
24042W        W85331  23.053  20.646  11.942
24043W        W85332  27.679   4.821   4.353
24044W        W85333  22.719  26.593   1.262
24045W        W85334   5.777  43.407  14.941
24046W        W85335  31.141  30.503   3.728
24047W        W85336  36.092  42.492   3.721
24048W        W85337  40.006  43.346  14.400
24049W        W85338  12.789  26.165  12.080
24050W        W85339  14.211   0.933  11.942
24051W        W85340   3.297  34.390  13.892
24052W        W85341   0.383  26.958  11.920
24053W        W85342  20.652   1.850  12.507
24054W        W85343   6.298  40.318  10.605
24055W        W85344  24.992  24.643   0.412
24056W        W85345  38.355  17.739  14.945
24057W        W85346  34.893  35.947   9.998
24058W        W85347  13.346   7.204  11.472
24059W        W85348  22.579  14.219   4.334
24060W        W85349  34.950  21.208  12.358
24061W        W85350   9.704  12.259   4.303
24062W        W85351   4.751   3.821   4.123
24063W        W85352  36.454  35.398  12.082
24064W        W85353  10.295  38.429   3.706
24065W        W85354  26.119  38.034  13.490
24066W        W85355  38.491  32.983  11.931
24067W        W85356  23.547  10.784  11.975
24068W        W85357  35.552   1.902  11.600
24069W        W85358   1.395  42.410  10.411
24070W        W85359  16.594  10.816   2.183
24071W        W85360   1.428  29.660  14.944
24072W        W85361   5.886  36.056   4.794
24073W        W85362  18.645  43.840  14.003
24074W        W85363  42.314  26.136   1.387
24075W        W85364  11.680  31.043   1.324
24076W        W85365   8.751  29.617  12.504
24077W        W85366  12.155  18.611   0.419
24078W        W85367   3.777  40.399  11.433
24079W        W85368  23.990  38.057   3.689
24080W        W85369  37.481   3.846   0.858
24081W        W85370  23.648  19.704   0.333
24082W        W85371   9.658  42.017  11.411
24083W        W85372   2.942  24.672  14.388
24084W        W85373  24.016   9.275   0.358
24085W        W85374  36.040  37.068   2.871
24086W        W85375   3.452  11.136   0.455
24087W        W85376  33.112  44.305  10.591
24088W        W85377   6.190  16.623   2.272
24089W        W85378  10.688  14.340   3.815
24090W        W85379   9.745  15.626   2.668
24091W        W85380  37.943   7.303   0.814
24092W        W85381  33.014  40.801   0.799
24093W        W85382  39.920  11.297   3.376
24094W        W85383  39.903  26.489  12.095
24095W        W85384  17.204   3.832  13.548
24096W        W85385   2.288   0.750  10.130
24097W        W85386  38.525   5.725  11.891
24098W        W85387  33.459  33.400  11.558
24099W        W85388  23.099  37.455  14.032
24100W        W85389   7.352  13.741  10.583
24101W        W85390  12.202   2.271   5.747
24102W        W85391  15.303  13.208  11.933
24103W        W85392  16.074  25.162   2.875
24104W        W85393  20.541   0.338   4.317
24105W        W85394   9.322  30.946   1.720
24106W        W85395  41.361  39.031  14.777
24107W        W85396  36.870   0.366   0.816
24108W        W85397  14.659  18.269  10.111
24109W        W85398   7.196  21.591  11.493
24110W        W85399  23.126  11.168   4.333
24111W        W85400  27.614  33.462   4.159
24112W        W85401  25.086   8.711  12.874
24113W        W85402  40.344  32.009   3.179
24114W        W85403   1.473  33.070   0.319
24115W        W85404  29.018   0.764  10.536
24116W        W85405   0.486  27.183  14.952
24117W        W85406  33.965  37.970  12.498
24118W        W85407  23.215   7.290  11.384
24119W        W85408  17.291  43.930  11.862
24120W        W85409  11.145  36.910   2.697
24121W        W85410  13.117  32.593  13.874
24122W        W85411  42.784  29.171  12.533
24123W        W85412   6.781   8.889   3.766
24124W        W85413  13.246  22.610  14.328
24125W        W85414  22.712  27.996   3.856
24126W        W85415  12.724   6.734   0.943
24127W        W85416  36.852  29.663  12.346
24128W        W85417  13.162  27.610  12.541
24129W        W85418  17.697  11.795  11.013
24130W        W85419   7.364  42.284   2.286
24131W        W85420   9.180  37.486   9.964
24132W        W85421  43.911  20.738   3.337
24133W        W85422  19.060  40.339  13.315
24134W        W85423   0.392  20.693   0.451
24135W        W85424  16.201  36.955   3.757
24136W        W85425  28.642  16.657  11.081
24137W        W85426   8.832  17.741  14.005
24138W        W85427  28.559  24.073  12.574
24139W        W85428  15.243  25.971  12.378
24140W        W85429  38.501  23.597  11.552
24141W        W85430   1.281  40.948   3.816
24142W        W85431  30.648  24.058  10.915
24143W        W85432  44.916  35.104   4.184
24144W        W85433  43.505  42.439  12.525
24145W        W85434  28.075  40.425  11.551
24146W        W85435  23.647   1.736   3.220
24147W        W85436  23.587   0.910  10.504
24148W        W85437  27.014  30.430   3.818
24149W        W85438  37.456  41.446   3.249
24150W        W85439  11.370  14.597  11.054
24151W        W85440  33.012  28.550   2.685
24152W        W85441  23.994   3.845  10.619
24153W        W85442  38.535  37.420  14.997
24154W        W85443  40.051  19.677   3.659
24155W        W85444  43.919  10.830  14.866
24156W        W85445  20.641  13.786  12.870
24157W        W85446   3.264  31.460  13.391
24158W        W85447  39.417   8.267  14.406
24159W        W85448  36.414  21.022  14.467
24160W        W85449  37.006  24.009   4.247
24161W        W85450  27.548  15.157  11.434
24162W        W85451   3.309  31.979  10.978
24163W        W85452  41.330   3.433   3.316
24164W        W85453  37.943   5.765  10.585
24165W        W85454  23.229  25.995   0.740
24166W        W85455  15.133   4.313  13.914
24167W        W85456  21.218  14.270   0.460
24168W        W85457  33.554  18.555  11.077
24169W        W85458   5.211  27.569   3.386
24170W        W85459  12.634  19.050   9.675
24171W        W85460  29.549   4.851  11.892
24172W        W85461  15.720   2.456  11.475
24173W        W85462  34.865  37.423  10.895
24174W        W85463   6.688  39.003  13.403
24175W        W85464  44.999  36.072   1.245
24176W        W85465   3.236  25.189  14.352
24177W        W85466  29.520  18.773   3.709
24178W        W85467  21.629  33.951  12.956
24179W        W85468  26.515   7.779   1.766
24180W        W85469  25.035  16.719   0.424
24181W        W85470  33.395  41.421   0.413
24182W        W85471  24.130  31.471  12.570
24183W        W85472  39.560   9.318   4.233
24184W        W85473  17.281  42.851   4.713
24185W        W85474  23.646   1.378   3.382
24186W        W85475  22.715   9.284  11.926
24187W        W85476  43.376  43.311  13.397
24188W        W85477  19.558  14.096   2.827
24189W        W85478  33.112  32.013  13.507
24190W        W85479   6.371   0.441  13.954
24191W        W85480  36.483   2.410  12.913
24192W        W85481  34.882  36.942  12.539
24193W        W85482  37.052   5.423  12.477
24194W        W85483  28.678   2.851   0.800
24195W        W85484  14.254  18.592   0.435
24196W        W85485  33.996  16.761  13.973
24197W        W85486  18.687  11.131   1.904
24198W        W85487  38.024  39.554  14.318
24199W        W85488  37.462  17.656   1.783
24200W        W85489  20.178  31.134  10.463
24201W        W85490  22.559   3.363   4.266
24202W        W85491   2.297  20.571  11.570
24203W        W85492   3.356   1.835   1.318
24204W        W85493  12.249  22.239   3.669
24205W        W85494   5.417   5.849   2.821
24206W        W85495  29.608  21.048   2.805
24207W        W85496   9.181  25.560   0.844
24208W        W85497  31.624  38.530  11.475
24209W        W85498  41.971  30.514   5.131
24210W        W85499  12.132  43.781   2.344
24211W        W85500   5.197  23.630   2.782
24212W        W85501  37.924  31.588   2.229
24213W        W85502  37.915   2.461  12.990
24214W        W85503  16.576  35.035   2.417
24215W        W85504  34.430  37.874   3.714
24216W        W85505  20.745  39.943  10.958
24217W        W85506  10.186  31.406   2.275
24218W        W85507   1.976  22.078   0.374
24219W        W85508  11.221  41.931   0.389
24220W        W85509  37.469   3.377  12.968
24221W        W85510   8.359  20.122  13.328
24222W        W85511  34.061  39.979  14.359
24223W        W85512   7.709  40.935  10.501
24224W        W85513  24.686  16.095  13.515
24225W        W85514   3.846  10.672   4.252
24226W        W85515  41.438  17.555  12.020
24227W        W85516  42.963  19.644  13.476
24228W        W85517  10.170  28.436  14.363
24229W        W85518  10.366  42.281   0.967
24230W        W85519  21.720  20.562  10.906
24231W        W85520  37.420  37.967  14.803
24232W        W85521  19.042  17.696   2.305
24233W        W85522   3.408  33.104  13.334
24234W        W85523  14.722  29.579  11.859
24235W        W85524  42.859   9.242  11.936
24236W        W85525  28.613  37.557  12.340
24237W        W85526   2.438  35.993   4.332
24238W        W85527   5.328   3.455   4.297
24239W        W85528   5.777  39.399   2.352
24240W        W85529  40.991  23.000  13.791
24241W        W85530  14.793   3.949   3.848
24242W        W85531  40.312  22.070   1.887
24243W        W85532   1.249  26.650   4.137
24244W        W85533   7.250  23.238   2.408
24245W        W85534  33.430  22.047   3.308
24246W        W85535  23.517  19.661   2.227
24247W        W85536  31.107   1.854   0.759
24248W        W85537  11.203  38.836  12.877
24249W        W85538   0.765  23.699  14.861
24250W        W85539  20.237  15.747  10.101
24251W        W85540   8.845  35.480  14.840
24252W        W85541  23.509  15.578   1.356
24253W        W85542  39.535  39.341   2.208
24254W        W85543  29.948  21.558   1.443
24255W        W85544  23.106  20.247   4.817
24256W        W85545   4.406   7.253  12.340
24257W        W85546   8.656  25.617   3.634
24258W        W85547  27.972  32.587   3.277
24259W        W85548   6.259   9.669   1.234
24260W        W85549  35.604   9.205  11.054
24261W        W85550  24.678  38.019  12.495
24262W        W85551  24.092  33.897   1.769
24263W        W85552  36.880  25.032   5.165
24264W        W85553  42.003  22.159  14.885
24265W        W85554  31.552  21.251  14.359
24266W        W85555  29.664   2.465   4.599
24267W        W85556  43.471   6.894  13.994
24268W        W85557  36.047  17.641  14.781
24269W        W85558   8.212   9.857  11.102
24270W        W85559  21.634  16.570   1.866
24271W        W85560  26.664  18.693   2.805
24272W        W85561  39.979  16.658   1.742
24273W        W85562   6.341  27.996  14.794
24274W        W85563   0.429   3.755  10.900
24275W        W85564  10.378  21.612   3.276
24276W        W85565   0.754  39.944   1.280
24277W        W85566  34.379  27.555  14.480
24278W        W85567   7.413  39.035   0.962
24279W        W85568  42.943  34.387  12.524
24280W        W85569  39.841   2.731  10.624
24281W        W85570  42.385  31.423  13.827
24282W        W85571  11.717   5.341   4.736
24283W        W85572  34.389  39.932  10.435
24284W        W85573   1.962  23.148   1.227
24285W        W85574  43.294   9.220   3.735
24286W        W85575  32.969   1.908   5.238
24287W        W85576  44.923  18.618  12.446
24288W        W85577  19.202  10.240  14.835
24289W        W85578  12.830  10.151  14.280
24290W        W85579  10.719  26.985   4.334
24291W        W85580  11.277  43.430   0.310
24292W        W85581  36.463  40.818   2.251
24293W        W85582  32.531  14.327  10.979
24294W        W85583  32.473   0.368   9.979
24295W        W85584  20.199   9.826   2.879
24296W        W85585  18.258  16.232  10.511
24297W        W85586  38.902  25.143   1.212
24298W        W85587  12.166  15.609  13.937
24299W        W85588  24.717  20.075   4.129
24300W        W85589  28.492  24.615  13.914
24301W        W85590  42.847   1.240   0.274
24302W        W85591  15.715   4.344  12.906
24303W        W85592  14.818  20.168   4.144
24304W        W85593  27.080  37.571   3.822
24305W        W85594   3.756  22.604   3.354
24306W        W85595  41.431  20.244  12.092
24307W        W85596  22.063  33.443  14.955
24308W        W85597  10.758  39.816  12.079
24309W        W85598  24.075  20.638  12.994
24310W        W85599  11.349  37.453  14.915
24311W        W85600  12.275  39.537  11.985
24312W        W85601  12.357  40.894   3.336
24313W        W85602   9.296  17.656   0.765
24314W        W85603   9.394   2.775  10.996
24315W        W85604  10.681  35.057   5.119
24316W        W85605  34.600   9.311  12.489
24317W        W85606  38.532  38.338  11.879
24318W        W85607  37.019  10.694  10.510
24319W        W85608  24.045  18.080  10.443
24320W        W85609   0.410  34.468   4.334
24321W        W85610  29.628  21.531  11.125
24322W        W85611  44.421  17.686  14.385
24323W        W85612  33.556  42.921   4.752
24324W        W85613   3.440  15.320  10.637
24325W        W85614  24.121  12.223  11.072
24326W        W85615  41.926  43.307  14.987
24327W        W85616  36.542  25.148   4.222
24328W        W85617  37.990  25.622  14.014
24329W        W85618   7.178  32.461  12.946
24330W        W85619  37.549  16.186  11.997
24331W        W85620  42.438  10.675   4.646
24332W        W85621  29.173  43.011   0.955
24333W        W85622   1.950  29.088   0.763
24334W        W85623   0.808  18.181   1.846
24335W        W85624  21.259  11.158  11.543
24336W        W85625   7.786  31.524   0.842
24337W        W85626   3.712  10.767  10.896
24338W        W85627  44.428  20.198  14.508
24339W        W85628  38.845  30.045  11.934
24340W        W85629  26.113   2.905   2.385
24341W        W85630  18.761  44.855  12.442
24342W        W85631  28.484  28.044   1.821
24343W        W85632  30.963   3.765   2.835
24344W        W85633  16.727  18.663  13.048
24345W        W85634  15.304  38.568   3.752
24346W        W85635  20.191  44.307   3.806
24347W        W85636  41.519  37.368   3.299
24348W        W85637  10.340  28.602   0.373
24349W        W85638  14.171  16.205   4.697
24350W        W85639   1.950  44.346   3.295
24351W        W85640  15.260  11.224  11.556
24352W        W85641  31.630  11.711   4.838
24353W        W85642  35.538  42.978  12.497
24354W        W85643  37.912  11.243  13.362
24355W        W85644  14.194  15.775   0.871
24356W        W85645  26.957   9.664  10.517
24357W        W85646  39.055  24.529  11.608
24358W        W85647  25.608  40.922  14.788
24359W        W85648   6.898  41.990   2.332
24360W        W85649  38.388  29.655  14.957
24361W        W85650  29.005  38.898   4.256
24362W        W85651  39.341  28.166  12.483
24363W        W85652  40.413  43.303   1.213
24364W        W85653  41.830  38.844   4.618
24365W        W85654  41.886  19.608   0.754
24366W        W85655  34.033  34.372   3.259
24367W        W85656  17.088  28.143  10.626
24368W        W85657   1.918   5.802   3.177
24369W        W85658  13.810  33.597  10.519
24370W        W85659  27.117  21.233  11.016
24371W        W85660  19.638  18.747  14.833
24372W        W85661  11.305   5.917  12.424
24373W        W85662  38.858  43.931   9.984
24374W        W85663  38.924  30.548  14.012
24375W        W85664  28.454  19.599   1.219
24376W        W85665  21.636   4.835  12.519
24377W        W85666  43.855  16.674  14.905
24378W        W85667  42.473   3.369   1.935
24379W        W85668  21.649  15.143  13.897
24380W        W85669  17.631  41.516  12.877
24381W        W85670  40.487  37.879  12.924
24382W        W85671  43.810  20.542  14.362
24383W        W85672  30.099  44.779   4.254
24384W        W85673   7.376  10.359  13.509
24385W        W85674   8.706  17.674   2.888
24386W        W85675   8.786  27.101  11.402
24387W        W85676  15.823   8.301   4.300
24388W        W85677  38.888  33.580  13.842
24389W        W85678  34.968   0.471  12.537
24390W        W85679  21.051  13.744   4.337
24391W        W85680   0.423   8.887   0.270
24392W        W85681  16.309  35.965  11.400
24393W        W85682  26.189  39.543  13.540
24394W        W85683  42.998  30.647  10.617
24395W        W85684  39.873  35.908  11.016
24396W        W85685  20.161  23.588   1.808
24397W        W85686  39.522  43.882   4.338
24398W        W85687   7.194  40.933   0.747
24399W        W85688  30.626  20.654   1.725
24400W        W85689  18.192  41.905  13.875
24401W        W85690  11.769  44.811  10.092
24402W        W85691  41.511  17.570   4.798
24403W        W85692  14.104   1.892   0.727
24404W        W85693  31.535  32.617   4.742
24405W        W85694  23.090  30.928  10.629
24406W        W85695   5.703  26.569  13.349
24407W        W85696   4.288  16.285   0.957
24408W        W85697   6.712  11.345   2.315
24409W        W85698  41.902  17.563  12.096
24410W        W85699  15.197  18.782   0.762
24411W        W85700  21.551   3.428   4.149
24412W        W85701  44.908  37.414  10.510
24413W        W85702  14.733  12.323  10.439
24414W        W85703  35.497  18.732  14.853
24415W        W85704  41.829  10.782   4.783
24416W        W85705   0.405  37.076   3.660
24417W        W85706  20.758  24.658   1.728
24418W        W85707  41.819  37.523  10.957
24419W        W85708  15.600   6.882   1.397
24420W        W85709  16.189  28.156  12.925
24421W        W85710  16.700  33.974  13.914
24422W        W85711  28.182  27.647   3.722
24423W        W85712  13.293  44.976  11.506
24424W        W85713  40.822  20.608   0.892
24425W        W85714  12.720  21.624   1.930
24426W        W85715  10.265  23.561  13.008
24427W        W85716  38.524   9.374  12.888
24428W        W85717  29.625  32.576  12.467
24429W        W85718  36.920   1.312  14.957
24430W        W85719  12.844   5.332  14.316
24431W        W85720  27.561  40.404   1.884
24432W        W85721  13.819  21.204  12.366
24433W        W85722  35.048   7.286   1.424
24434W        W85723  22.127  17.191   3.767
24435W        W85724  35.938  29.982  13.932
24436W        W85725  27.004  18.114  11.123
24437W        W85726  28.088  36.501   4.243
24438W        W85727  14.703   2.294   3.808
24439W        W85728  18.125  32.923   2.754
24440W        W85729   9.326  44.488  10.940
24441W        W85730  37.370   8.392  13.391
24442W        W85731  11.267  14.274  12.914
24443W        W85732  36.990  42.286  13.468
24444W        W85733  43.400  21.575  13.428
24445W        W85734  13.615  33.929  14.967
24446W        W85735  32.608  27.004   4.137
24447W        W85736  34.470   4.216  12.049
24448W        W85737  10.324   1.280   0.913
24449W        W85738  18.580  25.999  14.825
24450W        W85739  29.106  18.155   3.382
24451W        W85740  14.740  13.626   1.267
24452W        W85741  17.196  43.272   1.776
24453W        W85742  42.458   7.824  14.874
24454W        W85743   9.889   2.830  12.531
24455W        W85744  39.929  39.959   2.752
24456W        W85745   9.346  15.685   1.279
24457W        W85746   2.423   5.907  12.571
24458W        W85747  21.572  25.028   0.450
24459W        W85748  42.312  20.643  14.468
24460W        W85749  23.725  33.966  14.291
24461W        W85750  14.266  13.687   0.754
24462W        W85751   4.405  20.243   0.452
24463W        W85752  14.700  19.607   1.791
24464W        W85753   6.366  19.149   0.952
24465W        W85754  21.647  38.502  10.595
24466W        W85755  39.902  17.640  12.947
24467W        W85756  20.746  11.636  14.420
24468W        W85757  30.032  43.338   0.848
24469W        W85758  41.469  11.128  12.966
24470W        W85759   9.343  25.589  13.875
24471W        W85760  24.106  26.489   0.453
24472W        W85761  13.312  23.563  13.547
24473W        W85762   4.790  27.529  10.904
24474W        W85763  31.558  25.647   1.728
24475W        W85764   0.846  16.669  11.949
24476W        W85765  36.058  20.643   0.409
24477W        W85766  40.834   2.300   0.938
24478W        W85767  10.230  13.786  11.099
24479W        W85768  44.354   5.780  13.792
24480W        W85769  23.159  44.869  10.434
24481W        W85770  17.271  18.712   2.223
24482W        W85771  12.227  37.566  14.397
24483W        W85772  18.116  36.383  11.104
24484W        W85773   0.414  37.543   1.807
24485W        W85774  42.981   2.840   4.685
24486W        W85775  15.760  37.993   1.295
24487W        W85776   1.362  30.159   1.437
24488W        W85777  36.031  44.460   0.778
24489W        W85778   3.305  40.979  14.949
24490W        W85779  13.118   1.463   0.920
24491W        W85780   4.376  18.200  13.433
24492W        W85781  16.603   5.724   0.332
24493W        W85782  19.559  38.831  12.949
24494W        W85783  26.139   9.660   0.255
24495W        W85784   7.825  37.831  12.396
24496W        W85785   8.696  29.559   0.920
24497W        W85786  34.450   0.357  10.979
24498W        W85787   8.826   9.382   0.404
24499W        W85788  17.139  31.970  10.044
24500W        W85789  22.241  34.576  12.348
24501W        W85790   2.388  16.242  10.991
24502W        W85791  10.726  28.026  11.124
24503W        W85792  39.982  32.453  14.816
24504W        W85793  15.807  34.403   2.747
24505W        W85794   0.464  16.735   4.191
24506W        W85795  44.414  23.700  10.631
24507W        W85796  21.205   1.889   2.277
24508W        W85797   4.293  30.496   2.690
24509W        W85798  27.599  35.547  13.823
24510W        W85799   3.889  43.951   0.802
24511W        W85800   8.765  28.452  11.069
24512W        W85801   8.206  12.285   4.297
24513W        W85802  43.494  31.955  13.310
24514W        W85803  21.073  29.466  11.115
24515W        W85804  12.354  37.998  11.934
24516W        W85805  31.527  19.063  12.446
24517W        W85806  43.821  36.931  11.083
24518W        W85807  42.804  32.533  11.411
24519W        W85808  16.804  26.539   4.737
24520W        W85809  11.732  18.243   3.243
24521W        W85810  19.696  41.346   1.913
24522W        W85811  30.956  11.658   1.347
24523W        W85812  30.471  22.022   3.186
24524W        W85813  19.741   7.710  11.378
24525W        W85814  41.312  43.985  13.488
24526W        W85815  16.250  27.629   4.288
24527W        W85816  31.551  14.616  11.530
24528W        W85817  19.117  43.950   4.255
24529W        W85818  20.058  20.207   1.864
24530W        W85819  43.274  28.580   1.766
24531W        W85820  15.776  42.996  10.641
24532W        W85821  34.895  11.265  14.810
24533W        W85822  12.752  40.895  10.612
24534W        W85823  25.978  16.753   3.334
24535W        W85824  42.986  32.052   2.745
24536W        W85825   2.233  31.110  12.883
24537W        W85826  31.601  23.075  12.360
24538W        W85827  11.160   2.783  13.318
24539W        W85828  41.861  31.560  11.051
24540W        W85829  40.498   0.400   3.254
24541W        W85830  37.477  13.765   1.356
24542W        W85831  30.986  38.532  13.018
24543W        W85832  31.639  37.524   0.859
24544W        W85833  37.887   9.718  14.403
24545W        W85834   2.241  18.204   5.280
24546W        W85835  20.052  20.712   4.808
24547W        W85836  21.128  36.449  10.600
24548W        W85837  27.157  30.442   1.219
24549W        W85838  22.171  37.391  14.021
24550W        W85839   0.856  16.808   3.284
24551W        W85840  13.247  11.776  13.387
24552W        W85841   3.745  39.422   3.297
24553W        W85842  37.902  37.922   3.241
24554W        W85843  17.575   0.300  11.388
24555W        W85844   4.757  37.878  12.369
24556W        W85845  17.192  27.677   2.264
24557W        W85846  15.153  28.098  11.051
24558W        W85847  15.120  22.246   2.241
24559W        W85848   4.327  32.028  10.409
24560W        W85849  33.381  15.263  14.400
24561W        W85850  15.615   9.325  13.348
24562W        W85851  29.168  14.144  13.440
24563W        W85852  36.928  20.217   0.823
24564W        W85853  33.100   4.825  14.815
24565W        W85854  22.606  36.376   1.930
24566W        W85855  27.136   0.431  14.409
24567W        W85856  15.670  33.919   0.816
24568W        W85857  12.315  10.717  11.128
24569W        W85858  19.568  17.225   1.378
24570W        W85859  37.546  16.670   3.632
24571W        W85860  27.985   3.940  14.303
24572W        W85861  26.540  40.302   1.822
24573W        W85862  13.230  41.433  12.452
24574W        W85863   6.711  30.009   4.220
24575W        W85864  21.137  20.265  14.004
24576W        W85865  31.582  42.929  12.512
24577W        W85866   3.388  26.700   2.222
24578W        W85867  14.271  26.163  10.566
24579W        W85868  15.236  21.140   3.794
24580W        W85869  13.229  39.532   4.766
24581W        W85870   5.878  14.796   1.836
24582W        W85871   4.369   4.247  12.016
24583W        W85872  19.171  16.221  14.299
24584W        W85873  18.194  12.791  14.857
24585W        W85874  22.208   1.842  12.974
24586W        W85875  38.477  28.018   4.205
24587W        W85876  15.741  19.655   2.883
24588W        W85877  23.518   5.722  10.481
24589W        W85878  30.977  44.834  11.524
24590W        W85879  15.775  34.898  11.895
24591W        W85880  31.076  18.229  10.583
24592W        W85881  10.789  39.891   3.247
24593W        W85882  32.067  26.632   3.650
24594W        W85883   5.834   2.260   2.797
24595W        W85884  11.633  37.974  12.927
24596W        W85885  26.609   7.370   9.625
24597W        W85886  39.899  39.361  12.941
24598W        W85887  28.006  35.379   1.392
24599W        W85888   1.395  19.702   3.733
24600W        W85889   0.445  17.780  11.412
24601W        W85890  17.791  43.270   1.381
24602W        W85891  14.834  42.876   2.826
24603W        W85892   5.697  18.115   3.830
24604W        W85893  24.052  26.528   3.165
24605W        W85894  23.515  39.925   3.785
24606W        W85895   8.297   2.750   3.806
24607W        W85896   9.149  31.067  11.119
24608W        W85897  13.251   1.243  13.548
24609W        W85898  22.167   5.259   1.857
24610W        W85899  25.631  37.078  12.496
24611W        W85900   9.675  31.606   1.422
24612W        W85901   2.815  28.496  12.370
24613W        W85902  15.167  25.486   4.656
24614W        W85903  43.861   5.917   1.287
24615W        W85904   9.786  35.482  14.445
24616W        W85905   9.389  21.053  14.515
24617W        W85906  30.540  22.073  11.025
24618W        W85907  34.484  19.769   4.816
24619W        W85908   5.853  13.637   2.769
24620W        W85909  37.052  33.979  14.950
24621W        W85910  34.865  22.526   5.130
24622W        W85911  41.815  17.585  13.514
24623W        W85912  11.236  19.068  10.923
24624W        W85913   9.816  24.544   3.777
24625W        W85914  22.223  37.497  10.522
24626W        W85915  35.918  10.271   1.822
24627W        W85916  25.150  37.064   4.338
24628W        W85917  22.035  42.013   3.802
24629W        W85918  29.526  41.818   0.336
24630W        W85919  30.135  14.326   1.281
24631W        W85920  10.201  34.424   3.299
24632W        W85921  36.047   5.849  14.806
24633W        W85922  14.231  29.015  12.389
24634W        W85923   2.926  12.723   4.804
24635W        W85924   2.749  38.972  14.468
24636W        W85925  10.183  30.130   0.812
24637W        W85926  36.471   0.414   0.918
24638W        W85927  33.444  19.718   1.924
24639W        W85928  41.377  31.008  13.341
24640W        W85929  39.367  42.459   3.846
24641W        W85930  12.232  13.834   2.215
24642W        W85931  26.511   4.864  14.450
24643W        W85932  35.969   6.211   0.755
24644W        W85933  32.985   0.280   1.926
24645W        W85934  14.752  32.108   5.267
24646W        W85935  35.389   6.807   4.673
24647W        W85936  17.802   9.772   0.315
24648W        W85937  13.679  35.016   3.666
24649W        W85938  17.628  40.838  11.396
24650W        W85939  29.133   7.903   4.180
24651W        W85940  25.192  22.087   5.159
24652W        W85941  22.560  33.581  11.472
24653W        W85942  10.690   7.900   4.183
24654W        W85943  39.469  42.786   4.768
24655W        W85944  10.325  34.093   0.478
24656W        W85945   8.846  41.798  11.564
24657W        W85946  27.043   6.819   4.347
24658W        W85947  18.096   6.765   4.675
24659W        W85948   4.845  20.074   4.238
24660W        W85949   3.293  39.346  11.586
24661W        W85950  17.084  10.175  10.011
24662W        W85951  13.266  41.950  13.920
24663W        W85952  19.627  11.806  14.326
24664W        W85953  32.928  16.174  14.828
24665W        W85954  17.060  29.470  14.401
24666W        W85955  42.872  25.122   0.315
24667W        W85956  44.322   9.224  12.396
24668W        W85957  30.442   1.378  14.281
24669W        W85958  37.468   6.767   4.115
24670W        W85959   1.300  40.914  14.397
24671W        W85960  32.118   8.808   4.217
24672W        W85961  30.657  24.590   0.926
24673W        W85962   9.652   5.697   4.334
24674W        W85963  28.546  32.980   2.352
24675W        W85964   5.393  41.406  12.033
24676W        W85965   6.689  20.112   3.305
24677W        W85966  38.018  41.510   4.306
24678W        W85967  40.920  35.539   4.692
24679W        W85968  20.086  30.416   5.164
24680W        W85969  14.651  23.606   4.742
24681W        W85970  28.493  11.165  14.007
24682W        W85971  38.566  23.113   2.193
24683W        W85972  26.140  11.363  11.404
24684W        W85973  21.617   5.195  12.079
24685W        W85974   9.667   8.768  12.521
24686W        W85975   9.750  14.230   4.226
24687W        W85976  33.097  26.993   1.721
24688W        W85977  16.762   0.933  14.373
24689W        W85978  26.073  42.800   2.772
24690W        W85979  35.008   3.264   0.367
24691W        W85980  39.394  27.558  13.021
24692W        W85981   7.803  39.529   0.846
24693W        W85982  23.084  16.285   3.241
24694W        W85983  14.339  24.021  13.003
24695W        W85984  25.616   9.779   4.831
24696W        W85985  32.058  14.726  10.416
24697W        W85986  44.837  12.731  12.030
24698W        W85987  14.266  17.798   2.693
24699W        W85988  21.112  30.050   0.365
24700W        W85989   6.202  21.134   0.931
24701W        W85990  28.666  35.472   0.336
24702W        W85991  26.063  12.822   3.289
24703W        W85992  21.242  43.299  10.956
24704W        W85993  16.651   0.256   4.269
24705W        W85994   9.223  12.121   1.443
24706W        W85995  23.557  41.460   0.781
24707W        W85996  15.686  42.879   2.195
24708W        W85997   1.383  18.199  12.906
24709W        W85998  34.495  13.342   1.896
24710W        W85999  35.505  39.050   2.330
24711W        W86000  37.875   8.777   0.872
24712W        W86001  23.701   3.327   3.795
24713W        W86002  22.571  20.683  13.458
24714W        W86003  20.667  16.259  11.420
24715W        W86004  39.411  24.130  11.447
24716W        W86005  42.029   0.481  10.948
24717W        W86006   2.261  32.957  13.899
24718W        W86007  35.914  17.299  11.474
24719W        W86008   7.672  32.891  12.358
24720W        W86009  25.060  11.231  14.832
24721W        W86010  14.271  16.213  12.982
24722W        W86011  12.152  44.459  11.436
24723W        W86012  19.177  32.090   2.272
24724W        W86013  13.339  22.686  13.376
24725W        W86014  28.934   3.307   4.120
24726W        W86015   3.240  25.474  10.952
24727W        W86016  10.203  40.854  11.018
24728W        W86017   9.710  32.910  11.988
24729W        W86018  21.216  35.941   2.678
24730W        W86019  18.698   0.430  10.528
24731W        W86020  13.296  25.001  11.914
24732W        W86021  44.910  31.524   4.621
24733W        W86022  32.066  38.866   2.232
24734W        W86023  24.503  11.725   2.875
24735W        W86024   9.712  35.852   0.360
24736W        W86025   1.878  28.599  13.894
24737W        W86026  18.250  42.459   3.347
24738W        W86027  38.874   5.400   1.337
24739W        W86028   2.444  22.521  11.538
24740W        W86029   6.698  41.813  11.991
24741W        W86030  16.254  18.758   5.288
24742W        W86031  27.101  25.668  10.543
24743W        W86032  35.092  23.591   4.639
24744W        W86033   6.290   5.844  10.622
24745W        W86034  28.561  32.092   0.261
24746W        W86035  42.435  31.952   0.861
24747W        W86036  12.809  42.832   0.967
24748W        W86037  11.371  38.943  14.975
24749W        W86038  25.698  15.083   4.236
24750W        W86039   8.794  10.212   2.820
24751W        W86040  20.121  43.974  13.055
24752W        W86041  39.868   6.835   2.404
24753W        W86042   8.748  21.603   0.751
24754W        W86043  18.621  33.986  13.961
24755W        W86044   1.738   2.789  13.033
24756W        W86045  41.311  13.614   3.189
24757W        W86046  13.717  44.915  13.943
24758W        W86047  12.806  21.547  12.968
24759W        W86048  24.070  44.772  10.987
24760W        W86049  30.115  42.452  13.054
24761W        W86050  26.465  36.890  10.463
24762W        W86051   9.350  25.659  11.008
24763W        W86052  40.975  40.399   3.232
24764W        W86053   9.851  25.060  12.975
24765W        W86054  40.311  23.574   1.410
24766W        W86055   2.308  18.245   3.269
24767W        W86056  33.910  19.742  11.932
24768W        W86057  37.517   4.219  13.846
24769W        W86058  13.260   0.341   2.703
24770W        W86059  40.858  25.560   0.307
24771W        W86060  36.546   9.233  13.530
24772W        W86061  13.634  24.115   0.341
24773W        W86062  43.499  35.979   4.182
24774W        W86063  38.943  42.915  14.467
24775W        W86064  32.507  37.883   2.857
24776W        W86065  32.523   6.205   0.299
24777W        W86066  32.475   8.252   3.663
24778W        W86067  10.775  12.708  12.960
24779W        W86068   7.188  43.496   0.844
24780W        W86069  36.372  32.408  12.937
24781W        W86070   0.915  12.183   4.599
24782W        W86071  17.218  36.547  12.407
24783W        W86072  10.274  42.458  12.395
24784W        W86073  24.097  22.579   0.751
24785W        W86074  21.524  10.367   0.766
24786W        W86075  41.891  34.514   1.332
24787W        W86076  18.660   5.286  12.513
24788W        W86077  21.027  39.008   1.232
24789W        W86078   1.420   2.454   3.738
24790W        W86079   5.263  28.499  13.542
24791W        W86080   3.898  25.473   2.718
24792W        W86081  14.253  42.290   0.362
24793W        W86082  31.533  18.603  14.949
24794W        W86083  40.439  32.105   0.294
24795W        W86084  33.007  12.276  12.888
24796W        W86085  34.458  31.527  14.431
24797W        W86086  44.805   7.814  12.390
24798W        W86087  26.533  32.571  14.402
24799W        W86088  34.590  34.538   0.420
24800W        W86089  41.410   9.889   3.734
24801W        W86090  14.670  31.648  12.367
24802W        W86091   2.927  32.917   0.313
24803W        W86092  16.309  30.492   2.824
24804W        W86093   7.378   4.798   1.221
24805W        W86094  30.976  13.170   3.280
24806W        W86095  29.972  13.664   4.834
24807W        W86096  34.420  44.437  11.107
24808W        W86097  15.729  30.484   1.337
24809W        W86098  43.881  11.777  11.876
24810W        W86099  42.421  11.214   2.345
24811W        W86100  19.196  44.292   0.860
24812W        W86101   7.910  43.359   3.757
24813W        W86102  10.341  36.586   2.329
24814W        W86103  14.681   0.439   0.367
24815W        W86104  29.654  23.238  10.554
24816W        W86105  30.420  36.461   2.344
24817W        W86106  17.183  30.525  13.419
24818W        W86107  31.957  14.637  13.976
24819W        W86108  28.048  26.007  10.504
24820W        W86109   8.231  19.675   2.321
24821W        W86110  39.494  33.414   0.954
24822W        W86111  38.358   0.341  10.609
24823W        W86112  12.702  32.618   3.754
24824W        W86113  23.734  19.163  11.976
24825W        W86114  29.552   0.845  10.975
24826W        W86115  31.951  37.950   2.830
24827W        W86116  15.790   8.256   0.859
24828W        W86117  27.507  34.469  11.934
24829W        W86118  13.172   0.378   0.827
24830W        W86119  42.817  39.916  12.075
24831W        W86120  29.064  43.790   4.140
24832W        W86121  21.616   2.894  11.077
24833W        W86122   6.397  36.082  10.061
24834W        W86123   5.726  29.592   2.739
24835W        W86124  38.967  30.509  10.908
24836W        W86125   2.266  30.056  10.636
24837W        W86126  37.899  16.104   5.107
24838W        W86127  20.688  20.614   0.836
24839W        W86128  27.517  29.521   4.612
24840W        W86129   5.263  37.841  13.939
24841W        W86130  34.067   8.176   1.879
24842W        W86131   9.175  21.612   3.317
24843W        W86132  20.648  41.437  11.472
24844W        W86133  42.889  38.060   4.196
24845W        W86134  29.613  44.862   4.324
24846W        W86135  31.495  36.538  12.910
24847W        W86136  18.122  18.633   1.788
24848W        W86137  15.801  16.788  11.857
24849W        W86138   2.304  37.968  12.375
24850W        W86139   2.881  26.090   2.738
24851W        W86140   3.319  28.161  13.484
24852W        W86141  37.903  10.776   3.307
24853W        W86142  25.677  36.972  11.024
24854W        W86143  26.109  32.393  12.929
24855W        W86144  18.168  43.799  12.995
24856W        W86145  29.527  41.025   0.406
24857W        W86146  28.619  14.775  14.411
24858W        W86147  15.699  26.178   0.728
24859W        W86148  25.492  39.508   2.416
24860W        W86149  20.576  39.496   0.789
24861W        W86150  15.615  23.496  13.008
24862W        W86151  35.086  24.190   4.695
24863W        W86152  27.612  10.234  13.344
24864W        W86153  35.381  22.187   3.675
24865W        W86154   3.943  16.571   0.772
24866W        W86155  33.039  38.076  12.458
24867W        W86156  14.276  12.276  10.632
24868W        W86157   3.867  11.830  14.399
24869W        W86158  42.818  26.047   3.724
24870W        W86159   5.848  15.612   4.835
24871W        W86160   0.964  11.679   3.359
24872W        W86161  40.406  19.234  12.969
24873W        W86162  25.115  39.959   3.266
24874W        W86163   0.291  29.528  14.969
24875W        W86164  14.310  38.955   2.294
24876W        W86165  43.416   1.347  12.864
24877W        W86166  19.699  17.681  12.882
24878W        W86167  17.658   1.879  11.859
24879W        W86168  37.031  35.477   4.312
24880W        W86169  40.019  38.328  10.955
24881W        W86170  38.969  20.556   1.266
24882W        W86171   7.861  38.487   3.373
24883W        W86172  11.275   7.681   2.265
24884W        W86173  27.449  29.462   1.696
24885W        W86174  40.910   5.245   4.803
24886W        W86175  13.690  18.136  10.933
24887W        W86176  37.082  38.997   0.395
24888W        W86177  26.572   1.799   1.262
24889W        W86178  16.589  20.230   2.419
24890W        W86179  40.874  20.099  14.013
24891W        W86180   4.826  19.182   1.355
24892W        W86181  18.139  11.831   2.845
24893W        W86182  23.542  17.127  14.948
24894W        W86183   5.716   8.236  14.406
24895W        W86184   1.319  42.977   4.266
24896W        W86185   4.205  16.151   1.903
24897W        W86186  37.856   9.232   4.626
24898W        W86187  13.797  44.972  13.426
24899W        W86188  10.216   6.265  11.458
24900W        W86189  21.609  28.005   3.162
24901W        W86190   7.367  15.783   1.287
24902W        W86191  27.963  39.044  12.051
24903W        W86192  20.261  24.720   1.819
24904W        W86193  35.945  35.385   2.314
24905W        W86194   9.155  32.907   3.751
24906W        W86195  23.197  21.591   1.311
24907W        W86196  27.460  43.980   2.369
24908W        W86197  38.919  19.276  11.430
24909W        W86198  23.692  35.038  14.490
24910W        W86199  17.770  37.028   1.330
24911W        W86200  31.413  15.583  13.407
24912W        W86201   7.781  12.145   0.879
24913W        W86202  13.829  23.520  13.515
24914W        W86203  43.989  33.960   4.187
24915W        W86204  40.399  42.936  13.050
24916W        W86205  38.986  20.747  10.537
24917W        W86206  35.954  29.497   3.379
24918W        W86207  20.647  28.127  12.923
24919W        W86208   7.840  17.615  13.463
24920W        W86209  36.567   0.773   3.271
24921W        W86210  30.430  30.043   1.389
24922W        W86211   0.482  37.973  10.417
24923W        W86212   6.333  11.227   1.821
24924W        W86213   7.724  22.048   1.756
24925W        W86214  14.209  34.957  10.085
24926W        W86215   4.796  30.429   4.660
24927W        W86216   9.840  20.731   0.916
24928W        W86217   6.746   6.743   4.678
24929W        W86218  32.577   7.414  11.938
24930W        W86219  19.225  28.588   0.251
24931W        W86220  35.060  14.215   0.311
24932W        W86221  13.267  39.414  11.601
24933W        W86222  27.170  19.605  13.353
24934W        W86223  12.850  38.028  13.956
24935W        W86224  11.648  12.748  13.968
24936W        W86225  21.538  33.911   4.154
24937W        W86226  22.578  19.688   3.172
24938W        W86227  11.225   7.406   3.274
24939W        W86228  21.721  16.116   2.274
24940W        W86229  23.128  38.495  12.955
24941W        W86230  41.319   2.955   2.797
24942W        W86231  40.966  42.938   0.282
24943W        W86232  12.163  24.152  11.092
24944W        W86233  44.357  18.732   3.270
24945W        W86234  27.660   3.773  14.405
24946W        W86235  35.104   7.356  11.901
24947W        W86236  38.363  42.871  11.525
24948W        W86237  38.377  29.020  13.987
24949W        W86238  44.796  26.618  14.336
24950W        W86239  35.597   9.715   4.203
24951W        W86240   8.865  11.683  11.917
24952W        W86241  23.552  35.505   2.348
24953W        W86242  41.404   2.266  12.370
24954W        W86243  36.093  30.148   3.223
24955W        W86244  12.616  24.001   2.899
24956W        W86245   9.735  15.141  11.382
24957W        W86246   5.834   4.411   2.751
24958W        W86247  35.913  20.529   1.399
24959W        W86248  17.771  40.855  13.331
24960W        W86249  22.194  13.781   2.377
24961W        W86250  24.056  18.151   4.165
24962W        W86251  13.828  40.896   1.775
24963W        W86252  30.563   5.906   0.279
24964W        W86253  29.547  26.078   2.808
24965W        W86254   0.402  26.680   1.778
24966W        W86255  17.749  36.527  11.428
24967W        W86256  10.709  12.746   3.270
24968W        W86257  42.465   1.891   1.225
24969W        W86258  33.967   6.737   3.630
24970W        W86259  22.666  36.997  13.938
24971W        W86260   7.783  18.238  12.347
24972W        W86261  16.290   1.757   0.419
24973W        W86262  21.230  17.189  13.370
24974W        W86263  18.096  38.948  14.464
24975W        W86264  44.859  20.120  12.978
24976W        W86265  42.517   3.298   3.667
24977W        W86266  29.160  22.017   0.254
24978W        W86267  18.634  27.977  11.426
24979W        W86268  31.984  25.081  14.291
24980W        W86269  25.170   1.914  11.100
24981W        W86270  18.156  16.191  13.034
24982W        W86271  20.174   1.431   2.345
24983W        W86272  42.915   9.237  13.059
24984W        W86273  41.793   0.971  14.288
24985W        W86274  23.652  33.406  13.522
24986W        W86275  21.166   6.210   4.172
24987W        W86276  38.040   9.702   2.413
24988W        W86277  42.424  30.481   3.348
24989W        W86278   1.843   3.250   2.704
24990W        W86279  13.684  12.619  13.891
24991W        W86280   6.714  24.008  11.559
24992W        W86281  38.058  23.595  13.337
24993W        W86282  44.484  39.924  14.498
24994W        W86283  30.459  35.097  11.937
24995W        W86284  12.634  15.312   4.283
24996W        W86285  40.534  15.811   4.308
24997W        W86286   0.936   1.465  11.420
24998W        W86287  27.014  35.548   4.310
24999W        W86288   9.328  33.952   2.330
25000W        W86289  27.586  30.910  13.467
25001W        W86290  25.129   6.369  13.392
25002W        W86291  17.104  12.289   1.243
25003W        W86292  37.887  28.579   2.293
25004W        W86293  17.231   8.258  14.860
25005W        W86294  26.003  43.770   2.793
25006W        W86295   6.762  31.943   1.269
25007W        W86296  24.670  25.687   1.294
25008W        W86297  39.426  24.009  12.965
25009W        W86298  21.262  38.063   1.305
25010W        W86299  28.046  43.003  12.912
25011W        W86300   7.783   6.689   4.280
25012W        W86301  42.822  31.094   3.185
25013W        W86302  36.005  36.368   3.673
25014W        W86303  16.766  27.656  14.921
25015W        W86304   6.227  35.599  11.475
25016W        W86305  14.807  12.682   4.175
25017W        W86306  29.463  21.170   1.694
25018W        W86307   3.757  39.378  14.348
25019W        W86308   4.250  24.989   5.588
25020W        W86309  20.243  24.507  12.390
25021W        W86310  31.451   0.885  12.994
25022W        W86311  15.598   4.308  14.787
25023W        W86312  37.898  32.090  14.820
25024W        W86313  40.933   6.185  14.779
25025W        W86314   2.447  28.502   3.771
25026W        W86315  13.289  20.679   3.723
25027W        W86316  30.965  32.446   3.699
25028W        W86317  15.193  44.332  14.923
25029W        W86318  14.301  10.169  12.844
25030W        W86319  20.158  11.674  10.446
25031W        W86320  32.597  14.810   3.369
25032W        W86321  14.193  13.273  10.408
25033W        W86322   7.749  31.601  12.981
25034W        W86323   7.799  25.661  14.508
25035W        W86324   9.340  34.404   0.912
25036W        W86325  24.025  11.837  14.816
25037W        W86326  22.681   6.271  12.075
25038W        W86327  24.229  38.845  10.914
25039W        W86328  41.391  18.227   4.279
25040W        W86329  39.425  23.548   4.171
25041W        W86330  23.631  39.938  11.612
25042W        W86331  27.015  38.381  11.587
25043W        W86332  38.022   4.840   2.861
25044W        W86333  18.658  11.837   0.402
25045W        W86334  14.112  44.494   4.163
25046W        W86335  42.782   3.848   2.262
25047W        W86336  13.228  15.770  11.588
25048W        W86337  20.154  40.878   0.376
25049W        W86338  28.445  40.346   2.211
25050W        W86339  32.914  40.895   3.353
25051W        W86340  17.596  26.120  14.910
25052W        W86341  24.487   2.442  10.902
25053W        W86342  26.517   2.314   5.166
25054W        W86343  30.503   8.337  11.865
25055W        W86344   3.247  16.627   0.476
25056W        W86345   6.784  26.693  12.855
25057W        W86346  18.276  11.193  12.091
25058W        W86347  13.742   1.309   3.166
25059W        W86348  16.072  32.019   2.255
25060W        W86349   9.686  11.792  11.857
25061W        W86350  16.604  12.670  12.004
25062W        W86351   8.784  43.769   2.687
25063W        W86352  27.132  20.688   0.961
25064W        W86353  23.123  10.272  13.422
25065W        W86354  33.898  28.046  13.336
25066W        W86355  13.840  42.424   4.649
25067W        W86356  29.068  36.351  14.412
25068W        W86357  31.069   7.888   0.915
25069W        W86358  43.275  29.507  10.921
25070W        W86359  36.970  37.917  14.970
25071W        W86360  22.667  18.252  10.988
25072W        W86361  32.901   7.745  13.391
25073W        W86362   4.816  20.104  11.439
25074W        W86363  22.040  21.651  11.969
25075W        W86364  41.457  28.603   4.809
25076W        W86365  37.035  12.183   3.236
25077W        W86366  20.533  17.077  13.856
25078W        W86367  27.963  42.822  14.831
25079W        W86368  27.579  18.704  14.378
25080W        W86369  27.036  36.438  14.888
25081W        W86370   5.429  43.352   1.263
25082W        W86371  32.137  19.748  13.816
25083W        W86372  18.626  13.624  10.565
25084W        W86373  33.991  30.545   4.745
25085W        W86374   0.815  34.545   0.808
25086W        W86375   5.779  39.367   1.898
25087W        W86376  23.113  10.301   1.715
25088W        W86377  24.200  30.045  13.448
25089W        W86378  44.766   0.900   4.776
25090W        W86379  25.611  38.016   0.770
25091W        W86380   9.319  33.107  14.905
25092W        W86381   0.391   4.788   3.165
25093W        W86382  34.084  34.385  12.055
25094W        W86383  37.972  20.642  14.840
25095W        W86384  13.261  16.781   4.345
25096W        W86385   1.929  19.087   4.197
25097W        W86386  27.035  25.987   2.362
25098W        W86387  20.695  28.679   1.753
25099W        W86388  40.338  32.487  14.887
25100W        W86389  20.263  35.989   0.841
25101W        W86390   2.862   1.948   2.836
25102W        W86391  18.263  30.983   0.321
25103W        W86392  28.515   6.240  10.460
25104W        W86393  29.045  12.838  13.965
25105W        W86394  40.398  21.171   2.231
25106W        W86395  38.349  40.325   0.867
25107W        W86396  43.812  17.775  12.067
25108W        W86397  44.360  36.478  12.957
25109W        W86398  26.158   0.804  11.581
25110W        W86399  26.997  42.438  14.370
25111W        W86400  17.245  14.199   3.152
25112W        W86401  39.820   8.814  14.466
25113W        W86402  43.405  34.459  13.442
25114W        W86403   8.859  37.570   2.180
25115W        W86404   7.246  31.022   2.268
25116W        W86405  12.218  27.059  11.911
25117W        W86406  29.949  26.568   1.234
25118W        W86407  21.721  14.117   2.689
25119W        W86408  21.230  17.280   2.848
25120W        W86409  30.022  32.045  11.013
25121W        W86410  25.512  27.628   2.363
25122W        W86411  39.482   8.403  11.457
25123W        W86412  39.407   5.891   2.844
25124W        W86413  33.939  36.050  12.833
25125W        W86414   2.953  15.778  11.902
25126W        W86415   5.763   1.887  13.854
25127W        W86416  24.492   8.352   9.472
25128W        W86417   3.410  19.080   4.341
25129W        W86418  20.598  43.869  14.280
25130W        W86419   3.915   8.316  11.967
25131W        W86420  18.254  31.000  13.343
25132W        W86421  12.652  14.094  14.329
25133W        W86422  19.548  29.493   0.870
25134W        W86423  21.693  41.483   2.702
25135W        W86424  35.479  40.445  14.907
25136W        W86425   2.725  28.119   4.142
25137W        W86426   3.310  14.685   5.090
25138W        W86427  16.701  27.169   2.228
25139W        W86428  13.621  29.644   4.678
25140W        W86429   5.710  25.013   0.790
25141W        W86430  14.810  10.848   0.290
25142W        W86431  20.563  34.452  12.507
25143W        W86432  21.183   7.311  11.589
25144W        W86433  33.384  35.885  14.868
25145W        W86434   2.456   6.410   0.787
25146W        W86435  29.661  40.521  14.464
25147W        W86436   7.412  24.667   2.250
25148W        W86437  41.418  12.762  12.061
25149W        W86438  16.186  42.482   3.269
25150W        W86439  13.346  28.102   3.838
25151W        W86440  40.969  19.576   3.643
25152W        W86441  41.501  12.170   3.817
25153W        W86442  36.509   9.746  11.044
25154W        W86443   2.867  19.162   0.258
25155W        W86444   4.293  37.033   2.789
25156W        W86445  34.596  37.030   4.756
25157W        W86446  34.470  32.403   4.328
25158W        W86447  33.933  38.825  12.503
25159W        W86448  28.593   2.836   2.674
25160W        W86449  25.528  14.318  12.866
25161W        W86450   5.702  38.377   0.729
25162W        W86451  39.036  27.190   1.327
25163W        W86452  14.790  17.770   4.663
25164W        W86453  35.561  22.602   2.831
25165W        W86454  12.328  22.720   2.357
25166W        W86455  26.981  24.008  12.889
25167W        W86456  19.697   1.274  12.578
25168W        W86457  43.398   6.828   4.821
25169W        W86458  13.198  14.615  11.390
25170W        W86459  21.233  26.703   2.759
25171W        W86460  14.258  29.010  11.048
25172W        W86461  11.302  39.954  14.349
25173W        W86462  36.506  43.935   1.420
25174W        W86463  43.279  27.952  12.509
25175W        W86464  13.651  35.088   4.668
25176W        W86465  32.998  35.562   0.951
25177W        W86466  11.145  30.032   1.288
25178W        W86467   3.914   2.927  13.971
25179W        W86468  28.540  35.510  12.506
25180W        W86469  20.638   6.337  12.895
25181W        W86470   5.255  14.323   5.317
25182W        W86471  13.620  43.338  10.950
25183W        W86472  18.076  24.590   0.381
25184W        W86473  39.509   3.899   1.721
25185W        W86474   3.794   6.708  14.023
25186W        W86475  25.032  35.485  10.627
25187W        W86476  10.859  29.581  13.341
25188W        W86477  13.248  11.134   3.350
25189W        W86478  26.599  31.410  10.943
25190W        W86479   1.406   0.339  12.541
25191W        W86480  21.677  41.952   3.729
25192W        W86481  13.238  29.603   1.889
25193W        W86482  26.953  18.635   1.883
25194W        W86483  27.602  24.160  11.533
25195W        W86484   1.293  17.301   2.769
25196W        W86485  27.638  11.757  11.574
25197W        W86486  11.128  42.331   4.623
25198W        W86487  22.584  24.576  13.935
25199W        W86488  20.184  42.324   4.764
25200W        W86489  21.185  41.421  10.056
25201W        W86490  17.663   2.389   0.376
25202W        W86491  23.991  34.405   4.739
25203W        W86492  15.622   8.795  13.540
25204W        W86493   6.397  26.486  13.327
25205W        W86494  30.618  11.175   0.293
25206W        W86495  13.337  34.070  14.283
25207W        W86496  39.325  11.754  11.597
25208W        W86497   1.323  13.833  11.921
25209W        W86498   2.911  32.017   3.159
25210W        W86499   8.810  25.212  12.526
25211W        W86500  37.388  41.795   0.302
25212W        W86501  33.594   9.727   0.480
25213W        W86502   7.847  16.641   4.801
25214W        W86503  12.772  26.630   2.346
25215W        W86504   5.309  32.899  10.925
25216W        W86505  26.593  12.264   1.378
25217W        W86506  41.986  29.119  10.910
25218W        W86507   6.348  32.114  14.310
25219W        W86508  27.544  26.173   0.749
25220W        W86509  33.418  24.111  12.082
25221W        W86510  28.561   2.407  12.009
25222W        W86511  32.123  30.922  11.516
25223W        W86512   4.275   7.887  12.934
25224W        W86513  41.428  13.620   1.448
25225W        W86514   2.762  42.842  14.454
25226W        W86515  15.185  29.628   3.340
25227W        W86516  28.446  11.202   3.265
25228W        W86517  24.700  31.409   2.838
25229W        W86518  32.428   3.286   2.792
25230W        W86519  24.976  27.094   1.377
25231W        W86520  10.662  25.191  12.470
25232W        W86521  36.476  18.679   5.096
25233W        W86522  21.584  18.648  12.508
25234W        W86523  35.990  10.744  10.493
25235W        W86524  35.519  13.718   1.424
25236W        W86525  37.980  36.984   2.410
25237W        W86526  25.038  26.107   0.342
25238W        W86527  25.036  37.352  12.001
25239W        W86528   3.946   3.364  10.602
25240W        W86529   1.369  31.067  13.061
25241W        W86530  44.778  25.098   1.362
25242W        W86531  19.253  15.309   1.882
25243W        W86532  38.409  17.789  11.940
25244W        W86533   8.899  39.825   4.347
25245W        W86534  15.749  35.861   4.266
25246W        W86535  41.304  26.174   3.823
25247W        W86536  36.574  43.787   0.279
25248W        W86537  41.499  18.552  13.355
25249W        W86538  24.520  42.403   4.228
25250W        W86539   6.873  18.172  14.957
25251W        W86540  18.752  29.103  12.412
25252W        W86541  31.152  33.017   3.673
25253W        W86542  43.512  22.639  14.945
25254W        W86543   8.738  12.197  13.384
25255W        W86544  41.018  29.157   1.329
25256W        W86545  43.362  15.587  13.358
25257W        W86546   4.899   0.788  12.486
25258W        W86547  41.353  17.788  14.371
25259W        W86548   5.404  18.749   3.281
25260W        W86549  39.458  40.415  14.472
25261W        W86550   7.287  33.451  14.847
25262W        W86551  20.214  31.968   4.693
25263W        W86552  33.435  40.446   2.378
25264W        W86553  12.722  26.041  12.573
25265W        W86554   9.159   3.238  13.943
25266W        W86555   1.887  17.584   2.884
25267W        W86556  40.957   3.216  14.766
25268W        W86557   2.345  32.055  11.101
25269W        W86558  32.506  28.088  11.058
25270W        W86559  41.811  40.360  11.926
25271W        W86560  31.012  22.604   0.963
25272W        W86561  26.976  41.425   4.280
25273W        W86562  22.566  42.775   2.879
25274W        W86563   1.456  18.676  11.450
25275W        W86564  36.401   0.867   1.919
25276W        W86565   7.254  44.273   0.459
25277W        W86566   5.730  39.892   1.824
25278W        W86567  26.598  22.552   0.903
25279W        W86568   5.282  33.944   0.395
25280W        W86569  33.034  20.587   4.763
25281W        W86570  28.538  41.962   3.306
25282W        W86571  16.106  32.632   3.387
25283W        W86572   3.835  19.647   4.796
25284W        W86573   2.226  21.069  10.904
25285W        W86574  34.419  29.546  12.353
25286W        W86575  30.458  38.958  11.578
25287W        W86576  15.093  24.620  10.955
25288W        W86577  38.383  38.380  11.006
25289W        W86578  33.957   5.801   3.254
25290W        W86579   4.774   8.260  12.078
25291W        W86580  33.111  30.610   3.260
25292W        W86581  29.933   0.933  11.113
25293W        W86582   4.437  12.673  13.309
25294W        W86583  41.516  35.094   1.435
25295W        W86584  42.929   8.777   1.777
25296W        W86585   8.364  44.283  12.407
25297W        W86586  22.218  24.632   1.320
25298W        W86587  14.776  35.437   1.788
25299W        W86588  26.050  28.018   3.226
25300W        W86589  34.525   4.312  14.874
25301W        W86590   8.810  26.477  10.535
25302W        W86591  32.446  42.348   2.681
25303W        W86592  36.943   6.770   4.332
25304W        W86593   6.882  11.735  11.597
25305W        W86594  42.301   4.770   3.175
25306W        W86595  42.392  37.532   4.181
25307W        W86596  39.409   0.480  12.411
25308W        W86597  11.185  10.220   0.881
25309W        W86598  38.940  19.195  14.474
25310W        W86599  12.322  30.503   1.370
25311W        W86600   9.232   1.940   1.897
25312W        W86601  15.144   7.777  14.433
25313W        W86602  41.882  17.577  10.916
25314W        W86603   2.373  38.058  14.485
25315W        W86604  24.594  42.484  10.613
25316W        W86605  20.758  19.552   3.377
25317W        W86606   3.775  18.107  10.919
25318W        W86607  39.901  28.142  11.055
25319W        W86608  31.524  17.672  12.987
25320W        W86609   1.750  16.594  13.395
25321W        W86610   4.815  14.598   1.913
25322W        W86611  27.116  31.067  14.297
25323W        W86612  20.093  33.884   4.339
25324W        W86613  42.370  11.264   3.158
25325W        W86614   0.863  30.992   0.949
25326W        W86615  29.556  16.767  13.330
25327W        W86616  22.527  17.724  13.508
25328W        W86617  14.118  40.313  12.555
25329W        W86618  16.113  30.132   1.858
25330W        W86619   7.210   8.280  11.008
25331W        W86620  26.667   1.770   3.179
25332W        W86621  44.907  18.107   1.349
25333W        W86622   9.325  27.158   4.312
25334W        W86623   9.190  33.129  13.432
25335W        W86624  11.332  39.970  10.503
25336W        W86625  32.073  10.332  14.843
25337W        W86626  39.425   3.906   2.843
25338W        W86627  16.188  17.249  14.446
25339W        W86628  13.716  21.156  11.959
25340W        W86629  42.989  16.205   0.255
25341W        W86630  30.650  32.950  11.937
25342W        W86631  19.054  34.938  11.026
25343W        W86632  18.122   2.871  11.603
25344W        W86633   9.256  11.671  14.874
25345W        W86634  14.672  28.555   2.322
25346W        W86635  44.302   6.678  11.905
25347W        W86636  38.005  38.944  14.920
25348W        W86637  16.584  29.118   3.642
25349W        W86638  19.679  21.033   2.858
25350W        W86639  28.473  40.390  11.863
25351W        W86640   8.844  41.535  13.408
25352W        W86641  37.512  43.483   4.298
25353W        W86642  29.074   7.679  14.378
25354W        W86643  23.008   5.848   1.820
25355W        W86644   0.459   8.253  12.437
25356W        W86645  32.921   6.263  14.366
25357W        W86646  27.029  15.250   3.698
25358W        W86647  22.647   7.708  11.502
25359W        W86648  14.674  44.374   2.233
25360W        W86649  16.219  10.208  13.911
25361W        W86650   6.251  29.551  10.602
25362W        W86651  17.564  33.095  11.064
25363W        W86652  19.553  40.532  14.361
25364W        W86653  44.765  20.264  11.491
25365W        W86654  22.070  18.123  14.507
25366W        W86655  42.012  12.730   1.396
25367W        W86656  18.276  43.819  11.507
25368W        W86657  22.047   3.787   2.279
25369W        W86658  19.191  14.625  13.483
25370W        W86659  17.184  40.403  12.857
25371W        W86660  36.485   5.887   4.118
25372W        W86661  15.802  22.600  13.346
25373W        W86662  21.180  26.673   2.331
25374W        W86663   0.486  36.417   1.740
25375W        W86664  16.775  10.372  12.352
25376W        W86665  25.689  10.278   3.838
25377W        W86666   1.361   5.331   2.206
25378W        W86667  18.186  34.967  13.884
25379W        W86668  21.239  37.046  11.028
25380W        W86669   4.886  38.441  13.440
25381W        W86670  15.607  33.928  14.959
25382W        W86671  31.545  42.816  12.935
25383W        W86672   1.745   2.929   0.930
25384W        W86673  42.941  35.465   1.244
25385W        W86674  38.411  21.646  14.515
25386W        W86675   5.386  31.440   2.340
25387W        W86676  27.454  40.542  11.097
25388W        W86677  26.469  42.353  12.418
25389W        W86678   4.745   0.863  11.603
25390W        W86679   1.343  44.005   4.219
25391W        W86680   8.860  40.306  12.878
25392W        W86681  32.126   1.361   5.262
25393W        W86682   8.782  22.148   0.405
25394W        W86683  40.818  32.586  11.006
25395W        W86684   0.933  43.791  10.410
25396W        W86685  31.902   5.297   2.694
25397W        W86686  32.568  42.347   3.369
25398W        W86687  40.389  26.060  12.078
25399W        W86688  15.114  39.896  10.528
25400W        W86689  33.124   5.849  11.859
25401W        W86690  14.749   1.254   1.234
25402W        W86691  11.753  30.096   0.756
25403W        W86692  36.065  43.434   2.365
25404W        W86693   8.351  44.408  13.845
25405W        W86694  25.042  19.651  12.534
25406W        W86695  42.344  28.598  13.953
25407W        W86696  22.016  24.572   3.251
25408W        W86697  24.652  27.130   2.326
25409W        W86698  37.072  31.079  11.478
25410W        W86699  12.739   4.368   0.403
25411W        W86700  42.372  36.551   0.846
25412W        W86701   4.285   6.424   2.405
25413W        W86702   9.827  34.511   2.244
25414W        W86703  27.505  37.521   1.866
25415W        W86704   6.270  44.802   0.765
25416W        W86705  27.662  33.620   1.764
25417W        W86706  40.043  14.296   3.848
25418W        W86707  10.155  34.581  11.601
25419W        W86708  42.431  40.956   0.805
25420W        W86709  10.839  26.549  12.510
25421W        W86710  23.726  29.634   4.217
25422W        W86711  24.104   4.417   2.689
25423W        W86712  26.026  10.726  11.996
25424W        W86713  35.065  14.207   2.381
25425W        W86714  27.679   2.458   1.900
25426W        W86715   0.337  17.293   0.741
25427W        W86716  23.578  32.890  12.512
25428W        W86717  11.301  31.042  12.506
25429W        W86718  40.915  37.855   3.760
25430W        W86719  34.933   5.281   2.866
25431W        W86720  11.239  22.031  12.017
25432W        W86721  33.386   6.197  14.983
25433W        W86722  23.613  26.561   4.667
25434W        W86723   9.185  15.281  13.800
25435W        W86724  43.005  31.591   1.445
25436W        W86725  18.562  32.966  13.901
25437W        W86726   1.969  31.624   2.874
25438W        W86727   8.878  41.908   1.291
25439W        W86728  26.610  31.645   0.424
25440W        W86729  27.626  18.627  10.900
25441W        W86730  31.568  40.864  13.009
25442W        W86731  26.023  25.207   3.298
25443W        W86732  39.468  24.085  13.538
25444W        W86733  20.209  21.138   0.467
25445W        W86734   2.962  33.965   0.369
25446W        W86735  41.368  19.210  14.027
25447W        W86736  32.920   2.275   2.244
25448W        W86737   9.836  25.545   3.207
25449W        W86738  13.714  23.161   2.706
25450W        W86739  29.063  38.333   1.305
25451W        W86740  18.211   5.931   4.714
25452W        W86741  27.027  25.514   0.357
25453W        W86742  10.801  37.572  11.902
25454W        W86743  12.232  10.656  14.846
25455W        W86744   8.391  31.452   4.297
25456W        W86745   0.484  16.258  11.398
25457W        W86746  16.251   2.808  10.542
25458W        W86747  16.628  27.002   3.378
25459W        W86748   5.702   9.703  14.878
25460W        W86749   1.815  39.447  10.538
25461W        W86750  16.597  30.033  10.917
25462W        W86751  18.704  10.286   3.823
25463W        W86752  15.110  26.533  11.905
25464W        W86753  41.521  16.811  13.058
25465W        W86754  12.847  29.977   0.342
25466W        W86755   7.410  32.532   3.357
25467W        W86756  11.758  14.613   0.306
25468W        W86757   7.879  23.133   4.142
25469W        W86758  30.946  42.007   4.325
25470W        W86759  14.286   7.814  14.507
25471W        W86760  29.072  30.912  13.990
25472W        W86761  21.624  39.877  10.504
25473W        W86762  13.117  22.100  12.352
25474W        W86763  42.809   7.863  10.954
25475W        W86764  40.492  29.052   0.459
25476W        W86765  20.193  34.466  14.339
25477W        W86766  11.775  41.535   0.935
25478W        W86767  42.777  11.864   3.700
25479W        W86768  42.408  18.713   4.785
25480W        W86769  27.597  38.840   1.821
25481W        W86770   5.364  13.282   3.685
25482W        W86771   4.734  15.171  14.773
25483W        W86772   1.752  14.259  11.406
25484W        W86773  29.932  11.306  11.473
25485W        W86774  28.553  30.607  10.557
25486W        W86775  14.622  44.972  14.800
25487W        W86776  39.421  28.548   3.671
25488W        W86777  14.741  35.063  12.095
25489W        W86778  33.963   4.888  12.948
25490W        W86779  18.656  38.863   0.850
25491W        W86780  40.523  43.423  10.408
25492W        W86781   5.386  10.271   1.350
25493W        W86782  22.119  18.148   3.848
25494W        W86783  21.152  20.119   4.249
25495W        W86784  39.938   8.201   4.205
25496W        W86785  44.426  36.981   3.260
25497W        W86786  30.097   2.345   3.315
25498W        W86787   5.875  35.407  13.335
25499W        W86788  29.944   3.810   0.271
25500W        W86789   0.903  10.233   4.789
25501W        W86790  22.529  25.558   1.362
25502W        W86791  31.985  17.583  14.365
25503W        W86792  25.575  34.056  10.567
25504W        W86793  20.648  29.052   0.407
25505W        W86794   5.828  27.999  13.043
25506W        W86795   8.224  14.151  11.506
25507W        W86796  13.192  25.098  10.962
25508W        W86797  12.252  36.923  11.908
25509W        W86798   7.741  22.737  14.914
25510W        W86799  12.343  26.517   1.870
25511W        W86800   6.337   3.241   3.669
25512W        W86801  10.244  30.504   4.838
25513W        W86802  37.957  13.142   0.965
25514W        W86803  30.589   2.365  10.033
25515W        W86804  43.899  30.074  13.875
25516W        W86805  43.881  41.483  13.371
25517W        W86806  22.698   3.458  12.544
25518W        W86807  30.074  17.683   3.205
25519W        W86808  18.621  39.428   1.884
25520W        W86809  40.929  15.265  10.432
25521W        W86810  15.086  39.441  14.454
25522W        W86811  26.614  36.362  11.987
25523W        W86812   1.289  17.280  11.399
25524W        W86813   2.857  25.200   2.407
25525W        W86814  25.053   4.930  10.087
25526W        W86815   4.867   5.288  10.518
25527W        W86816  37.936  14.129  14.775
25528W        W86817  20.578  40.878   2.416
25529W        W86818   1.959  38.844  14.927
25530W        W86819  27.952   6.318  11.443
25531W        W86820  42.973  39.401   1.842
25532W        W86821  36.522  37.563   2.231
25533W        W86822  38.465  31.930  11.902
25534W        W86823   5.932  10.803   2.703
25535W        W86824  37.337   1.945   2.795
25536W        W86825  44.857  37.934  13.839
25537W        W86826  36.950  24.058   1.717
25538W        W86827  26.165  28.663   0.351
25539W        W86828   6.357   2.868  13.989
25540W        W86829  43.007  11.293  10.578
25541W        W86830  39.855  35.971   4.237
25542W        W86831  17.099  11.240   0.731
25543W        W86832   1.975  27.467   0.763
25544W        W86833  43.825  28.439  10.545
25545W        W86834  19.768   4.311   1.269
25546W        W86835  35.978   3.736  12.070
25547W        W86836   8.184   0.301   5.246
25548W        W86837  41.384  13.308   0.952
25549W        W86838  29.628   4.933   1.359
25550W        W86839  44.461   0.395   3.714
25551W        W86840  31.059   1.800   2.311
25552W        W86841  36.430  11.177   0.253
25553W        W86842   4.784  44.446  12.886
25554W        W86843  40.868  26.088   3.285
25555W        W86844  24.094  15.695  10.599
25556W        W86845   1.765  38.371  14.776
25557W        W86846   2.342  13.742  14.969
25558W        W86847   3.777  42.963  11.386
25559W        W86848  21.215  13.633   0.884
25560W        W86849  34.088  30.987   1.249
25561W        W86850  16.165  19.614   0.872
25562W        W86851   9.365   1.427   2.312
25563W        W86852   5.909   8.680  14.773
25564W        W86853  39.002  37.858  13.794
25565W        W86854  30.557  29.920   4.787
25566W        W86855  44.273  27.578  13.922
25567W        W86856  16.675  26.137   0.313
25568W        W86857   2.452  31.036   3.816
25569W        W86858   3.831  32.135  12.518
25570W        W86859  40.342  29.512   0.348
25571W        W86860   0.252  25.641   4.288
25572W        W86861  18.180  12.837   3.762
25573W        W86862  41.332   5.408  12.995
25574W        W86863  35.001  28.077   3.631
25575W        W86864  16.245   5.913   1.310
25576W        W86865  30.154  28.471   3.387
25577W        W86866   0.826  37.898  14.810
25578W        W86867   2.346  31.077   1.718
25579W        W86868  24.655  23.227  14.446
25580W        W86869  10.324  24.209   1.380
25581W        W86870  29.162  28.088   4.618
25582W        W86871  17.728  31.570   0.935
25583W        W86872   9.197  28.596   0.264
25584W        W86873  34.910  22.741   1.783
25585W        W86874  41.530  38.987   3.202
25586W        W86875   5.287   7.853   2.865
25587W        W86876   9.827  21.097   4.233
25588W        W86877  42.882  30.102  12.512
25589W        W86878  42.426  11.337   4.335
25590W        W86879  13.247  44.363   2.285
25591W        W86880  11.139   3.229  12.034
25592W        W86881   7.415  11.245   3.189
25593W        W86882  10.664   0.940  14.824
25594W        W86883  35.582  15.138   0.425
25595W        W86884  15.675  24.641  12.525
25596W        W86885  30.543  36.501  11.084
25597W        W86886  13.701   9.699   4.674
25598W        W86887  30.454  25.474   2.288
25599W        W86888  31.477   0.911  12.488
25600W        W86889  10.211  25.641   1.400
25601W        W86890   7.706  44.769   3.285
25602W        W86891  41.858  38.043  12.971
25603W        W86892  14.791   1.280  12.385
25604W        W86893  21.676  34.900  14.810
25605W        W86894  32.620   4.740   2.797
25606W        W86895  18.627  21.522   2.795
25607W        W86896  33.020   0.775  10.542
25608W        W86897  13.253   4.384  12.439
25609W        W86898  29.495  23.655   4.639
25610W        W86899  41.977  32.535  13.889
25611W        W86900   7.782  21.225   0.399
25612W        W86901  42.859   2.955  13.024
25613W        W86902  36.868  24.678  13.400
25614W        W86903  44.375  20.214   1.320
25615W        W86904  22.054  40.418  11.601
25616W        W86905  40.834  18.552  11.418
25617W        W86906  36.583  44.287   1.333
25618W        W86907  18.585  18.746  11.035
25619W        W86908  27.563  44.801  11.598
25620W        W86909   4.254   0.876  14.845
25621W        W86910   3.769  26.188  10.580
25622W        W86911  24.180  17.085   0.794
25623W        W86912  12.626  20.140   2.387
25624W        W86913  42.297  26.586  12.059
25625W        W86914  25.067  16.241  13.793
25626W        W86915   7.321  26.150   1.910
25627W        W86916   0.379   3.423   4.838
25628W        W86917  24.617   4.728   3.687
25629W        W86918  33.472  19.065   3.313
25630W        W86919  18.636  29.580   2.689
25631W        W86920  10.696  19.705   2.832
25632W        W86921   7.279   8.309   4.256
25633W        W86922  35.082  22.603  14.329
25634W        W86923  31.055  42.438  10.980
25635W        W86924  28.484   4.732   2.758
25636W        W86925  39.028  19.245  10.590
25637W        W86926  38.931  39.515   3.838
25638W        W86927  43.483  20.547   0.766
25639W        W86928   2.336  19.659  11.900
25640W        W86929   1.839  37.897  13.055
25641W        W86930  34.931  26.136  10.553
25642W        W86931  11.786  44.387   1.423
25643W        W86932  11.680  44.463   5.307
25644W        W86933  12.166  20.208   0.416
25645W        W86934  43.984  21.681  14.283
25646W        W86935  33.607  37.850   4.135
25647W        W86936  41.509  37.413   4.834
25648W        W86937  33.508  22.643  13.332
25649W        W86938  24.527  44.437  14.968
25650W        W86939  39.325  28.630   3.170
25651W        W86940  15.155  25.696  11.884
25652W        W86941  15.725  20.691   0.357
25653W        W86942  12.305  23.207   4.235
25654W        W86943  24.152  20.113   0.415
25655W        W86944  39.371  15.742   1.918
25656W        W86945   4.230  30.459  11.872
25657W        W86946  37.420  22.178   1.446
25658W        W86947  35.972   3.452   1.782
25659W        W86948   0.888  12.614   5.095
25660W        W86949   8.275  43.959  13.382
25661W        W86950   6.381  29.529  11.516
25662W        W86951  12.186  18.639   4.786
25663W        W86952  12.693  31.925  10.499
25664W        W86953  33.522  24.074   4.831
25665W        W86954  40.481  31.407  11.470
25666W        W86955  21.027  38.829   4.601
25667W        W86956   3.746  27.544   0.298
25668W        W86957  29.152  37.901  13.474
25669W        W86958  36.880  21.227  11.582
25670W        W86959  34.888  31.133   0.406
25671W        W86960  28.678  24.075  14.953
25672W        W86961  31.409  24.642   2.677
25673W        W86962  18.264   5.332   2.314
25674W        W86963  16.315   4.265  13.548
25675W        W86964  41.893  40.340   4.265
25676W        W86965  11.201  35.860  14.299
25677W        W86966  11.189  22.544  11.571
25678W        W86967   1.452  29.032   3.289
25679W        W86968  36.458  35.526   2.887
25680W        W86969   3.367  34.386  12.381
25681W        W86970   1.740   4.825   3.802
25682W        W86971  43.960  32.026  14.337
25683W        W86972  28.461   5.881  10.597
25684W        W86973  19.665   8.185  11.881
25685W        W86974  16.220   1.321   0.417
25686W        W86975  30.021   8.239  12.482
25687W        W86976  14.185  15.262  10.984
25688W        W86977  44.921  41.337   4.332
25689W        W86978  18.112  37.837   0.359
25690W        W86979  37.060  20.768   2.844
25691W        W86980  19.573  18.280   2.191
25692W        W86981   5.694  35.921   3.701
25693W        W86982  34.019   5.835   4.144
25694W        W86983  26.203   7.886  11.874
25695W        W86984   0.313  18.601  13.889
25696W        W86985   2.944  14.113   4.284
25697W        W86986  44.371   3.379  11.611
25698W        W86987   2.331   4.373   3.291
25699W        W86988  40.381  14.831   4.802
25700W        W86989  17.074   5.723   1.852
25701W        W86990  12.131  21.636   4.709
25702W        W86991  24.014  12.319  13.960
25703W        W86992  26.537  14.139   3.157
25704W        W86993  16.294  18.262  14.877
25705W        W86994   9.338  13.833  10.636
25706W        W86995  18.088   9.331   2.782
25707W        W86996  13.234  37.942   9.625
25708W        W86997   9.251   3.280  12.925
25709W        W86998  43.847  37.980   4.767
25710W        W86999  33.429   1.312  10.611
25711W        W87000  33.557  15.718  14.414
25712W        W87001  43.792  16.118  12.829
25713W        W87002  30.990   8.742   5.167
25714W        W87003  41.332  11.693  14.323
25715W        W87004  30.946  13.257  11.990
25716W        W87005  34.587  39.885   3.845
25717W        W87006  33.570  32.886  10.557
25718W        W87007  22.173  24.163   2.268
25719W        W87008  31.622  24.002  12.511
25720W        W87009   5.284  38.918   3.366
25721W        W87010  18.248   5.268  11.062
25722W        W87011   9.202  14.611   2.768
25723W        W87012  27.162  11.166  10.417
25724W        W87013  24.662  44.853   1.269
25725W        W87014  20.271  23.522   0.361
25726W        W87015  32.909   6.208   4.730
25727W        W87016  15.780  30.942   4.715
25728W        W87017  39.894   9.253   0.875
25729W        W87018  41.880  40.880  13.404
25730W        W87019  12.199   0.806  14.364
25731W        W87020  24.656  18.627   2.238
25732W        W87021  14.610  30.164   0.328
25733W        W87022   0.761  10.644  11.437
25734W        W87023  27.523   0.310   1.913
25735W        W87024  32.628  28.096  13.991
25736W        W87025   3.445  17.754   4.714
25737W        W87026  31.923  40.987  14.412
25738W        W87027  12.222  18.088  12.526
25739W        W87028  20.641   2.339   2.871
25740W        W87029   3.438  32.435   1.725
25741W        W87030   8.847  38.839   1.720
25742W        W87031   6.216  37.069   1.838
25743W        W87032  31.007  32.585  10.929
25744W        W87033  31.556  26.164   0.305
25745W        W87034   0.467  22.116  13.469
25746W        W87035   9.268  23.508  11.429
25747W        W87036   4.435  43.376   0.853
25748W        W87037  42.391  40.423  12.055
25749W        W87038  36.937  21.234   3.273
25750W        W87039   6.399  18.759  11.444
25751W        W87040  24.631  41.532   1.696
25752W        W87041   9.336  39.953   2.404
25753W        W87042  43.803  27.043  12.932
25754W        W87043  10.815  25.974  14.787
25755W        W87044  41.891  31.435   2.413
25756W        W87045  38.911  14.094  10.089
25757W        W87046   8.686  29.000   3.801
25758W        W87047  42.994  35.360  13.050
25759W        W87048  15.785  30.427  14.814
25760W        W87049  22.246  17.641  13.973
25761W        W87050  10.691  25.170   0.932
25762W        W87051  20.072  13.220   0.341
25763W        W87052   0.477  26.481   1.437
25764W        W87053   1.826  25.579  10.462
25765W        W87054   2.757  14.227   0.398
25766W        W87055  15.784   6.708   4.143
25767W        W87056   3.807  43.854   2.722
25768W        W87057  26.697  29.551  10.643
25769W        W87058  22.552  35.964   3.866
25770W        W87059  17.108  22.739   1.415
25771W        W87060   4.871  33.483  11.023
25772W        W87061  23.072  36.016  11.929
25773W        W87062   2.359  23.562  11.528
25774W        W87063   6.759  18.119   0.245
25775W        W87064   4.391  37.343   0.480
25776W        W87065  16.737  22.738   2.783
25777W        W87066   2.803   0.932   4.671
25778W        W87067  18.231  27.148  13.447
25779W        W87068  41.515  41.425  13.479
25780W        W87069   8.736  19.090  14.420
25781W        W87070  18.759  28.526  14.387
25782W        W87071  13.626  36.429  13.967
25783W        W87072  39.004  27.195  13.007
25784W        W87073  24.706  18.233   4.271
25785W        W87074  11.757  11.798  11.107
25786W        W87075  36.847  34.579   3.250
25787W        W87076  21.628   8.404  14.953
25788W        W87077   7.885  15.248  12.062
25789W        W87078  22.227  32.636   4.660
25790W        W87079  12.650   9.703   2.192
25791W        W87080  25.128  16.729  14.838
25792W        W87081  16.768  12.188  14.372
25793W        W87082  10.272   1.855  10.588
25794W        W87083  41.375  22.184   1.868
25795W        W87084  39.367  21.670   0.454
25796W        W87085  18.147  18.265   1.784
25797W        W87086  42.334  43.941   2.292
25798W        W87087  16.638  35.485  10.440
25799W        W87088  36.033  32.965  14.799
25800W        W87089  38.842  30.424   9.962
25801W        W87090  25.066  40.537   5.309
25802W        W87091   2.379  43.913  14.362
25803W        W87092  10.692  23.708  14.475
25804W        W87093   0.269   4.921  10.956
25805W        W87094   7.309  19.646  14.924
25806W        W87095  37.998  35.466  14.438
25807W        W87096  37.394  13.650  12.018
25808W        W87097  25.634  23.576  12.899
25809W        W87098  39.999  17.164  13.985
25810W        W87099  21.160  13.635   2.783
25811W        W87100  39.879  26.960  13.932
25812W        W87101  13.643   8.818   0.943
25813W        W87102  17.101   5.901  12.839
25814W        W87103  28.459   0.945  12.956
25815W        W87104  25.984   7.296   4.817
25816W        W87105  44.462  11.216  14.938
25817W        W87106  40.834  15.701  13.831
25818W        W87107  20.248  15.119  14.353
25819W        W87108  39.488   2.949  13.941
25820W        W87109  25.057  39.983   2.853
25821W        W87110  38.028  21.140  13.831
25822W        W87111  14.674  30.487  12.011
25823W        W87112   6.349  27.946   2.728
25824W        W87113  29.447   3.858  14.998
25825W        W87114  28.178  18.579   0.254
25826W        W87115  43.786   9.685   3.671
25827W        W87116  34.565  32.465   1.221
25828W        W87117  24.723  37.348   2.324
25829W        W87118  19.648   9.887  11.960
25830W        W87119  32.043  16.126   1.832
25831W        W87120   4.374  40.431   3.639
25832W        W87121  34.969  13.736  14.471
25833W        W87122  12.351  18.704  14.821
25834W        W87123  28.501  22.735   3.631
25835W        W87124  31.495   1.454  14.510
25836W        W87125  28.550  18.768  13.408
25837W        W87126  36.933  20.032  13.996
25838W        W87127  21.669  34.870   4.168
25839W        W87128  33.618  34.549   2.801
25840W        W87129   2.911  43.925  14.805
25841W        W87130   2.914  25.572   4.293
25842W        W87131  35.455  17.562  14.909
25843W        W87132  43.979  28.931  13.837
25844W        W87133  30.954  22.127  12.884
25845W        W87134  24.992  42.401   0.741
25846W        W87135  40.420  23.549  13.323
25847W        W87136  16.693  35.538  12.986
25848W        W87137  28.560  29.038   4.137
25849W        W87138  23.667  28.441   2.239
25850W        W87139  24.496  20.633   9.591
25851W        W87140  39.876   3.867   0.817
25852W        W87141  43.858  42.282  11.124
25853W        W87142  38.954  33.405  13.002
25854W        W87143  43.448  18.296  11.109
25855W        W87144  19.053   9.748   0.359
25856W        W87145   6.311   6.244   2.298
25857W        W87146  19.279   8.325   0.400
25858W        W87147  40.905  34.014  14.923
25859W        W87148  19.641  39.972   3.741
25860W        W87149  44.389   8.805  12.424
25861W        W87150  13.679  24.643   2.311
25862W        W87151   3.458   9.855   3.734
25863W        W87152  20.677  23.219   0.305
25864W        W87153  35.365   2.753   1.375
25865W        W87154  14.275   3.748  12.921
25866W        W87155  40.823  10.637  12.549
25867W        W87156  37.577  12.167  11.861
25868W        W87157  10.748   7.216  13.420
25869W        W87158  42.440  14.136  14.910
25870W        W87159   2.449  34.024   2.846
25871W        W87160  13.793  27.584  11.075
25872W        W87161  31.909  32.083   2.815
25873W        W87162  37.386  13.611   2.399
25874W        W87163  37.412  20.614   0.786
25875W        W87164  10.268  24.707  10.941
25876W        W87165  29.486  18.747  11.519
25877W        W87166   0.932  15.700   3.242
25878W        W87167  26.657   7.864   9.467
25879W        W87168  41.965  13.732   4.798
25880W        W87169  30.539   7.907  12.492
25881W        W87170  23.188  10.746   0.402
25882W        W87171   3.253   9.714   4.652
25883W        W87172   7.882  26.172   4.657
25884W        W87173  36.478  33.546   2.709
25885W        W87174  20.159  41.429  14.029
25886W        W87175  28.668  29.604  14.347
25887W        W87176   2.793  12.129   4.221
25888W        W87177  37.476  30.133   4.227
25889W        W87178  19.270  34.116  10.979
25890W        W87179  10.328  29.549   0.768
25891W        W87180  18.770  29.004  10.605
25892W        W87181  44.370  14.156   1.842
25893W        W87182  39.911  17.622  11.957
25894W        W87183  20.718   3.416  11.489
25895W        W87184  30.907  44.368   4.654
25896W        W87185  17.676  34.539   0.804
25897W        W87186   3.342  32.391   1.320
25898W        W87187  41.980   8.162   3.211
25899W        W87188   4.297  25.501  12.449
25900W        W87189  31.004  30.418  12.499
25901W        W87190  29.432  33.401  12.836
25902W        W87191  25.151  39.498   0.739
25903W        W87192  20.565   1.819   3.714
25904W        W87193  23.092  10.232  12.508
25905W        W87194  18.249  32.588  12.072
25906W        W87195  23.141  42.482   2.398
25907W        W87196   6.226  21.750   4.687
25908W        W87197   2.909  41.514  13.519
25909W        W87198  35.423   3.306   2.668
25910W        W87199  33.537   6.325   1.270
25911W        W87200  30.646   8.247   2.267
25912W        W87201  25.120  37.467  13.525
25913W        W87202  13.343  28.170  10.583
25914W        W87203   5.219   8.860  13.439
25915W        W87204   9.154  31.103   1.435
25916W        W87205  37.357  33.132   2.828
25917W        W87206  16.183  10.749  11.899
25918W        W87207   5.737  10.874  14.931
25919W        W87208  44.371  37.077  10.479
25920W        W87209  34.507  22.123  13.052
25921W        W87210  24.646  28.020  13.382
25922W        W87211  42.848   7.302  11.571
25923W        W87212  24.709  33.043   4.818
25924W        W87213  35.952  38.459  10.641
25925W        W87214  38.444  34.575   4.744
25926W        W87215   3.243   2.259  10.506
25927W        W87216  14.778  26.192   0.356
25928W        W87217  19.588  25.482   0.937
25929W        W87218   5.199  12.136  13.961
25930W        W87219  20.175  38.544   0.939
25931W        W87220  29.160  25.042   0.462
25932W        W87221  16.643   5.822  10.910
25933W        W87222  39.843  42.840   3.673
25934W        W87223  33.490  21.741  10.960
25935W        W87224  14.624  16.632   0.245
25936W        W87225   6.378  28.084  13.456
25937W        W87226  20.148  15.228  14.832
25938W        W87227  13.350  18.719  11.090
25939W        W87228   4.825  42.491  10.944
25940W        W87229  10.316  43.995  12.866
25941W        W87230  29.546  14.130  12.920
25942W        W87231  12.784  37.994  14.823
25943W        W87232  30.087  34.596   2.395
25944W        W87233  19.124  36.905   2.892
25945W        W87234  17.134  18.691   2.810
25946W        W87235  38.018  42.003  11.890
25947W        W87236  17.249  21.201  13.367
25948W        W87237  19.622  39.549  13.440
25949W        W87238  36.470  22.595  10.437
25950W        W87239  34.461   0.473   5.309
25951W        W87240  15.082  43.505   3.637
25952W        W87241  26.187  11.712  12.068
25953W        W87242  39.361  37.568   4.697
25954W        W87243  19.694  32.402  13.019
25955W        W87244  14.263   0.850   9.964
25956W        W87245  25.487   5.411   2.867
25957W        W87246  38.869  27.992   1.898
25958W        W87247  42.883  20.739  14.390
25959W        W87248  21.204  22.611  13.977
25960W        W87249   5.374  40.504  11.473
25961W        W87250  31.639  18.129  13.011
25962W        W87251  19.254  39.477  11.549
25963W        W87252   0.751  17.240   1.410
25964W        W87253  28.639  21.248   0.959
25965W        W87254  19.217  16.272   4.600
25966W        W87255   9.856  10.788  13.816
25967W        W87256  15.654  37.478  11.591
25968W        W87257  41.925   6.313  12.394
25969W        W87258  37.032  44.008  10.955
25970W        W87259   1.464  32.903   3.763
25971W        W87260  32.078  43.890  14.850
25972W        W87261  30.047  35.001   4.347
25973W        W87262   5.431  42.966  12.345
25974W        W87263  32.895  14.751  12.005
25975W        W87264  32.485   5.854  14.314
25976W        W87265  24.488   8.238  12.444
25977W        W87266  16.706  19.218   3.304
25978W        W87267  13.170  38.494  12.827
25979W        W87268  42.420  41.367  13.794
25980W        W87269  23.635  21.225  13.432
25981W        W87270  35.586  35.424   4.792
25982W        W87271   5.834  34.984   1.346
25983W        W87272   5.223  17.248   2.853
25984W        W87273  29.565  17.690   3.668
25985W        W87274  25.034  15.604  12.057
25986W        W87275   5.217  35.928  11.983
25987W        W87276   0.758  23.208  12.462
25988W        W87277   5.707   0.426  11.486
25989W        W87278  37.572  39.397   4.119
25990W        W87279  33.924  37.061   2.807
25991W        W87280  40.536  36.997   4.313
25992W        W87281  41.958  17.665   1.225
25993W        W87282  16.286  29.108  14.923
25994W        W87283  40.849  29.106  14.494
25995W        W87284   7.860  12.280   2.240
25996W        W87285  28.955   7.373   1.287
25997W        W87286  31.071  15.788   3.643
25998W        W87287  42.918  30.556   1.427
25999W        W87288  21.612  31.082  11.522
26000W        W87289  43.806   6.296  13.887
26001W        W87290  18.703  34.385  12.836
26002W        W87291  37.573   7.841   1.862
26003W        W87292   4.866  12.261   1.746
26004W        W87293  14.270   1.381   5.570
26005W        W87294  34.977  39.335  12.514
26006W        W87295  21.721  30.974   0.454
26007W        W87296  34.574  29.989  11.475
26008W        W87297  32.910  23.675  10.921
26009W        W87298  42.350  31.142   2.806
26010W        W87299  19.713  42.826   1.891
26011W        W87300  36.454   6.797  10.479
26012W        W87301  14.251  30.555   3.372
26013W        W87302  44.479  39.530   3.720
26014W        W87303  27.548   2.401   2.211
26015W        W87304  16.118  19.590   3.238
26016W        W87305  24.216  19.716   1.706
26017W        W87306   9.209   6.365  12.947
26018W        W87307  20.650  18.186  12.571
26019W        W87308   4.296  24.022  10.952
26020W        W87309  34.372   0.306   2.742
26021W        W87310  27.633   4.360   4.196
26022W        W87311  43.364  32.392  12.875
26023W        W87312   5.903  11.621  14.985
26024W        W87313  18.735   6.679   3.655
26025W        W87314   0.363  14.152   4.695
26026W        W87315  10.824   4.860  13.923
26027W        W87316   4.810   6.422  12.991
26028W        W87317  10.832  31.987  12.878
26029W        W87318  35.094  42.802  14.328
26030W        W87319  24.487  12.166  12.029
26031W        W87320  29.528  25.061   0.906
26032W        W87321   5.334  39.935   1.351
26033W        W87322   8.758  34.903  13.796
26034W        W87323  37.087   3.753   2.282
26035W        W87324  28.054  42.504  14.846
26036W        W87325  31.406  29.599  10.608
26037W        W87326   9.341   5.815  10.490
26038W        W87327  10.373  34.521  13.336
26039W        W87328  18.671  26.199   2.819
26040W        W87329  12.148  27.123   1.914
26041W        W87330   5.769  36.963   3.770
26042W        W87331  20.538  35.518   4.262
26043W        W87332  34.609  22.250  10.535
26044W        W87333   3.716  27.977   2.893
26045W        W87334  29.632  30.939   0.803
26046W        W87335  27.505   0.882   1.845
26047W        W87336  18.622   5.235   0.731
26048W        W87337  22.996  21.097  10.414
26049W        W87338  23.731  34.897  13.995
26050W        W87339  24.145  20.726   3.769
26051W        W87340  40.980  42.511   0.781
26052W        W87341   5.360  19.154  12.500
26053W        W87342  34.429  23.100  14.764
26054W        W87343   8.260  30.566  12.478
26055W        W87344  38.328  31.943   1.332
26056W        W87345  31.542  32.896   2.892
26057W        W87346  22.241  10.180  10.467
26058W        W87347  34.967  31.042   4.118
26059W        W87348  20.227  42.434   3.693
26060W        W87349   8.789  27.564   1.252
26061W        W87350  31.061   6.342  13.317
26062W        W87351  13.783   9.715   2.305
26063W        W87352  42.989   7.753   3.323
26064W        W87353  31.424   1.967  11.924
26065W        W87354   2.763  35.865   0.833
26066W        W87355  11.784  32.908  13.390
26067W        W87356  20.147  25.071  11.597
26068W        W87357   5.771  37.872  12.072
26069W        W87358   6.296  42.377   4.285
26070W        W87359  10.181  12.749  14.436
26071W        W87360  32.977   3.908  14.309
26072W        W87361  36.907  11.261   4.146
26073W        W87362  29.928  42.822   3.149
26074W        W87363  26.162  40.830   0.265
26075W        W87364  29.087  44.474   4.179
26076W        W87365  34.391  30.525  14.963
26077W        W87366   9.653  37.379   0.935
26078W        W87367   1.379  42.830  13.880
26079W        W87368  32.436  14.309  11.451
26080W        W87369  13.763  24.523   4.774
26081W        W87370   9.211  44.395  11.478
26082W        W87371  36.445   1.286   0.315
26083W        W87372  17.186  44.346  14.979
26084W        W87373  35.577  22.190  11.519
26085W        W87374  43.943  26.564   4.145
26086W        W87375  42.859  13.601   3.331
26087W        W87376  17.146   8.829  14.780
26088W        W87377  21.205   7.226   2.219
26089W        W87378  17.193  10.743   2.854
26090W        W87379  35.040  23.027   4.782
26091W        W87380  22.692  11.762   4.264
26092W        W87381  27.119   5.229  10.981
26093W        W87382  23.583  38.364  12.054
26094W        W87383  44.891  30.928   0.372
26095W        W87384   4.718  28.608   3.693
26096W        W87385  14.337   7.865   2.243
26097W        W87386  34.110   4.868  14.459
26098W        W87387  13.129  32.077   5.313
26099W        W87388  12.256  26.506  14.345
26100W        W87389  37.554  41.945  14.346
26101W        W87390  15.691   5.222   0.270
26102W        W87391  23.630  14.769   0.787
26103W        W87392  14.288  14.728  13.506
26104W        W87393  39.943  40.805   1.324
26105W        W87394   9.823   8.812   2.276
26106W        W87395  39.481   4.930  12.454
26107W        W87396   1.306   3.852  13.435
26108W        W87397  24.648  19.673   2.874
26109W        W87398   3.364  16.109  10.978
26110W        W87399  43.274  38.908  11.025
26111W        W87400  32.545  13.186   3.185
26112W        W87401  44.311  14.603  11.529
26113W        W87402  30.579  15.678  10.893
26114W        W87403  30.451  11.810  13.839
26115W        W87404   9.218  40.939   1.350
26116W        W87405  31.079  36.518  13.051
26117W        W87406  23.522  10.303   4.650
26118W        W87407  22.501   3.425  10.938
26119W        W87408  27.158  41.371  13.443
26120W        W87409  41.827  18.219   4.205
26121W        W87410  29.117  21.047  11.457
26122W        W87411  23.166  21.187   5.089
26123W        W87412  27.025  10.664   0.872
26124W        W87413  14.789  36.411  10.534
26125W        W87414  16.225  23.703  13.494
26126W        W87415  40.038  36.919  12.353
26127W        W87416  34.399  33.889  14.775
26128W        W87417  24.974  32.574   4.173
26129W        W87418   5.421   3.312   2.785
26130W        W87419   0.888   2.408   0.839
26131W        W87420  23.058   6.203  10.463
26132W        W87421  44.805  18.215   4.320
26133W        W87422  22.253  35.441  12.908
26134W        W87423   5.352  34.484   4.189
26135W        W87424  20.154   2.234  14.316
26136W        W87425   7.246  32.928   4.350
26137W        W87426   1.452  39.471  14.395
26138W        W87427  32.468  43.991  11.512
26139W        W87428  13.744  12.780   0.731
26140W        W87429  41.032  26.171  13.025
26141W        W87430   3.900  11.770  11.956
26142W        W87431   7.774  15.194  10.549
26143W        W87432  40.483   3.840  11.503
26144W        W87433  22.551  26.596  11.509
26145W        W87434  19.677   4.894  14.975
26146W        W87435  42.448  40.802  14.358
26147W        W87436  18.575  37.859  11.972
26148W        W87437  28.027  16.813  14.276
26149W        W87438   4.709   8.366  14.494
26150W        W87439  26.651  23.026   5.137
26151W        W87440  31.452  27.111  10.499
26152W        W87441  10.186   8.280  12.898
26153W        W87442   9.215   1.347   1.356
26154W        W87443  43.936  43.804  12.900
26155W        W87444  25.106  24.719  11.984
26156W        W87445  33.972  32.040  12.866
26157W        W87446  22.733   1.784  12.498
26158W        W87447   4.904  22.226   2.329
26159W        W87448  40.325  44.302   4.240
26160W        W87449  17.588  12.329  13.896
26161W        W87450  29.555   6.914  10.153
26162W        W87451  11.631  44.315  11.864
26163W        W87452  32.140  16.786   4.636
26164W        W87453   2.368   2.361  14.347
26165W        W87454  27.691  42.984   4.344
26166W        W87455  23.227  40.852   3.285
26167W        W87456  22.699  29.030   3.207
26168W        W87457   5.342   0.461  10.586
26169W        W87458  41.526  14.333  11.479
26170W        W87459  35.102  14.114  13.938
26171W        W87460   5.711  33.929  12.342
26172W        W87461  34.603  16.722  11.884
26173W        W87462  13.249   4.768   3.176
26174W        W87463  14.594   6.308   3.372
26175W        W87464  27.137  16.643   1.711
26176W        W87465  31.918   3.252  13.945
26177W        W87466  44.805  42.898  12.076
26178W        W87467  22.621  36.348   4.321
26179W        W87468  23.986  43.333   1.386
26180W        W87469  42.462  28.996  13.950
26181W        W87470   4.724   4.897  10.994
26182W        W87471  21.655  40.843   4.798
26183W        W87472  12.634  15.163   1.418
26184W        W87473  37.990  36.879   4.644
26185W        W87474  24.008  20.723   0.256
26186W        W87475  42.497   7.746   5.635
26187W        W87476  37.861  29.147   0.335
26188W        W87477  44.936  23.489   2.292
26189W        W87478  44.991   4.357  13.309
26190W        W87479  10.141  27.623   1.248
26191W        W87480   3.268  14.707   4.278
26192W        W87481  23.657  14.291   0.912
26193W        W87482  18.168  30.141  14.946
26194W        W87483  31.995  14.712   3.728
26195W        W87484  10.835   9.305   0.388
26196W        W87485  24.188   6.905   1.360
26197W        W87486  16.114  11.196  13.828
26198W        W87487  23.124  36.077   4.207
26199W        W87488   3.884  44.411  14.425
26200W        W87489  20.763  41.789  13.440
26201W        W87490  30.573  23.157  14.434
26202W        W87491  10.360  11.355  13.439
26203W        W87492  38.076  17.183   1.326
26204W        W87493  24.596  30.418  11.891
26205W        W87494  35.602  27.669   1.354
26206W        W87495  11.341  29.937   2.408
26207W        W87496  21.211  24.558   2.684
26208W        W87497  15.294  19.779   3.836
26209W        W87498  20.618   7.409  12.536
26210W        W87499   5.260  30.147   0.414
26211W        W87500  26.582  37.547  12.998
26212W        W87501  28.672  14.788   1.276
26213W        W87502   2.298  40.854  14.504
26214W        W87503  20.107   0.367   1.215
26215W        W87504  35.016  35.876  12.901
26216W        W87505  13.795  43.822   0.382
26217W        W87506  37.449  44.959   3.333
26218W        W87507  10.358   6.423  11.055
26219W        W87508  11.683   6.328   0.274
26220W        W87509  40.820   4.436  10.543
26221W        W87510  26.574   7.882   2.901
26222W        W87511  41.484  22.089  14.360
26223W        W87512   0.388  37.492  11.436
26224W        W87513  37.432   3.880  13.824
26225W        W87514  20.606   8.224   1.408
26226W        W87515  42.489   0.793   0.940
26227W        W87516   0.815  12.737   2.341
26228W        W87517   2.852  28.958  12.904
26229W        W87518  44.961   8.725   2.379
26230W        W87519  43.507  10.358  10.512
26231W        W87520   1.383  38.564   0.252
26232W        W87521  40.533  22.634   4.669
26233W        W87522  19.642   9.165  10.550
26234W        W87523  35.387  10.155   4.787
26235W        W87524  44.885  25.161   3.378
26236W        W87525   2.916  35.544   3.150
26237W        W87526  33.383   5.193   0.899
26238W        W87527  38.941  28.132  11.611
26239W        W87528  35.369   8.858  11.387
26240W        W87529   7.362  34.550  14.818
26241W        W87530  43.848  33.072  11.595
26242W        W87531  17.600   3.782   1.820
26243W        W87532  39.319  36.932  12.025
26244W        W87533  42.426  41.931   1.314
26245W        W87534  37.417  39.398  11.423
26246W        W87535  27.608  42.414  10.620
26247W        W87536  26.044   0.349   0.453
26248W        W87537   2.386  42.979   9.969
26249W        W87538  14.657  25.471  14.767
26250W        W87539  21.524  42.383   4.712
26251W        W87540  39.555   6.695   4.328
26252W        W87541  19.154   2.325   0.841
26253W        W87542  24.003  41.472  13.964
26254W        W87543  27.136  28.570   4.202
26255W        W87544  40.832  43.806   2.901
26256W        W87545   5.810  44.753   4.805
26257W        W87546   0.854   3.230  12.880
26258W        W87547  12.629  37.877   1.834
26259W        W87548  19.644  29.464   3.760
26260W        W87549  11.692   3.376  10.552
26261W        W87550   1.242  14.759  13.369
26262W        W87551  28.048  18.178  14.395
26263W        W87552  32.103  35.420   4.715
26264W        W87553  26.485  16.267   3.325
26265W        W87554  28.026  38.935  11.112
26266W        W87555  33.020   1.386   1.747
26267W        W87556  35.445  26.961   2.814
26268W        W87557  21.080  12.237  11.534
26269W        W87558  19.203  32.544  12.562
26270W        W87559  16.810   3.802   3.861
26271W        W87560  38.476  31.032  11.528
26272W        W87561  24.199  28.651   0.857
26273W        W87562  11.169  23.639  11.460
26274W        W87563  37.921  29.521   1.401
26275W        W87564  36.398  35.389  14.515
26276W        W87565  25.990  13.782   1.915
26277W        W87566  34.552  44.271   3.291
26278W        W87567  25.546  37.378  14.852
26279W        W87568   1.830  39.485   1.275
26280W        W87569  27.167  39.949  13.922
26281W        W87570  12.621  22.598  13.454
26282W        W87571   0.478  17.200   2.275
26283W        W87572  23.531  43.300   0.372
26284W        W87573  14.143  34.500  12.875
26285W        W87574   1.412  25.636   0.862
26286W        W87575  13.670  17.270  10.891
26287W        W87576  33.621  18.575   1.783
26288W        W87577  34.582  17.701   2.276
26289W        W87578  12.715  37.547   9.590
26290W        W87579  33.880   8.713   1.872
26291W        W87580  28.157  37.486   0.276
26292W        W87581  23.731  11.278   3.314
26293W        W87582   3.832  23.994  12.444
26294W        W87583   7.895  42.993  14.771
26295W        W87584   3.941  43.940  11.934
26296W        W87585   5.881   3.386   3.784
26297W        W87586  32.398  29.063   0.738
26298W        W87587  13.712   4.298  13.023
26299W        W87588   1.934  23.231  12.046
26300W        W87589  25.578  31.642  10.409
26301W        W87590   0.480  22.066   2.400
26302W        W87591  35.563  44.989  12.894
26303W        W87592  30.977   9.862   5.788
26304W        W87593  11.178  17.778   4.672
26305W        W87594  32.413   4.442   1.797
26306W        W87595  39.941  11.131  14.490
26307W        W87596  15.724   0.868   3.865
26308W        W87597   9.734  22.205  14.892
26309W        W87598  30.426  23.022   4.665
26310W        W87599  39.923  21.076  13.814
26311W        W87600  21.568   1.315   4.647
26312W        W87601  20.706  27.001  13.836
26313W        W87602  26.623  13.838   2.243
26314W        W87603  27.176  14.619   3.633
26315W        W87604  39.842  15.120   1.286
26316W        W87605  31.070  13.627  12.861
26317W        W87606  15.794  29.424   4.351
26318W        W87607  30.628  20.584  14.513
26319W        W87608  11.268  22.740   2.413
26320W        W87609  38.997  25.074   3.229
26321W        W87610  31.571  41.476   0.343
26322W        W87611  40.022  12.232  13.340
26323W        W87612  10.856  43.900   2.403
26324W        W87613  10.865  44.896   0.322
26325W        W87614   2.423  26.678  11.893
26326W        W87615  16.803  44.760   3.733
26327W        W87616  27.159  14.180  11.491
26328W        W87617  37.955  31.074  14.505
26329W        W87618   8.724  44.443  12.995
26330W        W87619  35.932  32.442   0.292
26331W        W87620  19.247  26.080   3.295
26332W        W87621  23.241  37.384  12.351
26333W        W87622   8.853  41.440  12.033
26334W        W87623   1.953  23.597  10.984
26335W        W87624   1.274  29.141  14.408
26336W        W87625   7.210  40.359  12.963
26337W        W87626  26.482  40.861   3.182
26338W        W87627  30.023  12.657   1.271
26339W        W87628   2.915  12.318   2.840
26340W        W87629  18.294  32.534  14.928
26341W        W87630   4.700  17.190   4.246
26342W        W87631  12.797  13.732   1.372
26343W        W87632  36.564  13.692  11.543
26344W        W87633  29.026  29.032  12.829
26345W        W87634  24.696  24.706   4.178
26346W        W87635  44.814  35.901   0.860
26347W        W87636  31.055  43.352   2.733
26348W        W87637  41.382  35.860  12.857
26349W        W87638  19.682  23.692   2.315
26350W        W87639   0.922   4.723   1.367
26351W        W87640  11.792  40.356  13.046
26352W        W87641   7.671  16.579   4.264
26353W        W87642  13.709   1.827   3.701
26354W        W87643  20.642  15.166  12.494
26355W        W87644  18.752  17.716   4.193
26356W        W87645   8.838  17.557   1.904
26357W        W87646  14.299   5.688  14.001
26358W        W87647   4.881  14.197   2.816
26359W        W87648  11.759  17.583  14.023
26360W        W87649  31.135  35.378   3.818
26361W        W87650  21.563  33.593  11.543
26362W        W87651  37.081  37.562   2.897
26363W        W87652   4.443  23.718  14.785
26364W        W87653   6.212   2.747  14.515
26365W        W87654  24.158   6.242  11.492
26366W        W87655  42.830   3.414   4.744
26367W        W87656   0.887  16.646  13.007
26368W        W87657  36.576  30.068   1.789
26369W        W87658  36.923  40.866   4.279
26370W        W87659  34.576  43.973  12.485
26371W        W87660  28.970  28.090  11.388
26372W        W87661   3.459  12.815  11.509
26373W        W87662  16.664  21.753  14.856
26374W        W87663  27.108  31.441  10.445
26375W        W87664  20.122  35.904  11.900
26376W        W87665  10.156   3.793   9.999
26377W        W87666   2.776  25.989  13.459
26378W        W87667  18.716  38.961  10.073
26379W        W87668  35.960  23.029   4.124
26380W        W87669  13.661   0.393   1.390
26381W        W87670  26.622   9.316   3.324
26382W        W87671  21.074  23.656   5.187
26383W        W87672  29.429  24.185   1.350
26384W        W87673  37.968   1.965   1.431
26385W        W87674  34.946   2.961   2.215
26386W        W87675   6.270  31.453   3.658
26387W        W87676  29.024   7.250  10.935
26388W        W87677  32.055  44.880   2.248
26389W        W87678   4.236  28.003  14.017
26390W        W87679  11.205  11.318  11.893
26391W        W87680  26.030  26.064   2.870
26392W        W87681  27.132  11.268  10.989
26393W        W87682  20.185   3.405   3.386
26394W        W87683   2.238  35.481  13.813
26395W        W87684  42.795  23.588  12.580
26396W        W87685  10.824  26.628  14.015
26397W        W87686   2.793  36.569   2.779
26398W        W87687  27.041  29.576  10.959
26399W        W87688  26.954  32.079  13.905
26400W        W87689  31.605  42.313   0.398
26401W        W87690   8.867   0.415  11.376
26402W        W87691  39.977  10.335   3.368
26403W        W87692  39.832  38.905   2.325
26404W        W87693   8.899  22.028   0.734
26405W        W87694   0.283  25.153  13.361
26406W        W87695  15.297   3.308   2.208
26407W        W87696   1.907  35.536  13.908
26408W        W87697  42.960  36.354  11.004
26409W        W87698  18.120  13.346  12.007
26410W        W87699   2.251  32.108  10.072
26411W        W87700   9.190  30.935   9.454
26412W        W87701  27.082  21.538   1.330
26413W        W87702   9.188  39.329  14.489
26414W        W87703  20.184  26.509  11.382
26415W        W87704  28.160  22.241  11.443
26416W        W87705  10.281   7.848  13.956
26417W        W87706  26.609  38.865   1.384
26418W        W87707   9.745   5.765   1.337
26419W        W87708  17.082   5.904  14.457
26420W        W87709  32.436   4.368   0.801
26421W        W87710   3.783  27.127  14.873
26422W        W87711  37.015   5.850   2.356
26423W        W87712  32.936  19.202  12.997
26424W        W87713   1.810   0.424   4.180
26425W        W87714  27.992  16.235   1.260
26426W        W87715   2.845  20.639  11.452
26427W        W87716   9.879  28.091   1.229
26428W        W87717   6.233  33.015   0.254
26429W        W87718  28.989  13.269   3.637
26430W        W87719   4.448   4.406   4.817
26431W        W87720  13.181   6.848  12.995
26432W        W87721  20.264  42.855   3.239
26433W        W87722  40.308  25.069   2.369
26434W        W87723  18.559  42.986   5.175
26435W        W87724   2.924  26.141  14.424
26436W        W87725  25.660   4.211   3.841
26437W        W87726   2.380  13.108  12.433
26438W        W87727  29.096  36.033  11.989
26439W        W87728  18.194  26.208   3.861
26440W        W87729   6.320  25.070  11.948
26441W        W87730   5.362  30.937  10.939
26442W        W87731  24.662   8.858   5.318
26443W        W87732  19.741  25.111   4.350
26444W        W87733  23.628  38.886  14.511
26445W        W87734  18.672  33.957   2.855
26446W        W87735  43.458  13.169  11.422
26447W        W87736   0.978   3.415   2.180
26448W        W87737  29.129  18.607  14.430
26449W        W87738   0.823  11.321   0.742
26450W        W87739   9.800   5.793   0.914
26451W        W87740   0.943  22.502  10.494
26452W        W87741  23.020  16.613   1.770
26453W        W87742   0.304  29.013   3.669
26454W        W87743  42.324  37.417   1.773
26455W        W87744  10.811  23.686  12.357
26456W        W87745  23.234  17.283  12.090
26457W        W87746  11.136  37.979   4.722
26458W        W87747  31.973  28.603   2.755
26459W        W87748  21.533  29.558   1.714
26460W        W87749   8.255  35.882   3.830
26461W        W87750   1.304  15.626  10.132
26462W        W87751  36.589  18.214   3.191
26463W        W87752  30.470  18.157   1.853
26464W        W87753   6.367   2.408   2.327
26465W        W87754   1.416   8.296   5.805
26466W        W87755  21.615  40.392  10.508
26467W        W87756  42.496  16.629   1.354
26468W        W87757   5.860  42.321  11.932
26469W        W87758   2.293   6.717  13.854
26470W        W87759  17.113  26.970   1.273
26471W        W87760   1.425  18.639  13.385
26472W        W87761  15.631  30.951  13.473
26473W        W87762  20.212  10.348  13.363
26474W        W87763  41.400   6.680   1.437
26475W        W87764  43.474  30.423  11.412
26476W        W87765   3.764  43.421   1.753
26477W        W87766  29.440  30.436  14.855
26478W        W87767   7.381  44.462   2.358
26479W        W87768  39.356   8.828   3.736
26480W        W87769  43.953  22.168  13.409
26481W        W87770  44.798  17.601  12.368
26482W        W87771  11.758  34.024  12.986
26483W        W87772  19.674  33.427  12.065
26484W        W87773   3.300  12.736   0.949
26485W        W87774  41.531  40.546   2.740
26486W        W87775  31.936  13.603  10.609
26487W        W87776   5.202  14.620  13.993
26488W        W87777  39.355  30.582  13.965
26489W        W87778   3.451  26.022   2.196
26490W        W87779   7.232  18.633  11.877
26491W        W87780  23.193  44.838  14.318
26492W        W87781  40.859  33.601   2.831
26493W        W87782  15.207   1.277  11.539
26494W        W87783  43.882  15.805  11.091
26495W        W87784   7.728  37.347  11.967
26496W        W87785   6.188  19.554  10.964
26497W        W87786   8.896  24.108   1.812
26498W        W87787  35.373  42.841   4.603
26499W        W87788  26.074  26.042  12.943
26500W        W87789  13.107  44.005  12.064
26501W        W87790  28.072  28.008  12.420
26502W        W87791  44.966  41.414   0.433
26503W        W87792  35.051  44.918  13.887
26504W        W87793  43.274   4.886  11.400
26505W        W87794  12.656  32.130   1.811
26506W        W87795  20.568  36.056  12.970
26507W        W87796   6.704  26.137   5.249
26508W        W87797  33.614  11.624   2.383
26509W        W87798  25.160   3.421  10.509
26510W        W87799  26.126  10.348  10.999
26511W        W87800  36.916  40.039   1.286
26512W        W87801  13.758  26.159  14.933
26513W        W87802   2.815  35.432   1.878
26514W        W87803  44.378   1.466  10.514
26515W        W87804  33.599  39.366   1.424
26516W        W87805  24.577   9.205   5.759
26517W        W87806  17.757  38.492  12.979
26518W        W87807  14.709  24.695   4.636
26519W        W87808   9.321   8.890  12.987
26520W        W87809  35.042  18.278   4.620
26521W        W87810  20.190   5.308  14.024
26522W        W87811  17.152  23.098   4.122
26523W        W87812  41.486  29.941  12.073
26524W        W87813   8.385  22.248   4.815
26525W        W87814  19.041  35.015   2.270
26526W        W87815  22.733  20.131   0.956
26527W        W87816  14.621  12.665  11.907
26528W        W87817  10.210  30.504   5.250
26529W        W87818  28.983   1.823   3.283
26530W        W87819  37.895  28.041  12.375
26531W        W87820  27.048  43.319  14.493
26532W        W87821  18.198  38.528   1.696
26533W        W87822  27.600  18.601  13.355
26534W        W87823   4.277  31.504  12.081
26535W        W87824  26.577  20.525  11.129
26536W        W87825   1.962  19.101  10.997
26537W        W87826  19.733   1.355  10.888
26538W        W87827   4.234  42.026  10.532
26539W        W87828  19.154  44.884   2.706
26540W        W87829  21.041  37.907   3.261
26541W        W87830  36.849  38.914  12.402
26542W        W87831  13.817  16.764   1.223
26543W        W87832   2.875  34.527   3.338
26544W        W87833  27.180  14.604   2.310
26545W        W87834  18.246  29.626  12.461
26546W        W87835  12.225  29.941  13.868
26547W        W87836  23.126  29.646  10.503
26548W        W87837  13.619  32.564  11.381
26549W        W87838  36.470   2.383   3.203
26550W        W87839  43.770  12.811  13.366
26551W        W87840  26.981  27.162   0.285
26552W        W87841  42.888  28.564  14.911
26553W        W87842   3.218   8.665  10.079
26554W        W87843  13.203  10.139  12.895
26555W        W87844  27.560  32.990  14.434
26556W        W87845  42.784  40.930   4.727
26557W        W87846  39.812   6.272   4.192
26558W        W87847  17.151   9.242  13.426
26559W        W87848  11.257   3.899  10.593
26560W        W87849  41.473  37.570   0.331
26561W        W87850   4.403   9.838  14.862
26562W        W87851   5.287  36.944  12.570
26563W        W87852  11.318   0.908   3.234
26564W        W87853   4.780  37.838   2.364
26565W        W87854  10.632  14.203  13.971
26566W        W87855  39.850   0.409  11.426
26567W        W87856   4.805  38.861  14.955
26568W        W87857   1.960  16.158   4.223
26569W        W87858   2.786  12.297   1.314
26570W        W87859  39.540  10.313  14.473
26571W        W87860   6.768  44.392   3.819
26572W        W87861  28.485  13.252  10.613
26573W        W87862   3.840  42.823   1.242
26574W        W87863  43.983  22.583  13.837
26575W        W87864  15.645   3.764  14.450
26576W        W87865   0.988  12.198   1.784
26577W        W87866   4.916  37.050   4.266
26578W        W87867  44.838  12.310   1.795
26579W        W87868  19.200   1.846  14.972
26580W        W87869  17.694  26.541  10.941
26581W        W87870   6.701   8.270  12.006
26582W        W87871   9.259  22.712   0.243
26583W        W87872  13.678  39.042  12.466
26584W        W87873  40.798  25.695   1.379
26585W        W87874   1.270  25.094  12.979
26586W        W87875  43.272  18.223  11.524
26587W        W87876  25.186  13.839  14.362
26588W        W87877  18.221  41.367  14.395
26589W        W87878  40.049   0.326  13.309
26590W        W87879  33.443  43.915   4.751
26591W        W87880  36.527   5.208   3.227
26592W        W87881  25.529  11.300  14.952
26593W        W87882  37.415  12.738   4.736
26594W        W87883   4.295  25.512   2.391
26595W        W87884  11.685   3.276  12.095
26596W        W87885  18.592   3.252  12.575
26597W        W87886  40.357  33.078   2.849
26598W        W87887  10.640   9.730  12.907
26599W        W87888  14.646  44.847   0.834
26600W        W87889  41.963  14.625  13.447
26601W        W87890  19.693  22.585  11.000
26602W        W87891   5.267  23.519   1.281
26603W        W87892   5.849  16.208   4.353
26604W        W87893  44.356  14.627  12.888
26605W        W87894  15.639  36.861  14.293
26606W        W87895  44.927  21.616   4.210
26607W        W87896  24.619  23.600   1.405
26608W        W87897  10.226  21.242  10.479
26609W        W87898  37.447  32.941   1.239
26610W        W87899   5.878  20.656   3.246
26611W        W87900  36.541  37.924  11.986
26612W        W87901  10.366  39.047   4.250
26613W        W87902   0.791  34.528  13.313
26614W        W87903   2.398  19.755  12.959
26615W        W87904   3.746  10.345  12.493
26616W        W87905  15.162  32.503   2.845
26617W        W87906  32.594  27.969   0.374
26618W        W87907  19.762  29.491   5.190
26619W        W87908   5.307  33.429  14.498
26620W        W87909  31.915  29.085  14.949
26621W        W87910  42.289  41.878   4.721
26622W        W87911  16.289  36.420   3.834
26623W        W87912   6.920  17.252   0.917
26624W        W87913  30.072  15.664   3.163
26625W        W87914  37.435  19.283   3.778
26626W        W87915  27.449   4.729  12.368
26627W        W87916  33.080  40.428   2.213
26628W        W87917  21.643  35.877   4.250
26629W        W87918  36.482  23.669   0.778
26630W        W87919  41.436  17.224  10.095
26631W        W87920  14.102  35.998   5.804
26632W        W87921  15.610  42.829  11.029
26633W        W87922  35.551   1.736   0.821
26634W        W87923  41.462  44.794  14.294
26635W        W87924   5.795   3.806  11.942
26636W        W87925  24.029   8.882   3.681
26637W        W87926  40.331  14.095   1.287
26638W        W87927  28.055  21.640   2.329
26639W        W87928  19.606   9.338   3.742
26640W        W87929  20.072   1.947   1.383
26641W        W87930  29.994   7.712  10.619
26642W        W87931  16.289  31.570  13.910
26643W        W87932   3.432  29.962  11.539
26644W        W87933  27.187  34.603  13.434
26645W        W87934   6.896  39.975   2.770
26646W        W87935  13.161  29.041  12.865
26647W        W87936  19.199  31.503   2.765
26648W        W87937   4.251  16.267   4.226
26649W        W87938  21.576  17.646   4.335
26650W        W87939  26.621  18.244   3.685
26651W        W87940  44.874  33.117   4.754
26652W        W87941  43.010   8.175  13.395
26653W        W87942  29.506  14.679   2.337
26654W        W87943  25.491  16.748  10.962
26655W        W87944   8.180   7.738  12.834
26656W        W87945  40.798  19.750   1.232
26657W        W87946   9.842  25.526  13.313
26658W        W87947  17.584   7.393  12.534
26659W        W87948  44.424  37.564   0.278
26660W        W87949  28.478  29.625  14.834
26661W        W87950  41.480  26.536   0.411
26662W        W87951  16.140  39.948   3.164
26663W        W87952  41.934  23.497   1.317
26664W        W87953  42.950  42.901   4.636
26665W        W87954  15.190  31.621   3.691
26666W        W87955   2.373  33.008  11.903
26667W        W87956  41.970  16.664  10.488
26668W        W87957  19.250  28.036  10.951
26669W        W87958  18.126  28.546  12.041
26670W        W87959   8.217  39.326   2.178
26671W        W87960  11.719  29.012  12.876
26672W        W87961  26.682  33.036   4.175
26673W        W87962  13.800  27.481  12.409
26674W        W87963  10.650  15.776  11.913
26675W        W87964  44.435  24.109  10.939
26676W        W87965  39.024  40.435   0.951
26677W        W87966  38.370  10.787   4.337
26678W        W87967  11.722   4.838  13.041
26679W        W87968   9.190  42.348   0.285
26680W        W87969  40.024  17.194   3.242
26681W        W87970  26.042  20.139  14.274
26682W        W87971  36.000  21.665  10.408
26683W        W87972  35.023  13.602  13.871
26684W        W87973  42.941   3.791   3.360
26685W        W87974  43.832  39.849  10.507
26686W        W87975  12.280  22.507   1.294
26687W        W87976   8.670  28.097  12.010
26688W        W87977   6.719  25.968   3.152
26689W        W87978   3.783   1.286  13.493
26690W        W87979  35.544  15.264  14.030
26691W        W87980  30.657  43.981   1.414
26692W        W87981  36.910  43.368  13.474
26693W        W87982  12.765  22.067   1.873
26694W        W87983  16.581  41.538   1.916
26695W        W87984  36.955  35.593  14.421
26696W        W87985  44.800  27.557   1.798
26697W        W87986  39.972  19.207  14.393
26698W        W87987   9.708   1.777   9.947
26699W        W87988  41.962  11.633   2.383
26700W        W87989  38.395  14.728   0.337
26701W        W87990  19.771  23.720  14.473
26702W        W87991   5.331   3.458   0.848
26703W        W87992  14.234  33.030   0.460
26704W        W87993  10.384  35.911   3.841
26705W        W87994   4.734  40.439   4.605
26706W        W87995  44.773  28.018  10.411
26707W        W87996  13.814   8.331   4.821
26708W        W87997  26.190  25.584   3.745
26709W        W87998   1.467   4.821   1.437
26710W        W87999  44.979  22.215   4.655
26711W        W88000  20.178   9.252   0.787
26712W        W88001  35.583  21.685   3.654
26713W        W88002   8.267   7.825  12.450
26714W        W88003   0.346   6.752   0.456
26715W        W88004   6.754  33.490  11.415
26716W        W88005  38.053  30.098   0.818
26717W        W88006  26.030  31.145   0.436
26718W        W88007  41.907  36.417  11.928
26719W        W88008  27.599  42.457  13.425
26720W        W88009  43.014  39.830  10.548
26721W        W88010  25.127  25.042  14.380
26722W        W88011  29.079  29.492  12.900
26723W        W88012  40.415  22.096   2.283
26724W        W88013  24.713  40.967  14.364
26725W        W88014   1.252  32.082   2.350
26726W        W88015  17.677   9.847   4.130
26727W        W88016   3.950  39.401  11.946
26728W        W88017  41.814  24.005  11.476
26729W        W88018  33.939  12.641  13.012
26730W        W88019  44.976  39.558  10.418
26731W        W88020   3.269  28.658  13.925
26732W        W88021  39.366  29.930  10.463
26733W        W88022  18.665  15.787  12.070
26734W        W88023  38.063   3.358   4.344
26735W        W88024  20.572  39.876  12.453
26736W        W88025  44.292   5.399   4.649
26737W        W88026  42.966  25.008   3.153
26738W        W88027  25.081   2.766   2.267
26739W        W88028  25.121  16.218  11.094
26740W        W88029  10.805  19.549   3.268
26741W        W88030   9.298   9.709  12.970
26742W        W88031  40.454  23.086  13.862
26743W        W88032   3.751  17.186   3.299
26744W        W88033  10.213  43.007  14.890
26745W        W88034  28.044  32.985   0.726
26746W        W88035  22.544  12.341  14.016
26747W        W88036  43.817  22.661   4.290
26748W        W88037  27.094  26.697  12.964
26749W        W88038   2.860   0.451  12.859
26750W        W88039   8.243  42.403  14.342
26751W        W88040  36.847  40.305   3.729
26752W        W88041  17.576  18.186  14.411
26753W        W88042  13.612  38.047   0.463
26754W        W88043  19.540  30.448   4.132
26755W        W88044  11.366  41.519   0.312
26756W        W88045  32.925  43.907   0.320
26757W        W88046   7.176  29.961   2.704
26758W        W88047  10.224  28.677  13.886
26759W        W88048  25.507   8.382  11.022
26760W        W88049  16.748  37.034  14.947
26761W        W88050  28.969  26.632   3.830
26762W        W88051  15.198   8.331  12.920
26763W        W88052  34.557  44.339   2.390
26764W        W88053   3.867  38.418  11.971
26765W        W88054  23.116  40.462  14.805
26766W        W88055  24.516   8.765   1.888
26767W        W88056   7.667   3.832  14.917
26768W        W88057  36.444  32.496  10.423
26769W        W88058  33.422  44.973  10.951
26770W        W88059   5.278  18.730  11.945
26771W        W88060  30.569  14.329  13.414
26772W        W88061   9.733   3.296  10.928
26773W        W88062  21.739  35.556  12.938
26774W        W88063  36.899  40.332  11.077
26775W        W88064  10.212  30.979  12.517
26776W        W88065  38.886   0.918   5.103
26777W        W88066  18.582  24.518   4.325
26778W        W88067  20.272   0.494  11.947
26779W        W88068  27.122   9.785   1.376
26780W        W88069  39.532   4.415   3.275
26781W        W88070  27.950  30.930  11.099
26782W        W88071  16.758   5.272  10.410
26783W        W88072  22.664  18.263  13.423
26784W        W88073  16.781  38.528   2.407
26785W        W88074   5.893  35.486  10.597
26786W        W88075   0.333  22.572   3.299
26787W        W88076   6.887  33.125   4.282
26788W        W88077  18.230  21.164   4.600
26789W        W88078  18.638  15.727  12.426
26790W        W88079   4.799  21.620  10.458
26791W        W88080  25.690  19.770  10.423
26792W        W88081  12.303  10.687   4.744
26793W        W88082  41.906  28.022  13.846
26794W        W88083  33.111  10.222  12.549
26795W        W88084  36.060   8.812   3.779
26796W        W88085  15.249   5.902   2.711
26797W        W88086  40.414  22.015  13.846
26798W        W88087  16.773  43.377   1.273
26799W        W88088  20.114   1.239   3.704
26800W        W88089   2.370  14.309  12.991
26801W        W88090  12.277   8.352   4.736
26802W        W88091  11.212   5.826  10.954
26803W        W88092  33.456  36.557   0.808
26804W        W88093   4.926  42.992   2.671
26805W        W88094  25.662   2.376   4.265
26806W        W88095  12.333  24.501   1.233
26807W        W88096  29.640   7.250   4.245
26808W        W88097  17.719  30.587  14.990
26809W        W88098   8.830  42.808   2.284
26810W        W88099  38.542  11.742   4.185
26811W        W88100  16.676   3.788   4.632
26812W        W88101  10.788  37.906  11.124
26813W        W88102  26.688  29.563   4.695
26814W        W88103  11.356   9.792  14.973
26815W        W88104  39.032  26.481   0.803
26816W        W88105  38.987  43.790   2.801
26817W        W88106   0.381   4.740  11.402
26818W        W88107  19.278  28.438  10.432
26819W        W88108  30.942  24.983   4.281
26820W        W88109  32.000  40.835   3.824
26821W        W88110  42.810  42.304   2.194
26822W        W88111  40.526  13.811   3.184
26823W        W88112   6.683  12.347  14.916
26824W        W88113  34.516  29.030   4.804
26825W        W88114  36.443  23.708   4.726
26826W        W88115  10.165  28.567   4.635
26827W        W88116  14.592  14.128  10.924
26828W        W88117  23.008   4.205   4.316
26829W        W88118  44.785  12.802   1.770
26830W        W88119  14.105  40.513   1.294
26831W        W88120  27.627  15.136  10.907
26832W        W88121  40.982  22.641  11.021
26833W        W88122   0.844  34.953  14.817
26834W        W88123  34.505  13.670  13.806
26835W        W88124   0.980  26.994  12.440
26836W        W88125   9.334  31.407  10.083
26837W        W88126   2.345   1.391  12.083
26838W        W88127  23.047  15.122   0.849
26839W        W88128  32.580  42.009  11.585
26840W        W88129  36.050  16.303   4.824
26841W        W88130   6.832  16.722   1.338
26842W        W88131   6.413  10.307   1.810
26843W        W88132   5.350  22.068   4.801
26844W        W88133  32.629  42.489  11.956
26845W        W88134  30.053  19.246   0.736
26846W        W88135  40.856  32.585  13.062
26847W        W88136  23.030  15.320   3.811
26848W        W88137  35.553  27.580   3.202
26849W        W88138  41.358  41.938  13.063
26850W        W88139  16.633  35.463  14.418
26851W        W88140  30.524  42.796  14.328
26852W        W88141   6.886  34.959  10.445
26853W        W88142   0.366  11.813   4.817
26854W        W88143  19.669  44.323   2.702
26855W        W88144  37.850  13.624   3.278
26856W        W88145   4.768  14.243  12.835
26857W        W88146  16.105  16.795   4.339
26858W        W88147  20.088  25.969  13.335
26859W        W88148  23.534  19.174   0.855
26860W        W88149  13.738  26.207   2.826
26861W        W88150  39.413  14.655   9.657
26862W        W88151   3.294  21.076   5.221
26863W        W88152  31.970  34.472   3.234
26864W        W88153  38.032   0.406   0.479
26865W        W88154   2.914  43.789  13.996
26866W        W88155   7.398  39.336  14.943
26867W        W88156  25.150   5.311   4.160
26868W        W88157  42.327   0.967  10.602
26869W        W88158  28.602  37.360  10.519
26870W        W88159  20.162   3.236  10.491
26871W        W88160   9.295   4.211   1.891
26872W        W88161   5.707  14.780  11.527
26873W        W88162  38.342   3.841  13.892
26874W        W88163  13.125  13.775   4.252
26875W        W88164  16.130   5.272  11.547
26876W        W88165   5.328  34.593   0.295
26877W        W88166   3.229  10.310  13.905
26878W        W88167  39.390  34.424  11.006
26879W        W88168   2.890  42.968   3.190
26880W        W88169  15.607  32.989   3.632
26881W        W88170   2.914  32.434  13.036
26882W        W88171  35.515   0.255  11.095
26883W        W88172   8.256  31.411  13.307
26884W        W88173  11.756   7.326  14.419
26885W        W88174  24.084  32.991  14.920
26886W        W88175  29.641  24.012  11.116
26887W        W88176  29.042   8.313   1.774
26888W        W88177  15.207   1.948   1.286
26889W        W88178  41.305  15.306  10.896
26890W        W88179  15.126  36.478   1.927
26891W        W88180  40.885  36.909  13.343
26892W        W88181  16.101  33.923   2.179
26893W        W88182  10.831  25.710   3.361
26894W        W88183  40.349   8.659  10.905
26895W        W88184  36.427  30.644   2.398
26896W        W88185  17.246  17.710   2.256
26897W        W88186  11.132   8.770   0.403
26898W        W88187   9.654  23.675   2.406
26899W        W88188  34.528   5.712  11.562
26900W        W88189  36.844   8.196   4.309
26901W        W88190  10.863  34.912  13.821
26902W        W88191  11.351  18.742   3.210
26903W        W88192  24.652   4.788   0.811
26904W        W88193  34.004  35.917   0.415
26905W        W88194   4.726  18.637  14.467
26906W        W88195  42.986  38.456   2.289
26907W        W88196  43.975   6.752   3.249
26908W        W88197   0.929  14.283   0.297
26909W        W88198   3.317   4.214  11.557
26910W        W88199  18.666  21.758  11.121
26911W        W88200  16.111  13.759   4.201
26912W        W88201  39.464  37.083   3.371
26913W        W88202  24.122   0.924   0.906
26914W        W88203  15.303  30.597   0.763
26915W        W88204  26.572   4.214   2.675
26916W        W88205  25.041  28.487  13.372
26917W        W88206  15.208  26.668   1.861
26918W        W88207  28.114   1.960  10.131
26919W        W88208  31.490  23.164   1.818
26920W        W88209  33.576  11.760  12.828
26921W        W88210  40.930  16.137  11.122
26922W        W88211  44.446  42.323   1.794
26923W        W88212  12.641  24.216  11.127
26924W        W88213   2.451   7.692  12.377
26925W        W88214  30.530  33.065  14.843
26926W        W88215  26.529  41.822   1.265
26927W        W88216  25.528   8.812  14.910
26928W        W88217  36.409   1.332   1.774
26929W        W88218  28.985  35.494   2.684
26930W        W88219  23.189  10.814   4.201
26931W        W88220  20.253  39.560  12.869
26932W        W88221  37.559  40.389  11.531
26933W        W88222  13.667  30.436   4.655
26934W        W88223  29.050   1.807   3.686
26935W        W88224  22.559  29.459   2.226
26936W        W88225   4.719  17.655  11.974
26937W        W88226  36.952  44.812   1.916
26938W        W88227   6.316  33.048  11.017
26939W        W88228  15.602  22.068   0.455
26940W        W88229  27.963  11.347   4.169
26941W        W88230  14.248  27.017  12.388
26942W        W88231  39.319  27.158   2.817
26943W        W88232  16.250  44.864   0.455
26944W        W88233   1.952  35.073  13.532
26945W        W88234  15.697   0.258  14.296
26946W        W88235  40.425  37.548  14.467
26947W        W88236   6.372  11.185  13.866
26948W        W88237  20.188  33.128  10.568
26949W        W88238   5.888  10.856   1.413
26950W        W88239  26.678  30.949  11.869
26951W        W88240   6.761  32.931   4.757
26952W        W88241  23.646  38.845   3.360
26953W        W88242  21.725  19.709  11.026
26954W        W88243  43.987   8.733   3.236
26955W        W88244  37.579  30.930   1.881
26956W        W88245  42.439   2.434   2.379
26957W        W88246  31.094  33.494  12.376
26958W        W88247  28.175  36.052  12.413
26959W        W88248   3.283   4.743   3.797
26960W        W88249  19.600  41.361   3.266
26961W        W88250  21.104  21.517   1.914
26962W        W88251  32.946  40.879   0.274
26963W        W88252   3.919   4.286   0.403
26964W        W88253  18.787  41.871  11.927
26965W        W88254  24.659   7.279   3.245
26966W        W88255  16.285  12.310   0.836
26967W        W88256  12.705  35.439   1.393
26968W        W88257  17.586  30.113   0.768
26969W        W88258  19.165  33.918   3.730
26970W        W88259  42.420  26.082   4.221
26971W        W88260  15.122   5.917  12.949
26972W        W88261   4.741  33.579   2.706
26973W        W88262  44.341   2.408  13.524
26974W        W88263   1.931  20.732   0.774
26975W        W88264  15.326   1.460  13.971
26976W        W88265  43.841  25.668  12.454
26977W        W88266   2.389   5.914  14.325
26978W        W88267  37.565   2.241  11.482
26979W        W88268  13.764  41.983   2.290
26980W        W88269  43.892  21.724   4.814
26981W        W88270   5.200  11.219  10.428
26982W        W88271   9.190  41.456   1.764
26983W        W88272  34.071  14.338  13.876
26984W        W88273  36.442   3.363   0.772
26985W        W88274  32.986  27.490   0.275
26986W        W88275  35.523  32.994   1.312
26987W        W88276   3.379  14.308   1.763
26988W        W88277  38.396  11.633  10.521
26989W        W88278  10.198   8.358   4.650
26990W        W88279  20.056  25.068   3.221
26991W        W88280  31.053  19.144   0.900
26992W        W88281  33.552  24.537  11.936
26993W        W88282  36.950  11.701  14.458
26994W        W88283  25.683   5.697  11.424
26995W        W88284  19.620  35.936  11.056
26996W        W88285  24.078   8.223   3.364
26997W        W88286  34.455  30.059   2.412
26998W        W88287  15.101   3.282   1.229
26999W        W88288  34.936  20.077  14.428
27000W        W88289  28.653  24.170   1.828
27001W        W88290  42.945  40.025   4.270
27002W        W88291  40.494   2.417  11.978
27003W        W88292   2.409  12.760   0.856
27004W        W88293  22.124  36.042   2.900
27005W        W88294  35.867  26.956   2.745
27006W        W88295  37.579   1.402   0.958
27007W        W88296  32.515  26.081  13.395
27008W        W88297  23.624  13.607  10.551
27009W        W88298  22.091   4.425  13.906
27010W        W88299  27.077  16.191   3.273
27011W        W88300  32.450  17.599  11.548
27012W        W88301  28.667  30.648   1.309
27013W        W88302  26.644  11.708  12.962
27014W        W88303   1.757  39.030  11.394
27015W        W88304  41.837  30.426  11.421
27016W        W88305  10.253  24.513   4.215
27017W        W88306  38.853  17.103   0.253
27018W        W88307   4.934   5.730  10.625
27019W        W88308  39.046   7.908   4.202
27020W        W88309  43.994  20.751   0.854
27021W        W88310  26.111  14.700   1.430
27022W        W88311  18.688  21.160   3.258
27023W        W88312  42.476  43.004  13.344
27024W        W88313   3.310  32.416  11.607
27025W        W88314  21.568  28.519  13.014
27026W        W88315   9.704  34.100   2.186
27027W        W88316  12.237  22.588  14.510
27028W        W88317  32.967  34.510  11.402
27029W        W88318  32.921  16.787   3.250
27030W        W88319   2.331  30.528   2.787
27031W        W88320  15.195  27.581   0.772
27032W        W88321  25.709   3.421   1.799
27033W        W88322   4.738  28.457   4.622
27034W        W88323   4.311  34.076  11.608
27035W        W88324   6.757  40.355   4.641
27036W        W88325  31.980  17.786   3.800
27037W        W88326   2.924   8.293   2.181
27038W        W88327  22.557  17.071   5.122
27039W        W88328  22.115  26.179  11.576
27040W        W88329  20.679  33.404  13.865
27041W        W88330  15.779  15.700   0.362
27042W        W88331  33.590  32.634  11.406
27043W        W88332  43.278   9.202   1.338
27044W        W88333  22.197   7.217  14.940
27045W        W88334  13.631  30.541  13.520
27046W        W88335  21.099   8.377  11.480
27047W        W88336  12.205  13.792   2.763
27048W        W88337   4.420  22.605   1.222
27049W        W88338  33.488  15.589   1.792
27050W        W88339   2.406  24.666   0.296
27051W        W88340  13.242   5.729   1.844
27052W        W88341   4.209  12.816  12.514
27053W        W88342   2.744  21.251  10.910
27054W        W88343   1.248  40.011   2.714
27055W        W88344  43.504  23.730  14.299
27056W        W88345   7.719  13.821   1.758
27057W        W88346  23.701  42.996  10.549
27058W        W88347   1.270  16.613  10.478
27059W        W88348  37.543  21.746   4.183
27060W        W88349  40.308  16.644  14.979
27061W        W88350   0.862  15.815  13.987
27062W        W88351  15.170  23.619   4.711
27063W        W88352   9.246  10.655   2.226
27064W        W88353  20.108  42.966  10.159
27065W        W88354  33.011  10.148  12.996
27066W        W88355  41.000  23.089   1.277
27067W        W88356  17.684  16.267  13.548
27068W        W88357  33.523  44.279  11.442
27069W        W88358  38.365   5.435   4.749
27070W        W88359  27.161  24.556   2.868
27071W        W88360   9.395  15.114  13.460
27072W        W88361  22.142  36.864  12.083
27073W        W88362   6.690  22.066   3.248
27074W        W88363  20.561  32.911  11.590
27075W        W88364  22.692   8.708   5.323
27076W        W88365  25.562  19.127  14.423
27077W        W88366  41.332  24.003   1.924
27078W        W88367  13.748  43.500   3.259
27079W        W88368   9.675  40.483   0.815
27080W        W88369  11.291  31.521  12.975
27081W        W88370  27.606  24.996  11.423
27082W        W88371  16.657  12.690  10.414
27083W        W88372  35.859   7.228  13.483
27084W        W88373  37.541   4.790  14.316
27085W        W88374  18.227  30.158  14.386
27086W        W88375  31.067  18.062   4.663
27087W        W88376  41.912  34.872  12.408
27088W        W88377  26.985  41.014   4.127
27089W        W88378  28.059  32.632   2.664
27090W        W88379  28.176   7.281  13.937
27091W        W88380  36.522  22.163  10.503
27092W        W88381  36.896  30.144   3.637
27093W        W88382   8.328  14.624  14.411
27094W        W88383  19.741  24.089   3.681
27095W        W88384   6.253  39.906   1.707
27096W        W88385  36.415  24.038   3.810
27097W        W88386  41.799  40.954  11.036
27098W        W88387  40.038  10.688  11.471
27099W        W88388  42.504   1.381  11.096
27100W        W88389  12.796  24.617   2.248
27101W        W88390   2.326  16.121  13.421
27102W        W88391  25.699  16.286  11.491
27103W        W88392  17.306   6.776   0.458
27104W        W88393  30.495   3.457  12.075
27105W        W88394   5.218  19.088   1.275
27106W        W88395  24.551   2.764  11.371
27107W        W88396  14.672  10.639   2.691
27108W        W88397   1.242  16.725  12.345
27109W        W88398  24.042  31.495   0.900
27110W        W88399  17.564   6.756  12.053
27111W        W88400  15.764   3.783  12.343
27112W        W88401   6.719   5.868   0.930
27113W        W88402  19.186  14.137   2.892
27114W        W88403  22.512  32.457   3.203
27115W        W88404  23.579   1.873  14.858
27116W        W88405  42.464  34.032  13.910
27117W        W88406  29.104  20.063  10.965
27118W        W88407  34.030  32.067  10.132
27119W        W88408   5.810   6.679  13.962
27120W        W88409   6.360  13.322  13.542
27121W        W88410  26.206  36.998   2.791
27122W        W88411   3.913  24.487   4.224
27123W        W88412   6.830  16.727  13.335
27124W        W88413  31.057  23.506   1.405
27125W        W88414  44.846   0.251   0.416
27126W        W88415  22.669  12.659   0.790
27127W        W88416  32.034  31.926   4.283
27128W        W88417  22.541   9.178   1.747
27129W        W88418  26.648   7.239   4.767
27130W        W88419  28.132  20.125   1.764
27131W        W88420  24.125  32.110   0.403
27132W        W88421  34.424  26.114  12.432
27133W        W88422   2.304  27.626   4.606
27134W        W88423  34.118  21.742  13.893
27135W        W88424  33.111  14.185  14.304
27136W        W88425  32.040  32.590   0.764
27137W        W88426  20.164  27.156  14.442
27138W        W88427  23.046  18.677   3.161
27139W        W88428   9.674  43.873   2.344
27140W        W88429  33.955  16.675   1.913
27141W        W88430  40.814   0.932  12.042
27142W        W88431   3.365   1.308   0.900
27143W        W88432  24.116   1.394   0.451
27144W        W88433  40.800   1.757  12.502
27145W        W88434  14.207  11.831  10.522
27146W        W88435  18.282  31.898  14.947
27147W        W88436  33.948  22.648   1.243
27148W        W88437  40.872  11.767  10.583
27149W        W88438  35.062  44.396   9.943
27150W        W88439   7.219  41.823   4.225
27151W        W88440   2.226  14.310  11.966
27152W        W88441  11.727  31.406  12.078
27153W        W88442  34.928   8.868  11.547
27154W        W88443  11.244  39.816   3.207
27155W        W88444  26.574  24.989  10.525
27156W        W88445  30.164  27.522   1.448
27157W        W88446  41.450  11.163  12.452
27158W        W88447  21.047  22.209   4.784
27159W        W88448   8.749  37.425   3.635
27160W        W88449  42.380  37.439   3.206
27161W        W88450  17.726  30.967   4.285
27162W        W88451  42.810  23.036   4.241
27163W        W88452  30.971  10.874   0.788
27164W        W88453  17.275   9.746  11.503
27165W        W88454   5.782  36.087  10.945
27166W        W88455  44.989  14.818  13.902
27167W        W88456   4.879  17.156   1.815
27168W        W88457  28.590  33.102   4.174
27169W        W88458  32.911   9.389  10.951
27170W        W88459  13.749   3.388  11.935
27171W        W88460  37.955   3.238  12.882
27172W        W88461  23.241   5.713  10.549
27173W        W88462  10.359  19.166  14.840
27174W        W88463  15.218  35.488   3.776
27175W        W88464  35.388  29.450   1.923
27176W        W88465  43.395  35.575  12.008
27177W        W88466   4.320  42.945  12.846
27178W        W88467  15.696  33.608   3.327
27179W        W88468   1.455  23.201   4.742
27180W        W88469  14.791  35.920   5.701
27181W        W88470  18.105  25.135   2.820
27182W        W88471  17.195  13.256  14.400
27183W        W88472   4.331  42.784  10.913
27184W        W88473   3.264  40.457   2.228
27185W        W88474  24.185  37.930  12.510
27186W        W88475  13.630  41.532  10.940
27187W        W88476  26.515  19.146   3.147
27188W        W88477  10.298  12.731  12.459
27189W        W88478  23.022  26.631  12.380
27190W        W88479  39.413  26.201   1.749
27191W        W88480   5.379  28.995   5.218
27192W        W88481  16.748  10.182  11.446
27193W        W88482  38.916   6.338  11.409
27194W        W88483  29.642  38.959  11.450
27195W        W88484  22.214  21.665   0.323
27196W        W88485  17.574  18.587   1.217
27197W        W88486   4.336   2.795  11.538
27198W        W88487  27.959   0.787   2.666
27199W        W88488  44.865  23.563   1.753
27200W        W88489  24.134  42.958  14.450
27201W        W88490   6.381   2.425  10.536
27202W        W88491  13.670  25.711  14.433
27203W        W88492  30.123  44.791  14.961
27204W        W88493  37.078  24.540   1.922
27205W        W88494  14.697  39.936  13.825
27206W        W88495  28.025  12.849  12.544
27207W        W88496   2.725  33.024  13.876
27208W        W88497   9.667   8.756   0.865
27209W        W88498  21.513  16.707  12.090
27210W        W88499   7.315  26.660   2.348
27211W        W88500  29.627  39.455  14.460
27212W        W88501  26.620  44.405  14.933
27213W        W88502   3.383  38.476  10.971
27214W        W88503   7.862  17.196   4.775
27215W        W88504   0.251  17.084  10.947
27216W        W88505  35.457  16.633   3.720
27217W        W88506  38.495  13.688  12.503
27218W        W88507  27.521   0.897   4.751
27219W        W88508  42.410   8.799   3.362
27220W        W88509  17.063  40.942   4.745
27221W        W88510  11.626   0.433   1.929
27222W        W88511  40.882  17.581  13.037
27223W        W88512  24.145  31.485  13.931
27224W        W88513   9.700  37.412   2.853
27225W        W88514  40.313  35.010  14.386
27226W        W88515  24.633   2.937  14.763
27227W        W88516  24.494  20.263   1.339
27228W        W88517  27.063  19.752  10.453
27229W        W88518  22.034  43.931   2.833
27230W        W88519  27.450  33.007   2.713
27231W        W88520  24.490  32.513   1.215
27232W        W88521  20.739   6.904   1.741
27233W        W88522  44.302   2.945  14.350
27234W        W88523  38.386  23.003   0.897
27235W        W88524  38.476  14.290   2.882
27236W        W88525   9.324  27.505  12.925
27237W        W88526   2.729  28.487  11.924
27238W        W88527  27.484  37.418   0.369
27239W        W88528  33.944  27.170   4.263
27240W        W88529  21.044  11.205   1.883
27241W        W88530   6.224  32.985  12.960
27242W        W88531  19.587  35.052   4.607
27243W        W88532  32.995   9.358  13.363
27244W        W88533  32.123  15.297  14.488
27245W        W88534  14.674  34.046   2.859
27246W        W88535  28.182  33.031   2.382
27247W        W88536  24.511  24.624   4.617
27248W        W88537  20.526  28.955   4.710
27249W        W88538  36.011  40.913  14.778
27250W        W88539  24.560  14.217  13.868
27251W        W88540  27.022  31.118  11.548
27252W        W88541   3.284   2.430   4.140
27253W        W88542  36.076  32.448  12.489
27254W        W88543  15.657  21.034  12.499
27255W        W88544  41.878  14.739  11.987
27256W        W88545  37.492   5.375   1.359
27257W        W88546  22.192  13.310   3.787
27258W        W88547  12.171  43.270  11.513
27259W        W88548  27.591  40.824   3.808
27260W        W88549  10.225  40.859   2.275
27261W        W88550   0.754  20.712   4.623
27262W        W88551  41.886  30.594   1.891
27263W        W88552   3.953  30.483   1.907
27264W        W88553   8.179  23.112   0.779
27265W        W88554   6.679  44.940   3.762
27266W        W88555  28.945   3.844  11.036
27267W        W88556  43.409   1.267   3.753
27268W        W88557  10.846   9.673  10.416
27269W        W88558  22.520  21.252   3.837
27270W        W88559  20.059  31.419   2.292
27271W        W88560  13.121  37.063   9.516
27272W        W88561  15.094  25.565   5.154
27273W        W88562  35.953   3.829  10.410
27274W        W88563  10.787  36.092   9.986
27275W        W88564  16.637  44.314  12.528
27276W        W88565  14.330  42.969  13.040
27277W        W88566  23.023   6.854   1.383
27278W        W88567  25.553  29.976  14.299
27279W        W88568  20.725  14.204   1.703
27280W        W88569  43.788  38.909  11.008
27281W        W88570  26.671  24.601  11.969
27282W        W88571  28.622  30.968   0.437
27283W        W88572   4.373  15.670  10.048
27284W        W88573  29.054  28.953  12.531
27285W        W88574  38.044  20.106  11.096
27286W        W88575  25.155  34.405  12.429
27287W        W88576   3.315  15.652   2.188
27288W        W88577  37.444  12.772   0.727
27289W        W88578  42.307  27.604   1.423
27290W        W88579  29.483  19.161  14.368
27291W        W88580  38.053  37.539   5.167
27292W        W88581  35.456  43.827  10.543
27293W        W88582  41.475  29.535   4.703
27294W        W88583  18.239   5.797  12.860
27295W        W88584  41.891  27.503  10.614
27296W        W88585  14.829  26.136   0.964
27297W        W88586  41.833  39.329  11.600
27298W        W88587  40.511  38.937  12.578
27299W        W88588  10.305  13.291   4.633
27300W        W88589  19.550  42.996   4.303
27301W        W88590  35.005  33.541   3.753
27302W        W88591  10.274  27.951   1.289
27303W        W88592  11.853  24.566  11.026
27304W        W88593   9.255  17.762  10.940
27305W        W88594   1.354  32.136   4.645
27306W        W88595  39.890  29.528  14.936
27307W        W88596  19.589  28.677   1.439
27308W        W88597  17.184   7.409  10.610
27309W        W88598   9.766   5.799  12.481
27310W        W88599  28.986  13.831  13.791
27311W        W88600  14.275  27.556   0.244
27312W        W88601  27.140  23.072  11.484
27313W        W88602  17.583  39.869  11.585
27314W        W88603  15.783   2.411   1.811
27315W        W88604   9.705   6.354  11.034
27316W        W88605   3.222  41.466  14.404
27317W        W88606   5.353  32.984   0.266
27318W        W88607   7.762  27.569   3.271
27319W        W88608  44.006   7.801  12.840
27320W        W88609  16.732  34.896  12.027
27321W        W88610  26.465  17.219  14.487
27322W        W88611  10.790   6.280  12.830
27323W        W88612  38.951  32.492   0.900
27324W        W88613   6.261   1.788   1.713
27325W        W88614   9.337  41.395   2.862
27326W        W88615  40.370  26.111   4.273
27327W        W88616  17.304  43.807  14.470
27328W        W88617  44.296  35.039  14.903
27329W        W88618  29.942   5.389   9.494
27330W        W88619   3.894  32.914   2.809
27331W        W88620  12.669  41.463   2.779
27332W        W88621  10.798  26.162   2.314
27333W        W88622  29.137   0.465  11.083
27334W        W88623  38.506  37.875   2.903
27335W        W88624   2.243  37.466   0.947
27336W        W88625  26.154   3.755  14.337
27337W        W88626   2.752   1.462  13.018
27338W        W88627   5.290  30.011  14.006
27339W        W88628  42.373  36.515   2.771
27340W        W88629   4.285   9.833  14.474
27341W        W88630  44.898   0.452   0.893
27342W        W88631  19.774   4.412  14.786
27343W        W88632  25.139  27.078   2.365
27344W        W88633   6.712  32.058  12.841
27345W        W88634  13.841  36.548   1.431
27346W        W88635  31.414  25.468   1.399
27347W        W88636  20.113  33.461  13.481
27348W        W88637  24.530  10.171   2.398
27349W        W88638  37.984  40.376   4.119
27350W        W88639   2.769  22.999   1.925
27351W        W88640  37.390  28.951   4.719
27352W        W88641  10.158  36.911   3.637
27353W        W88642   7.760  29.016  13.530
27354W        W88643  20.670  11.344   3.368
27355W        W88644  11.734   4.839  12.486
27356W        W88645   1.450   6.418  10.512
27357W        W88646   9.853  13.835   4.628
27358W        W88647   7.346  34.919   5.322
27359W        W88648  30.096   3.860   4.743
27360W        W88649   8.333   6.834  13.002
27361W        W88650  44.755  10.671   0.831
27362W        W88651  34.077  43.820   0.749
27363W        W88652  28.036  42.449   4.135
27364W        W88653  37.035  28.463  10.479
27365W        W88654  42.906  16.712  12.834
27366W        W88655   2.915  43.018   2.369
27367W        W88656  44.488  43.362   2.185
27368W        W88657  43.417   2.410   1.217
27369W        W88658  43.975  42.355  14.777
27370W        W88659   1.256  29.133   2.733
27371W        W88660  35.531  22.550  12.434
27372W        W88661  39.357  14.680   0.345
27373W        W88662  35.927   7.258  14.882
27374W        W88663  35.373  42.359   1.221
27375W        W88664  41.527   1.339  12.371
27376W        W88665  30.089  15.190   1.351
27377W        W88666  35.574  23.041   2.353
27378W        W88667  25.667  29.635  13.417
27379W        W88668  41.839  20.747   1.882
27380W        W88669  37.444   8.302  10.903
27381W        W88670  40.041  42.782   2.307
27382W        W88671  36.992  30.138  10.895
27383W        W88672  30.496  10.366  10.971
27384W        W88673  25.621  17.269  11.457
27385W        W88674  22.039  28.600   4.765
27386W        W88675  32.961   5.320  14.875
27387W        W88676  17.216  36.093  14.335
27388W        W88677   5.728  20.593  11.379
27389W        W88678  15.655  18.545   1.760
27390W        W88679   3.282  41.973  11.106
27391W        W88680  13.807  30.489  13.957
27392W        W88681  43.305  30.483   5.291
27393W        W88682  13.332   0.780  13.057
27394W        W88683   7.907   3.936   4.307
27395W        W88684   9.842  37.579   1.929
27396W        W88685  31.142  29.455  13.958
27397W        W88686  31.493  32.968  12.364
27398W        W88687  28.090  33.531  13.522
27399W        W88688  36.512  35.941   0.420
27400W        W88689  11.847  43.850  10.161
27401W        W88690  37.548  23.111  14.326
27402W        W88691  31.134  16.261  11.514
27403W        W88692  38.847  11.626  12.045
27404W        W88693  38.071  40.530  14.438
27405W        W88694   5.284  13.836   4.717
27406W        W88695  40.411  37.558  13.817
27407W        W88696   2.824  31.593   2.855
27408W        W88697  19.537  34.034   3.804
27409W        W88698  37.534  36.058   0.414
27410W        W88699  38.874   3.793   1.909
27411W        W88700  36.379  18.218  10.455
27412W        W88701   4.280  14.127  14.317
27413W        W88702  43.895  14.600   3.172
27414W        W88703  14.183  39.839   3.816
27415W        W88704   0.804  13.643  14.927
27416W        W88705  18.639   4.714  10.430
27417W        W88706  35.857   3.408  14.359
27418W        W88707  27.989  26.657  10.535
27419W        W88708  14.722  38.996  12.452
27420W        W88709  18.776  12.661  11.031
27421W        W88710  25.059  13.188  11.586
27422W        W88711   8.802   2.732  11.924
27423W        W88712  25.663   4.336  12.070
27424W        W88713  35.604  38.534   1.424
27425W        W88714  16.715   6.856   0.837
27426W        W88715  16.620  35.411   2.688
27427W        W88716  37.418  21.183   5.180
27428W        W88717  33.008   1.321   0.825
27429W        W88718  12.327  43.954   4.715
27430W        W88719  29.949   1.957   1.249
27431W        W88720  20.709  25.639  11.499
27432W        W88721   8.244  18.744   0.250
27433W        W88722  17.791  14.763   0.890
27434W        W88723  26.120  37.832  10.946
27435W        W88724  42.916   4.245   0.313
27436W        W88725  28.121  10.749   4.353
27437W        W88726  19.698  42.421   0.738
27438W        W88727  18.146  29.015   4.192
27439W        W88728   7.712  40.432  11.017
27440W        W88729   8.662  25.547   2.708
27441W        W88730  16.300  37.578   0.967
27442W        W88731  10.345  12.760  12.066
27443W        W88732  16.181  21.576   1.814
27444W        W88733   6.721  33.524   3.767
27445W        W88734   6.399  43.476   0.247
27446W        W88735  11.856  11.719  11.971
27447W        W88736   0.918  37.009  14.919
27448W        W88737  29.459  28.949  12.927
27449W        W88738  34.479   9.372  12.010
27450W        W88739   0.979  28.938   2.321
27451W        W88740  37.554  12.694  12.937
27452W        W88741  30.953  26.186   3.379
27453W        W88742   2.920  12.263  12.527
27454W        W88743  43.396  14.804  12.516
27455W        W88744  37.847  27.101  12.906
27456W        W88745  10.240   7.764   4.123
27457W        W88746  39.954   3.317   3.161
27458W        W88747  21.158   2.775  14.017
27459W        W88748  33.380  24.612   0.784
27460W        W88749  21.722   5.864  13.417
27461W        W88750  35.580  41.437   2.734
27462W        W88751  41.436  26.480  11.578
27463W        W88752  22.695   8.854  13.449
27464W        W88753  32.071   0.494   4.706
27465W        W88754  28.026  33.429  11.915
27466W        W88755  41.987   0.764  11.942
27467W        W88756  34.431  44.011   2.240
27468W        W88757   0.916  12.177   5.241
27469W        W88758  40.438  13.751  12.980
27470W        W88759  36.410  37.886  13.920
27471W        W88760  43.909  22.027  11.506
27472W        W88761  37.367  12.696  10.896
27473W        W88762  10.718  19.620  14.008
27474W        W88763  35.464  43.307  13.382
27475W        W88764  30.527  18.790   0.278
27476W        W88765   7.188  17.160  14.015
27477W        W88766  18.288   0.816   0.328
27478W        W88767   5.775   3.340   0.303
27479W        W88768  14.773  24.057   1.786
27480W        W88769  12.176  18.658   1.786
27481W        W88770   7.394  42.369  14.842
27482W        W88771  26.055  35.511  12.922
27483W        W88772  23.678  28.008   2.344
27484W        W88773  27.500   3.304  12.467
27485W        W88774   2.320  41.395   3.683
27486W        W88775  16.809  14.136  14.895
27487W        W88776  16.121  32.956  14.922
27488W        W88777   0.429  10.328   3.244
27489W        W88778  12.247  36.079  12.571
27490W        W88779  32.927  21.641   2.215
27491W        W88780  24.040   3.721   4.826
27492W        W88781  26.159  25.178  10.048
27493W        W88782  29.988   9.364  12.966
27494W        W88783  17.730  40.419   2.736
27495W        W88784   4.731   2.246   3.784
27496W        W88785  14.297  33.595   3.303
27497W        W88786  10.151  35.389   4.296
27498W        W88787  35.552  39.971  10.425
27499W        W88788  18.666   8.291  13.528
27500W        W88789   3.355  27.988  13.046
27501W        W88790   1.275   2.454   1.815
27502W        W88791   1.364  36.902  13.884
27503W        W88792   7.782  21.240  14.008
27504W        W88793  13.688   7.395  11.517
27505W        W88794  14.733  32.889  13.941
27506W        W88795  26.654  40.891   3.840
27507W        W88796  35.035  37.482  10.153
27508W        W88797   3.455   7.279   4.192
27509W        W88798  12.738  28.591   4.611
27510W        W88799   4.815   6.298   0.767
27511W        W88800   4.787   3.734  12.364
27512W        W88801  25.571  44.985  12.456
27513W        W88802  27.469  29.952  11.577
27514W        W88803  36.426  41.495   0.416
27515W        W88804  12.733  41.909  12.083
27516W        W88805  15.126  10.297  14.310
27517W        W88806  16.076  30.526   1.214
27518W        W88807  33.931  12.356   4.631
27519W        W88808  34.591  30.578  12.941
27520W        W88809  33.124  22.028   0.797
27521W        W88810  13.145   8.731  10.924
27522W        W88811  17.721  29.132   3.703
27523W        W88812   0.909  23.689   0.829
27524W        W88813  25.703  10.665   2.835
27525W        W88814  14.125  38.923   4.642
27526W        W88815  42.895  36.928  10.559
27527W        W88816  28.530   5.413   3.786
27528W        W88817  36.386  36.388   1.344
27529W        W88818  10.167  19.261  12.845
27530W        W88819  27.566  38.999   4.344
27531W        W88820  27.567  14.643   1.345
27532W        W88821  31.075   6.743  11.513
27533W        W88822  24.524  25.054  10.550
27534W        W88823  14.589  10.373  12.344
27535W        W88824  37.440  23.596   4.127
27536W        W88825   6.837  24.980  11.125
27537W        W88826  22.670  10.172  14.945
27538W        W88827  19.264   2.429  13.536
27539W        W88828  41.909   7.387   0.961
27540W        W88829  18.163  14.812   3.762
27541W        W88830  26.168  36.963   1.315
27542W        W88831  26.560  39.978   0.950
27543W        W88832  15.179   8.379  14.935
27544W        W88833  31.955  37.510   3.780
27545W        W88834   9.696  23.060  10.112
27546W        W88835   5.372   6.875  11.423
27547W        W88836   0.365  43.450  14.404
27548W        W88837   5.785  19.612   3.343
27549W        W88838  33.467   5.340  13.025
27550W        W88839  44.946   1.797  13.934
27551W        W88840  31.988  24.659   2.761
27552W        W88841  20.548   4.923  11.556
27553W        W88842  42.951  30.969  12.942
27554W        W88843   3.446  29.555  10.538
27555W        W88844  26.990  33.057   1.924
27556W        W88845  34.988  24.122  14.783
27557W        W88846  21.246  32.424   4.620
27558W        W88847   4.767   0.413   2.884
27559W        W88848  26.593   3.384  10.904
27560W        W88849  29.959  14.341  13.531
27561W        W88850   0.804  28.041  10.448
27562W        W88851   9.887  30.599  10.538
27563W        W88852   1.853  35.913   4.113
27564W        W88853  30.151  15.209  13.981
27565W        W88854   9.882  24.694   1.706
27566W        W88855   6.710  38.857  14.955
27567W        W88856  13.182   0.824   3.713
27568W        W88857  39.484  14.233   4.781
27569W        W88858  21.069  41.959  13.883
27570W        W88859  23.618  11.687   2.332
27571W        W88860  27.521  24.118   0.810
27572W        W88861  16.569  34.421  14.430
27573W        W88862  11.630  38.458  13.866
27574W        W88863   9.253  34.397  13.348
27575W        W88864   1.907  37.997   4.299
27576W        W88865   0.759  38.417   2.717
27577W        W88866   2.951  38.550  13.394
27578W        W88867   0.934  28.653   4.738
27579W        W88868  31.997   1.321  12.882
27580W        W88869   8.837   1.258  10.926
27581W        W88870  14.132  26.553  14.372
27582W        W88871   7.682  35.374  13.950
27583W        W88872  22.189  38.884   1.398
27584W        W88873  43.787  15.787  14.292
27585W        W88874  25.516  25.137  14.368
27586W        W88875  21.115  20.252   0.348
27587W        W88876  16.772  38.015   3.303
27588W        W88877  41.385  17.288  11.452
27589W        W88878  36.944  19.141  14.025
27590W        W88879   1.825  11.669  12.394
27591W        W88880   6.379   0.780  14.961
27592W        W88881  26.980  22.601   2.246
27593W        W88882   4.865  17.579  14.441
27594W        W88883   4.234   2.404   4.707
27595W        W88884  31.580  30.059  11.946
27596W        W88885  29.084  35.902  11.611
27597W        W88886  34.574  26.174  14.381
27598W        W88887   7.234  31.634   5.147
27599W        W88888   7.285  41.417  13.011
27600W        W88889  30.131   0.399  13.952
27601W        W88890  24.497  25.558  10.077
27602W        W88891   8.859  16.771   2.851
27603W        W88892   7.701  42.989  12.548
27604W        W88893  25.098  17.182   2.283
27605W        W88894  37.861   6.718   1.371
27606W        W88895  26.567  24.996  11.016
27607W        W88896  24.104  30.503   2.819
27608W        W88897   3.880  16.157   0.791
27609W        W88898   6.323  38.984   0.290
27610W        W88899  32.095  17.718  12.397
27611W        W88900  44.972  29.964  10.990
27612W        W88901  21.557  15.127   4.707
27613W        W88902  35.416  38.556   1.930
27614W        W88903  25.577   2.265   3.789
27615W        W88904  38.431  20.060   1.299
27616W        W88905  32.039  33.956   2.262
27617W        W88906  26.118  33.100   1.873
27618W        W88907  27.665  28.939  11.431
27619W        W88908  24.094  10.248  10.463
27620W        W88909  44.309   1.811   0.832
27621W        W88910  20.562   7.176   4.301
27622W        W88911  42.466  36.899  13.376
27623W        W88912  41.475  31.021   3.200
27624W        W88913  37.064   6.296   4.689
27625W        W88914   6.708  10.727  13.326
27626W        W88915  34.498  34.886   2.803
27627W        W88916  43.410  43.945  14.938
27628W        W88917  37.425   9.785  11.005
27629W        W88918  18.746  12.849   3.229
27630W        W88919  25.651   5.874   0.399
27631W        W88920   1.872  43.313   3.352
27632W        W88921  30.645   6.797   2.785
27633W        W88922  22.010  10.697   1.858
27634W        W88923   3.249  41.930  14.801
27635W        W88924   2.257  24.005  11.403
27636W        W88925  24.090   9.341   3.787
27637W        W88926  28.656   1.454  14.470
27638W        W88927   2.401  22.550   5.282
27639W        W88928  33.970  20.158  10.636
27640W        W88929   7.736  17.217  10.437
27641W        W88930  39.050  38.410   4.136
27642W        W88931  23.727   3.269  14.278
27643W        W88932   8.215   5.318   3.651
27644W        W88933   7.172  11.231  12.474
27645W        W88934  17.303  25.123   2.711
27646W        W88935  24.007  36.072   2.742
27647W        W88936  43.807  37.361   3.159
27648W        W88937  35.358   3.864  14.278
27649W        W88938  15.158  18.199   4.715
27650W        W88939  39.499  20.196  12.358
27651W        W88940  38.040   9.874  10.411
27652W        W88941  17.255   6.402   5.081
27653W        W88942  20.217   5.800   0.949
27654W        W88943  19.225  26.197   4.739
27655W        W88944  38.958  41.507   0.423
27656W        W88945  35.511   5.353   3.334
27657W        W88946  44.456  19.582  13.391
27658W        W88947   1.368   5.215  10.551
27659W        W88948  39.417  30.417   1.213
27660W        W88949   4.389  19.236  14.931
27661W        W88950   8.809  12.289   0.376
27662W        W88951  38.893  11.829  13.509
27663W        W88952   2.753  41.386   2.846
27664W        W88953   0.315  32.545   3.664
27665W        W88954  33.880   0.350   2.213
27666W        W88955  23.635  13.682   1.872
27667W        W88956  13.264   6.891  11.074
27668W        W88957   7.317   9.387  11.435
27669W        W88958  41.342  37.875  13.349
27670W        W88959  40.392  44.847  12.530
27671W        W88960  33.416  16.160  11.529
27672W        W88961  29.070  34.940   0.411
27673W        W88962   7.685  12.783  14.934
27674W        W88963  24.587  31.480  12.388
27675W        W88964  10.666  19.756  12.369
27676W        W88965  13.778  41.963   4.261
27677W        W88966  19.235  27.501  14.464
27678W        W88967  43.284  41.867   4.837
27679W        W88968  12.651   1.840  12.920
27680W        W88969  15.301   6.815  11.508
27681W        W88970  13.190  29.065   2.676
27682W        W88971  23.205  28.538  14.954
27683W        W88972  36.028  15.613   2.686
27684W        W88973  12.617  12.691  13.854
27685W        W88974  31.015  31.509  11.573
27686W        W88975  40.842  17.095   1.705
27687W        W88976  35.444  13.716  13.060
27688W        W88977  26.960  18.690   1.309
27689W        W88978  13.790  40.307  12.915
27690W        W88979   9.840  26.070   2.806
27691W        W88980   1.813  20.529  11.047
27692W        W88981  44.259  35.591   4.207
27693W        W88982  40.359  39.493  13.806
27694W        W88983  11.819  30.519  11.408
27695W        W88984   1.300  15.146   3.675
27696W        W88985  34.558  17.121  10.970
27697W        W88986  28.167  31.404   3.837
27698W        W88987  18.591  13.344   4.728
27699W        W88988  41.818  28.048  13.485
27700W        W88989  35.088  33.889  13.936
27701W        W88990  34.883   8.183   4.179
27702W        W88991  30.432  34.117  14.333
27703W        W88992  18.132  20.237  11.007
27704W        W88993  35.956  33.462  14.937
27705W        W88994  11.254  43.272  14.514
27706W        W88995  23.012  19.146  10.556
27707W        W88996  23.155  23.066  12.464
27708W        W88997  42.522  16.303  14.842
27709W        W88998   7.829  23.218   4.754
27710W        W88999  39.823  44.450  13.431
27711W        W89000  28.032  22.211  11.114
27712W        W89001  18.140   1.453   4.144
27713W        W89002  35.524  19.236  10.105
27714W        W89003  32.964   2.227  12.376
27715W        W89004  22.707  29.030   0.809
27716W        W89005  41.440  10.793  12.384
27717W        W89006  10.141  36.357   4.269
27718W        W89007   6.278   9.761  11.564
27719W        W89008  13.158  15.682   5.221
27720W        W89009   2.744  28.978   1.283
27721W        W89010  14.789  19.708   4.708
27722W        W89011  32.892  15.170  13.431
27723W        W89012   0.456  19.134   1.396
27724W        W89013  20.058   2.229   4.773
27725W        W89014  38.460  12.617  13.997
27726W        W89015   8.714  36.027  11.468
27727W        W89016  30.583  37.565   1.769
27728W        W89017  20.647  39.978   4.266
27729W        W89018  12.690  19.108   4.305
27730W        W89019  37.354   3.402  14.005
27731W        W89020  12.136  17.115  14.031
27732W        W89021  30.486  29.154   4.184
27733W        W89022  15.751   2.842   2.711
27734W        W89023   6.886  30.479   3.814
27735W        W89024  25.630  16.266   3.255
27736W        W89025  30.557  30.991  12.020
27737W        W89026  24.609  38.513  10.627
27738W        W89027  24.481   1.411  14.775
27739W        W89028  10.352  33.440   1.359
27740W        W89029  13.710   2.422   0.893
27741W        W89030  26.964  18.212  14.787
27742W        W89031  25.986  26.694   2.308
27743W        W89032  24.009  40.353   0.938
27744W        W89033   2.383   1.762  14.778
27745W        W89034  10.179   9.647   4.714
27746W        W89035   1.788  36.913   0.795
27747W        W89036  17.188  10.805  13.027
27748W        W89037  20.062  25.076   0.743
27749W        W89038  31.966   6.800  13.385
27750W        W89039  32.976  38.843   2.198
27751W        W89040   1.472   7.874  10.424
27752W        W89041  35.379   4.283   4.229
27753W        W89042  27.642  30.146  12.509
27754W        W89043  25.472  37.390  11.071
27755W        W89044   3.236  13.783  12.425
27756W        W89045  35.986  35.943   4.723
27757W        W89046  40.038  42.810  13.485
27758W        W89047  23.220   9.170   3.818
27759W        W89048  31.092  29.932  14.397
27760W        W89049  35.009  34.898   1.802
27761W        W89050  10.302  27.673   2.183
27762W        W89051  44.347  14.670   4.626
27763W        W89052  20.229   1.438  12.391
27764W        W89053  24.499   9.799   3.729
27765W        W89054   5.308   8.656   4.343
27766W        W89055  24.645  13.321   1.355
27767W        W89056  35.997   9.711   3.237
27768W        W89057   1.352   7.821   2.254
27769W        W89058  12.678  23.222  12.486
27770W        W89059  12.116  25.694   4.351
27771W        W89060  39.861  32.067  10.598
27772W        W89061  11.167  27.688  10.981
27773W        W89062  36.559   9.709   1.217
27774W        W89063  15.327  22.223   4.218
27775W        W89064  17.616  40.402  10.012
27776W        W89065  26.134  23.065   2.813
27777W        W89066  21.194   4.230  10.584
27778W        W89067  20.727  10.336   3.647
27779W        W89068  40.417   8.782  10.016
27780W        W89069   8.262  19.734  14.414
27781W        W89070  41.391   5.291  12.400
27782W        W89071  41.472  29.070  13.383
27783W        W89072   0.800  36.470  13.852
27784W        W89073  27.169  28.068   2.793
27785W        W89074  19.207  24.563   1.297
27786W        W89075  39.493  36.441   3.747
27787W        W89076  43.012  41.979  13.032
27788W        W89077  24.574   4.790   4.778
27789W        W89078  25.080  21.637   0.737
27790W        W89079   8.749  14.832  12.451
27791W        W89080  24.615   4.742  12.492
27792W        W89081  24.489   5.431   1.858
27793W        W89082  33.995  44.455  14.399
27794W        W89083   8.381  17.646  13.535
27795W        W89084  17.151  43.928   0.756
27796W        W89085  38.996  31.572  12.378
27797W        W89086  18.576  40.436   5.206
27798W        W89087  17.202  33.516  10.427
27799W        W89088  34.569   5.865   4.642
27800W        W89089  12.631   4.270  10.020
27801W        W89090  23.040  29.592  14.004
27802W        W89091  35.987  30.909  11.868
27803W        W89092  17.277  18.764  12.531
27804W        W89093  36.551  29.971  12.937
27805W        W89094  14.695  24.558  10.425
27806W        W89095  15.180  39.499  10.636
27807W        W89096  34.941  19.079  12.861
27808W        W89097  31.434  24.493  12.418
27809W        W89098   1.245  19.722  14.497
27810W        W89099  31.018  20.692   1.450
27811W        W89100  41.537  39.405  14.370
27812W        W89101   8.884   1.899  12.962
27813W        W89102   3.796  17.245   4.713
27814W        W89103  44.281   0.445   2.189
27815W        W89104  40.320  19.253   4.330
27816W        W89105   3.366  20.678  10.901
27817W        W89106  30.004   5.283   3.724
27818W        W89107   2.728  30.020   1.403
27819W        W89108   5.724  25.105   2.688
27820W        W89109  26.194  10.221   4.181
27821W        W89110   2.411  24.019  14.396
27822W        W89111  16.301  37.920  13.820
27823W        W89112  27.193  31.514  14.000
27824W        W89113  30.114  34.008   0.752
27825W        W89114  33.549   8.895  10.130
27826W        W89115   6.710  33.901  10.994
27827W        W89116   9.220  23.041   4.692
27828W        W89117  43.437   6.740  11.947
27829W        W89118  42.442  21.214  11.013
27830W        W89119  28.530  27.984  10.512
27831W        W89120   5.314   6.697  14.780
27832W        W89121   0.764  28.944  13.798
27833W        W89122  22.222  22.027   2.775
27834W        W89123  25.216   6.225  14.018
27835W        W89124  42.958  32.608  13.378
27836W        W89125   3.870  35.373   2.678
27837W        W89126  15.265  38.064  12.514
27838W        W89127  14.596  42.873  11.558
27839W        W89128   9.362  11.262   2.252
27840W        W89129  30.093  37.923  14.318
27841W        W89130  43.378  13.767  13.038
27842W        W89131  21.733  11.816  11.536
27843W        W89132  29.088  41.332   3.722
27844W        W89133  10.313  16.088   4.220
27845W        W89134  35.907  15.264  12.089
27846W        W89135  22.511  20.694   0.803
27847W        W89136   8.250  13.809   3.225
27848W        W89137   2.415  18.695   1.914
27849W        W89138  35.875  40.025   3.278
27850W        W89139  18.235  32.071   4.679
27851W        W89140  19.542  32.624  13.475
27852W        W89141   1.374  14.262   3.712
27853W        W89142  25.018   7.241  13.391
27854W        W89143  35.081   8.668   3.678
27855W        W89144  21.588  19.770  11.466
27856W        W89145  22.572  13.800  12.944
27857W        W89146  22.524  28.509  12.482
27858W        W89147  10.186  37.388   0.788
27859W        W89148   5.775  42.876  10.515
27860W        W89149  29.017  32.941   0.957
27861W        W89150   9.766  12.805   0.770
27862W        W89151  30.966  19.640   2.318
27863W        W89152  17.620  32.936   1.419
27864W        W89153  16.155  42.831   0.330
27865W        W89154  18.135  43.004  11.536
27866W        W89155   5.815  19.683   2.759
27867W        W89156  38.894  29.567  12.390
27868W        W89157   0.767  41.473   2.826
27869W        W89158  12.325  36.565  10.430
27870W        W89159  44.924  17.078   4.179
27871W        W89160  37.997  31.948   0.748
27872W        W89161  18.253  20.527  14.856
27873W        W89162  36.390  30.460  11.566
27874W        W89163  14.729  17.089   2.675
27875W        W89164   2.959  41.989   1.331
27876W        W89165  35.412  43.821  14.991
27877W        W89166  11.659  19.645  13.984
27878W        W89167  40.810  27.581   3.798
27879W        W89168  12.279  43.350  12.071
27880W        W89169  16.659  31.548  12.348
27881W        W89170  21.185  21.178  14.317
27882W        W89171  20.172  35.106   3.743
27883W        W89172   6.755  36.499  13.490
27884W        W89173   0.440  11.153   3.734
27885W        W89174   7.258   2.763  14.425
27886W        W89175   8.697  23.511  13.036
27887W        W89176  43.766  17.236   0.406
27888W        W89177  11.260  20.744   0.402
27889W        W89178  25.037   3.319   5.195
27890W        W89179  10.298  15.670   4.830
27891W        W89180  11.709  34.592   2.799
27892W        W89181  24.124  43.304   0.963
27893W        W89182   7.311  22.533  10.466
27894W        W89183   3.396  20.273   3.309
27895W        W89184  26.656   8.876  13.450
27896W        W89185  19.073  13.605  10.637
27897W        W89186   8.302  21.687   3.670
27898W        W89187   6.829  17.788  13.518
27899W        W89188  42.501  24.108  11.976
27900W        W89189  19.647  24.128  12.016
27901W        W89190   1.934   4.358   4.308
27902W        W89191  26.201  29.541   1.918
27903W        W89192   1.455  42.377   2.179
27904W        W89193   0.957   7.887   3.647
27905W        W89194   4.825  10.641   0.884
27906W        W89195  24.143   8.291   4.144
27907W        W89196  11.298  34.059  12.872
27908W        W89197  24.594  33.620  14.001
27909W        W89198  34.898  27.635  12.061
27910W        W89199  25.020  44.297  11.407
27911W        W89200  25.563  27.171  10.526
27912W        W89201  36.456  39.531   4.742
27913W        W89202  21.660   0.908   3.180
27914W        W89203  30.454  39.858   2.408
27915W        W89204  11.865  27.010   1.904
27916W        W89205  32.409   7.758   0.730
27917W        W89206  42.018  20.240  13.888
27918W        W89207   9.205  38.972  11.565
27919W        W89208   7.323   3.869  10.576
27920W        W89209  12.810  18.552  11.020
27921W        W89210  16.784   1.410   2.209
27922W        W89211  20.214  25.475  11.436
27923W        W89212  44.374  34.036  14.837
27924W        W89213  19.556  39.511  11.919
27925W        W89214  42.909   9.306   0.772
27926W        W89215  30.963  30.982   1.839
27927W        W89216   9.347  44.762  14.840
27928W        W89217   7.406  16.156   1.917
27929W        W89218  11.337  32.623   1.845
27930W        W89219  42.457  39.540  14.831
27931W        W89220  41.438   9.185  14.314
27932W        W89221  24.048  12.633  12.831
27933W        W89222  10.706  11.240  11.005
27934W        W89223  37.572  21.579   0.833
27935W        W89224   9.652  20.047  13.324
27936W        W89225  15.607  44.339  12.394
27937W        W89226  41.898   9.171   0.389
27938W        W89227  42.785  14.647  12.491
27939W        W89228  20.711  30.557  13.037
27940W        W89229   5.383   6.877   2.223
27941W        W89230  27.103  38.358   3.708
27942W        W89231  30.483   6.708  10.435
27943W        W89232  26.478  14.104  10.092
27944W        W89233  28.055   6.842   4.720
27945W        W89234  31.914  44.371   1.880
27946W        W89235   2.294  43.385  13.485
27947W        W89236   6.678  29.106  11.449
27948W        W89237  40.044  29.470   4.303
27949W        W89238  27.672  40.867  11.555
27950W        W89239  23.608  12.667   1.297
27951W        W89240  31.129  33.418   3.797
27952W        W89241  19.748  23.695  14.995
27953W        W89242  32.952  34.092  14.308
27954W        W89243  33.408  14.808   4.758
27955W        W89244  41.344   7.799  11.573
27956W        W89245   3.309  40.851  10.470
27957W        W89246   1.354  12.213  14.808
27958W        W89247  13.222  35.467   4.672
27959W        W89248  38.901  24.627   2.193
27960W        W89249  36.584  25.691   2.737
27961W        W89250  29.473  25.203   9.949
27962W        W89251  17.289   3.275   1.724
27963W        W89252  16.130  23.070   9.984
27964W        W89253  43.357  14.206   4.805
27965W        W89254  24.537  34.002   0.956
27966W        W89255  36.858  16.086  12.062
27967W        W89256   5.404  41.358   1.434
27968W        W89257  40.824  39.897  12.508
27969W        W89258  22.673  19.642  11.987
27970W        W89259  13.686   3.927   0.263
27971W        W89260   9.390  30.564  14.908
27972W        W89261  16.718  31.547  14.963
27973W        W89262  33.548  28.068   4.720
27974W        W89263   4.840   3.835   3.278
27975W        W89264   4.909  16.314   1.249
27976W        W89265   2.471   7.770  10.933
27977W        W89266  29.970  28.680   1.283
27978W        W89267  24.056   2.942   4.833
27979W        W89268  30.102   0.983   0.750
27980W        W89269  41.414  32.572   3.343
27981W        W89270   7.187  39.840   4.676
27982W        W89271  43.948   2.742   3.185
27983W        W89272  10.673  19.589   4.254
27984W        W89273  40.397   9.324  14.025
27985W        W89274  41.424  17.727  11.580
27986W        W89275  44.293   6.264   4.191
27987W        W89276  39.543  31.515   2.195
27988W        W89277  28.108  23.147   5.149
27989W        W89278  40.818  23.609  13.487
27990W        W89279  31.510   4.228   0.930
27991W        W89280  31.454   7.223  12.013
27992W        W89281  31.546  14.171  14.886
27993W        W89282  39.823   1.265  10.594
27994W        W89283  27.556  30.657   2.310
27995W        W89284  13.728  18.773   2.317
27996W        W89285  25.213  36.396   3.161
27997W        W89286  22.226   2.353   3.692
27998W        W89287  44.886   2.298   0.272
27999W        W89288  29.577  24.679  10.931
28000W        W89289  15.086  24.130  13.860
28001W        W89290   4.772   2.256  12.418
28002W        W89291   0.329  11.293  12.467
28003W        W89292  13.761  28.064  10.576
28004W        W89293  30.963   5.789  14.920
28005W        W89294  39.350  16.131   3.701
28006W        W89295  34.872  11.717   2.324
28007W        W89296  42.989  34.602   2.872
28008W        W89297  26.690  24.085   2.786
28009W        W89298  36.925   7.696   3.234
28010W        W89299  12.244  25.109  13.382
28011W        W89300  44.971  36.581  11.511
28012W        W89301  40.899  33.430   3.264
28013W        W89302  32.394  38.961  11.387
28014W        W89303  36.082  38.958   1.854
28015W        W89304   6.816  37.524  10.615
28016W        W89305  28.081   8.827  11.379
28017W        W89306   4.747  37.382   4.738
28018W        W89307  33.054  13.804   0.904
28019W        W89308  37.049  40.880   0.422
28020W        W89309  14.695  15.261  14.328
28021W        W89310  42.325  13.112   4.804
28022W        W89311  22.586  41.318  10.542
28023W        W89312  28.441  23.633   0.844
28024W        W89313  38.002   2.248  11.096
28025W        W89314  24.033   5.289  11.877
28026W        W89315  18.228  27.472   1.397
28027W        W89316  14.615  17.743  13.027
28028W        W89317  39.431  15.820   2.883
28029W        W89318  38.983  31.127  12.430
28030W        W89319  22.676  40.457  13.002
28031W        W89320  30.040   1.346  10.066
28032W        W89321  24.671  29.516   3.226
28033W        W89322   1.857  29.143   0.398
28034W        W89323   0.986  34.594   0.478
28035W        W89324  11.768  37.062  10.101
28036W        W89325  17.134  26.671   2.400
28037W        W89326  17.120  29.947   2.675
28038W        W89327  17.647  26.115  13.841
28039W        W89328  31.970  35.603   2.667
28040W        W89329  29.927  18.251  12.908
28041W        W89330  26.149   2.377  13.320
28042W        W89331  37.493  28.618  13.463
28043W        W89332  28.186  42.340  11.123
28044W        W89333   6.297  34.423   5.297
28045W        W89334  39.000  19.110   0.857
28046W        W89335  35.910   4.833   0.900
28047W        W89336  19.659  43.891   4.121
28048W        W89337  35.559  17.736  10.561
28049W        W89338  29.039  34.030  11.918
28050W        W89339  18.269  44.473  13.373
28051W        W89340  39.347  34.981   1.792
28052W        W89341  38.838  31.137  13.883
28053W        W89342   8.781  33.542   2.756
28054W        W89343   7.766   8.858  10.047
28055W        W89344  40.422  28.004  11.573
28056W        W89345  29.580  35.466   1.254
28057W        W89346  44.920  21.573  13.939
28058W        W89347   2.451  37.831  11.973
28059W        W89348  12.132  41.338   4.703
28060W        W89349  42.379  11.156   0.879
28061W        W89350  25.621  25.205   0.251
28062W        W89351  35.013  25.963  14.904
28063W        W89352  36.885  30.425  10.889
28064W        W89353  40.307  19.092  14.329
28065W        W89354  16.747   3.833  12.385
28066W        W89355  41.871  30.080   1.830
28067W        W89356  33.984  13.165  13.017
28068W        W89357  40.470   1.736  13.370
28069W        W89358  17.754  19.280   0.771
28070W        W89359  10.146  40.344  11.572
28071W        W89360  17.243   7.911  11.049
28072W        W89361  38.365  30.006  10.543
28073W        W89362  14.155  23.558  13.426
28074W        W89363  16.765  41.044   1.712
28075W        W89364  30.550  40.929  10.524
28076W        W89365  44.444  40.522   5.240
28077W        W89366  43.853  41.351   2.290
28078W        W89367  33.056   1.413  10.466
28079W        W89368  10.756  19.099   2.187
28080W        W89369  43.469  13.747  10.989
28081W        W89370  35.475  31.017  12.825
28082W        W89371   8.670  13.256  11.048
28083W        W89372   2.411  25.214   3.330
28084W        W89373  10.195  16.722  10.990
28085W        W89374   3.889  12.182   4.116
28086W        W89375  18.162   3.875  14.881
28087W        W89376   6.916  33.113  12.985
28088W        W89377   3.954  35.508  12.073
28089W        W89378  13.274  38.389  11.956
28090W        W89379  38.485   2.741  12.996
28091W        W89380   1.292   3.945   1.932
28092W        W89381  20.664  26.602  11.487
28093W        W89382  12.625   2.953   0.300
28094W        W89383  41.457   6.197   5.190
28095W        W89384   7.731  29.537   2.263
28096W        W89385  24.584   7.286   3.806
28097W        W89386  24.070  18.192  12.444
28098W        W89387   6.331  13.239   0.939
28099W        W89388   5.886  24.071   3.694
28100W        W89389  11.782  33.961   5.219
28101W        W89390  38.829  26.977   0.244
28102W        W89391  25.581   1.454  12.911
28103W        W89392  36.545   9.683   0.952
28104W        W89393  37.480  23.733  13.833
28105W        W89394  13.293  30.459  14.297
28106W        W89395  23.077  10.216  14.932
28107W        W89396   8.805  17.741   4.263
28108W        W89397   2.417  25.476   3.278
28109W        W89398  23.128  33.384  11.527
28110W        W89399   1.888   1.326   2.862
28111W        W89400  22.243  18.085  11.569
28112W        W89401  36.882  20.676  13.526
28113W        W89402  22.675  35.512   1.258
28114W        W89403  30.445  41.507   1.815
28115W        W89404  12.797  28.007   4.300
28116W        W89405   3.284  34.864   1.770
28117W        W89406  15.674  38.927  14.470
28118W        W89407  44.894  36.982  12.529
28119W        W89408  17.658  25.470   3.153
28120W        W89409   5.708  16.570  10.456
28121W        W89410  13.605  39.509   2.408
28122W        W89411  43.934   1.811  11.453
28123W        W89412  25.542  19.675  14.396
28124W        W89413  11.229  32.896  13.416
28125W        W89414  31.939  30.420   1.794
28126W        W89415  17.279  17.095   0.728
28127W        W89416  38.567  27.074   1.360
28128W        W89417  41.434  31.558  11.958
28129W        W89418   8.283   1.853   2.232
28130W        W89419  18.069  36.858  12.040
28131W        W89420  17.614  44.783  11.386
28132W        W89421  21.072   4.932   3.161
28133W        W89422  15.599  13.764  14.910
28134W        W89423  19.769  25.612  13.038
28135W        W89424  41.837  29.152  11.584
28136W        W89425  36.994   9.782   2.366
28137W        W89426   7.755  33.989  14.852
28138W        W89427   9.674  34.439  13.953
28139W        W89428   2.457   3.347   0.893
28140W        W89429  41.791  15.667  13.886
28141W        W89430  33.458  38.473  12.922
28142W        W89431  24.493  39.981  11.035
28143W        W89432   8.657  26.648  14.837
28144W        W89433   3.854   7.769   1.859
28145W        W89434  18.634  10.360  11.406
28146W        W89435  15.106   5.308   2.278
28147W        W89436  15.751   8.405  14.491
28148W        W89437  23.010   1.840  12.542
28149W        W89438  11.262  15.144  14.854
28150W        W89439   1.831  10.692   1.280
28151W        W89440  15.615  22.175  12.918
28152W        W89441  43.874  25.698   2.847
28153W        W89442   7.275  14.200   4.808
28154W        W89443   1.877  21.258   0.921
28155W        W89444  29.573  22.717   2.701
28156W        W89445  25.566   4.749  12.572
28157W        W89446  16.258   6.677  14.013
28158W        W89447  26.462  17.284   1.254
28159W        W89448  32.130  21.637   1.217
28160W        W89449  41.396  31.998   3.845
28161W        W89450  22.567  25.613  12.474
28162W        W89451  16.625  36.430  12.960
28163W        W89452  15.606  32.474  12.077
28164W        W89453  38.437  38.893  14.027
28165W        W89454   7.881  21.678  13.924
28166W        W89455  14.618  34.042   1.888
28167W        W89456   2.258  28.635   4.617
28168W        W89457  38.352   2.924  14.957
28169W        W89458  14.250  15.765  11.977
28170W        W89459  17.641  20.152   1.861
28171W        W89460  34.878  38.384   2.303
28172W        W89461  41.327  16.775   2.247
28173W        W89462  29.649   8.216   9.945
28174W        W89463  18.089   7.888  12.932
28175W        W89464  28.512  23.552   4.187
28176W        W89465  39.509  35.387  14.861
28177W        W89466  29.029  16.210  12.906
28178W        W89467   8.870  44.856   0.343
28179W        W89468  26.519  18.152  10.423
28180W        W89469  38.017  15.791  12.044
28181W        W89470   5.820  10.170  13.035
28182W        W89471  42.441   8.324   4.733
28183W        W89472   7.326  18.126  13.539
28184W        W89473   8.846  21.167   1.222
28185W        W89474  10.138  37.909   4.312
28186W        W89475  43.476   2.233   2.741
28187W        W89476   1.375  29.585  11.080
28188W        W89477  37.340  44.995   2.853
28189W        W89478   5.276  19.261  14.455
28190W        W89479   8.189  18.719  11.971
28191W        W89480  40.969  15.623   4.795
28192W        W89481   2.298  41.422   4.175
28193W        W89482   7.352   6.267   1.406
28194W        W89483  14.702   3.459   4.712
28195W        W89484  24.093   4.822   0.856
28196W        W89485   7.840   5.816  14.942
28197W        W89486   7.882  37.344   4.782
28198W        W89487  18.217  22.252   9.996
28199W        W89488   9.209   8.186  10.522
28200W        W89489  23.498  23.126   5.286
28201W        W89490  35.959  29.627   1.421
28202W        W89491  24.186   2.308   2.862
28203W        W89492  10.770  27.968   2.248
28204W        W89493  33.898  28.593  14.806
28205W        W89494  15.239  13.127  13.448
28206W        W89495  44.384  18.761  11.485
28207W        W89496  42.345  12.742  14.904
28208W        W89497   9.807  36.942   5.143
28209W        W89498  40.319  27.578  12.851
28210W        W89499  28.086   2.794   4.123
28211W        W89500  24.226  19.607   1.358
28212W        W89501  26.001  28.575  11.557
28213W        W89502  15.232  31.440   0.894
28214W        W89503   8.225   5.920   2.409
28215W        W89504  27.556  23.086   9.925
28216W        W89505  10.381  42.799   3.192
28217W        W89506  37.989  13.299  14.894
28218W        W89507  43.008  25.492  13.385
28219W        W89508  25.137  35.434   2.874
28220W        W89509  23.595   7.182   1.384
28221W        W89510   2.760  29.127   0.381
28222W        W89511  16.225  18.271   3.771
28223W        W89512  10.198  13.682  11.411
28224W        W89513   7.856  23.600  14.871
28225W        W89514  18.285   1.323  12.422
28226W        W89515  16.274  10.662   4.684
28227W        W89516  39.333  21.700   9.982
28228W        W89517   6.881  40.853  13.494
28229W        W89518  40.031   2.248   3.630
28230W        W89519  17.305  40.504  13.411
28231W        W89520  42.475  44.320  10.106
28232W        W89521  39.866  17.075   2.709
28233W        W89522  39.819   5.420   3.172
28234W        W89523  20.638  21.737  14.879
28235W        W89524  39.823  27.640  14.345
28236W        W89525   1.418  23.028   0.361
28237W        W89526  16.289  28.465   2.853
28238W        W89527  27.975   1.379   2.741
28239W        W89528  42.005  16.786   9.580
28240W        W89529   7.707  27.113  12.957
28241W        W89530  25.639   0.985   0.369
28242W        W89531  27.622   4.869  10.929
28243W        W89532   1.777  33.579   3.684
28244W        W89533  29.541   2.827  14.954
28245W        W89534  22.045  43.013  10.115
28246W        W89535  22.066   1.876   1.212
28247W        W89536  11.776  16.589   2.299
28248W        W89537   0.493  36.984   4.208
28249W        W89538  34.401  30.480   1.781
28250W        W89539  22.557  19.704   2.756
28251W        W89540  14.591  25.167  13.059
28252W        W89541  43.285  22.562  11.589
28253W        W89542   6.778   3.389   2.763
28254W        W89543  34.391  28.547  10.426
28255W        W89544  36.443  23.029  11.895
28256W        W89545   8.315  42.783  12.445
28257W        W89546  36.870  16.809   1.401
28258W        W89547  16.662  41.947  12.920
28259W        W89548   8.812  11.813   4.135
28260W        W89549  21.108   1.454  11.878
28261W        W89550  19.147  14.214  11.401
28262W        W89551  42.345  18.620  10.890
28263W        W89552  19.533  31.551  10.438
28264W        W89553  40.902  34.001   4.288
28265W        W89554  39.930   2.386   4.199
28266W        W89555  18.546  34.953  10.903
28267W        W89556  30.909  12.318  10.934
28268W        W89557  12.125  39.444  14.763
28269W        W89558  32.572   5.865   4.812
28270W        W89559  23.156  24.539   1.774
28271W        W89560  14.258   6.265   2.248
28272W        W89561   1.875  40.850   2.893
28273W        W89562  15.167  20.752   4.324
28274W        W89563  19.640   6.334  14.844
28275W        W89564  41.023  32.579  14.849
28276W        W89565  26.170  29.139  11.025
28277W        W89566   6.794  21.149  11.991
28278W        W89567  23.075  19.711  14.891
28279W        W89568  40.380  15.210  14.830
28280W        W89569  16.674  26.644  12.871
28281W        W89570  39.465  20.067  10.640
28282W        W89571  14.278  28.114  14.378
28283W        W89572  18.649  13.275  14.375
28284W        W89573   2.283   0.819  12.525
28285W        W89574   9.312   0.908   3.712
28286W        W89575  27.553  17.561  14.513
28287W        W89576  23.720  38.963  10.950
28288W        W89577  36.352  21.248   3.830
28289W        W89578  36.579  43.321  13.804
28290W        W89579   8.806  44.422   1.284
28291W        W89580  23.498  35.944  13.042
28292W        W89581  13.348  38.945   4.324
28293W        W89582  23.544  22.152  14.297
28294W        W89583  18.629   5.807   3.776
28295W        W89584  10.372  22.203   3.177
28296W        W89585   9.242  42.369   3.230
28297W        W89586  27.059  40.997  10.956
28298W        W89587  11.242   9.314  11.483
28299W        W89588  41.422  16.076   3.709
28300W        W89589   1.864   8.699   0.908
28301W        W89590  12.242  15.782   3.208
28302W        W89591   1.810  44.857  10.422
28303W        W89592  21.060  31.020  10.606
28304W        W89593  14.762  30.164   1.336
28305W        W89594  38.978  28.467   1.708
28306W        W89595   6.685   0.874  14.291
28307W        W89596   0.984   7.829  12.535
28308W        W89597   2.762  17.221  14.876
28309W        W89598  40.393  38.445   3.865
28310W        W89599  44.871  28.017   0.884
28311W        W89600  17.215  16.201  12.076
28312W        W89601  24.675  34.085  10.974
28313W        W89602  23.643  39.477   3.366
28314W        W89603  10.704  35.449  14.971
28315W        W89604  19.658  32.960  14.856
28316W        W89605  41.324  18.130  14.032
28317W        W89606  27.492  16.113   2.355
28318W        W89607   1.421   8.179  10.942
28319W        W89608   8.849  14.686  11.497
28320W        W89609  29.439  17.285   4.350
28321W        W89610  41.946   6.878  13.316
28322W        W89611  35.860   4.331   4.210
28323W        W89612  31.131  37.368  13.339
28324W        W89613  22.671  21.091  12.358
28325W        W89614  44.336  37.473  12.434
28326W        W89615   4.736  32.520  14.797
28327W        W89616   0.326  44.469  13.053
28328W        W89617  40.347  10.374  10.059
28329W        W89618  28.163  44.939   3.234
28330W        W89619  18.727  40.000   1.780
28331W        W89620   5.692   2.875   4.679
28332W        W89621  36.981  19.238   4.181
28333W        W89622   6.387   5.420  10.996
28334W        W89623  41.023   5.375  12.380
28335W        W89624  41.446  33.443  11.413
28336W        W89625  18.260  43.886  11.989
28337W        W89626  32.960  15.114   2.679
28338W        W89627  33.997  40.869  14.471
28339W        W89628  14.319  18.213  11.126
28340W        W89629  10.197  31.542  12.525
28341W        W89630  11.219  44.406   2.248
28342W        W89631   4.361  14.251   3.756
28343W        W89632   1.960  27.111  12.505
28344W        W89633  24.162  43.932   4.808
28345W        W89634  32.137  13.638  14.477
28346W        W89635  37.878  35.015  11.434
28347W        W89636  18.558   9.332   1.240
28348W        W89637  17.566   0.871  10.492
28349W        W89638  28.050  37.834   0.451
28350W        W89639  39.913  41.914   2.662
28351W        W89640  14.289   9.842  10.553
28352W        W89641  18.161  40.874  10.914
28353W        W89642  13.620  28.128  13.467
28354W        W89643   4.886  44.928   2.178
28355W        W89644  30.984  10.170  14.341
28356W        W89645   1.462  32.424   3.817
28357W        W89646  36.490  44.978  14.319
28358W        W89647  17.614  30.564   1.281
28359W        W89648  13.160   7.690  11.543
28360W        W89649  27.625  32.636  12.394
28361W        W89650  42.492  36.065  13.471
28362W        W89651   5.725   3.786   4.782
28363W        W89652  21.702   0.284   4.701
28364W        W89653  25.587  16.639  14.309
28365W        W89654  43.815  21.258  12.356
28366W        W89655   8.750   3.757   3.339
28367W        W89656  33.082  29.522  12.027
28368W        W89657  24.720  42.900   4.683
28369W        W89658   1.397  11.358  11.997
28370W        W89659  40.966  40.996   3.346
28371W        W89660  25.979  22.622  13.858
28372W        W89661  21.019  20.083  14.317
28373W        W89662  13.201  12.343  12.476
28374W        W89663   5.264  27.577  12.864
28375W        W89664  25.471  21.242   2.724
28376W        W89665  39.365  27.030  10.997
28377W        W89666  13.282  31.637   0.450
28378W        W89667  20.688  29.059   3.665
28379W        W89668  37.377  16.792   2.785
28380W        W89669  35.596   2.850  12.532
28381W        W89670  42.890  18.076  10.498
28382W        W89671   1.434  16.575  12.837
28383W        W89672  14.317  24.654   4.601
28384W        W89673  32.525   0.759  13.433
28385W        W89674  41.843   0.255  13.949
28386W        W89675   0.460  14.729   4.628
28387W        W89676  20.541  40.337  14.924
28388W        W89677   3.833  32.085  10.998
28389W        W89678   4.726  25.214  12.341
28390W        W89679   5.849   5.882   3.749
28391W        W89680  37.901  16.593  11.411
28392W        W89681   3.447  22.732   2.865
28393W        W89682  22.625  33.607   1.295
28394W        W89683  28.476  15.639  13.842
28395W        W89684   9.793  25.630   5.247
28396W        W89685  31.101  42.901  11.374
28397W        W89686   4.841  35.856   2.278
28398W        W89687  27.612  44.454  12.091
28399W        W89688   2.810   4.898   1.753
28400W        W89689  33.494  43.298   0.768
28401W        W89690  10.257  42.293   4.209
28402W        W89691  43.814  28.940  14.919
28403W        W89692   1.861  24.206   2.733
28404W        W89693   6.717  37.085   0.741
28405W        W89694  34.989   8.794   2.244
28406W        W89695  37.980  27.688   4.321
28407W        W89696  36.417   1.877  14.811
28408W        W89697   7.171  18.184   2.323
28409W        W89698   5.886  40.904  10.948
28410W        W89699  24.069  43.869   4.153
28411W        W89700  40.847  37.465  14.842
28412W        W89701   2.894   3.390   4.653
28413W        W89702   8.363  16.796  11.078
28414W        W89703   4.206  36.007   0.300
28415W        W89704  39.004  10.820  12.958
28416W        W89705  13.299   7.858  11.898
28417W        W89706  32.023   1.850  13.851
28418W        W89707  30.101  41.528  13.905
28419W        W89708  28.982   8.368  14.320
28420W        W89709   5.926   8.866  12.851
28421W        W89710  11.799  37.983   2.336
28422W        W89711   0.249  39.315   2.873
28423W        W89712  38.347   0.845  14.854
28424W        W89713  11.170  44.488  14.497
28425W        W89714  11.150  25.128   3.178
28426W        W89715  23.587  14.800   2.880
28427W        W89716   6.797  18.705  13.332
28428W        W89717  11.237  29.633  12.463
28429W        W89718  43.325   4.941   4.319
28430W        W89719  12.281  28.479   1.835
28431W        W89720  29.037   3.799  12.986
28432W        W89721  21.542  21.166   1.751
28433W        W89722  12.689  31.435   4.165
28434W        W89723  36.367  34.087   0.379
28435W        W89724   4.944   4.779  13.471
28436W        W89725  33.429   6.731  11.916
28437W        W89726  44.826  11.268  13.468
28438W        W89727  16.675  24.496  11.527
28439W        W89728   2.397   2.275  13.047
28440W        W89729  37.556  14.697  11.399
28441W        W89730   0.492  15.702  10.966
28442W        W89731  29.055  41.978  13.845
28443W        W89732  21.622  26.010   1.372
28444W        W89733  26.084  38.819   2.693
28445W        W89734  19.266  38.968   0.751
28446W        W89735  39.323  38.413   0.459
28447W        W89736  16.713  39.506   4.239
28448W        W89737  26.042   5.803   1.722
28449W        W89738  30.443   4.217  12.869
28450W        W89739   4.907  11.289  13.892
28451W        W89740   5.808  22.172   1.757
28452W        W89741  13.717   2.909  14.488
28453W        W89742  25.702   4.806   0.798
28454W        W89743  22.704  24.099   3.219
28455W        W89744  20.545  32.586   0.928
28456W        W89745  44.901   5.262   0.901
28457W        W89746  34.104  40.502  11.058
28458W        W89747  41.019  44.499  13.024
28459W        W89748  36.499  32.483  14.424
28460W        W89749   2.409  22.650  14.829
28461W        W89750  22.231  13.783  14.323
28462W        W89751  32.449  30.502   0.790
28463W        W89752  44.851  11.326   0.915
28464W        W89753  33.009  12.793   0.404
28465W        W89754  18.665  24.014   0.310
28466W        W89755  30.040  18.626   3.196
28467W        W89756   1.962   7.257   2.378
28468W        W89757  41.924  16.087   1.849
28469W        W89758  31.992  42.442  14.835
28470W        W89759  25.984  19.081   0.751
28471W        W89760  20.672  26.021  14.291
28472W        W89761  32.132  19.066   1.419
28473W        W89762  39.467  35.899  11.473
28474W        W89763  40.326  42.940   5.246
28475W        W89764   3.456  23.035   2.740
28476W        W89765  34.475  40.986  10.502
28477W        W89766  12.807  20.669  13.805
28478W        W89767  27.612  14.817   0.883
28479W        W89768  18.749  13.767   3.764
28480W        W89769  24.712  18.605  13.014
28481W        W89770   3.244  36.355   3.154
28482W        W89771   2.811  40.313   2.304
28483W        W89772  23.089  11.637  12.413
28484W        W89773  32.625  24.179  14.513
28485W        W89774   3.732  34.607  12.859
28486W        W89775  25.525  16.119   3.813
28487W        W89776   4.791  14.327   3.694
28488W        W89777  40.328  41.508   1.889
28489W        W89778  18.224   0.330  11.467
28490W        W89779  40.419  32.903  10.637
28491W        W89780  11.199   1.377   3.373
28492W        W89781  13.215  36.084  14.002
28493W        W89782  43.015   9.342   1.915
28494W        W89783  20.620  18.282   0.868
28495W        W89784  44.913  42.312  14.936
28496W        W89785  18.109  25.616  13.520
28497W        W89786  15.789  14.121  12.005
28498W        W89787  39.488  17.706   2.770
28499W        W89788  20.034  26.067   1.310
28500W        W89789  43.879  32.465   1.933
28501W        W89790  22.143  17.119   0.266
28502W        W89791   9.725  16.221  11.379
28503W        W89792  11.718   3.922  14.780
28504W        W89793  27.094  29.542  12.054
28505W        W89794   2.770  14.626  12.385
28506W        W89795  25.580  40.833   3.688
28507W        W89796   6.303  35.926   4.176
28508W        W89797  40.853   5.819   0.247
28509W        W89798  26.470   0.310  13.957
28510W        W89799   2.453  32.138  14.857
28511W        W89800   5.360  36.958  10.480
28512W        W89801  37.560  29.161   1.869
28513W        W89802  37.856   8.786  12.453
28514W        W89803   3.943  26.571  14.932
28515W        W89804   3.820  20.733  10.428
28516W        W89805   6.789  25.489   5.776
28517W        W89806   9.364  28.134   4.285
28518W        W89807  38.056  28.111   0.799
28519W        W89808  20.611  21.664  11.070
28520W        W89809  22.132  15.673  12.081
28521W        W89810  42.356  15.733  14.919
28522W        W89811  40.440  16.788   1.702
28523W        W89812  25.052   3.780   1.309
28524W        W89813  33.461  23.718  14.348
28525W        W89814  40.373  19.545   0.270
28526W        W89815  24.571  38.062  14.831
28527W        W89816  30.908  43.865  12.362
28528W        W89817  33.499  33.930   2.359
28529W        W89818  20.269  22.525   0.365
28530W        W89819   1.405  42.327   4.199
28531W        W89820  26.545  29.431  12.463
28532W        W89821   2.759  42.847   3.669
28533W        W89822  28.107  42.996   9.951
28534W        W89823  39.543  15.660   3.727
28535W        W89824  28.184  33.997   2.678
28536W        W89825  14.831  44.772  10.639
28537W        W89826  31.603   7.316   0.270
28538W        W89827   5.393  26.169   0.771
28539W        W89828  20.648   0.818   4.277
28540W        W89829  19.142  35.871  11.500
28541W        W89830  18.735  38.849   1.917
28542W        W89831   8.349   0.276   0.752
28543W        W89832  16.265  44.824  13.415
28544W        W89833  27.946  43.919   4.240
28545W        W89834  38.881  17.649  10.551
28546W        W89835   2.273  24.578  14.462
28547W        W89836  31.032  30.426  14.418
28548W        W89837  16.202  44.818   1.397
28549W        W89838  42.871  29.548   4.168
28550W        W89839  40.366   1.919   5.314
28551W        W89840   9.157  26.681  11.072
28552W        W89841  29.979  25.544   2.674
28553W        W89842  37.896  10.637   2.671
28554W        W89843  11.355  44.890   5.129
28555W        W89844  11.226  12.343   1.761
28556W        W89845  18.101  24.716   1.277
28557W        W89846  31.568   1.366  11.467
28558W        W89847   9.874  36.043  14.336
28559W        W89848  26.127   8.163   0.452
28560W        W89849   2.359  35.546  14.485
28561W        W89850   8.893   2.437   2.243
28562W        W89851  25.030  31.896  10.524
28563W        W89852  12.349   9.646   4.190
28564W        W89853  44.968  10.871   1.445
28565W        W89854   0.273  43.320   1.810
28566W        W89855  20.551  23.734  10.895
28567W        W89856  10.671  38.454  14.898
28568W        W89857  14.328  15.270  13.468
28569W        W89858   8.186  10.870   1.885
28570W        W89859  20.658  25.165  13.398
28571W        W89860  35.543  26.051  10.548
28572W        W89861  13.330   4.366  10.436
28573W        W89862  26.078  35.496  10.549
28574W        W89863  38.064  22.229   2.745
28575W        W89864  32.479  41.354  13.363
28576W        W89865  39.951  23.057  11.092
28577W        W89866  11.751  38.553   2.300
28578W        W89867   8.184  21.021  11.489
28579W        W89868  37.439  32.534  13.397
28580W        W89869   4.225   1.271   4.179
28581W        W89870  34.486   2.768  14.496
28582W        W89871  28.108  12.200   1.420
28583W        W89872   3.449   0.782   3.224
28584W        W89873  26.544  41.902  11.611
28585W        W89874  35.961  37.033   1.240
28586W        W89875  29.064  37.473  13.920
28587W        W89876  18.755  14.299  13.989
28588W        W89877  33.444  37.473  10.454
28589W        W89878  20.270  43.797  14.974
28590W        W89879  32.529  34.495  11.420
28591W        W89880  37.466   8.679   2.824
28592W        W89881   9.819  27.678  14.982
28593W        W89882  30.031  20.707  14.390
28594W        W89883   9.267  20.255   3.767
28595W        W89884  18.771   4.934  11.097
28596W        W89885  15.806   4.790  14.304
28597W        W89886  20.541  32.495  12.071
28598W        W89887  25.518  19.250  10.005
28599W        W89888  17.080  37.961  13.358
28600W        W89889  17.132  44.295   9.926
28601W        W89890   9.367  22.176   0.804
28602W        W89891  19.730  12.812  12.088
28603W        W89892   5.428   8.291  13.987
28604W        W89893  35.387   9.307  10.608
28605W        W89894  36.500  28.117  10.578
28606W        W89895  23.228  29.480   1.739
28607W        W89896  41.789  33.459  10.557
28608W        W89897   0.462   9.359   3.791
28609W        W89898  20.215  37.876   4.328
28610W        W89899   5.248  40.942   4.748
28611W        W89900  25.684  33.417  14.371
28612W        W89901  42.462  14.630  10.428
28613W        W89902  19.603  39.391  12.467
28614W        W89903  42.001   5.880   4.602
28615W        W89904   5.432  29.445   0.369
28616W        W89905  12.612   3.829   0.758
28617W        W89906  42.418  23.204  12.892
28618W        W89907  28.560  39.495   2.694
28619W        W89908  24.115  19.245  12.532
28620W        W89909  24.191  29.123  10.088
28621W        W89910  36.382  41.887   1.383
28622W        W89911  25.560  29.078  10.438
28623W        W89912  35.406  21.658  11.497
28624W        W89913  16.699  20.099  12.045
28625W        W89914   6.422  17.586   0.765
28626W        W89915  44.865   1.916   3.216
28627W        W89916  36.857   6.351  13.413
28628W        W89917  27.050  31.961  12.494
28629W        W89918  28.116  43.905  11.377
28630W        W89919  21.592  27.075   3.735
28631W        W89920   2.308  12.666   2.884
28632W        W89921   9.658   2.294   4.265
28633W        W89922  29.510  24.094  10.009
28634W        W89923  43.877  23.691   1.801
28635W        W89924  39.419  38.379  12.423
28636W        W89925  11.187   9.771   4.253
28637W        W89926  23.076  41.944   1.424
28638W        W89927  22.158  26.692  12.483
28639W        W89928  14.173  43.418   0.437
28640W        W89929  23.103  21.696   4.765
28641W        W89930  43.894  17.769   2.265
28642W        W89931   8.344   7.861   4.735
28643W        W89932  30.125  43.277   4.249
28644W        W89933  41.892   5.332   2.704
28645W        W89934  22.174   5.753   2.262
28646W        W89935   2.770  11.261  13.535
28647W        W89936  36.369   9.388   4.273
28648W        W89937  42.450  15.273   3.833
28649W        W89938  29.510  41.407  13.795
28650W        W89939   7.352  31.027  13.359
28651W        W89940   8.289  31.110   0.349
28652W        W89941   8.249   3.268  11.891
28653W        W89942  23.029  26.601   5.212
28654W        W89943   7.743  20.055  11.397
28655W        W89944   6.316  37.559  13.458
28656W        W89945  11.805  24.173  13.536
28657W        W89946   7.210  44.478  12.917
28658W        W89947  39.064  36.387  14.951
28659W        W89948  34.118  19.167  12.838
28660W        W89949  30.101  37.882   1.417
28661W        W89950  44.926  31.608   3.761
28662W        W89951  17.235   3.415   0.839
28663W        W89952   4.802  23.100  12.864
28664W        W89953  23.726  33.050   3.685
28665W        W89954  44.356   5.863  13.427
28666W        W89955  40.445  27.135  13.496
28667W        W89956   2.386  38.434   2.393
28668W        W89957  42.973   8.255  13.807
28669W        W89958   1.375  31.541   0.273
28670W        W89959  44.864  34.877   2.775
28671W        W89960  11.790  12.243   9.932
28672W        W89961  31.568  33.060  14.896
28673W        W89962  39.980  12.330  12.551
28674W        W89963   3.361  24.569  13.448
28675W        W89964   6.685  29.064  13.396
28676W        W89965  36.534  35.012   0.380
28677W        W89966  10.763   7.671   0.966
28678W        W89967  40.854  17.578   2.717
28679W        W89968  17.230  33.437  13.532
28680W        W89969  21.249  38.875  11.003
28681W        W89970   3.816  39.998   3.650
28682W        W89971  19.046  36.886   0.939
28683W        W89972  41.452   9.685  12.035
28684W        W89973  40.373   2.472  11.531
28685W        W89974  38.873  24.488  13.533
28686W        W89975  37.895  11.864   1.835
28687W        W89976  21.671  30.033  13.797
28688W        W89977  40.366  18.199  12.380
28689W        W89978  38.382   8.304  11.546
28690W        W89979  23.086  35.917   2.704
28691W        W89980   0.818   1.454   2.278
28692W        W89981  26.573  27.657  11.553
28693W        W89982  30.065  25.156  13.492
28694W        W89983  41.386  32.430  13.408
28695W        W89984  42.464  16.199  12.365
28696W        W89985  28.559  40.489   4.180
28697W        W89986  18.586  33.566   1.825
28698W        W89987   5.778  35.535   4.786
28699W        W89988  31.014  26.509   2.403
28700W        W89989  23.579   1.351   2.877
28701W        W89990  40.929  15.757  10.541
28702W        W89991  13.126  16.097  11.586
28703W        W89992  16.615  41.016  13.484
28704W        W89993  38.908  44.471   2.413
28705W        W89994  12.253  13.658   1.332
28706W        W89995  42.394  21.622   3.246
28707W        W89996  23.017  37.832  10.911
28708W        W89997  30.925  19.130  12.412
28709W        W89998  34.887  31.943   0.859
28710W        W89999  20.143  44.285  14.871
28711W        W90000  21.059  30.498   3.743
28712W        W90001   7.862  15.742  12.475
28713W        W90002  40.961   2.418   4.726
28714W        W90003   9.646  26.085  11.013
28715W        W90004  32.392  30.012   3.775
28716W        W90005   7.836   5.777   0.744
28717W        W90006  10.639  22.066  10.911
28718W        W90007  10.731  23.577  11.985
28719W        W90008  43.995  22.007  12.415
28720W        W90009   9.862  44.315   2.257
28721W        W90010  37.898  33.934   4.148
28722W        W90011  12.790  34.091  11.906
28723W        W90012   7.295  13.750   1.906
28724W        W90013  28.521  20.084  11.073
28725W        W90014  39.926   4.379   0.330
28726W        W90015  41.305  32.417   4.778
28727W        W90016  31.127  20.696  14.317
28728W        W90017  34.090  14.639  12.020
28729W        W90018  31.549  22.064   2.268
28730W        W90019  13.659   9.767  13.406
28731W        W90020  34.055  27.542   4.223
28732W        W90021  10.226  27.967   1.750
28733W        W90022   4.361  23.065  14.944
28734W        W90023  36.470  21.065   1.893
28735W        W90024  43.984  24.148   1.745
28736W        W90025  35.101  35.057   3.333
28737W        W90026  20.713  39.923  14.465
28738W        W90027  27.032  21.206  11.880
28739W        W90028  23.557   8.661  14.439
28740W        W90029  13.331   7.676   2.271
28741W        W90030  23.208  40.828   4.296
28742W        W90031   5.836  11.247  13.375
28743W        W90032   5.721  40.524   2.334
28744W        W90033  42.800  33.414  10.563
28745W        W90034  32.936  13.324   3.259
28746W        W90035  30.628  39.964  11.994
28747W        W90036  14.694  11.295   0.327
28748W        W90037   3.356  21.638  13.053
28749W        W90038   0.774   8.803   4.197
28750W        W90039  44.833  32.584   4.642
28751W        W90040  10.791  13.204   3.806
28752W        W90041  34.423   8.808   3.360
28753W        W90042  31.119   1.291   0.472
28754W        W90043  13.224  25.064   1.887
28755W        W90044   5.801  39.924   1.223
28756W        W90045  10.650  30.622   9.641
28757W        W90046  19.577  39.888   4.705
28758W        W90047  18.784   7.203   4.260
28759W        W90048  28.665  23.018   4.760
28760W        W90049  11.754  22.081   2.212
28761W        W90050  34.978  25.569   3.214
28762W        W90051  44.435   7.681   2.179
28763W        W90052  26.165  39.008   1.361
28764W        W90053  12.808   9.809  14.316
28765W        W90054  20.121   5.713  11.419
28766W        W90055  15.655  28.067  12.402
28767W        W90056  44.290   6.906  14.957
28768W        W90057  17.293   2.913  13.429
28769W        W90058  14.618  40.015  14.814
28770W        W90059  36.569  26.040  12.456
28771W        W90060   9.351   1.373   3.328
28772W        W90061  37.962  26.160  10.933
28773W        W90062  38.888  14.742   0.338
28774W        W90063  25.613  20.074  14.917
28775W        W90064  30.520  32.925  14.345
28776W        W90065  35.426   3.318  13.997
28777W        W90066  29.930  23.015   3.843
28778W        W90067  32.100  34.510  14.455
28779W        W90068  12.260   3.787   0.777
28780W        W90069  11.160   4.747   0.309
28781W        W90070  17.302  33.949  12.052
28782W        W90071  39.035  23.590   4.599
28783W        W90072  10.871   4.291   2.745
28784W        W90073   4.262   8.384   0.364
28785W        W90074   5.697   3.230  14.812
28786W        W90075  14.228  23.730   2.837
28787W        W90076  41.490  26.144   2.805
28788W        W90077  20.540   5.780   4.229
28789W        W90078   7.239  32.116   3.799
28790W        W90079  19.641  42.296  10.505
28791W        W90080  35.856  22.160   4.246
28792W        W90081  36.892  15.220   0.866
28793W        W90082   2.786   4.423  11.465
28794W        W90083  40.837  21.689   4.303
28795W        W90084  40.034  14.628   3.333
28796W        W90085  14.644  40.828  11.552
28797W        W90086   9.279  12.325  13.500
28798W        W90087   5.230  43.452  14.913
28799W        W90088  19.683  22.719  14.858
28800W        W90089  43.290  34.115  11.870
28801W        W90090  25.968  25.686   5.565
28802W        W90091  18.150  25.173  14.354
28803W        W90092  38.072  15.310  10.625
28804W        W90093  34.013  37.905  11.125
28805W        W90094  19.086  21.214  14.862
28806W        W90095  37.425  27.196  11.001
28807W        W90096   8.696  43.455  12.372
28808W        W90097  41.491   6.804   3.340
28809W        W90098   6.377   3.247  13.004
28810W        W90099   1.413  11.813  11.892
28811W        W90100  39.460  11.152   0.866
28812W        W90101  11.855   3.759  13.424
28813W        W90102  35.394  42.316  14.850
28814W        W90103  11.265  28.571  11.974
28815W        W90104  15.150  17.111  12.569
28816W        W90105  26.689  21.522   0.743
28817W        W90106  10.305  41.866  14.350
28818W        W90107  44.988  12.658   4.703
28819W        W90108  41.319  25.212   1.289
28820W        W90109  13.612   3.239   0.733
28821W        W90110  32.536  13.711  10.445
28822W        W90111  41.319  18.695  14.455
28823W        W90112  26.666  33.605  14.855
28824W        W90113  16.622   1.876   1.721
28825W        W90114   1.328  43.270  12.345
28826W        W90115  34.504  36.996  14.792
28827W        W90116  11.225  26.069  10.431
28828W        W90117   1.937   1.764  12.949
28829W        W90118  39.978  16.179  12.093
28830W        W90119  43.469  42.032  14.000
28831W        W90120  40.382  41.936   1.922
28832W        W90121   2.373  11.368   3.329
28833W        W90122  23.069  30.091   0.455
28834W        W90123   9.702  14.329  12.929
28835W        W90124  19.683  19.538   3.691
28836W        W90125  36.465  29.053   4.324
28837W        W90126  21.227   0.488   3.784
28838W        W90127  17.639  37.359  14.900
28839W        W90128  18.715  42.963   4.294
28840W        W90129  35.566  11.231  11.868
28841W        W90130  15.269  43.370  14.393
28842W        W90131  12.288  29.656  11.071
28843W        W90132   7.782  33.418   0.291
28844W        W90133  31.531  26.030  12.006
28845W        W90134  25.992  15.739  13.887
28846W        W90135  10.285  11.664   4.814
28847W        W90136  32.579  28.967  10.503
28848W        W90137   3.836  23.083   3.654
28849W        W90138  35.574   0.914  11.494
28850W        W90139  21.672  18.722   1.772
28851W        W90140  33.468   2.309   0.935
28852W        W90141  22.209  35.921   4.238
28853W        W90142  17.106   1.937  11.059
28854W        W90143  41.382  18.232  10.144
28855W        W90144   7.678  15.166   1.881
28856W        W90145  25.208  10.873  10.516
28857W        W90146  25.536   7.269  13.873
28858W        W90147   0.912  44.376   1.875
28859W        W90148  18.573  42.414  13.009
28860W        W90149  32.535   9.884  11.976
28861W        W90150   0.467   4.809   4.234
28862W        W90151  27.055  13.337   2.240
28863W        W90152  41.991  36.439  13.889
28864W        W90153  33.122   0.255  12.845
28865W        W90154  28.524   7.364  10.411
28866W        W90155   3.372  29.112  12.521
28867W        W90156  38.978  31.085   2.843
28868W        W90157  24.622  10.263   4.261
28869W        W90158  21.017  25.053   3.809
28870W        W90159  16.715  14.811  13.847
28871W        W90160  13.193  37.020  12.853
28872W        W90161   5.419  20.135   0.325
28873W        W90162  39.920  31.098   3.809
28874W        W90163   2.936  17.122  10.576
28875W        W90164  25.145  26.055  14.997
28876W        W90165  33.900  24.483  10.981
28877W        W90166  33.104   0.952  10.919
28878W        W90167  38.440  34.102  12.462
28879W        W90168   6.724  38.366   4.818
28880W        W90169  26.157  43.488   0.357
28881W        W90170  15.606  17.673  13.864
28882W        W90171  25.169   6.321  12.511
28883W        W90172  12.620   8.245   4.296
28884W        W90173  32.127  28.072  13.791
28885W        W90174  13.150  33.434   5.194
28886W        W90175  34.502  23.573  10.487
28887W        W90176   4.288   2.961   3.681
28888W        W90177  40.472  23.236  14.839
28889W        W90178  22.637  16.587   0.727
28890W        W90179  42.829   0.904  14.868
28891W        W90180  34.093  11.731   0.244
28892W        W90181  27.646  14.708  14.903
28893W        W90182  25.468  12.246  14.399
28894W        W90183   6.407  10.325  12.011
28895W        W90184   2.439  37.432  13.496
28896W        W90185  21.041  31.015   2.268
28897W        W90186  26.637  22.607  11.566
28898W        W90187  44.454   1.885   1.912
28899W        W90188  43.286  17.755  11.889
28900W        W90189  40.516  33.444   5.205
28901W        W90190  29.174   2.380   3.275
28902W        W90191  12.150  10.361   4.826
28903W        W90192  20.733   1.746   1.906
28904W        W90193  25.084  13.795   1.432
28905W        W90194   5.200  13.676  12.016
28906W        W90195   8.721  21.163  11.448
28907W        W90196  14.273  27.568   4.766
28908W        W90197  31.089  13.796   4.297
28909W        W90198  26.066  19.666   0.392
28910W        W90199  14.339  42.486   1.269
28911W        W90200  16.192  10.361   0.926
28912W        W90201   1.776  27.611   0.456
28913W        W90202  33.964  41.786  13.471
28914W        W90203  27.479  19.264  11.062
28915W        W90204   7.331  38.367  10.571
28916W        W90205  35.095  40.804   3.300
28917W        W90206  42.845  31.407   4.332
28918W        W90207   3.852  13.654   4.321
28919W        W90208  41.520  29.611  14.846
28920W        W90209   2.442  33.911   0.364
28921W        W90210  25.588   1.264  14.490
28922W        W90211   5.196  23.084   1.702
28923W        W90212  16.691   1.918  14.389
28924W        W90213  15.760  35.385  13.400
28925W        W90214  14.109  40.860  11.551
28926W        W90215  34.448  33.511  13.397
28927W        W90216  43.931  13.785  13.914
28928W        W90217   3.779  37.346   2.727
28929W        W90218  25.585  34.964   1.790
28930W        W90219  20.250  42.470   2.777
28931W        W90220  22.746  25.503  13.874
28932W        W90221  29.957   7.798   1.295
28933W        W90222  25.624   6.225   4.836
28934W        W90223  12.289  41.526  10.638
28935W        W90224  32.047   4.449   4.171
28936W        W90225  18.268  34.414  11.020
28937W        W90226   9.218  38.491   0.375
28938W        W90227   3.329  43.935   3.719
28939W        W90228  23.236  11.157  12.922
28940W        W90229  21.259  24.603   3.819
28941W        W90230  24.121  41.786   2.315
28942W        W90231  15.258  30.493   4.739
28943W        W90232  32.533  41.948   1.740
28944W        W90233  26.148  24.231  12.349
28945W        W90234   7.367  11.197  13.400
28946W        W90235   1.909  21.035   3.641
28947W        W90236  33.875   9.719  14.878
28948W        W90237   8.875  10.872   2.268
28949W        W90238  28.945  43.768   3.337
28950W        W90239  25.591  25.048  11.471
28951W        W90240  27.158  29.572   2.332
28952W        W90241  37.521  32.080  12.391
28953W        W90242   7.370  23.726   3.703
28954W        W90243   3.219  23.643   4.662
28955W        W90244  31.900  24.199   5.293
28956W        W90245  32.598  35.057  14.868
28957W        W90246   5.892   9.304   1.438
28958W        W90247  25.005   0.862   3.326
28959W        W90248  33.008  34.938  10.913
28960W        W90249  32.459   8.329  11.896
28961W        W90250  33.557  26.173   4.676
28962W        W90251   5.305  17.204   0.454
28963W        W90252  31.419  15.235   4.835
28964W        W90253  16.713  41.018   2.271
28965W        W90254   8.842  15.606  14.909
28966W        W90255   2.870  33.568  10.961
28967W        W90256  29.989  36.543  11.883
28968W        W90257   3.270  40.495  12.086
28969W        W90258  41.007   1.455   2.870
28970W        W90259   9.814  39.495   4.646
28971W        W90260  38.343  14.331   3.193
28972W        W90261  18.712  42.351   4.810
28973W        W90262  22.667  26.061  14.985
28974W        W90263  23.094  28.102  11.018
28975W        W90264   5.195  21.539  13.404
28976W        W90265  38.357  12.180   2.311
28977W        W90266  15.090  14.785   4.184
28978W        W90267   4.875  26.113  12.450
28979W        W90268   4.810  20.054   2.201
28980W        W90269  38.381  15.626  12.377
28981W        W90270  42.421   5.216   4.786
28982W        W90271  33.443   3.872  13.350
28983W        W90272  42.019  24.493  11.517
28984W        W90273   0.831  28.584  13.314
28985W        W90274  36.070  22.044   1.340
28986W        W90275  15.268  16.188  10.590
28987W        W90276  10.252   9.754   2.687
28988W        W90277  39.985  32.475   1.864
28989W        W90278  16.169  39.888   4.297
28990W        W90279  21.610  14.274  12.504
28991W        W90280  30.536   0.494   1.840
28992W        W90281   9.730  14.228  14.910
28993W        W90282  36.964  10.642   1.339
28994W        W90283  17.111   1.877   1.344
28995W        W90284  23.610  15.134   0.931
28996W        W90285   9.683  16.788   1.239
28997W        W90286   6.795  31.537   1.365
28998W        W90287  15.323  14.835  12.859
28999W        W90288  36.055   1.924  11.107
29000W        W90289  44.826  25.479  11.526
29001W        W90290  28.957  41.006   4.201
29002W        W90291  11.139  24.031   0.848
29003W        W90292  36.843  38.463   0.772
29004W        W90293   0.377   4.321  11.962
29005W        W90294  33.125  11.626  13.381
29006W        W90295  11.830   6.182  10.591
29007W        W90296  15.234  31.631   4.252
29008W        W90297  15.180  42.347  10.616
29009W        W90298  11.155   8.808  12.579
29010W        W90299  25.153  37.904   3.833
29011W        W90300  43.830   4.918  10.409
29012W        W90301  26.144  15.637   1.801
29013W        W90302  15.739  35.386  11.968
29014W        W90303  44.804   2.835  12.455
29015W        W90304  37.337   1.894   0.258
29016W        W90305  10.818  15.582   0.802
29017W        W90306  18.759  37.428  10.556
29018W        W90307   3.955   3.880   4.233
29019W        W90308  42.455  43.387  14.759
29020W        W90309   4.752  36.844  11.904
29021W        W90310  19.189  22.627  12.046
29022W        W90311  25.518  35.935  14.015
29023W        W90312  11.128   1.317   1.750
29024W        W90313  13.669   4.837   2.666
29025W        W90314  20.083  23.044  12.457
29026W        W90315  19.743  13.338   0.915
29027W        W90316  36.583  28.542  14.300
29028W        W90317  18.590  39.467  13.526
29029W        W90318  38.497  32.451  13.004
29030W        W90319  39.903  41.903  10.930
29031W        W90320  26.188  21.726   0.419
29032W        W90321  44.264  43.303  11.105
29033W        W90322  44.802  34.452  14.846
29034W        W90323  14.828  14.248  11.424
29035W        W90324  41.376  24.669  12.901
29036W        W90325   1.800   1.786  10.441
29037W        W90326   6.888  28.641  11.562
29038W        W90327   5.230  36.455  13.935
29039W        W90328  30.000  10.673   0.376
29040W        W90329  17.264  18.687  14.779
29041W        W90330   8.744  11.740  12.353
29042W        W90331  34.926  19.268   1.311
29043W        W90332  26.658  23.099  11.503
29044W        W90333  28.159  11.157   0.832
29045W        W90334  25.982  44.356   2.248
29046W        W90335  31.979  41.400   2.196
29047W        W90336   1.902  34.596  12.521
29048W        W90337  25.196  36.531  13.407
29049W        W90338  26.054   1.464  13.061
29050W        W90339  27.525  25.003  13.313
29051W        W90340   7.694  34.559   1.247
29052W        W90341  11.815  29.980  11.518
29053W        W90342  33.998  10.779  13.313
29054W        W90343  29.663  21.068   4.227
29055W        W90344  37.006  38.866   4.221
29056W        W90345  33.424  32.990   0.295
29057W        W90346  14.302  42.298  13.524
29058W        W90347  14.167  19.042  12.040
29059W        W90348   8.716  39.413   3.217
29060W        W90349  19.645  12.674  12.518
29061W        W90350  40.422  38.819  12.052
29062W        W90351  33.493  22.668  10.634
29063W        W90352  26.506   8.787  11.449
29064W        W90353  27.514   2.316  11.440
29065W        W90354  32.633   4.394  10.544
29066W        W90355  37.363  18.569  13.534
29067W        W90356  34.393  13.177  11.381
29068W        W90357  41.896  22.216   2.861
29069W        W90358  24.139  40.521  14.871
29070W        W90359  25.175  28.617   1.407
29071W        W90360  15.134  26.022  13.401
29072W        W90361  43.898  12.300  13.339
29073W        W90362  28.003   2.231  13.025
29074W        W90363  10.797  39.414   0.470
29075W        W90364  15.293   1.779   4.681
29076W        W90365   8.868   6.776  14.854
29077W        W90366  15.102   6.185  12.000
29078W        W90367  27.453  31.128  14.849
29079W        W90368   9.288  12.291   0.412
29080W        W90369   8.401  22.247   3.180
29081W        W90370   7.325   9.340  11.884
29082W        W90371   6.383   8.869   0.876
29083W        W90372  27.584  25.591   1.803
29084W        W90373  17.555  24.526  10.925
29085W        W90374  43.375  39.862  14.809
29086W        W90375   1.401   5.716   2.695
29087W        W90376  29.572  39.936   1.288
29088W        W90377  28.142  36.013  13.482
29089W        W90378  30.000   1.301   5.092
29090W        W90379  36.873  37.986  13.889
29091W        W90380  27.046  41.336  11.552
29092W        W90381  17.648   0.746  13.028
29093W        W90382  44.815  36.562   2.218
29094W        W90383  11.698  20.064  10.410
29095W        W90384  18.545  30.149   2.301
29096W        W90385   2.776  17.720  13.825
29097W        W90386   7.782  38.017  11.451
29098W        W90387  16.634  25.130  11.391
29099W        W90388   8.841  30.522   1.361
29100W        W90389  43.792  26.661   0.750
29101W        W90390  35.515  31.543  12.564
29102W        W90391  24.621  29.947  14.910
29103W        W90392   4.379  28.642  12.825
29104W        W90393  43.468   8.378  12.461
29105W        W90394  43.850   4.927   0.766
29106W        W90395  15.705   6.765   1.840
29107W        W90396  44.814  34.493   0.449
29108W        W90397  34.903  19.762   2.368
29109W        W90398   6.780  20.593   2.412
29110W        W90399  29.007   5.270   4.728
29111W        W90400  42.291  41.484   2.860
29112W        W90401  29.008  11.629   0.775
29113W        W90402  23.211   2.900   4.118
29114W        W90403  19.092  22.626   2.707
29115W        W90404  18.131  18.602   3.248
29116W        W90405  44.922  23.045  13.370
29117W        W90406  22.091  43.995   0.361
29118W        W90407  11.302  20.525  12.026
29119W        W90408  28.005  24.681  12.534
29120W        W90409  28.948  10.737  10.899
29121W        W90410  36.881  30.653   2.389
29122W        W90411  41.002  44.946   1.445
29123W        W90412  18.631   8.719   2.670
29124W        W90413  18.252  26.478  11.382
29125W        W90414  37.865  44.810   4.319
29126W        W90415   3.748  17.638  12.894
29127W        W90416  34.902  23.594   1.218
29128W        W90417   0.287  40.325   0.423
29129W        W90418   5.818  36.098   2.798
29130W        W90419  41.296  43.887  11.085
29131W        W90420  22.011  20.162   2.716
29132W        W90421  24.180  11.633   0.922
29133W        W90422  39.526  36.988   2.376
29134W        W90423  24.043   7.331  14.862
29135W        W90424  41.896   6.762  11.466
29136W        W90425  11.318  34.418   1.290
29137W        W90426  22.995   3.811  10.924
29138W        W90427  14.246  35.432   4.301
29139W        W90428  42.942  17.263   1.276
29140W        W90429  38.973  41.971   4.191
29141W        W90430  30.109  29.060   2.349
29142W        W90431   2.921   0.795   0.863
29143W        W90432  31.561  11.328  10.938
29144W        W90433  41.995  13.109  14.514
29145W        W90434  32.044   1.321   0.763
29146W        W90435  24.196  36.967   3.727
29147W        W90436  36.567  36.575  13.326
29148W        W90437  38.010   8.824  13.043
29149W        W90438   5.204  31.986  11.497
29150W        W90439  42.831  19.732   1.222
29151W        W90440  24.008  11.784  14.514
29152W        W90441  11.305  33.128   2.789
29153W        W90442  33.073   1.451  13.487
29154W        W90443  28.607  28.004  10.010
29155W        W90444  35.604  16.672  10.510
29156W        W90445   4.884  37.967  13.875
29157W        W90446  25.680  34.612   4.136
29158W        W90447  35.919  23.225  12.069
29159W        W90448  42.527  37.384  13.390
29160W        W90449  34.069   6.405  10.633
29161W        W90450  19.632  38.995   4.657
29162W        W90451   9.725   4.810   0.954
29163W        W90452   1.800  20.199  12.424
29164W        W90453   1.840   8.792   4.241
29165W        W90454   9.646  24.702   0.873
29166W        W90455  31.010   4.381   0.856
29167W        W90456  33.993  24.190   2.663
29168W        W90457  38.985  26.587   1.444
29169W        W90458  32.576   0.259  13.527
29170W        W90459  44.363  44.002   4.615
29171W        W90460  24.560  34.563  14.478
29172W        W90461  19.068   9.653  11.883
29173W        W90462  34.037  41.992   1.735
29174W        W90463   9.389  22.244  12.086
29175W        W90464  26.118   2.302   3.207
29176W        W90465   4.852  38.896  14.284
29177W        W90466  15.205  10.358  10.598
29178W        W90467  35.399  14.708   3.792
29179W        W90468  41.448  32.432  14.415
29180W        W90469  14.674  13.762  10.623
29181W        W90470   7.316  18.614   5.160
29182W        W90471   2.800  17.577  13.477
29183W        W90472   8.883  36.565   1.250
29184W        W90473   6.677  38.001  10.470
29185W        W90474   1.332  24.649  12.503
29186W        W90475  12.246  34.585  10.525
29187W        W90476  21.150  40.052  10.486
29188W        W90477  18.070  10.294   2.284
29189W        W90478  43.496  19.232   2.181
29190W        W90479   6.244  29.942  13.519
29191W        W90480   6.232  12.324  14.790
29192W        W90481  35.462  13.339   4.803
29193W        W90482  32.110   4.751  13.048
29194W        W90483  14.814  37.416  12.023
29195W        W90484  24.546  37.555   2.771
29196W        W90485   3.235  32.505  14.433
29197W        W90486  33.598  37.937  12.426
29198W        W90487   5.836  44.480  13.924
29199W        W90488  37.377  25.654   0.959
29200W        W90489  32.510  34.084  11.499
29201W        W90490  18.210  31.010  11.473
29202W        W90491  33.610  34.406   3.638
29203W        W90492  14.107  26.457   0.262
29204W        W90493  14.696  20.528   1.258
29205W        W90494  25.064  34.458  13.987
29206W        W90495  25.696   6.852   2.255
29207W        W90496  14.120  19.055   0.863
29208W        W90497  39.816  15.256  11.570
29209W        W90498  17.757  28.564   1.431
29210W        W90499  32.530  31.988  14.978
29211W        W90500  43.304  17.725   1.833
29212W        W90501  16.268  11.848  10.420
29213W        W90502  44.352   3.746   2.363
29214W        W90503  37.996  40.438   0.321
29215W        W90504  27.106  37.069   1.762
29216W        W90505  24.081  24.680   1.848
29217W        W90506  31.934  29.670   5.306
29218W        W90507  34.960  35.914  11.128
29219W        W90508  39.910  28.588  10.453
29220W        W90509  15.585   8.785  10.615
29221W        W90510  26.588  33.401   3.324
29222W        W90511  35.431  41.997  12.535
29223W        W90512  34.595  41.984  14.482
29224W        W90513  14.194  28.603  11.401
29225W        W90514   6.869  39.922   4.184
29226W        W90515  34.897  25.704  12.563
29227W        W90516  28.551   1.975   2.374
29228W        W90517  19.577  35.075   4.314
29229W        W90518  11.190  38.892  10.532
29230W        W90519  33.889  26.566  11.865
29231W        W90520  15.763   1.961   1.434
29232W        W90521  37.955  17.120   2.294
29233W        W90522  31.426  21.166  10.548
29234W        W90523   5.300  28.028  11.572
29235W        W90524  38.933  33.561   2.865
29236W        W90525  43.485   0.367  13.056
29237W        W90526  38.417   0.278   2.884
29238W        W90527  19.559  41.010  14.773
29239W        W90528  21.646  41.359  14.933
29240W        W90529  14.312  40.973  13.351
29241W        W90530  25.540  41.787  14.771
29242W        W90531  23.545   9.701  11.402
29243W        W90532  36.411  19.608  14.827
29244W        W90533  39.503  44.489  14.925
29245W        W90534  14.828   6.859  11.538
29246W        W90535  16.664  22.128  12.839
29247W        W90536   8.294   6.274   0.932
29248W        W90537  17.122  17.601  11.482
29249W        W90538  36.955  32.550   3.218
29250W        W90539   6.380   1.790   3.289
29251W        W90540  20.724  31.590  12.971
29252W        W90541   8.822  17.740   0.931
29253W        W90542  23.189  10.349   4.601
29254W        W90543  21.145  36.511  11.101
29255W        W90544   8.345   0.904   5.168
29256W        W90545  38.507  19.581  12.492
29257W        W90546  39.549   6.778   0.379
29258W        W90547  33.922  32.984   4.643
29259W        W90548   6.388   5.774  14.345
29260W        W90549  13.284   3.274   2.355
29261W        W90550  18.088  35.554  10.990
29262W        W90551   5.289  38.361   2.266
29263W        W90552  27.011  17.757   1.917
29264W        W90553  29.155   4.791  11.480
29265W        W90554   8.191  15.660   3.816
29266W        W90555  43.922  34.554  10.446
29267W        W90556  12.187  26.132  11.092
29268W        W90557  23.672   5.927  10.952
29269W        W90558   9.183   8.284   0.321
29270W        W90559  12.219  10.711   3.344
29271W        W90560  31.140  24.079   2.218
29272W        W90561  29.050  17.117  12.826
29273W        W90562  26.574  10.347   3.737
29274W        W90563   9.375  11.653  11.128
29275W        W90564   2.821   3.264  10.418
29276W        W90565  10.371  20.661   4.152
29277W        W90566   1.280  27.178   0.871
29278W        W90567  14.172   1.239  13.321
29279W        W90568  34.438  19.113   2.405
29280W        W90569   7.845  41.532  14.898
29281W        W90570  24.160   6.277   9.956
29282W        W90571   9.174   6.892  11.029
29283W        W90572  41.311   4.772   2.396
29284W        W90573  27.030  10.317  12.959
29285W        W90574  29.034  22.051   3.819
29286W        W90575   2.431   7.330   4.789
29287W        W90576  44.422  41.350   3.712
29288W        W90577  10.712  31.497   0.324
29289W        W90578  20.769  35.400  13.412
29290W        W90579  16.788  26.682  10.627
29291W        W90580  35.873  38.868  10.963
29292W        W90581  34.559  41.423  14.947
29293W        W90582   9.824  30.418  11.601
29294W        W90583  40.010  39.427  13.437
29295W        W90584  42.805  14.284  14.006
29296W        W90585   0.783   1.352  13.470
29297W        W90586   3.408  31.469  12.966
29298W        W90587  23.026  42.524   2.757
29299W        W90588  10.138  26.675   2.310
29300W        W90589   5.788  28.457   5.640
29301W        W90590  30.444   4.719  11.514
29302W        W90591  18.183  29.054   0.858
29303W        W90592  29.971   6.919  11.994
29304W        W90593  31.146   2.366  11.858
29305W        W90594  18.222  37.565   4.663
29306W        W90595  42.508  35.967  12.067
29307W        W90596  23.181  43.322  13.391
29308W        W90597  14.250  24.636  12.861
29309W        W90598  42.830   3.365   1.770
29310W        W90599   7.302  34.960  10.630
29311W        W90600   2.860  31.067  11.520
29312W        W90601   9.380  15.712  13.816
29313W        W90602   3.254  24.088   2.863
29314W        W90603  24.607  16.120  12.528
29315W        W90604  23.177  20.720  11.435
29316W        W90605  11.859  24.686   0.792
29317W        W90606  36.041  14.161  13.884
29318W        W90607  31.534   0.463   4.669
29319W        W90608  38.870  30.135   5.316
29320W        W90609  25.036  43.329   4.760
29321W        W90610   0.986  19.062  11.898
29322W        W90611  33.892  38.840  13.883
29323W        W90612  40.468  18.073  11.500
29324W        W90613  29.605   6.287  14.933
29325W        W90614  24.018  10.146   2.719
29326W        W90615   3.871   8.657  12.936
29327W        W90616  15.176  32.614  12.461
29328W        W90617  25.529  36.399   3.837
29329W        W90618  13.681   8.704  13.360
29330W        W90619   7.378  38.515  14.017
29331W        W90620  41.975  18.729   4.644
29332W        W90621   4.717  25.066   3.837
29333W        W90622  33.099  35.086  11.960
29334W        W90623  11.365  29.512   2.391
29335W        W90624  18.052  21.609   3.694
29336W        W90625  11.198  35.984  13.953
29337W        W90626  19.723  39.876   2.712
29338W        W90627  13.351   8.848   1.407
29339W        W90628  39.377  41.870   2.235
29340W        W90629  10.368  27.108   1.410
29341W        W90630  24.639  42.960   0.760
29342W        W90631  25.686  11.679  10.407
29343W        W90632  20.760  37.526   5.113
29344W        W90633  17.604  28.515  11.445
29345W        W90634   9.791   2.937  13.348
29346W        W90635   1.459  26.107  12.931
29347W        W90636  17.729   0.466   3.354
29348W        W90637  27.059  10.714   5.091
29349W        W90638  38.844   0.845   1.249
29350W        W90639  35.933   5.914   2.192
29351W        W90640   6.297  10.329  12.416
29352W        W90641   4.866  23.204  14.475
29353W        W90642  38.332  13.824   1.794
29354W        W90643  34.438  40.872   2.350
29355W        W90644  43.967   9.735  13.982
29356W        W90645  40.835   2.462  12.426
29357W        W90646   6.329  10.849  14.861
29358W        W90647  14.658  12.791  13.030
29359W        W90648   1.765  37.946  14.842
29360W        W90649  16.574  31.129  10.972
29361W        W90650  24.072  20.074  11.862
29362W        W90651   3.258   0.416  14.462
29363W        W90652  25.036  23.496   0.835
29364W        W90653   4.891  18.667  13.903
29365W        W90654  37.924  12.710   2.394
29366W        W90655  39.558  38.428   4.619
29367W        W90656   3.787  41.523  13.318
29368W        W90657   7.372  33.452   2.418
29369W        W90658   7.894  19.071  14.407
29370W        W90659  37.347  41.038   1.813
29371W        W90660   5.428  35.094   4.156
29372W        W90661  12.791   7.793  10.909
29373W        W90662  32.469   5.798   1.826
29374W        W90663  20.230  36.355   3.366
29375W        W90664   2.826  31.952  11.039
29376W        W90665  26.206  13.809   0.366
29377W        W90666  27.183  13.663   1.417
29378W        W90667  36.532  35.865   2.317
29379W        W90668   9.358  20.721   0.966
29380W        W90669  17.089  23.639   3.294
29381W        W90670  29.060   9.850   5.118
29382W        W90671  28.598   8.900   1.291
29383W        W90672  30.593  32.099  11.466
29384W        W90673  19.732  16.712   4.296
29385W        W90674  18.681  27.187   0.843
29386W        W90675  14.114  23.513   4.339
29387W        W90676  13.748  30.657  14.780
29388W        W90677   0.915  12.286  14.010
29389W        W90678  22.704   4.745   0.926
29390W        W90679  43.959  34.063  10.586
29391W        W90680  29.037  10.757  12.562
29392W        W90681   2.412  41.384   1.831
29393W        W90682  38.018   3.709   3.668
29394W        W90683  41.900  25.597  12.578
29395W        W90684  29.971  20.567   2.758
29396W        W90685  33.118  32.903  11.886
29397W        W90686  21.187   3.385   1.347
29398W        W90687  17.712  28.093   4.813
29399W        W90688   8.776  20.716   3.385
29400W        W90689  42.021  11.247  13.896
29401W        W90690   8.799  12.669  14.515
29402W        W90691  38.843  26.156   3.250
29403W        W90692  27.573  10.372   5.710
29404W        W90693  38.507  11.309  11.860
29405W        W90694  11.359  28.610  10.970
29406W        W90695  33.466  29.556   1.816
29407W        W90696  13.342  35.042  14.288
29408W        W90697  44.495  36.370   0.370
29409W        W90698  37.461   2.905  13.795
29410W        W90699  35.463  33.002   0.859
29411W        W90700   0.873  10.823  14.408
29412W        W90701  35.071  24.631   2.757
29413W        W90702  22.690  11.784  10.530
29414W        W90703  43.274  23.034   0.823
29415W        W90704  21.753  33.597  10.091
29416W        W90705  39.437  37.957  10.965
29417W        W90706  28.520  34.876  14.465
29418W        W90707  37.361  18.081  11.985
29419W        W90708  39.982  10.371  12.880
29420W        W90709  32.408  14.614  14.928
29421W        W90710  11.664   6.816   1.879
29422W        W90711  25.628   2.779  11.069
29423W        W90712  39.960  11.707  12.850
29424W        W90713   1.829  44.480  10.620
29425W        W90714  17.772   6.192   0.460
29426W        W90715  30.911  30.018   4.652
29427W        W90716  44.344  40.417  13.015
29428W        W90717  18.229  38.327  11.543
29429W        W90718  36.360  25.689   3.651
29430W        W90719  40.534  15.201   0.386
29431W        W90720  13.306  40.359  10.518
29432W        W90721  43.480  11.828   4.156
29433W        W90722  38.946  18.640   3.309
29434W        W90723  43.880  30.630  13.317
29435W        W90724  23.092  14.184  13.431
29436W        W90725  33.073  21.134   5.258
29437W        W90726   3.816   8.369  14.770
29438W        W90727   8.224  32.029   3.187
29439W        W90728  33.533   5.204  11.515
29440W        W90729  39.351  20.754  10.979
29441W        W90730  32.020  38.566   2.854
29442W        W90731  32.982  36.024   0.306
29443W        W90732   3.239  31.476   4.270
29444W        W90733  10.776  10.242   4.203
29445W        W90734  19.154  42.461   4.774
29446W        W90735   8.268   4.323   0.833
29447W        W90736  40.978  22.012  10.582
29448W        W90737   0.390   4.826   1.270
29449W        W90738  40.455   4.348   4.835
29450W        W90739  13.233  15.111  11.479
29451W        W90740  44.429   7.282   4.720
29452W        W90741  13.270  16.156   2.357
29453W        W90742  12.198  14.821  11.455
29454W        W90743  27.692  28.168  11.070
29455W        W90744   2.725   9.160   3.838
29456W        W90745  39.498  30.638   4.707
29457W        W90746   6.215  31.478   0.829
29458W        W90747   0.954  17.119   3.841
29459W        W90748  43.323  25.993   1.695
29460W        W90749   4.728  18.652   0.794
29461W        W90750  40.388  39.894   4.123
29462W        W90751  27.961  23.607   2.869
29463W        W90752  10.296  41.937   0.922
29464W        W90753  25.970  10.249   2.787
29465W        W90754  39.065   5.822  10.417
29466W        W90755  28.100  28.477  13.014
29467W        W90756  43.293   3.945  13.954
29468W        W90757  16.794  36.045   3.228
29469W        W90758  27.958  21.196   9.966
29470W        W90759  43.503  26.703   0.400
29471W        W90760  28.516  16.648  13.882
29472W        W90761  38.510  26.016   1.864
29473W        W90762   1.828  23.027  13.796
29474W        W90763  35.041  14.663  12.476
29475W        W90764   8.382  19.745   4.834
29476W        W90765   3.941  20.106   3.752
29477W        W90766   0.753  14.810  11.039
29478W        W90767  24.152   9.317   4.703
29479W        W90768  20.595  21.644   2.797
29480W        W90769  22.173  13.296  12.969
29481W        W90770  24.037  40.987  13.993
29482W        W90771   5.194  41.027  11.522
29483W        W90772  24.184  35.865  12.529
29484W        W90773  15.640  44.346  12.052
29485W        W90774  33.022   5.711  13.051
29486W        W90775   2.266  25.218  14.485
29487W        W90776  22.726  28.976  14.770
29488W        W90777  44.880  29.111   2.310
29489W        W90778  18.084  12.650  12.888
29490W        W90779  30.527  31.913  13.847
29491W        W90780  20.597   0.850  12.892
29492W        W90781  42.849  11.278  14.816
29493W        W90782  32.495  19.219  11.856
29494W        W90783  38.985  39.065  14.484
29495W        W90784  34.602   2.326   5.287
29496W        W90785  42.793   0.968   0.302
29497W        W90786   3.844  36.981   2.811
29498W        W90787  25.159   7.354  10.057
29499W        W90788  21.209  13.315  10.585
29500W        W90789   1.371   0.276   1.747
29501W        W90790  33.453  40.799  13.933
29502W        W90791  24.505  24.976   3.301
29503W        W90792  31.119  12.215  12.078
29504W        W90793  32.063  12.189  10.502
29505W        W90794  26.500  31.931  13.430
29506W        W90795  41.320  20.212  14.912
29507W        W90796  39.873  20.062  13.428
29508W        W90797  33.561  20.189  14.949
29509W        W90798  12.292  35.856   3.257
29510W        W90799   6.686  40.352   1.895
29511W        W90800  33.101  44.357   2.416
29512W        W90801  12.817  33.486  13.024
29513W        W90802  43.821  40.350   0.788
29514W        W90803  43.370  37.024  14.396
29515W        W90804  24.003  14.734  13.052
29516W        W90805   1.438  43.947   0.922
29517W        W90806   2.446  25.547  13.883
29518W        W90807  30.031   4.377  13.440
29519W        W90808  37.041  30.631   1.883
29520W        W90809  39.833  20.551   4.793
29521W        W90810  11.360  34.111   1.371
29522W        W90811  41.455   1.809  14.954
29523W        W90812  14.629   2.806  13.347
29524W        W90813   7.880   9.647   3.733
29525W        W90814  44.468  15.610  11.111
29526W        W90815   3.368  28.483  11.116
29527W        W90816  39.847  37.579   9.948
29528W        W90817  12.801  44.310   4.723
29529W        W90818  39.907  42.506   4.216
29530W        W90819   0.746  27.959   1.734
29531W        W90820  12.855  43.784  14.834
29532W        W90821  29.440  43.501   3.766
29533W        W90822  12.338   1.253  12.514
29534W        W90823  17.708   8.331  14.970
29535W        W90824   6.824   0.343  12.827
29536W        W90825  30.091  34.061   3.842
29537W        W90826  28.508  12.857  13.877
29538W        W90827  21.084  14.188   1.810
29539W        W90828  37.520  44.965   0.462
29540W        W90829   0.760  30.059   1.723
29541W        W90830  37.435   2.316   2.222
29542W        W90831  41.429  21.664   1.882
29543W        W90832   3.819  32.034   0.347
29544W        W90833  14.165  29.169   4.624
29545W        W90834  21.547  16.721   0.744
29546W        W90835   6.414   4.389   2.749
29547W        W90836   8.857  26.170  14.334
29548W        W90837  39.968  43.979   2.276
29549W        W90838  33.893  29.047  11.864
29550W        W90839  19.736  40.921  12.874
29551W        W90840   0.279  17.215   2.800
29552W        W90841   6.425  22.574  12.056
29553W        W90842  27.625   4.756  14.920
29554W        W90843  31.093  10.670  14.944
29555W        W90844  44.885  31.444  12.455
29556W        W90845  38.883   1.888   2.210
29557W        W90846  10.823  14.607  13.052
29558W        W90847  44.974  13.165   3.701
29559W        W90848  26.477  12.757   3.380
29560W        W90849  12.852  22.197   3.305
29561W        W90850  17.592   5.721   0.879
29562W        W90851  36.065  20.146  13.426
29563W        W90852  14.202  27.076  13.963
29564W        W90853  34.018   1.949   4.279
29565W        W90854  38.454  38.857  13.063
29566W        W90855  15.755  38.829   1.755
29567W        W90856   1.954  14.667   0.744
29568W        W90857   5.388  40.401  13.360
29569W        W90858  27.464  37.341   2.328
29570W        W90859  37.982   2.370  12.467
29571W        W90860   7.813   3.245   0.790
29572W        W90861  37.377  25.033  11.581
29573W        W90862  17.083  25.010   3.183
29574W        W90863  29.503   9.394   5.180
29575W        W90864   1.300  30.916  11.003
29576W        W90865  20.640   0.747   3.816
29577W        W90866  31.985  31.445  12.086
29578W        W90867   2.770   9.673  14.485
29579W        W90868  20.192  24.628  14.386
29580W        W90869   2.290  14.321  14.347
29581W        W90870  30.056  36.021  13.851
29582W        W90871   5.700  20.610   3.689
29583W        W90872  11.624  33.876   0.391
29584W        W90873  23.679  39.916  10.553
29585W        W90874   3.888   8.284   0.796
29586W        W90875  26.106  18.117  10.510
29587W        W90876  13.235  32.019   9.438
29588W        W90877  36.481  24.536  12.961
29589W        W90878   6.834   3.844   2.776
29590W        W90879  44.318   6.258   5.297
29591W        W90880  22.013  18.070   1.420
29592W        W90881  43.981  30.562  10.609
29593W        W90882  22.226  29.982  13.009
29594W        W90883  29.021  43.894  13.393
29595W        W90884  22.705   4.228  13.476
29596W        W90885  24.100  43.821  10.913
29597W        W90886  37.557  15.714  13.903
29598W        W90887  22.131  15.639   3.802
29599W        W90888  19.626  23.148  12.090
29600W        W90889   0.933  17.743  10.607
29601W        W90890  36.555   1.414   2.183
29602W        W90891   3.757  26.975  13.794
29603W        W90892  13.657  42.927   3.860
29604W        W90893   8.799  18.791   3.214
29605W        W90894   2.927  16.652   3.286
29606W        W90895   9.886   6.248  10.405
29607W        W90896  24.521   5.714  12.890
29608W        W90897  26.592   8.189  13.366
29609W        W90898  44.276  37.460   2.845
29610W        W90899  31.552  43.922   2.274
29611W        W90900  27.611  38.059   4.707
29612W        W90901   2.835  13.699   2.382
29613W        W90902  24.526   5.422   4.623
29614W        W90903  15.756  25.021   2.850
29615W        W90904  10.382   2.742  12.003
29616W        W90905   0.259  25.699  12.056
29617W        W90906  22.660  36.055  12.353
29618W        W90907  32.473  34.470   2.285
29619W        W90908  16.179  33.492  12.521
29620W        W90909  15.196   3.325   4.206
29621W        W90910  22.014  21.052  12.431
29622W        W90911  40.385  42.962   2.362
29623W        W90912  12.767   7.805   5.240
29624W        W90913  43.016  28.557  14.282
29625W        W90914  22.163  15.772  14.299
29626W        W90915  29.120  42.863   5.126
29627W        W90916  10.672  21.720  10.940
29628W        W90917  34.979  22.022  14.284
29629W        W90918  11.357  19.611  12.573
29630W        W90919   0.306   3.815  10.555
29631W        W90920   7.902  26.529   3.354
29632W        W90921  24.698   6.320   4.792
29633W        W90922  41.398  24.703  13.923
29634W        W90923  34.472  44.282  14.854
29635W        W90924  10.689  35.898   2.817
29636W        W90925  17.792  20.695   0.934
29637W        W90926  32.472  16.665  13.018
29638W        W90927  39.012  24.053  12.008
29639W        W90928  30.658  21.192   1.758
29640W        W90929  21.711  29.621   2.288
29641W        W90930  43.417  24.229   4.786
29642W        W90931  41.836  26.060   2.290
29643W        W90932   8.216  23.500   1.263
29644W        W90933  12.835  25.149   2.407
29645W        W90934  41.312   5.415   4.339
29646W        W90935   7.351  34.001   4.781
29647W        W90936   2.724   5.731   2.253
29648W        W90937  25.062  32.906   3.647
29649W        W90938  42.885   1.739   3.835
29650W        W90939  17.127  22.687   2.819
29651W        W90940  40.924   6.362   0.261
29652W        W90941  18.723  16.779  11.379
29653W        W90942  36.397  15.801  12.023
29654W        W90943  35.438   0.313   1.361
29655W        W90944  17.689  36.993  10.457
29656W        W90945  40.937   6.355  10.531
29657W        W90946  13.175  15.147  11.100
29658W        W90947  19.087   0.929   1.351
29659W        W90948  14.674  33.060   3.758
29660W        W90949   3.307  13.166   1.390
29661W        W90950  43.296  38.892  13.926
29662W        W90951   6.713  35.995  13.428
29663W        W90952  21.153  27.143   1.330
29664W        W90953  35.491   3.290   3.658
29665W        W90954  32.612  17.087  14.424
29666W        W90955  25.194  14.113  14.793
29667W        W90956  43.344  43.802   4.333
29668W        W90957  13.258  14.672  13.893
29669W        W90958   3.367  20.153   1.336
29670W        W90959  13.609  23.063  10.431
29671W        W90960  28.134  38.559   1.446
29672W        W90961  13.176   6.794   0.861
29673W        W90962  12.778  28.952  14.498
29674W        W90963   7.357   3.852   1.358
29675W        W90964  24.590  43.946   2.376
29676W        W90965   9.829  39.547  14.979
29677W        W90966  31.109   6.910  14.402
29678W        W90967   8.801  27.673  14.457
29679W        W90968   0.891  38.515  11.589
29680W        W90969  28.099   5.438  12.517
29681W        W90970  42.925  27.948   3.847
29682W        W90971  24.201  17.717   0.823
29683W        W90972  20.573  44.377  11.025
29684W        W90973  15.270  21.255   4.264
29685W        W90974  25.711  17.247  14.388
29686W        W90975  42.990  25.038  14.460
29687W        W90976  20.697  36.439   2.818
29688W        W90977  27.135   6.720   1.893
29689W        W90978  38.059   0.808  14.372
29690W        W90979  17.754  30.093  12.375
29691W        W90980  43.842  29.637   2.733
29692W        W90981   1.863  37.078   2.702
29693W        W90982  12.170  38.543  10.581
29694W        W90983   8.773  29.561   0.261
29695W        W90984  13.815   9.847   2.730
29696W        W90985  39.999   2.865  12.513
29697W        W90986   0.386  42.910  13.972
29698W        W90987  44.759  25.711  11.074
29699W        W90988  29.436  10.164   0.308
29700W        W90989  13.143   9.320   1.773
29701W        W90990  13.669  31.035  13.540
29702W        W90991  43.840  11.203   3.796
29703W        W90992  22.522  20.226  14.334
29704W        W90993  31.941  12.303   0.437
29705W        W90994  24.058  22.606   1.364
29706W        W90995  36.845  38.356  14.388
29707W        W90996  35.879  34.547   2.672
29708W        W90997  44.480  27.562  13.434
29709W        W90998  24.115  33.504  13.871
29710W        W90999   7.768   8.795   0.358
29711W        W91000  19.148  42.442  14.929
29712W        W91001  39.999  44.950  13.331
29713W        W91002  34.492  10.798  12.513
29714W        W91003  21.217  36.416  12.846
29715W        W91004  21.747   7.289  14.939
29716W        W91005  38.364  21.705   0.321
29717W        W91006  38.471  35.547   2.688
29718W        W91007  11.237  22.034  10.433
29719W        W91008  24.181  18.771  14.951
29720W        W91009  34.906  32.499   2.185
29721W        W91010  27.163  11.340  11.406
29722W        W91011  23.047  24.021  14.943
29723W        W91012  33.117  20.045  14.380
29724W        W91013  37.948  29.664   0.908
29725W        W91014  42.343  28.031   3.344
29726W        W91015  25.625  14.136  12.397
29727W        W91016  38.330  29.642  14.356
29728W        W91017  37.888  31.928   2.896
29729W        W91018  44.445  14.160  12.471
29730W        W91019  42.388  38.502  14.320
29731W        W91020  30.139  33.874  13.850
29732W        W91021  42.859   7.751   5.115
29733W        W91022  23.077  19.693  12.950
29734W        W91023  43.408   4.873   1.828
29735W        W91024  41.021   1.771   0.426
29736W        W91025  11.329  44.417  12.931
29737W        W91026  21.093  29.062   3.243
29738W        W91027  14.129  24.044   1.882
29739W        W91028  10.257  22.637  12.977
29740W        W91029   6.795  11.745  13.439
29741W        W91030  31.920  16.789   0.362
29742W        W91031  11.714   9.330   1.910
29743W        W91032   3.408  21.183  10.438
29744W        W91033  29.116   5.705   0.386
29745W        W91034  15.280  21.082  12.341
29746W        W91035  18.555   6.313  13.037
29747W        W91036   0.488  12.285   4.626
29748W        W91037  16.132   7.392  11.123
29749W        W91038  41.416  38.883  12.054
29750W        W91039   3.314  13.731   4.839
29751W        W91040  28.453  15.669   1.293
29752W        W91041  38.977  19.652   0.441
29753W        W91042  13.157  34.430   1.410
29754W        W91043  23.053  21.578   5.703
29755W        W91044  28.487  36.050  13.854
29756W        W91045  32.548   4.304  11.512
29757W        W91046  20.704  16.151   4.747
29758W        W91047  40.405  35.512  10.595
29759W        W91048  27.606  21.690   3.643
29760W        W91049  41.992   9.677   0.952
29761W        W91050  26.989  36.519  12.533
29762W        W91051  35.557  25.211   1.354
29763W        W91052   2.345  16.171   1.303
29764W        W91053  33.913  30.076   0.282
29765W        W91054  42.353  37.952   2.215
29766W        W91055  13.121  32.006  12.884
29767W        W91056  22.186  24.625  14.458
29768W        W91057   0.886  10.299   1.448
29769W        W91058  25.082  37.957   1.261
29770W        W91059  27.619  27.997   3.263
29771W        W91060  34.972   1.331   0.380
29772W        W91061  13.823  28.520   4.146
29773W        W91062  21.039  30.607   3.189
29774W        W91063  26.040   7.410   1.430
29775W        W91064  37.491  11.730   3.742
29776W        W91065   2.425  22.651   2.249
29777W        W91066  23.551   1.443  12.957
29778W        W91067   8.665   1.346   0.296
29779W        W91068  11.632  38.548  12.395
29780W        W91069  25.084  42.969   3.762
29781W        W91070  34.099  28.563   0.435
29782W        W91071  44.471  20.042   3.663
29783W        W91072   6.721  23.105  13.485
29784W        W91073  44.941  12.244  10.932
29785W        W91074  34.047   3.285   2.680
29786W        W91075  22.746  32.929  13.471
29787W        W91076   1.320  28.043  12.557
29788W        W91077  18.737  16.277  12.443
29789W        W91078  41.029   9.314  11.523
29790W        W91079  17.667  14.750  13.408
29791W        W91080  13.259  22.035   1.233
29792W        W91081  35.517  33.524   0.828
29793W        W91082  35.591   8.227  13.330
29794W        W91083  12.161  23.989   1.738
29795W        W91084  23.151   3.267  12.887
29796W        W91085   7.364  22.100  13.810
29797W        W91086  42.826  15.764  10.927
29798W        W91087  16.293  15.696  11.511
29799W        W91088  16.803  23.239   0.284
29800W        W91089   7.816  10.177  12.571
29801W        W91090  24.514  12.188   1.225
29802W        W91091  33.400  18.226  12.901
29803W        W91092  14.603  22.180   1.721
29804W        W91093  13.631  22.521  13.993
29805W        W91094   0.837  18.185  12.088
29806W        W91095  41.431  26.028  13.333
29807W        W91096   4.903  16.704  13.051
29808W        W91097  25.127  44.418  10.899
29809W        W91098  20.264  32.136   1.764
29810W        W91099   6.910   8.252   4.783
29811W        W91100  15.316  10.307   4.173
29812W        W91101  22.666  34.603  11.970
29813W        W91102  14.787  10.372   3.265
29814W        W91103  44.993  15.660   2.254
29815W        W91104  19.181  31.152  14.431
29816W        W91105  15.737  35.442   2.244
29817W        W91106  16.643  22.132  11.881
29818W        W91107  42.790  25.119  12.934
29819W        W91108   2.834  19.069  14.982
29820W        W91109  22.107  18.141  12.480
29821W        W91110  34.392   2.399   3.825
29822W        W91111  31.900   4.826  10.060
29823W        W91112   4.360  33.442  13.487
29824W        W91113   8.178  11.294   0.846
29825W        W91114  39.377  19.224   2.831
29826W        W91115  16.596  14.108  10.514
29827W        W91116   8.890  26.648   2.359
29828W        W91117  32.529   6.803   1.323
29829W        W91118  27.552  27.681  14.814
29830W        W91119  39.835  16.287   1.789
29831W        W91120   0.849   8.831  14.806
29832W        W91121   5.311   4.868   3.168
29833W        W91122  10.345  43.914   1.346
29834W        W91123  13.280  41.488  14.381
29835W        W91124  23.586  38.020  13.487
29836W        W91125   7.303  15.127  12.359
29837W        W91126  39.430  13.231   1.423
29838W        W91127  19.203   9.740   0.765
29839W        W91128  40.850  34.961   2.738
29840W        W91129  17.590   3.416  13.961
29841W        W91130   3.819  33.403   2.822
29842W        W91131  39.914  31.461   3.227
29843W        W91132   3.460  24.066  13.955
29844W        W91133  39.026  11.323   4.171
29845W        W91134  34.004  14.243  11.935
29846W        W91135  13.307  25.701  13.453
29847W        W91136  28.564   8.893  11.954
29848W        W91137  39.849  12.339  14.332
29849W        W91138  27.598  23.232   2.791
29850W        W91139  12.734  17.108   1.371
29851W        W91140   8.798  27.130   1.930
29852W        W91141  39.365   0.324  13.925
29853W        W91142  31.905  22.996  14.970
29854W        W91143   1.847  22.586   2.671
29855W        W91144  25.580  18.252  13.333
29856W        W91145   9.286  19.686  13.460
29857W        W91146  34.606  26.977   3.698
29858W        W91147  30.051  14.153  11.587
29859W        W91148   5.713  34.494   4.791
29860W        W91149  11.749  14.248  12.870
29861W        W91150  17.743  35.933  10.531
29862W        W91151   5.380  32.978  13.361
29863W        W91152  16.167   9.166   0.355
29864W        W91153  21.756   3.372   1.297
29865W        W91154  26.969   0.821  11.993
29866W        W91155  25.198  17.190   3.358
29867W        W91156   6.418   2.394  14.776
29868W        W91157  16.212  40.450   2.239
29869W        W91158  12.774  35.876   9.998
29870W        W91159  21.033  21.745  13.385
29871W        W91160  40.837  39.942  12.913
29872W        W91161  13.723  28.021  14.307
29873W        W91162   5.764  34.431  13.915
29874W        W91163  41.796   3.409   0.361
29875W        W91164  28.095  10.183   3.155
29876W        W91165  15.631  11.342   3.322
29877W        W91166  28.144   9.274  10.070
29878W        W91167   3.382  15.160  11.872
29879W        W91168  19.548  19.181  14.007
29880W        W91169  25.664  20.693  14.811
29881W        W91170  20.173   6.296  14.867
29882W        W91171  15.208  17.595  14.842
29883W        W91172  34.448  30.963  12.022
29884W        W91173  30.008  32.048  13.020
29885W        W91174  44.450  14.235  13.884
29886W        W91175  27.680  14.115  10.528
29887W        W91176  19.085  20.251  14.412
29888W        W91177  43.508   1.830   2.797
29889W        W91178  41.849   7.909   1.794
29890W        W91179  22.575  11.645   3.375
29891W        W91180  10.215  36.986  11.078
29892W        W91181  37.010  13.324  14.774
29893W        W91182   9.220  10.796   4.615
29894W        W91183  30.651   8.224  11.371
29895W        W91184  26.598  43.514  14.966
29896W        W91185   4.900  15.318  11.987
29897W        W91186  38.497  10.228   1.320
29898W        W91187  29.519  11.170  14.422
29899W        W91188  41.376  28.604  12.923
29900W        W91189  43.473   6.847   5.134
29901W        W91190  40.364  24.491   4.718
29902W        W91191  35.589  38.481  12.028
29903W        W91192  12.766  23.183   3.338
29904W        W91193  38.461  27.456   2.313
29905W        W91194  21.240  27.967   4.244
29906W        W91195  28.496  12.146   5.617
29907W        W91196  10.307  13.332   2.880
29908W        W91197  23.239  34.395   0.279
29909W        W91198  11.138  20.170   4.205
29910W        W91199  11.742  26.122   3.273
29911W        W91200  17.623  35.579  12.421
29912W        W91201  27.558   8.756  14.968
29913W        W91202  27.561   6.908   2.840
29914W        W91203  33.011  32.049   4.770
29915W        W91204  28.049   3.921   2.862
29916W        W91205  33.514  12.763  12.447
29917W        W91206  25.575  42.409  11.465
29918W        W91207  20.666  20.526   2.342
29919W        W91208  17.791   5.763   4.709
29920W        W91209  14.163  39.843  11.022
29921W        W91210  19.092  26.103  12.456
29922W        W91211  39.000  32.027   3.824
29923W        W91212  37.862  25.199   4.327
29924W        W91213  36.398  11.716  10.456
29925W        W91214   3.372  26.656   0.394
29926W        W91215  26.074   4.748   4.301
29927W        W91216   3.886  23.088  10.640
29928W        W91217  10.684  42.894  13.395
29929W        W91218  38.822   7.198   2.867
29930W        W91219  20.125  14.738   1.919
29931W        W91220  20.274   5.863  13.516
29932W        W91221   6.299  23.137  14.516
29933W        W91222  17.306  11.356  12.517
29934W        W91223   4.318  30.559   1.696
29935W        W91224  12.226   0.792  13.936
29936W        W91225  35.880  39.973   4.125
29937W        W91226  43.920  34.580  13.981
29938W        W91227  26.033  22.020  14.285
29939W        W91228  21.172   4.815   4.637
29940W        W91229   4.245  11.348   1.841
29941W        W91230  44.996   1.405  13.857
29942W        W91231  34.602  42.493  10.895
29943W        W91232  13.138  12.685   1.404
29944W        W91233   8.354  36.535  11.857
29945W        W91234  13.789  42.010  12.572
29946W        W91235   6.885  27.043   2.339
29947W        W91236  17.283  44.917  13.314
29948W        W91237  18.594   8.698  14.443
29949W        W91238  24.619   5.335  14.476
29950W        W91239  27.071  22.010  14.938
29951W        W91240  42.867  16.232   2.853
29952W        W91241  10.193  38.953   2.337
29953W        W91242   8.171  27.099   2.269
29954W        W91243  33.565  16.301   2.339
29955W        W91244  19.609  37.553  13.311
29956W        W91245  38.337  17.624   2.221
29957W        W91246  41.967  26.180  11.891
29958W        W91247  16.212  41.887   1.874
29959W        W91248  26.542  34.471  10.084
29960W        W91249  20.172  37.365   3.704
29961W        W91250  23.072  13.832  11.431
29962W        W91251  31.040  15.148  14.355
29963W        W91252  44.937   6.360   1.352
29964W        W91253  16.126  20.166   2.384
29965W        W91254  34.905  24.000   1.353
29966W        W91255  34.964  37.045   0.843
29967W        W91256  23.053  17.271  12.420
29968W        W91257  20.600   9.874   2.316
29969W        W91258   3.238  28.178  11.986
29970W        W91259  32.606  16.143   0.476
29971W        W91260   5.406  43.883   4.181
29972W        W91261  21.117  21.026  13.343
29973W        W91262  14.183  18.261  12.541
29974W        W91263   9.393  31.125  10.575
29975W        W91264  13.661  13.690  13.345
29976W        W91265  33.056  26.685   3.251
29977W        W91266  39.419   6.858   1.353
29978W        W91267  32.534  36.841  14.958
29979W        W91268  44.998  24.120   1.912
29980W        W91269  34.974  25.182   3.724
29981W        W91270  22.250  17.150  13.462
29982W        W91271   8.380  30.968   3.283
29983W        W91272   4.283  31.454   0.372
29984W        W91273  11.718   3.326  12.441
29985W        W91274   8.826   3.364  14.908
29986W        W91275  11.365  26.202   1.864
29987W        W91276  42.028  19.608   1.907
29988W        W91277   4.347   7.847   4.321
29989W        W91278  27.145   3.392   2.777
29990W        W91279  25.161  27.605  14.421
29991W        W91280  32.575  11.684  13.927
29992W        W91281   6.235  22.587   5.149
29993W        W91282  20.122  43.367   2.811
29994W        W91283   5.737   1.260   1.355
29995W        W91284  36.448  12.714   5.155
29996W        W91285  32.513  23.124   4.674
29997W        W91286  18.743  32.125   0.351
29998W        W91287  30.522  35.489  13.976
29999W        W91288   5.401   7.223  13.352
30000W        W91289  23.543  36.527  12.432
30001W        W91290  13.223  35.409  11.924
30002W        W91291  10.187  22.016   2.313
30003W        W91292  18.749  29.539   4.158
30004W        W91293  40.386  44.801   3.299
30005W        W91294  40.449  30.052   4.809
30006W        W91295  30.519  38.496   4.315
30007W        W91296  37.005  13.292   2.873
30008W        W91297   6.731   9.249   0.849
30009W        W91298  32.596  10.878  14.845
30010W        W91299  30.586   1.860  14.293
30011W        W91300   4.334  31.912  12.054
30012W        W91301  41.491   3.458   1.724
30013W        W91302  24.600  38.408   3.386
30014W        W91303  31.560  34.864   4.691
30015W        W91304  39.537   2.363   2.364
30016W        W91305  43.350  22.117   1.703
30017W        W91306  31.633  44.946   2.308
30018W        W91307  42.853  41.846  13.339
30019W        W91308   2.309  42.922  10.959
30020W        W91309  40.511  10.234  11.972
30021W        W91310  22.090  29.072   0.342
30022W        W91311  12.277   8.893  11.486
30023W        W91312  35.859  37.886  12.956
30024W        W91313  27.122  28.169  14.867
30025W        W91314   2.815  31.519  10.639
30026W        W91315  16.188   4.267   3.272
30027W        W91316  36.436  31.061  11.521
30028W        W91317   9.380  35.100   1.266
30029W        W91318  20.076  19.259   2.334
30030W        W91319  43.462  14.604  12.942
30031W        W91320  38.483  20.531   1.798
30032W        W91321  41.440  29.042  13.893
30033W        W91322  38.483  17.186   2.190
30034W        W91323  12.630  15.233   3.716
30035W        W91324  23.033  36.590  13.006
30036W        W91325   3.949   5.339  10.484
30037W        W91326   2.249  18.675   0.307
30038W        W91327  43.805  36.438   2.836
30039W        W91328   1.956  30.562  13.969
30040W        W91329  21.071  34.047   3.212
30041W        W91330   0.957   8.246   2.302
30042W        W91331   7.403  26.047   4.838
30043W        W91332  41.027  10.321  12.955
30044W        W91333  20.239  38.859  11.527
30045W        W91334  15.784  13.746  12.894
30046W        W91335   8.742  26.055   4.203
30047W        W91336  43.331  11.344   4.670
30048W        W91337  30.075  16.688  14.010
30049W        W91338  37.952  39.815  11.021
30050W        W91339  26.974  30.921   1.218
30051W        W91340  28.629  12.750   1.835
30052W        W91341  31.470  11.817  13.439
30053W        W91342  19.741  43.291  11.416
30054W        W91343   1.942   7.209   3.367
30055W        W91344  18.073  21.103   0.959
30056W        W91345  29.933   9.162  14.390
30057W        W91346  28.999  10.361   4.710
30058W        W91347  19.745   0.833  12.498
30059W        W91348  44.824   7.241  14.876
30060W        W91349  42.339   9.388   3.722
30061W        W91350  41.469  22.161   2.345
30062W        W91351  17.562  24.479   4.286
30063W        W91352  12.286  11.325  12.565
30064W        W91353  37.019  41.488  14.489
30065W        W91354   1.396  44.469   4.743
30066W        W91355   3.353  32.470   3.166
30067W        W91356  36.843  19.707   3.852
30068W        W91357  16.712   8.676   4.215
30069W        W91358   1.884  17.724   1.782
30070W        W91359   0.979   9.675  14.402
30071W        W91360  34.487  16.140  14.830
30072W        W91361  34.030   4.258   0.403
30073W        W91362  42.456  26.179   3.337
30074W        W91363  33.438  13.148  10.464
30075W        W91364   8.213  37.998  11.533
30076W        W91365  43.951  20.531   1.261
30077W        W91366  40.906  36.980   2.349
30078W        W91367   8.791  28.000  12.482
30079W        W91368  25.175  41.431  12.552
30080W        W91369  11.296  20.531  10.521
30081W        W91370  40.505  21.108   3.235
30082W        W91371  38.927  31.079   4.789
30083W        W91372  10.865  21.737  12.848
30084W        W91373  29.538  28.492   1.807
30085W        W91374  39.947  12.252  13.842
30086W        W91375  36.420  43.894   4.703
30087W        W91376  16.735  44.395  13.844
30088W        W91377  20.052  13.799   2.688
30089W        W91378   3.884  24.083   1.430
30090W        W91379  16.650  18.186   0.963
30091W        W91380  33.115  10.199   1.782
30092W        W91381  40.960  36.083  14.835
30093W        W91382   3.884   6.716   4.771
30094W        W91383  12.699   8.244   0.393
30095W        W91384  19.244  34.386   4.342
30096W        W91385   1.309  14.191   4.661
30097W        W91386   6.261  21.689   2.855
30098W        W91387  17.209  33.884   0.836
30099W        W91388  40.015  28.616  11.407
30100W        W91389  40.488  36.508   3.358
30101W        W91390  27.133  12.197  12.447
30102W        W91391  35.052  24.681   1.871
30103W        W91392   7.823  37.573   3.648
30104W        W91393   5.721  22.251   2.717
30105W        W91394  21.161  40.883   1.301
30106W        W91395  29.581  14.803   1.750
30107W        W91396  42.389  21.568   0.955
30108W        W91397   6.793  29.576  14.018
30109W        W91398  10.290  37.888  11.069
30110W        W91399  28.523   2.954  11.417
30111W        W91400  24.625   4.285  13.810
30112W        W91401  15.239  13.828   3.866
30113W        W91402  17.724  35.597   2.283
30114W        W91403  32.439   1.899  11.443
30115W        W91404  25.062   8.301  11.921
30116W        W91405   9.729  31.547   0.335
30117W        W91406  25.705  38.998   0.760
30118W        W91407  23.557  25.024   3.316
30119W        W91408  22.014  34.556   3.649
30120W        W91409  30.553  39.008  12.037
30121W        W91410  17.561  18.750   4.742
30122W        W91411  44.297  12.312  12.538
30123W        W91412  34.915   2.394   5.219
30124W        W91413  29.541  11.640   1.310
30125W        W91414  35.967  39.014  12.823
30126W        W91415  25.508  11.842  13.881
30127W        W91416   9.704  33.028  12.343
30128W        W91417  27.526  11.223   1.880
30129W        W91418  34.498  26.073   2.301
30130W        W91419  40.401  33.018  14.826
30131W        W91420   7.844  30.160   0.429
30132W        W91421  28.478  31.030  10.927
30133W        W91422  39.442  44.316   2.684
30134W        W91423  22.062  20.643  13.396
30135W        W91424  44.894  28.615  13.317
30136W        W91425   5.394  38.536   0.423
30137W        W91426  37.489  32.495   0.397
30138W        W91427  17.179  39.411  11.125
30139W        W91428  11.850   2.928  14.494
30140W        W91429  15.655  36.365  11.892
30141W        W91430  33.467  10.820   1.718
30142W        W91431  15.588  24.086   1.353
30143W        W91432   2.236  28.004   1.352
30144W        W91433  30.099  33.922  11.530
30145W        W91434   8.718  37.385   1.888
30146W        W91435   3.235  10.677   3.783
30147W        W91436  19.559  41.016   1.857
30148W        W91437  20.753  18.669   1.848
30149W        W91438  21.734  14.638   2.400
30150W        W91439  35.024   3.367   4.115
30151W        W91440  36.060  34.567   3.313
30152W        W91441   2.828  22.139   3.668
30153W        W91442  44.779   8.657  12.896
30154W        W91443  16.160  34.459   3.239
30155W        W91444  43.401  26.662  12.025
30156W        W91445  43.373  42.281   3.664
30157W        W91446  10.376   1.258   1.374
30158W        W91447  26.146  32.495  12.039
30159W        W91448  21.194  15.191  14.922
30160W        W91449   8.212   8.717   3.193
30161W        W91450  21.658  30.469  12.557
30162W        W91451  25.524  22.698  13.369
30163W        W91452  25.473   9.676  14.935
30164W        W91453  40.915  29.558   0.259
30165W        W91454  20.060  29.150   4.699
30166W        W91455  21.692  27.956   2.387
30167W        W91456  40.005  23.084   2.194
30168W        W91457  28.031  44.777  10.418
30169W        W91458   0.478  19.286   2.225
30170W        W91459  42.366  37.057  11.469
30171W        W91460   6.882  34.440  10.074
30172W        W91461  42.935   5.746  10.499
30173W        W91462  26.146  33.618   0.843
30174W        W91463  11.131  37.028   0.348
30175W        W91464  31.988   6.799   2.277
30176W        W91465   1.803  44.285   0.929
30177W        W91466  29.476  12.641   9.984
30178W        W91467  38.462  40.400  13.889
30179W        W91468  16.583   0.902  12.348
30180W        W91469  25.581  38.544   4.668
30181W        W91470  24.121  21.673  13.880
30182W        W91471  41.505  35.944   3.781
30183W        W91472  30.146  35.997   3.787
30184W        W91473   4.252   5.717  10.936
30185W        W91474  37.043  34.876  12.853
30186W        W91475  14.690  42.802   1.759
30187W        W91476  24.594  42.838  10.575
30188W        W91477   3.874   9.394  13.548
30189W        W91478  43.898  33.014  10.487
30190W        W91479  18.066  25.619  10.929
30191W        W91480  37.414  16.276   2.843
30192W        W91481   3.339  29.161   1.252
30193W        W91482  25.136  30.098  11.462
30194W        W91483   3.221   4.315   0.875
30195W        W91484   6.749   1.271   4.611
30196W        W91485  34.607   0.935   1.215
30197W        W91486  11.212  31.045  11.418
30198W        W91487   5.419  11.295   1.934
30199W        W91488  10.295  10.741  14.815
30200W        W91489  41.908  21.089   4.130
30201W        W91490   2.926   3.265  14.956
30202W        W91491  43.000  31.498  13.886
30203W        W91492  32.010   2.872   3.752
30204W        W91493  43.933  35.938  14.287
30205W        W91494   8.768   2.237   1.398
30206W        W91495  44.400  27.022   4.635
30207W        W91496   4.317  26.140   3.728
30208W        W91497  33.606  29.006   4.219
30209W        W91498  41.807  14.699  14.778
30210W        W91499  38.058  30.103   0.409
30211W        W91500  30.117  14.783   4.762
30212W        W91501  32.625  23.090  10.913
30213W        W91502   2.255   6.320   0.270
30214W        W91503   6.320   5.209   3.869
30215W        W91504  38.523  40.464   4.241
30216W        W91505  30.421  30.093  14.958
30217W        W91506  11.210  26.535   1.359
30218W        W91507  44.436   1.932  12.416
30219W        W91508  43.450  15.638   0.466
30220W        W91509  18.763  18.088   2.853
30221W        W91510   2.388   4.884   9.955
30222W        W91511  17.117   0.272   4.708
30223W        W91512  37.014  32.959   4.636
30224W        W91513  10.752  36.369   1.753
30225W        W91514  28.066  34.106  13.455
30226W        W91515  33.466  19.733   2.792
30227W        W91516  43.405  28.645  14.823
30228W        W91517   1.333  14.256  14.923
30229W        W91518   1.872   5.878   0.352
30230W        W91519   4.308  39.320   1.821
30231W        W91520  22.230   6.879  11.106
30232W        W91521  28.600  24.679   1.850
30233W        W91522  25.072   8.683   5.189
30234W        W91523  20.653  14.800   3.189
30235W        W91524  37.057  37.525   1.237
30236W        W91525   6.423  42.812   5.233
30237W        W91526  39.977   7.361   2.809
30238W        W91527  31.039  43.909  13.434
30239W        W91528  17.722   8.405   1.230
30240W        W91529   9.149  42.902   3.261
30241W        W91530   9.346   7.865  11.974
30242W        W91531  10.166   9.696  12.914
30243W        W91532  31.528   9.731   0.476
30244W        W91533  35.514  17.230  11.117
30245W        W91534  17.666  33.522   4.666
30246W        W91535  24.040  12.190  13.540
30247W        W91536  14.283  25.575   4.214
30248W        W91537  19.741   4.396  11.879
30249W        W91538   9.800  44.858  14.011
30250W        W91539  17.216  26.583  12.091
30251W        W91540   7.792  20.236   2.743
30252W        W91541   3.343  30.435   4.700
30253W        W91542  33.037  26.636  12.533
30254W        W91543  17.242  38.484  10.595
30255W        W91544  36.362  38.368   1.739
30256W        W91545  27.118  43.770   0.250
30257W        W91546  18.601  19.685   4.291
30258W        W91547  27.676  16.240  10.903
30259W        W91548  33.875  12.228  11.879
30260W        W91549  31.136  32.606   2.232
30261W        W91550  32.906  27.941   1.927
30262W        W91551  29.122  44.884   1.376
30263W        W91552  23.098  32.436  10.470
30264W        W91553  24.721   3.308   0.793
30265W        W91554  24.045  19.612  10.138
30266W        W91555   7.759  30.916  13.327
30267W        W91556  14.124  11.798   4.817
30268W        W91557  44.284   2.915  12.054
30269W        W91558  23.115  32.922  11.936
30270W        W91559   3.286   7.860  14.345
30271W        W91560   2.233  26.626  11.472
30272W        W91561  40.871  12.709  14.916
30273W        W91562   6.706  22.661   2.718
30274W        W91563  41.359  22.172   4.277
30275W        W91564  14.729   2.358   2.785
30276W        W91565  20.053  34.492  14.918
30277W        W91566   5.801   7.826  11.978
30278W        W91567  27.511   1.794   2.808
30279W        W91568  33.399  37.003   4.305
30280W        W91569  18.562   6.189  11.497
30281W        W91570  21.263  36.005  11.572
30282W        W91571  17.107  44.426   3.847
30283W        W91572  23.571   2.769  12.083
30284W        W91573  22.612  20.185   0.309
30285W        W91574  34.989   3.728   4.700
30286W        W91575  26.989  18.737  11.481
30287W        W91576  30.923  28.044   2.865
30288W        W91577  24.501  43.322   4.660
30289W        W91578  29.951  34.577  11.997
30290W        W91579  11.761   8.219   3.161
30291W        W91580  35.524  16.639   1.930
30292W        W91581  38.983  21.513  10.641
30293W        W91582  39.317  40.810   1.928
30294W        W91583  23.647  10.271  10.919
30295W        W91584  17.754  26.579   0.464
30296W        W91585  32.484  22.690   2.392
30297W        W91586  17.623  15.097  14.953
30298W        W91587  32.578  40.489   1.769
30299W        W91588  39.470  18.584  14.348
30300W        W91589  34.483  43.982   3.170
30301W        W91590  38.048  10.219  12.406
30302W        W91591  16.735  14.313   0.906
30303W        W91592   7.251  42.856  14.789
30304W        W91593  32.525  13.254   3.825
30305W        W91594  39.390  12.770  13.364
30306W        W91595  12.148   7.311  12.053
30307W        W91596  31.150   3.231  13.421
30308W        W91597  33.090   1.347  12.471
30309W        W91598   3.775  43.806   2.204
30310W        W91599  42.515   4.853   0.441
30311W        W91600  28.994  27.582   2.691
30312W        W91601   5.780  24.056  11.867
30313W        W91602  31.579  10.273   3.247
30314W        W91603   9.335  43.372  14.961
30315W        W91604  19.163  42.443   3.377
30316W        W91605  27.189  22.701   1.716
30317W        W91606  10.651  25.654   1.695
30318W        W91607  35.006  25.670  14.405
30319W        W91608  22.167   7.311  14.477
30320W        W91609   2.733  24.493  13.505
30321W        W91610  22.652   1.279   3.653
30322W        W91611  35.553   9.244  11.496
30323W        W91612  27.093   4.851  12.371
30324W        W91613  10.772   3.755  11.485
30325W        W91614  15.814  30.993  11.373
30326W        W91615   6.264  31.054  13.474
30327W        W91616  19.159   6.390   4.764
30328W        W91617  20.648  11.818   0.338
30329W        W91618  33.501  22.033  11.436
30330W        W91619  33.490   8.391  10.481
30331W        W91620   8.189   7.196  12.492
30332W        W91621  22.136  14.615  13.381
30333W        W91622  11.627  20.615   4.282
30334W        W91623  13.796  37.869  14.030
30335W        W91624  30.148   5.299  14.442
30336W        W91625  20.134   1.850   3.666
30337W        W91626  23.019  39.879   0.395
30338W        W91627  21.727   6.777   0.824
30339W        W91628  10.672   2.965   1.846
30340W        W91629  32.036  43.939   3.359
30341W        W91630  44.437  10.832   4.748
30342W        W91631  20.550   2.964  13.039
30343W        W91632   2.792  13.725   0.881
30344W        W91633  37.487  26.587   5.248
30345W        W91634  30.454   1.301   0.255
30346W        W91635   5.879  32.048  10.508
30347W        W91636  10.744   4.869  10.888
30348W        W91637   7.388   1.904   3.727
30349W        W91638  17.643  27.137  14.829
30350W        W91639  31.572  20.048   0.376
30351W        W91640  19.277   2.776   2.836
30352W        W91641   1.947  24.000  12.093
30353W        W91642   6.210  12.235   2.340
30354W        W91643  21.597  33.938   0.379
30355W        W91644  30.033  33.384  10.523
30356W        W91645   6.392  30.563   3.842
30357W        W91646  23.651  34.412   0.921
30358W        W91647  29.639  11.200   3.199
30359W        W91648  40.524   5.426  13.975
30360W        W91649  37.849   2.777   2.249
30361W        W91650  21.136  42.515  13.373
30362W        W91651  42.358  42.010   0.396
30363W        W91652  36.879  26.644  13.018
30364W        W91653  26.131  44.358   3.295
30365W        W91654  27.495  10.317   2.843
30366W        W91655  26.164  12.299   0.324
30367W        W91656  36.997  34.036   4.778
30368W        W91657  11.216   4.743   3.808
30369W        W91658   3.435   5.258  13.012
30370W        W91659  35.406  15.594  14.803
30371W        W91660  15.257   4.741   1.829
30372W        W91661  37.886  15.254  11.400
30373W        W91662  31.543  23.507  13.799
30374W        W91663   6.798  18.623  10.431
30375W        W91664  25.132   7.907   3.837
30376W        W91665   8.759  30.581  14.877
30377W        W91666  23.592  20.627   1.855
30378W        W91667   8.757  39.008  10.967
30379W        W91668  25.567  16.699   4.708
30380W        W91669  32.092  16.730  11.036
30381W        W91670   1.413  33.585  13.495
30382W        W91671  26.976   4.428  14.782
30383W        W91672  25.044  23.665  11.125
30384W        W91673   0.790  32.048   3.868
30385W        W91674   5.289  30.916   2.195
30386W        W91675  43.973  11.841  14.983
30387W        W91676  10.188  12.313   4.326
30388W        W91677  37.071  15.303  11.026
30389W        W91678  16.128  25.039   0.318
30390W        W91679  41.307  23.024   0.751
30391W        W91680  29.645  10.345  14.484
30392W        W91681  31.485  44.365  10.912
30393W        W91682  35.966  35.484   1.808
30394W        W91683  27.676  20.535  14.970
30395W        W91684  17.677  27.536   2.270
30396W        W91685  32.566   5.738   9.945
30397W        W91686  15.774   6.369  13.541
30398W        W91687  14.112  19.160   5.282
30399W        W91688  41.366  37.906  12.419
30400W        W91689  22.185   3.381  11.468
30401W        W91690  31.986   5.903   5.143
30402W        W91691  33.969   7.274   0.342
30403W        W91692  43.902  18.641  11.961
30404W        W91693  14.593  19.746   2.804
30405W        W91694  32.529   9.682  10.549
30406W        W91695   7.730  37.005   2.741
30407W        W91696   5.396  33.505   0.843
30408W        W91697   3.878  36.350  10.406
30409W        W91698  33.921   5.255   0.940
30410W        W91699   6.354  11.245  14.350
30411W        W91700  44.362  31.626  13.011
30412W        W91701   4.860  12.191  11.921
30413W        W91702   7.391  37.021  13.341
30414W        W91703  27.192  43.935   0.945
30415W        W91704  14.242  30.603   4.119
30416W        W91705   0.935   8.738  11.914
30417W        W91706  32.521  34.577  10.946
30418W        W91707  13.791   2.459  11.983
30419W        W91708  13.840  15.190   3.769
30420W        W91709  32.919  24.138  14.980
30421W        W91710   1.424   0.338  12.039
30422W        W91711  19.768  36.443   2.811
30423W        W91712   4.249   1.946   3.241
30424W        W91713  25.179  36.409   0.927
30425W        W91714  23.666  21.262  14.812
30426W        W91715  16.612  33.552   3.707
30427W        W91716  17.707  38.359   4.703
30428W        W91717   8.199   6.416   1.935
30429W        W91718  32.499  40.804   2.295
30430W        W91719   1.315  35.877   1.271
30431W        W91720  16.311  43.329   4.120
30432W        W91721   4.854  35.420  10.961
30433W        W91722  11.185   5.804  10.479
30434W        W91723  15.629  23.069   9.610
30435W        W91724  20.714  22.995   3.242
30436W        W91725  35.457  10.354  11.869
30437W        W91726   4.321  33.889  11.006
30438W        W91727  20.574   9.843  13.854
30439W        W91728  27.614  14.666  12.375
30440W        W91729  14.730   2.868   4.268
30441W        W91730  14.698  41.424  13.430
30442W        W91731  17.699  17.682  13.412
30443W        W91732  14.166  28.599   2.277
30444W        W91733   3.895   8.345   1.746
30445W        W91734  10.773   7.813  11.594
30446W        W91735   1.438  37.833  10.590
30447W        W91736   7.703   5.752  11.958
30448W        W91737  25.175   4.407   2.325
30449W        W91738  11.205  34.979  14.889
30450W        W91739  11.321  10.756   3.337
30451W        W91740  43.494  23.232  12.425
30452W        W91741  39.319  28.116   4.144
30453W        W91742  16.219  39.435  12.361
30454W        W91743  25.510   5.416  12.979
30455W        W91744  11.233  11.275   0.884
30456W        W91745  40.843  36.460   3.209
30457W        W91746  25.678   4.832   4.209
30458W        W91747  17.257  12.185   2.300
30459W        W91748  33.101  18.147  12.893
30460W        W91749  16.674  27.071  10.407
30461W        W91750  43.809  16.652  14.298
30462W        W91751   0.285  18.715  11.440
30463W        W91752  41.512   5.701   4.674
30464W        W91753  42.985  40.897   4.340
30465W        W91754  33.445  18.216   1.450
30466W        W91755  22.010  42.032   4.148
30467W        W91756  31.005  42.836   4.726
30468W        W91757  41.321  14.230  11.866
30469W        W91758  27.968  21.101   5.093
30470W        W91759   7.738   5.237   2.787
30471W        W91760   3.331   7.698  10.906
30472W        W91761  40.391  30.075  12.530
30473W        W91762  34.438   6.185  10.526
30474W        W91763  41.405  34.549  13.845
30475W        W91764  12.646  12.192  12.542
30476W        W91765  40.306  38.061   3.321
30477W        W91766  44.368   0.249   1.423
30478W        W91767  29.518  36.013   2.670
30479W        W91768   2.293  42.894   4.119
30480W        W91769   2.243  14.125  10.593
30481W        W91770  33.469  28.588  12.096
30482W        W91771  12.274  30.459   9.992
30483W        W91772  32.533  10.302   4.750
30484W        W91773   9.689  31.558   3.253
30485W        W91774   1.806   5.259   4.786
30486W        W91775   8.346  36.504   1.874
30487W        W91776  35.012   5.388  12.834
30488W        W91777   2.925  33.396   1.389
30489W        W91778  44.783  24.506   2.213
30490W        W91779  25.665  27.992  10.892
30491W        W91780   4.737  37.900  14.886
30492W        W91781  22.514  23.619  13.940
30493W        W91782   6.688  15.309   1.299
30494W        W91783  23.629  18.196   3.768
30495W        W91784  30.437  43.987  11.905
30496W        W91785   0.816  35.886  13.920
30497W        W91786  29.472  20.224   3.374
30498W        W91787  23.162  31.568   2.386
30499W        W91788  44.406   5.834   2.672
30500W        W91789  27.485  13.345   1.708
30501W        W91790   0.381   8.368   1.260
30502W        W91791   9.724  34.073  12.574
30503W        W91792   2.362   2.399  10.542
30504W        W91793  10.241  24.185   2.379
30505W        W91794   6.734  14.257  11.991
30506W        W91795  17.247  41.883   4.263
30507W        W91796  26.199  11.804   0.330
30508W        W91797  24.159  30.111   0.385
30509W        W91798   7.805  28.633  10.935
30510W        W91799   1.333   6.765   3.227
30511W        W91800   5.244  13.181  14.847
30512W        W91801   4.734   2.768  13.332
30513W        W91802  11.322   5.392  14.374
30514W        W91803  31.962  28.016   5.158
30515W        W91804  22.127   0.890   4.610
30516W        W91805  15.218  34.381   5.139
30517W        W91806  29.593   0.432   2.854
30518W        W91807  38.897  42.513  10.589
30519W        W91808  43.901   8.772   0.263
30520W        W91809   1.933  15.692  13.523
30521W        W91810  11.742  42.370  11.549
30522W        W91811  41.464  37.984   1.696
30523W        W91812  33.411   4.778  11.449
30524W        W91813  11.218  14.594   1.285
30525W        W91814  25.971   1.280   0.912
30526W        W91815  35.584  23.543  13.353
30527W        W91816  27.553  38.973  10.459
30528W        W91817   8.804  37.049   2.804
30529W        W91818  32.435  29.595   4.278
30530W        W91819   0.938  34.543   4.212
30531W        W91820  38.379  30.507   4.243
30532W        W91821   5.268  31.417  12.561
30533W        W91822   6.882  35.394  11.479
30534W        W91823  22.124  40.499  10.570
30535W        W91824  34.001  13.618  14.914
30536W        W91825  12.185  11.818   1.407
30537W        W91826  31.403  32.470  13.881
30538W        W91827  42.350  37.542  14.404
30539W        W91828  33.952   2.930  13.345
30540W        W91829  19.540  34.916  12.920
30541W        W91830  22.558   0.464  10.436
30542W        W91831  19.664  24.089   4.263
30543W        W91832  32.917  20.570  10.595
30544W        W91833  14.135  15.800   4.182
30545W        W91834  10.738   7.687  14.010
30546W        W91835  37.424  18.573   4.766
30547W        W91836  15.795   1.879  12.450
30548W        W91837  26.096   8.655  14.502
30549W        W91838  24.602   7.747  12.975
30550W        W91839  23.549  23.079   0.886
30551W        W91840  33.990  18.247   4.837
30552W        W91841  15.216  19.263   9.999
30553W        W91842  19.700  40.514   0.455
30554W        W91843  44.814  30.528  10.468
30555W        W91844  42.351  22.664   1.325
30556W        W91845  11.675  37.917   0.383
30557W        W91846  13.325  33.502  13.919
30558W        W91847  43.419  38.507  13.954
30559W        W91848  27.487  32.095   3.827
30560W        W91849  29.939  34.028  10.555
30561W        W91850   3.852  35.030   0.929
30562W        W91851  12.267  39.886   3.812
30563W        W91852  26.614  30.644   4.619
30564W        W91853  42.871   3.332  10.500
30565W        W91854  16.602  20.663   0.407
30566W        W91855   5.428  11.766  13.975
30567W        W91856  39.992  42.794  13.977
30568W        W91857  42.290  10.709  10.466
30569W        W91858   3.269  24.022   3.311
30570W        W91859  41.376   9.168  13.858
30571W        W91860  22.571   1.896   4.128
30572W        W91861  23.636  22.512  13.369
30573W        W91862  21.731   4.281   1.821
30574W        W91863  25.114  16.590   3.189
30575W        W91864  25.547  22.656  14.429
30576W        W91865  36.351  32.125  14.017
30577W        W91866  16.706   9.682  10.967
30578W        W91867  42.502  36.850  14.281
30579W        W91868  23.131   9.885   1.723
30580W        W91869  10.806  16.142  14.959
30581W        W91870  28.629  18.280   4.256
30582W        W91871  17.218  19.660   0.287
30583W        W91872  38.397  15.196  12.381
30584W        W91873  34.586  42.937   1.218
30585W        W91874  33.576  36.517   3.269
30586W        W91875  44.318   7.813  11.006
30587W        W91876  28.624  43.444   3.752
30588W        W91877  39.906   4.809   0.279
30589W        W91878  26.605  17.195   0.381
30590W        W91879  17.174  15.231  13.001
30591W        W91880  35.074   6.923   4.781
30592W        W91881  12.160  20.150  11.900
30593W        W91882  23.177  17.727  13.039
30594W        W91883   9.704  13.834   3.773
30595W        W91884  28.039  13.681   3.716
30596W        W91885  40.024  27.979   2.271
30597W        W91886  43.003  34.565   3.686
30598W        W91887  30.154   5.776   0.451
30599W        W91888  31.618  30.565   3.238
30600W        W91889   2.798  20.532   2.773
30601W        W91890  41.317  41.864  14.314
30602W        W91891  43.377   0.745  14.812
30603W        W91892  32.125  43.007   1.739
30604W        W91893  34.867   9.890   1.824
30605W        W91894  12.720  16.690  11.591
30606W        W91895   9.741  43.765  11.584
30607W        W91896   2.762  22.148   1.725
30608W        W91897  10.205  14.668   1.795
30609W        W91898   0.271  30.426   1.323
30610W        W91899  43.937  37.388  13.307
30611W        W91900  19.211   5.813  12.081
30612W        W91901  35.068  18.262  13.355
30613W        W91902  24.501  34.065   1.719
30614W        W91903  39.883  11.206   1.754
30615W        W91904  32.458  30.057  11.069
30616W        W91905  39.872  29.591  10.616
30617W        W91906   0.328  31.502  14.901
30618W        W91907  20.649  18.198  10.560
30619W        W91908  35.051  24.588  12.353
30620W        W91909  16.662  17.220  11.583
30621W        W91910  12.330  13.229   3.659
30622W        W91911   8.320  38.823  12.887
30623W        W91912  29.949  16.223   4.353
30624W        W91913  13.236  17.137   2.769
30625W        W91914  26.629  35.567  13.028
30626W        W91915   8.693   7.837   4.224
30627W        W91916  16.724  34.901  13.026
30628W        W91917   5.436  29.455   4.650
30629W        W91918  33.076   0.386   0.290
30630W        W91919  32.517  21.669  14.781
30631W        W91920  37.084  37.088   0.315
30632W        W91921  44.851  33.923  13.359
30633W        W91922   8.708  37.049   4.221
30634W        W91923  12.750  16.189  14.940
30635W        W91924  28.939  38.937   0.860
30636W        W91925  12.815  44.427   0.327
30637W        W91926  12.335   9.851   2.206
30638W        W91927   8.732   4.211   3.330
30639W        W91928  44.843   4.825   3.172
30640W        W91929  23.626  23.150  11.885
30641W        W91930  21.209  16.577  12.394
30642W        W91931  19.053   2.946   1.896
30643W        W91932  41.828  15.214  11.578
30644W        W91933   4.325  20.086  13.818
30645W        W91934   2.307  30.139   0.294
30646W        W91935  13.668  28.146   1.429
30647W        W91936  30.114  37.837   4.648
30648W        W91937  29.466   9.386  13.057
30649W        W91938  22.533  42.413   1.783
30650W        W91939   5.432  23.040   3.294
30651W        W91940  36.954   3.745  14.919
30652W        W91941  41.789  27.582   0.476
30653W        W91942  19.616  29.653  12.852
30654W        W91943  38.825  23.212  13.543
30655W        W91944  39.840  20.629  13.442
30656W        W91945  29.997  13.680  10.932
30657W        W91946   8.164   9.384  11.540
30658W        W91947  24.156  41.958  12.042
30659W        W91948  17.283  14.223   3.671
30660W        W91949  30.622   6.814   3.191
30661W        W91950  42.841  30.655   0.333
30662W        W91951  38.429   4.268  12.049
30663W        W91952   1.861  22.685  11.883
30664W        W91953   5.410  37.006   3.370
30665W        W91954  12.286   7.900   3.312
30666W        W91955  27.628   1.423  12.403
30667W        W91956  21.179   2.725  12.082
30668W        W91957  38.415  41.301   2.269
30669W        W91958  18.714  21.646   4.235
30670W        W91959  20.055   5.335   1.803
30671W        W91960   3.261  11.362   4.765
30672W        W91961  13.770  20.184   1.804
30673W        W91962  20.635  11.740   2.834
30674W        W91963   1.823  43.329  13.011
30675W        W91964   8.168  10.772  12.091
30676W        W91965  14.742  20.057  12.865
30677W        W91966  42.880  24.544   4.817
30678W        W91967  28.123  34.548  13.026
30679W        W91968  26.053  29.536  14.920
30680W        W91969  27.033   1.977   0.248
30681W        W91970   1.933   4.758   2.669
30682W        W91971   4.735  44.971   0.311
30683W        W91972  18.212  20.681  10.579
30684W        W91973  22.631  15.704  10.901
30685W        W91974  10.288  10.638   2.212
30686W        W91975  18.621  29.652   4.829
30687W        W91976  23.716  18.293  14.985
30688W        W91977  41.900   6.805  12.499
30689W        W91978  14.717   2.941   1.738
30690W        W91979  31.982  26.522   4.819
30691W        W91980   7.376  25.610   0.400
30692W        W91981   0.852  12.168   9.997
30693W        W91982  39.373  44.309  10.450
30694W        W91983  16.800  36.588   0.280
30695W        W91984  15.214   1.758   5.125
30696W        W91985  25.088   0.823  14.394
30697W        W91986  44.824  21.213   3.704
30698W        W91987  14.677  43.360   2.187
30699W        W91988  29.998  20.644   0.826
30700W        W91989  44.947  31.038   3.806
30701W        W91990   5.196  17.141   4.186
30702W        W91991  23.239  14.697  10.526
30703W        W91992  32.996  37.969  12.859
30704W        W91993  13.664   9.779  12.918
30705W        W91994  26.957   7.792  11.530
30706W        W91995  38.509  30.033  13.536
30707W        W91996  26.987  14.295   0.307
30708W        W91997   6.849   1.411   4.293
30709W        W91998  19.248  11.639   4.619
30710W        W91999   4.366  16.620   3.688
30711W        W92000   4.248  20.601  11.094
30712W        W92001  23.736   6.896  11.545
30713W        W92002  44.965  14.618   1.278
30714W        W92003  21.023  34.511  10.127
30715W        W92004  44.813  22.513  14.488
30716W        W92005   2.317   8.243   1.933
30717W        W92006  38.342  23.199  13.003
30718W        W92007  22.613  24.604   1.234
30719W        W92008  34.535  23.571  14.286
30720W        W92009  29.513  12.619   4.316
30721W        W92010  32.954  40.479   3.282
30722W        W92011  30.923   9.264  11.429
30723W        W92012  35.555  17.216   0.803
30724W        W92013  44.796   9.183  11.419
30725W        W92014  32.929  39.836  10.631
30726W        W92015  20.525  20.551   4.124
30727W        W92016  39.026  40.437   3.751
30728W        W92017  23.034  35.501  11.862
30729W        W92018   2.338  32.573  14.281
30730W        W92019   7.820  13.319  14.829
30731W        W92020  40.516  18.217  12.885
30732W        W92021   9.832  34.040  12.933
30733W        W92022  22.035  22.707  10.948
30734W        W92023  17.253  35.942   3.669
30735W        W92024  20.759  38.867  14.021
30736W        W92025  41.838  20.642  14.763
30737W        W92026  31.903  36.572   5.194
30738W        W92027  18.790  27.104   0.326
30739W        W92028  44.430  29.079   0.250
30740W        W92029  35.570  17.577  13.858
30741W        W92030   2.263  20.267   4.746
30742W        W92031  10.846  32.026  14.340
30743W        W92032  22.701  44.797  12.023
30744W        W92033   3.841  33.894   4.665
30745W        W92034  34.561  27.982   3.757
30746W        W92035   9.275  18.709   1.768
30747W        W92036  19.735  16.742   2.734
30748W        W92037   4.269  21.567   1.400
30749W        W92038   7.829  34.906  14.958
30750W        W92039   8.733   5.205   3.152
30751W        W92040  41.388  21.693  13.512
30752W        W92041  11.196  21.721   4.644
30753W        W92042  34.004  26.978   4.673
30754W        W92043  11.345   2.334  14.959
30755W        W92044  29.057  40.041   2.250
30756W        W92045  26.973   8.803  13.337
30757W        W92046  28.949  44.270   2.289
30758W        W92047  35.562  30.052   2.671
30759W        W92048  23.662   8.310   3.801
30760W        W92049  33.437  11.730  14.982
30761W        W92050  27.096  12.155  13.908
30762W        W92051  20.053  38.558  13.064
30763W        W92052  10.656   2.892  12.573
30764W        W92053  44.866  29.030  14.296
30765W        W92054  43.406  39.509  13.920
30766W        W92055  22.997  20.731   3.355
30767W        W92056  35.398  44.962   0.744
30768W        W92057  44.806  20.087  11.972
30769W        W92058  36.437   9.158  12.505
30770W        W92059   6.727  20.159  11.487
30771W        W92060  10.810  11.718  14.771
30772W        W92061  17.138  35.087  13.051
30773W        W92062  40.435   6.816   4.640
30774W        W92063  24.651  23.516   0.478
30775W        W92064  23.725  34.867   0.828
30776W        W92065  13.810  41.422   3.380
30777W        W92066  26.974  14.298  11.015
30778W        W92067  32.591  27.024  11.061
30779W        W92068  40.970  24.007  12.397
30780W        W92069  13.274  30.515   3.793
30781W        W92070  33.034   1.396   0.325
30782W        W92071  26.552  34.607   4.680
30783W        W92072  33.540  16.794   3.338
30784W        W92073   5.906  13.677   3.794
30785W        W92074  35.085  11.264  10.131
30786W        W92075  23.163  16.769   1.306
30787W        W92076  37.456  23.088  14.995
30788W        W92077   4.349  26.038  13.810
30789W        W92078  14.643  35.529   5.156
30790W        W92079  14.274  11.847  14.879
30791W        W92080   1.439  33.023  12.504
30792W        W92081   8.667  19.140   1.721
30793W        W92082  29.664   7.817   1.773
30794W        W92083  33.876  42.020   0.472
30795W        W92084  40.931  44.996   0.386
30796W        W92085   9.303  28.469   2.402
30797W        W92086  29.108  35.074   4.246
30798W        W92087  19.626  23.703   0.941
30799W        W92088  38.872  30.607   5.310
30800W        W92089  35.089  41.440   4.216
30801W        W92090   6.392   9.199   2.316
30802W        W92091  19.225  24.582   0.457
30803W        W92092  34.086  43.821   3.332
30804W        W92093  17.789  41.800   3.340
30805W        W92094  32.518  13.127   2.366
30806W        W92095  38.905  21.255  14.478
30807W        W92096  37.056  11.326   0.451
30808W        W92097  17.111   1.889  13.463
30809W        W92098   5.922  23.523  14.347
30810W        W92099  25.534  10.740  14.850
30811W        W92100   1.939  14.648  12.572
30812W        W92101  28.566  37.016   1.217
30813W        W92102   6.784  11.692  13.963
30814W        W92103  35.885  34.466   1.308
30815W        W92104  23.239  25.076   0.296
30816W        W92105  11.866  17.705  11.437
30817W        W92106  22.636   0.483   0.820
30818W        W92107  30.428   5.350  12.883
30819W        W92108  17.213  21.179   0.878
30820W        W92109  33.942  41.850   2.725
30821W        W92110  10.157  29.126   5.162
30822W        W92111  27.961  13.207   2.872
30823W        W92112  44.975  42.311  13.308
30824W        W92113  39.997  12.719   3.361
30825W        W92114  15.814  19.248   5.310
30826W        W92115  24.581   4.791   3.380
30827W        W92116  31.568  42.406   1.701
30828W        W92117  29.090  29.496  13.866
30829W        W92118  21.186  30.607   4.292
30830W        W92119  12.833  30.469   0.966
30831W        W92120  41.894  36.572  13.502
30832W        W92121  18.175  28.647  11.059
30833W        W92122  28.553   7.833   3.751
30834W        W92123  29.519  16.672   0.853
30835W        W92124   6.775  36.890  11.117
30836W        W92125   9.652   9.171  11.856
30837W        W92126  41.029   0.275   1.843
30838W        W92127  32.016  28.458   4.323
30839W        W92128  36.348  11.865  12.537
30840W        W92129  32.115  16.627  14.013
30841W        W92130  40.447  24.606  12.418
30842W        W92131  28.449  12.742   4.285
30843W        W92132   7.296   8.751   0.734
30844W        W92133  24.515   3.437  12.545
30845W        W92134  42.394   4.374   2.662
30846W        W92135  14.222   0.846  13.891
30847W        W92136   2.869   7.798   3.227
30848W        W92137   4.709  12.301   1.223
30849W        W92138  18.609   0.439   0.412
30850W        W92139  35.397  24.135  14.957
30851W        W92140  38.982  16.658  12.471
30852W        W92141   1.279  36.957   2.761
30853W        W92142  35.468  37.512   3.365
30854W        W92143  21.526  15.786  13.312
30855W        W92144  37.027  42.520   0.732
30856W        W92145  11.629  16.307  14.516
30857W        W92146  37.834   6.221   0.825
30858W        W92147  24.516  16.575   4.315
30859W        W92148  14.252  29.041   2.411
30860W        W92149  12.681   1.377  14.390
30861W        W92150  20.728  40.050  13.059
30862W        W92151  29.632   0.449  11.047
30863W        W92152  10.314  27.059  11.956
30864W        W92153  22.027   0.817   1.281
30865W        W92154  38.513  21.707   4.196
30866W        W92155   2.292  40.329   0.384
30867W        W92156  40.045  40.871   2.209
30868W        W92157   0.856  43.385   0.833
30869W        W92158  13.215  33.008   2.719
30870W        W92159  27.447  14.152  12.870
30871W        W92160  36.506   0.319  14.379
30872W        W92161  31.993  31.587   4.646
30873W        W92162  26.674  39.512  10.529
30874W        W92163  23.715  17.570  14.917
30875W        W92164   2.941  21.719  10.927
30876W        W92165  40.026  10.291  14.351
30877W        W92166  10.244   3.409   0.276
30878W        W92167  21.059  32.595  13.370
30879W        W92168  32.092   0.415  12.945
30880W        W92169  44.283  28.182  11.605
30881W        W92170   1.274   1.283   2.413
30882W        W92171  26.066  19.142  12.450
30883W        W92172  11.295  21.076   1.238
30884W        W92173  23.234  21.602  11.888
30885W        W92174   0.919   4.376  10.561
30886W        W92175  39.950  34.956  12.549
30887W        W92176  26.471  43.427   3.790
30888W        W92177  15.226  16.615   0.806
30889W        W92178   2.772   1.764  12.580
30890W        W92179  37.531   7.802   2.684
30891W        W92180  24.630  32.053   0.291
30892W        W92181  21.675  34.996  11.577
30893W        W92182   5.428  31.127   3.701
30894W        W92183  30.497  28.136  11.540
30895W        W92184  15.329  43.497  14.855
30896W        W92185   8.741   9.646  11.502
30897W        W92186  39.869  40.334  12.422
30898W        W92187   7.379   7.250   2.405
30899W        W92188  34.939  41.919   0.422
30900W        W92189  25.119   3.764   3.866
30901W        W92190  10.788  23.081   2.690
30902W        W92191  12.344  32.499   4.207
30903W        W92192  20.095   3.332   1.219
30904W        W92193  20.707  23.204  12.474
30905W        W92194   3.353  21.571  11.938
30906W        W92195  27.977  24.522   3.282
30907W        W92196  42.861  34.379   4.160
30908W        W92197   1.758   5.784   2.300
30909W        W92198  26.554  11.674  11.541
30910W        W92199   4.939  28.580  11.604
30911W        W92200  22.076  28.162  10.978
30912W        W92201  11.146   1.418   1.396
30913W        W92202  22.714   8.235   4.769
30914W        W92203  34.076  14.817   4.708
30915W        W92204   2.885  17.120   4.732
30916W        W92205  22.093   9.387  12.044
30917W        W92206  29.926  28.053  11.583
30918W        W92207  40.417  40.832  12.984
30919W        W92208  12.145  29.085   3.633
30920W        W92209   9.828  35.946   1.712
30921W        W92210  23.529  32.992   0.361
30922W        W92211  35.564  25.174   3.317
30923W        W92212  34.389  39.926  12.879
30924W        W92213  28.973  33.433  12.376
30925W        W92214  18.074  42.466  10.535
30926W        W92215  12.635  16.077  11.895
30927W        W92216  30.915  26.578  11.975
30928W        W92217   5.417  33.007  13.909
30929W        W92218  34.100  23.993  10.593
30930W        W92219  23.523  21.610  11.592
30931W        W92220  13.801  17.760  11.496
30932W        W92221  39.844  14.241  14.361
30933W        W92222  38.553  42.920  13.939
30934W        W92223  28.016  16.100   3.689
30935W        W92224  28.648  17.728   2.363
30936W        W92225  24.182  39.937   4.237
30937W        W92226   0.355  43.467   1.249
30938W        W92227  26.643   3.384  10.029
30939W        W92228  23.636  11.281  11.453
30940W        W92229  34.097   2.249   3.670
30941W        W92230  36.909  42.790   4.645
30942W        W92231  40.954  22.172  13.974
30943W        W92232  12.171  16.161  13.442
30944W        W92233   5.277  10.210  12.401
30945W        W92234  16.153  40.925   3.252
30946W        W92235  11.703   2.334   1.440
30947W        W92236  14.727   2.405   1.415
30948W        W92237  28.122   4.712  13.400
30949W        W92238   3.942  37.377  13.513
30950W        W92239  27.547  17.170   0.430
30951W        W92240  34.045  33.434   2.365
30952W        W92241  17.254  21.583   1.809
30953W        W92242   3.267  40.860  10.907
30954W        W92243  25.104  43.312  12.467
30955W        W92244  10.269  11.770  10.577
30956W        W92245  33.026  43.889  14.847
30957W        W92246  41.477  12.713   3.832
30958W        W92247  25.616  43.287   2.704
30959W        W92248  30.104   2.916   9.453
30960W        W92249  30.945  23.095  12.353
30961W        W92250  13.767  42.480  13.420
30962W        W92251  17.629  26.056  11.480
30963W        W92252  21.663  28.670   0.789
30964W        W92253  18.179  43.501   0.351
30965W        W92254  21.746  33.113   4.159
30966W        W92255  17.734  36.923   2.816
30967W        W92256  26.646  23.491  14.834
30968W        W92257   6.784  25.471  11.001
30969W        W92258  18.233  37.975   1.240
30970W        W92259   4.306  37.015   4.197
30971W        W92260  28.513  20.572   0.259
30972W        W92261  25.554  33.455  12.435
30973W        W92262  28.469  43.335   3.358
30974W        W92263   3.927  42.338  14.026
30975W        W92264  30.125   1.919   2.748
30976W        W92265   5.394  41.506   4.699
30977W        W92266  30.918   7.889   1.840
30978W        W92267   2.402  14.331  10.070
30979W        W92268   9.237   0.398   3.196
30980W        W92269  36.857   3.843   1.343
30981W        W92270  32.561   3.424   3.213
30982W        W92271  30.051  41.446   0.755
30983W        W92272   5.804   3.942  13.972
30984W        W92273  15.323  39.415   0.336
30985W        W92274   4.782  38.909  13.967
30986W        W92275   2.832  21.036   4.811
30987W        W92276  27.645  37.920  10.988
30988W        W92277  23.096  33.906  13.908
30989W        W92278  12.355  42.450  14.780
30990W        W92279  30.447  28.499   4.241
30991W        W92280   8.336   4.421  13.376
30992W        W92281  34.112  38.823  12.004
30993W        W92282   8.290  12.133  11.947
30994W        W92283   6.237  11.715   1.238
30995W        W92284  21.154  31.048   3.841
30996W        W92285  26.968  33.088   0.454
30997W        W92286  18.545  33.927   4.726
30998W        W92287  43.999   4.816  12.496
30999W        W92288  32.407  26.512   4.698
31000W        W92289  19.537  23.002   1.210
31001W        W92290   7.783   7.784  12.880
31002W        W92291  16.120  40.925   9.972
31003W        W92292  44.308  11.139   1.225
31004W        W92293  13.255  25.519   0.243
31005W        W92294   0.810  10.846  14.008
31006W        W92295  13.314  34.564   4.231
31007W        W92296  20.230  21.120   3.279
31008W        W92297  38.449  43.929  13.315
31009W        W92298  21.073  16.656  12.954
31010W        W92299  16.775  43.302  13.038
31011W        W92300  20.034   3.308  14.852
31012W        W92301  22.157  19.718   2.311
31013W        W92302   3.292   2.404  12.398
31014W        W92303  40.946   7.227  10.487
31015W        W92304  22.170  28.116  11.397
31016W        W92305  17.674  42.893   1.756
31017W        W92306   6.682   2.349   4.609
31018W        W92307  15.667  15.786  11.581
31019W        W92308   6.225   6.729   1.426
31020W        W92309  12.188  16.075  10.991
31021W        W92310  22.090  41.417  12.412
31022W        W92311   7.910  24.708   2.390
31023W        W92312  12.284  23.174   0.475
31024W        W92313  18.116  41.483   4.826
31025W        W92314   9.272  43.978  14.842
31026W        W92315   0.294  33.039  12.499
31027W        W92316  27.995  43.452   1.412
31028W        W92317  44.803   7.269   4.620
31029W        W92318  42.299  42.454   4.151
31030W        W92319  44.902   9.659   3.217
31031W        W92320  11.341   7.674  12.530
31032W        W92321   1.243  12.307   4.637
31033W        W92322  23.644  33.523   1.902
31034W        W92323  26.185   2.412  14.922
31035W        W92324  28.051  35.415   0.310
31036W        W92325  13.698  41.793  11.992
31037W        W92326  33.922  24.103   4.152
31038W        W92327  16.752  41.338  13.442
31039W        W92328  15.749  32.939   4.736
31040W        W92329  21.642   2.283   0.948
31041W        W92330  34.571   5.766  14.826
31042W        W92331  28.574  24.670  11.486
31043W        W92332  34.907  20.551  10.614
31044W        W92333  43.848  38.932  13.490
31045W        W92334  18.051  43.765   3.195
31046W        W92335  34.615  19.101  10.583
31047W        W92336  34.052  39.336  13.990
31048W        W92337  20.763  26.978  14.397
31049W        W92338  40.348  24.551  11.946
31050W        W92339  41.457  27.142   4.226
31051W        W92340  11.373   0.437  13.867
31052W        W92341  16.808  19.081   0.286
31053W        W92342  37.042  34.497   4.743
31054W        W92343   6.739  12.832   2.280
31055W        W92344  23.011  13.743   1.817
31056W        W92345   7.818  25.140  14.842
31057W        W92346  31.489  26.112   4.661
31058W        W92347  32.635  13.122   4.251
31059W        W92348  38.863  37.503   4.793
31060W        W92349  33.933  20.244   3.807
31061W        W92350  36.502  24.160   1.386
31062W        W92351   3.717  36.451  12.416
31063W        W92352  28.004  12.683  11.110
31064W        W92353  15.155  10.648  12.010
31065W        W92354  12.801  31.427  11.857
31066W        W92355  17.604   6.692  10.944
31067W        W92356  17.279   3.940   2.344
31068W        W92357  30.104  10.680   3.827
31069W        W92358   1.421   8.164  10.135
31070W        W92359  24.664  15.131  11.566
31071W        W92360  30.986  38.872  12.947
31072W        W92361   2.245   8.792  14.506
31073W        W92362  32.548   7.910  12.532
31074W        W92363  25.520  39.491   0.954
31075W        W92364  43.390  24.097   2.690
31076W        W92365  19.149  37.531  11.549
31077W        W92366  13.759   4.940  12.878
31078W        W92367  17.194  37.831  14.031
31079W        W92368  13.313  17.562  13.519
31080W        W92369  35.895  26.564  10.890
31081W        W92370  25.594  17.151   2.756
31082W        W92371  24.987  22.607  10.583
31083W        W92372   8.242  10.816  13.537
31084W        W92373  28.502  31.947   2.661
31085W        W92374  25.541   2.763  12.988
31086W        W92375  30.460  31.463  13.998
31087W        W92376  34.599   2.309   2.700
31088W        W92377  34.435  31.612   1.215
31089W        W92378  18.637  28.096   0.899
31090W        W92379  35.443  42.314   0.344
31091W        W92380  37.036  20.532   9.949
31092W        W92381  40.448  21.064   3.748
31093W        W92382  43.334  36.871  10.422
31094W        W92383  37.063  44.428  14.476
31095W        W92384   8.825  15.780   4.781
31096W        W92385  37.057  21.699  13.893
31097W        W92386  39.399  33.395   4.319
31098W        W92387  17.635  22.531  11.404
31099W        W92388   8.188  32.522   0.822
31100W        W92389  41.027  23.716   3.364
31101W        W92390  30.909  18.563   4.631
31102W        W92391  20.565  42.862  11.996
31103W        W92392  25.649  34.534   0.806
31104W        W92393  32.964  27.654   1.429
31105W        W92394   2.298  23.005  12.344
31106W        W92395  24.183  12.726  14.495
31107W        W92396  30.590   6.322   2.323
31108W        W92397  40.039   8.876   3.225
31109W        W92398  24.504  19.257   1.736
31110W        W92399  24.590  11.772  14.439
31111W        W92400   5.342  27.112  11.416
31112W        W92401   5.784  22.671  11.085
31113W        W92402  44.446  26.207   3.292
31114W        W92403  11.765  41.790  10.943
31115W        W92404   0.404  39.062   1.305
31116W        W92405   6.320  33.965  14.846
31117W        W92406  43.328  39.329  13.062
31118W        W92407  35.902  40.426   1.694
31119W        W92408  21.214  32.590   4.142
31120W        W92409  33.108  23.490   2.721
31121W        W92410   5.902  42.474  14.952
31122W        W92411   4.767  22.734  11.952
31123W        W92412  42.015  27.605  12.396
31124W        W92413   9.157  10.276   1.362
31125W        W92414   5.736  36.449   4.755
31126W        W92415  32.486  25.575  11.054
31127W        W92416  27.995  29.450  11.067
31128W        W92417  30.159  40.981   3.766
31129W        W92418  34.471  23.227   3.861
31130W        W92419  31.974   8.822  11.048
31131W        W92420  13.326  18.772   3.248
31132W        W92421  15.325  38.045  13.524
31133W        W92422  23.188  42.952   2.734
31134W        W92423   8.888  27.632  10.575
31135W        W92424  34.566   3.348  11.919
31136W        W92425  28.101  44.850   2.712
31137W        W92426  21.512  41.811   4.640
31138W        W92427  33.928  20.245  13.815
31139W        W92428  33.471  27.642  12.082
31140W        W92429  42.409  42.826   3.182
31141W        W92430  17.682  38.342  13.308
31142W        W92431  19.737  24.680  11.482
31143W        W92432  39.449   1.777   1.843
31144W        W92433   8.731  18.151   2.317
31145W        W92434  26.515  32.141  10.612
31146W        W92435  29.142  37.353  11.509
31147W        W92436   6.322  25.655  12.449
31148W        W92437  25.180  19.578   4.741
31149W        W92438  21.263  29.057  11.558
31150W        W92439  27.592   5.828  12.496
31151W        W92440  27.032  42.020  11.410
31152W        W92441  30.584  19.703  10.930
31153W        W92442  41.041  32.530   0.869
31154W        W92443  11.325  20.620  11.039
31155W        W92444  11.765   9.367  14.963
31156W        W92445   8.372  22.527  14.024
31157W        W92446  20.589  22.595  11.413
31158W        W92447   2.733   5.691   0.803
31159W        W92448  34.407  32.073  11.549
31160W        W92449   7.817  35.576  10.500
31161W        W92450  44.299  21.029  14.791
31162W        W92451   2.746  14.789   1.357
31163W        W92452  27.663  32.539   0.397
31164W        W92453  40.868  10.646  12.927
31165W        W92454  19.068  21.262   0.864
31166W        W92455  24.229  38.881   1.267
31167W        W92456   3.831  35.577  10.917
31168W        W92457  20.721  37.451   0.406
31169W        W92458  30.035  23.070   0.927
31170W        W92459  35.958  38.971  11.554
31171W        W92460   6.393  10.837  14.374
31172W        W92461   4.880  20.137   1.897
31173W        W92462   2.947  37.519   3.759
31174W        W92463  28.983   6.679  11.571
31175W        W92464  21.143  33.381   2.747
31176W        W92465   0.430  35.903   1.316
31177W        W92466  23.091  42.923  10.456
31178W        W92467  34.894  34.986  10.983
31179W        W92468  39.839   5.893   2.747
31180W        W92469  39.317  10.662  11.936
31181W        W92470   0.768   1.285   1.349
31182W        W92471  41.365  28.162   1.851
31183W        W92472  20.080  32.078  12.552
31184W        W92473  22.251  17.555   1.405
31185W        W92474  30.490   8.867  10.452
31186W        W92475  29.436   1.472  14.461
31187W        W92476  14.125  11.159   0.893
31188W        W92477  35.410  43.333  14.310
31189W        W92478   3.878  37.923  12.919
31190W        W92479  22.211  18.247   0.398
31191W        W92480  31.897  39.525  11.015
31192W        W92481  38.498  39.044  10.412
31193W        W92482   7.260  11.350  12.017
31194W        W92483   4.799  29.961  14.384
31195W        W92484  36.550  30.047  14.489
31196W        W92485   6.338  37.496   3.767
31197W        W92486  23.671  27.527   4.117
31198W        W92487   5.392  41.332  12.574
31199W        W92488  18.170  12.321  13.473
31200W        W92489  16.209  24.682   3.796
31201W        W92490  30.518   3.395  14.799
31202W        W92491  14.608   4.421   2.837
31203W        W92492  19.110  22.241   4.718
31204W        W92493  16.081  13.825  11.596
31205W        W92494  44.760  25.534  14.968
31206W        W92495   1.806  31.562  12.464
31207W        W92496   1.276   2.909   1.328
31208W        W92497  26.664  31.506  10.494
31209W        W92498  15.631  10.279   3.749
31210W        W92499  12.261  18.136  14.369
31211W        W92500   1.779   5.854  12.455
31212W        W92501  10.759  13.145  10.516
31213W        W92502  14.804   1.824  12.094
31214W        W92503  15.730  36.079   1.428
31215W        W92504  23.988   2.384   0.247
31216W        W92505  21.587  36.037  12.476
31217W        W92506  31.611  34.573   2.699
31218W        W92507   2.775  44.953   1.425
31219W        W92508   9.836  27.124  13.540
31220W        W92509  23.559  13.627   0.430
31221W        W92510  18.620  26.560  14.321
31222W        W92511  27.658  21.589  10.458
31223W        W92512  18.659  38.430   3.842
31224W        W92513  17.747  15.796   2.778
31225W        W92514   2.727  29.579   4.699
31226W        W92515   7.273   5.235   4.671
31227W        W92516  13.767  41.505   2.392
31228W        W92517  25.104   9.270  13.838
31229W        W92518  29.990  33.586   3.683
31230W        W92519  14.159   7.219  12.397
31231W        W92520  43.844  44.367  12.415
31232W        W92521  22.142   8.253   0.272
31233W        W92522  27.636  38.820  14.513
31234W        W92523  29.998  16.759   2.387
31235W        W92524  26.667  13.156   2.241
31236W        W92525  19.767   2.347   2.358
31237W        W92526  17.305   1.931  12.542
31238W        W92527  35.493  10.225   4.154
31239W        W92528  40.988  42.800  14.798
31240W        W92529   5.263  17.606  11.547
31241W        W92530   8.765  35.887   2.323
31242W        W92531  39.524  23.695   3.289
31243W        W92532  38.433  16.170  14.318
31244W        W92533  25.600  32.093  13.881
31245W        W92534  40.913  37.846   2.247
31246W        W92535   0.339  32.002   4.805
31247W        W92536  22.546  24.073  13.324
31248W        W92537  22.044   8.307   1.751
31249W        W92538  18.590  24.679  10.437
31250W        W92539  31.482  43.381  14.477
31251W        W92540  22.663  31.025   4.337
31252W        W92541  28.165   9.213  11.453
31253W        W92542  21.116  10.804  13.914
31254W        W92543   4.218   9.369   4.161
31255W        W92544  44.974  13.785  13.882
31256W        W92545   0.821   8.182  10.460
31257W        W92546  23.602   2.372  12.393
31258W        W92547   4.793   9.872  13.391
31259W        W92548   7.262   7.354  12.980
31260W        W92549   8.870   3.371  13.360
31261W        W92550  13.226   3.285  13.482
31262W        W92551  28.675  12.785  14.943
31263W        W92552  12.751  25.084  11.448
31264W        W92553  10.253  40.322  10.408
31265W        W92554  12.297   9.830  13.547
31266W        W92555  27.045  22.207  11.435
31267W        W92556   6.424  10.709   3.846
31268W        W92557  30.916  43.381  13.045
31269W        W92558  22.736  14.657   4.759
31270W        W92559   6.396   4.417  14.351
31271W        W92560  12.685  33.540  14.848
31272W        W92561  44.421  30.126   2.735
31273W        W92562  13.131  43.437   1.219
31274W        W92563  24.011  33.506  12.044
31275W        W92564  19.146   8.195   4.187
31276W        W92565   1.975   5.809  10.902
31277W        W92566   9.743   8.289   2.295
31278W        W92567  32.450   1.297   3.832
31279W        W92568  31.548  20.171   2.897
31280W        W92569   3.221  16.263  11.536
31281W        W92570   1.797  17.121  13.999
31282W        W92571   5.383   9.305  10.452
31283W        W92572   8.267   6.917  10.442
31284W        W92573   3.321  31.634  13.926
31285W        W92574  18.182  14.258  13.338
31286W        W92575  15.773  26.513   4.261
31287W        W92576  21.038  20.033   1.227
31288W        W92577  26.003  18.580   4.660
31289W        W92578   5.291  30.600  12.516
31290W        W92579  26.164   7.866   4.251
31291W        W92580  32.480  26.529  13.423
31292W        W92581  39.899   1.301  10.945
31293W        W92582  21.154   5.275  11.451
31294W        W92583  32.130  23.148  10.938
31295W        W92584  34.418  40.429  14.932
31296W        W92585   5.880   0.454  12.973
31297W        W92586  36.999  21.665   4.152
31298W        W92587  21.222  24.071  11.111
31299W        W92588  22.525  30.121   2.726
31300W        W92589   0.817  17.062   4.115
31301W        W92590  38.828  35.498  12.033
31302W        W92591  41.298  32.943  12.413
31303W        W92592  25.493  28.940  12.358
31304W        W92593   6.192  33.949   2.697
31305W        W92594  22.036  25.971   0.916
31306W        W92595  15.654   2.431   4.159
31307W        W92596  28.666  33.619   2.261
31308W        W92597  20.687  23.590   2.768
31309W        W92598  41.897  21.246   2.412
31310W        W92599   6.293  31.105  14.797
31311W        W92600  12.167  39.985   1.248
31312W        W92601  38.958  22.144   0.736
31313W        W92602  23.213  13.842  13.905
31314W        W92603  28.580  33.121  11.456
31315W        W92604  24.091  31.033  11.117
31316W        W92605  25.674  32.003  14.777
31317W        W92606   4.712   9.298   4.809
31318W        W92607  35.864  22.636  10.981
31319W        W92608  40.798   8.325  10.502
31320W        W92609   1.243  35.048  13.348
31321W        W92610  41.345  24.226   4.747
31322W        W92611  29.110   5.420   1.878
31323W        W92612  18.788  31.015   1.905
31324W        W92613  38.900   2.397  10.491
31325W        W92614  12.749  44.383   2.266
31326W        W92615  43.914  17.730  14.405
31327W        W92616  18.549  13.300   3.753
31328W        W92617  18.128  13.655   2.346
31329W        W92618  19.067  10.145  13.401
31330W        W92619   7.911  34.455   3.215
31331W        W92620  11.159   3.859  14.910
31332W        W92621  42.815   5.809  14.790
31333W        W92622  31.592  41.432  10.943
31334W        W92623  29.433   4.937   3.351
31335W        W92624  11.737  35.887   3.817
31336W        W92625  16.668  40.938  12.011
31337W        W92626   5.781  19.136   3.350
31338W        W92627  15.110   6.763  12.031
31339W        W92628  40.380   0.916  12.441
31340W        W92629  18.123   0.248   2.215
31341W        W92630  13.732  25.075  10.413
31342W        W92631  34.503  34.011   4.718
31343W        W92632  33.055  19.586  13.832
31344W        W92633  32.452  25.492  12.859
31345W        W92634  41.475  29.956   4.157
31346W        W92635  16.731  14.772  12.390
31347W        W92636  44.443   6.260   4.747
31348W        W92637  28.153  25.981   1.728
31349W        W92638  16.627   0.762   0.908
31350W        W92639  16.697  14.120   4.304
31351W        W92640  41.438  24.037  12.035
31352W        W92641  22.218  25.590   2.382
31353W        W92642  11.721  29.165  14.848
31354W        W92643  33.113  23.083   1.916
31355W        W92644  39.817  24.481  12.462
31356W        W92645  39.965   1.738  10.461
31357W        W92646  21.696   7.230  12.030
31358W        W92647  24.012  19.056   1.443
31359W        W92648  10.680  19.126  12.440
31360W        W92649  34.898  21.653   1.797
31361W        W92650  23.608  23.660  13.467
31362W        W92651  21.110   9.221   3.773
31363W        W92652  39.448   5.771  14.836
31364W        W92653   4.216   9.202  12.010
31365W        W92654  15.306  25.986  14.373
31366W        W92655   5.920  41.530   4.210
31367W        W92656  15.241  16.585   3.846
31368W        W92657  42.934  14.592  13.336
31369W        W92658  28.970  30.926   1.214
31370W        W92659  42.319  38.043  13.935
31371W        W92660   7.707  37.461   4.249
31372W        W92661  34.614  15.623  11.985
31373W        W92662   7.314  44.823  14.276
31374W        W92663   4.875  20.707  12.524
31375W        W92664  35.417  36.940   4.256
31376W        W92665  22.637  35.376  11.589
31377W        W92666  39.988  23.010  14.405
31378W        W92667  43.963   9.694  11.564
31379W        W92668  32.499  37.558  10.995
31380W        W92669   7.843  19.212  13.478
31381W        W92670  18.575  17.082  13.391
31382W        W92671  13.199   3.798  11.885
31383W        W92672  12.177  27.588   2.844
31384W        W92673  18.071  44.490   0.909
31385W        W92674  11.844  43.409  13.400
31386W        W92675  28.086  26.473  14.341
31387W        W92676   2.256   6.409   2.840
31388W        W92677  12.119  13.237   4.795
31389W        W92678  42.942   6.400  12.415
31390W        W92679   0.750  43.345  13.548
31391W        W92680  19.617  24.060  13.351
31392W        W92681   0.398   0.274   2.873
31393W        W92682  39.994  39.319   3.670
31394W        W92683   1.790  26.533   2.692
31395W        W92684  22.639   7.195  12.923
31396W        W92685   6.716  24.056   1.239
31397W        W92686  39.965   6.382  10.563
31398W        W92687  32.409  43.898  13.966
31399W        W92688  29.608  16.788  10.417
31400W        W92689  35.443   6.807  14.031
31401W        W92690  37.885  37.562  11.495
31402W        W92691  41.457   3.800   1.770
31403W        W92692  26.630  42.027  11.055
31404W        W92693  28.567  28.058   2.348
31405W        W92694  13.606  37.422   0.830
31406W        W92695  33.597   9.746   1.819
31407W        W92696  30.565  30.006   1.777
31408W        W92697  17.124   9.826   4.746
31409W        W92698   3.430  22.222   9.978
31410W        W92699  15.602   0.862   2.794
31411W        W92700  42.384  33.986   0.906
31412W        W92701   0.475  12.800   2.757
31413W        W92702  27.132   6.731  12.860
31414W        W92703  21.664  32.394   3.757
31415W        W92704  28.154   8.291   2.711
31416W        W92705  27.011  37.066   0.446
31417W        W92706  22.695  10.722  12.976
31418W        W92707   5.930  44.462  14.506
31419W        W92708  22.996   4.817  12.391
31420W        W92709   1.339  22.538   2.816
31421W        W92710  22.053  15.632  13.543
31422W        W92711  32.897  24.077   1.816
31423W        W92712  30.487  18.563  13.805
31424W        W92713  26.702  35.869   4.346
31425W        W92714  19.750   6.814   2.680
31426W        W92715  44.484  13.217   4.776
31427W        W92716  28.963  15.107  13.053
31428W        W92717  34.905   3.262   2.384
31429W        W92718  13.295  13.605  12.854
31430W        W92719   1.372  27.180   3.701
31431W        W92720   7.387  10.673  10.996
31432W        W92721  33.590  25.611   1.288
31433W        W92722  11.334  10.334   1.707
31434W        W92723  32.434  10.868   1.343
31435W        W92724  42.840  39.521   0.362
31436W        W92725  43.323  44.432  12.857
31437W        W92726  26.471  19.254   3.770
31438W        W92727  22.246  36.584  10.919
31439W        W92728  43.397  30.430  14.341
31440W        W92729  27.965  43.777  11.954
31441W        W92730  29.152  42.998  10.514
31442W        W92731  14.198  26.628   2.370
31443W        W92732  23.539   3.299  12.536
31444W        W92733  37.438  26.577   0.370
31445W        W92734  26.081   3.866   3.636
31446W        W92735  18.287  43.456  10.438
31447W        W92736   0.454  10.274  12.039
31448W        W92737  34.099   4.913   2.878
31449W        W92738  16.232  30.914   0.273
31450W        W92739  33.386   5.337   3.660
31451W        W92740  35.414  44.494   3.259
31452W        W92741  39.840  17.632  13.354
31453W        W92742  19.743  35.502  14.950
31454W        W92743   8.204  21.701  11.478
31455W        W92744  22.620  15.247   3.723
31456W        W92745   9.824   3.296  11.897
31457W        W92746  29.127  15.658  14.961
31458W        W92747  29.081  39.869   3.330
31459W        W92748   0.759  42.441  13.800
31460W        W92749  19.543  27.150  10.619
31461W        W92750   1.747  20.698   1.735
31462W        W92751   1.482  38.944   4.693
31463W        W92752  18.190  35.017   0.356
31464W        W92753  42.022  40.321  14.965
31465W        W92754  10.305  43.774  14.797
31466W        W92755   3.417   5.352   2.771
31467W        W92756  31.923  27.621  10.952
31468W        W92757  30.456  24.136  14.976
31469W        W92758  20.233  11.643   3.722
31470W        W92759  35.077  42.488   1.389
31471W        W92760  30.909  19.042   1.254
31472W        W92761  27.974  43.021   1.881
31473W        W92762  20.153   8.237  14.008
31474W        W92763  39.487  31.969   2.379
31475W        W92764   4.845  35.066   3.662
31476W        W92765  35.445  42.319  11.875
31477W        W92766  42.009  24.056   3.804
31478W        W92767   6.202   8.821   5.218
31479W        W92768  25.193   5.384  13.037
31480W        W92769   9.830  11.833   4.763
31481W        W92770  23.538   5.848   0.380
31482W        W92771  36.555  22.162  12.556
31483W        W92772  35.575  34.933  13.832
31484W        W92773  41.446  23.641  10.537
31485W        W92774  38.337   2.861   4.260
31486W        W92775  33.952  12.848  11.064
31487W        W92776  35.092  24.995  13.815
31488W        W92777  30.462  33.998  13.028
31489W        W92778  29.944  41.437   1.378
31490W        W92779  10.149  12.289  11.413
31491W        W92780  16.651  44.877  12.083
31492W        W92781   2.845  10.720   3.706
31493W        W92782  33.521  16.717   1.734
31494W        W92783  18.123  37.847  14.362
31495W        W92784  39.387  16.636   2.262
31496W        W92785  10.805   2.245   0.862
31497W        W92786  42.871  28.537  13.990
31498W        W92787  37.834  38.931  11.904
31499W        W92788   5.343  22.650   4.241
31500W        W92789   4.944   0.445  14.275
31501W        W92790  34.593   0.492  12.377
31502W        W92791   1.353  11.132  13.430
31503W        W92792  17.286  37.571   2.695
31504W        W92793   0.333   5.917   0.268
31505W        W92794  39.062   9.172  12.496
31506W        W92795  22.145  36.451   1.729
31507W        W92796  13.629  33.556  14.475
31508W        W92797   3.782  27.538  10.460
31509W        W92798  19.715  22.036  13.864
31510W        W92799  41.396  28.060  11.406
31511W        W92800  36.516   2.948  12.015
31512W        W92801  33.113  16.699  12.363
31513W        W92802  16.250  42.969   3.362
31514W        W92803  43.949  25.643   3.275
31515W        W92804  30.154  37.416   2.855
31516W        W92805  37.866  16.205   4.797
31517W        W92806  17.069  21.678   0.954
31518W        W92807   8.221  41.962   0.388
31519W        W92808  20.201  16.740  14.890
31520W        W92809  13.105  30.522   0.359
31521W        W92810   8.740   3.795  14.358
31522W        W92811  41.515  39.897   0.325
31523W        W92812  15.306  44.905  13.886
31524W        W92813  41.976  13.777   0.748
31525W        W92814   6.288  15.726   4.205
31526W        W92815  27.960   6.886   5.294
31527W        W92816  39.923  18.130   3.197
31528W        W92817  35.923  27.654   1.801
31529W        W92818  31.564  16.575   0.332
31530W        W92819   5.854  20.766  14.831
31531W        W92820  37.979  14.643  12.471
31532W        W92821  43.419  41.532  10.485
31533W        W92822   1.958  41.518  12.980
31534W        W92823  11.215   9.824   1.437
31535W        W92824   3.854   8.396   0.426
31536W        W92825   1.765  17.237  11.882
31537W        W92826  38.822  16.171  13.544
31538W        W92827  21.030   0.810   2.793
31539W        W92828  29.599  19.158  13.458
31540W        W92829  25.185   3.794  12.928
31541W        W92830  13.792  23.710  12.518
31542W        W92831  19.049  26.975   1.917
31543W        W92832  37.397  30.442   3.745
31544W        W92833  36.023  34.504  10.430
31545W        W92834  31.042  43.402  10.524
31546W        W92835  26.172  23.120   0.372
31547W        W92836  20.634  13.286  11.516
31548W        W92837  19.065  32.934   4.173
31549W        W92838   8.819   0.474   0.895
31550W        W92839   9.791  36.863   2.700
31551W        W92840  21.225  14.108  11.434
31552W        W92841   7.271  24.611   3.693
31553W        W92842   9.357   9.391   1.783
31554W        W92843   3.835  32.588   0.962
31555W        W92844  28.444  26.044   2.664
31556W        W92845  20.266   0.456   3.248
31557W        W92846  30.432  42.865   2.827
31558W        W92847  29.554  19.551  10.067
31559W        W92848  18.056  35.994  10.447
31560W        W92849   5.813  27.099  14.351
31561W        W92850  15.207  35.992   4.723
31562W        W92851   5.756  22.149  10.468
31563W        W92852   6.687  28.181   3.749
31564W        W92853  25.185  17.631  14.910
31565W        W92854  39.378  20.224  10.037
31566W        W92855   7.846  15.150   3.751
31567W        W92856  44.436  36.896  14.331
31568W        W92857   3.947  43.318   0.787
31569W        W92858  10.310  22.667   2.211
31570W        W92859  29.098   5.206  10.558
31571W        W92860   8.758   2.402   5.185
31572W        W92861   9.852  25.621  10.557
31573W        W92862  15.756  33.416   0.315
31574W        W92863  40.470  27.019  10.437
31575W        W92864  10.766   6.694   3.658
31576W        W92865  17.769  20.253  14.962
31577W        W92866   1.804  44.921  10.927
31578W        W92867  21.721  12.125  11.375
31579W        W92868  19.250  20.155  12.579
31580W        W92869  13.632  29.597  13.943
31581W        W92870  31.442  18.595   3.763
31582W        W92871  14.317  23.990   3.356
31583W        W92872   1.465   4.793   0.476
31584W        W92873  16.747   8.404  13.385
31585W        W92874  30.546  23.049   1.244
31586W        W92875  16.586   5.859   3.711
31587W        W92876  15.745   5.779  10.082
31588W        W92877   5.196  43.945  11.081
31589W        W92878  29.640   5.312   0.300
31590W        W92879   0.834  25.508  12.445
31591W        W92880  24.226   6.814   4.240
31592W        W92881  41.848  22.685  10.482
31593W        W92882  27.060  23.206  12.382
31594W        W92883  12.253   6.729   3.691
31595W        W92884  25.157   7.803   4.307
31596W        W92885   3.443  41.477   4.191
31597W        W92886  14.822  38.387   0.910
31598W        W92887  34.495  38.415  12.082
31599W        W92888  41.949  24.591  12.925
31600W        W92889  28.669   0.345   2.849
31601W        W92890   8.774  42.827  12.381
31602W        W92891  29.120  42.456   4.223
31603W        W92892   3.912  39.813  12.872
31604W        W92893   9.661  27.607   2.755
31605W        W92894  32.425  32.994  14.892
31606W        W92895  27.525  28.544  11.861
31607W        W92896   6.725  35.457   3.267
31608W        W92897  38.034  21.230  10.026
31609W        W92898  40.890  34.892  11.503
31610W        W92899   2.816  33.974  12.368
31611W        W92900  32.420  37.933  10.908
31612W        W92901  25.710   6.813   4.731
31613W        W92902  20.654  12.296  12.089
31614W        W92903  37.564  36.527  13.327
31615W        W92904  39.045  20.216   2.395
31616W        W92905  16.765  27.169   0.386
31617W        W92906  27.534   6.193  11.377
31618W        W92907  11.757  28.020  10.483
31619W        W92908  44.916  38.906   2.896
31620W        W92909  24.644  37.031   4.188
31621W        W92910  16.238  19.773   4.352
31622W        W92911  24.978  25.168  13.977
31623W        W92912  17.670  17.716   3.149
31624W        W92913  19.228   9.826  12.993
31625W        W92914  13.672  42.936   2.233
31626W        W92915  40.037  43.004   2.819
31627W        W92916  25.175   6.870  13.050
31628W        W92917  22.538  28.178  13.843
31629W        W92918  33.012  29.098  11.940
31630W        W92919  30.924  41.432  13.468
31631W        W92920  43.278  11.299   0.787
31632W        W92921  43.335  44.475   4.209
31633W        W92922  35.884   4.220   1.330
31634W        W92923  39.064  14.741   1.443
31635W        W92924  34.996  44.875   3.864
31636W        W92925   5.264  37.448  12.928
31637W        W92926  19.778  22.087  13.312
31638W        W92927  27.000   2.840   4.289
31639W        W92928  21.724  39.008   1.441
31640W        W92929  25.042  20.689   5.711
31641W        W92930   5.225  35.055  13.509
31642W        W92931  23.596  11.771   4.707
31643W        W92932  28.567  36.845  10.457
31644W        W92933  38.966  26.551   0.371
31645W        W92934  33.874  25.988  12.355
31646W        W92935  11.307  26.037  14.512
31647W        W92936  20.119  35.590   2.857
31648W        W92937  40.052  11.207  14.947
31649W        W92938   3.934   2.308  14.029
31650W        W92939  29.634   8.877   2.214
31651W        W92940  43.979  12.232  10.978
31652W        W92941   2.244  42.491   3.661
31653W        W92942   7.711  44.277   4.825
31654W        W92943   9.772  31.540  14.797
31655W        W92944  19.238  17.659  11.491
31656W        W92945  21.249  40.965  14.883
31657W        W92946  29.030  11.642   2.834
31658W        W92947   9.377  35.416   4.825
31659W        W92948  30.071  34.415   0.328
31660W        W92949  26.991  21.585   4.625
31661W        W92950   7.802  38.934   3.795
31662W        W92951  21.115  24.143  13.350
31663W        W92952  22.522  27.462   0.758
31664W        W92953   0.288  30.034  10.411
31665W        W92954   4.235   1.928  14.433
31666W        W92955  15.659  11.252  11.375
31667W        W92956  41.420   8.702   2.680
31668W        W92957   1.266  11.845   2.860
31669W        W92958  41.895   8.775   5.751
31670W        W92959   6.259  16.140   2.362
31671W        W92960  30.468  25.126   1.425
31672W        W92961  28.600  33.877  11.108
31673W        W92962  22.123   5.833   3.358
31674W        W92963  36.440  36.022   3.808
31675W        W92964   1.441  30.995  14.354
31676W        W92965  35.086  28.638  11.476
31677W        W92966  35.603   5.908  14.295
31678W        W92967   2.866  16.765   4.299
31679W        W92968  28.055  36.873   0.365
31680W        W92969  34.863  35.898  12.379
31681W        W92970  26.547  15.250   4.671
31682W        W92971  43.277  35.021   4.222
31683W        W92972  40.022  19.741   4.167
31684W        W92973  20.147  38.831  12.934
31685W        W92974   8.829  12.760  12.889
31686W        W92975  24.983  31.103   4.190
31687W        W92976  25.002  29.035  11.966
31688W        W92977  12.804   6.813  12.074
31689W        W92978  27.041   5.316   4.307
31690W        W92979  12.164  44.801   3.735
31691W        W92980   9.354  36.886  13.039
31692W        W92981  27.113   6.330   3.654
31693W        W92982  37.551  32.480  10.913
31694W        W92983  42.412  16.736  11.062
31695W        W92984  12.317  24.127  10.612
31696W        W92985  43.007  21.101  10.551
31697W        W92986   8.772  20.555  13.882
31698W        W92987  30.055  26.689   2.264
31699W        W92988   9.761   9.810   0.901
31700W        W92989  44.313  43.938  14.955
31701W        W92990   3.455   5.435  11.593
31702W        W92991  24.604  22.502  12.550
31703W        W92992   1.317  33.565  12.087
31704W        W92993  13.348   5.219  14.955
31705W        W92994   5.722  25.632  10.099
31706W        W92995  27.082   2.447   1.234
31707W        W92996   5.828   1.316  11.567
31708W        W92997  10.840   4.826  12.921
31709W        W92998   3.823  34.906  12.970
31710W        W92999   7.772  23.033   3.790
31711W        W93000  22.208  40.808  14.464
31712W        W93001  42.408  41.313   3.372
31713W        W93002   4.837  42.345   0.777
31714W        W93003  27.448  23.147   1.263
31715W        W93004   3.925  39.844   4.634
31716W        W93005  35.521  12.287   2.369
31717W        W93006  29.432  20.559  11.484
31718W        W93007  35.372  40.463   0.377
31719W        W93008  28.498  19.227  11.609
31720W        W93009  43.396  36.498   3.340
31721W        W93010  43.888  31.416   1.891
31722W        W93011  20.566  38.515   2.676
31723W        W93012  35.893   0.847  14.919
31724W        W93013  34.036  25.663  14.501
31725W        W93014   0.357  13.800   1.288
31726W        W93015  26.043  33.998  14.031
31727W        W93016  14.714  10.762   3.273
31728W        W93017  19.121  38.389  10.423
31729W        W93018  20.558  13.348  10.441
31730W        W93019  15.578  30.422  11.513
31731W        W93020  14.590   4.736  12.045
31732W        W93021  24.116  18.727   2.410
31733W        W93022   9.356  17.638   4.810
31734W        W93023  33.049  21.752   4.775
31735W        W93024  15.255  17.781  13.526
31736W        W93025  31.024  43.384  14.847
31737W        W93026  41.951  42.828  13.056
31738W        W93027  16.709  29.964   0.467
31739W        W93028  10.684  33.965   5.171
31740W        W93029  17.682   6.704   3.678
31741W        W93030   4.726   0.810  13.523
31742W        W93031  28.656  18.709   2.357
31743W        W93032  16.778  41.415   2.867
31744W        W93033  13.685  30.526  10.545
31745W        W93034   3.884  38.464   4.284
31746W        W93035   8.185  40.913  11.515
31747W        W93036   4.390  19.131  10.900
31748W        W93037   4.323  35.554   3.778
31749W        W93038  16.730  22.716  14.009
31750W        W93039  16.215  26.981  13.848
31751W        W93040  27.481  43.424  14.820
31752W        W93041  31.515  39.027  12.831
31753W        W93042  11.677  18.265  11.976
31754W        W93043  22.535   5.411  14.831
31755W        W93044  40.043   8.680  10.423
31756W        W93045   4.916  17.198   2.259
31757W        W93046   3.297  42.859   2.215
31758W        W93047  32.892  15.738   0.750
31759W        W93048  12.833  32.085  14.285
31760W        W93049  30.059  12.673  12.572
31761W        W93050   1.871  20.764  13.370
31762W        W93051  27.471  22.072   4.754
31763W        W93052  36.857  13.145   0.788
31764W        W93053  33.913  13.319   1.877
31765W        W93054   7.229  18.111  14.440
31766W        W93055  41.505  33.422   2.887
31767W        W93056  29.060  12.336  12.445
31768W        W93057  14.638   8.160   2.768
31769W        W93058  19.701   1.819  11.918
31770W        W93059  20.083  40.537  14.432
31771W        W93060   7.261  29.647  10.987
31772W        W93061  16.099  39.337  10.890
31773W        W93062   2.274  26.503   2.683
31774W        W93063   8.840  21.568  10.611
31775W        W93064   5.280  28.637   4.599
31776W        W93065  36.969  44.457   0.834
31777W        W93066   9.764  16.671   2.347
31778W        W93067   9.663  37.971   1.351
31779W        W93068  33.063  36.466  12.032
31780W        W93069  23.113  33.019   0.484
31781W        W93070   1.483  41.037   4.660
31782W        W93071  39.840   1.361   0.891
31783W        W93072  33.043   2.827  12.918
31784W        W93073  41.517   0.298   0.352
31785W        W93074  27.015  16.073  12.010
31786W        W93075  27.542   7.388  13.390
31787W        W93076  37.394  14.802  10.939
31788W        W93077  26.699   5.399   4.180
31789W        W93078  12.811  22.146  10.479
31790W        W93079  40.948  29.074  12.053
31791W        W93080  33.599  33.093   2.323
31792W        W93081   3.766  17.796   0.390
31793W        W93082   7.765  17.773   4.658
31794W        W93083  10.218  21.046   2.773
31795W        W93084   5.728  12.656  12.465
31796W        W93085   3.915  28.443   2.362
31797W        W93086  19.718  36.057   0.349
31798W        W93087  41.864  27.490   4.228
31799W        W93088  35.062   9.265   3.261
31800W        W93089  24.499   7.834  14.892
31801W        W93090  39.396  36.374  14.024
31802W        W93091  18.784  10.372  10.632
31803W        W93092  41.950  34.968  11.059
31804W        W93093  33.545  37.830   5.082
31805W        W93094  13.178  38.462  12.567
31806W        W93095   1.288  16.121   3.777
31807W        W93096   2.278  32.395  13.320
31808W        W93097   0.921  13.780  12.482
31809W        W93098  41.375  33.432  13.941
31810W        W93099  24.169  19.575  10.907
31811W        W93100  30.572   1.244   1.882
31812W        W93101  30.994   7.325   0.787
31813W        W93102  11.357  17.293  13.830
31814W        W93103  14.743   2.272  12.502
31815W        W93104  36.521   0.364  12.956
31816W        W93105  10.290  36.546   3.253
31817W        W93106  29.541  13.829  14.302
31818W        W93107   5.841   6.303  10.493
31819W        W93108  23.132  21.137  12.857
31820W        W93109   0.781  21.128  10.037
31821W        W93110  28.561  42.370  10.567
31822W        W93111   8.373   2.963   4.246
31823W        W93112  22.721  18.734  10.524
31824W        W93113  24.548  14.171  10.955
31825W        W93114  41.480  15.234   4.704
31826W        W93115   6.819   7.883  10.985
31827W        W93116  35.890   1.815  11.963
31828W        W93117  42.983  15.199   4.241
31829W        W93118  29.124   7.208  13.815
31830W        W93119  15.102  44.462   4.212
31831W        W93120  13.257  19.644  10.594
31832W        W93121  33.604  41.902   4.281
31833W        W93122  18.685  26.575   5.137
31834W        W93123  23.667  12.309  13.891
31835W        W93124  10.304  32.543  11.493
31836W        W93125   5.718   1.452   3.374
31837W        W93126   0.955  41.820   1.899
31838W        W93127   7.197  40.853  12.462
31839W        W93128  14.717  23.132  12.832
31840W        W93129  26.146  16.194   2.675
31841W        W93130  36.985  28.147  14.784
31842W        W93131  34.977  11.238  14.296
31843W        W93132  13.316  23.161   2.411
31844W        W93133   2.908  42.907  12.075
31845W        W93134  17.751  18.279  12.441
31846W        W93135   6.863  30.585  13.914
31847W        W93136   7.833  44.479   5.193
31848W        W93137  38.072  41.866  13.791
31849W        W93138   9.391   0.269   1.293
31850W        W93139  24.683  33.933   1.252
31851W        W93140  14.682  40.814   1.824
31852W        W93141  15.772   7.901   1.248
31853W        W93142  44.359  16.318  14.000
31854W        W93143  27.104   0.931   0.860
31855W        W93144  42.816  24.129   1.224
31856W        W93145  40.812  35.386   3.638
31857W        W93146  32.008  29.565   1.441
31858W        W93147  11.137  15.642  14.501
31859W        W93148  32.539  39.937   4.688
31860W        W93149  38.981  32.575  14.784
31861W        W93150  43.013   4.228  14.312
31862W        W93151  32.402  18.548  13.367
31863W        W93152  41.315  25.708  14.303
31864W        W93153   4.912  31.470  14.988
31865W        W93154   0.468  28.579  11.087
31866W        W93155   3.230  18.127   0.272
31867W        W93156  30.659  32.016  13.340
31868W        W93157  10.791  40.461   1.829
31869W        W93158  13.714  20.684   9.665
31870W        W93159  38.901   0.265  10.108
31871W        W93160   4.715  24.030  14.860
31872W        W93161   4.366  26.099  10.553
31873W        W93162   4.775   2.937  10.973
31874W        W93163  16.809  20.047   0.247
31875W        W93164  21.241  38.820  14.998
31876W        W93165   5.730  16.636  12.456
31877W        W93166  33.067  38.977  11.430
31878W        W93167  21.055  44.467   1.275
31879W        W93168  17.087   9.748  14.347
31880W        W93169  13.739  42.779  14.314
31881W        W93170  35.003  40.438  14.396
31882W        W93171  15.245  40.891   2.359
31883W        W93172  43.986  37.457   4.756
31884W        W93173  38.921   7.265   0.732
31885W        W93174   4.906  13.269  10.994
31886W        W93175  13.178   0.752   3.233
31887W        W93176  39.023   4.237  10.489
31888W        W93177  14.732  23.146  11.539
31889W        W93178  20.158  42.825   4.668
31890W        W93179  26.673  33.013   2.732
31891W        W93180  23.062  39.859  12.508
31892W        W93181   3.327  36.887   3.147
31893W        W93182  33.434   4.290   0.271
31894W        W93183  17.071  12.723  13.485
31895W        W93184  21.208  37.957  13.009
31896W        W93185  21.632  15.180   0.763
31897W        W93186  15.095   0.785   1.773
31898W        W93187  18.573  33.544  11.462
31899W        W93188  14.285  20.213  11.044
31900W        W93189  27.020  42.439  11.437
31901W        W93190   9.329  22.653   2.267
31902W        W93191  36.360   4.225  10.602
31903W        W93192  32.061  12.815  11.882
31904W        W93193  30.640  34.515   3.683
31905W        W93194  23.105  42.470   4.236
31906W        W93195  23.535  20.525  12.437
31907W        W93196  37.507  31.034   4.659
31908W        W93197   4.371  17.241  10.958
31909W        W93198   5.240  40.893  14.950
31910W        W93199  10.199  32.903  11.071
31911W        W93200  34.928  36.554   2.214
31912W        W93201  25.096  25.593  13.409
31913W        W93202   4.699  19.065   0.457
31914W        W93203  18.614  29.162  13.890
31915W        W93204  28.089   0.872  12.880
31916W        W93205  38.340   1.363  10.482
31917W        W93206  33.998  14.658  13.364
31918W        W93207  30.620  22.689  14.940
31919W        W93208  43.942   9.838   1.220
31920W        W93209  36.377  26.474  13.450
31921W        W93210  18.728   3.256   1.723
31922W        W93211  12.838  33.476   4.783
31923W        W93212  10.161   2.377  10.610
31924W        W93213  41.494  33.003   3.647
31925W        W93214  28.024   7.384   2.717
31926W        W93215  11.628  33.902  11.495
31927W        W93216   1.434  37.905   2.769
31928W        W93217  44.949  24.508  14.910
31929W        W93218  32.990  43.275  14.821
31930W        W93219   2.355  27.025   1.246
31931W        W93220  28.971  21.656   2.881
31932W        W93221  31.132  14.690   1.405
31933W        W93222  29.992  20.147  13.425
31934W        W93223  31.476   7.269   4.119
31935W        W93224  34.034   5.838  10.917
31936W        W93225  20.569  30.934   3.638
31937W        W93226  38.500  13.208   4.337
31938W        W93227  32.086  31.975   1.396
31939W        W93228  11.660  19.745  11.995
31940W        W93229  28.962  25.601  11.943
31941W        W93230  15.316  34.931  13.446
31942W        W93231  39.945  33.447  12.049
31943W        W93232   6.256  22.088  10.071
31944W        W93233  37.377  38.070   4.635
31945W        W93234  24.654  42.474  12.836
31946W        W93235  43.442  15.707  12.860
31947W        W93236   6.900  37.949   0.916
31948W        W93237  35.442  32.113  12.430
31949W        W93238  38.511  30.960  13.930
31950W        W93239  38.484  16.230   4.735
31951W        W93240  19.055  22.193  14.795
31952W        W93241  33.059  37.380  12.066
31953W        W93242  18.757  34.935  12.468
31954W        W93243  21.651  16.694  10.547
31955W        W93244  11.355  20.710   0.766
31956W        W93245  44.859  42.817   4.234
31957W        W93246  14.820  12.162  13.908
31958W        W93247  15.099  30.067   4.140
31959W        W93248  24.113  32.542   1.334
31960W        W93249  29.979  43.900  13.950
31961W        W93250  25.104  11.735   2.303
31962W        W93251  19.208   0.929   3.234
31963W        W93252  39.474  18.721   5.671
31964W        W93253  18.711   2.427  13.858
31965W        W93254  40.914  39.006  13.461
31966W        W93255  21.105  21.565   1.399
31967W        W93256  41.849   8.303  10.013
31968W        W93257  22.234   2.452   4.218
31969W        W93258  35.388  27.090  13.446
31970W        W93259  42.959   5.869   3.676
31971W        W93260  22.636   5.395  10.582
31972W        W93261  12.219  39.836   1.861
31973W        W93262  18.284   5.270   1.871
31974W        W93263  35.933  23.681   1.228
31975W        W93264  15.674   3.382  11.418
31976W        W93265  18.707  16.791   1.834
31977W        W93266  32.475  10.365   0.373
31978W        W93267  29.512  29.554   0.915
31979W        W93268  41.944  13.695  14.759
31980W        W93269  37.069  37.974  13.054
31981W        W93270  36.421  25.144   5.280
31982W        W93271  33.439  37.083  10.890
31983W        W93272  42.947   3.883  12.844
31984W        W93273   3.289  43.901   1.794
31985W        W93274   8.339   3.804   3.664
31986W        W93275  22.149   1.909  11.946
31987W        W93276  12.242  22.027   0.833
31988W        W93277  25.962  40.486  13.524
31989W        W93278   7.714  30.539   3.373
31990W        W93279  39.851  41.395   1.424
31991W        W93280  39.060  28.118   0.955
31992W        W93281  39.401  32.582  13.312
31993W        W93282   8.391   4.278  13.949
31994W        W93283  17.244   6.395   2.884
31995W        W93284   0.390  40.004   4.288
31996W        W93285   1.299  37.902   4.121
31997W        W93286  40.858  14.284   1.230
31998W        W93287  24.723   1.281   0.291
31999W        W93288  39.465  14.797  12.443
32000W        W93289  42.285  24.988  12.945
32001W        W93290   5.731  36.530   3.863
32002W        W93291  39.852   1.362   0.362
32003W        W93292   7.709  43.484   4.351
32004W        W93293  23.621  16.298  11.384
32005W        W93294  42.825   7.837   0.939
32006W        W93295  14.690   2.893  12.389
32007W        W93296  20.254  14.689   3.698
32008W        W93297  14.194  36.951  13.947
32009W        W93298   6.816   6.905  10.913
32010W        W93299   0.976  43.408  12.898
32011W        W93300  17.111  21.045   1.349
32012W        W93301   5.756  14.248   2.238
32013W        W93302  20.257   7.201  12.033
32014W        W93303   3.850  20.183  11.912
32015W        W93304  30.944  24.110  11.558
32016W        W93305  25.562  12.180  13.799
32017W        W93306  41.332  10.211   4.170
32018W        W93307  19.573   0.347  10.445
32019W        W93308  39.366  36.907  10.956
32020W        W93309  22.146  38.011   4.650
32021W        W93310  27.570  18.061  11.445
32022W        W93311  41.477  18.668   4.751
32023W        W93312   1.277  14.745  12.476
32024W        W93313  17.077  24.188  11.103
32025W        W93314   8.352  30.494   1.223
32026W        W93315  20.601  14.679   1.429
32027W        W93316  20.569  23.204   4.772
32028W        W93317  22.027  22.016   4.314
32029W        W93318   1.937  36.426   4.642
32030W        W93319  39.318  29.640  10.592
32031W        W93320  28.485  18.599   1.400
32032W        W93321  42.420  35.032  12.504
32033W        W93322  16.639  41.432   0.249
32034W        W93323   2.405  13.673  12.879
32035W        W93324   9.712  16.123   4.817
32036W        W93325  43.968  32.007   0.830
32037W        W93326   0.293   2.461   2.273
32038W        W93327  20.668  29.173  13.793
32039W        W93328  33.432  40.357   0.401
32040W        W93329  15.791  34.938  13.428
32041W        W93330   4.891  36.952  12.579
32042W        W93331  31.613  23.150  12.045
32043W        W93332  42.892  26.138   2.724
32044W        W93333   6.256   5.727  13.793
32045W        W93334  22.533   2.910   1.891
32046W        W93335  19.179  30.013   4.781
32047W        W93336  29.005  16.738  10.475
32048W        W93337  28.459  28.477  11.876
32049W        W93338   5.828  16.195   3.299
32050W        W93339  38.507  21.548   0.940
32051W        W93340   2.331  14.664   2.343
32052W        W93341  28.044   3.854   0.927
32053W        W93342  17.269  30.510   5.203
32054W        W93343  44.766   6.803  14.019
32055W        W93344  41.792  23.624   4.326
32056W        W93345   3.247  34.974   1.337
32057W        W93346   2.447  28.457   4.341
32058W        W93347  31.598   1.247   4.115
32059W        W93348   8.297  27.490   2.692
32060W        W93349  36.955  43.315   4.295
32061W        W93350  39.430  39.538   2.848
32062W        W93351  16.279  12.637   4.767
32063W        W93352  18.577  20.732   1.823
32064W        W93353  33.508  34.446   0.733
32065W        W93354  31.060   4.296  13.403
32066W        W93355  16.595  24.993   1.849
32067W        W93356  27.072  24.518   3.166
32068W        W93357   0.269   5.416  13.802
32069W        W93358  26.657  25.971  13.795
32070W        W93359  32.129  33.450  12.577
32071W        W93360   7.739  19.743  13.056
32072W        W93361   5.919  35.103  12.974
32073W        W93362  25.491  20.187  12.472
32074W        W93363  41.002  24.973  13.379
32075W        W93364   2.400  44.285   5.253
32076W        W93365   9.819   6.914   2.184
32077W        W93366  30.640   2.764   3.337
32078W        W93367  36.542  42.949  12.369
32079W        W93368  24.982   4.291   2.763
32080W        W93369   1.863  20.186  13.372
32081W        W93370  12.741  33.402  13.507
32082W        W93371  30.589  32.409   0.312
32083W        W93372  12.824   9.729  14.994
32084W        W93373  30.569  19.281   0.830
32085W        W93374   6.845  42.903  12.839
32086W        W93375  26.642  24.034   2.255
32087W        W93376   7.372  32.611   9.920
32088W        W93377  10.159  17.099   1.736
32089W        W93378  18.133   9.176  13.525
32090W        W93379  37.511  40.418  14.289
32091W        W93380  37.582  40.803   4.824
32092W        W93381   2.826  27.054  11.427
32093W        W93382  30.916  21.160  14.998
32094W        W93383  19.209  18.692   0.832
32095W        W93384  13.249   1.874  12.391
32096W        W93385  19.121  29.603   3.820
32097W        W93386  37.952  18.137  13.862
32098W        W93387  32.634  29.025   4.126
32099W        W93388  15.803  41.990   0.387
32100W        W93389  38.842  34.419   0.346
32101W        W93390   1.467  17.131  13.441
32102W        W93391  20.607   6.899  11.022
32103W        W93392  39.822  40.031   0.471
32104W        W93393  30.466  41.341  13.495
32105W        W93394  39.409   7.280  14.867
32106W        W93395  36.495  16.156  12.496
32107W        W93396   2.258  27.036   1.880
32108W        W93397  10.253  40.959  12.040
32109W        W93398  21.202  15.198   4.283
32110W        W93399  28.136  22.073   1.727
32111W        W93400   9.159  15.196  10.950
32112W        W93401  22.609   5.207   4.147
32113W        W93402   3.284   5.746   2.374
32114W        W93403  33.456  20.275  13.794
32115W        W93404   3.732  11.225   2.339
32116W        W93405  19.625  10.669  14.491
32117W        W93406  26.035  19.738  13.816
32118W        W93407  42.363  21.543   4.171
32119W        W93408  39.963  41.459  12.410
32120W        W93409   3.866  38.913   4.287
32121W        W93410  41.508  20.105   9.997
32122W        W93411  23.671  13.200   3.183
32123W        W93412  11.750  26.114  11.464
32124W        W93413   1.789  23.108   2.254
32125W        W93414   5.282  42.873   4.789
32126W        W93415   6.716  20.763  11.477
32127W        W93416  39.827   2.825   0.334
32128W        W93417  17.619  43.969   4.174
32129W        W93418  42.869  13.243   1.231
32130W        W93419  36.540   5.855   3.369
32131W        W93420   1.869  15.659  14.860
32132W        W93421  28.138  32.580  14.374
32133W        W93422   3.272  12.121  13.424
32134W        W93423   3.450  31.989  12.484
32135W        W93424  23.491  17.079   4.146
32136W        W93425   4.771  37.853   3.241
32137W        W93426  14.300  27.565   3.844
32138W        W93427   1.383  28.571  14.000
32139W        W93428   2.933   9.741   4.757
32140W        W93429  16.781  31.557  11.011
32141W        W93430  38.043   4.274  10.575
32142W        W93431   6.305  33.999  11.884
32143W        W93432  30.933  29.660   2.228
32144W        W93433   8.180  42.884   4.226
32145W        W93434  11.148  31.110   0.436
32146W        W93435  28.545  18.295  12.379
32147W        W93436  42.443  11.658  11.040
32148W        W93437  34.119  44.265  12.860
32149W        W93438  32.424  22.649  11.078
32150W        W93439  34.055  20.748  14.966
32151W        W93440  43.318   8.700  12.496
32152W        W93441  15.810  41.333  13.524
32153W        W93442  16.646  12.158   0.949
32154W        W93443  30.157  39.500   3.178
32155W        W93444   5.212  40.372  12.454
32156W        W93445  18.084   9.330   0.291
32157W        W93446   0.834  35.457  12.897
32158W        W93447   6.727  29.986  12.998
32159W        W93448  32.501  31.567   0.859
32160W        W93449  40.854  18.223  11.983
32161W        W93450   1.264   6.350  13.903
32162W        W93451  10.830   5.817  13.389
32163W        W93452  38.007  37.967   1.350
32164W        W93453  15.163  29.569   4.668
32165W        W93454  15.307  29.034  14.873
32166W        W93455  33.430  32.390  13.011
32167W        W93456  29.482  10.247   2.761
32168W        W93457  11.328  25.208  10.603
32169W        W93458  26.987  24.082  10.616
32170W        W93459  44.931  31.509   2.196
32171W        W93460  33.965   3.435   1.344
32172W        W93461  38.443   8.402   3.155
32173W        W93462  20.675   1.292  11.042
32174W        W93463  41.325  32.889  11.493
32175W        W93464  25.532  34.529   3.704
32176W        W93465  16.778  24.057   1.820
32177W        W93466  21.747   6.676   1.731
32178W        W93467  31.094  26.025  11.950
32179W        W93468  22.713  22.510   5.247
32180W        W93469   4.372   8.169   3.862
32181W        W93470  25.107  10.143   3.751
32182W        W93471  26.512   8.799   1.289
32183W        W93472  22.513  31.925   4.333
32184W        W93473   2.378  40.993  12.914
32185W        W93474  29.461  40.862  11.469
32186W        W93475  30.446  26.118  11.971
32187W        W93476  18.076  12.199   2.268
32188W        W93477   9.205  42.365  11.883
32189W        W93478  10.869  42.839   0.291
32190W        W93479   7.752  26.541   4.301
32191W        W93480  18.258  14.260   2.701
32192W        W93481   2.858  16.308   0.301
32193W        W93482  26.616  39.824  10.564
32194W        W93483  11.796  40.426   0.791
32195W        W93484  17.604  25.618   0.822
32196W        W93485   4.765  17.153   3.819
32197W        W93486   8.264   0.346  14.862
32198W        W93487  16.571  26.530  11.471
32199W        W93488  13.193  30.148   0.726
32200W        W93489  39.943   4.939  11.053
32201W        W93490  42.017  17.131   2.835
32202W        W93491  10.715  36.956  13.432
32203W        W93492  18.748  11.692  12.042
32204W        W93493  37.393  21.524  13.891
32205W        W93494  26.695   6.910   3.820
32206W        W93495   7.318   6.416  11.519
32207W        W93496  30.968  36.029   1.830
32208W        W93497  31.095   0.850  13.312
32209W        W93498  34.420   5.804   1.730
32210W        W93499  24.033  31.977   1.862
32211W        W93500  36.402  15.109  14.847
32212W        W93501  32.411   2.825  11.389
32213W        W93502  31.105   2.966  13.932
32214W        W93503   3.748  25.585  10.420
32215W        W93504  32.112  21.701  14.846
32216W        W93505  41.963  34.586  14.425
32217W        W93506  32.618  14.664  14.483
32218W        W93507  18.721  21.115   0.861
32219W        W93508  41.325  22.222   2.663
32220W        W93509  18.168   3.714   1.757
32221W        W93510  11.665  11.849   0.365
32222W        W93511  42.870  11.654   2.383
32223W        W93512  20.125  22.526  10.134
32224W        W93513   8.803   2.767   2.392
32225W        W93514  44.365   7.731   1.836
32226W        W93515  29.089  41.370   2.410
32227W        W93516  20.195  17.595  10.450
32228W        W93517  17.574  24.190   1.425
32229W        W93518   8.330  26.616  12.374
32230W        W93519  36.553  10.311  12.925
32231W        W93520  44.785  30.480  13.351
32232W        W93521  19.169  28.087   1.226
32233W        W93522  40.817  29.066   1.908
32234W        W93523  26.639  23.539  14.487
32235W        W93524  29.927  41.934  12.058
32236W        W93525  24.051  23.190  13.876
32237W        W93526  31.913   8.210   0.484
32238W        W93527  29.937   7.240  10.450
32239W        W93528  13.736  29.953   2.393
32240W        W93529  12.167  26.521  14.817
32241W        W93530  35.557  31.937  14.342
32242W        W93531  43.371  19.588   2.681
32243W        W93532  27.129  21.022  12.891
32244W        W93533  34.880  33.064  11.983
32245W        W93534  42.513  15.242  11.002
32246W        W93535  40.447  28.484   2.268
32247W        W93536  16.267  39.001   3.670
32248W        W93537  34.065  18.244  14.811
32249W        W93538  37.969  10.819   3.719
32250W        W93539  21.531   9.867  11.501
32251W        W93540  14.289  24.702  12.026
32252W        W93541  38.979  43.357  13.398
32253W        W93542  16.787  11.336   4.324
32254W        W93543  11.188  28.569   2.824
32255W        W93544  28.080  20.741  12.960
32256W        W93545   9.823  13.680   1.260
32257W        W93546   6.291   5.921  11.060
32258W        W93547  25.067  44.339  10.481
32259W        W93548  25.134  25.105  11.536
32260W        W93549   2.827   4.289   4.294
32261W        W93550  18.745  38.823   4.670
32262W        W93551   8.208  25.627   4.292
32263W        W93552  23.035  22.018   0.818
32264W        W93553   4.437  19.657  11.605
32265W        W93554  12.691   6.902   1.376
32266W        W93555  14.666  27.609   2.372
32267W        W93556  36.970  14.688  14.765
32268W        W93557  32.567  26.528   3.166
32269W        W93558  13.342  44.428  10.498
32270W        W93559  39.910  18.210  13.443
32271W        W93560  25.526  33.484   4.228
32272W        W93561  40.532  44.948   1.925
32273W        W93562  44.342  21.526  10.930
32274W        W93563  15.145   2.723  12.991
32275W        W93564  18.633   3.793  11.470
32276W        W93565   2.876  34.419   4.131
32277W        W93566  34.911  44.899  14.387
32278W        W93567  30.505  10.723  10.947
32279W        W93568  15.774  41.796  14.905
32280W        W93569  32.048  37.434  10.123
32281W        W93570  37.948  26.535  13.463
32282W        W93571  28.176  15.684  11.499
32283W        W93572   7.769  39.411   4.647
32284W        W93573  18.734  30.008  12.425
32285W        W93574   1.914  39.339   0.468
32286W        W93575   4.381  42.377   2.311
32287W        W93576  42.525  25.683  13.444
32288W        W93577  12.227  36.902  13.833
32289W        W93578  10.252  11.715   3.246
32290W        W93579   3.301  27.962  10.573
32291W        W93580  13.260  39.549  10.888
32292W        W93581  37.348  43.928  11.376
32293W        W93582  27.500  23.179  10.932
32294W        W93583  37.380   6.241   4.651
32295W        W93584  30.928   7.242   5.229
32296W        W93585  18.199  21.073  13.335
32297W        W93586   8.166  41.969  14.369
32298W        W93587  29.991  10.216   4.303
32299W        W93588   7.666  26.094  14.909
32300W        W93589   2.257  32.457  13.951
32301W        W93590  32.105   5.371  11.961
32302W        W93591  26.638  20.041   4.160
32303W        W93592  19.587  34.066   0.904
32304W        W93593  42.447   3.771  11.067
32305W        W93594  20.687  35.103  13.409
32306W        W93595  14.618  13.199   3.146
32307W        W93596   1.861  12.153  14.382
32308W        W93597  35.972  14.597   4.794
32309W        W93598  44.487  18.613   5.305
32310W        W93599  36.591  33.508  11.018
32311W        W93600  32.549  31.055  10.554
32312W        W93601  39.496   1.344   4.701
32313W        W93602  16.198  33.102  12.471
32314W        W93603  41.480  26.115  11.496
32315W        W93604  28.558   1.469  12.980
32316W        W93605  14.804  36.903   0.386
32317W        W93606  22.746  31.514  10.624
32318W        W93607  13.801  32.447   1.449
32319W        W93608  33.915  37.878   3.162
32320W        W93609  15.774  29.519  11.522
32321W        W93610  27.140  25.578  11.534
32322W        W93611  38.850  28.109   2.810
32323W        W93612  16.671  38.825  14.892
32324W        W93613  32.922  24.673  11.442
32325W        W93614   2.898   3.746  11.587
32326W        W93615  33.124  39.395  10.490
32327W        W93616   3.359   1.441   4.202
32328W        W93617   1.403  19.769  14.833
32329W        W93618  25.021  25.625   4.822
32330W        W93619  32.943  15.590   2.892
32331W        W93620  38.849  38.373  12.467
32332W        W93621  34.076  19.719  14.913
32333W        W93622  15.760  39.394  10.537
32334W        W93623  44.940  26.062  14.930
32335W        W93624  24.670  20.753  10.584
32336W        W93625  21.111  13.164   2.209
32337W        W93626  41.431  33.097   1.926
32338W        W93627  16.116  33.508  11.393
32339W        W93628  12.804  18.151  13.343
32340W        W93629  42.936  31.968  12.525
32341W        W93630  36.055   1.392  13.820
32342W        W93631  31.417   2.391   1.294
32343W        W93632  17.216   2.927   0.877
32344W        W93633  37.873  23.690  12.950
32345W        W93634   4.311  26.650   2.677
32346W        W93635  38.841   4.420  11.098
32347W        W93636  17.071  41.468   1.319
32348W        W93637  34.968   3.781  11.904
32349W        W93638  12.276  41.794   4.759
32350W        W93639  14.669  13.107  11.598
32351W        W93640   8.752   8.660   0.894
32352W        W93641   5.752  17.235   2.312
32353W        W93642  35.993  19.707  11.517
32354W        W93643  44.778  44.420   4.625
32355W        W93644  34.519  29.174   0.896
32356W        W93645  41.900   0.975   1.282
32357W        W93646  15.654  37.568   1.283
32358W        W93647  30.135  19.610   2.380
32359W        W93648  38.415  20.056  13.974
32360W        W93649  15.098  37.013   0.821
32361W        W93650  44.488   0.855   0.837
32362W        W93651  13.266  34.434   5.263
32363W        W93652  21.047  23.131  11.387
32364W        W93653  11.865  31.443   1.345
32365W        W93654  35.570   3.931   4.725
32366W        W93655  35.077   1.808  14.860
32367W        W93656  20.621   3.329   1.441
32368W        W93657  21.528   6.229  13.045
32369W        W93658  36.393   8.805  10.415
32370W        W93659   6.806  28.594   0.449
32371W        W93660  39.816  31.615   1.379
32372W        W93661  16.097  16.617   4.669
32373W        W93662  24.637   1.850   0.810
32374W        W93663   9.675   7.673   2.795
32375W        W93664   1.319  20.745   3.283
32376W        W93665  43.306   7.679  12.363
32377W        W93666  24.176  32.572  13.477
32378W        W93667  43.938  44.259  13.408
32379W        W93668   6.238  11.768   2.241
32380W        W93669  33.474  25.511   3.754
32381W        W93670   1.837  20.229   3.217
32382W        W93671  33.021  33.532  11.559
32383W        W93672  32.412   7.806   2.211
32384W        W93673   4.730   2.415   1.280
32385W        W93674  29.966  29.993   0.449
32386W        W93675  37.080  25.213  13.944
32387W        W93676  41.990   0.441   0.399
32388W        W93677   5.241  23.504   5.649
32389W        W93678  15.325  31.126  13.040
32390W        W93679  32.627  32.578   3.637
32391W        W93680  43.968  15.791   5.313
32392W        W93681   2.258  26.525  12.517
32393W        W93682   1.977  27.641  13.058
32394W        W93683  13.643  44.419   4.662
32395W        W93684  28.646  20.180   3.280
32396W        W93685  44.924  10.369  13.450
32397W        W93686   9.233  30.475  12.935
32398W        W93687  16.212  41.337   1.426
32399W        W93688  27.965  19.649  14.495
32400W        W93689  26.069  33.009   0.904
32401W        W93690  28.574  39.528   4.686
32402W        W93691  20.038  21.233  10.041
32403W        W93692  17.179   3.775   9.968
32404W        W93693  10.158  38.989  10.106
32405W        W93694  32.526  20.197  14.921
32406W        W93695  18.201  33.555  11.008
32407W        W93696  31.449  42.817  14.318
32408W        W93697  21.709   5.292   4.304
32409W        W93698   9.182  13.173   3.838
32410W        W93699  20.538  25.521  13.436
32411W        W93700  33.015  40.818   3.700
32412W        W93701  40.360   9.660   4.186
32413W        W93702  24.696  10.735   1.257
32414W        W93703  34.604  23.509  12.573
32415W        W93704  26.095   6.718   3.826
32416W        W93705  26.558  38.381   0.839
32417W        W93706  40.397  44.923  12.966
32418W        W93707  13.776  18.235  14.900
32419W        W93708   8.777  11.356   0.730
32420W        W93709  21.628  19.278   4.746
32421W        W93710   3.287  33.386  12.966
32422W        W93711  23.116  10.666  10.547
32423W        W93712  17.206   3.945  11.485
32424W        W93713  28.516  36.503  13.999
32425W        W93714  10.721  25.687   0.318
32426W        W93715  15.290  29.117   2.874
32427W        W93716  43.455  16.098  13.927
32428W        W93717  32.070  17.198   3.855
32429W        W93718  32.994  13.674   0.428
32430W        W93719   6.702  15.812  13.436
32431W        W93720  39.011  24.164  14.963
32432W        W93721   4.325  22.521  11.569
32433W        W93722  31.000   1.876   2.798
32434W        W93723  11.798  29.110  14.443
32435W        W93724   3.937  36.487   2.851
32436W        W93725   9.281  29.011  14.932
32437W        W93726   0.970  44.376  12.953
32438W        W93727   3.356  18.621   4.695
32439W        W93728  39.517  14.317   1.818
32440W        W93729  26.667  32.945   0.847
32441W        W93730  29.010  11.739  13.511
32442W        W93731  44.915  15.217  13.939
32443W        W93732   6.870   4.387   3.209
32444W        W93733  16.200   7.740   3.805
32445W        W93734  27.660   2.354   4.723
32446W        W93735  33.941  36.447   1.785
32447W        W93736  36.562  40.461   3.338
32448W        W93737  24.048  42.507  11.536
32449W        W93738  34.433   7.741  13.320
32450W        W93739  23.166  27.649   4.327
32451W        W93740  10.845  15.200   1.377
32452W        W93741  21.157  18.229  12.453
32453W        W93742  21.670  17.753  11.979
32454W        W93743  10.735  16.661   4.222
32455W        W93744  34.554  23.003  11.995
32456W        W93745  10.784  16.672   3.353
32457W        W93746  35.066  22.644  10.993
32458W        W93747  44.851  10.380  12.828
32459W        W93748  23.148  31.016  12.829
32460W        W93749  10.224  42.467   2.366
32461W        W93750  39.979  12.137   4.727
32462W        W93751  22.067  44.468  11.576
32463W        W93752  30.073  11.243   3.739
32464W        W93753  24.582  11.157  13.497
32465W        W93754  27.456  30.639   1.236
32466W        W93755  10.347  37.069   4.212
32467W        W93756  15.110  15.257  13.861
32468W        W93757  44.812   5.711  11.465
32469W        W93758  19.583  36.889   4.119
32470W        W93759  21.191  27.072  13.993
32471W        W93760  40.974  29.968  12.540
32472W        W93761  13.309  29.444  11.518
32473W        W93762  11.702   8.705   1.308
32474W        W93763  38.426  34.105   4.745
32475W        W93764  44.318  36.878   2.359
32476W        W93765  41.978  28.145   0.743
32477W        W93766  42.401  36.075  13.921
32478W        W93767  40.801  20.168  13.308
32479W        W93768  12.307  11.725  14.347
32480W        W93769   2.238  35.973  13.971
32481W        W93770  21.514  39.817   0.866
32482W        W93771  15.742  10.299   2.200
32483W        W93772  28.174  28.128   3.227
32484W        W93773  14.110  20.092   1.400
32485W        W93774  30.495  42.923   0.841
32486W        W93775  17.604  35.547  13.854
32487W        W93776   5.320  24.018  13.370
32488W        W93777  13.840  37.949  14.345
32489W        W93778  10.348   7.862  13.414
32490W        W93779  41.369   3.883   2.378
32491W        W93780  37.356  22.035   3.862
32492W        W93781  28.498   5.691  11.927
32493W        W93782  10.717  29.144  13.047
32494W        W93783  40.839  20.608  11.461
32495W        W93784  41.387  24.498  10.498
32496W        W93785  21.646  37.965   4.738
32497W        W93786  38.927   2.917   0.253
32498W        W93787  26.976  38.866   3.861
32499W        W93788  14.188  23.122   1.803
32500W        W93789  44.953  35.475  10.485
32501W        W93790  24.042  21.165  13.975
32502W        W93791  24.497  30.103   4.138
32503W        W93792  28.553  26.154   4.276
32504W        W93793  19.692   6.182  11.562
32505W        W93794  26.107  26.052   1.442
32506W        W93795   5.378  36.494   0.274
32507W        W93796  36.566  35.400  10.467
32508W        W93797  37.916  18.552   1.451
32509W        W93798  41.917   1.353  10.590
32510W        W93799  30.586   4.264   3.789
32511W        W93800  22.733  42.390  11.551
32512W        W93801  41.436   1.891  12.995
32513W        W93802   6.414  16.122   0.763
32514W        W93803  10.717  37.420  13.417
32515W        W93804  23.705  35.010   3.705
32516W        W93805   2.398  37.932   3.792
32517W        W93806  13.177  30.440   0.898
32518W        W93807  34.066   1.248   1.722
32519W        W93808   6.202  44.775   1.772
32520W        W93809   2.327   9.819   1.343
32521W        W93810  34.594  27.688  14.026
32522W        W93811  38.324  38.985   3.854
32523W        W93812  31.992  17.165   2.711
32524W        W93813  30.927  18.118   0.248
32525W        W93814   0.860  36.006   4.193
32526W        W93815  38.408  10.777   0.796
32527W        W93816   0.802  15.616  11.021
32528W        W93817  13.170  10.307  13.982
32529W        W93818  24.562  39.819  12.358
32530W        W93819  42.444   4.774  14.010
32531W        W93820   4.922   6.883   9.920
32532W        W93821  14.808  42.422  10.479
32533W        W93822  44.274  31.496  11.963
32534W        W93823   6.265  19.280  10.548
32535W        W93824  21.523  20.223  11.372
32536W        W93825   5.250  13.142  12.578
32537W        W93826   6.232  15.226   3.280
32538W        W93827  35.015  22.237  11.878
32539W        W93828  22.099  42.859   1.371
32540W        W93829  15.130  35.499  10.132
32541W        W93830  44.857  15.171  14.939
32542W        W93831  10.344   6.913   2.826
32543W        W93832  30.485  37.408  13.017
32544W        W93833  27.164  31.546   2.309
32545W        W93834  15.769  41.927  14.412
32546W        W93835  28.975  21.680  14.879
32547W        W93836  26.036  36.456   4.831
32548W        W93837  22.244  24.203  12.963
32549W        W93838  37.556  14.258   3.834
32550W        W93839   9.668  19.649   4.169
32551W        W93840   4.420  10.356  14.925
32552W        W93841  24.490  32.600  14.487
32553W        W93842  23.571  33.444  12.852
32554W        W93843   2.290  20.130  12.482
32555W        W93844  26.584   6.333   3.653
32556W        W93845  27.453  42.952   1.227
32557W        W93846  10.788   2.749   2.802
32558W        W93847  22.607  21.588  11.927
32559W        W93848   3.459  39.837   3.856
32560W        W93849  36.408  22.191  14.024
32561W        W93850  17.720  16.746   0.406
32562W        W93851  29.100  35.539   0.830
32563W        W93852   7.351  24.694  13.529
32564W        W93853   7.724  10.689   4.340
32565W        W93854  29.517  36.593   3.261
32566W        W93855  18.763  29.016  13.543
32567W        W93856  23.726  10.354  14.982
32568W        W93857  42.439  29.433   4.798
32569W        W93858   6.317  12.679  13.537
32570W        W93859  16.579   6.365   0.746
32571W        W93860   9.688   7.726  11.522
32572W        W93861  23.592  10.157  11.913
32573W        W93862  23.126  15.217  13.918
32574W        W93863   3.394  28.662   1.340
32575W        W93864  35.987   4.435   4.749
32576W        W93865  44.464   8.859   9.495
32577W        W93866  31.610   8.223  14.937
32578W        W93867   1.306  11.775   4.714
32579W        W93868  36.519  12.302  12.035
32580W        W93869  23.713  35.401  13.359
32581W        W93870  42.777   2.898   4.344
32582W        W93871  17.205  28.010   0.788
32583W        W93872  15.312   7.877  12.875
32584W        W93873  29.142  33.586  14.472
32585W        W93874  31.550  13.725   0.922
32586W        W93875  32.108  11.361  11.096
32587W        W93876  39.008  24.179   5.147
32588W        W93877   3.291  13.338  10.470
32589W        W93878  40.945   9.838   4.337
32590W        W93879  18.545  32.541   2.370
32591W        W93880  21.539  25.150  12.544
32592W        W93881  23.153  27.053  13.010
32593W        W93882   1.354  21.625  10.902
32594W        W93883  34.573   4.229   3.194
32595W        W93884  12.796   6.293  12.975
32596W        W93885  13.669  19.690   4.277
32597W        W93886   5.754  41.927  12.907
32598W        W93887  38.063  24.609  14.921
32599W        W93888  13.326   6.307  11.491
32600W        W93889  43.449  29.501   1.248
32601W        W93890   4.784  33.393   1.905
32602W        W93891   8.228   2.459   1.271
32603W        W93892   3.834  31.941  11.864
32604W        W93893  26.591  14.274  11.015
32605W        W93894  27.114  29.490  12.402
32606W        W93895  35.517  24.487   1.292
32607W        W93896   6.373  29.087  12.476
32608W        W93897   5.277  11.851   1.836
32609W        W93898  27.691   5.205  12.474
32610W        W93899  25.666  38.055   3.650
32611W        W93900  40.052  16.130  14.898
32612W        W93901  34.486  23.081  13.503
32613W        W93902  24.666  34.607  10.918
32614W        W93903   7.337  11.299  10.613
32615W        W93904  10.375  44.501   2.831
32616W        W93905  22.590  44.306   3.339
32617W        W93906  41.033  40.309   2.690
32618W        W93907  39.997  44.347   3.367
32619W        W93908  19.631   9.355  13.019
32620W        W93909  10.183  31.607   1.909
32621W        W93910  18.067   7.709   2.360
32622W        W93911  44.755   2.234   1.442
32623W        W93912  20.248  43.834   3.297
32624W        W93913  16.177  40.987   1.354
32625W        W93914   8.753  25.508   1.272
32626W        W93915   3.793  26.469  11.975
32627W        W93916  12.839  17.275  10.899
32628W        W93917   5.393  39.324   1.415
32629W        W93918   0.477   3.311   2.275
32630W        W93919  41.356  33.049  12.964
32631W        W93920  13.263  40.398  13.889
32632W        W93921  44.367  32.557   2.722
32633W        W93922  15.330   3.825   3.150
32634W        W93923  12.643  13.600   2.719
32635W        W93924   4.700  16.751   1.270
32636W        W93925  17.661  33.079  14.390
32637W        W93926  19.204  39.407  12.016
32638W        W93927   6.734  25.096  13.454
32639W        W93928  28.027  29.956  10.934
32640W        W93929  25.047  23.124   0.370
32641W        W93930  40.320  21.045   9.970
32642W        W93931  19.055  18.187  14.460
32643W        W93932  19.218  24.517  10.495
32644W        W93933  30.911  38.383  12.006
32645W        W93934  40.975  15.276   3.354
32646W        W93935  41.875   7.720  14.893
32647W        W93936  34.883   1.376  11.913
32648W        W93937  24.675  30.628   4.259
32649W        W93938  14.246  32.065  10.890
32650W        W93939   0.393  29.167  11.041
32651W        W93940  35.901  27.119   1.762
32652W        W93941   1.429  33.397   3.777
32653W        W93942  22.121  10.185  12.406
32654W        W93943  31.117  10.674  12.397
32655W        W93944  35.462  35.026  12.009
32656W        W93945  24.128  31.149  12.346
32657W        W93946  35.895  17.293  14.987
32658W        W93947  29.616   1.861  13.954
32659W        W93948  40.862  40.504  11.432
32660W        W93949  20.746  42.984  12.482
32661W        W93950   1.413  31.521  14.933
32662W        W93951  16.195  42.463   3.799
32663W        W93952  23.588  35.378   3.774
32664W        W93953   2.313  22.620   3.734
32665W        W93954   2.261  29.100   2.853
32666W        W93955  10.158  30.568  14.484
32667W        W93956  22.108  37.396   2.715
32668W        W93957  38.356  41.980  12.344
32669W        W93958  22.620  39.371   0.454
32670W        W93959  41.407  43.272   1.749
32671W        W93960  18.093  36.446   0.391
32672W        W93961  14.281  42.986  11.388
32673W        W93962   5.367  42.910  11.028
32674W        W93963  27.109  43.427  10.414
32675W        W93964  43.411  30.095  14.485
32676W        W93965  14.148  17.097   2.876
32677W        W93966  36.428   2.387   1.876
32678W        W93967  17.117  29.173  14.346
32679W        W93968  35.872  21.230   1.877
32680W        W93969   3.716   8.167   2.224
32681W        W93970  24.549   8.284  10.955
32682W        W93971  23.038  42.302  14.338
32683W        W93972   2.807  44.386  11.427
32684W        W93973  20.232   4.257   1.723
32685W        W93974  29.944  12.117   3.222
32686W        W93975  13.835   9.213  13.312
32687W        W93976  31.040  18.056   5.090
32688W        W93977  15.329  25.546  11.009
32689W        W93978  30.569   2.376   5.183
32690W        W93979  39.987  28.671   4.815
32691W        W93980  27.034  15.768  14.010
32692W        W93981   3.347  17.743   1.718
32693W        W93982   8.329  25.109   0.256
32694W        W93983  11.163  42.381  13.917
32695W        W93984   6.878  17.233  14.397
32696W        W93985  33.124   3.276  14.340
32697W        W93986  29.451  31.406  13.428
32698W        W93987   6.392  27.461  13.316
32699W        W93988  23.159  18.151   2.828
32700W        W93989  13.662  31.935  10.897
32701W        W93990  33.927  35.599   0.798
32702W        W93991  25.103  34.414  12.991
32703W        W93992  32.913   9.865   4.719
32704W        W93993  14.107  42.824  14.026
32705W        W93994   0.358   7.215   0.783
32706W        W93995  16.719   9.296  12.486
32707W        W93996  11.244  22.674  12.011
32708W        W93997  30.496  40.450   5.106
32709W        W93998  16.785  24.680  14.500
32710W        W93999  12.677  28.175   1.742
32711W        W94000   4.378  10.649  12.896
32712W        W94001  20.670   4.759   1.920
32713W        W94002  23.162  21.654   2.759
32714W        W94003  19.158  12.133  11.389
32715W        W94004  20.629   3.332  10.552
32716W        W94005   3.719  33.880   4.276
32717W        W94006  16.594   2.871   1.407
32718W        W94007  36.487   7.695  14.373
32719W        W94008   6.704  23.727   4.186
32720W        W94009  36.372  10.144   4.795
32721W        W94010  16.141  33.545  12.864
32722W        W94011   0.834  41.834  14.819
32723W        W94012  23.113   7.183   4.719
32724W        W94013   3.436   9.668   2.699
32725W        W94014   0.747  27.043  11.472
32726W        W94015  37.466  13.737   2.672
32727W        W94016  18.631  37.487  11.544
32728W        W94017  15.670  19.604  14.405
32729W        W94018  34.477  18.189   1.707
32730W        W94019  28.614   9.719  14.999
32731W        W94020  14.797  35.415   4.252
32732W        W94021  26.138  38.888  15.000
32733W        W94022  34.104  34.522   3.665
32734W        W94023  43.795  25.078  12.360
32735W        W94024  16.212  37.458   2.778
32736W        W94025  30.036  44.898  13.828
32737W        W94026  25.032   6.762   1.231
32738W        W94027  21.619  41.841   4.135
32739W        W94028  41.043  33.109  11.068
32740W        W94029  29.172  15.701   3.679
32741W        W94030  33.912  18.678  13.318
32742W        W94031  20.704   3.906  13.953
32743W        W94032   9.886  25.492   4.209
32744W        W94033  15.605  25.045  12.906
32745W        W94034  24.689  21.224  10.456
32746W        W94035   6.291  32.568   2.703
32747W        W94036  42.305  23.495   0.761
32748W        W94037  18.081   9.157  11.860
32749W        W94038  15.219  36.926   4.129
32750W        W94039  29.525  27.174  10.622
32751W        W94040  38.942  32.112   0.842
32752W        W94041  35.022  36.585   4.203
32753W        W94042  16.176  36.501   2.898
32754W        W94043  36.853  10.299   4.145
32755W        W94044  17.789   5.857  10.588
32756W        W94045  33.395  43.375   2.664
32757W        W94046   0.260  23.159   4.658
32758W        W94047  25.055  25.613  14.956
32759W        W94048  14.815  28.930  11.856
32760W        W94049  32.419   6.365   2.305
32761W        W94050   9.860  20.601   2.326
32762W        W94051   4.905  20.164   0.868
32763W        W94052  13.123  30.457  14.830
32764W        W94053  24.548  31.417   0.331
32765W        W94054  43.464  22.098  13.415
32766W        W94055  27.005  17.663  11.492
32767W        W94056   2.367  10.690  11.419
32768W        W94057   0.396  34.996  11.085
32769W        W94058   4.428  26.190  13.446
32770W        W94059  25.626  28.591   4.335
32771W        W94060  43.928  25.012  10.522
32772W        W94061  41.428  20.078   1.374
32773W        W94062   3.910  40.862  13.942
32774W        W94063  12.808  27.518  13.036
32775W        W94064   8.728  34.913   3.836
32776W        W94065  39.524  22.501  12.910
32777W        W94066  40.825  30.995  13.336
32778W        W94067  35.954  26.613  10.556
32779W        W94068  33.479  38.894   1.419
32780W        W94069  31.131   1.762   1.727
32781W        W94070  15.301  30.069  12.882
32782W        W94071  36.961  14.284  14.332
32783W        W94072  37.002  35.857  10.602
32784W        W94073  42.779  34.972   2.289
32785W        W94074  19.538  37.000  12.059
32786W        W94075  18.697  44.457   2.872
32787W        W94076  39.396  36.371   3.221
32788W        W94077   5.846  25.184  13.831
32789W        W94078  33.047  40.495   3.765
32790W        W94079  22.618  40.433  14.828
32791W        W94080  31.026  39.825   0.469
32792W        W94081  43.397  13.279   2.359
32793W        W94082  23.563  19.620   4.674
32794W        W94083  13.108  24.519  13.800
32795W        W94084  33.487  37.486  14.945
32796W        W94085  17.742  12.281   1.749
32797W        W94086  10.819  34.489  14.322
32798W        W94087  11.314   3.350   1.348
32799W        W94088  41.429  24.018  11.497
32800W        W94089   7.292   2.272   1.254
32801W        W94090  21.103   3.874   4.161
32802W        W94091  18.682  13.159   2.221
32803W        W94092  13.618  34.505   1.798
32804W        W94093  38.436   7.796   4.309
32805W        W94094   3.272  40.307   5.311
32806W        W94095  36.848  30.416  14.014
32807W        W94096   3.755   9.773   0.761
32808W        W94097   5.203  19.256  13.329
32809W        W94098   1.884  12.717   3.257
32810W        W94099  28.578  40.384   3.266
32811W        W94100  22.660  43.367   3.742
32812W        W94101  36.896  20.254  13.341
32813W        W94102   5.339  16.746   2.871
32814W        W94103  24.507  10.845  13.401
32815W        W94104  12.652  33.624  10.909
32816W        W94105  11.224   0.753   2.769
32817W        W94106  38.055   7.390   4.617
32818W        W94107  29.051   6.719   1.240
32819W        W94108   6.283  27.977   2.264
32820W        W94109   7.799   1.304   4.827
32821W        W94110  41.537  23.232   2.257
32822W        W94111  33.432  21.632  12.906
32823W        W94112  21.075  29.119  12.387
32824W        W94113  13.265   8.181   1.220
32825W        W94114  14.827  15.604  13.507
32826W        W94115  28.016   1.290  13.857
32827W        W94116  16.613   8.272   0.801
32828W        W94117   3.388  11.773   2.848
32829W        W94118  34.910   5.722   0.857
32830W        W94119  33.448  42.490   3.331
32831W        W94120  20.180  11.718  12.460
32832W        W94121   4.837   8.887  10.918
32833W        W94122  33.053  38.871   1.904
32834W        W94123   9.645   6.428  13.940
32835W        W94124  20.238  26.071   0.458
32836W        W94125  29.953  41.960   3.335
32837W        W94126  18.187   7.675   3.649
32838W        W94127  11.708   6.739   0.745
32839W        W94128  17.259   2.338   3.682
32840W        W94129  16.664  29.136   0.286
32841W        W94130   2.897  37.444   4.138
32842W        W94131  41.949  21.749  12.512
32843W        W94132  38.998   4.838  14.807
32844W        W94133   6.320  28.929  14.509
32845W        W94134  37.390  20.232   0.323
32846W        W94135  33.991   7.858   1.306
32847W        W94136  44.845  16.603  14.488
32848W        W94137   3.460  34.460   1.834
32849W        W94138  39.018   5.440  12.883
32850W        W94139  36.089  34.944   4.302
32851W        W94140  36.354  11.224  14.884
32852W        W94141  43.997  28.116  14.785
32853W        W94142   4.929  29.483   2.324
32854W        W94143  29.061  14.791  11.079
32855W        W94144  16.581   4.713  13.338
32856W        W94145  29.925  34.118  13.027
32857W        W94146   9.706  43.967  12.460
32858W        W94147  11.648  31.929   5.099
32859W        W94148  39.062  39.948   4.158
32860W        W94149  14.235  13.338  13.503
32861W        W94150   8.370   9.334   2.784
32862W        W94151   4.905  27.156   2.252
32863W        W94152   1.435  26.523   1.913
32864W        W94153   6.407  29.016   0.479
32865W        W94154  22.692  30.468   9.951
32866W        W94155   9.851  16.183   3.660
32867W        W94156   8.780  30.942   0.317
32868W        W94157  35.581  33.560  11.056
32869W        W94158   6.738  21.103   3.649
32870W        W94159   4.770  33.024  13.992
32871W        W94160  37.560  28.643   3.799
32872W        W94161  37.451   2.904   3.201
32873W        W94162  26.594  15.089  11.568
32874W        W94163  19.251  19.055   0.966
32875W        W94164  14.106  30.049  14.440
32876W        W94165  25.638   3.425   3.694
32877W        W94166  40.432  36.041   3.846
32878W        W94167  42.474  11.777  12.992
32879W        W94168  33.379  34.915  14.280
32880W        W94169  37.433  16.793   2.264
32881W        W94170  34.373  15.603   4.740
32882W        W94171  13.828   8.679   3.309
32883W        W94172  36.486  10.748   4.830
32884W        W94173   5.727  16.692  13.037
32885W        W94174  10.208  15.744  13.997
32886W        W94175  19.701  44.486  11.040
32887W        W94176   5.363  14.671   2.352
32888W        W94177  13.813  19.604  14.957
32889W        W94178  17.173  16.313   3.731
32890W        W94179   8.896  14.262  12.003
32891W        W94180  18.723  13.813  10.918
32892W        W94181  22.999   1.387   3.683
32893W        W94182  25.659  43.799  13.836
32894W        W94183  22.599  14.816  13.995
32895W        W94184  43.984  17.124  12.414
32896W        W94185  36.992  44.343  11.581
32897W        W94186   8.833   3.263  12.390
32898W        W94187  31.125  42.844   0.272
32899W        W94188   5.737  28.062  14.798
32900W        W94189  10.287  31.960  11.075
32901W        W94190  35.908  16.077   1.738
32902W        W94191  20.598  19.174   2.828
32903W        W94192  15.626  35.485  12.375
32904W        W94193  23.613  16.663  14.970
32905W        W94194  33.404  21.158  10.644
32906W        W94195  22.624  33.043  11.594
32907W        W94196  10.180   7.370  10.423
32908W        W94197   3.867  24.620  10.643
32909W        W94198  30.646   4.237   1.232
32910W        W94199  43.364  20.236  11.414
32911W        W94200   8.897  39.381  14.784
32912W        W94201   0.826  40.487   2.865
32913W        W94202  22.568  40.007   2.339
32914W        W94203  21.170   7.803  10.405
32915W        W94204  42.935  29.131   4.746
32916W        W94205  24.491  41.351  10.632
32917W        W94206  36.405   2.769  12.826
32918W        W94207  29.026  21.259   0.832
32919W        W94208  11.844  25.053   5.187
32920W        W94209   2.748  28.494  11.603
32921W        W94210  31.426   8.658  11.100
32922W        W94211  37.025  13.204  12.941
32923W        W94212   3.851  24.580   3.186
32924W        W94213  26.619  29.533   1.218
32925W        W94214  30.088  25.069  11.961
32926W        W94215  21.537  22.225  11.962
32927W        W94216   7.693  31.952  10.444
32928W        W94217  28.599  42.818   4.641
32929W        W94218  17.632  34.495   2.418
32930W        W94219  11.278  23.547   2.206
32931W        W94220   2.356   8.691   0.854
32932W        W94221  17.639   0.839   4.836
32933W        W94222  23.063  15.800   4.302
32934W        W94223   8.295  15.632   4.223
32935W        W94224  32.940  38.496  12.985
32936W        W94225   8.270  35.473  12.347
32937W        W94226  15.784  33.615   1.702
32938W        W94227  27.664  26.479  11.530
32939W        W94228  42.336  30.426  12.042
32940W        W94229  32.896  23.167   3.818
32941W        W94230   9.840   8.781   3.302
32942W        W94231  12.187  22.163   1.759
32943W        W94232   4.291  11.716   0.899
32944W        W94233   0.974  41.462   4.662
32945W        W94234   3.348   4.251  12.525
32946W        W94235  11.661  44.330   5.728
32947W        W94236  23.694  18.204   0.368
32948W        W94237  37.452   6.284  11.394
32949W        W94238  17.240  33.102  11.961
32950W        W94239  20.241  42.002   4.825
32951W        W94240  20.657  30.455   0.358
32952W        W94241  19.061  30.007   1.877
32953W        W94242  32.485  44.926  14.316
32954W        W94243   7.290  38.854  13.839
32955W        W94244  33.031   4.819   5.719
32956W        W94245  22.149   6.778  11.922
32957W        W94246  16.137  41.033   0.959
32958W        W94247  16.087  15.595  13.032
32959W        W94248  30.111  21.019   1.413
32960W        W94249  30.420  10.344   4.730
32961W        W94250   7.173  32.020  10.636
32962W        W94251  30.065   9.272   5.775
32963W        W94252  20.668  35.549  13.914
32964W        W94253  22.614  15.714  12.544
32965W        W94254   0.805  10.742   0.853
32966W        W94255  14.195  12.259  13.539
32967W        W94256  11.128  28.053   2.242
32968W        W94257   0.421   7.269   1.792
32969W        W94258  24.690   7.278  11.998
32970W        W94259  29.645  28.178   4.602
32971W        W94260  15.229  19.717  10.928
32972W        W94261   0.976  36.583  14.803
32973W        W94262   8.367  39.061   1.791
32974W        W94263  44.499  37.066  11.589
32975W        W94264  30.928  31.130  13.312
32976W        W94265  19.070  21.113   2.885
32977W        W94266  29.082  35.543  11.020
32978W        W94267   3.890  35.419   3.316
32979W        W94268  26.596   8.220  14.379
32980W        W94269  20.691  21.216  13.946
32981W        W94270  22.096  37.927  12.991
32982W        W94271   3.374  25.515  14.975
32983W        W94272  42.952  32.114   3.220
32984W        W94273   8.327  24.710   1.731
32985W        W94274  43.911  40.830  13.991
32986W        W94275  19.060  43.441  11.923
32987W        W94276  17.700   6.912   1.235
32988W        W94277  15.107  28.005   2.409
32989W        W94278  37.868  23.101  12.373
32990W        W94279  20.733  28.481   3.354
32991W        W94280  34.922  31.572  12.051
32992W        W94281  43.854  33.602   1.720
32993W        W94282  13.148  44.904  13.438
32994W        W94283   1.805  31.574  10.584
32995W        W94284  13.104  20.266  13.435
32996W        W94285  42.331   8.302   3.203
32997W        W94286  10.235  16.618   3.734
32998W        W94287  39.513  23.198   1.273
32999W        W94288   9.754  39.835   3.760
33000W        W94289   0.405  40.457   3.672
33001W        W94290  20.676  42.453   1.443
33002W        W94291  21.158  27.527   4.769
33003W        W94292  26.603  13.678  10.951
33004W        W94293   2.418  27.505   3.844
33005W        W94294  33.955   9.174  13.319
33006W        W94295  19.614  40.027   1.717
33007W        W94296  12.321  12.333   1.765
33008W        W94297  28.021   4.272  12.055
33009W        W94298  13.653  41.891   2.690
33010W        W94299   5.253  40.871   0.436
33011W        W94300  10.362  31.492   0.442
33012W        W94301  13.189   9.787   0.741
33013W        W94302  43.309   6.864  11.378
33014W        W94303  33.901   9.780   0.421
33015W        W94304  27.684  39.454  11.548
33016W        W94305  15.750  20.564  12.978
33017W        W94306  31.416  16.093   0.762
33018W        W94307  38.906  14.713   0.879
33019W        W94308  35.000   3.840   0.328
33020W        W94309   4.301  42.364   0.930
33021W        W94310  11.773  22.033   2.830
33022W        W94311  18.070   2.744  12.488
33023W        W94312  14.764  35.554   2.841
33024W        W94313  32.892  13.814   1.444
33025W        W94314   4.282   6.307   4.649
33026W        W94315  25.078  28.097  11.920
33027W        W94316   4.749  35.011   1.892
33028W        W94317  18.670  35.559  14.009
33029W        W94318  43.890  30.617  13.818
33030W        W94319  11.752  32.905   1.253
33031W        W94320   8.817  23.107  13.927
33032W        W94321   4.927  17.649  11.111
33033W        W94322  37.864  34.909  12.457
33034W        W94323  25.472  31.514   2.741
33035W        W94324  28.159  24.995  12.502
33036W        W94325  14.728  34.010  11.564
33037W        W94326  30.627  21.703  13.309
33038W        W94327   3.354  31.053   0.939
33039W        W94328  27.143  25.023  12.508
33040W        W94329  26.677  16.153  10.914
33041W        W94330  30.139  24.645  11.998
33042W        W94331  24.163   7.261   1.409
33043W        W94332  28.073  22.625  12.940
33044W        W94333  36.004  21.241   2.684
33045W        W94334   7.865  38.340  13.796
33046W        W94335   8.187  36.393  13.840
33047W        W94336  31.518  23.232   2.400
33048W        W94337   6.258  29.987  12.042
33049W        W94338  18.561  22.101  12.919
33050W        W94339  40.813   3.756  12.346
33051W        W94340   1.282  31.137  12.362
33052W        W94341  16.115  41.865  10.623
33053W        W94342  23.682  23.215   1.766
33054W        W94343  26.685   8.383   0.802
33055W        W94344  35.542  14.154  11.045
33056W        W94345  21.113  36.541   2.219
33057W        W94346   8.752  10.294   4.801
33058W        W94347   1.356  10.218  14.510
33059W        W94348   4.778  33.580  11.526
33060W        W94349   4.340  17.218  14.964
33061W        W94350  10.301  20.144   1.924
33062W        W94351  38.015  33.513   2.743
33063W        W94352  33.569  20.038  11.568
33064W        W94353  39.906  13.261   1.392
33065W        W94354  17.099  11.363   3.312
33066W        W94355  10.758  23.084   3.168
33067W        W94356  28.568  31.947  14.761
33068W        W94357  19.281  29.509  14.314
33069W        W94358  39.933  23.026  12.493
33070W        W94359  16.304  11.191   0.880
33071W        W94360  18.061   0.762   1.882
33072W        W94361  21.582  25.524   3.165
33073W        W94362  37.076  12.630   3.221
33074W        W94363  41.446   9.178  12.909
33075W        W94364  18.247   1.238  14.966
33076W        W94365  29.478  33.584  12.500
33077W        W94366  16.159  25.498   0.746
33078W        W94367  16.799  39.379   2.282
33079W        W94368  40.534  19.061  13.360
33080W        W94369  19.597  12.719   1.863
33081W        W94370  35.088  13.138   2.299
33082W        W94371  43.996  26.983   4.343
33083W        W94372  34.864  35.000  14.851
33084W        W94373  21.200  25.054  13.799
33085W        W94374  20.243  13.275   4.340
33086W        W94375  39.977   2.264   0.896
33087W        W94376  39.969  35.527   3.373
33088W        W94377  24.723  44.795   3.377
33089W        W94378   8.316  17.568   2.343
33090W        W94379  30.016   6.902  13.998
33091W        W94380   1.422  29.654  14.287
33092W        W94381   9.209  39.064  14.888
33093W        W94382  37.073   5.369   0.858
33094W        W94383   1.942  20.199   4.708
33095W        W94384  34.000  37.570  13.839
33096W        W94385  23.725  18.789  11.961
33097W        W94386  20.569  42.458   0.795
33098W        W94387  11.286  26.667  12.579
33099W        W94388   6.229  15.776  11.557
33100W        W94389  16.717  13.223   4.134
33101W        W94390  31.960   2.353  12.515
33102W        W94391  15.096  29.073  10.466
33103W        W94392  38.543  21.245  13.805
33104W        W94393   4.907  41.024   4.162
33105W        W94394  15.673   5.839  13.522
33106W        W94395  14.795  22.642  12.889
33107W        W94396  44.919  40.472   1.316
33108W        W94397  19.238  21.734  13.952
33109W        W94398  28.558  35.107  11.014
33110W        W94399  37.067  20.136   2.412
33111W        W94400  31.095  27.675  12.992
33112W        W94401  38.500  23.062  10.522
33113W        W94402   6.228  42.922  12.963
33114W        W94403  11.345  30.113  14.849
33115W        W94404  13.164   3.317   4.816
33116W        W94405  39.377   8.769  12.012
33117W        W94406  28.620  22.705  13.312
33118W        W94407  26.994  43.487  14.785
33119W        W94408  21.236  10.358  14.486
33120W        W94409  24.185  19.633  14.458
33121W        W94410   4.428   5.263  11.582
33122W        W94411  34.110  12.670   4.828
33123W        W94412  25.216  17.757  13.386
33124W        W94413  41.016  11.701  12.848
33125W        W94414  18.155  39.912   0.845
33126W        W94415   6.796  16.198  14.961
33127W        W94416  16.317  35.075   1.767
33128W        W94417  43.908  40.918   3.634
33129W        W94418  25.537  20.040   0.801
33130W        W94419  10.368  19.569   0.390
33131W        W94420  30.114  35.362   3.243
33132W        W94421  38.946   2.330  14.303
33133W        W94422   9.799  10.777   3.233
33134W        W94423  20.177   3.401   5.313
33135W        W94424   3.251  29.560  11.911
33136W        W94425  25.976  19.113  11.557
33137W        W94426  36.068  14.831  11.964
33138W        W94427  37.440   1.976   3.806
33139W        W94428  21.728  13.326  11.948
33140W        W94429  30.565  27.005  10.904
33141W        W94430   5.365  16.106   1.270
33142W        W94431   2.423   5.333  10.633
33143W        W94432   5.910  37.925   4.140
33144W        W94433  19.747   7.750  11.892
33145W        W94434   0.436  36.939   2.743
33146W        W94435  34.387   6.846  13.490
33147W        W94436   8.292  18.708  11.458
33148W        W94437  13.822  35.567  13.502
33149W        W94438  44.967  10.340  13.976
33150W        W94439  25.709  21.100   0.924
33151W        W94440  23.993   2.228   3.721
33152W        W94441  10.245  10.736  12.083
33153W        W94442  24.725   6.760  12.823
33154W        W94443   7.899  41.300  13.376
33155W        W94444   3.710  39.523   3.747
33156W        W94445  43.983  15.113   0.393
33157W        W94446  41.017  37.515  11.396
33158W        W94447  19.243   3.797  14.369
33159W        W94448  42.433  22.033   1.340
33160W        W94449  23.504  34.550   1.377
33161W        W94450  29.145  16.588   0.255
33162W        W94451  38.076  31.943  14.302
33163W        W94452  42.826  41.955   1.271
33164W        W94453  22.220  16.164  12.972
33165W        W94454   7.312  44.446  12.032
33166W        W94455  15.323  40.028  10.957
33167W        W94456  19.777  20.165   1.824
33168W        W94457  16.289   6.830   0.450
33169W        W94458  15.745  30.110  14.322
33170W        W94459  27.015  27.526  11.567
33171W        W94460   2.441  40.396  13.015
33172W        W94461   2.396   9.654   0.381
33173W        W94462  13.134   5.802   2.667
33174W        W94463   7.306  29.170  14.772
33175W        W94464  26.958  29.139   0.873
33176W        W94465  33.941  15.090  10.894
33177W        W94466  18.694   8.689  14.782
33178W        W94467  43.009  43.956   0.296
33179W        W94468  26.034  24.553  10.107
33180W        W94469  24.182   0.338   0.883
33181W        W94470   4.416   7.764  13.490
33182W        W94471  11.723  16.309  11.389
33183W        W94472  24.082   3.828  10.991
33184W        W94473   3.935  26.646   3.745
33185W        W94474  29.487  41.463   5.178
33186W        W94475  20.535  38.031   0.341
33187W        W94476   9.789   9.298  14.331
33188W        W94477  32.000  12.335   2.272
33189W        W94478   1.305  23.728   3.245
33190W        W94479  16.585  42.869   1.237
33191W        W94480  30.587  29.431   0.835
33192W        W94481  33.999   3.720  14.489
33193W        W94482  15.094  17.697   1.838
33194W        W94483  43.868  20.151   1.828
33195W        W94484  37.008  42.936   2.235
33196W        W94485  43.920   9.814   0.836
33197W        W94486  38.933  43.806  12.911
33198W        W94487  35.022  38.367   4.155
33199W        W94488   1.299  37.418  12.443
33200W        W94489  41.925  15.799   3.248
33201W        W94490  41.511  17.712  10.486
33202W        W94491  10.318  20.078   1.331
33203W        W94492  18.132  39.516  12.561
33204W        W94493   4.323  18.758   2.339
33205W        W94494   9.182  11.181  10.908
33206W        W94495  41.531   5.281   1.297
33207W        W94496  38.371  17.617  11.532
33208W        W94497  12.218  10.278   1.301
33209W        W94498  26.984  31.949   3.372
33210W        W94499  21.695  43.819   4.327
33211W        W94500   2.397  32.552  11.960
33212W        W94501   6.215   4.443  11.427
33213W        W94502  28.590   0.410   1.304
33214W        W94503  34.990  21.068  11.469
33215W        W94504  25.026  12.624  11.603
33216W        W94505  32.007   4.418  10.422
33217W        W94506  16.593  20.655   5.089
33218W        W94507  43.385  11.630   3.848
33219W        W94508  10.187   1.304  11.517
33220W        W94509  14.287  15.305   4.679
33221W        W94510  13.289  24.497   3.762
33222W        W94511  36.898  20.710  11.486
33223W        W94512  33.562   3.928   3.723
33224W        W94513  35.439  10.252  14.943
33225W        W94514  11.323  22.576   4.279
33226W        W94515  12.163  21.094   2.187
33227W        W94516  35.481  22.516  14.970
33228W        W94517  32.998  17.639  11.978
33229W        W94518  30.433   9.175  12.027
33230W        W94519  17.069  42.861  10.543
33231W        W94520   2.362  24.700  11.553
33232W        W94521  22.516  27.982  10.130
33233W        W94522  35.498   9.853  11.504
33234W        W94523  29.557  32.571   4.621
33235W        W94524   6.387   6.312  13.527
33236W        W94525  26.487  28.489   3.157
33237W        W94526   7.737  34.112   2.840
33238W        W94527  44.901  39.855  10.597
33239W        W94528   1.341   7.260   3.861
33240W        W94529  12.219  17.735  12.092
33241W        W94530  34.418  12.188   1.712
33242W        W94531  34.434  26.605   2.417
33243W        W94532  27.058  16.203   0.417
33244W        W94533  16.777   0.885   0.300
33245W        W94534  16.612  42.846  13.368
33246W        W94535  40.992  27.462  10.446
33247W        W94536  29.576  35.370  12.920
33248W        W94537  20.130   3.797   3.701
33249W        W94538  21.530  11.830   3.821
33250W        W94539  15.263  33.019  12.543
33251W        W94540  32.595  32.993  12.959
33252W        W94541  37.357  19.757  12.577
33253W        W94542  23.227  19.067  14.808
33254W        W94543  26.617  15.673   5.104
33255W        W94544  37.494  42.812  10.898
33256W        W94545  26.621   9.277   1.779
33257W        W94546  32.030  27.968   1.429
33258W        W94547   3.906  25.012   0.356
33259W        W94548  44.358  16.186   4.245
33260W        W94549  26.494  28.105   4.264
33261W        W94550  21.686  14.255   5.153
33262W        W94551  44.434  41.454   0.742
33263W        W94552  32.430   7.698   1.842
33264W        W94553  41.962  39.012  13.506
33265W        W94554  26.576   6.895   4.743
33266W        W94555  26.176   2.764   3.359
33267W        W94556  40.023  37.431  13.352
33268W        W94557  10.347  30.466   2.328
33269W        W94558  27.593  17.228   3.372
33270W        W94559  19.125  14.115  10.947
33271W        W94560  20.070  24.048  11.063
33272W        W94561  44.297   0.803   3.210
33273W        W94562  39.370  38.976  11.447
33274W        W94563  22.051  21.542  10.071
33275W        W94564  11.195  22.523  12.518
33276W        W94565  26.171  11.328   1.808
33277W        W94566  10.267  15.202   1.299
33278W        W94567   0.399  13.660   4.196
33279W        W94568  33.921   9.271   0.338
33280W        W94569  43.932  31.539  10.450
33281W        W94570   6.306   6.380   1.367
33282W        W94571   7.738   4.277  12.845
33283W        W94572  35.992  34.511  12.543
33284W        W94573  20.733   8.818   4.169
33285W        W94574  11.678  39.912   0.430
33286W        W94575  23.034  31.500  13.908
33287W        W94576  12.333  21.072  13.838
33288W        W94577  34.927  44.766  10.632
33289W        W94578  16.757  42.327   1.440
33290W        W94579  25.509   8.381  11.907
33291W        W94580  21.587  14.255   4.254
33292W        W94581  30.507  21.141  11.415
33293W        W94582  30.060  24.480  10.959
33294W        W94583  29.146  39.407   4.193
33295W        W94584  43.425   2.916   4.229
33296W        W94585   8.825  31.511   2.754
33297W        W94586  32.045  22.216  13.437
33298W        W94587   1.317  18.239  12.345
33299W        W94588  34.422   6.872  14.854
33300W        W94589  29.116  15.665  10.429
33301W        W94590  11.159  12.712   3.162
33302W        W94591   3.802  38.527  14.767
33303W        W94592  40.393  23.020   0.933
33304W        W94593  30.413   6.294   4.736
33305W        W94594  10.310  12.694   4.306
33306W        W94595  15.697  35.915  14.278
33307W        W94596  30.049  11.218  14.423
33308W        W94597  18.589  22.655   0.354
33309W        W94598  36.584  26.138   3.186
33310W        W94599   4.437   0.955  13.975
33311W        W94600  23.695  25.037   3.825
33312W        W94601  27.636  19.239  13.408
33313W        W94602  44.340  10.671  13.512
33314W        W94603  16.646  13.614   2.862
33315W        W94604  23.220  31.123  11.101
33316W        W94605  36.897   0.474  13.548
33317W        W94606   5.245  16.769   4.701
33318W        W94607  25.592  10.325   4.323
33319W        W94608  12.151  38.931   4.151
33320W        W94609   2.225  10.815   3.280
33321W        W94610  30.471  26.189  13.489
33322W        W94611   7.771   2.720  13.381
33323W        W94612  42.386  19.726   1.805
33324W        W94613  15.693  10.826   1.752
33325W        W94614  11.709  18.210   2.270
33326W        W94615  36.902   0.461   1.391
33327W        W94616  37.477  35.047  10.479
33328W        W94617  13.641  32.604  10.516
33329W        W94618  18.571  40.509  10.153
33330W        W94619  24.168  44.949   0.923
33331W        W94620  38.492  14.765   4.129
33332W        W94621  28.467   3.295  11.884
33333W        W94622  41.854  22.688   1.853
33334W        W94623  39.344  33.554  12.036
33335W        W94624   6.343  42.978   9.987
33336W        W94625  38.565  28.993   3.807
33337W        W94626  13.157  32.500   5.211
33338W        W94627   5.342  27.626  11.941
33339W        W94628  42.284  13.677  10.602
33340W        W94629  11.199  20.162  12.033
33341W        W94630  39.014  44.879  12.010
33342W        W94631  27.159  36.945   2.825
33343W        W94632  20.080   2.766  11.090
33344W        W94633   5.917  26.577  14.977
33345W        W94634  32.455  19.084   3.339
33346W        W94635  31.082   3.351   3.806
33347W        W94636  25.000  41.855   3.373
33348W        W94637  39.811  16.150  11.121
33349W        W94638  14.227   0.975   4.315
33350W        W94639  10.781   3.862  11.915
33351W        W94640  43.822  20.155   4.301
33352W        W94641   3.952  35.406  10.521
33353W        W94642  30.616  13.698   3.867
33354W        W94643   2.356  39.401   0.945
33355W        W94644  19.182   0.935   0.252
33356W        W94645  34.380  40.419  14.329
33357W        W94646  25.218  27.520   3.248
33358W        W94647   2.879  27.960   0.271
33359W        W94648  41.787  26.099   0.408
33360W        W94649  44.356  33.416   2.716
33361W        W94650  41.487  40.549  13.850
33362W        W94651  18.073  30.025  13.392
33363W        W94652  24.572  38.922  10.111
33364W        W94653  39.406   3.744   3.274
33365W        W94654  35.406  31.026  14.330
33366W        W94655  43.936  44.758  12.991
33367W        W94656  34.061  21.678   4.274
33368W        W94657  30.957  21.552  14.307
33369W        W94658   8.654   6.233   0.435
33370W        W94659  37.983  29.031  13.902
33371W        W94660  21.532  44.801   4.217
33372W        W94661   0.937   5.877  14.779
33373W        W94662  29.038  14.784  14.463
33374W        W94663  24.107  18.709   3.673
33375W        W94664   0.286  22.207   2.708
33376W        W94665  15.797  26.477   0.857
33377W        W94666  38.424  34.082  12.829
33378W        W94667   4.411  31.102  14.506
33379W        W94668  35.983  30.490  12.459
33380W        W94669  20.187  36.947   4.770
33381W        W94670  26.015  27.953  11.416
33382W        W94671  30.152  19.775  12.343
33383W        W94672  40.874  36.045  12.533
33384W        W94673  19.764  25.470  14.760
33385W        W94674  18.556  30.504   2.308
33386W        W94675   4.859  43.509   1.410
33387W        W94676  17.756  15.171   3.841
33388W        W94677  18.723  16.256  10.985
33389W        W94678  32.098  30.596  12.005
33390W        W94679  40.473  30.654   5.162
33391W        W94680  23.588  21.124  13.984
33392W        W94681  27.068  38.539   4.741
33393W        W94682  18.689   6.265   4.260
33394W        W94683  34.987  38.913  14.032
33395W        W94684  19.265   9.287   2.282
33396W        W94685  43.434  19.618   3.223
33397W        W94686   2.868  12.126  12.898
33398W        W94687   2.429  41.023   3.206
33399W        W94688   7.262  33.977   3.236
33400W        W94689  41.822  18.208  10.159
33401W        W94690  41.954  12.216   1.714
33402W        W94691  32.492  23.112   1.875
33403W        W94692  22.241  23.149   4.726
33404W        W94693  22.033   7.860  11.073
33405W        W94694  37.343  16.612  11.917
33406W        W94695   8.171   6.738  11.934
33407W        W94696  36.926  15.738  10.909
33408W        W94697  24.721   5.339  13.449
33409W        W94698  16.234  36.882   0.766
33410W        W94699  18.605  14.809   0.473
33411W        W94700  19.215  23.157   2.415
33412W        W94701  29.112  19.092  11.886
33413W        W94702  37.530   7.250  14.844
33414W        W94703  14.813  35.896  13.898
33415W        W94704  38.471  44.440  14.935
33416W        W94705  22.601  19.617   4.261
33417W        W94706  10.800  21.584  10.494
33418W        W94707  14.191  15.742  12.955
33419W        W94708  39.490  21.749  12.392
33420W        W94709  33.029  16.597   0.362
33421W        W94710  24.083   6.306  12.524
33422W        W94711  13.334  38.380  13.930
33423W        W94712  36.967   9.668   0.796
33424W        W94713  13.254  39.551   2.307
33425W        W94714  13.681  23.517  11.866
33426W        W94715   8.715  20.655  10.965
33427W        W94716  24.033  38.874   3.739
33428W        W94717  24.526  19.736   5.221
33429W        W94718  39.883  13.785   4.599
33430W        W94719   0.837   7.788   0.403
33431W        W94720  34.119  21.259  10.487
33432W        W94721  19.571  14.337   3.363
33433W        W94722   7.869  13.323  11.025
33434W        W94723   7.904  44.973   0.851
33435W        W94724   9.349  27.448   0.770
33436W        W94725   6.765  36.018   2.847
33437W        W94726   2.877   1.423  14.944
33438W        W94727  12.126  37.359  14.022
33439W        W94728   3.787  32.457  13.422
33440W        W94729   7.185  22.718   4.208
33441W        W94730  39.054  34.042   3.647
33442W        W94731  28.092   3.949   3.849
33443W        W94732   8.767  22.229   4.633
33444W        W94733  29.920  37.067   4.711
33445W        W94734  22.072  30.608   0.798
33446W        W94735   9.227  28.619  12.054
33447W        W94736   1.789  22.543   4.710
33448W        W94737  12.331  43.817  11.608
33449W        W94738  21.731   1.442  12.557
33450W        W94739  27.465  41.799   0.284
33451W        W94740  34.952  15.299   3.777
33452W        W94741  21.680  44.280   1.348
33453W        W94742  39.955   5.697   3.672
33454W        W94743  42.863  38.495   4.270
33455W        W94744  11.170   2.878  12.083
33456W        W94745   3.438  42.431   1.745
33457W        W94746  22.187  22.610  13.503
33458W        W94747  13.759  35.861   2.809
33459W        W94748   4.769   6.792  11.956
33460W        W94749  37.519  25.156  14.365
33461W        W94750  31.550  19.669   4.132
33462W        W94751  30.024  13.299   1.866
33463W        W94752  23.132   0.934   0.335
33464W        W94753  16.773  41.497  14.306
33465W        W94754  10.172   6.387  13.361
33466W        W94755   9.315   0.848   1.753
33467W        W94756  17.097  14.653   1.908
33468W        W94757  38.417  21.590   2.678
33469W        W94758  39.507  13.718   2.784
33470W        W94759   7.856  22.712  12.567
33471W        W94760  34.373  18.100   3.152
33472W        W94761  32.600  25.172   2.895
33473W        W94762  29.944  28.452   3.707
33474W        W94763   4.285  17.667   4.348
33475W        W94764  15.237  14.625   0.903
33476W        W94765  12.146   5.740  14.424
33477W        W94766   7.776  30.964   3.848
33478W        W94767   0.452  26.599  10.619
33479W        W94768  25.972  16.222  10.589
33480W        W94769  29.619  31.955   2.705
33481W        W94770   0.962  24.691  11.462
33482W        W94771  41.839  27.528  11.933
33483W        W94772   2.241   5.769   0.315
33484W        W94773  32.399  10.671  13.319
33485W        W94774  15.230  35.477   0.821
33486W        W94775  23.020  35.496  10.422
33487W        W94776  19.211  42.446  11.530
33488W        W94777  39.861  10.264   1.318
33489W        W94778  43.500   8.702   0.401
33490W        W94779  28.087  16.112   0.759
33491W        W94780  44.773  13.132   4.133
33492W        W94781   3.780   9.314   0.468
33493W        W94782   2.913  28.975  11.040
33494W        W94783   2.287  31.085  10.993
33495W        W94784   8.335   3.926   2.409
33496W        W94785  27.176  12.265  11.055
33497W        W94786  14.609  37.040  14.294
33498W        W94787  33.879   6.854   1.817
33499W        W94788  40.422   3.808   1.758
33500W        W94789  15.103  22.627   2.842
33501W        W94790  41.446  37.402  13.016
33502W        W94791   4.738  24.026  11.454
33503W        W94792  30.019  27.600  11.470
33504W        W94793  16.288  18.574   2.263
33505W        W94794  10.179  44.856  10.563
33506W        W94795  24.679  20.229   2.339
33507W        W94796  12.659  21.109  12.472
33508W        W94797  24.178  33.954  13.961
33509W        W94798  41.818  44.382   3.347
33510W        W94799  31.401   1.433  12.366
33511W        W94800  33.566  26.047  11.431
33512W        W94801   9.688  15.649   1.779
33513W        W94802  33.514   4.260  11.985
33514W        W94803  24.594  36.422   1.349
33515W        W94804  25.628   2.295  14.878
33516W        W94805  16.083  23.542  12.958
33517W        W94806  32.429  25.629   0.454
33518W        W94807   7.707   9.681   4.755
33519W        W94808  37.897  23.082   4.307
33520W        W94809  19.534  29.951  13.369
33521W        W94810  43.277   8.868  12.859
33522W        W94811  25.655   8.693   1.366
33523W        W94812  16.262  32.976   1.252
33524W        W94813  19.623   0.767   0.446
33525W        W94814  43.472   9.857  13.044
33526W        W94815  38.883  26.108   2.667
33527W        W94816  22.697  21.213  13.516
33528W        W94817  18.587   3.220   0.860
33529W        W94818  20.161   2.355   0.458
33530W        W94819  15.287  27.972  12.539
33531W        W94820  30.517   8.363   1.435
33532W        W94821  10.721   1.901   0.377
33533W        W94822  14.097  26.681   1.881
33534W        W94823  23.119   3.922  12.015
33535W        W94824  24.230  32.507   0.258
33536W        W94825  12.754  24.488   4.696
33537W        W94826  24.516  14.121  10.447
33538W        W94827  28.484  17.128   4.733
33539W        W94828  27.962  20.525   3.205
33540W        W94829   0.459  20.628  10.447
33541W        W94830   4.382   9.822  11.588
33542W        W94831   7.387  36.012   1.365
33543W        W94832  39.895  30.027  14.798
33544W        W94833  40.523  37.848  13.365
33545W        W94834  38.405  31.549   0.964
33546W        W94835  12.820   9.376  11.088
33547W        W94836   6.335  17.073  13.357
33548W        W94837  30.917  36.387  13.816
33549W        W94838  17.255  29.549   3.743
33550W        W94839  16.589  35.038   2.703
33551W        W94840  43.908  10.236  13.958
33552W        W94841  16.781  40.970   4.184
33553W        W94842  39.522   3.366   5.178
33554W        W94843  34.456  36.967  13.415
33555W        W94844  28.609   7.195  13.050
33556W        W94845   6.326  15.281   1.315
33557W        W94846  20.606  43.875  12.526
33558W        W94847  10.219  26.664   4.280
33559W        W94848   7.685   3.774   0.441
33560W        W94849  14.318  17.204  12.557
33561W        W94850  10.346  27.966   5.115
33562W        W94851  11.297  23.999  13.421
33563W        W94852  28.447  31.481  14.821
33564W        W94853  31.905  18.705   4.809
33565W        W94854  16.704  40.860  14.313
33566W        W94855  43.975   8.676   3.717
33567W        W94856  21.168  33.089   1.283
33568W        W94857  43.996   4.934  10.998
33569W        W94858   1.455  31.049   0.461
33570W        W94859  14.663  19.715  14.808
33571W        W94860   5.913  21.702   0.892
33572W        W94861  26.035  12.815  10.622
33573W        W94862  33.970  20.148   0.465
33574W        W94863  10.665  42.501   3.667
33575W        W94864  36.903   5.356   1.399
33576W        W94865  35.410   7.699  10.440
33577W        W94866   3.712  24.137   5.793
33578W        W94867  38.353  17.775   3.664
33579W        W94868  29.475  44.307   2.250
33580W        W94869  38.339  11.305   1.928
33581W        W94870  29.095  44.772   0.339
33582W        W94871  42.890  14.602  10.998
33583W        W94872  44.006  32.059  10.465
33584W        W94873  10.706  20.737  11.024
33585W        W94874  31.042  24.621   3.662
33586W        W94875   3.262   2.723  12.557
33587W        W94876  14.799   7.282  10.895
33588W        W94877  31.993  26.650  12.854
33589W        W94878   1.902  26.612   1.805
33590W        W94879  25.489  22.052   2.203
33591W        W94880  29.560   7.846   2.854
33592W        W94881  39.891  42.872  11.892
33593W        W94882  40.332  12.237   3.851
33594W        W94883  24.155  33.088   3.771
33595W        W94884   0.460  27.942   0.442
33596W        W94885  14.744  11.728  11.559
33597W        W94886  11.288  29.609   3.256
33598W        W94887  11.264  36.963   1.216
33599W        W94888  41.012  16.734  11.981
33600W        W94889  36.586   2.802  10.471
33601W        W94890  14.258  25.695  11.586
33602W        W94891  38.866  43.008  12.889
33603W        W94892  20.652  40.910  10.553
33604W        W94893  11.247   0.859  13.926
33605W        W94894  33.497  31.570  11.862
33606W        W94895  24.594   8.842  14.482
33607W        W94896  24.494   6.714  14.827
33608W        W94897  43.497  36.413   3.842
33609W        W94898  18.681   0.359  10.073
33610W        W94899   6.269  36.892   0.299
33611W        W94900  21.124  35.036   3.635
33612W        W94901  23.194  38.001   4.194
33613W        W94902   3.784  32.395  13.897
33614W        W94903  28.625  39.028  12.421
33615W        W94904   7.725  16.792  12.388
33616W        W94905  44.990  35.431   4.245
33617W        W94906   5.825  28.110   1.904
33618W        W94907  40.318   7.869  13.904
33619W        W94908  40.906  40.512   4.804
33620W        W94909  41.323  34.519   2.301
33621W        W94910  23.998  17.737   3.334
33622W        W94911  40.973  44.328   1.244
33623W        W94912  14.271  35.428  13.926
33624W        W94913  29.467  29.086   3.206
33625W        W94914  37.998   0.834   3.267
33626W        W94915  35.448  17.158  13.952
33627W        W94916  21.218  23.517  14.977
33628W        W94917   3.290  16.311  12.075
33629W        W94918  44.310  10.154   2.898
33630W        W94919  19.126  44.984   0.346
33631W        W94920   2.752   8.840  10.607
33632W        W94921   2.736  43.883  11.103
33633W        W94922  10.151  37.994  11.583
33634W        W94923   0.273  43.825  13.346
33635W        W94924   9.761   3.327   4.350
33636W        W94925  41.883  18.546   0.447
33637W        W94926   7.825   0.273   0.883
33638W        W94927  39.859  16.644   5.320
33639W        W94928  13.723   9.386  11.430
33640W        W94929  28.633  33.946  12.546
33641W        W94930  23.119  36.953  13.541
33642W        W94931   4.399  17.108   1.241
33643W        W94932  41.942   1.918  10.156
33644W        W94933  28.655   5.209  13.063
33645W        W94934  34.509  22.646   0.882
33646W        W94935  35.587   0.267   2.413
33647W        W94936  33.944  37.461  13.489
33648W        W94937   4.837  27.056   0.910
33649W        W94938  42.944   6.285   0.950
33650W        W94939  23.985  14.212   4.794
33651W        W94940  12.293  38.900   1.250
33652W        W94941  10.690  36.887  11.946
33653W        W94942  31.458  36.403   4.752
33654W        W94943  28.568  25.004   3.650
33655W        W94944  15.293  38.917  10.910
33656W        W94945  31.907  22.747  11.898
33657W        W94946  36.955  36.517   1.333
33658W        W94947  11.640  38.571  10.410
33659W        W94948  19.205   0.786  11.597
33660W        W94949  19.057  23.677  13.821
33661W        W94950  15.668   7.813  11.018
33662W        W94951  37.921  10.862  12.470
33663W        W94952   3.748  16.777   3.193
33664W        W94953  11.727  25.512   3.688
33665W        W94954  34.397  24.996   4.242
33666W        W94955  31.563  17.069  13.933
33667W        W94956  44.829  35.437   0.841
33668W        W94957  32.121  36.959   4.648
33669W        W94958  28.149   4.751  11.092
33670W        W94959  40.524  30.570  11.964
33671W        W94960  39.913  44.342  10.645
33672W        W94961   7.221  21.549   2.226
33673W        W94962  25.077  20.184   4.666
33674W        W94963  13.838  38.341  10.158
33675W        W94964  42.425  20.199   1.775
33676W        W94965  29.121  44.942   2.182
33677W        W94966  42.941  14.263   0.410
33678W        W94967  32.522  16.661  14.767
33679W        W94968   4.897   1.454  13.060
33680W        W94969   6.289  23.167   1.263
33681W        W94970  23.025   5.355  12.072
33682W        W94971   6.397  31.919  10.616
33683W        W94972  22.704  38.350  10.455
33684W        W94973   9.228  18.216   1.730
33685W        W94974  40.432  14.162   0.866
33686W        W94975  10.316  36.082  12.550
33687W        W94976  21.518  21.711   9.502
33688W        W94977   2.455  17.298  11.556
33689W        W94978  40.414  32.958  12.512
33690W        W94979  10.191  33.998   3.343
33691W        W94980  42.294  16.679   9.972
33692W        W94981  24.503  30.119   0.822
33693W        W94982  12.278  39.849  11.879
33694W        W94983  43.470   6.426   3.715
33695W        W94984   9.167   1.386   0.321
33696W        W94985  29.087  27.002  12.830
33697W        W94986  27.599  23.228  12.042
33698W        W94987  32.092  35.368  13.383
33699W        W94988  10.851  38.021   2.699
33700W        W94989  13.252  35.021  12.432
33701W        W94990   9.330  18.189  13.543
33702W        W94991  43.994  10.745  11.870
33703W        W94992  42.374   7.265  12.885
33704W        W94993   2.248  12.133  11.609
33705W        W94994  22.182  18.620   0.389
33706W        W94995   2.854   9.856   2.405
33707W        W94996  41.815   5.303   0.790
33708W        W94997  39.473  38.407  13.944
33709W        W94998   4.833  10.639  10.466
33710W        W94999  39.005  25.112   4.346
33711W        W95000  24.216  36.027   0.788
33712W        W95001  28.001  14.609  12.975
33713W        W95002  36.982  10.326  14.816
33714W        W95003  32.940  13.133   4.318
33715W        W95004  25.057  17.162  14.351
33716W        W95005  12.664  32.962   4.195
33717W        W95006   3.287  31.621  11.889
33718W        W95007  28.936  37.451  10.559
33719W        W95008  43.850  41.303  14.857
33720W        W95009  18.186  35.436  10.574
33721W        W95010  25.161  31.569  11.870
33722W        W95011  22.227  29.485  12.401
33723W        W95012  16.790  42.458   3.821
33724W        W95013   1.933  15.584  13.024
33725W        W95014  28.937  24.063  13.392
33726W        W95015  11.825   3.868   3.297
33727W        W95016  18.294  23.564   3.159
33728W        W95017  34.369  29.124  14.989
33729W        W95018  19.244   6.836   2.754
33730W        W95019  18.699  41.926   3.196
33731W        W95020   2.757  29.088   0.761
33732W        W95021   7.739  12.278  10.952
33733W        W95022   5.888  25.611  12.352
33734W        W95023  10.845  10.694  13.458
33735W        W95024  14.773   3.946  10.013
33736W        W95025   3.911  28.674  11.408
33737W        W95026   1.834  42.430   0.298
33738W        W95027  38.020  25.503   4.714
33739W        W95028  14.236  18.619  12.412
33740W        W95029  26.496  15.211   0.470
33741W        W95030   3.330  30.085  10.894
33742W        W95031   6.312   8.242  14.771
33743W        W95032  26.457   2.372  11.959
33744W        W95033  40.850  13.714  12.928
33745W        W95034  41.799  22.746   2.292
33746W        W95035  32.415  19.544   4.162
33747W        W95036  28.516  18.149  12.913
33748W        W95037  22.079   0.358   1.344
33749W        W95038   4.214   8.772  12.982
33750W        W95039  38.969   9.877  10.468
33751W        W95040  33.033  44.274   2.845
33752W        W95041  43.392   6.359  10.980
33753W        W95042  21.236  41.496   5.256
33754W        W95043  29.665  23.559   0.929
33755W        W95044  41.020  36.084  10.933
33756W        W95045  40.817  36.913   3.304
33757W        W95046   2.286  21.617  12.014
33758W        W95047  32.604   4.826  12.074
33759W        W95048  21.634  22.165   2.411
33760W        W95049  16.076  22.123  11.546
33761W        W95050  23.193  13.815   1.400
33762W        W95051  43.900  34.884  11.474
33763W        W95052  10.145  29.602  12.833
33764W        W95053   2.883  22.130  11.047
33765W        W95054  19.533   3.261  13.353
33766W        W95055  22.136  41.312  13.379
33767W        W95056  12.719  26.625  13.410
33768W        W95057  25.547  16.649   2.750
33769W        W95058  24.127  38.523  13.384
33770W        W95059  39.964   0.453   1.411
33771W        W95060  16.233  27.117  11.495
33772W        W95061  10.664  36.036  12.051
33773W        W95062   6.381  15.804  12.440
33774W        W95063  30.161  35.953  12.834
33775W        W95064  32.521  36.438  12.544
33776W        W95065  14.767  32.059  12.903
33777W        W95066  14.317  43.786  14.015
33778W        W95067  12.753  37.437   2.868
33779W        W95068  13.196   7.759   3.366
33780W        W95069  28.474  21.558   2.296
33781W        W95070  22.110  17.573   0.766
33782W        W95071  24.545  34.099  10.586
33783W        W95072  20.235  39.393  12.344
33784W        W95073  22.631  44.426  13.889
33785W        W95074  14.734  17.744  10.472
33786W        W95075  17.618  35.942  10.970
33787W        W95076  15.128  20.544  13.849
33788W        W95077  21.032  22.062   3.194
33789W        W95078   4.348  44.871  14.980
33790W        W95079   6.328   0.863  13.969
33791W        W95080  16.708  37.470   3.310
33792W        W95081  36.854  25.595   2.394
33793W        W95082  43.317  27.093   2.277
33794W        W95083   4.943  39.941   4.754
33795W        W95084  28.933  42.332  11.014
33796W        W95085   6.695  16.638  14.283
33797W        W95086  29.963  27.578  11.035
33798W        W95087  11.151  18.213   1.333
33799W        W95088  29.128  40.419   1.772
33800W        W95089  39.860  12.623  13.402
33801W        W95090   5.355  27.008  13.855
33802W        W95091   9.752  33.619   2.691
33803W        W95092  42.899   4.355  12.051
33804W        W95093  21.582  41.395  13.340
33805W        W95094  16.258  16.162   0.928
33806W        W95095  37.435  21.095  12.881
33807W        W95096   5.742  14.697  11.014
33808W        W95097  27.048  36.080   3.710
33809W        W95098  16.740  17.126  13.504
33810W        W95099  35.386  30.931  11.962
33811W        W95100  29.008  36.025   3.786
33812W        W95101  42.831  39.519  11.026
33813W        W95102  16.274  29.992  10.535
33814W        W95103  33.576  41.500  14.419
33815W        W95104   3.239   4.832   1.431
33816W        W95105  27.981  39.360   4.698
33817W        W95106   7.872  34.046   1.262
33818W        W95107  31.011  36.953  13.996
33819W        W95108  32.132  32.918  11.385
33820W        W95109   3.950   5.731   1.426
33821W        W95110  31.523  25.685   3.705
33822W        W95111  35.107  44.006  11.973
33823W        W95112  24.680  41.359   4.242
33824W        W95113  31.921  31.074   4.286
33825W        W95114  25.145  20.037  13.969
33826W        W95115  42.896  23.090  12.421
33827W        W95116  18.271  39.857  11.025
33828W        W95117   8.261  33.076  12.834
33829W        W95118   8.765  12.649  10.111
33830W        W95119  32.401  16.126   1.366
33831W        W95120   1.794  28.945   3.258
33832W        W95121  43.889  20.241  14.986
33833W        W95122   2.345   3.801  11.093
33834W        W95123  19.168  41.940   2.339
33835W        W95124  40.878   4.374   1.806
33836W        W95125   7.359  21.147  12.846
33837W        W95126  33.478   8.223  12.036
33838W        W95127  22.115  18.640   4.638
33839W        W95128  42.406  23.029  11.981
33840W        W95129   8.333  39.469  10.425
33841W        W95130  32.541  31.412   2.329
33842W        W95131  27.583  38.557   1.360
33843W        W95132  34.985  34.468   3.260
33844W        W95133  15.227   3.292  11.553
33845W        W95134  37.449  41.383   1.372
33846W        W95135  29.162  36.523   0.835
33847W        W95136   3.235  16.727  11.611
33848W        W95137   7.763  40.403   4.182
33849W        W95138  24.485  41.434  14.841
33850W        W95139  39.343  25.691   4.685
33851W        W95140  23.144  22.202  12.035
33852W        W95141  19.176  40.051   1.754
33853W        W95142  11.767  12.288   2.677
33854W        W95143  25.509  37.050   2.881
33855W        W95144   7.276  36.545  14.895
33856W        W95145  20.045  20.167  13.359
33857W        W95146  10.863  13.728   4.792
33858W        W95147  23.645   1.452   4.749
33859W        W95148   8.818  26.014   1.786
33860W        W95149   0.771  19.130   4.637
33861W        W95150  12.784  14.336   0.879
33862W        W95151   3.752   7.871  14.991
33863W        W95152  30.968  31.458   0.308
33864W        W95153  33.581  24.067  13.355
33865W        W95154   0.789  41.387  10.439
33866W        W95155   6.190   8.357   4.816
33867W        W95156  17.265  43.349   4.736
33868W        W95157  42.962  26.987  11.047
33869W        W95158  27.595  16.575  14.875
33870W        W95159  32.416  20.755  14.838
33871W        W95160  15.767  17.143  10.626
33872W        W95161   2.408  21.094  10.445
33873W        W95162  30.522  28.009   0.267
33874W        W95163  44.499  22.653   9.937
33875W        W95164  18.759  25.181   0.408
33876W        W95165  26.111  40.047   2.715
33877W        W95166  22.716  25.215  11.410
33878W        W95167  12.833  15.230   2.898
33879W        W95168  26.605  40.490   0.956
33880W        W95169  44.503   8.707   3.820
33881W        W95170  19.645  12.361   3.834
33882W        W95171  15.259  39.330  11.963
33883W        W95172  10.291  17.600  10.564
33884W        W95173  42.507  38.491  11.107
33885W        W95174   5.377  37.420   9.966
33886W        W95175  14.148  38.935   0.325
33887W        W95176  14.755  36.963  12.047
33888W        W95177   4.856   2.467  11.586
33889W        W95178  10.702  22.575  13.372
33890W        W95179  30.049  41.982  12.530
33891W        W95180  36.566  15.120   0.828
33892W        W95181  40.813   7.214  13.858
33893W        W95182   7.319  10.700  11.590
33894W        W95183  15.083   5.429  13.878
33895W        W95184  27.534  24.480   2.849
33896W        W95185  27.534  32.453  11.122
33897W        W95186   3.254  30.044  14.957
33898W        W95187  30.429  12.610   0.376
33899W        W95188  21.045  19.537   3.642
33900W        W95189  32.547   2.318  12.358
33901W        W95190  44.287  44.817   4.160
33902W        W95191   8.214  18.571   1.385
33903W        W95192   5.398  24.154   2.417
33904W        W95193  12.744  18.205  10.929
33905W        W95194  43.808  34.871  10.600
33906W        W95195  36.086  20.227   1.427
33907W        W95196  28.633   1.899  10.414
33908W        W95197  22.627  30.562   1.763
33909W        W95198  27.987  44.966  12.552
33910W        W95199  34.969  39.339  11.092
33911W        W95200  28.932  28.465   0.832
33912W        W95201  38.045  24.692   4.833
33913W        W95202  36.055  36.098  12.892
33914W        W95203   9.771  13.824   2.742
33915W        W95204  32.473  20.258  14.320
33916W        W95205  33.558   8.720   1.410
33917W        W95206   2.744  34.907  12.460
33918W        W95207  38.873   2.425   1.826
33919W        W95208  17.745   2.401   1.262
33920W        W95209  23.718   4.407   4.165
33921W        W95210   7.857   8.303  13.925
33922W        W95211  29.031  20.640   3.251
33923W        W95212  29.934   9.199  11.017
33924W        W95213  36.522  41.954   0.462
33925W        W95214  11.773  16.110   2.302
33926W        W95215  19.059  40.808   4.666
33927W        W95216  35.415  43.805   4.753
33928W        W95217  23.063  36.995  13.898
33929W        W95218  14.202   5.810   1.814
33930W        W95219  12.766  27.668   2.759
33931W        W95220  38.381   1.892  13.388
33932W        W95221  10.165   8.657   0.837
33933W        W95222   9.652  26.605   2.240
33934W        W95223  13.235  40.322  12.413
33935W        W95224  14.651  23.716  11.957
33936W        W95225  35.453  16.231   4.115
33937W        W95226  23.617  19.664  12.916
33938W        W95227  10.877  29.099  13.846
33939W        W95228  38.438   1.903  12.381
33940W        W95229  44.811   9.741  11.900
33941W        W95230  36.408  16.567  14.490
33942W        W95231  31.115  36.504   1.776
33943W        W95232  29.624  20.100   1.289
33944W        W95233  34.885  38.970  12.456
33945W        W95234  26.620  32.509  11.379
33946W        W95235  34.399  12.743   4.703
33947W        W95236  40.427   4.373  14.021
33948W        W95237  40.882  39.969   2.669
33949W        W95238  34.916  29.544  11.020
33950W        W95239  36.577  29.646   4.815
33951W        W95240   4.900   7.213   2.410
33952W        W95241  11.360   6.236  10.601
33953W        W95242  23.541  26.995  12.049
33954W        W95243  31.588  42.958  10.508
33955W        W95244  30.520  21.539  12.388
33956W        W95245   7.890  26.593  11.082
33957W        W95246   1.332  15.785   2.797
33958W        W95247   7.756   5.343  10.942
33959W        W95248  24.131   2.336  11.463
33960W        W95249  33.579  32.925   1.840
33961W        W95250   4.238   4.224   4.142
33962W        W95251  29.439   1.795   1.818
33963W        W95252  42.367  30.961   3.307
33964W        W95253  28.165  43.476  11.601
33965W        W95254  43.335   0.350  13.347
33966W        W95255  33.549  30.554   1.786
33967W        W95256  36.568  13.295  14.286
33968W        W95257  36.407  22.196  13.480
33969W        W95258   5.213  39.975  12.492
33970W        W95259  29.587  27.460  13.893
33971W        W95260  26.988  35.506   3.162
33972W        W95261  29.523  14.189  14.339
33973W        W95262  25.572   5.417  12.550
33974W        W95263  26.997  34.529   4.116
33975W        W95264  44.875  19.177  14.355
33976W        W95265  28.967  35.560   3.689
33977W        W95266  21.121  23.031   4.712
33978W        W95267  32.027  39.500   2.711
33979W        W95268  39.064  40.948  14.805
33980W        W95269  13.327  17.678   2.805
33981W        W95270  16.135  41.534  14.835
33982W        W95271  20.147  41.519  12.864
33983W        W95272  25.139   2.304   2.320
33984W        W95273  15.658  19.577  10.970
33985W        W95274   9.661  44.339  10.124
33986W        W95275  39.046  27.623  13.997
33987W        W95276  17.080  22.685   5.140
33988W        W95277  30.964  43.775  12.034
33989W        W95278  10.358  19.764  12.855
33990W        W95279   1.975   2.850   4.740
33991W        W95280  11.746  23.167   3.335
33992W        W95281  30.907  13.131  10.999
33993W        W95282  17.215   4.306   3.314
33994W        W95283   4.744   1.412   4.131
33995W        W95284  14.669  34.915   4.267
33996W        W95285  44.929   3.723   1.722
33997W        W95286  31.490  23.690  14.341
33998W        W95287  37.502  14.808   2.790
33999W        W95288  13.833  44.967   3.326
34000W        W95289  19.566  34.610  11.085
34001W        W95290  30.126  27.603   4.309
34002W        W95291  33.551  22.540   0.332
34003W        W95292  22.216   2.733  11.009
34004W        W95293   9.819  12.198   3.341
34005W        W95294  10.145  36.891  11.400
34006W        W95295  27.982  15.581   1.436
34007W        W95296  13.146  23.063  11.507
34008W        W95297  10.746  27.998  14.899
34009W        W95298  30.040  13.620   0.818
34010W        W95299  32.412  19.231  11.485
34011W        W95300  19.125  36.567   0.815
34012W        W95301  11.287  36.481   4.341
34013W        W95302   7.375   4.303   3.821
34014W        W95303  31.932  31.492   3.300
34015W        W95304  34.475  23.161   0.345
34016W        W95305  15.116  19.716   0.926
34017W        W95306  25.964  38.864   4.664
34018W        W95307  19.051   9.264   3.332
34019W        W95308  33.117   3.909  12.375
34020W        W95309  17.565  32.438  14.968
34021W        W95310  42.497  43.965   4.126
34022W        W95311  13.309   2.434  12.378
34023W        W95312  16.708   2.314   3.812
34024W        W95313  10.738  27.601   3.652
34025W        W95314  26.078   0.477  11.940
34026W        W95315   9.153  30.613  10.645
34027W        W95316  27.005  36.957   1.365
34028W        W95317  43.979  16.099   3.146
34029W        W95318  41.477  31.952  13.877
34030W        W95319   8.719   1.249   1.934
34031W        W95320  25.486  39.400  11.431
34032W        W95321  24.709  28.505   4.610
34033W        W95322  26.162  20.625  12.067
34034W        W95323  23.071  19.217   3.864
34035W        W95324  33.531  22.582   2.185
34036W        W95325   8.300   7.384   1.905
34037W        W95326  11.774  35.375   4.162
34038W        W95327   1.367  27.543  14.974
34039W        W95328  37.940  16.242  12.565
34040W        W95329  12.782  40.859  12.949
34041W        W95330  25.055   7.196   0.957
34042W        W95331  31.420  26.619   0.398
34043W        W95332   3.950  37.084   2.282
34044W        W95333  43.897  13.196   2.743
34045W        W95334  20.679  40.971   3.339
34046W        W95335  20.670  39.886   4.799
34047W        W95336  14.730   9.230   1.880
34048W        W95337   7.701   0.468   3.158
34049W        W95338  14.773   8.327   3.282
34050W        W95339  31.545  42.955   0.403
34051W        W95340  41.840  10.311  11.384
34052W        W95341  12.724  32.110  13.324
34053W        W95342  23.696  21.041   2.313
34054W        W95343  25.190   3.333  13.837
34055W        W95344  16.079  39.556   1.785
34056W        W95345  24.042  16.579  10.596
34057W        W95346  42.831  33.591  13.969
34058W        W95347  42.349  31.991   3.268
34059W        W95348  15.263  33.987   2.814
34060W        W95349  44.320  20.036   4.716
34061W        W95350  25.187   0.422   3.716
34062W        W95351  44.440  40.984   0.819
34063W        W95352  33.601   8.822  12.447
34064W        W95353  25.025  11.366   1.362
34065W        W95354  13.169  15.144  14.482
34066W        W95355  17.220   3.903  10.470
34067W        W95356  17.716   4.320   0.319
34068W        W95357  38.935  34.071   1.290
34069W        W95358   3.363  44.263   1.275
34070W        W95359  26.052  18.202   0.344
34071W        W95360   1.329   2.871   0.897
34072W        W95361  37.526  29.042  10.960
34073W        W95362   7.799   0.844   1.850
34074W        W95363  43.981  21.555  10.999
34075W        W95364   4.928  10.382  13.879
34076W        W95365  30.123   9.744   5.776
34077W        W95366  22.238  25.601   3.791
34078W        W95367  36.560  35.087  10.969
34079W        W95368  29.648  29.998   0.324
34080W        W95369  42.311  27.044   3.164
34081W        W95370  41.806  28.943   2.889
34082W        W95371   6.296   3.793  10.601
34083W        W95372  37.920  34.411   2.408
34084W        W95373  32.981  17.186  10.627
34085W        W95374  42.792  36.536  13.048
34086W        W95375   2.404  25.670  11.453
34087W        W95376  30.547  32.403   2.235
34088W        W95377  25.714  10.271   0.807
34089W        W95378  36.913   2.361  10.985
34090W        W95379  15.784  33.497  10.437
34091W        W95380  24.001  40.967   1.269
34092W        W95381  36.069  33.894   4.620
34093W        W95382   4.717  42.821   9.972
34094W        W95383  13.199   2.393   1.863
34095W        W95384  29.936  16.229   1.848
34096W        W95385  34.963  19.596  11.569
34097W        W95386  37.441  16.776  10.128
34098W        W95387   4.305  13.709  14.010
34099W        W95388  10.701   5.318  14.001
34100W        W95389  29.995  16.798  10.949
34101W        W95390  10.379  16.213  11.094
34102W        W95391  33.111  29.082   0.732
34103W        W95392  36.917  35.966  13.317
34104W        W95393  16.208  29.487   4.764
34105W        W95394   1.835  16.091  13.876
34106W        W95395  38.938  30.652  13.391
34107W        W95396  22.678  26.592   4.345
34108W        W95397  38.329  26.964  12.042
34109W        W95398  33.435  38.843   0.952
34110W        W95399  26.577  11.173  10.888
34111W        W95400  35.600  44.803  10.950
34112W        W95401  28.169  31.427  13.052
34113W        W95402  33.592  36.960  14.888
34114W        W95403  17.293  24.174   2.295
34115W        W95404  27.630  15.580   1.755
34116W        W95405  14.199  42.011  11.915
34117W        W95406  13.305  41.402  10.475
34118W        W95407  33.543  18.578  13.501
34119W        W95408  21.175  42.473  11.978
34120W        W95409  17.681  43.001  13.372
34121W        W95410  18.713  31.992  10.610
34122W        W95411  32.953  12.678   1.257
34123W        W95412  42.905  40.485   0.350
34124W        W95413  36.845  39.335   3.672
34125W        W95414  32.434  25.051  11.928
34126W        W95415  28.482  35.604  10.525
34127W        W95416  37.964  20.599   2.727
34128W        W95417   8.801  10.267  11.429
34129W        W95418  30.421  40.525   2.349
34130W        W95419  25.592  17.225  12.026
34131W        W95420  38.346  29.442  13.529
34132W        W95421  15.762  39.986  14.438
34133W        W95422  41.895  36.844  11.414
34134W        W95423  36.887  30.969   0.266
34135W        W95424  34.381  37.895  12.386
34136W        W95425  15.603  31.444  14.763
34137W        W95426  41.958  44.323   1.916
34138W        W95427  33.110   0.756   4.262
34139W        W95428  35.927  40.974   4.817
34140W        W95429   0.838  31.146  11.919
34141W        W95430  27.987  26.529  11.453
34142W        W95431  10.756  14.218  11.455
34143W        W95432  16.643   8.706  10.442
34144W        W95433  23.720  33.935   4.713
34145W        W95434  31.920  40.518   0.271
34146W        W95435  35.480  23.642   0.251
34147W        W95436  10.799  41.883  13.386
34148W        W95437  37.556  32.058  14.413
34149W        W95438  26.678  21.059   1.913
34150W        W95439  31.616  12.631  13.435
34151W        W95440   3.953   1.852  14.372
34152W        W95441  40.855  13.337   1.924
34153W        W95442  33.027  37.560  12.535
34154W        W95443  23.086  12.754   3.733
34155W        W95444  43.012  44.905   0.480
34156W        W95445  36.057   5.426   3.719
34157W        W95446  34.498  14.705  14.498
34158W        W95447  40.402  38.826   0.867
34159W        W95448   6.202  12.715   1.710
34160W        W95449   0.486  24.506  12.892
34161W        W95450   8.877  29.151  12.554
34162W        W95451   7.721  31.583   0.385
34163W        W95452  31.591  44.465   0.758
34164W        W95453  41.984   3.756   3.776
34165W        W95454  34.013  36.954   2.293
34166W        W95455  32.885  40.469   4.315
34167W        W95456  30.551  44.906  13.362
34168W        W95457  31.055  13.813   1.840
34169W        W95458   1.371  25.002   2.207
34170W        W95459  24.223  31.152  12.017
34171W        W95460  12.788  35.574  13.322
34172W        W95461   3.893  34.055  10.978
34173W        W95462  40.435  24.035   1.285
34174W        W95463  43.887   6.837  13.970
34175W        W95464  35.937  15.590  14.495
34176W        W95465  36.576  40.385  12.059
34177W        W95466  43.340  35.466  14.929
34178W        W95467   4.813  10.180   1.752
34179W        W95468  42.519  15.677   3.275
34180W        W95469  38.963  19.576  12.417
34181W        W95470  44.412   0.818  12.832
34182W        W95471   8.779  40.308  13.836
34183W        W95472  40.895   4.817   4.115
34184W        W95473  33.988  42.341   1.696
34185W        W95474   0.320  15.200   1.397
34186W        W95475   5.863  35.509   1.373
34187W        W95476  26.203  27.046  13.526
34188W        W95477  24.161  34.924   3.365
34189W        W95478  31.124  35.898   4.258
34190W        W95479  23.652  24.484   2.184
34191W        W95480  24.053  15.668  13.833
34192W        W95481  16.173  29.574   1.718
34193W        W95482  33.551   1.878   0.747
34194W        W95483   9.883  39.525  11.862
34195W        W95484  41.886   2.963  12.450
34196W        W95485  44.347  39.513   0.780
34197W        W95486   0.923  40.038  14.779
34198W        W95487  39.370  34.050   0.383
34199W        W95488  18.100  26.994   3.784
34200W        W95489  42.506  20.665  10.538
34201W        W95490  42.786   6.274   3.671
34202W        W95491  23.192   4.344  13.513
34203W        W95492  40.044  31.148   2.667
34204W        W95493   5.732  24.590  11.950
34205W        W95494  22.126   4.308  11.401
34206W        W95495  44.792  21.180  14.791
34207W        W95496  40.506  34.916  13.833
34208W        W95497  41.481   9.695   2.272
34209W        W95498  10.634  17.667  12.514
34210W        W95499  29.618  42.806   0.918
34211W        W95500  12.340  31.469   1.268
34212W        W95501  25.191  14.096  11.958
34213W        W95502   2.764   1.922   3.332
34214W        W95503  42.912  32.603   2.410
34215W        W95504  28.593  23.159  12.079
34216W        W95505  31.530  19.207   3.779
34217W        W95506   7.341   2.951  12.089
34218W        W95507  29.115   8.265  12.912
34219W        W95508   1.282  21.581  11.494
34220W        W95509  40.316  40.861   3.868
34221W        W95510  28.651   9.815  11.390
34222W        W95511  25.598  22.568   0.350
34223W        W95512  37.974  23.731  14.761
34224W        W95513  43.015  27.178   2.403
34225W        W95514  20.673   5.240  12.380
34226W        W95515  32.504   6.188   0.915
34227W        W95516  17.742  14.165  12.505
34228W        W95517  41.499  18.751  12.056
34229W        W95518  38.017  30.107   4.206
34230W        W95519   4.286   8.389  11.372
34231W        W95520  28.005  38.957   1.797
34232W        W95521  32.983  38.497  13.328
34233W        W95522  36.079   4.292   0.245
34234W        W95523  31.645  27.183   0.375
34235W        W95524  40.305  35.404   0.284
34236W        W95525  25.024  24.990  12.928
34237W        W95526  19.277  25.031   4.188
34238W        W95527  36.521   8.339  14.761
34239W        W95528   7.882  38.029  13.337
34240W        W95529   5.230  30.539   4.143
34241W        W95530  44.373  23.609   3.786
34242W        W95531  20.061  29.576   1.823
34243W        W95532   4.273  30.082   3.775
34244W        W95533  22.132   7.671  12.842
34245W        W95534  13.218  33.535  11.453
34246W        W95535  41.495  22.613  14.287
34247W        W95536  37.939  15.578   0.755
34248W        W95537  36.406  13.323  13.463
34249W        W95538  19.200  36.393   4.652
34250W        W95539   7.379  14.682   0.469
34251W        W95540  34.086  30.441  12.927
34252W        W95541  31.024  41.387  13.913
34253W        W95542  14.288  12.299   4.791
34254W        W95543  34.064  34.534   0.818
34255W        W95544  36.061  41.007   2.888
34256W        W95545  35.479  36.449   0.764
34257W        W95546  35.030  26.973  12.519
34258W        W95547  19.271  31.146  11.471
34259W        W95548  33.980   0.330   1.230
34260W        W95549  28.515  35.483   4.633
34261W        W95550   7.367  27.564  14.288
34262W        W95551  29.439  22.598   4.207
34263W        W95552  30.938  10.376  12.933
34264W        W95553  33.990  27.671  12.823
34265W        W95554   3.842  23.069   4.249
34266W        W95555  24.554  41.530  12.043
34267W        W95556  28.041  21.550  10.420
34268W        W95557  38.968  43.418  14.837
34269W        W95558  14.096  11.322  14.810
34270W        W95559  17.629   5.215  13.971
34271W        W95560  32.440  17.195  11.114
34272W        W95561  34.120   4.907   4.820
34273W        W95562   8.275   3.797  14.311
34274W        W95563   5.724  39.535  13.948
34275W        W95564  21.742  20.714   4.644
34276W        W95565  38.375  44.841  10.891
34277W        W95566  39.441  43.339   4.198
34278W        W95567  28.139   1.890  13.841
34279W        W95568  24.660   1.764  13.948
34280W        W95569   2.921  43.301  13.910
34281W        W95570  42.957   0.369  12.065
34282W        W95571  24.529  34.425   4.810
34283W        W95572  14.702   7.414  14.938
34284W        W95573  28.990  16.097  12.392
34285W        W95574  16.108  44.907   2.827
34286W        W95575  31.049  26.658   3.805
34287W        W95576   2.750  32.920  14.802
34288W        W95577  43.394  24.203   0.422
34289W        W95578   6.846   9.227  13.844
34290W        W95579  43.397  35.035   0.952
34291W        W95580  18.566  38.049   0.932
34292W        W95581  17.680  40.347  10.613
34293W        W95582  44.333   1.902  10.042
34294W        W95583  41.816  29.506  13.310
34295W        W95584  24.005   8.168   5.280
34296W        W95585   6.693  35.028  14.302
34297W        W95586   8.328  18.723  14.977
34298W        W95587  33.616  13.302  10.956
34299W        W95588  38.497  33.547   0.348
34300W        W95589  39.001  37.937  11.078
34301W        W95590  36.525  18.576   0.413
34302W        W95591  13.201  35.033  13.403
34303W        W95592  41.997  18.273  14.022
34304W        W95593  24.688   5.704  11.427
34305W        W95594  44.345  43.819  12.518
34306W        W95595   7.390  39.040  13.014
34307W        W95596   1.812  25.498  11.548
34308W        W95597  40.516  27.949   4.186
34309W        W95598  11.799   6.281  11.602
34310W        W95599  30.475  11.150  12.573
34311W        W95600  31.085  42.521  10.542
34312W        W95601  16.625   2.329   4.815
34313W        W95602  27.157  41.296   4.757
34314W        W95603   9.660  11.707  14.329
34315W        W95604   4.769  32.588   3.865
34316W        W95605  31.038  20.132  12.930
34317W        W95606  23.031  31.092  11.504
34318W        W95607  43.828  38.390   1.727
34319W        W95608  32.075  29.938  12.937
34320W        W95609  20.272   6.237  13.853
34321W        W95610  30.138  19.225   3.158
34322W        W95611  24.600  13.139  11.967
34323W        W95612  29.605   5.913  14.001
34324W        W95613  13.223  32.588  14.321
34325W        W95614  10.701  25.645  11.945
34326W        W95615  36.388  12.852   3.772
34327W        W95616  37.867  30.625   4.205
34328W        W95617  43.297  17.698   0.428
34329W        W95618  26.031  27.168  10.948
34330W        W95619   2.376  42.458   1.842
34331W        W95620  38.820   0.987  10.925
34332W        W95621   6.418   8.719  14.862
34333W        W95622  14.730  36.469  11.043
34334W        W95623  27.120  27.009  13.321
34335W        W95624  15.113   6.216  10.609
34336W        W95625  36.496   7.712   1.766
34337W        W95626   9.749  34.569  13.521
34338W        W95627  30.956  30.072   0.943
34339W        W95628  38.910  15.232  14.843
34340W        W95629   2.722  12.848  13.876
34341W        W95630  28.100  40.978   3.214
34342W        W95631  32.526  43.458  12.954
34343W        W95632  40.489   0.938   4.305
34344W        W95633  44.928  21.629   4.643
34345W        W95634   0.847  15.640   1.287
34346W        W95635  16.751   9.209  13.430
34347W        W95636  28.639  10.710  13.474
34348W        W95637  34.606   3.461   1.266
34349W        W95638  26.616  28.550   1.840
34350W        W95639  10.219  16.122   1.347
34351W        W95640  19.172  31.431   4.732
34352W        W95641  13.251  41.832  10.477
34353W        W95642  33.914  34.515  14.979
34354W        W95643   6.828  19.749   2.327
34355W        W95644   6.219   9.371  10.902
34356W        W95645  25.146  25.218   9.960
34357W        W95646  14.725  36.499   5.138
34358W        W95647  25.183  32.486  13.855
34359W        W95648  36.437  26.660  10.910
34360W        W95649   8.698  30.486   9.984
34361W        W95650  36.366  36.585   4.307
34362W        W95651  29.162  12.764   1.338
34363W        W95652   4.426  19.664  13.910
34364W        W95653   8.678  14.629  14.804
34365W        W95654   6.713   7.252   3.368
34366W        W95655  11.285  11.157  11.109
34367W        W95656  18.267  13.267   3.260
34368W        W95657  21.252  25.676   2.811
34369W        W95658  41.487  41.872  13.917
34370W        W95659  37.855   5.699  13.816
34371W        W95660  44.769   9.812  11.426
34372W        W95661  22.647  12.179   2.717
34373W        W95662  21.706  13.321  14.373
34374W        W95663  23.516  14.669   1.699
34375W        W95664   2.414  27.544   2.826
34376W        W95665  15.190  34.592  12.464
34377W        W95666  18.727  36.998  10.126
34378W        W95667  11.211   4.389   3.191
34379W        W95668  35.492  34.872  12.948
34380W        W95669  40.905   6.909   1.289
34381W        W95670  31.019  32.416  14.966
34382W        W95671  44.418  26.497   2.841
34383W        W95672   4.363   3.951  13.454
34384W        W95673   8.715  35.585   3.853
34385W        W95674  28.574  34.532   1.265
34386W        W95675  38.857  24.204   3.643
34387W        W95676  41.936  38.962   1.806
34388W        W95677  31.901  33.919  12.047
34389W        W95678  29.113   9.224   5.652
34390W        W95679  20.700  25.093   2.667
34391W        W95680  36.501  32.053  14.760
34392W        W95681   5.346  29.637   1.761
34393W        W95682  28.031  13.117  13.912
34394W        W95683  10.265  14.605  12.873
34395W        W95684  24.129  15.797   5.307
34396W        W95685  43.506  10.239   5.197
34397W        W95686  36.462  12.336   0.744
34398W        W95687  14.234  15.757  14.980
34399W        W95688   6.313  26.090  14.820
34400W        W95689  11.202   8.393  11.433
34401W        W95690  17.073  31.015  14.470
34402W        W95691   3.268  23.655   2.185
34403W        W95692  36.046  17.570  10.528
34404W        W95693  35.109  11.770   3.272
34405W        W95694  23.703  22.021  12.874
34406W        W95695  33.081  27.076   4.682
34407W        W95696   8.740  14.195  11.414
34408W        W95697  15.621  18.664  14.511
34409W        W95698  36.090  39.415   3.206
34410W        W95699   9.275   8.338  12.982
34411W        W95700   5.857  41.319   1.361
34412W        W95701   0.925  44.997  11.940
34413W        W95702  20.709  39.019   0.866
34414W        W95703  37.418   1.396  11.116
34415W        W95704  41.963  39.379  14.404
34416W        W95705  38.559  21.542  12.397
34417W        W95706  42.457   8.369  14.377
34418W        W95707  35.513  29.157  10.502
34419W        W95708  44.352  36.901   4.293
34420W        W95709  27.571   6.414   2.807
34421W        W95710  11.203  20.722  14.796
34422W        W95711  42.792  29.604  11.608
34423W        W95712  27.110   7.780  11.928
34424W        W95713  23.591   7.783  13.509
34425W        W95714   0.864  27.128   3.762
34426W        W95715  19.119   6.766  11.508
34427W        W95716  20.690  21.598  11.456
34428W        W95717  30.413  40.349   0.386
34429W        W95718  11.671  44.829  12.884
34430W        W95719  40.308  24.979  11.423
34431W        W95720  37.526  35.021  12.563
34432W        W95721  32.602  41.029   0.847
34433W        W95722  12.627  28.517   2.881
34434W        W95723  39.374  32.635  14.007
34435W        W95724  38.502  10.680   4.670
34436W        W95725  16.317  13.143  14.291
34437W        W95726  20.541  16.789   4.190
34438W        W95727  14.730   0.804  10.570
34439W        W95728  31.981  11.769   4.729
34440W        W95729  28.133  13.716  11.489
34441W        W95730  35.459  25.062   2.234
34442W        W95731  10.736   6.203  11.066
34443W        W95732  24.227  33.550   2.387
34444W        W95733   6.896   7.752   0.311
34445W        W95734   4.724  38.493   0.808
34446W        W95735  34.594   6.258   3.747
34447W        W95736  30.948  23.588  14.505
34448W        W95737  18.666  25.627   0.904
34449W        W95738  15.195  33.050  13.453
34450W        W95739  19.604   0.342   4.322
34451W        W95740  15.651   3.217   1.877
34452W        W95741  26.102  11.188  12.069
34453W        W95742  15.799  13.324   4.215
34454W        W95743   5.253   8.742  14.017
34455W        W95744   3.930  22.018   1.379
34456W        W95745   6.744   1.917   1.269
34457W        W95746   3.928  16.784  11.414
34458W        W95747   7.297   9.736   0.816
34459W        W95748  30.946  30.532  11.945
34460W        W95749  41.965  12.170  14.974
34461W        W95750  40.514  14.652   1.418
34462W        W95751  19.115  44.417   4.785
34463W        W95752  21.247   0.866   0.744
34464W        W95753  15.734  27.043   4.615
34465W        W95754  42.442  18.742  12.928
34466W        W95755  27.561  41.392  13.913
34467W        W95756  10.155  28.525  12.500
34468W        W95757   8.794   0.975  12.523
34469W        W95758  20.552  19.121  13.998
34470W        W95759  34.865  43.486  12.000
34471W        W95760  17.657   6.417  12.368
34472W        W95761  23.731  18.737   2.699
34473W        W95762   7.754   4.915   9.975
34474W        W95763  22.101   0.316   3.147
34475W        W95764  40.980  30.459   3.325
34476W        W95765  40.478  33.082   0.366
34477W        W95766   1.327  24.209   2.865
34478W        W95767  34.404  37.362   5.092
34479W        W95768   1.942  10.760   4.718
34480W        W95769  16.766  32.412   1.778
34481W        W95770  31.911  40.925   1.862
34482W        W95771  36.017  31.016  13.390
34483W        W95772  18.091  11.821  13.426
34484W        W95773  17.210   0.492  14.431
34485W        W95774   7.381  36.363   3.658
34486W        W95775  11.717  41.382  11.889
34487W        W95776  43.428   7.763  11.912
34488W        W95777   3.337   8.278  13.392
34489W        W95778  36.064  25.108   4.803
34490W        W95779  12.246  10.809   0.752
34491W        W95780  44.765   5.211   4.116
34492W        W95781   0.841  32.596   1.407
34493W        W95782  41.957  21.167   0.289
34494W        W95783  25.578  10.212   1.788
34495W        W95784  28.035  43.300   4.782
34496W        W95785  26.120  33.069   3.717
34497W        W95786  13.186  36.917   5.186
34498W        W95787  24.498  21.622  14.472
34499W        W95788  29.437  10.660   4.267
34500W        W95789  24.546  36.022  13.403
34501W        W95790   2.946  30.588  14.903
34502W        W95791   1.450   4.776   2.182
34503W        W95792  22.641  15.297  14.866
34504W        W95793  17.134  11.656  10.415
34505W        W95794  20.637   4.882   3.179
34506W        W95795   6.312  30.560   3.377
34507W        W95796  30.604   9.679   3.154
34508W        W95797  20.696  31.939   4.246
34509W        W95798  44.340  27.156  11.471
34510W        W95799  21.579  23.222  13.032
34511W        W95800  33.551   2.791  14.941
34512W        W95801  34.406  36.984   1.331
34513W        W95802  43.893  19.673  12.881
34514W        W95803   6.367   5.415  10.618
34515W        W95804   1.264  27.164  12.453
34516W        W95805  24.124  17.662   1.823
34517W        W95806  33.394   7.725   4.167
34518W        W95807   8.250  42.348  10.908
34519W        W95808  42.790  33.968  12.887
34520W        W95809  43.512  12.791   1.843
34521W        W95810  25.709  25.533   2.742
34522W        W95811  13.620   9.279  12.366
34523W        W95812  25.185  28.649   0.466
34524W        W95813  31.618  31.593  15.000
34525W        W95814   2.962   3.402   1.703
34526W        W95815   2.339  23.131  10.942
34527W        W95816  28.086  27.198  12.529
34528W        W95817  18.632  31.997  12.009
34529W        W95818  31.492  20.685  13.367
34530W        W95819  11.342  10.766  12.866
34531W        W95820  28.981  25.052   2.289
34532W        W95821   0.868  19.589  12.066
34533W        W95822  41.296  27.618   1.710
34534W        W95823  28.499  25.700  10.929
34535W        W95824   1.904  35.953  10.612
34536W        W95825  18.172   3.827  12.943
34537W        W95826  26.158   7.680  13.836
34538W        W95827  18.617   4.756   4.237
34539W        W95828  28.017  30.547  12.492
34540W        W95829  20.109  30.558   0.780
34541W        W95830  41.790  42.496   0.771
34542W        W95831  43.776  36.861   1.434
34543W        W95832  44.959  36.859  13.393
34544W        W95833   6.796  17.630   2.199
34545W        W95834  38.908  16.221   5.236
34546W        W95835  18.619  38.906   2.250
34547W        W95836  38.009  11.706  14.820
34548W        W95837  20.615  43.302   2.685
34549W        W95838  43.403  34.420   2.326
34550W        W95839  26.071   1.263   4.354
34551W        W95840  26.628   1.916  14.992
34552W        W95841  24.052  37.438   3.306
34553W        W95842  27.486  15.182   0.387
34554W        W95843  22.107  21.089   1.754
34555W        W95844   2.453   0.814  13.794
34556W        W95845  21.021  32.495  11.115
34557W        W95846  43.782  14.140  11.994
34558W        W95847   2.426  15.273   4.155
34559W        W95848  13.267  24.168   2.684
34560W        W95849  18.054   1.769   4.344
34561W        W95850  22.633   5.782  10.890
34562W        W95851  23.571   6.340  13.056
34563W        W95852   0.956   9.757   3.644
34564W        W95853  32.393   0.441   3.341
34565W        W95854   1.964  42.323   2.807
34566W        W95855  22.559  33.406  13.949
34567W        W95856  26.206  16.176   3.730
34568W        W95857  29.960  33.598   2.312
34569W        W95858  13.166  16.239   0.906
34570W        W95859   0.492  13.115   4.774
34571W        W95860  42.971   6.797  11.378
34572W        W95861  24.691  38.024   3.739
34573W        W95862   9.175  17.591   3.355
34574W        W95863  29.525  39.319  11.502
34575W        W95864  32.101  12.350  14.476
34576W        W95865  28.467  35.563   0.794
34577W        W95866  29.036  29.587  11.435
34578W        W95867  30.972  30.136   2.315
34579W        W95868  34.951  28.051  10.557
34580W        W95869   2.908  10.289   2.195
34581W        W95870  41.022  39.340   4.353
34582W        W95871   9.730  17.748   4.142
34583W        W95872  17.286   7.848  10.067
34584W        W95873  38.394  18.759  10.489
34585W        W95874  43.926  42.997   3.721
34586W        W95875   2.883   7.856  11.565
34587W        W95876  23.053  10.382  12.060
34588W        W95877  30.589   5.847  10.955
34589W        W95878  21.513   8.371   0.840
34590W        W95879  16.802  43.867   0.959
34591W        W95880  12.280  41.022  10.478
34592W        W95881  21.582  10.873  10.583
34593W        W95882  28.580  37.851   3.252
34594W        W95883  20.104  35.586  12.431
34595W        W95884  11.345  29.980  12.471
34596W        W95885  37.577  35.403  11.957
34597W        W95886   8.750  14.324   2.674
34598W        W95887  38.384  30.548  12.036
34599W        W95888  39.446  29.022  13.441
34600W        W95889  36.089  36.008   0.482
34601W        W95890  25.022  41.795  13.845
34602W        W95891  39.921  12.640  14.313
34603W        W95892  43.405   3.821  14.289
34604W        W95893  42.897  18.272   3.838
34605W        W95894  10.258  33.080  12.978
34606W        W95895   5.235   7.174  13.870
34607W        W95896  22.134  42.378   4.157
34608W        W95897  10.208  18.645   3.656
34609W        W95898  29.108  35.991   4.601
34610W        W95899   8.240  19.655   0.822
34611W        W95900   6.222   8.299  11.452
34612W        W95901  19.209  33.616   2.232
34613W        W95902   2.275  35.454   1.305
34614W        W95903  23.195   2.433  10.619
34615W        W95904   0.800  42.377   3.651
34616W        W95905   6.320  21.573   1.215
34617W        W95906  32.475  15.758  13.322
34618W        W95907  32.031  18.125   1.337
34619W        W95908   1.466   8.888   2.398
34620W        W95909   6.773  37.471  13.970
34621W        W95910   5.203  42.003  13.026
34622W        W95911  43.355  12.757   3.164
34623W        W95912  19.133   6.257   2.789
34624W        W95913  39.335  29.057  13.954
34625W        W95914  12.310  42.890  11.932
34626W        W95915  44.839   5.319  14.431
34627W        W95916   3.892  44.008  13.882
34628W        W95917  14.633  44.937  13.311
34629W        W95918  15.768  41.843   0.778
34630W        W95919   6.717  10.867   0.831
34631W        W95920   0.441  12.675   0.360
34632W        W95921  14.298  32.051   2.799
34633W        W95922   9.196   7.842   3.178
34634W        W95923  12.689   0.833  12.901
34635W        W95924   5.369  12.232   2.818
34636W        W95925  14.096  25.518   1.250
34637W        W95926   6.795  20.542   0.857
34638W        W95927  13.639  39.966  13.308
34639W        W95928  26.677  12.719  12.975
34640W        W95929  44.993  23.620  12.863
34641W        W95930   8.315   6.790  14.782
34642W        W95931  38.547  38.550   3.796
34643W        W95932  12.310   7.685  12.055
34644W        W95933  42.825   4.728   0.373
34645W        W95934  34.376  12.844   0.875
34646W        W95935  44.464  28.502  13.824
34647W        W95936  17.679   7.291   0.838
34648W        W95937  32.999  21.197   0.412
34649W        W95938   6.874  17.721   4.134
34650W        W95939   3.354  35.065  10.527
34651W        W95940  17.125  23.171   1.347
34652W        W95941  11.237  20.128   2.747
34653W        W95942  38.991  11.832   4.631
34654W        W95943  39.328  23.589   2.346
34655W        W95944  10.253  15.143   2.316
34656W        W95945  16.780  23.617  14.850
34657W        W95946  34.106   3.330  14.331
34658W        W95947  16.162  38.477   0.243
34659W        W95948  22.065  11.199   4.724
34660W        W95949  38.903  30.447   2.902
34661W        W95950  14.754  36.038   4.800
34662W        W95951  25.150  10.159  13.466
34663W        W95952  11.266   4.390   1.828
34664W        W95953  23.047  13.643   2.299
34665W        W95954  29.151  23.621   3.370
34666W        W95955  44.903  36.468   2.677
34667W        W95956  41.299  34.868  11.598
34668W        W95957  26.487  26.982   1.929
34669W        W95958  15.813  32.393  14.964
34670W        W95959  19.646   6.269   4.201
34671W        W95960  11.782  36.877  14.504
34672W        W95961  30.946   2.260  10.499
34673W        W95962  15.803  10.292   1.801
34674W        W95963  16.591  12.188   2.234
34675W        W95964  14.666  37.000  11.427
34676W        W95965  31.585  38.841  11.467
34677W        W95966  26.700   6.765  11.553
34678W        W95967  27.626   6.819  14.476
34679W        W95968  43.934  29.958  14.943
34680W        W95969   0.875  26.972   2.285
34681W        W95970  40.302  15.122  12.518
34682W        W95971  27.596   6.346   5.198
34683W        W95972  11.720  34.109  12.021
34684W        W95973  15.211  12.240  14.439
34685W        W95974  13.665   1.443   0.760
34686W        W95975  17.307  40.807  12.408
34687W        W95976  21.744  32.485  10.985
34688W        W95977  11.261   5.305  10.910
34689W        W95978  31.436  39.917   2.676
34690W        W95979  41.347   8.291   1.241
34691W        W95980   6.298  24.046  10.980
34692W        W95981  29.454  43.285  11.894
34693W        W95982  18.179   8.366   0.336
34694W        W95983  32.937  14.721  13.497
34695W        W95984  17.692   7.308  13.379
34696W        W95985  20.719  14.286   2.891
34697W        W95986  14.104  35.545  10.071
34698W        W95987  24.981  23.096   3.702
34699W        W95988   2.882  20.173  10.981
34700W        W95989  44.804  29.497  11.011
34701W        W95990  27.553  22.574  13.361
34702W        W95991  17.774  19.748   3.776
34703W        W95992  42.832  34.908   0.273
34704W        W95993  44.399  36.482  13.373
34705W        W95994  18.066  24.629  10.426
34706W        W95995  27.481   9.873  12.891
34707W        W95996  35.507  17.192   1.400
34708W        W95997   2.316  41.414  14.993
34709W        W95998  43.957  38.346  11.448
34710W        W95999  17.249  25.214  11.436
34711W        W96000   3.228  21.692  14.903
34712W        W96001   3.329  17.582   2.391
34713W        W96002  14.652  17.799  12.508
34714W        W96003  42.467   6.271  12.475
34715W        W96004  41.871  39.987  12.401
34716W        W96005  26.533  35.531   3.306
34717W        W96006  18.206  27.079   0.399
34718W        W96007  31.454  35.979  11.034
34719W        W96008  43.957   1.361   0.294
34720W        W96009  36.519  44.876  13.868
34721W        W96010  11.829  40.313   1.828
34722W        W96011   6.416  10.239  11.509
34723W        W96012  18.186  33.882  11.423
34724W        W96013  40.375  30.083   3.208
34725W        W96014  11.843  30.482  13.907
34726W        W96015  34.467  26.607  13.463
34727W        W96016  20.238  20.689  13.924
34728W        W96017  21.721   1.236  13.054
34729W        W96018  11.686  29.655  13.309
34730W        W96019   6.752  25.586   0.929
34731W        W96020  41.936   7.394  10.629
34732W        W96021  21.620  10.871  12.405
34733W        W96022  19.144  44.497   2.204
34734W        W96023  43.776  13.780  10.621
34735W        W96024  43.991  28.554  14.000
34736W        W96025   0.964  20.097  13.417
34737W        W96026  18.557   9.748  10.468
34738W        W96027  36.996  15.805   3.856
34739W        W96028  15.214   2.956   2.743
34740W        W96029  19.751  40.917   3.370
34741W        W96030  11.324  31.899   1.903
34742W        W96031   9.166  14.610  12.857
34743W        W96032  31.473  15.292  10.908
34744W        W96033  23.568  37.383   2.856
34745W        W96034  15.093  35.514   4.762
34746W        W96035   3.419   7.715   4.802
34747W        W96036  21.545   2.952  14.447
34748W        W96037  44.443   5.860  12.914
34749W        W96038   2.312  37.394  14.463
34750W        W96039  12.765  35.085  11.383
34751W        W96040  24.150  23.547  11.086
34752W        W96041  41.799  19.247  11.965
34753W        W96042  11.626  27.041   0.281
34754W        W96043   8.690  10.638   3.761
34755W        W96044  36.947   5.377   1.815
34756W        W96045  31.056  30.452  11.571
34757W        W96046  21.151  44.789   1.710
34758W        W96047  42.023  32.541  10.529
34759W        W96048  43.007   6.878   2.394
34760W        W96049  15.620   9.363   0.273
34761W        W96050  20.634  35.107  14.903
34762W        W96051   9.192   2.381  10.598
34763W        W96052  39.021  18.240   4.801
34764W        W96053  30.949  42.418   2.362
34765W        W96054   5.408   2.858  13.489
34766W        W96055   6.760  27.079   1.772
34767W        W96056  34.925   9.227   3.829
34768W        W96057  21.079  25.572  13.009
34769W        W96058  30.916  35.999  12.542
34770W        W96059  11.320  37.422   2.887
34771W        W96060  38.010  28.591  11.970
34772W        W96061  34.601   1.896   0.913
34773W        W96062  19.667  23.019   0.437
34774W        W96063  12.651   8.830   2.683
34775W        W96064  44.272  38.903  13.520
34776W        W96065  16.634  23.241   2.184
34777W        W96066  14.338   2.377   1.220
34778W        W96067  11.818   3.382   0.271
34779W        W96068  30.155  31.092  11.392
34780W        W96069  12.322  16.137  11.446
34781W        W96070  30.421  41.335   1.246
34782W        W96071   9.665  37.062   4.132
34783W        W96072  34.453  29.624   1.706
34784W        W96073   8.808  11.178  12.913
34785W        W96074   9.750  33.523   3.266
34786W        W96075   3.394  22.506   4.709
34787W        W96076  27.536  20.558  13.031
34788W        W96077   9.812  35.523  14.842
34789W        W96078  31.467  15.769  14.361
34790W        W96079  42.415  42.004  13.960
34791W        W96080   2.878  24.597  14.979
34792W        W96081  16.580  25.105   1.343
34793W        W96082   3.945  29.092   3.868
34794W        W96083  42.441  36.504   0.479
34795W        W96084  37.464  34.932  14.469
34796W        W96085  31.946  16.309   3.380
34797W        W96086  21.665  30.634   0.937
34798W        W96087  34.942  37.456   4.145
34799W        W96088  18.636  37.392   2.698
34800W        W96089  15.738  15.813  13.000
34801W        W96090  12.614  39.382   2.757
34802W        W96091  10.812  29.640  14.317
34803W        W96092   3.908   6.361   0.769
34804W        W96093   8.725  12.136   0.727
34805W        W96094  11.754  20.541  14.373
34806W        W96095  17.246  38.534   0.242
34807W        W96096  36.045   9.869   2.318
34808W        W96097  16.799   2.783  10.498
34809W        W96098  34.466   0.794   4.751
34810W        W96099  25.096  39.970   1.311
34811W        W96100   1.454  17.114   1.385
34812W        W96101   7.177  12.362   4.208
34813W        W96102   7.758  27.668  14.795
34814W        W96103  11.351   8.873  10.568
34815W        W96104  33.532  24.687   1.705
34816W        W96105  28.112  10.259   5.688
34817W        W96106  40.880  19.080   2.268
34818W        W96107   1.894   6.334   3.352
34819W        W96108  33.017   8.857   2.783
34820W        W96109  44.372  37.344   2.267
34821W        W96110  15.267  19.692   5.081
34822W        W96111  20.103  18.634  10.957
34823W        W96112  28.471  38.370  11.450
34824W        W96113  25.155  10.800   3.257
34825W        W96114  38.905  40.397  13.477
34826W        W96115  40.876  22.553  12.986
34827W        W96116  22.191  15.141  14.455
34828W        W96117  14.607   0.765   0.396
34829W        W96118  13.119  14.707   2.395
34830W        W96119  42.792  39.940  13.895
34831W        W96120  13.159  17.778  14.964
34832W        W96121  34.445  29.922  12.492
34833W        W96122  10.832  15.117  10.593
34834W        W96123  10.666  14.743  11.928
34835W        W96124  36.547  40.447   1.933
34836W        W96125  28.025  42.933  11.121
34837W        W96126  33.099   4.234  12.022
34838W        W96127  44.358  13.260   1.240
34839W        W96128  25.983   7.236  13.917
34840W        W96129  20.555  15.200  10.622
34841W        W96130  42.362  38.412  11.891
34842W        W96131   8.193  13.831  13.369
34843W        W96132   2.854  16.676   2.406
34844W        W96133   4.408  10.177  12.897
34845W        W96134  34.067  42.914  12.525
34846W        W96135  34.035  31.036  13.403
34847W        W96136   1.399  41.872   0.313
34848W        W96137  12.661  31.097  11.027
34849W        W96138  31.554  39.335  10.923
34850W        W96139   6.826  12.708   2.756
34851W        W96140  26.196  18.670  13.332
34852W        W96141   2.949  44.466   1.254
34853W        W96142  21.196  27.165  10.994
34854W        W96143  15.125  24.150  12.432
34855W        W96144  30.550  27.161  11.389
34856W        W96145  34.586  23.695   3.192
34857W        W96146  35.993  16.280   4.319
34858W        W96147  33.411  20.759  13.827
34859W        W96148  18.236  38.548  13.413
34860W        W96149  17.614  23.677   3.771
34861W        W96150  20.624  43.490  11.078
34862W        W96151  40.325  14.297   4.248
34863W        W96152  14.784  12.169   3.724
34864W        W96153  40.046   6.277   2.191
34865W        W96154  24.705  29.500   4.129
34866W        W96155  41.526  25.127   0.470
34867W        W96156  32.046  44.898   3.840
34868W        W96157  16.667  29.625  12.833
34869W        W96158  42.888   8.362   4.667
34870W        W96159  29.983   8.279  11.968
34871W        W96160  30.530  42.394   0.807
34872W        W96161  26.617   5.715   0.733
34873W        W96162   8.333  31.102   1.780
34874W        W96163  39.997   5.408  11.499
34875W        W96164  16.619  12.234   2.866
34876W        W96165   4.260  25.575   4.760
34877W        W96166  19.595   8.733  11.484
34878W        W96167  41.368  39.387  12.869
34879W        W96168  37.522  42.330   1.922
34880W        W96169  12.256  27.543   1.321
34881W        W96170  13.256  39.954  13.840
34882W        W96171  18.113  44.937  13.443
34883W        W96172  22.037  41.381  10.420
34884W        W96173  16.588   8.400   2.232
34885W        W96174  31.998  20.260   0.352
34886W        W96175  21.571  12.617   1.741
34887W        W96176  35.895  26.573   0.312
34888W        W96177   5.422   2.817   0.921
34889W        W96178  19.629  34.074  13.881
34890W        W96179  26.999  30.513  11.990
34891W        W96180  13.299   1.247   9.660
34892W        W96181  22.080  41.029   3.276
34893W        W96182  37.975  21.667  12.090
34894W        W96183   6.198  19.711   2.896
34895W        W96184  43.855   6.908   3.732
34896W        W96185  41.333  32.136   1.277
34897W        W96186  38.354  27.008   3.310
34898W        W96187  13.258  32.440  11.902
34899W        W96188  11.253  31.478   4.733
34900W        W96189  12.781  39.011   1.768
34901W        W96190  32.504  23.554   4.119
34902W        W96191  30.933  14.266  11.114
34903W        W96192  36.070   3.299  12.415
34904W        W96193  32.553   7.897   3.282
34905W        W96194  43.795  20.768   4.768
34906W        W96195   8.359   2.351   1.860
34907W        W96196  36.520  30.439  13.396
34908W        W96197  18.630  18.133   1.370
34909W        W96198  28.147   9.661  13.402
34910W        W96199   1.261   3.874   2.216
34911W        W96200  18.166   4.277  11.380
34912W        W96201  21.116  29.918   2.792
34913W        W96202  26.031  34.607  12.419
34914W        W96203   0.418   7.248   5.155
34915W        W96204  17.121  33.913  14.450
34916W        W96205  11.810   5.348  11.565
34917W        W96206  36.396  26.564   3.680
34918W        W96207   5.246  21.235   0.839
34919W        W96208  42.779  38.538  11.050
34920W        W96209  17.592  37.506  13.838
34921W        W96210  25.054  29.543  11.892
34922W        W96211  12.343  39.503  14.296
34923W        W96212  33.493   6.914  13.023
34924W        W96213   7.792  34.410   2.312
34925W        W96214   5.285  26.524   0.404
34926W        W96215  38.819   6.791   2.790
34927W        W96216  28.066   3.267   0.962
34928W        W96217  23.241  34.085   4.653
34929W        W96218  37.061  38.876   4.632
34930W        W96219  22.582  25.131   3.732
34931W        W96220  36.905  17.620  11.443
34932W        W96221  23.220  37.546   5.241
34933W        W96222  31.468  10.736   3.373
34934W        W96223  37.924  16.808   0.796
34935W        W96224  28.615  38.918  14.993
34936W        W96225   0.792  19.095   3.180
34937W        W96226  44.403  14.335  11.094
34938W        W96227  19.745   3.453  12.892
34939W        W96228   5.779  37.476   3.152
34940W        W96229  19.233  22.527  13.444
34941W        W96230  43.441  19.738   2.385
34942W        W96231  40.391  11.196  13.929
34943W        W96232   1.278  24.722  11.074
34944W        W96233  12.183   1.405   4.290
34945W        W96234   6.234  17.598  10.601
34946W        W96235  14.661  29.510   2.247
34947W        W96236  19.554  14.220   0.283
34948W        W96237  21.679  17.140   9.991
34949W        W96238  19.175   1.766  12.351
34950W        W96239   1.253  14.648   1.740
34951W        W96240  22.727  11.649   2.876
34952W        W96241  18.707  38.433   2.802
34953W        W96242  22.237   6.907   2.830
34954W        W96243  20.606   5.350   0.855
34955W        W96244   1.814  33.002  10.559
34956W        W96245  33.383  17.247   1.740
34957W        W96246  11.715   7.326  12.559
34958W        W96247  41.955  39.835  14.410
34959W        W96248  15.805  44.331  11.072
34960W        W96249   0.478  25.525   2.267
34961W        W96250  30.461  30.122   0.445
34962W        W96251  22.565  40.490   1.279
34963W        W96252  36.854  38.011   0.910
34964W        W96253  40.981  39.939   3.793
34965W        W96254  13.810  40.497   3.746
34966W        W96255  38.883   6.210  10.505
34967W        W96256  13.189  20.120   3.727
34968W        W96257  25.017  24.199  11.419
34969W        W96258  18.284  38.887   9.927
34970W        W96259   8.886  39.475  10.451
34971W        W96260  11.355  23.083  13.321
34972W        W96261   5.913   9.849  10.969
34973W        W96262  33.467  44.969   1.270
34974W        W96263   2.949  26.553   4.252
34975W        W96264  38.476  35.969   2.782
34976W        W96265   1.302  30.482   2.303
34977W        W96266  30.936  38.877  13.853
34978W        W96267  15.088  19.256   0.394
34979W        W96268  25.131  34.958  14.349
34980W        W96269   9.280   7.388   3.718
34981W        W96270  22.167  44.922  13.012
34982W        W96271  27.096  25.080   2.667
34983W        W96272   5.365   0.987  10.147
34984W        W96273   6.296  21.249  13.018
34985W        W96274  21.519  28.465   1.271
34986W        W96275  21.107  31.618   5.182
34987W        W96276   6.881  44.914   4.598
34988W        W96277  42.974  34.562  14.351
34989W        W96278   6.806  13.140   4.291
34990W        W96279   1.320  13.813   3.256
34991W        W96280  36.046  24.116  11.077
34992W        W96281  42.476  29.114   2.898
34993W        W96282  38.952  44.377  10.938
34994W        W96283  37.571  26.166  14.877
34995W        W96284   0.753  21.041   1.830
34996W        W96285   3.885  18.572   3.765
34997W        W96286   9.788  31.455   0.894
34998W        W96287  27.467  20.546   0.313
34999W        W96288  24.685  33.019  13.498
35000W        W96289  33.027  39.015   3.766
35001W        W96290   3.725  30.636  14.803
35002W        W96291   9.243   4.359  11.487
35003W        W96292  13.802  29.551  14.932
35004W        W96293   9.816  34.939   0.965
35005W        W96294  34.461  24.667   3.777
35006W        W96295  28.988  24.482  13.038
35007W        W96296  37.018  31.631   1.415
35008W        W96297  21.622  43.936   4.701
35009W        W96298  22.647  11.299  11.518
35010W        W96299  11.294  19.043  12.923
35011W        W96300  24.564   4.780  11.108
35012W        W96301  36.438  38.438   2.866
35013W        W96302  43.469  11.280  14.475
35014W        W96303  34.903  39.862   1.250
35015W        W96304   6.677  15.095   0.899
35016W        W96305  40.980   3.336   1.373
35017W        W96306  34.448   7.226   1.859
35018W        W96307  26.655   0.469   3.829
35019W        W96308  34.512   6.428  12.546
35020W        W96309   6.692  34.420  12.473
35021W        W96310   5.255   3.222   3.168
35022W        W96311  12.218   1.281  11.945
35023W        W96312  17.679  43.388  11.410
35024W        W96313  28.090   2.822   3.216
35025W        W96314   6.279  23.231   3.759
35026W        W96315  27.552  35.933  12.035
35027W        W96316   9.178  29.071   0.242
35028W        W96317  16.751  41.021   2.888
35029W        W96318  24.541  34.413  11.580
35030W        W96319  34.053  39.515   0.909
35031W        W96320   1.409  25.210   3.863
35032W        W96321   6.318  22.521   1.338
35033W        W96322  33.580  17.266  11.876
35034W        W96323  24.185  40.812  13.379
35035W        W96324  28.494  14.812  13.354
35036W        W96325  29.926  18.293   0.801
35037W        W96326  16.246  20.758  14.290
35038W        W96327  21.063  19.657  12.536
35039W        W96328  31.131  30.422   2.213
35040W        W96329  43.481  18.628   4.623
35041W        W96330  44.358  44.388   3.758
35042W        W96331  39.321   7.822  11.937
35043W        W96332  38.961  19.733   4.745
35044W        W96333  27.952  28.017  14.019
35045W        W96334  34.465  29.104   0.364
35046W        W96335   8.726   3.920   1.821
35047W        W96336  15.092  14.104  11.455
35048W        W96337  36.563  38.366  13.421
35049W        W96338   8.207  16.132   4.201
35050W        W96339  43.494  35.993  10.912
35051W        W96340  44.413   3.730  10.529
35052W        W96341  29.614   4.257  14.455
35053W        W96342   1.483  21.750   3.272
35054W        W96343  11.691  16.295  13.509
35055W        W96344   0.378  26.977   1.329
35056W        W96345  39.427  36.092   4.279
35057W        W96346   9.878  23.126  11.864
35058W        W96347  16.133  28.980   4.155
35059W        W96348   6.244   7.785   2.683
35060W        W96349  21.034  35.549  12.499
35061W        W96350  15.283  13.224  12.974
35062W        W96351  24.615   5.778  12.022
35063W        W96352  23.504  11.827  13.919
35064W        W96353  35.553  37.865  11.091
35065W        W96354  44.479   5.752   1.848
35066W        W96355   8.802   6.195   1.430
35067W        W96356  26.703   5.861   4.660
35068W        W96357   8.365   4.713  14.293
35069W        W96358  35.857  18.126   2.881
35070W        W96359  26.581  19.541   2.733
35071W        W96360  29.042   0.883  11.383
35072W        W96361   0.779  24.616  14.305
35073W        W96362  24.026  33.052  10.978
35074W        W96363  33.578  31.965   2.202
35075W        W96364  37.967  29.443   0.457
35076W        W96365  39.505  42.986   4.127
35077W        W96366  32.466  21.705   3.282
35078W        W96367   4.268  30.645  10.484
35079W        W96368  17.738   7.762   1.355
35080W        W96369  16.248  15.690   3.656
35081W        W96370  43.828  25.211  14.482
35082W        W96371  21.740  27.962   1.853
35083W        W96372  32.062   6.386   0.738
35084W        W96373  34.096   5.709  14.813
35085W        W96374  11.127  10.340  13.856
35086W        W96375  21.110  23.114  14.292
35087W        W96376  30.472  36.882  14.978
35088W        W96377  34.613   4.356   4.832
35089W        W96378  27.634  37.337  10.901
35090W        W96379  33.107   3.242   2.680
35091W        W96380  42.296  36.045  14.988
35092W        W96381  21.538  40.811   1.272
35093W        W96382  29.023  39.008  13.355
35094W        W96383  28.998  32.899  14.395
35095W        W96384  36.483  13.648   4.250
35096W        W96385   7.281  30.658   1.316
35097W        W96386   1.340  14.110  13.844
35098W        W96387  28.448  36.488  11.039
35099W        W96388  11.197  30.097  11.552
35100W        W96389  22.538  25.627  14.422
35101W        W96390   0.981  37.898  13.523
35102W        W96391  10.332   3.925   1.420
35103W        W96392   3.885   0.445   9.932
35104W        W96393  12.796  20.731  13.009
35105W        W96394  29.505  17.701   4.663
35106W        W96395   8.731   9.763   3.159
35107W        W96396   8.233   6.721   3.649
35108W        W96397  22.007  34.561  11.504
35109W        W96398  12.736  38.471   2.862
35110W        W96399  34.591  21.696   4.248
35111W        W96400  24.007  18.091  11.542
35112W        W96401  13.157  12.666  12.371
35113W        W96402  39.379  27.977  14.435
35114W        W96403  14.671  18.655   0.465
35115W        W96404  33.394  26.068  11.911
35116W        W96405  10.248  11.156  10.449
35117W        W96406  38.477  40.372   1.872
35118W        W96407  25.594  36.565  10.450
35119W        W96408  13.325  22.246   1.900
35120W        W96409  15.597   2.838   3.387
35121W        W96410  17.624  23.588  12.987
35122W        W96411  43.841  21.550   2.276
35123W        W96412   4.400  12.755   3.763
35124W        W96413  11.309   5.239   0.871
35125W        W96414  10.838  24.184  10.930
35126W        W96415  36.906  32.030  14.967
35127W        W96416  42.421  28.547  12.897
35128W        W96417   5.364  22.205   0.353
35129W        W96418   4.285  26.126   2.755
35130W        W96419  19.232   5.205   0.819
35131W        W96420  39.879  30.615   3.154
35132W        W96421  25.146  10.248   0.422
35133W        W96422   6.394   9.286   3.325
35134W        W96423  14.635  14.273   2.897
35135W        W96424  18.080   0.827  11.125
35136W        W96425  25.131   3.815  14.950
35137W        W96426  39.901  44.010   4.203
35138W        W96427   4.428   3.408   2.183
35139W        W96428  13.716  28.678  14.943
35140W        W96429  17.629   7.257  12.075
35141W        W96430  24.719  12.226  10.579
35142W        W96431  17.186  18.635   1.257
35143W        W96432  29.660  26.186   0.796
35144W        W96433   2.419  23.120   0.286
35145W        W96434  28.681  44.449  12.359
35146W        W96435  39.389  22.635   4.343
35147W        W96436  14.137  10.718  12.089
35148W        W96437  28.487   8.313   0.375
35149W        W96438  22.238  21.129  11.894
35150W        W96439   2.844  16.131   2.868
35151W        W96440  40.021  21.110  11.933
35152W        W96441  31.604  28.624   0.935
35153W        W96442   0.771  36.951   2.850
35154W        W96443  33.460  22.108   0.765
35155W        W96444  38.930  40.935   4.175
35156W        W96445  14.591   4.249   0.262
35157W        W96446  42.391  35.450  12.079
35158W        W96447  22.515  10.832   1.420
35159W        W96448  17.691  14.196   3.305
35160W        W96449  37.534  33.619   0.932
35161W        W96450  11.233  40.827  11.404
35162W        W96451  40.998  25.992   0.842
35163W        W96452  18.149  27.541  10.960
35164W        W96453   4.735  14.292  10.150
35165W        W96454  22.529   0.261  10.098
35166W        W96455  23.220  41.015   0.767
35167W        W96456  17.635  30.658  11.067
35168W        W96457  36.936  15.577   3.162
35169W        W96458  27.462  14.803   3.203
35170W        W96459   0.249   9.853  12.510
35171W        W96460  37.965  44.369  11.882
35172W        W96461   8.206  13.626  11.526
35173W        W96462  25.001  20.596   2.234
35174W        W96463  12.258  12.205   0.385
35175W        W96464   5.929  23.597   1.842
35176W        W96465  22.013  40.949  11.908
35177W        W96466  42.880  35.905  11.488
35178W        W96467  11.784  11.178   0.868
35179W        W96468  23.005   8.730   3.666
35180W        W96469   3.956  22.085  10.623
35181W        W96470  18.067  39.519   0.921
35182W        W96471  34.612   2.276  11.029
35183W        W96472  42.299  29.175  14.462
35184W        W96473  23.023   1.931  12.855
35185W        W96474  18.295  40.940  14.836
35186W        W96475  18.692   3.941  14.328
35187W        W96476  13.128  26.666  11.906
35188W        W96477   8.667  13.617   3.313
35189W        W96478  15.583  21.674  14.442
35190W        W96479  44.464  25.170  10.541
35191W        W96480  23.181  30.540   4.163
35192W        W96481   5.327  36.943  13.959
35193W        W96482  13.216  32.624   1.429
35194W        W96483  25.519  39.376   1.425
35195W        W96484  17.268  25.134   1.210
35196W        W96485  42.898  24.120   3.669
35197W        W96486  38.326   2.313  13.975
35198W        W96487   1.320  41.925  12.391
35199W        W96488  14.680  24.492  11.461
35200W        W96489  19.249  16.126   0.793
35201W        W96490  32.951  16.630  13.802
35202W        W96491  24.016  40.432  12.558
35203W        W96492   4.816  23.710   5.108
35204W        W96493  44.874  17.199   2.405
35205W        W96494  25.112  37.038  13.956
35206W        W96495  43.505  42.847   2.223
35207W        W96496  29.508  26.650   9.950
35208W        W96497  21.022  27.017   1.934
35209W        W96498   6.719  16.645  11.932
35210W        W96499   0.903  23.065  11.025
35211W        W96500  26.207   8.849   2.760
35212W        W96501  16.745   6.904  13.819
35213W        W96502  35.565  27.116   4.810
35214W        W96503   8.195   0.261   0.329
35215W        W96504   6.357  23.146   9.454
35216W        W96505  16.304   0.851  10.891
35217W        W96506  14.607  24.151  14.465
35218W        W96507  25.621  28.548  11.545
35219W        W96508  43.879  18.248  14.459
35220W        W96509  33.484  33.413  10.454
35221W        W96510  25.521  41.382  12.400
35222W        W96511   2.881  18.281  10.404
35223W        W96512  43.973  23.984  14.357
35224W        W96513  22.207  24.563   2.758
35225W        W96514  31.058  35.053  11.933
35226W        W96515  35.559  12.240   1.835
35227W        W96516  36.947  28.678   0.252
35228W        W96517  31.437   4.767  11.517
35229W        W96518  33.054   1.855   2.309
35230W        W96519   7.362  37.497   0.437
35231W        W96520  39.382  31.119   0.936
35232W        W96521  37.442  23.561  12.579
35233W        W96522  29.024  31.898   2.340
35234W        W96523  35.982   6.220   3.177
35235W        W96524  38.968  24.652   0.317
35236W        W96525  41.333  26.551   1.861
35237W        W96526   9.886  19.721  12.864
35238W        W96527   9.239  13.238   4.791
35239W        W96528  38.940  14.691  13.537
35240W        W96529  17.287  25.035   0.732
35241W        W96530  14.778   1.242   5.086
35242W        W96531  16.110  22.700  13.036
35243W        W96532  40.461  37.404  12.540
35244W        W96533  16.093  27.545  11.980
35245W        W96534  14.138  22.644   5.129
35246W        W96535  11.247  20.658   2.211
35247W        W96536  30.468  25.001  10.991
35248W        W96537  29.511  24.007  14.893
35249W        W96538  35.110  22.219  10.511
35250W        W96539  35.871   5.377   1.433
35251W        W96540  22.523  30.452  12.544
35252W        W96541   8.889  39.950  10.630
35253W        W96542  33.605   5.399   1.741
35254W        W96543   2.875  17.700  12.553
35255W        W96544  20.062  12.223   4.353
35256W        W96545  27.169   9.888  11.919
35257W        W96546  41.323  15.652   0.842
35258W        W96547  36.893  19.770  14.389
35259W        W96548   8.388   1.250   3.632
35260W        W96549  30.000   3.416  14.485
35261W        W96550  24.554  28.545  11.473
35262W        W96551  39.854  37.979  11.582
35263W        W96552  34.484  21.028   3.288
35264W        W96553  16.761  26.134   2.189
35265W        W96554  32.002  43.299  10.888
35266W        W96555  42.502  44.379   1.222
35267W        W96556   0.933   8.806   9.491
35268W        W96557  40.413   0.464   3.777
35269W        W96558  32.028  39.336  11.558
35270W        W96559  11.272   6.386  11.920
35271W        W96560  12.791  42.875   3.204
35272W        W96561  17.733  30.077  13.808
35273W        W96562  28.603  11.158   4.124
35274W        W96563   1.417  29.541  11.489
35275W        W96564  43.294  28.048   2.389
35276W        W96565  30.639  36.576   1.418
35277W        W96566  29.462  16.642   4.752
35278W        W96567  16.743   9.349   4.256
35279W        W96568  37.526  38.382   2.771
35280W        W96569  22.542  29.482   3.304
35281W        W96570  39.898   1.328   4.682
35282W        W96571  24.582  31.043  13.879
35283W        W96572   7.289   4.843  14.357
35284W        W96573  27.578  33.439  10.442
35285W        W96574  34.075  39.007  10.923
35286W        W96575  20.046  42.938  11.014
35287W        W96576  37.521  30.490   2.222
35288W        W96577   1.803   9.293  10.967
35289W        W96578   6.818   8.816  10.555
35290W        W96579  15.702  43.510   4.223
35291W        W96580  15.629  12.789  12.535
35292W        W96581  30.997  29.620  14.911
35293W        W96582  42.363  44.784  12.569
35294W        W96583   8.327  15.090  13.061
35295W        W96584   1.348   2.838  10.632
35296W        W96585  32.404  21.664  13.028
35297W        W96586   2.319  29.133   4.810
35298W        W96587  35.473  30.106  13.811
35299W        W96588  31.106  42.315  13.313
35300W        W96589  23.586   6.183  11.127
35301W        W96590  11.186  42.833   1.706
35302W        W96591  29.424  25.491   0.937
35303W        W96592  13.210  27.652   2.902
35304W        W96593   2.778  39.038  11.964
35305W        W96594  37.867  42.875  10.916
35306W        W96595  20.527  17.079   3.295
35307W        W96596   8.741   6.392  12.901
35308W        W96597   1.839  17.164  14.335
35309W        W96598   7.273  12.118  12.378
35310W        W96599   9.840  34.382  14.816
35311W        W96600  30.449  11.834   0.439
35312W        W96601  26.542   7.347  10.515
35313W        W96602  15.782   0.899  14.328
35314W        W96603  11.774  13.682  11.918
35315W        W96604  40.447  19.084   1.899
35316W        W96605  30.987  34.539   9.931
35317W        W96606   3.346  15.295  14.447
35318W        W96607  39.012  26.077  12.030
35319W        W96608  43.438  19.066  10.572
35320W        W96609  11.269   0.892   1.284
35321W        W96610  13.232   4.811  13.930
35322W        W96611  40.501  28.112  14.309
35323W        W96612  23.515  14.625  12.568
35324W        W96613  29.442  32.965  10.520
35325W        W96614  23.198  31.049  12.050
35326W        W96615  16.765  13.730  14.293
35327W        W96616  44.461   7.193  11.862
35328W        W96617  36.382  25.184   3.664
35329W        W96618  40.390  31.430   3.170
35330W        W96619   2.335  18.128  13.324
35331W        W96620  38.326   5.231   4.222
35332W        W96621  18.759  24.681   1.861
35333W        W96622  24.019   7.767   1.249
35334W        W96623  25.044  41.389  14.280
35335W        W96624  29.092   3.270  14.925
35336W        W96625   9.247   9.826  11.579
35337W        W96626  37.919  31.442   0.845
35338W        W96627  37.945  39.875  11.984
35339W        W96628   2.766  43.866   2.754
35340W        W96629  28.448  38.544  14.285
35341W        W96630  13.828  39.034   3.271
35342W        W96631   4.258  38.422  14.792
35343W        W96632  42.907  37.923  14.930
35344W        W96633  35.469  37.433  12.833
35345W        W96634   8.315   8.894   5.212
35346W        W96635  36.406  11.860   3.320
35347W        W96636  11.308  34.093  13.941
35348W        W96637  35.882   5.368   0.368
35349W        W96638  17.698   5.811   2.181
35350W        W96639  32.570  31.444  13.484
35351W        W96640  21.554  37.838   4.221
35352W        W96641   3.245  32.000  11.512
35353W        W96642   7.884  11.373   1.805
35354W        W96643  22.243   3.332  13.529
35355W        W96644  41.027  31.468   2.770
35356W        W96645  29.442  23.090  14.345
35357W        W96646  35.541  30.964   0.453
35358W        W96647   4.852  39.877  13.508
35359W        W96648   7.815  11.623   2.239
35360W        W96649   5.328  17.633  13.047
35361W        W96650  23.125  18.054   0.429
35362W        W96651  13.741   5.841  13.512
35363W        W96652  16.679  24.502  12.849
35364W        W96653   1.281  25.168  12.488
35365W        W96654  17.264  35.511  14.909
35366W        W96655  44.394   1.852  13.832
35367W        W96656   9.262  35.557   3.385
35368W        W96657  36.079  20.740   3.322
35369W        W96658  24.036  32.621   2.735
35370W        W96659  17.216  35.882   0.848
35371W        W96660  40.830   1.261   0.424
35372W        W96661  13.267  34.931  14.838
35373W        W96662  30.999  37.964   2.797
35374W        W96663  15.277  17.232  14.347
35375W        W96664  26.511  18.696   5.136
35376W        W96665  39.508  42.819   2.418
35377W        W96666  14.595   1.286  13.798
35378W        W96667  16.193  10.762  14.406
35379W        W96668  44.332  38.333  14.848
35380W        W96669  34.443   2.451   4.268
35381W        W96670  28.660  15.584  10.066
35382W        W96671  30.601   3.833  14.974
35383W        W96672   7.192  42.782   4.149
35384W        W96673   8.220  12.688   4.220
35385W        W96674   6.284   6.389  10.527
35386W        W96675  11.295  16.580   1.833
35387W        W96676   5.858  34.990  13.537
35388W        W96677   2.403  39.419   3.730
35389W        W96678  17.795   0.869   0.259
35390W        W96679  24.192  19.561   0.291
35391W        W96680  21.143  35.521  11.578
35392W        W96681  29.627  15.233   0.773
35393W        W96682  21.697   2.226  12.528
35394W        W96683  28.485   0.812  12.567
35395W        W96684  27.496  19.258   2.789
35396W        W96685  31.593  32.982  13.478
35397W        W96686  22.251  20.215  11.967
35398W        W96687  10.784  44.295  14.378
35399W        W96688  38.048  18.274  12.913
35400W        W96689   9.879  12.155  11.994
35401W        W96690  43.509  16.571   2.871
35402W        W96691   3.339  26.595   3.819
35403W        W96692   3.917   2.228  13.318
35404W        W96693  20.131  42.378  12.968
35405W        W96694  15.789  16.088   2.901
35406W        W96695  40.531  43.782  11.913
35407W        W96696  32.135  43.966  11.387
35408W        W96697  30.035  25.970  13.824
35409W        W96698  36.921  44.420   3.314
35410W        W96699  16.730  43.316  13.332
35411W        W96700   4.445  41.012   4.332
35412W        W96701  14.312  38.885   2.752
35413W        W96702   4.739   6.204  11.893
35414W        W96703  38.441   6.386   0.373
35415W        W96704  42.490  20.169   2.816
35416W        W96705  36.867  31.096   0.829
35417W        W96706  42.395  37.366  11.375
35418W        W96707  19.190   0.748   1.696
35419W        W96708  31.946  37.018  13.509
35420W        W96709   8.375  27.145   1.817
35421W        W96710   6.317  32.607  13.933
35422W        W96711  33.939  13.197   0.895
35423W        W96712  44.455  19.111  14.438
35424W        W96713  25.198  30.018   0.342
35425W        W96714  10.668   6.890  13.520
35426W        W96715  36.861   0.867   1.933
35427W        W96716  24.093  41.413  14.374
35428W        W96717   5.825  44.837  13.427
35429W        W96718  36.923   7.688   2.827
35430W        W96719  44.778   9.680  13.480
35431W        W96720   9.840  24.720   0.452
35432W        W96721  23.674  21.070  11.093
35433W        W96722  43.998   9.215  14.502
35434W        W96723  11.856  17.729   0.277
35435W        W96724  41.417  43.824  10.631
35436W        W96725  30.924  14.705  11.554
35437W        W96726  39.472   4.435  13.334
35438W        W96727   1.961   2.255  11.584
35439W        W96728  31.436  14.132  12.499
35440W        W96729  26.208  20.207  12.877
35441W        W96730  14.759  34.408   1.804
35442W        W96731   5.839  23.180   5.218
35443W        W96732  28.475  25.160  11.075
35444W        W96733  23.102  29.101  12.953
35445W        W96734  41.323  39.964  14.789
35446W        W96735  11.163  42.381  12.498
35447W        W96736  24.046  37.548   4.281
35448W        W96737  23.164  19.682  12.487
35449W        W96738  12.122  36.928  12.829
35450W        W96739  33.097  17.677   4.623
35451W        W96740  27.993   4.231   4.292
35452W        W96741  29.023  33.553  11.447
35453W        W96742  38.839   1.749   0.365
35454W        W96743  16.741  27.655  14.296
35455W        W96744  44.403   7.698  11.539
35456W        W96745   7.330  16.095  11.423
35457W        W96746   4.286  19.621   2.416
35458W        W96747  33.067  16.230  13.339
35459W        W96748  10.690   5.911   0.857
35460W        W96749  15.616  33.570   0.851
35461W        W96750  20.202  29.654   1.386
35462W        W96751  24.610  29.668   0.967
35463W        W96752  16.569  21.660   1.284
35464W        W96753   5.758  41.881   1.757
35465W        W96754  27.530  12.839  10.501
35466W        W96755  29.968  39.359   3.813
35467W        W96756  30.450  27.583  11.409
35468W        W96757  16.225  32.125  12.396
35469W        W96758  24.208  15.322  12.416
35470W        W96759  12.275  25.685  12.412
35471W        W96760  11.723  28.163   1.436
35472W        W96761  30.005  39.978   4.248
35473W        W96762  26.110  17.641   2.749
35474W        W96763  42.431  26.553  13.010
35475W        W96764  10.263  27.691   0.966
35476W        W96765  44.470  41.975   3.724
35477W        W96766  31.475  29.509  12.017
35478W        W96767  24.172  34.949  12.430
35479W        W96768  22.054  42.890   5.256
35480W        W96769   9.162   4.401   2.696
35481W        W96770  21.592   0.762  10.950
35482W        W96771  11.321  38.333   4.802
35483W        W96772  21.646  25.062  14.376
35484W        W96773  37.463  10.258   4.772
35485W        W96774   8.795  25.160   0.961
35486W        W96775  37.882   2.416   1.784
35487W        W96776   6.899  37.339   4.131
35488W        W96777  37.842  16.096   4.191
35489W        W96778   4.424  39.546   4.233
35490W        W96779  37.530  40.922  10.469
35491W        W96780  23.149  27.036  14.842
35492W        W96781  26.621  32.404   1.381
35493W        W96782   3.730  23.665  13.423
35494W        W96783  24.009  18.079   0.934
35495W        W96784  21.668  23.097  11.943
35496W        W96785  36.416   7.688   1.399
35497W        W96786   0.814  13.608  10.511
35498W        W96787   7.343  10.362  14.464
35499W        W96788  34.909   3.266   4.609
35500W        W96789   3.905  30.948   3.753
35501W        W96790  26.137  42.285  11.476
35502W        W96791   9.811  32.040   1.756
35503W        W96792  31.436   5.793   0.783
35504W        W96793   8.703  36.044   3.744
35505W        W96794   0.975  41.955  13.958
35506W        W96795  38.393  23.209   4.195
35507W        W96796  20.587  38.890  14.773
35508W        W96797   6.837  15.824   1.824
35509W        W96798   3.395  19.231   4.774
35510W        W96799   3.865   6.781  13.506
35511W        W96800  17.584  35.927   4.162
35512W        W96801  14.742  10.348  10.633
35513W        W96802  22.039  32.515  12.479
35514W        W96803  40.813  12.773   0.873
35515W        W96804   1.963  17.268   4.831
35516W        W96805  17.557   5.801   1.789
35517W        W96806   9.344   0.928  10.522
35518W        W96807  32.589  31.547  14.458
35519W        W96808   3.758  23.013  13.009
35520W        W96809   3.300  29.008  14.348
35521W        W96810   8.399  24.707   3.783
35522W        W96811   2.789  26.605  11.503
35523W        W96812   5.378  14.664  14.425
35524W        W96813  26.661  24.977   3.852
35525W        W96814   5.757  31.558  10.483
35526W        W96815  37.951  40.455   4.832
35527W        W96816  25.116   5.425  11.873
35528W        W96817  40.496  13.131  12.042
35529W        W96818   4.276  39.039   4.825
35530W        W96819  11.206  42.434  13.371
35531W        W96820   1.915  12.720   3.805
35532W        W96821  35.514   4.431   5.119
35533W        W96822  36.983  41.974   4.653
35534W        W96823  31.609  35.004  11.553
35535W        W96824  37.514  24.062  14.444
35536W        W96825  14.208  28.128  12.461
35537W        W96826  27.160  14.696  10.429
35538W        W96827   3.331  16.076  13.997
35539W        W96828  16.793  19.144  12.898
35540W        W96829  38.565  23.516  14.512
35541W        W96830  36.458   2.749   0.967
35542W        W96831  27.626   6.378   3.671
35543W        W96832  24.615  11.334  13.986
35544W        W96833  23.232  28.513  13.405
35545W        W96834   2.879  30.916   2.250
35546W        W96835  26.957   5.277  11.951
35547W        W96836  30.457  26.516   0.297
35548W        W96837   7.843  20.081   1.810
35549W        W96838  36.446   5.257  12.449
35550W        W96839  18.617  40.935  13.862
35551W        W96840  16.108  34.041  13.964
35552W        W96841  32.485   7.374  12.838
35553W        W96842   4.715   9.336   1.295
35554W        W96843  11.771  32.519   1.706
35555W        W96844  35.944  25.568   1.892
35556W        W96845  21.200  12.800   9.969
35557W        W96846  27.183  29.482   0.821
35558W        W96847  38.886  33.525  11.081
35559W        W96848  31.055  13.770  13.457
35560W        W96849  36.372  34.063  11.102
35561W        W96850  18.547   9.797   4.629
35562W        W96851  25.218   8.728  11.869
35563W        W96852  10.172  22.644   5.318
35564W        W96853  11.202  16.806  13.994
35565W        W96854  22.081  41.826  11.552
35566W        W96855   7.370  42.988   4.679
35567W        W96856   1.454  43.471  12.956
35568W        W96857  39.340  12.681  13.926
35569W        W96858  43.925  15.802  13.453
35570W        W96859  39.958  28.558   3.661
35571W        W96860  12.720  27.999  13.983
35572W        W96861   1.350  41.969  10.960
35573W        W96862   1.291  25.040   1.250
35574W        W96863  43.284  37.428   3.658
35575W        W96864  16.579  15.713   4.337
35576W        W96865  30.030  41.939   0.799
35577W        W96866  25.150   2.790  10.931
35578W        W96867  35.388  41.036   1.247
35579W        W96868  33.020  35.990  13.329
35580W        W96869  17.089  21.251  11.423
35581W        W96870  44.810   3.784  11.484
35582W        W96871  17.579  18.237   4.243
35583W        W96872   9.291  17.572   3.862
35584W        W96873   4.369  22.047  10.465
35585W        W96874  23.202  27.000   0.807
35586W        W96875  25.586  15.614  10.100
35587W        W96876  15.259   5.701   3.192
35588W        W96877  31.510  25.157  13.050
35589W        W96878   6.757  38.047  14.405
35590W        W96879  20.569   5.390  10.635
35591W        W96880   0.755  39.989  11.017
35592W        W96881  35.104  29.036   4.350
35593W        W96882  15.750  29.041  14.480
35594W        W96883  15.729  33.557  11.591
35595W        W96884   1.403  39.421  11.048
35596W        W96885  33.620  40.866  14.295
35597W        W96886  23.569   8.325   0.919
35598W        W96887  16.085  16.804   1.362
35599W        W96888   6.814  28.623  11.016
35600W        W96889  18.090  33.095  13.531
35601W        W96890  33.963   8.161   0.914
35602W        W96891   4.242   8.712   2.252
35603W        W96892  26.985  27.945   4.146
35604W        W96893  33.612  29.098  12.930
35605W        W96894  34.883   7.684  14.478
35606W        W96895  20.146  43.830   0.281
35607W        W96896   1.379  14.757   2.389
35608W        W96897  15.655  10.343   2.696
35609W        W96898   9.231   3.459   1.901
35610W        W96899  36.893  12.334  10.599
35611W        W96900  14.749   5.889   4.114
35612W        W96901  37.543  37.438  10.050
35613W        W96902  25.481   3.325   2.742
35614W        W96903  33.548  14.639   2.741
35615W        W96904   6.705   1.888  11.050
35616W        W96905   4.226  39.841   3.788
35617W        W96906  43.416  10.824  12.877
35618W        W96907  11.331  21.537   2.225
35619W        W96908  21.258  28.151   0.310
35620W        W96909  36.086  31.098  14.776
35621W        W96910  24.087  39.476   0.921
35622W        W96911  21.674  28.677   4.127
35623W        W96912   3.329   8.748  12.934
35624W        W96913  22.027  18.765   0.762
35625W        W96914  11.687  25.546  12.056
35626W        W96915   1.812  11.638   1.827
35627W        W96916   3.239   6.882  10.634
35628W        W96917   5.918   9.370  13.333
35629W        W96918  17.759  23.603   5.144
35630W        W96919  27.574  42.832  10.531
35631W        W96920  40.504  31.530   2.274
35632W        W96921  25.012  19.281   0.779
35633W        W96922   5.309  17.298  13.882
35634W        W96923  17.585   7.177  14.786
35635W        W96924  26.658   8.837   1.927
35636W        W96925   9.380  29.173  13.485
35637W        W96926  18.108  25.502  14.779
35638W        W96927  44.310  40.417  14.285
35639W        W96928  42.782  18.231   2.901
35640W        W96929  40.545  42.873  14.933
35641W        W96930   3.232  15.301   1.360
35642W        W96931  22.647  31.086   4.834
35643W        W96932  25.632  44.867   1.324
35644W        W96933  23.014  12.357   3.270
35645W        W96934  21.040  24.481  14.284
35646W        W96935  11.676  24.989  14.449
35647W        W96936  24.162  17.273   2.760
35648W        W96937  25.088  32.520  14.470
35649W        W96938  39.544   9.296   1.750
35650W        W96939  18.065  21.527   4.772
35651W        W96940  28.123  33.997  14.929
35652W        W96941   3.216  40.049   0.350
35653W        W96942  28.962  10.802   0.928
35654W        W96943   1.930  13.766   0.404
35655W        W96944  13.812  36.451   0.756
35656W        W96945  38.563  32.481   4.222
35657W        W96946  29.980  38.858  13.795
35658W        W96947  16.721  36.566  13.451
35659W        W96948  38.562   4.801  13.992
35660W        W96949  29.078  20.664   4.275
35661W        W96950  25.998  11.207   3.722
35662W        W96951  23.585  26.545   1.839
35663W        W96952  15.226   2.316  14.962
35664W        W96953  21.102  29.470   4.713
35665W        W96954   7.359  42.857  12.457
35666W        W96955  26.686  13.322  12.503
35667W        W96956  19.054  35.994   2.277
35668W        W96957  23.129  43.927   3.632
35669W        W96958  40.429  10.837  10.447
35670W        W96959   8.688  40.977   2.343
35671W        W96960  39.506  19.718   0.885
35672W        W96961   4.737  14.635  10.934
35673W        W96962  21.555  29.065   0.295
35674W        W96963  29.512   2.240  14.840
35675W        W96964  43.946  42.316   4.753
35676W        W96965   4.327  34.045   0.367
35677W        W96966  23.522  17.159   1.898
35678W        W96967  24.590  25.508   0.471
35679W        W96968   0.470  10.214   1.861
35680W        W96969  24.200  33.118  13.825
35681W        W96970  23.730  14.703  11.534
35682W        W96971  34.945   3.825   9.505
35683W        W96972  42.878  12.319  14.946
35684W        W96973  23.100  24.511  10.419
35685W        W96974  39.967  19.617  14.432
35686W        W96975  35.596  17.609   3.773
35687W        W96976  17.130  31.402   0.356
35688W        W96977  22.733  28.152   4.710
35689W        W96978   8.313   0.743   1.243
35690W        W96979  20.654   8.673  11.076
35691W        W96980  25.105  22.738   3.349
35692W        W96981  43.307   3.854  10.404
35693W        W96982  22.997   9.313  14.884
35694W        W96983  36.930  33.431   3.343
35695W        W96984   5.216   2.849   1.759
35696W        W96985  44.902  11.331  11.428
35697W        W96986  18.598  27.550   3.333
35698W        W96987   5.231  27.155  12.864
35699W        W96988  18.767   1.753  11.386
35700W        W96989  27.973  21.041   0.782
35701W        W96990   8.241  23.011  14.304
35702W        W96991  39.976  38.326   2.241
35703W        W96992   5.384  22.743   2.903
35704W        W96993  25.150  16.232   0.955
35705W        W96994   8.163   4.742   0.418
35706W        W96995  31.469  36.068  11.405
35707W        W96996  11.273   1.396   0.814
35708W        W96997   2.360  14.609  12.894
35709W        W96998  30.527  14.132   0.947
35710W        W96999  17.739   6.251   2.285
35711W        W97000  31.121  14.296  12.540
35712W        W97001  29.139  28.169  11.019
35713W        W97002  32.491  43.456   2.268
35714W        W97003  13.255  12.660  14.870
35715W        W97004  43.872  11.349   5.615
35716W        W97005   7.796  24.483   3.846
35717W        W97006   2.303  27.460  11.536
35718W        W97007  35.910  25.085   1.890
35719W        W97008  21.234  43.274  11.922
35720W        W97009   9.875   3.750  10.137
35721W        W97010  25.139  30.972   1.272
35722W        W97011  12.341  17.557   1.851
35723W        W97012  12.289  41.924  10.945
35724W        W97013  24.163  11.251  12.974
35725W        W97014  31.511   4.892  12.848
35726W        W97015  29.097  30.117   2.845
35727W        W97016  35.948   1.975   2.303
35728W        W97017  23.671  37.943   2.217
35729W        W97018  11.668  34.892   0.905
35730W        W97019  29.112   9.667   3.726
35731W        W97020  27.645  17.062  11.574
35732W        W97021  41.883  38.880  13.045
35733W        W97022   7.666   6.292  11.985
35734W        W97023   7.886  15.147   4.172
35735W        W97024  27.982  35.916   4.818
35736W        W97025  25.091   4.736  11.903
35737W        W97026  13.640   6.346  10.427
35738W        W97027  27.161  30.545   0.808
35739W        W97028  10.792   3.336   2.369
35740W        W97029  42.381   5.247   2.667
35741W        W97030   5.344   4.396  10.622
35742W        W97031  26.482  17.677   2.885
35743W        W97032  39.005  11.223  10.052
35744W        W97033  19.662  40.984  13.803
35745W        W97034  29.920  42.999   0.965
35746W        W97035  36.930  24.078  12.561
35747W        W97036  28.186  31.592  12.366
35748W        W97037   6.786  34.484  11.591
35749W        W97038   5.439   6.825  10.984
35750W        W97039  25.574  14.284   4.780
35751W        W97040   9.311  23.690  12.075
35752W        W97041   4.448   3.903   4.252
35753W        W97042  31.066  43.383  13.525
35754W        W97043  38.524  17.746  12.926
35755W        W97044   2.938  18.121   4.289
35756W        W97045  31.602  19.117  14.999
35757W        W97046  10.858   2.923  11.049
35758W        W97047   8.309  40.421   3.182
35759W        W97048   2.469  18.546   4.197
35760W        W97049  33.958  41.478   0.862
35761W        W97050   6.683  16.640   2.194
35762W        W97051  37.845  43.990  13.807
35763W        W97052  10.711  34.389   2.271
35764W        W97053   1.818  20.191  11.913
35765W        W97054  40.491  41.498  14.409
35766W        W97055  41.512   0.274   1.704
35767W        W97056  19.229  23.070   0.776
35768W        W97057  16.263  10.251  13.319
35769W        W97058  11.646  26.966  12.973
35770W        W97059  41.342  32.976  10.494
35771W        W97060   8.330  40.920  11.939
35772W        W97061  38.439  34.582  10.991
35773W        W97062  38.883  44.775   3.798
35774W        W97063  11.138  24.669   2.340
35775W        W97064   8.736  33.900   1.353
35776W        W97065   4.325  27.121   0.263
35777W        W97066   2.352  12.666   3.346
35778W        W97067  41.855  35.856  14.370
35779W        W97068  13.773  18.205   1.327
35780W        W97069  25.562  32.426  14.882
35781W        W97070  30.639  18.761  12.574
35782W        W97071  15.584  29.975   4.124
35783W        W97072  32.485  41.892   4.764
35784W        W97073  41.038  43.369  14.932
35785W        W97074  19.681  24.712  12.894
35786W        W97075  33.514  33.897  14.007
35787W        W97076   5.390  26.589  14.782
35788W        W97077  34.408  34.927   0.777
35789W        W97078  10.675  33.427   1.340
35790W        W97079  43.392  40.378   2.209
35791W        W97080  44.846  15.722   3.384
35792W        W97081  21.656  43.888  13.983
35793W        W97082  31.125  29.574   0.732
35794W        W97083  43.506   1.761  13.334
35795W        W97084  32.426   0.423   1.754
35796W        W97085  24.531  40.313  12.358
35797W        W97086  18.275   4.839   1.714
35798W        W97087  30.449  28.504  13.380
35799W        W97088   3.345  30.979  12.467
35800W        W97089  12.127  28.438  14.513
35801W        W97090  43.950  14.670   4.160
35802W        W97091   8.294   3.297  11.105
35803W        W97092  26.169  18.117  14.940
35804W        W97093  23.715   6.733  12.423
35805W        W97094  19.618  14.291  12.342
35806W        W97095   2.777  40.472  11.535
35807W        W97096  12.180  34.606   0.830
35808W        W97097  16.252  43.375   2.228
35809W        W97098   0.465  12.645   1.305
35810W        W97099  27.626  22.588   3.280
35811W        W97100  42.854  13.685   3.800
35812W        W97101  36.884  32.444   2.852
35813W        W97102  43.412  15.314   4.181
35814W        W97103  24.135  28.979   1.343
35815W        W97104  30.058  37.026  14.367
35816W        W97105  20.710  25.522   3.767
35817W        W97106   7.370  28.152   3.730
35818W        W97107   6.689  15.793  14.890
35819W        W97108  40.425  43.972   4.277
35820W        W97109  16.723  12.266  14.942
35821W        W97110  29.563   8.818  12.825
35822W        W97111  22.154  28.528  10.461
35823W        W97112  37.038   4.226  10.645
35824W        W97113  17.687  27.606  11.548
35825W        W97114  14.314   1.354  10.053
35826W        W97115   8.253   9.722   0.255
35827W        W97116  26.650  13.209  14.759
35828W        W97117  27.630  34.871   4.173
35829W        W97118  27.593  39.912   4.354
35830W        W97119  28.172  16.182  14.008
35831W        W97120  28.978  28.140   3.278
35832W        W97121  41.415  38.345  14.877
35833W        W97122  43.495  25.033   0.413
35834W        W97123  24.119  38.056   1.316
35835W        W97124  33.045  15.626  14.946
35836W        W97125  43.962  18.173  13.538
35837W        W97126  21.748   6.330  13.888
35838W        W97127  19.074  20.183   3.288
35839W        W97128  24.616  38.338  14.329
35840W        W97129   5.269   4.792  12.886
35841W        W97130  16.758  15.647  14.013
35842W        W97131   1.248  20.252  14.815
35843W        W97132  29.057  35.885  12.575
35844W        W97133  18.630  11.653  13.848
35845W        W97134  39.881  39.013   1.249
35846W        W97135  23.143  21.622  10.001
35847W        W97136   6.846  24.484  10.438
35848W        W97137  39.327  23.239   2.805
35849W        W97138  33.482  33.980   4.664
35850W        W97139  35.404  42.863   1.283
35851W        W97140   8.405   5.743   3.684
35852W        W97141   6.896   9.196   3.344
35853W        W97142   6.371  36.363  10.936
35854W        W97143  14.811   8.221   0.438
35855W        W97144  40.425  12.826  10.576
35856W        W97145  24.654  20.625   4.730
35857W        W97146  22.566  13.833   3.385
35858W        W97147  17.621  35.086  12.881
35859W        W97148  14.159  24.988  11.924
35860W        W97149  14.633  24.526  13.548
35861W        W97150   0.417  25.528   4.629
35862W        W97151  27.670  17.304   0.762
35863W        W97152  23.727  39.451   2.666
35864W        W97153   7.224  37.891   1.858
35865W        W97154  17.646   5.243  14.460
35866W        W97155  18.551  19.740   4.609
35867W        W97156  43.342  23.138  10.485
35868W        W97157   5.798   4.910  11.963
35869W        W97158  35.552  25.524  12.955
35870W        W97159  35.369  36.370  11.925
35871W        W97160  17.776  13.731   0.464
35872W        W97161  28.625  11.287   1.332
35873W        W97162  14.117  25.028   0.817
35874W        W97163  27.049   6.891   0.453
35875W        W97164  38.951  33.551   1.424
35876W        W97165   2.755  21.660   1.772
35877W        W97166  31.446   9.206  12.383
35878W        W97167  26.550  19.212   0.728
35879W        W97168  35.435  19.248  13.370
35880W        W97169   2.926  26.004  12.962
35881W        W97170  24.641  29.150   1.767
35882W        W97171  24.164  11.286  14.511
35883W        W97172   2.931  39.556  12.471
35884W        W97173  13.303  39.900   2.729
35885W        W97174   5.307  32.079   3.647
35886W        W97175  17.294   8.397   2.682
35887W        W97176   4.787   8.746   3.158
35888W        W97177  26.108  44.455   3.795
35889W        W97178  37.079  15.752   2.893
35890W        W97179  12.341   9.883  14.493
35891W        W97180  16.263  25.968  10.586
35892W        W97181  27.609  41.805  12.997
35893W        W97182  44.379  25.190   1.247
35894W        W97183  29.099  13.338   0.900
35895W        W97184   9.361   5.736   0.410
35896W        W97185  11.859  35.022  11.488
35897W        W97186  27.155  38.443  10.502
35898W        W97187   4.719  21.556   1.367
35899W        W97188  31.093   0.363   2.899
35900W        W97189  40.888  38.372  11.020
35901W        W97190   8.735   2.785  12.867
35902W        W97191  22.213  14.650   0.775
35903W        W97192  26.174  21.255   5.095
35904W        W97193  32.546   2.388  11.509
35905W        W97194  30.535  43.874  14.321
35906W        W97195  42.779  11.314   1.250
35907W        W97196  25.067  22.632   2.227
35908W        W97197  10.285  24.119  13.018
35909W        W97198  11.153  32.460  11.870
35910W        W97199  26.528  44.467   4.199
35911W        W97200  27.540   9.691  14.459
35912W        W97201  24.680  34.550   0.897
35913W        W97202  35.914  12.232   2.306
35914W        W97203   7.682  27.515  11.907
35915W        W97204  35.447   9.374   1.913
35916W        W97205  10.650  11.688   1.911
35917W        W97206  27.944  41.900  12.409
35918W        W97207  17.259  37.538   3.146
35919W        W97208  16.586  43.384   3.695
35920W        W97209  21.754   4.751  13.863
35921W        W97210   5.422   1.849   4.760
35922W        W97211  14.268   9.709   2.286
35923W        W97212  29.081  14.800   0.304
35924W        W97213  30.611   4.805   3.317
35925W        W97214  33.128  14.287  11.887
35926W        W97215  16.270   8.182  13.007
35927W        W97216  15.219  34.064   1.349
35928W        W97217  28.608  13.662  12.881
35929W        W97218  32.991   8.323   2.679
35930W        W97219   1.312  44.416  12.428
35931W        W97220   5.826  10.209   2.235
35932W        W97221  28.501   1.353  13.401
35933W        W97222  22.636  28.495   0.735
35934W        W97223  18.781  37.531   4.297
35935W        W97224  23.495  28.584  11.100
35936W        W97225  12.815   4.426  14.362
35937W        W97226  19.620   7.896  14.480
35938W        W97227   6.798   9.772   1.229
35939W        W97228  11.372  20.255  11.457
35940W        W97229  36.855  44.920  14.937
35941W        W97230  18.133  23.133  11.878
35942W        W97231  12.813  17.732   4.163
35943W        W97232  31.974   6.235  12.580
35944W        W97233   1.286   1.884   1.339
35945W        W97234   4.788  31.639  12.346
35946W        W97235  36.003  39.985   2.235
35947W        W97236  23.528  32.971  13.367
35948W        W97237  16.227  18.243  13.520
35949W        W97238   0.379  12.847   0.827
35950W        W97239  15.767  39.894   2.358
35951W        W97240  42.862  24.050  12.012
35952W        W97241  34.010  15.227   3.342
35953W        W97242  34.478   5.720   5.240
35954W        W97243  17.731  29.042  14.387
35955W        W97244   0.765   4.712  14.461
35956W        W97245  17.108   3.432  12.881
35957W        W97246  24.671   2.411  14.784
35958W        W97247  38.829  33.589   0.381
35959W        W97248  23.492  26.644  10.496
35960W        W97249  30.652  10.226   0.465
35961W        W97250  13.751   6.270   2.210
35962W        W97251  36.549  18.630   0.825
35963W        W97252   0.282   0.404  13.377
35964W        W97253  27.059  17.620  11.008
35965W        W97254  23.663  40.833   4.697
35966W        W97255   1.350  16.247  11.589
35967W        W97256  35.554  10.316   1.741
35968W        W97257   8.673  28.646   3.283
35969W        W97258  38.527  29.460  10.537
35970W        W97259  26.093  39.388   1.710
35971W        W97260  22.585  15.643  10.075
35972W        W97261  29.020  16.166  14.337
35973W        W97262  11.646   8.667  10.968
35974W        W97263  17.267  36.576   2.297
35975W        W97264  38.962  24.200   3.292
35976W        W97265  10.350  11.238   1.929
35977W        W97266  43.473  42.408  11.612
35978W        W97267   9.737  23.047   2.254
35979W        W97268  39.437  22.219   4.309
35980W        W97269  42.881   4.238   1.356
35981W        W97270  30.033  20.172   4.675
35982W        W97271  17.800   4.270  10.530
35983W        W97272  21.647  18.221   0.378
35984W        W97273  36.391  32.956  14.319
35985W        W97274  20.552  35.070  10.617
35986W        W97275  14.819   8.843  14.393
35987W        W97276  26.179  26.522  11.983
35988W        W97277   8.388  38.524   0.417
35989W        W97278  26.460  13.351  12.090
35990W        W97279  30.609  27.522   1.709
35991W        W97280  33.990   0.439  10.915
35992W        W97281  17.214  28.995   0.270
35993W        W97282  18.590  10.201  14.017
35994W        W97283  36.474  25.210   2.232
35995W        W97284   1.280  34.948   1.227
35996W        W97285  10.637  31.447   2.882
35997W        W97286  11.230  19.130   0.788
35998W        W97287  25.139  23.724   4.116
35999W        W97288  32.446  16.661   3.216
36000W        W97289   4.366   5.303  12.853
36001W        W97290  25.679  12.343   1.748
36002W        W97291  27.610  29.466   1.263
36003W        W97292   6.189   0.923  11.445
36004W        W97293  22.745   1.823   2.390
36005W        W97294  40.989  17.185  12.566
36006W        W97295  35.961  25.545  13.357
36007W        W97296  13.827  39.526   4.231
36008W        W97297  17.650  39.039  13.389
36009W        W97298  14.158  13.130   1.240
36010W        W97299  21.025   3.893  13.417
36011W        W97300  13.112   2.759   2.256
36012W        W97301  21.233  28.978   3.736
36013W        W97302  21.691   0.900  14.883
36014W        W97303  24.097   1.854  13.345
36015W        W97304  23.694  23.123  10.111
36016W        W97305   8.373  37.895   3.350
36017W        W97306  44.004   0.348  11.976
36018W        W97307   6.842   4.314  11.098
36019W        W97308  23.599  23.711   1.857
36020W        W97309  28.137   1.409   3.324
36021W        W97310  29.151  43.426   4.335
36022W        W97311  43.458  35.979   1.794
36023W        W97312   2.279  19.592   0.422
36024W        W97313  13.690  40.812   0.869
36025W        W97314  15.317  18.246  13.474
36026W        W97315  31.959  12.161  13.487
36027W        W97316   4.330  16.164  10.628
36028W        W97317  10.333  35.386  12.831
36029W        W97318  19.586  28.572  11.054
36030W        W97319   7.343  33.449   0.758
36031W        W97320  23.219  10.166   0.732
36032W        W97321  21.129   7.904   3.736
36033W        W97322  29.561  31.429  12.036
36034W        W97323  42.840  19.631   2.311
36035W        W97324  27.608   4.892   0.373
36036W        W97325   7.878  28.517  10.101
36037W        W97326  39.369  41.990  14.319
36038W        W97327  30.452  42.958   4.660
36039W        W97328  41.031  21.037   5.137
36040W        W97329  15.607  29.623   2.798
36041W        W97330  25.614  24.612   0.464
36042W        W97331  33.067  27.033  13.913
36043W        W97332  10.224  31.961  11.918
36044W        W97333   3.393  26.057   4.346
36045W        W97334  30.056  32.959   4.240
36046W        W97335   9.249  21.232  13.920
36047W        W97336   8.383   9.662   4.805
36048W        W97337   5.213   5.812  11.588
36049W        W97338  38.570  28.032  12.074
36050W        W97339  32.141  39.503  13.004
36051W        W97340  40.326  42.515   3.153
36052W        W97341  40.534  39.054   2.777
36053W        W97342  28.004  44.007  14.815
36054W        W97343  31.513  24.609  12.069
36055W        W97344  37.011   2.329  13.818
36056W        W97345  10.692   8.362   1.736
36057W        W97346  10.732  25.968  11.547
36058W        W97347  18.717  34.060  13.476
36059W        W97348  15.618  22.617  11.048
36060W        W97349  14.819   4.764   0.776
36061W        W97350  39.465  16.289  14.980
36062W        W97351  33.045  32.517  11.452
36063W        W97352  28.038  40.363  13.339
36064W        W97353   9.156  36.424   0.824
36065W        W97354   2.392  33.907  13.331
36066W        W97355  27.192   0.938  12.400
36067W        W97356  14.103  26.609   5.185
36068W        W97357  21.565   2.858  12.339
36069W        W97358  10.765  26.043  12.937
36070W        W97359  24.195  38.508  12.353
36071W        W97360   8.722  44.371   2.705
36072W        W97361   5.275  12.121  10.581
36073W        W97362   0.846   5.886   3.170
36074W        W97363  14.615   1.295  10.425
36075W        W97364  44.291  33.624  14.797
36076W        W97365  36.977  16.152   2.376
36077W        W97366  11.650   4.791  11.525
36078W        W97367   8.818  39.438  12.950
36079W        W97368   9.809  24.644   2.675
36080W        W97369  27.043  24.155   1.280
36081W        W97370  15.639  22.179   3.379
36082W        W97371  43.867   8.807  12.015
36083W        W97372  44.504   6.813  12.930
36084W        W97373  29.960  34.395   1.310
36085W        W97374   3.445  37.915  13.341
36086W        W97375  13.668  25.175  10.932
36087W        W97376   8.796  31.897   0.917
36088W        W97377  30.990  26.511  13.059
36089W        W97378  16.749  40.848   4.601
36090W        W97379  43.809  26.162  13.003
36091W        W97380  37.571  27.041  12.865
36092W        W97381  23.582  28.540   3.767
36093W        W97382   3.830   5.229  14.409
36094W        W97383   1.788  21.133  11.991
36095W        W97384  17.224  17.609   4.823
36096W        W97385  22.027  22.123   0.809
36097W        W97386  31.596  20.689   4.324
36098W        W97387  22.717   3.355   0.828
36099W        W97388   0.968  31.493   3.758
36100W        W97389  22.514  27.165  14.818
36101W        W97390  34.368  10.262  11.410
36102W        W97391  10.691  12.782   1.933
36103W        W97392  26.006  37.533  12.573
36104W        W97393  19.616   2.803   3.313
36105W        W97394  17.160   3.394   4.132
36106W        W97395  40.438  38.912  12.899
36107W        W97396  14.245  44.894  12.919
36108W        W97397  21.211  32.428   3.680
36109W        W97398  28.150  40.926   1.378
36110W        W97399  11.348  13.666  14.430
36111W        W97400   4.781  31.612   4.239
36112W        W97401  42.965  27.458  10.532
36113W        W97402   7.381  24.153   2.247
36114W        W97403   6.212  14.615  12.447
36115W        W97404  20.699  35.537   0.466
36116W        W97405  18.693   0.397   4.739
36117W        W97406   5.232  33.028   4.673
36118W        W97407  34.919  44.307   1.364
36119W        W97408  40.535   5.387  12.900
36120W        W97409  40.405  25.593   4.304
36121W        W97410  22.524  13.668  13.820
36122W        W97411  16.763   3.838   0.798
36123W        W97412  23.193  31.462  14.899
36124W        W97413  28.654  16.303  11.980
36125W        W97414  30.624   0.264   0.373
36126W        W97415  23.155  16.292   3.699
36127W        W97416  19.544  31.555  11.020
36128W        W97417  10.813  37.427  14.823
36129W        W97418  29.111  17.134   1.217
36130W        W97419  26.487  24.556  14.909
36131W        W97420  43.505  12.811  12.994
36132W        W97421  34.049  10.361  13.533
36133W        W97422  14.745  11.835   1.818
36134W        W97423  16.255   1.903  14.006
36135W        W97424  29.464  33.441   3.221
36136W        W97425  30.632   7.324  11.473
36137W        W97426  27.992  36.367  11.962
36138W        W97427  21.244  27.945  14.296
36139W        W97428  42.475  16.768  13.463
36140W        W97429   6.867  19.269   4.149
36141W        W97430   5.926  12.722   0.932
36142W        W97431   4.276  22.112   3.643
36143W        W97432  10.219  38.042  13.883
36144W        W97433  37.965  19.739  14.933
36145W        W97434  44.399   9.154   3.164
36146W        W97435  20.230   2.762   0.808
36147W        W97436  31.618  22.187  13.323
36148W        W97437   5.920  20.126   3.378
36149W        W97438   6.188  36.933   0.963
36150W        W97439  11.752  40.370  11.076
36151W        W97440  21.111  19.662  14.846
36152W        W97441  19.577  17.293  11.933
36153W        W97442   9.341  36.407  14.862
36154W        W97443  15.194  15.716  10.641
36155W        W97444  20.649   1.306   2.383
36156W        W97445   5.342  10.871  11.899
36157W        W97446  25.162  37.909  10.594
36158W        W97447  31.054  35.479  11.381
36159W        W97448   2.271  41.983  13.480
36160W        W97449  10.670  17.269  11.101
36161W        W97450  25.712   4.888   3.255
36162W        W97451  30.429  33.382   3.840
36163W        W97452  10.687  30.048   9.650
36164W        W97453  44.485  44.419   1.249
36165W        W97454  16.758  20.603  14.430
36166W        W97455  10.824  24.137  11.393
36167W        W97456  33.935  12.636  14.851
36168W        W97457  30.555  27.548   2.742
36169W        W97458  24.106   7.793  14.471
36170W        W97459   3.231  33.942  10.498
36171W        W97460  19.696  34.476   3.271
36172W        W97461  43.798   6.742  10.490
36173W        W97462   2.356  11.237  11.048
36174W        W97463  31.422  37.414   0.398
36175W        W97464   7.410  39.992   1.234
36176W        W97465  22.601  40.344   0.837
36177W        W97466  21.514   2.726   2.679
36178W        W97467  23.083  28.115   2.217
36179W        W97468   2.880  42.447   4.676
36180W        W97469  33.619  17.703   1.393
36181W        W97470  23.603  44.799  10.595
36182W        W97471   4.357  11.793   2.874
36183W        W97472  14.182  16.594  11.019
36184W        W97473  36.923   1.761  12.957
36185W        W97474   4.826  18.660  11.923
36186W        W97475  38.564   9.247  11.431
36187W        W97476   3.880  25.146  13.332
36188W        W97477  42.894  35.929  13.349
36189W        W97478  23.109  16.640  12.416
36190W        W97479  42.480  30.639  12.353
36191W        W97480   8.774  37.012   2.242
36192W        W97481  34.415  23.141  14.015
36193W        W97482  16.613  14.744   1.694
36194W        W97483  24.602  32.994  11.056
36195W        W97484  42.883   5.723  13.463
36196W        W97485   2.896  26.640   1.715
36197W        W97486  31.141  38.074   4.710
36198W        W97487  22.549   4.809  12.899
36199W        W97488  36.888   0.755   3.810
36200W        W97489  26.494  35.013  12.494
36201W        W97490   9.697  43.400  14.459
36202W        W97491  16.143  15.153   0.269
36203W        W97492   8.301  15.263  14.764
36204W        W97493   1.351  20.129   2.688
36205W        W97494  39.365  33.473  10.434
36206W        W97495   2.467  11.211   1.921
36207W        W97496  12.312  25.049  11.996
36208W        W97497  18.192  14.814   0.794
36209W        W97498  41.507   2.319   3.807
36210W        W97499   9.221   6.824  12.497
36211W        W97500  11.338  29.168   0.790
36212W        W97501  42.809  30.163   1.859
36213W        W97502   7.799  12.206  12.863
36214W        W97503  34.119  38.069   4.707
36215W        W97504  25.095  11.214  12.495
36216W        W97505  27.642   4.407  14.370
36217W        W97506  10.173   0.906  11.535
36218W        W97507   6.718  16.155   3.647
36219W        W97508  26.463  28.054  13.489
36220W        W97509  25.594  33.393   1.238
36221W        W97510  23.068  38.063  12.086
36222W        W97511  24.496   7.743   1.772
36223W        W97512  42.485  11.341  11.114
36224W        W97513  25.505   3.804   2.847
36225W        W97514  42.320  44.298  11.012
36226W        W97515  41.304  42.897   4.341
36227W        W97516  33.433  35.024   1.300
36228W        W97517  16.079   3.873   0.302
36229W        W97518   1.741  11.140  13.976
36230W        W97519   3.220  16.267  13.338
36231W        W97520  25.486  27.144  14.453
36232W        W97521  18.636  11.841   3.744
36233W        W97522  29.623  17.078  14.297
36234W        W97523  22.524   1.335   2.829
36235W        W97524  21.717  44.982  11.544
36236W        W97525  21.521  36.924   4.145
36237W        W97526  43.485  23.537  10.029
36238W        W97527  15.235   6.312   2.731
36239W        W97528  29.132  20.713   0.835
36240W        W97529  15.623  17.116  12.505
36241W        W97530  26.572  36.536   5.105
36242W        W97531  11.203   4.379   0.885
36243W        W97532  16.226  19.637   0.358
36244W        W97533  35.069  44.396  12.342
36245W        W97534   6.866  37.044   0.248
36246W        W97535   7.770   5.831   0.258
36247W        W97536  13.231  28.985  14.811
36248W        W97537  24.141  13.258  12.410
36249W        W97538  36.419  26.649  14.825
36250W        W97539  24.000  17.167   0.352
36251W        W97540  19.282  22.055  11.560
36252W        W97541  16.622  23.142  14.830
36253W        W97542  10.165  36.099   4.642
36254W        W97543  39.441  42.918  11.034
36255W        W97544  37.477  21.549  11.891
36256W        W97545  32.464  10.778  11.522
36257W        W97546  31.959  40.874   2.694
36258W        W97547   5.433  26.187  12.504
36259W        W97548  14.147   0.264   9.539
36260W        W97549  25.653  30.039   3.670
36261W        W97550   9.833   5.255   2.279
36262W        W97551  30.046  27.995  14.438
36263W        W97552   9.344  19.709  12.460
36264W        W97553  12.304  35.941   4.158
36265W        W97554  24.678   2.953   2.742
36266W        W97555  41.955  40.975   2.337
36267W        W97556  15.732  25.085   1.841
36268W        W97557  25.146  40.359  14.001
36269W        W97558  42.863  14.099   2.749
36270W        W97559  25.525  28.471   1.759
36271W        W97560  16.216  44.401  12.884
36272W        W97561  28.632  43.506  10.626
36273W        W97562  37.467  33.033  14.812
36274W        W97563  42.414  20.165   4.313
36275W        W97564  30.447  31.468   3.832
36276W        W97565  12.669  33.945   4.643
36277W        W97566  20.177   5.369   4.282
36278W        W97567  39.812  41.883   0.863
36279W        W97568  27.962  27.102   4.793
36280W        W97569  36.563  36.943   3.772
36281W        W97570  33.493  18.616   3.321
36282W        W97571  17.800  42.465   3.314
36283W        W97572  31.975  44.893  11.416
36284W        W97573  16.200  42.911   0.801
36285W        W97574  44.903  18.672  12.998
36286W        W97575  21.156  43.432   2.764
36287W        W97576  33.938   0.748  12.380
36288W        W97577  43.414  44.894   4.607
36289W        W97578  33.417  17.303   2.887
36290W        W97579  42.031  19.585   0.389
36291W        W97580  43.499  32.965   2.223
36292W        W97581  43.926  33.542   4.743
36293W        W97582  24.979   7.839  11.515
36294W        W97583  15.219  33.552   0.820
36295W        W97584  38.821  17.146  10.500
36296W        W97585  20.108  16.285   0.450
36297W        W97586  31.069  10.346   2.196
36298W        W97587  36.432  30.434  10.068
36299W        W97588  42.812  34.476  10.969
36300W        W97589  12.734   5.322  10.945
36301W        W97590   4.917   2.781  14.301
36302W        W97591   4.325  28.061   2.662
36303W        W97592  32.428  24.134   2.682
36304W        W97593   8.852  21.665   2.285
36305W        W97594  31.088  12.766   3.778
36306W        W97595  18.074  14.120  10.560
36307W        W97596  19.163  31.917   4.354
36308W        W97597  18.065  20.574  12.398
36309W        W97598  36.428   1.293  10.553
36310W        W97599  31.549  11.179   3.317
36311W        W97600  24.720   8.771   3.354
36312W        W97601  38.566  36.412  14.904
36313W        W97602  27.586  31.614  11.396
36314W        W97603  25.549   0.387   2.257
36315W        W97604  22.037  24.002  11.395
36316W        W97605  24.536   2.898  10.611
36317W        W97606   6.225  28.004   1.926
36318W        W97607  35.873  33.593   5.125
36319W        W97608   1.735  22.216  14.885
36320W        W97609  19.061  12.661   0.819
36321W        W97610  11.297  33.101  12.877
36322W        W97611  40.885  27.124   4.820
36323W        W97612  29.524   8.861  14.978
36324W        W97613  38.374  34.061  14.319
36325W        W97614  10.312  26.529  13.363
36326W        W97615  39.329  38.401  11.451
36327W        W97616  44.416   2.372   5.199
36328W        W97617  34.094   8.804  11.014
36329W        W97618  40.949  43.968   2.297
36330W        W97619  43.982  41.295   3.783
36331W        W97620   2.747  12.196   0.278
36332W        W97621  30.586  27.595   2.294
36333W        W97622  33.582   2.424  12.578
36334W        W97623  31.034  42.398  13.856
36335W        W97624  33.528  21.215   1.922
36336W        W97625  11.298  20.161   0.871
36337W        W97626  11.783  38.409   3.629
36338W        W97627  16.741  37.572  13.548
36339W        W97628  30.601   7.847   2.727
36340W        W97629   5.406  11.135   4.205
36341W        W97630  42.020  44.376   4.726
36342W        W97631  11.305  28.107   3.240
36343W        W97632  38.058  37.338  13.792
36344W        W97633   0.850   5.306  11.114
36345W        W97634  24.106  20.584   1.397
36346W        W97635  36.076  21.538   0.370
36347W        W97636  30.966  10.149   3.845
36348W        W97637   4.804  20.629  14.920
36349W        W97638  44.866  18.581  10.908
36350W        W97639   9.204  28.617   3.816
36351W        W97640  21.258  17.284  12.465
36352W        W97641  42.522  35.400  12.471
36353W        W97642  17.108  26.081   1.905
36354W        W97643  26.673   1.774   4.645
36355W        W97644  34.091   3.943   2.900
36356W        W97645  11.640  18.770   1.230
36357W        W97646  22.501  36.039  10.411
36358W        W97647   1.279  42.942   1.777
36359W        W97648  39.390  36.397   1.850
36360W        W97649  22.251  35.039   3.291
36361W        W97650  44.288  43.843  13.958
36362W        W97651  18.613  38.419  14.441
36363W        W97652  21.178   8.833   4.133
36364W        W97653  19.656  12.351  11.570
36365W        W97654  16.736  24.136  13.811
36366W        W97655  21.621   0.297  13.962
36367W        W97656  43.872   4.446   3.288
36368W        W97657  41.833  38.363   0.387
36369W        W97658  10.236  11.792  11.053
36370W        W97659  35.594   9.364  13.860
36371W        W97660  28.675  14.817   0.726
36372W        W97661  35.940  14.623  13.495
36373W        W97662   9.306   0.303  12.968
36374W        W97663  12.679   4.717   1.832
36375W        W97664  35.887  36.894  12.488
36376W        W97665  26.608  40.316   2.363
36377W        W97666  15.234  24.131   3.659
36378W        W97667  31.544  40.823   2.396
36379W        W97668  13.600  30.578  12.983
36380W        W97669  11.811  22.682   9.938
36381W        W97670  24.213  26.124   4.137
36382W        W97671  35.853  28.145   3.264
36383W        W97672  17.294  34.479  14.453
36384W        W97673  39.956   7.845   0.790
36385W        W97674   1.872  34.059  11.953
36386W        W97675  37.517  18.128  13.975
36387W        W97676  27.174  39.904   0.272
36388W        W97677  31.414  43.429  13.546
36389W        W97678   5.398  44.772  13.486
36390W        W97679  40.815  31.440   2.258
36391W        W97680  33.080   9.773   0.321
36392W        W97681  43.346   0.806   0.295
36393W        W97682  23.017  11.350   4.723
36394W        W97683   0.492  10.271   1.299
36395W        W97684  12.161  25.658   2.358
36396W        W97685  25.046  37.962   1.718
36397W        W97686  26.702  36.570   2.881
36398W        W97687  39.923   4.699   3.187
36399W        W97688  15.766  15.823  14.508
36400W        W97689  32.429  21.154  10.018
36401W        W97690  34.963  10.654  10.942
36402W        W97691  18.190  40.924  11.511
36403W        W97692  28.051   4.349   4.731
36404W        W97693   2.798  15.234   3.870
36405W        W97694  38.476   6.197   2.275
36406W        W97695   9.282  28.030   0.896
36407W        W97696  13.250   1.403   3.374
36408W        W97697  18.738   3.291  12.931
36409W        W97698  42.800  11.129   4.780
36410W        W97699   1.253  40.399   4.816
36411W        W97700  14.638  13.648  11.977
36412W        W97701  38.488  32.045   2.179
36413W        W97702  24.031  24.213  12.515
36414W        W97703  18.579   1.438   4.712
36415W        W97704  26.623  27.003   2.193
36416W        W97705  15.589   0.299   4.209
36417W        W97706  14.227  40.540  10.504
36418W        W97707   4.210  17.152   2.711
36419W        W97708  10.792  30.492   2.783
36420W        W97709   9.870  19.239  12.825
36421W        W97710  41.453   7.707   0.936
36422W        W97711   4.870  14.815  14.380
36423W        W97712  16.230  14.800   0.396
36424W        W97713  36.421  29.997  11.515
36425W        W97714  21.615   5.247   1.842
36426W        W97715  21.044  17.783   2.403
36427W        W97716  30.506  43.916  10.548
36428W        W97717  25.969  42.981  11.447
36429W        W97718  12.268   9.219  10.440
36430W        W97719  33.532  11.621   3.855
36431W        W97720  11.201   9.321   2.252
36432W        W97721  29.476  32.434   1.394
36433W        W97722  26.583  27.053  11.466
36434W        W97723  33.961  43.371  14.340
36435W        W97724  25.586  13.324  12.862
36436W        W97725  38.854  22.157   2.335
36437W        W97726  33.954  13.323   2.678
36438W        W97727  30.919  26.185   3.755
36439W        W97728  11.343  42.319   1.881
36440W        W97729  24.685  10.648  13.981
36441W        W97730  42.846  11.660   1.348
36442W        W97731   7.711  12.827   1.882
36443W        W97732  20.169   4.219  10.981
36444W        W97733  14.780  22.555  14.896
36445W        W97734   0.901  26.001  14.399
36446W        W97735  39.494  24.687   0.943
36447W        W97736  42.879  12.127  12.955
36448W        W97737   3.884   1.368   0.277
36449W        W97738   4.794   7.281  13.341
36450W        W97739   0.424   9.164  12.078
36451W        W97740  20.624  33.113   4.214
36452W        W97741   9.750  26.617  10.029
36453W        W97742  39.995  44.438   4.230
36454W        W97743  37.512   7.367  13.991
36455W        W97744  19.605  10.841  10.528
36456W        W97745   0.347   4.256  12.401
36457W        W97746   7.872   9.841   2.819
36458W        W97747  24.060  26.659  13.510
36459W        W97748  43.992  27.626   0.455
36460W        W97749  30.422  44.466   4.204
36461W        W97750  21.253  14.649  14.776
36462W        W97751   7.666  30.159  11.391
36463W        W97752  34.961  17.303  12.023
36464W        W97753  44.777  19.557  10.433
36465W        W97754  19.595  34.942   1.216
36466W        W97755  24.215  24.123  13.340
36467W        W97756  29.458  36.419   1.711
36468W        W97757  16.578  27.004  11.476
36469W        W97758  35.014  18.779   3.315
36470W        W97759  20.113  26.048  12.496
36471W        W97760  31.596  44.834   2.782
36472W        W97761  31.453  20.046  13.540
36473W        W97762   4.843  44.362   2.770
36474W        W97763  33.475  14.614   1.848
36475W        W97764  28.109  10.220  13.824
36476W        W97765   3.940  30.931   1.779
36477W        W97766   1.361   8.772  12.069
36478W        W97767  27.472  31.058  10.982
36479W        W97768  36.025  37.476  11.507
36480W        W97769  41.424  26.668   1.374
36481W        W97770  33.131   3.449   9.486
36482W        W97771  37.504   0.752  10.974
36483W        W97772  27.081  44.801  10.627
36484W        W97773  29.095  34.385   3.685
36485W        W97774  13.309  32.960   4.118
36486W        W97775  43.814  14.588  11.468
36487W        W97776   9.646  32.128   1.406
36488W        W97777  34.915  32.986   0.830
36489W        W97778  32.484  23.565   3.758
36490W        W97779  44.358  31.082  14.413
36491W        W97780  19.576  27.987   3.796
36492W        W97781  33.876  22.157   3.638
36493W        W97782  30.447  34.063   1.370
36494W        W97783  24.546   3.382   4.116
36495W        W97784  21.167  44.371  13.041
36496W        W97785  42.312  31.999   4.137
36497W        W97786  27.100  41.338   0.894
36498W        W97787  11.707  17.089   3.370
36499W        W97788  39.972   9.252   3.778
36500W        W97789   8.729   2.459  11.401
36501W        W97790  29.499   4.814   9.961
36502W        W97791  25.557   0.872   1.232
36503W        W97792  39.325  10.162   3.219
36504W        W97793  36.930  11.348  14.962
36505W        W97794  30.122   6.249   3.157
36506W        W97795  19.085  37.351   4.355
36507W        W97796  31.980  20.647  14.388
36508W        W97797  11.753   7.842  13.933
36509W        W97798  20.125  38.555  14.340
36510W        W97799  21.102  16.762  10.529
36511W        W97800  38.850  31.459  11.022
36512W        W97801  16.205  10.646   3.816
36513W        W97802   8.695  10.683   2.878
36514W        W97803  41.795   2.433  12.884
36515W        W97804  28.955  17.743  10.483
36516W        W97805  41.911  28.442   2.326
36517W        W97806  18.673  13.211   0.837
36518W        W97807  34.053   6.785   4.234
36519W        W97808  38.434  16.671   4.345
36520W        W97809  39.947  34.919  10.450
36521W        W97810   1.266  40.524  10.420
36522W        W97811   4.437  12.681   3.275
36523W        W97812  20.742  19.765   0.834
36524W        W97813  28.946  23.019  14.961
36525W        W97814   7.354  41.816   0.745
36526W        W97815   6.824  44.493  14.508
36527W        W97816   3.919  22.015   0.837
36528W        W97817  34.493  44.917   4.323
36529W        W97818  37.973  22.059   1.827
36530W        W97819  38.355  25.981   4.225
36531W        W97820  19.267  18.295   0.809
36532W        W97821  13.108  19.641  14.872
36533W        W97822   1.315   0.933  14.793
36534W        W97823  42.958   0.988   1.445
36535W        W97824  40.925  15.705  10.107
36536W        W97825   7.207  20.064   2.210
36537W        W97826  11.769  17.636  14.870
36538W        W97827  26.548  34.944   1.406
36539W        W97828  27.196  22.512  12.859
36540W        W97829  39.374  29.113   2.708
36541W        W97830  12.281  18.294  11.126
36542W        W97831  23.139  15.729  13.857
36543W        W97832   5.772   1.413  13.827
36544W        W97833  12.213  24.669  13.355
36545W        W97834  31.535  26.976   4.691
36546W        W97835   5.214   6.914  12.917
36547W        W97836   6.255  14.646  13.859
36548W        W97837   7.251  32.456  11.964
36549W        W97838   6.706  36.903  11.883
36550W        W97839  41.488   3.399   4.691
36551W        W97840  20.598   6.826  10.493
36552W        W97841  20.107  21.046   2.288
36553W        W97842   8.900  16.576  14.978
36554W        W97843  29.576  38.497   1.900
36555W        W97844  35.022  15.702  12.884
36556W        W97845  28.558  19.118   3.837
36557W        W97846  33.005  37.990  11.067
36558W        W97847  13.711  42.842  14.916
36559W        W97848  40.416  16.717   5.202
36560W        W97849   6.847   4.307   1.918
36561W        W97850  42.931  22.545  10.914
36562W        W97851  28.560  24.166  13.801
36563W        W97852  16.238  30.447   0.441
36564W        W97853   6.777  44.414  13.495
36565W        W97854   2.819  13.332   4.823
36566W        W97855  38.036  38.849   4.645
36567W        W97856  31.095   6.230  11.940
36568W        W97857   8.290  11.844  13.057
36569W        W97858   9.360   0.418  13.908
36570W        W97859  25.171  35.040   0.292
36571W        W97860  37.909  43.772  14.908
36572W        W97861  13.331  22.564   4.350
36573W        W97862  18.061  15.601  10.505
36574W        W97863  34.522  39.999  14.914
36575W        W97864   9.318  11.254   2.869
36576W        W97865  11.808  26.576  10.086
36577W        W97866  27.580  34.572  14.913
36578W        W97867   8.825  41.355  11.111
36579W        W97868  20.058  13.772   0.915
36580W        W97869  14.168   4.764  10.624
36581W        W97870  40.436   9.786  13.832
36582W        W97871  15.104  44.952   3.698
36583W        W97872  44.835  41.376  13.993
36584W        W97873  28.447  27.015   0.417
36585W        W97874  12.658  22.207  10.086
36586W        W97875  24.532   1.908   1.802
36587W        W97876  23.216  41.406   2.341
36588W        W97877   3.918  10.171   3.190
36589W        W97878  18.058  43.891  10.565
36590W        W97879   7.849   5.290  12.077
36591W        W97880  10.263  34.924  12.374
36592W        W97881  44.362  33.473  11.404
36593W        W97882   2.444   4.362   1.900
36594W        W97883  31.416  15.634   0.848
36595W        W97884   2.342  21.717  13.016
36596W        W97885  35.866  42.982   4.654
36597W        W97886   3.742   5.778   4.147
36598W        W97887  18.220   7.784  12.088
36599W        W97888  32.513  12.684  10.608
36600W        W97889  10.379  42.314   1.831
36601W        W97890  37.474  32.516  11.981
36602W        W97891  25.682   5.799  14.474
36603W        W97892  24.000  28.981  13.500
36604W        W97893  24.168  18.127   9.942
36605W        W97894  26.959  32.420  12.931
36606W        W97895   6.820  30.986   0.337
36607W        W97896  29.487  13.840   2.735
36608W        W97897  13.182  29.077   1.701
36609W        W97898   0.867  12.316  11.032
36610W        W97899   0.263  15.598   4.659
36611W        W97900  22.712  22.190   0.258
36612W        W97901  41.972  40.467   2.725
36613W        W97902  21.263  35.978   2.278
36614W        W97903  13.155  12.643  10.893
36615W        W97904  38.325  43.780   2.292
36616W        W97905  44.895  36.491  12.874
36617W        W97906  34.400  25.495   0.476
36618W        W97907  39.484  25.556  13.856
36619W        W97908  26.042  16.118   2.239
36620W        W97909  11.775  23.597   1.706
36621W        W97910  24.668   9.216   0.932
36622W        W97911  42.855  40.514   1.451
36623W        W97912  11.658  12.300  10.612
36624W        W97913  44.395  30.423   4.635
36625W        W97914  19.190   1.478  13.381
36626W        W97915   9.861  44.287  12.435
36627W        W97916  28.936  36.898   4.198
36628W        W97917  20.122  17.614   4.785
36629W        W97918  22.182  27.452  13.528
36630W        W97919  31.513   0.871   2.746
36631W        W97920  39.816   3.385  13.025
36632W        W97921  15.132  34.506  10.119
36633W        W97922  20.751  23.625  11.976
36634W        W97923  21.258  12.356   2.783
36635W        W97924   1.399  22.189  14.979
36636W        W97925  43.410  38.520   2.300
36637W        W97926   4.451   6.812  11.049
36638W        W97927  14.150  19.228  13.944
36639W        W97928  43.849  37.921  13.915
36640W        W97929   9.751  25.994   4.201
36641W        W97930  16.812   6.231   1.408
36642W        W97931  22.558  24.692   9.459
36643W        W97932  28.134  12.313  14.427
36644W        W97933  24.122  20.207   2.723
36645W        W97934  12.630  22.598   2.249
36646W        W97935  38.965  32.955   3.302
36647W        W97936   4.819  23.164   0.761
36648W        W97937   8.699  30.627   4.158
36649W        W97938   8.883  35.003  14.479
36650W        W97939   4.337  13.146  11.908
36651W        W97940  29.111  19.657   0.833
36652W        W97941  21.640  29.566  14.488
36653W        W97942  28.939  28.623   2.287
36654W        W97943  14.228  21.551  12.504
36655W        W97944  12.319   3.375  14.995
36656W        W97945  44.464  37.914   1.795
36657W        W97946  17.229  19.565  12.546
36658W        W97947  25.156   0.884  12.860
36659W        W97948  22.565  20.657  11.537
36660W        W97949  41.812  11.632   1.405
36661W        W97950  31.025   4.846  12.562
36662W        W97951  18.569  10.246   0.929
36663W        W97952  20.659  31.488   1.231
36664W        W97953  39.931  17.622  14.421
36665W        W97954  33.616  26.624  12.506
36666W        W97955  40.357   7.812   1.235
36667W        W97956  40.033  13.203  12.980
36668W        W97957  43.782  20.625  10.973
36669W        W97958  29.055   0.987  12.832
36670W        W97959  16.773  24.484   4.639
36671W        W97960  10.698   6.817   4.834
36672W        W97961  41.896  18.106   5.299
36673W        W97962   6.752  19.554   0.894
36674W        W97963  27.154  28.481   0.362
36675W        W97964  34.993  12.231  10.938
36676W        W97965  41.515  15.290  12.366
36677W        W97966  29.664  37.005  13.497
36678W        W97967  24.013  10.726   4.805
36679W        W97968  17.307   1.380  10.481
36680W        W97969  25.609  34.938  11.014
36681W        W97970  41.859  44.276   0.873
36682W        W97971   2.799   7.401   0.798
36683W        W97972  24.619  44.974   2.351
36684W        W97973  23.610   8.778  11.000
36685W        W97974  33.043  39.382   0.919
36686W        W97975  29.159  11.863   2.197
36687W        W97976  43.768  32.468   4.128
36688W        W97977  25.047  23.108   4.768
36689W        W97978  38.933  12.324   1.449
36690W        W97979  17.146  39.036   0.941
36691W        W97980   0.355   9.873  11.990
36692W        W97981  13.701   1.401   9.475
36693W        W97982  12.134  27.559  14.474
36694W        W97983   4.296  31.439  14.803
36695W        W97984  43.489  36.517   2.182
36696W        W97985  39.818  14.641   2.899
36697W        W97986  22.683  16.796   2.744
36698W        W97987  41.435  30.134   3.187
36699W        W97988  33.064  36.916   0.243
36700W        W97989  11.653  41.538  11.087
36701W        W97990  27.490  29.955   2.717
36702W        W97991  24.100   1.334  11.941
36703W        W97992   2.413   4.328   3.785
36704W        W97993  12.620  22.085  14.906
36705W        W97994  39.036  26.139  11.522
36706W        W97995  30.539  15.120  13.394
36707W        W97996  44.360  41.440   0.307
36708W        W97997  12.764  36.873  14.776
36709W        W97998   7.368   1.254   4.785
36710W        W97999   2.419  13.122   1.782
36711W        W98000   0.796  40.807  10.921
36712W        W98001  35.017  41.959   3.763
36713W        W98002  17.195  37.517  11.909
36714W        W98003  36.557  44.299   0.887
36715W        W98004  11.343  24.073  12.873
36716W        W98005  31.147  36.095   2.878
36717W        W98006  38.378  24.151  11.073
36718W        W98007   7.894   4.907  11.947
36719W        W98008  41.819  32.910  10.419
36720W        W98009   0.954  41.358  14.015
36721W        W98010  31.148  42.403  12.380
36722W        W98011  19.748  43.765   1.789
36723W        W98012  35.940  28.059  12.000
36724W        W98013  28.109  31.626   1.733
36725W        W98014  20.645   9.292   2.414
36726W        W98015  36.062  34.893   5.192
36727W        W98016  19.154   8.816  12.968
36728W        W98017  36.844  42.382  11.876
36729W        W98018  23.993  13.659  14.312
36730W        W98019  26.078   6.872   4.672
36731W        W98020  40.823  29.922  10.480
36732W        W98021  25.194  12.249  11.025
36733W        W98022  12.218  43.791  14.484
36734W        W98023   9.302  19.645  11.374
36735W        W98024  22.087  32.604  10.552
36736W        W98025  13.151   1.962  14.448
36737W        W98026  11.836   7.683  13.383
36738W        W98027  15.202  11.238   0.796
36739W        W98028   2.795  32.469   1.310
36740W        W98029  33.055  29.966  11.511
36741W        W98030  14.609   5.855   1.429
36742W        W98031  34.427  30.468   3.737
36743W        W98032  32.503  13.661  11.400
36744W        W98033  44.820  43.894  11.540
36745W        W98034  19.048   7.269   3.854
36746W        W98035  12.785  19.119   5.095
36747W        W98036  40.376  44.976  12.062
36748W        W98037  21.517   7.182   1.429
36749W        W98038  41.807  42.904  10.971
36750W        W98039  12.649  27.599   0.393
36751W        W98040  21.081   1.424   3.740
36752W        W98041  30.427   8.295   4.148
36753W        W98042  14.634  15.212   3.848
36754W        W98043  13.635  41.534   1.828
36755W        W98044   6.331  12.155   0.304
36756W        W98045  40.425   6.338   3.210
36757W        W98046  40.051  42.449  14.831
36758W        W98047  12.852  44.273  12.503
36759W        W98048   0.454  40.346  14.899
36760W        W98049  34.540  31.908   2.801
36761W        W98050  38.071  12.217   0.752
36762W        W98051  31.446   5.736   3.771
36763W        W98052   9.711  21.026  10.159
36764W        W98053  13.808   4.345   0.832
36765W        W98054  31.130  14.637   2.307
36766W        W98055  12.229   5.288  10.950
36767W        W98056   2.775   5.873   4.793
36768W        W98057   9.833  25.618   3.788
36769W        W98058   7.705  25.981  13.527
36770W        W98059  34.882  37.425   3.803
36771W        W98060   6.777   8.724   1.809
36772W        W98061  32.071  25.112   1.405
36773W        W98062  22.669   0.361   2.203
36774W        W98063  23.003  43.439  13.925
36775W        W98064  12.259  37.366   0.415
36776W        W98065  16.095   2.228  12.095
36777W        W98066  35.522  15.287   4.269
36778W        W98067  41.895   6.710   2.367
36779W        W98068  37.399   1.890  12.428
36780W        W98069  43.983  26.665  12.894
36781W        W98070  34.563  11.789  14.351
36782W        W98071   6.854  35.494  12.002
36783W        W98072   7.181  20.659   4.212
36784W        W98073  29.171  20.537  11.538
36785W        W98074  39.418  30.487  10.532
36786W        W98075  35.984   1.924   3.263
36787W        W98076   7.297   0.868   1.393
36788W        W98077  15.238  15.652  13.941
36789W        W98078  42.350  41.885  14.443
36790W        W98079  38.492  27.508  12.833
36791W        W98080  44.314  32.035   1.923
36792W        W98081  25.593  17.085   2.331
36793W        W98082   4.212  12.810  11.032
36794W        W98083   2.942  35.031   0.931
36795W        W98084   8.219  42.386   0.282
36796W        W98085  31.945  33.019   2.307
36797W        W98086  19.741  10.345  14.825
36798W        W98087   6.869  29.626  14.436
36799W        W98088  23.656  38.000   3.670
36800W        W98089  26.506   6.709  10.013
36801W        W98090  29.933  28.625  14.327
36802W        W98091   0.830  25.158  14.471
36803W        W98092   7.266  17.085   0.339
36804W        W98093  10.293  13.188   1.380
36805W        W98094  37.484   4.312   2.665
36806W        W98095  10.183  12.828  10.443
36807W        W98096  28.949  41.888   0.967
36808W        W98097  15.591  18.585  14.910
36809W        W98098  28.998   6.823   2.203
36810W        W98099   0.854  11.228   1.732
36811W        W98100   1.934  10.793  14.838
36812W        W98101  38.969  21.151   3.376
36813W        W98102  40.495  42.409   1.769
36814W        W98103  44.905  13.797   4.690
36815W        W98104  14.695  10.838  14.858
36816W        W98105   8.767  18.217   1.213
36817W        W98106  25.555  37.910   0.409
36818W        W98107  18.102  31.491  12.039
36819W        W98108  11.781   6.220   9.997
36820W        W98109   1.962  39.387   3.276
36821W        W98110   7.790   9.799   4.261
36822W        W98111  32.391  40.938  12.552
36823W        W98112  18.574  34.970   5.292
36824W        W98113  28.527  17.562  14.345
36825W        W98114   6.728  19.284  14.377
36826W        W98115   7.332  38.055   0.286
36827W        W98116  25.064  42.941  14.350
36828W        W98117  10.771   6.789   4.245
36829W        W98118  32.609  43.941   4.124
36830W        W98119   2.883  18.702   2.812
36831W        W98120  36.392  10.184  10.603
36832W        W98121  16.604  29.022  12.931
36833W        W98122  24.088  43.324   3.300
36834W        W98123  12.631  27.530   1.865
36835W        W98124  16.125  41.446  10.976
36836W        W98125   8.313  20.582   0.952
36837W        W98126  33.582  11.284  10.896
36838W        W98127  37.454  10.633   3.636
36839W        W98128   8.844  42.956   1.720
36840W        W98129  11.738  35.516   3.742
36841W        W98130  35.033  32.491  10.495
36842W        W98131  40.342  38.519  10.953
36843W        W98132   2.327  26.087  13.807
36844W        W98133   8.656  22.208  10.563
36845W        W98134  17.153  36.022  10.425
36846W        W98135   3.781  29.102   0.805
36847W        W98136  19.041  41.806   4.277
36848W        W98137   6.354  19.209  11.923
36849W        W98138  16.090  15.617   1.814
36850W        W98139  17.130  37.420  13.896
36851W        W98140  13.169   5.325   0.870
36852W        W98141   2.404  36.584   2.688
36853W        W98142  39.959  35.464  12.016
36854W        W98143  41.393  25.174  13.825
36855W        W98144  18.170   1.244  14.417
36856W        W98145  21.519  18.666   0.910
36857W        W98146  34.408   8.740   2.277
36858W        W98147  29.072  12.136   4.603
36859W        W98148  35.900  34.962   0.467
36860W        W98149  29.572  15.620  10.515
36861W        W98150  35.976   3.919   0.734
36862W        W98151  30.984  15.145   0.464
36863W        W98152  17.559  21.590   5.767
36864W        W98153  34.605  25.469  11.556
36865W        W98154  10.703  35.369   1.930
36866W        W98155  34.504  38.397  11.420
36867W        W98156  19.250  20.120   3.675
36868W        W98157   1.797  30.156   4.245
36869W        W98158   7.218   0.365  14.356
36870W        W98159   0.337  24.630   2.271
36871W        W98160  18.570  18.680   3.767
36872W        W98161   9.208  12.222   2.852
36873W        W98162   7.299   6.353  13.793
36874W        W98163  13.707  14.332   4.344
36875W        W98164  15.257   5.301  14.515
36876W        W98165  17.303  23.052   4.619
36877W        W98166  12.854  42.897   2.279
36878W        W98167  41.395  18.707  10.121
36879W        W98168  12.191  44.455   2.342
36880W        W98169   1.259  32.584   1.316
36881W        W98170  29.097  31.896  14.391
36882W        W98171  43.900  17.731  12.549
36883W        W98172   9.165  32.418  12.529
36884W        W98173  18.272  16.764  11.863
36885W        W98174  19.235   4.260   1.381
36886W        W98175  33.977  29.508  11.559
36887W        W98176  43.875  35.555   3.764
36888W        W98177   4.278  19.743  10.608
36889W        W98178  41.983  26.491   2.248
36890W        W98179  15.117  18.555   4.724
36891W        W98180   1.766  31.607   0.245
36892W        W98181  30.026  15.800  11.895
36893W        W98182  14.759  38.419  13.903
36894W        W98183  23.996  43.911   2.825
36895W        W98184  11.321  25.700   1.361
36896W        W98185  40.322  11.160   4.646
36897W        W98186  31.600  26.015  13.455
36898W        W98187  37.031  17.171   2.375
36899W        W98188  42.845   9.155   1.298
36900W        W98189  15.239  39.929  14.834
36901W        W98190   5.834  30.971  11.959
36902W        W98191  32.013  25.058  14.922
36903W        W98192  15.170  22.717   9.503
36904W        W98193  34.974  30.011  12.891
36905W        W98194  16.100  44.786   4.631
36906W        W98195  26.172  22.618  14.356
36907W        W98196  32.041  36.503  11.879
36908W        W98197  39.838  15.697  12.944
36909W        W98198   5.297   5.880  13.837
36910W        W98199  27.099  10.142   0.956
36911W        W98200  44.260  18.174  11.911
36912W        W98201  25.692  25.167  11.945
36913W        W98202  37.497  43.976   1.779
36914W        W98203   3.928  38.958  12.542
36915W        W98204  38.902  37.536   0.772
36916W        W98205  16.319   3.932   3.270
36917W        W98206  27.189   2.850   0.791
36918W        W98207  27.535  40.838   2.708
36919W        W98208  22.160  35.578  13.435
36920W        W98209   6.747  43.360  11.564
36921W        W98210  34.067  39.419  10.546
36922W        W98211   9.736   9.274  13.367
36923W        W98212   6.853  24.666  12.496
36924W        W98213  15.806  20.035   9.610
36925W        W98214  23.104  15.125   1.826
36926W        W98215  28.450  27.117  13.805
36927W        W98216   0.981  30.645  14.462
36928W        W98217   9.733   4.889   4.283
36929W        W98218  35.514  34.469   2.745
36930W        W98219   3.309  37.440   1.792
36931W        W98220  41.396   9.877   3.256
36932W        W98221  23.068  42.298   0.786
36933W        W98222  26.576  39.356   3.340
36934W        W98223  41.427  42.321   2.897
36935W        W98224   5.903  23.143  10.434
36936W        W98225  44.358  31.410   2.855
36937W        W98226  41.999  34.056   4.285
36938W        W98227  23.134   7.252  10.930
36939W        W98228  22.698  19.123  13.854
36940W        W98229   9.756  25.986   1.812
36941W        W98230   1.443   3.367  14.444
36942W        W98231  39.868   5.193  10.406
36943W        W98232  33.085  12.200  12.501
36944W        W98233  23.609  36.980   1.318
36945W        W98234   0.804   6.780   4.307
36946W        W98235   4.432   2.384   0.440
36947W        W98236   1.951  39.849   1.406
36948W        W98237  17.699  22.122  13.817
36949W        W98238  23.644  32.601   0.366
36950W        W98239  20.044  12.116   0.890
36951W        W98240  18.204  43.773   0.343
36952W        W98241   3.257  40.354  11.514
36953W        W98242  11.621  18.155   1.787
36954W        W98243  43.348  12.659  14.943
36955W        W98244  26.461  14.181   2.194
36956W        W98245  31.491   8.731  11.443
36957W        W98246   5.933  37.022  11.520
36958W        W98247  21.728  25.177   2.770
36959W        W98248  26.513  44.887  14.870
36960W        W98249  26.486  43.783   1.284
36961W        W98250  43.357  18.089  10.433
36962W        W98251  40.343  25.219   3.785
36963W        W98252   6.787  40.342   2.407
36964W        W98253  14.657  21.592  11.425
36965W        W98254  44.855  19.169   0.892
36966W        W98255  33.507  15.253  10.478
36967W        W98256  16.805  27.045   4.832
36968W        W98257   0.295  16.075  12.008
36969W        W98258  42.465   4.215   1.441
36970W        W98259  10.790  44.793  10.963
36971W        W98260  32.563  13.842   2.331
36972W        W98261  23.236  31.970  13.494
36973W        W98262  27.106  24.975   1.366
36974W        W98263   5.390   1.826  10.450
36975W        W98264  32.032  36.520   3.298
36976W        W98265  18.215  22.135   5.697
36977W        W98266  18.069   4.288  12.505
36978W        W98267   8.317  24.507  13.310
36979W        W98268  30.625  18.146   2.374
36980W        W98269  35.072  38.460  11.502
36981W        W98270  42.386  23.667   3.238
36982W        W98271  19.757  10.648   2.748
36983W        W98272  37.978  41.446  10.059
36984W        W98273   4.368  40.003   0.965
36985W        W98274  44.913  20.265   3.654
36986W        W98275  13.700  13.710  12.074
36987W        W98276  13.323   1.283  12.389
36988W        W98277   2.749  44.926   3.677
36989W        W98278  37.503  16.744  11.097
36990W        W98279  18.158  26.549  14.919
36991W        W98280  16.091  29.544  14.976
36992W        W98281  12.696  24.583  13.034
36993W        W98282  20.055   3.913  14.990
36994W        W98283  18.751  11.233  12.537
36995W        W98284  25.012  14.099   3.838
36996W        W98285   9.767  24.229  13.308
36997W        W98286  31.924  34.426   0.264
36998W        W98287  32.547   3.278  13.425
36999W        W98288  35.576  26.974  11.578
37000W        W98289  35.490  26.074   3.808
37001W        W98290  37.519   3.428  11.999
37002W        W98291   8.324  35.418   1.910
37003W        W98292   0.857   6.308  10.464
37004W        W98293  34.980  27.983  11.096
37005W        W98294  29.053  37.412  13.526
37006W        W98295  42.941  10.722   5.319
37007W        W98296  43.846  29.575  13.411
37008W        W98297  40.373  15.728  12.398
37009W        W98298  39.462  28.134  11.922
37010W        W98299  15.776  42.980  14.870
37011W        W98300  16.720  27.593   0.941
37012W        W98301  24.685  23.538   4.333
37013W        W98302  17.272  36.008  12.927
37014W        W98303  44.359   4.398   1.849
37015W        W98304   3.814  31.412  13.365
37016W        W98305  13.844  15.233   4.636
37017W        W98306  18.227  19.689   4.681
37018W        W98307   0.445   9.324  13.516
37019W        W98308  26.499  38.994   4.190
37020W        W98309  15.252  34.454  14.855
37021W        W98310  30.461  43.823   0.280
37022W        W98311  24.034   8.400   0.275
37023W        W98312  43.456  18.771  11.859
37024W        W98313  19.089  27.194  11.911
37025W        W98314  19.196  16.096  13.365
37026W        W98315  33.036  11.785  11.055
37027W        W98316  32.421  17.093   1.913
37028W        W98317  44.010  20.133   2.758
37029W        W98318  26.985  31.438   4.685
37030W        W98319  36.958  39.826   2.209
37031W        W98320  22.151  44.333  13.358
37032W        W98321   3.361   9.709  12.521
37033W        W98322  33.040  30.987  11.483
37034W        W98323  18.612   8.787   3.345
37035W        W98324  31.036  38.357  13.816
37036W        W98325  12.331  42.825   4.297
37037W        W98326  19.127  25.526   4.632
37038W        W98327  14.123   8.373  10.561
37039W        W98328  31.540  41.407  14.970
37040W        W98329  13.818   7.866   3.724
37041W        W98330  13.801  14.280   2.232
37042W        W98331  18.786  27.042   3.651
37043W        W98332  26.559  44.423  11.116
37044W        W98333  18.665   4.899  12.057
37045W        W98334  44.990  23.598   0.430
37046W        W98335   0.974  14.285  12.384
37047W        W98336  20.178   0.372  10.965
37048W        W98337  19.126   8.281  12.533
37049W        W98338  22.567   9.754  12.027
37050W        W98339  26.976  36.842  11.992
37051W        W98340  42.418  24.159   3.294
37052W        W98341  26.044  27.650   2.327
37053W        W98342  22.729  23.229   2.391
37054W        W98343  33.400  25.571   3.256
37055W        W98344  31.456  41.298  12.355
37056W        W98345  14.263  33.624   2.278
37057W        W98346  11.216  22.179  14.760
37058W        W98347  33.123  25.645  12.520
37059W        W98348   5.301  15.781   4.726
37060W        W98349   2.239  35.511   0.403
37061W        W98350  28.506  25.164   2.735
37062W        W98351  15.651  37.885   2.861
37063W        W98352   3.794  44.491   4.332
37064W        W98353   2.916  43.915   3.712
37065W        W98354  43.957  34.884  12.843
37066W        W98355  36.858  15.229   9.653
37067W        W98356  33.042  35.430  10.973
37068W        W98357   7.268  12.746  11.063
37069W        W98358   1.253  38.911  12.569
37070W        W98359  34.910  27.171   2.207
37071W        W98360  15.772   7.305  10.011
37072W        W98361   5.439  14.732  12.060
37073W        W98362  20.215  42.407   0.435
37074W        W98363  43.511  23.216   3.742
37075W        W98364  36.909  38.397   3.764
37076W        W98365  24.572  34.406  12.865
37077W        W98366   3.410   0.403   4.721
37078W        W98367  30.105   6.206  11.497
37079W        W98368  44.495  39.959  10.608
37080W        W98369   1.333  27.604   2.241
37081W        W98370  37.547  28.023  12.849
37082W        W98371  33.028  14.616  14.314
37083W        W98372  21.212  43.440  10.421
37084W        W98373  11.337  40.020  14.918
37085W        W98374   5.307  27.029   0.795
37086W        W98375  41.886  16.805   2.828
37087W        W98376  16.603  33.606  12.377
37088W        W98377  11.738  44.002   1.886
37089W        W98378  20.690  32.141   3.866
37090W        W98379  42.444  28.063  12.364
37091W        W98380  19.225  38.947  14.388
37092W        W98381  14.702  37.853  14.328
37093W        W98382   3.409  40.840   1.789
37094W        W98383   8.874  43.350  12.057
37095W        W98384  35.432  44.384   0.821
37096W        W98385  30.163   8.808   2.224
37097W        W98386  33.962  42.286  12.077
37098W        W98387   1.339  32.061   1.840
37099W        W98388   3.837  28.049  14.494
37100W        W98389  17.196   3.785  14.818
37101W        W98390  44.793   8.800   0.842
37102W        W98391  15.787  30.946   0.360
37103W        W98392  31.485   2.834   3.179
37104W        W98393   0.309   6.759  12.522
37105W        W98394  15.174  13.242   2.390
37106W        W98395  30.450   1.900  11.563
37107W        W98396  38.326  33.534   0.788
37108W        W98397  41.971   3.831   4.234
37109W        W98398  44.355  22.530  12.843
37110W        W98399   8.833  28.648   1.797
37111W        W98400  22.594  26.044  14.411
37112W        W98401  35.568  38.959  12.867
37113W        W98402  41.921   3.298   3.755
37114W        W98403   8.218   0.311   2.271
37115W        W98404   3.281  30.633  11.035
37116W        W98405  42.427   4.280  10.441
37117W        W98406  16.680  14.782  11.869
37118W        W98407  23.010  35.039  13.833
37119W        W98408  15.649  26.078  12.373
37120W        W98409  37.456  18.198   2.870
37121W        W98410  10.770  31.559  14.012
37122W        W98411  14.824  32.549   4.240
37123W        W98412  26.652  44.788   3.710
37124W        W98413  10.767  33.896   5.577
37125W        W98414  16.202  31.153   1.442
37126W        W98415  41.503   7.892  14.934
37127W        W98416  13.350  37.540   3.684
37128W        W98417  42.436   2.912  11.539
37129W        W98418   6.712   0.985  13.042
37130W        W98419  21.019  10.178   2.707
37131W        W98420  18.589  31.041  13.862
37132W        W98421  13.768  14.224   0.901
37133W        W98422  25.996  34.018  14.467
37134W        W98423  34.057  34.954  14.874
37135W        W98424  20.634   8.662  14.810
37136W        W98425  17.749   2.807  13.049
37137W        W98426  16.228  14.132  13.412
37138W        W98427  44.963  15.644   1.702
37139W        W98428  37.514  29.436   0.783
37140W        W98429  19.184  12.144  13.993
37141W        W98430   2.298   0.253  12.359
37142W        W98431  23.504   6.797  14.825
37143W        W98432  15.603  29.430   5.082
37144W        W98433  17.069  32.556   1.855
37145W        W98434  30.145   3.297   0.933
37146W        W98435  34.093  37.360   0.793
37147W        W98436  24.046  44.394   4.213
37148W        W98437  19.701  32.129   1.739
37149W        W98438  19.203  41.396   3.305
37150W        W98439   7.213  11.154   4.677
37151W        W98440  33.986  27.053   0.362
37152W        W98441  19.619   2.897   2.762
37153W        W98442  21.073   1.731  13.964
37154W        W98443  12.693   9.847  13.467
37155W        W98444   1.302  35.899   4.223
37156W        W98445  15.666  23.601  11.974
37157W        W98446   7.778   1.873   5.317
37158W        W98447  31.504  21.539  13.821
37159W        W98448  17.632  29.923  11.039
37160W        W98449  27.637   0.954  12.512
37161W        W98450  20.092  22.715  10.936
37162W        W98451  14.661  34.600   0.429
37163W        W98452  23.690  43.923  12.867
37164W        W98453  28.673  14.716   4.231
37165W        W98454   9.819  40.398  11.584
37166W        W98455   8.304  28.587  12.415
37167W        W98456  36.992  40.527   0.255
37168W        W98457   2.822   1.832   0.352
37169W        W98458  11.195  22.686  14.309
37170W        W98459  38.407  29.089  11.099
37171W        W98460  21.235   7.912  14.924
37172W        W98461  16.576  12.809   3.215
37173W        W98462   0.830   4.296   2.368
37174W        W98463  27.996  27.101   0.381
37175W        W98464  27.032  18.614  13.391
37176W        W98465  17.625  23.562  11.096
37177W        W98466  12.633  19.098   0.879
37178W        W98467  32.908  26.584   0.307
37179W        W98468  35.889  28.140   1.434
37180W        W98469   0.971   3.739  11.605
37181W        W98470  33.013  21.685  13.913
37182W        W98471  20.768  21.205  13.063
37183W        W98472  29.926  39.051   2.216
37184W        W98473  29.072  32.462   0.923
37185W        W98474  40.416  38.569   4.641
37186W        W98475  37.952  14.648   2.863
37187W        W98476  29.114  43.770  10.498
37188W        W98477  21.614  15.714  11.543
37189W        W98478  39.064  42.370   1.228
37190W        W98479  35.585  44.883  13.927
37191W        W98480  39.977  11.710  11.605
37192W        W98481  40.535   1.426   1.785
37193W        W98482  11.184  42.968   0.865
37194W        W98483   8.871   9.211  13.853
37195W        W98484  19.557  28.952   1.356
37196W        W98485  10.870  31.551  13.515
37197W        W98486  25.603  39.452  14.293
37198W        W98487  17.577  36.861  13.790
37199W        W98488   1.933   0.269  11.581
37200W        W98489   9.153  38.034   4.689
37201W        W98490  32.468   1.800   3.330
37202W        W98491  25.218  28.157   1.423
37203W        W98492  25.501  22.704  14.965
37204W        W98493  34.425  17.581  14.833
37205W        W98494  26.060  14.338  12.462
37206W        W98495  25.537  40.384  13.323
37207W        W98496   0.466  42.796  10.615
37208W        W98497   5.345  42.844   3.186
37209W        W98498  11.324  22.220   3.831
37210W        W98499  41.440  25.475  11.958
37211W        W98500  28.146  35.911   1.383
37212W        W98501   4.338   2.743   0.403
37213W        W98502  41.002  13.678   0.808
37214W        W98503  17.566  21.620  13.308
37215W        W98504  33.977  19.066   3.297
37216W        W98505  34.442  36.407   0.838
37217W        W98506   2.421  37.937  13.361
37218W        W98507  17.104  26.620   3.838
37219W        W98508  29.109  27.448   3.245
37220W        W98509  30.457   3.350  13.933
37221W        W98510  13.222  39.027  13.828
37222W        W98511  35.947   5.249   4.655
37223W        W98512  22.623   8.670   4.623
37224W        W98513  27.956  38.362   4.606
37225W        W98514  23.673   0.360   1.414
37226W        W98515  30.530   9.681   1.780
37227W        W98516  18.781  29.470  13.504
37228W        W98517  32.522  28.935   4.769
37229W        W98518   1.899   3.839   1.324
37230W        W98519  41.839  29.567  11.003
37231W        W98520   5.209  27.488   3.863
37232W        W98521  39.961  42.878  10.955
37233W        W98522   0.349  33.054   0.850
37234W        W98523  12.789  14.258  11.080
37235W        W98524   5.343   8.769   2.211
37236W        W98525   4.418  28.492   4.822
37237W        W98526   5.798  39.825  11.878
37238W        W98527  33.112  25.478   3.262
37239W        W98528   9.718  13.825  14.955
37240W        W98529  33.440  18.667  12.893
37241W        W98530  30.116  13.605  13.794
37242W        W98531  43.969   0.746  10.431
37243W        W98532  25.981  16.708   1.294
37244W        W98533  13.668  40.865   2.251
37245W        W98534  34.935  22.544  13.824
37246W        W98535  28.138  25.041   4.816
37247W        W98536  18.163   5.378  14.884
37248W        W98537  34.498  22.151  11.561
37249W        W98538  38.836  37.526   1.211
37250W        W98539  11.276  19.615  12.055
37251W        W98540  31.561   7.239   1.805
37252W        W98541  41.437   1.839  12.490
37253W        W98542   9.791  29.987  14.021
37254W        W98543   9.352  32.119  12.853
37255W        W98544   5.890  21.028   1.340
37256W        W98545   8.315  20.095   1.698
37257W        W98546   3.926  43.839  12.825
37258W        W98547  15.748  10.167  12.967
37259W        W98548  44.381   1.420  12.403
37260W        W98549   9.805   8.844   1.909
37261W        W98550  23.085  29.459  13.476
37262W        W98551  37.833  40.963   0.331
37263W        W98552  15.731  39.442   5.663
37264W        W98553   1.393  34.115   2.325
37265W        W98554  25.984  37.938   0.950
37266W        W98555  31.133  44.320   0.432
37267W        W98556   0.920  20.220   0.765
37268W        W98557  34.022  22.727  13.309
37269W        W98558  32.449   8.293  14.311
37270W        W98559  17.238   7.190  13.889
37271W        W98560   8.726  27.032  13.441
37272W        W98561  39.374  44.931  14.888
37273W        W98562  16.676  41.961  14.401
37274W        W98563   9.869  23.148  14.376
37275W        W98564  21.262  14.125   3.319
37276W        W98565  43.880  21.632  11.944
37277W        W98566   6.786  38.493   3.326
37278W        W98567  37.422  37.350   3.740
37279W        W98568  10.261   3.453  14.953
37280W        W98569  29.432  18.285  14.779
37281W        W98570  15.139  36.978   2.264
37282W        W98571  35.102  21.630  11.417
37283W        W98572   3.359  24.001   3.862
37284W        W98573   4.923  19.595  14.481
37285W        W98574  26.086  11.338  14.994
37286W        W98575   1.276   8.386   4.175
37287W        W98576  13.679  12.253   0.845
37288W        W98577  21.217  18.703  12.502
37289W        W98578  40.966  34.900  10.445
37290W        W98579  19.099  42.815   0.950
37291W        W98580  42.369  17.097   0.904
37292W        W98581  14.102  34.423  13.842
37293W        W98582  12.689  30.938   1.923
37294W        W98583  35.943   4.912  11.861
37295W        W98584  24.519  10.731   4.299
37296W        W98585  36.552  33.418   1.304
37297W        W98586  10.808  22.219  10.503
37298W        W98587   2.465  32.903   4.137
37299W        W98588  44.291   4.848   3.784
37300W        W98589  29.155  13.322  12.470
37301W        W98590  38.997   3.393  11.095
37302W        W98591  11.203  26.954   2.364
37303W        W98592   2.428   2.825   2.292
37304W        W98593  32.618  37.357   3.654
37305W        W98594  30.515   0.982  12.939
37306W        W98595   8.332  12.715   1.446
37307W        W98596   6.802  36.891  10.526
37308W        W98597   4.867  29.604  14.431
37309W        W98598   5.927  17.291  13.394
37310W        W98599  16.803  24.483  12.480
37311W        W98600  29.527  15.152  13.051
37312W        W98601  39.494  34.065   1.920
37313W        W98602  25.971  36.058  12.418
37314W        W98603  43.972  21.735  12.926
37315W        W98604  29.053  32.523   4.623
37316W        W98605  14.287  16.795  14.992
37317W        W98606   0.469  38.541  14.031
37318W        W98607  39.505  34.442  14.427
37319W        W98608  18.188  29.104  12.829
37320W        W98609  36.996   7.316   2.219
37321W        W98610  32.091   4.861   3.210
37322W        W98611  42.463  41.042   2.856
37323W        W98612   3.336  35.050  14.023
37324W        W98613  25.205  22.170  11.021
37325W        W98614  16.290  44.405  14.942
37326W        W98615   1.755  10.207  13.832
37327W        W98616  15.132  12.119  14.979
37328W        W98617  30.505  17.290   4.666
37329W        W98618   6.911   6.743  12.424
37330W        W98619  33.473   3.246  11.380
37331W        W98620  17.096  23.111  10.971
37332W        W98621   0.425  13.247  13.364
37333W        W98622  43.940  40.949  14.431
37334W        W98623  44.398  32.454  12.486
37335W        W98624  37.492  22.035  13.967
37336W        W98625  29.963  18.586   2.830
37337W        W98626  10.673  11.361   3.750
37338W        W98627  38.979  17.641  10.998
37339W        W98628  18.585   2.317   4.243
37340W        W98629   7.305  20.234  14.790
37341W        W98630   4.434   3.873  14.819
37342W        W98631  24.500   6.397   3.269
37343W        W98632  27.570  10.138   1.913
37344W        W98633  26.690  26.067   0.257
37345W        W98634  41.991  17.653  14.462
37346W        W98635  33.024  13.240   1.439
37347W        W98636  33.927   5.932   2.349
37348W        W98637  10.290   4.216   3.283
37349W        W98638  23.592   4.222  11.612
37350W        W98639  19.213  13.739  10.903
37351W        W98640  17.106   4.917   3.214
37352W        W98641   5.838  20.768  10.985
37353W        W98642  16.708  24.135  13.543
37354W        W98643  12.703  26.060  14.387
37355W        W98644  19.117  38.482   2.723
37356W        W98645  21.260  41.002   4.237
37357W        W98646  36.554  25.057  12.050
37358W        W98647  23.511  22.669   2.291
37359W        W98648   0.384   3.358  12.860
37360W        W98649  43.272   3.875   3.330
37361W        W98650  23.653   4.835   4.243
37362W        W98651  19.081  44.758   0.785
37363W        W98652  40.487  26.061  10.920
37364W        W98653   1.464  39.321  13.940
37365W        W98654  29.008  25.530   1.849
37366W        W98655   6.357   1.474  13.831
37367W        W98656  22.637   8.228   3.711
37368W        W98657  28.658  10.766  12.917
37369W        W98658  43.415   2.767   4.714
37370W        W98659  21.222  31.989  10.405
37371W        W98660  11.211  12.683   3.784
37372W        W98661  29.595  37.572   4.250
37373W        W98662   8.764  17.756   1.277
37374W        W98663  16.272  11.200   4.323
37375W        W98664  35.558  17.703   2.327
37376W        W98665  33.032  26.511   4.124
37377W        W98666  22.125   3.304  10.509
37378W        W98667   8.705  37.963  13.521
37379W        W98668  22.545  29.448   0.739
37380W        W98669  30.510  27.069  12.369
37381W        W98670   8.793  31.590   1.890
37382W        W98671   6.360   4.369  13.001
37383W        W98672  15.329  22.629   2.352
37384W        W98673   6.267  42.403  10.954
37385W        W98674  37.500  18.682  12.360
37386W        W98675  18.587  17.637  11.114
37387W        W98676  43.012   5.816  13.801
37388W        W98677  31.102  30.119   3.212
37389W        W98678   5.193   3.820   1.780
37390W        W98679  11.841  37.345   1.717
37391W        W98680  12.756  16.089  13.402
37392W        W98681  11.829  31.422   2.887
37393W        W98682  42.381   5.300  12.393
37394W        W98683  12.325  32.398   0.818
37395W        W98684  33.079  35.433   1.876
37396W        W98685  38.854  25.119  11.568
37397W        W98686  24.598  15.086  12.354
37398W        W98687  18.225  41.362  10.582
37399W        W98688   0.403  21.105   1.317
37400W        W98689  28.468   1.874  14.844
37401W        W98690   7.747  36.885   1.856
37402W        W98691  16.302   1.753   5.108
37403W        W98692   8.658  24.994  14.819
37404W        W98693  38.996  38.823  12.393
37405W        W98694  15.083  20.623   1.864
37406W        W98695  20.056  40.801  12.059
37407W        W98696   4.706  38.073  11.436
37408W        W98697  18.246   2.392   4.151
37409W        W98698  25.140  30.913   5.279
37410W        W98699  39.432   0.911   1.744
37411W        W98700  16.090  42.387   0.366
37412W        W98701   2.904   4.374  12.846
37413W        W98702  14.147   3.404   2.888
37414W        W98703  34.594  13.727   4.205
37415W        W98704  34.445  42.812  12.920
37416W        W98705  32.412   7.211  14.012
37417W        W98706  40.006  24.216   2.739
37418W        W98707  13.183  13.761   3.335
37419W        W98708  12.790  16.795   1.932
37420W        W98709  35.078  33.507  10.109
37421W        W98710  12.771  34.504   1.284
37422W        W98711  17.193   2.825   3.640
37423W        W98712  18.717   5.244   2.394
37424W        W98713  18.233   4.299   4.689
37425W        W98714  15.174  12.286  12.880
37426W        W98715  13.613  34.006  14.001
37427W        W98716  19.667  37.902  12.903
37428W        W98717   4.401   4.330  11.124
37429W        W98718  22.596  17.780   0.858
37430W        W98719  42.003  10.235   1.390
37431W        W98720  31.969  20.724   1.445
37432W        W98721  11.692  19.568  10.110
37433W        W98722  15.824  30.645  14.491
37434W        W98723  16.699  14.604  14.424
37435W        W98724  16.648  27.474  13.843
37436W        W98725  38.844  19.153   5.756
37437W        W98726   8.892  26.597  13.432
37438W        W98727  11.159   5.221   1.425
37439W        W98728   6.827   8.179   3.753
37440W        W98729  29.155  11.635  13.850
37441W        W98730  32.404  42.778  14.502
37442W        W98731  14.319  35.887  13.425
37443W        W98732   0.312  23.728  14.476
37444W        W98733  19.284  22.044  12.836
37445W        W98734  38.481  22.065   3.698
37446W        W98735  14.220  33.423   4.198
37447W        W98736   3.892  15.126  11.918
37448W        W98737  17.601  16.810  12.851
37449W        W98738  23.094   2.264   1.296
37450W        W98739  23.625   7.694  14.509
37451W        W98740   5.714  25.529  11.878
37452W        W98741  21.055   5.740  11.043
37453W        W98742   3.710  10.638  13.848
37454W        W98743  13.185  22.550   3.857
37455W        W98744  33.464  23.642  14.937
37456W        W98745  19.619  37.960  13.430
37457W        W98746  25.191  43.814  10.519
37458W        W98747  31.996   0.326  13.881
37459W        W98748  17.081  14.339   2.212
37460W        W98749  14.629  37.884   2.722
37461W        W98750  42.016  19.701  13.365
37462W        W98751  10.750  16.292  14.338
37463W        W98752  29.506  41.368   3.271
37464W        W98753   2.807  32.574  13.378
37465W        W98754  24.609  18.608   0.391
37466W        W98755  39.936   3.231  11.999
37467W        W98756  38.937  33.594   5.284
37468W        W98757  32.885   5.877  14.414
37469W        W98758  31.090  21.736   2.705
37470W        W98759  40.376  26.004  14.373
37471W        W98760  16.699  37.475   4.114
37472W        W98761  24.674   1.482  13.522
37473W        W98762  19.058  16.164   2.191
37474W        W98763   5.291  25.112   3.832
37475W        W98764   3.319  41.394   1.851
37476W        W98765  18.178  21.629  12.417
37477W        W98766   6.249  36.350   4.170
37478W        W98767  30.053  42.344  10.974
37479W        W98768  11.351  43.768   4.351
37480W        W98769  25.610  11.294  11.980
37481W        W98770  44.305  13.748  13.341
37482W        W98771  40.492  25.962   0.791
37483W        W98772  30.080  26.495  13.971
37484W        W98773  12.829  44.267  10.905
37485W        W98774  13.599  28.144   0.888
37486W        W98775  41.360  44.812   2.842
37487W        W98776  38.379  19.252   3.317
37488W        W98777  14.265  18.158   3.249
37489W        W98778  13.267  15.284  14.973
37490W        W98779  25.617  25.648  13.424
37491W        W98780  21.688  38.484   2.707
37492W        W98781  23.555  43.965   1.262
37493W        W98782  25.677  27.590  14.888
37494W        W98783  41.931   7.274   3.211
37495W        W98784  28.101  31.086  11.956
37496W        W98785   3.748   6.838  11.514
37497W        W98786  37.520  19.283   3.260
37498W        W98787   3.310  15.750   3.322
37499W        W98788  26.165  18.208   0.844
37500W        W98789  22.013   6.803   3.847
37501W        W98790  44.895  41.036  13.452
37502W        W98791  39.964   3.892  11.036
37503W        W98792  20.528  33.890   1.251
37504W        W98793  10.826  38.436   4.154
37505W        W98794   2.781  14.165   1.896
37506W        W98795  29.930  39.960   2.685
37507W        W98796  22.508  15.808  14.773
37508W        W98797  22.659   8.194   1.231
37509W        W98798   9.731  25.552   1.903
37510W        W98799  34.421  23.039   1.333
37511W        W98800  23.690  29.962  10.941
37512W        W98801  21.615   2.746   0.779
37513W        W98802   8.334  14.315  13.043
37514W        W98803  26.144   3.942  13.320
37515W        W98804   1.787   9.387   3.269
37516W        W98805  33.580   0.480   5.270
37517W        W98806   1.885  34.871   0.280
37518W        W98807  19.575  20.143  13.383
37519W        W98808  40.875  38.509   4.179
37520W        W98809  33.501   7.319   4.757
37521W        W98810  38.388   6.846  10.924
37522W        W98811  41.826   2.402   0.820
37523W        W98812  22.542   6.887  10.945
37524W        W98813   7.905  12.610  13.536
37525W        W98814  16.280   3.791  10.558
37526W        W98815  25.524   9.339   2.752
37527W        W98816  14.309  38.976  11.901
37528W        W98817   0.867  28.640  12.486
37529W        W98818  20.634  10.267  13.824
37530W        W98819  21.549   1.965   4.181
37531W        W98820  12.772  32.983   4.714
37532W        W98821  28.063  18.650  12.077
37533W        W98822  19.118  29.103  13.031
37534W        W98823  37.544  26.671  10.914
37535W        W98824  27.046  33.952   2.891
37536W        W98825   6.421   9.821  14.800
37537W        W98826  17.580  43.465  13.960
37538W        W98827  29.102  24.615  13.364
37539W        W98828  25.997  32.127  12.093
37540W        W98829  33.573  35.488   2.239
37541W        W98830  11.680  31.903  14.921
37542W        W98831  17.135   4.263  10.585
37543W        W98832  22.611  30.044   4.663
37544W        W98833  11.659  36.351  12.450
37545W        W98834  25.157  18.725  11.611
37546W        W98835  35.035   0.429   4.116
37547W        W98836  35.474  41.830  13.848
37548W        W98837  27.511  27.094   2.767
37549W        W98838  43.315  32.914  14.890
37550W        W98839  28.604  36.365  10.592
37551W        W98840  41.004  37.874  11.033
37552W        W98841  24.200  25.203  12.050
37553W        W98842  26.563  43.888   1.788
37554W        W98843  30.925  10.271   3.236
37555W        W98844  40.479  39.912   1.371
37556W        W98845   9.150  31.931  13.313
37557W        W98846  38.520   9.243  12.442
37558W        W98847  35.063  14.741   0.937
37559W        W98848  32.535  17.581   1.706
37560W        W98849   1.355  30.023  13.469
37561W        W98850   3.806  30.649  11.882
37562W        W98851  34.106  21.024  13.327
37563W        W98852  32.985  14.716   0.329
37564W        W98853  20.688  18.651  11.432
37565W        W98854   9.829  35.956  13.929
37566W        W98855  20.112  31.563   3.314
37567W        W98856   1.915  18.105  13.021
37568W        W98857  42.368   7.836   1.901
37569W        W98858  21.132  19.609  13.905
37570W        W98859   2.771  19.567   4.285
37571W        W98860  21.700  43.794   1.793
37572W        W98861  13.650  44.439   0.841
37573W        W98862   2.231   7.879   5.187
37574W        W98863  17.599  37.021   3.864
37575W        W98864  43.803  43.773   2.418
37576W        W98865  19.081  29.515   0.392
37577W        W98866  13.262  10.734  11.585
37578W        W98867   5.380  19.664   1.820
37579W        W98868   3.366  37.930  11.465
37580W        W98869  15.613  35.537  11.386
37581W        W98870  10.146  18.779  12.526
37582W        W98871  16.247  25.646  11.020
37583W        W98872  29.596  20.132  14.398
37584W        W98873  26.984  34.529   0.785
37585W        W98874  14.164   4.711  11.862
37586W        W98875  41.805  21.262   0.828
37587W        W98876  39.359  43.835  13.808
37588W        W98877  36.485  32.501   0.303
37589W        W98878  28.597   5.697  11.092
37590W        W98879   0.777  18.638   0.767
37591W        W98880  22.050  17.152  11.576
37592W        W98881  34.459  13.753  14.515
37593W        W98882  23.518  24.503   0.899
37594W        W98883   1.768  15.127   4.788
37595W        W98884   2.784  25.173   2.781
37596W        W98885   7.715  27.036   0.815
37597W        W98886  26.544  26.700  14.442
37598W        W98887  15.172   0.947  11.087
37599W        W98888  37.959  38.456   1.852
37600W        W98889  24.221  35.913   1.344
37601W        W98890  33.596  21.189   0.264
37602W        W98891   4.419  41.345  12.472
37603W        W98892  25.134  16.102   1.440
37604W        W98893  23.150  31.132   3.739
37605W        W98894  27.115  15.697  14.841
37606W        W98895  35.550  36.351   1.839
37607W        W98896  44.418   1.744   4.210
37608W        W98897   2.820  13.693   1.230
37609W        W98898  14.598  19.146  11.433
37610W        W98899  16.719  15.288   3.632
37611W        W98900  32.980  43.345   3.633
37612W        W98901  23.545  16.747  14.296
37613W        W98902   3.900  10.256   2.377
37614W        W98903  39.519   2.335   2.889
37615W        W98904  25.625  28.567  12.982
37616W        W98905  11.356  15.792   1.764
37617W        W98906   3.295  44.825  12.875
37618W        W98907  12.271  33.551   1.330
37619W        W98908  29.484  16.714  14.500
37620W        W98909  28.441  30.119   0.323
37621W        W98910  38.837  40.458   2.238
37622W        W98911  34.373  14.293  10.559
37623W        W98912  34.025  14.773  12.419
37624W        W98913   1.452  26.608   3.820
37625W        W98914  24.623  18.196   0.922
37626W        W98915  20.178  14.204   1.736
37627W        W98916  43.398   3.855   1.824
37628W        W98917   8.219  24.150  14.335
37629W        W98918   7.229   4.315   3.223
37630W        W98919  21.228  25.526  10.431
37631W        W98920  14.814   0.838   0.802
37632W        W98921  41.856   2.352  11.382
37633W        W98922  18.256  18.714  10.411
37634W        W98923  23.545   0.354  14.837
37635W        W98924   2.784  32.035  12.906
37636W        W98925  21.695  23.132  13.501
37637W        W98926   8.900  29.660  14.366
37638W        W98927  14.310  28.586   3.307
37639W        W98928  37.967  22.253   0.349
37640W        W98929  18.101  42.438   1.276
37641W        W98930  31.427  28.461   1.319
37642W        W98931  30.639  39.913   4.219
37643W        W98932  17.094  41.533   0.914
37644W        W98933  39.808  39.917  10.930
37645W        W98934  30.928  15.198   2.760
37646W        W98935  28.082   6.717   0.352
37647W        W98936  21.738   5.823  10.890
37648W        W98937   0.461  18.618   2.408
37649W        W98938  32.596   1.870   3.838
37650W        W98939  28.085  17.638  12.515
37651W        W98940  25.568  17.597   4.820
37652W        W98941  24.097  34.115   4.320
37653W        W98942   9.312  16.273   0.378
37654W        W98943  39.809  36.956   3.655
37655W        W98944  32.431  30.463  13.854
37656W        W98945  30.461  10.765   3.844
37657W        W98946  43.336  34.413  10.593
37658W        W98947   8.675  44.345  10.576
37659W        W98948  37.898  44.827  11.469
37660W        W98949  26.055  36.377   1.260
37661W        W98950  44.779  11.822   3.337
37662W        W98951   3.899   7.369   5.293
37663W        W98952   9.718  25.138   4.350
37664W        W98953  44.426  24.105   0.333
37665W        W98954  11.345   8.195   0.923
37666W        W98955  37.936  39.431   3.294
37667W        W98956  20.234  41.899  11.872
37668W        W98957  35.962  26.593  14.330
37669W        W98958  36.945  37.060   1.813
37670W        W98959  29.162   7.699  11.900
37671W        W98960  25.053  25.536   4.293
37672W        W98961  34.557  28.484   2.781
37673W        W98962  34.880   9.816  13.873
37674W        W98963  14.802  37.352   0.481
37675W        W98964  42.366  27.524  12.457
37676W        W98965   1.395  37.444   0.331
37677W        W98966  37.004   3.400  13.507
37678W        W98967  39.394  14.198   3.154
37679W        W98968  39.982  25.213  13.382
37680W        W98969   9.301  32.063   0.966
37681W        W98970  39.947   0.307  14.387
37682W        W98971  29.023  26.966   1.893
37683W        W98972   0.935   0.358  12.972
37684W        W98973  22.517  26.082   3.180
37685W        W98974  20.734  22.694  10.433
37686W        W98975   0.302  16.614   1.791
37687W        W98976  42.031  15.268   3.255
37688W        W98977  12.645  40.824  14.010
37689W        W98978  28.624   2.467   2.293
37690W        W98979   5.301   9.793   2.379
37691W        W98980  36.487  25.966  11.413
37692W        W98981  40.333  18.138  13.883
37693W        W98982  21.036  22.212  12.045
37694W        W98983  43.946  37.434   5.096
37695W        W98984  35.367   6.830  12.357
37696W        W98985  35.416  39.481  12.925
37697W        W98986  40.334  19.078   2.741
37698W        W98987  27.689  17.720   1.305
37699W        W98988  39.046   1.780   5.114
37700W        W98989  32.942  31.643  14.346
37701W        W98990   0.912  42.515   1.351
37702W        W98991  24.629  42.781   3.220
37703W        W98992  39.441   0.864   0.343
37704W        W98993  23.015  40.541   1.260
37705W        W98994  14.712  20.634  11.878
37706W        W98995  41.852  15.610   1.345
37707W        W98996   2.285  32.616  14.910
37708W        W98997   0.320  22.561   0.734
37709W        W98998   9.388  18.659  13.061
37710W        W98999  26.495  25.588   0.391
37711W        W99000  14.623  27.981   0.416
37712W        W99001  44.986  33.537  11.594
37713W        W99002   4.722  41.826  12.840
37714W        W99003  16.094   7.173   1.887
37715W        W99004  33.942   6.366  14.805
37716W        W99005  40.945  38.044   2.827
37717W        W99006   1.845  22.640  13.971
37718W        W99007   6.409  24.992   2.310
37719W        W99008  10.805  41.977   2.667
37720W        W99009   6.305  18.607   0.762
37721W        W99010  11.821  16.739  12.340
37722W        W99011   5.911  15.189  12.477
37723W        W99012  22.227  31.501   3.318
37724W        W99013  22.519  30.921   2.734
37725W        W99014  13.734  35.928  12.459
37726W        W99015  32.550  27.076   1.310
37727W        W99016  27.980  15.818  13.491
37728W        W99017  41.532  32.526  11.415
37729W        W99018  21.261  24.680  11.941
37730W        W99019  30.920  13.270  13.869
37731W        W99020  23.134   1.482  13.916
37732W        W99021  19.755   2.441   1.700
37733W        W99022  30.620  42.901   9.942
37734W        W99023  38.017  34.609  14.845
37735W        W99024   1.867  16.226  14.491
37736W        W99025   2.231  23.057   3.226
37737W        W99026  30.508  22.701   2.371
37738W        W99027  23.502  38.459   1.749
37739W        W99028  27.452   2.367   0.335
37740W        W99029  44.955  44.954   3.158
37741W        W99030   7.673   4.317  13.931
37742W        W99031  15.176  31.406  13.354
37743W        W99032   8.288  40.964   3.354
37744W        W99033   3.233   9.389  14.435
37745W        W99034  11.856  37.967  11.496
37746W        W99035  13.841  40.931  13.495
37747W        W99036  36.558  23.176  12.441
37748W        W99037   2.423  35.515   1.901
37749W        W99038  15.578  31.088  12.840
37750W        W99039  35.047  39.936  12.045
37751W        W99040  21.091  44.795  14.300
37752W        W99041  31.046  24.547   4.703
37753W        W99042   2.759   7.793  13.050
37754W        W99043  16.630  10.283  14.406
37755W        W99044   0.331  14.683  14.320
37756W        W99045   4.820  18.632  14.919
37757W        W99046  24.151  28.632  13.804
37758W        W99047  16.257   7.813  11.906
37759W        W99048  23.678  34.889   3.239
37760W        W99049   9.803  12.325   4.653
37761W        W99050  29.075   9.329   0.448
37762W        W99051   4.803  33.002  11.444
37763W        W99052  40.039  37.450   3.209
37764W        W99053   8.766   3.856   0.315
37765W        W99054   5.706  43.835   0.801
37766W        W99055   5.265  30.079   3.190
37767W        W99056  15.104  13.645   0.323
37768W        W99057  27.096  40.355   1.863
37769W        W99058  38.497  20.107   4.671
37770W        W99059  25.988   9.187   1.724
37771W        W99060   4.882  13.627  12.951
37772W        W99061  24.101  38.434   0.320
37773W        W99062  42.979  11.690   2.804
37774W        W99063  26.504  13.276  14.318
37775W        W99064  38.849  19.118   3.210
37776W        W99065  13.273  26.163   3.715
37777W        W99066  24.095   8.388   3.752
37778W        W99067  10.671  25.502  10.534
37779W        W99068  22.208  33.039  12.419
37780W        W99069  43.384  42.348   0.377
37781W        W99070  38.882  18.255  10.024
37782W        W99071   5.746  44.472  11.045
37783W        W99072  26.694  33.921  14.930
37784W        W99073  40.882  37.858  13.949
37785W        W99074   4.839   4.433  14.864
37786W        W99075  30.083  27.986   2.816
37787W        W99076  12.174  21.198  10.466
37788W        W99077  19.542  30.935   4.347
37789W        W99078  14.788  15.711  10.912
37790W        W99079  34.084   9.197   2.790
37791W        W99080   3.916  33.429  14.301
37792W        W99081   6.406   7.832  14.870
37793W        W99082   5.875  38.964   4.208
37794W        W99083  13.718  11.778   2.827
37795W        W99084  12.689  24.129  14.352
37796W        W99085  30.116  22.189  14.336
37797W        W99086  30.602  37.907   4.657
37798W        W99087  34.085  24.537   0.247
37799W        W99088   1.905  28.937   3.690
37800W        W99089  40.004  29.988  12.881
37801W        W99090  10.238  31.054  11.868
37802W        W99091  29.028  19.622  11.086
37803W        W99092  17.278   2.229  11.079
37804W        W99093  27.682  12.339  14.379
37805W        W99094  18.630  40.336   0.385
37806W        W99095  38.474   4.780   1.895
37807W        W99096   4.417  11.272  12.980
37808W        W99097  36.442   9.856   3.822
37809W        W99098  25.216  19.103   1.364
37810W        W99099   2.472  29.109   4.210
37811W        W99100  20.600   0.364  11.936
37812W        W99101  38.966  13.252  11.081
37813W        W99102   7.778  17.193   2.415
37814W        W99103  23.590   5.360   4.262
37815W        W99104  29.472   0.829   2.236
37816W        W99105   5.289  39.418  10.541
37817W        W99106  12.673  36.529   0.857
37818W        W99107  35.085  24.056   4.298
37819W        W99108   8.204  42.841   5.312
37820W        W99109  43.016  21.182  12.988
37821W        W99110  27.628  25.503   2.882
37822W        W99111   2.313  22.035   1.286
37823W        W99112  16.107  33.066   0.775
37824W        W99113  14.273  33.396  12.890
37825W        W99114  19.687  44.856   4.314
37826W        W99115  43.993  18.267   3.273
37827W        W99116  35.956  19.185   4.797
37828W        W99117   1.751  15.685   1.368
37829W        W99118  37.978  16.719   3.193
37830W        W99119  35.408   3.442  10.613
37831W        W99120  29.516  34.462  11.592
37832W        W99121  36.524  21.115  14.867
37833W        W99122  44.850  43.315  11.415
37834W        W99123  27.484  10.283   1.347
37835W        W99124  44.965  16.729   4.164
37836W        W99125  27.015   4.908   2.792
37837W        W99126  44.333  44.317   2.684
37838W        W99127  27.621  39.331  11.953
37839W        W99128   5.815  16.598   1.916
37840W        W99129   3.770  29.489  13.040
37841W        W99130   9.297  20.162  13.985
37842W        W99131  10.255  13.838   3.693
37843W        W99132  34.470  42.363   4.168
37844W        W99133  38.904  42.471  11.540
37845W        W99134  44.396  24.675  10.491
37846W        W99135  36.023  39.541  10.470
37847W        W99136  16.241  38.026  11.091
37848W        W99137  28.639  43.816   1.290
37849W        W99138   9.271  15.663   2.405
37850W        W99139  29.495  42.931  14.882
37851W        W99140  44.791  17.593  11.912
37852W        W99141   9.735  10.705   2.812
37853W        W99142  37.981   9.671  11.124
37854W        W99143  14.316  18.096   0.790
37855W        W99144  27.101  38.344  12.043
37856W        W99145  26.208  33.554   4.811
37857W        W99146  38.021  10.737   2.220
37858W        W99147   7.700  38.518   2.691
37859W        W99148  23.173  25.656   2.765
37860W        W99149   8.841  28.171   1.708
37861W        W99150   4.396  29.508  12.556
37862W        W99151  13.657  43.818  10.969
37863W        W99152   7.808  18.222   2.203
37864W        W99153   7.797  11.362  11.954
37865W        W99154  30.914   9.375   0.249
37866W        W99155  29.670   0.331   3.704
37867W        W99156  30.914  25.604   3.192
37868W        W99157   9.201  33.466   3.708
37869W        W99158  15.288   1.461  14.418
37870W        W99159   1.775  39.032  12.998
37871W        W99160   5.345  38.459   3.150
37872W        W99161  23.546   7.767  13.798
37873W        W99162  33.014  28.116   3.150
37874W        W99163   2.742   5.226   0.461
37875W        W99164  30.057  26.653   0.424
37876W        W99165  18.781  15.316   2.902
37877W        W99166  36.064  28.963  14.025
37878W        W99167  14.109  12.197  12.405
37879W        W99168   4.248  44.404  14.398
37880W        W99169   0.783  16.633   1.873
37881W        W99170  34.425  12.246  12.569
37882W        W99171   4.733  18.734  12.552
37883W        W99172   9.335  25.206  11.554
37884W        W99173   6.810   2.739  13.850
37885W        W99174  36.401   6.690  10.958
37886W        W99175  18.760  26.680  13.042
37887W        W99176  30.105  28.519  12.880
37888W        W99177  16.586  29.461   4.717
37889W        W99178  32.046  22.557  12.989
37890W        W99179  32.612   5.728   0.245
37891W        W99180  41.857   7.414   1.764
37892W        W99181  13.271  42.330   2.348
37893W        W99182  25.066  23.706   4.723
37894W        W99183   2.901  18.704   3.262
37895W        W99184  31.104   1.252   3.198
37896W        W99185   4.374  29.477  10.461
37897W        W99186   6.756  10.291   1.223
37898W        W99187  29.155  27.567   0.800
37899W        W99188  26.192  31.959  11.582
37900W        W99189   7.778  35.978  12.038
37901W        W99190  43.003  33.581  14.395
37902W        W99191  43.804  13.202  14.957
37903W        W99192  38.486  18.248   0.264
37904W        W99193   9.674   4.899  11.900
37905W        W99194  25.587  12.626  14.991
37906W        W99195   4.822   1.252   1.856
37907W        W99196  14.822   2.899   2.274
37908W        W99197  28.090  38.358   0.752
37909W        W99198   4.436  23.116  13.511
37910W        W99199  28.457  38.361   1.323
37911W        W99200  35.554  28.497  13.029
37912W        W99201   0.924  24.056   0.478
37913W        W99202  40.044  32.117  14.967
37914W        W99203  18.625   8.865  12.013
37915W        W99204  25.706  38.565   3.784
37916W        W99205  39.848  14.695   0.871
37917W        W99206  31.469  10.685   4.331
37918W        W99207  21.038   0.784   5.188
37919W        W99208  29.027  44.364  13.807
37920W        W99209  15.231  14.290  12.087
37921W        W99210  32.462   9.364   3.858
37922W        W99211   3.282  40.314  11.016
37923W        W99212  31.428  26.544  11.437
37924W        W99213   9.883  35.591   9.531
37925W        W99214  13.719  44.839  10.125
37926W        W99215  29.451  32.047   3.739
37927W        W99216  41.032  27.651  14.327
37928W        W99217  41.422   6.222  12.942
37929W        W99218  26.468  42.410   1.358
37930W        W99219  42.863  44.956  14.490
37931W        W99220  17.709  15.634  12.369
37932W        W99221   9.657   8.217   3.815
37933W        W99222  16.235   1.972  10.959
37934W        W99223   4.859  25.477  13.048
37935W        W99224  26.206  32.471   4.828
37936W        W99225  10.791   7.340  14.493
37937W        W99226  38.065  22.706  10.974
37938W        W99227  12.277  42.494  14.459
37939W        W99228  30.126  10.838   2.185
37940W        W99229  39.898   9.197   2.807
37941W        W99230  31.642  24.492  14.347
37942W        W99231  30.432  36.858  10.609
37943W        W99232   4.281  33.074   1.842
37944W        W99233   4.792  22.595  13.916
37945W        W99234  35.368  19.045   2.230
37946W        W99235  38.022  42.463  14.421
37947W        W99236  36.991  16.094   3.723
37948W        W99237  27.688   2.347  10.613
37949W        W99238  24.087  36.011   0.469
37950W        W99239  37.480  16.073  14.972
37951W        W99240  39.338  38.421   4.238
37952W        W99241  29.526  28.500  11.046
37953W        W99242   8.303  20.564  13.933
37954W        W99243  24.196  42.402  11.088
37955W        W99244  28.986  23.047  14.421
37956W        W99245  23.504  19.719   1.883
37957W        W99246  14.258  31.072  13.059
37958W        W99247  20.134   6.906   3.702
37959W        W99248  16.791  39.413  10.625
37960W        W99249  20.728  42.977  10.624
37961W        W99250  29.495  30.582   9.997
37962W        W99251  36.500  18.685  14.882
37963W        W99252   5.929  21.091   0.875
37964W        W99253  23.104  14.730  13.430
37965W        W99254   6.422  29.999  12.866
37966W        W99255  11.713   7.270   4.729
37967W        W99256  18.248  13.173   4.732
37968W        W99257   1.773  23.133  10.521
37969W        W99258  32.416  32.103  10.498
37970W        W99259  24.203  35.095  10.422
37971W        W99260  42.886  22.229  14.896
37972W        W99261   3.263   8.717   1.733
37973W        W99262   5.315  16.130  11.069
37974W        W99263  25.065  41.030   4.168
37975W        W99264  12.303  15.219  14.983
37976W        W99265  43.793   4.700  13.486
37977W        W99266   1.888  11.739   0.397
37978W        W99267  44.878  41.021   3.173
37979W        W99268  27.991  37.486  11.955
37980W        W99269  10.256   0.310   1.404
37981W        W99270  35.595   7.197   2.310
37982W        W99271   8.189  22.747  11.935
37983W        W99272   3.282  10.782   0.332
37984W        W99273  14.165   2.816   3.151
37985W        W99274   9.367  42.366  10.623
37986W        W99275  35.078  23.072   1.379
37987W        W99276  11.816   7.246  13.885
37988W        W99277  32.054  10.857  14.313
37989W        W99278  44.306  14.125  13.493
37990W        W99279  12.632   4.352   3.726
37991W        W99280  11.769  34.390   4.338
37992W        W99281  18.588  14.823   2.712
37993W        W99282   8.887  11.270  11.925
37994W        W99283  43.854  27.944   2.401
37995W        W99284  38.892  10.705  12.447
37996W        W99285   4.810   5.718   4.287
37997W        W99286  10.649  24.209   0.247
37998W        W99287  18.216  17.647  14.813
37999W        W99288   7.318  25.608   3.315
38000W        W99289  32.619  20.625   1.817
38001W        W99290  38.897   5.197  14.936
38002W        W99291   6.286  33.527  14.452
38003W        W99292  16.125  39.489  14.500
38004W        W99293   6.425  29.967   4.255
38005W        W99294  26.527   2.267   0.760
38006W        W99295  13.206   4.351  14.821
38007W        W99296  19.081  10.267  12.063
38008W        W99297   2.259  29.648   4.325
38009W        W99298  14.102  39.442   2.339
38010W        W99299   7.379  42.326   4.201
38011W        W99300   6.342  27.064  11.610
38012W        W99301  15.327  20.202  11.999
38013W        W99302  41.352   0.770   4.350
38014W        W99303  40.998  33.876   2.345
38015W        W99304  36.585  38.410  11.448
38016W        W99305   8.697  16.197  14.928
38017W        W99306  27.968  26.985  14.370
38018W        W99307  27.193   8.276  11.114
38019W        W99308  38.059  43.367  14.023
38020W        W99309   4.778  21.051  12.873
38021W        W99310   8.222  37.441  13.909
38022W        W99311  34.433  34.440   2.704
38023W        W99312  13.659  25.538  13.834
38024W        W99313  22.078  32.990  10.583
38025W        W99314  40.885  12.299  12.000
38026W        W99315   6.375   9.768  14.457
38027W        W99316   8.878  14.218   0.894
38028W        W99317  38.944  44.870   2.247
38029W        W99318  36.071   3.840   3.812
38030W        W99319   8.190   0.913   3.208
38031W        W99320  11.352   2.944   0.277
38032W        W99321  32.394   6.310   1.796
38033W        W99322   1.871  11.758   2.676
38034W        W99323  24.054  23.176  12.351
38035W        W99324  41.449  35.049  11.096
38036W        W99325   2.369  37.350  11.011
38037W        W99326  35.584   0.872  14.022
38038W        W99327   2.303  34.112   4.727
38039W        W99328  16.274  22.175   1.713
38040W        W99329  24.990  33.449   3.182
38041W        W99330   0.915  17.786  13.531
38042W        W99331  14.677  14.651   1.250
38043W        W99332  11.205  15.276  11.892
38044W        W99333  22.589   7.695  13.960
38045W        W99334  38.924  38.948  14.968
38046W        W99335  30.619  10.733   0.426
38047W        W99336  43.765  33.045   0.390
38048W        W99337   7.729  29.040   2.889
38049W        W99338  28.169  11.288  10.116
38050W        W99339  22.705  11.709  10.002
38051W        W99340  28.082   2.828  12.931
38052W        W99341  41.786   3.874  11.124
38053W        W99342  43.461  26.482  12.829
38054W        W99343   1.849  19.182  14.976
38055W        W99344  26.103  38.048   0.307
38056W        W99345   1.279  23.585  14.963
38057W        W99346  41.943  30.985   1.907
38058W        W99347  44.963   2.261  12.438
38059W        W99348  27.128  11.332  13.009
38060W        W99349  21.120  26.579  11.396
38061W        W99350  44.331   1.461  13.910
38062W        W99351  29.440   3.234   4.239
38063W        W99352   6.313  37.944   2.419
38064W        W99353  32.534  12.310  12.505
38065W        W99354  20.164   0.898  14.986
38066W        W99355  25.995  34.003  11.998
38067W        W99356  18.277  42.879  12.940
38068W        W99357  35.940   1.923   4.797
38069W        W99358   7.696   8.897  14.772
38070W        W99359  20.088  40.841   0.737
38071W        W99360  33.118  35.094  12.503
38072W        W99361  18.223  38.529  14.374
38073W        W99362  43.424  34.886   3.331
38074W        W99363  23.529  11.688   1.908
38075W        W99364  43.841  23.040   3.812
38076W        W99365  42.915   4.724   1.346
38077W        W99366  26.191  38.002  12.861
38078W        W99367  38.931   5.202  11.492
38079W        W99368  37.554  31.013  14.315
38080W        W99369  16.692  36.023   3.709
38081W        W99370  26.673  13.290   1.752
38082W        W99371  16.247   3.356   0.362
38083W        W99372  19.256   9.243   0.369
38084W        W99373  35.498  21.147  11.502
38085W        W99374  44.337  37.901   2.710
38086W        W99375  10.797  38.556   3.835
38087W        W99376  12.826  16.723   4.762
38088W        W99377  37.014  29.128   2.267
38089W        W99378  44.266   5.352  11.484
38090W        W99379  22.552  14.327  12.537
38091W        W99380   1.278  27.623  14.456
38092W        W99381  31.094  43.329  13.909
38093W        W99382  26.044   4.786  12.436
38094W        W99383  24.188   7.389  10.541
38095W        W99384  28.025   8.246   1.718
38096W        W99385   1.367  13.120   4.785
38097W        W99386   0.362  43.344  14.017
38098W        W99387  39.482  20.103  11.597
38099W        W99388   8.397  14.112   1.356
38100W        W99389   8.290  17.704   3.794
38101W        W99390  28.931  36.022  12.978
38102W        W99391  43.826  44.839   4.812
38103W        W99392  10.184  13.680  13.360
38104W        W99393  25.988   4.772  13.409
38105W        W99394  10.728  35.587   3.320
38106W        W99395  14.255  15.746   1.709
38107W        W99396  11.220  11.221   4.330
38108W        W99397  18.198  16.217   2.230
38109W        W99398   6.356  25.003   1.309
38110W        W99399   4.772  30.573   2.718
38111W        W99400  10.205   0.345   5.625
38112W        W99401  11.313   2.246   1.781
38113W        W99402  37.856  14.202  11.471
38114W        W99403   3.332  12.663   1.705
38115W        W99404  40.824  27.624   1.313
38116W        W99405  25.504  44.955  13.000
38117W        W99406  13.318  40.897  14.399
38118W        W99407  13.121  32.551   2.391
38119W        W99408  20.045  43.979   1.844
38120W        W99409  32.944  10.189  14.370
38121W        W99410   0.853  12.710   4.297
38122W        W99411  35.027  19.664  13.506
38123W        W99412  44.896  44.910   4.634
38124W        W99413  36.979  10.186   2.881
38125W        W99414  21.613   5.894  14.329
38126W        W99415  34.050   2.378   1.903
38127W        W99416  27.086  13.664  10.471
38128W        W99417   5.922  41.341   0.266
38129W        W99418  30.997  35.374  10.970
38130W        W99419   4.361  14.325  14.952
38131W        W99420  20.541   4.274   0.429
38132W        W99421  37.507  26.575  14.008
38133W        W99422  30.057   0.772   3.863
38134W        W99423  39.543  16.262  12.542
38135W        W99424  12.620  20.233   3.165
38136W        W99425  32.975  24.564   2.728
38137W        W99426  25.522  36.954  14.399
38138W        W99427  31.434  42.847   0.937
38139W        W99428  25.032   6.710  10.610
38140W        W99429  10.288  30.993   0.356
38141W        W99430  15.207  39.424   0.918
38142W        W99431  24.076  15.229   2.826
38143W        W99432  27.614  36.881  13.792
38144W        W99433  36.083   0.886   0.788
38145W        W99434  32.026  24.507   4.600
38146W        W99435  26.972  11.233  14.383
38147W        W99436  24.677  41.521  12.351
38148W        W99437   1.735  13.822   4.701
38149W        W99438  29.946  24.138  14.322
38150W        W99439   5.403   5.225  11.035
38151W        W99440  38.819  44.913   4.124
38152W        W99441  30.611  32.902   1.305
38153W        W99442   5.722  12.357  14.000
38154W        W99443  13.339   2.381  14.936
38155W        W99444  44.926  29.543   0.403
38156W        W99445  13.172  27.598  10.565
38157W        W99446  11.289   2.828  11.590
38158W        W99447   6.350   4.901   0.264
38159W        W99448   0.374  42.280   2.786
38160W        W99449  32.554  44.849  13.545
38161W        W99450  29.092  40.521  14.896
38162W        W99451  12.308  26.003   0.813
38163W        W99452   4.230  12.685  14.911
38164W        W99453  21.252  43.977  12.965
38165W        W99454  38.038  43.320   4.741
38166W        W99455   1.972  14.250  12.466
38167W        W99456   5.740  26.106  10.614
38168W        W99457   2.898  30.930   1.279
38169W        W99458   2.267  35.036  13.419
38170W        W99459  13.153  16.615   3.173
38171W        W99460   4.924  26.126   0.333
38172W        W99461  15.102  23.017   0.295
38173W        W99462  37.418  42.953  14.359
38174W        W99463  28.967  19.043  13.915
38175W        W99464  25.122  24.136  10.426
38176W        W99465  11.775  21.061   3.356
38177W        W99466  17.725  22.130  11.546
38178W        W99467  22.098  44.400   0.249
38179W        W99468  42.996  15.733  11.475
38180W        W99469  41.978  23.161   1.830
38181W        W99470  37.345   9.653   2.707
38182W        W99471  36.907  21.737   3.757
38183W        W99472  38.834   4.849  11.428
38184W        W99473  38.857  13.309  11.885
38185W        W99474  30.076  33.472  13.799
38186W        W99475   1.247  37.946  10.937
38187W        W99476  40.536   4.834  14.434
38188W        W99477  26.180  17.172   0.324
38189W        W99478  31.619   4.751  14.910
38190W        W99479  29.450  32.018  12.881
38191W        W99480  29.091  44.760   4.207
38192W        W99481   8.681  32.110   2.668
38193W        W99482  15.772  27.121  12.850
38194W        W99483  10.636  10.779   0.337
38195W        W99484  21.688  26.021  11.569
38196W        W99485  39.441  18.108   0.418
38197W        W99486  35.083  13.335   4.140
38198W        W99487  30.137   0.316   2.396
38199W        W99488  44.000   5.808  13.992
38200W        W99489   7.737  26.626  14.814
38201W        W99490  34.929  43.776   3.635
38202W        W99491  41.481  33.431   1.833
38203W        W99492  14.617   1.800   2.742
38204W        W99493  24.063  44.963  12.095
38205W        W99494   1.877  35.555   4.757
38206W        W99495   9.387  27.945  12.859
38207W        W99496   7.709  20.668   2.890
38208W        W99497   7.889  44.415   3.715
38209W        W99498  38.534  10.854  13.448
38210W        W99499   5.720  32.020  11.911
38211W        W99500  28.073  29.504  13.394
38212W        W99501   0.792  12.814   1.832
38213W        W99502  11.363  29.569   4.816
38214W        W99503  17.240  39.940  14.934
38215W        W99504  27.942  43.941  12.974
38216W        W99505  36.005   1.278  10.464
38217W        W99506  36.026  43.839   0.875
38218W        W99507  43.361  16.310  13.447
38219W        W99508  42.963  35.091   1.307
38220W        W99509   0.955  33.514  13.540
38221W        W99510  19.217  23.135  13.842
38222W        W99511   2.472  37.483   4.156
38223W        W99512  39.062  21.193  12.896
38224W        W99513  26.526  26.609   0.448
38225W        W99514  30.981  44.259  11.551
38226W        W99515  32.926  15.289   3.788
38227W        W99516  25.631  35.577   3.186
38228W        W99517  37.879  35.025   4.688
38229W        W99518  25.976  33.578  11.962
38230W        W99519  17.688  30.084   3.286
38231W        W99520  26.604  41.901  10.553
38232W        W99521   2.802  40.996   1.864
38233W        W99522  15.254  25.516   4.150
38234W        W99523  10.245  31.498   9.576
38235W        W99524  16.239   1.861  14.954
38236W        W99525   9.358   2.358   2.683
38237W        W99526   6.218   0.856   3.777
38238W        W99527  31.011  24.645  13.040
38239W        W99528   5.702  31.971   0.394
38240W        W99529  25.183  24.140  14.992
38241W        W99530  20.569  17.227  12.526
38242W        W99531  14.243  36.961   2.869
38243W        W99532   9.197  31.579  13.903
38244W        W99533  36.574  28.930   1.259
38245W        W99534   5.246  33.464  14.892
38246W        W99535  11.150  31.086  13.547
38247W        W99536   1.468  23.648   2.806
38248W        W99537  36.006   2.861  14.474
38249W        W99538  27.086  20.244  10.530
38250W        W99539  19.538   6.682  12.362
38251W        W99540   3.306  11.161  13.516
38252W        W99541   8.227  34.008  14.926
38253W        W99542   3.367  19.248  11.932
38254W        W99543  39.358  18.188  11.103
38255W        W99544  15.158  10.254   0.937
38256W        W99545   6.401   7.869   0.964
38257W        W99546  15.230  24.132   2.361
38258W        W99547  30.972  26.205  12.382
38259W        W99548  36.073  19.097  12.378
38260W        W99549  26.457  42.940  13.494
38261W        W99550  16.615  13.755  12.515
38262W        W99551  29.633  20.602   3.675
38263W        W99552  41.295  34.517   1.228
38264W        W99553  44.346   1.750  14.366
38265W        W99554  40.325  21.669  13.958
38266W        W99555  25.109  23.238  11.044
38267W        W99556   2.922  11.711  10.467
38268W        W99557  23.203  17.694  12.067
38269W        W99558  40.374  12.181   4.160
38270W        W99559   6.829  14.281  10.907
38271W        W99560  12.796  39.362   2.401
38272W        W99561  18.153  15.275  12.088
38273W        W99562  10.174  33.596  11.049
38274W        W99563  36.904  11.731   2.202
38275W        W99564  12.639  37.495  12.485
38276W        W99565  19.228  24.664  12.575
38277W        W99566  13.722  26.627  11.498
38278W        W99567   5.737   9.283  14.483
38279W        W99568  32.083   4.366   0.867
38280W        W99569   1.867   8.180   1.280
38281W        W99570  19.621  44.400  11.449
38282W        W99571  13.724   6.745   4.809
38283W        W99572  29.052  11.129  11.917
38284W        W99573  19.663  26.081   2.333
38285W        W99574  35.993  10.362   3.177
38286W        W99575  38.887   7.255   1.358
38287W        W99576  35.464  32.614  11.060
38288W        W99577  23.536   7.874   1.237
38289W        W99578   7.390   1.358  13.934
38290W        W99579   9.233  40.999  12.085
38291W        W99580  14.264  25.200   5.171
38292W        W99581  25.643  21.524  14.393
38293W        W99582  38.863  10.700   1.318
38294W        W99583   6.345   8.190   0.278
38295W        W99584  25.528  10.158   2.332
38296W        W99585  32.440  21.141  12.444
38297W        W99586  31.524  38.526   3.665
38298W        W99587  14.284  11.341  12.577
38299W        W99588   8.813  33.969   3.313
38300W        W99589  18.247  21.726  11.416
38301W        W99590  14.312  35.972   2.823
38302W        W99591  37.560  22.178  10.541
38303W        W99592  13.810  22.105   1.232
38304W        W99593  14.742   2.245   4.160
38305W        W99594  20.569   3.896  13.423
38306W        W99595   5.385  10.276   9.971
38307W        W99596  44.340  31.496   2.208
38308W        W99597  38.571  37.396  11.039
38309W        W99598   1.407  13.755  11.501
38310W        W99599  19.124  32.401   1.389
38311W        W99600   2.436  39.034  13.426
38312W        W99601  18.608  27.558   4.341
38313W        W99602   0.876  10.370  11.535
38314W        W99603  12.761   2.864   4.348
38315W        W99604  17.702  18.222   2.863
38316W        W99605  11.295  23.998  14.766
38317W        W99606   6.235  23.098   2.747
38318W        W99607  40.315  42.012  12.086
38319W        W99608  25.007  31.105  12.561
38320W        W99609   5.301  29.462  13.371
38321W        W99610   5.351  15.590  12.373
38322W        W99611  13.803  26.645   2.245
38323W        W99612  27.098  31.993   1.766
38324W        W99613  21.166  29.941   3.705
38325W        W99614  26.517  37.903  14.966
38326W        W99615  22.189  31.080  12.534
38327W        W99616  24.615   7.241  12.854
38328W        W99617  40.306  10.162  13.396
38329W        W99618  42.309  44.316   4.818
38330W        W99619  29.047   2.819   9.461
38331W        W99620  33.119   2.261  14.330
38332W        W99621  27.191  15.231   2.300
38333W        W99622  14.100  12.153  12.081
38334W        W99623  25.083  10.310  12.398
38335W        W99624  20.530   1.444  12.867
38336W        W99625  31.038  42.785   2.200
38337W        W99626  30.945  29.591  12.988
38338W        W99627  15.239  23.531  13.827
38339W        W99628  24.676  12.328   3.168
38340W        W99629   5.299   6.274   4.753
38341W        W99630   0.418  29.593  11.439
38342W        W99631  31.551  12.211   2.826
38343W        W99632   7.333  33.131  13.023
38344W        W99633  40.918  20.062  11.522
38345W        W99634  34.375  29.503  14.323
38346W        W99635  23.119  23.636  11.072
38347W        W99636   6.772  21.070   3.318
38348W        W99637  28.534  31.102  12.954
38349W        W99638  16.299  22.168   2.774
38350W        W99639  39.983  13.724  11.435
38351W        W99640  34.488  25.703   3.381
38352W        W99641  44.411  38.397  13.405
38353W        W99642  11.284  21.090  11.958
38354W        W99643   1.931  10.238   3.354
38355W        W99644  39.547  13.211   4.600
38356W        W99645  15.608  22.515   4.313
38357W        W99646  11.152   9.387   0.895
38358W        W99647  21.714  23.568   4.171
38359W        W99648   7.743  19.609   1.780
38360W        W99649  17.578  22.591   2.782
38361W        W99650  29.034  30.440  13.850
38362W        W99651  28.569   3.421  12.852
38363W        W99652  12.238  12.656  14.437
38364W        W99653  28.670  33.431  12.430
38365W        W99654  20.539  37.966   1.695
38366W        W99655  29.472  44.973   4.706
38367W        W99656  29.928  18.140  10.640
38368W        W99657  10.209  27.160  12.848
38369W        W99658  36.885  30.015  13.058
38370W        W99659  29.554   1.855  10.903
38371W        W99660  23.684  24.067  10.946
38372W        W99661  10.373   5.730   1.764
38373W        W99662  36.923  12.642   0.301
38374W        W99663  21.210   5.852   4.167
38375W        W99664  25.198  41.504   1.703
38376W        W99665  23.231   7.366   1.848
38377W        W99666  18.166  32.613   2.854
38378W        W99667  35.106  19.060  11.948
38379W        W99668  24.118   1.956  12.489
38380W        W99669  25.155   3.805  11.065
38381W        W99670  23.658  42.823   2.264
38382W        W99671  28.483  23.074   2.182
38383W        W99672  30.943  40.951  13.948
38384W        W99673  25.504  13.746  14.306
38385W        W99674  33.571  35.542  14.375
38386W        W99675  19.044  19.164   3.214
38387W        W99676  27.520  33.467  12.049
38388W        W99677  27.019  18.236  13.497
38389W        W99678  21.051  16.757   0.276
38390W        W99679  31.540  10.298  11.037
38391W        W99680  30.071   5.375   3.165
38392W        W99681  28.074  43.428  11.013
38393W        W99682  10.199  27.087  13.818
38394W        W99683  28.121  20.659  11.958
38395W        W99684  25.560   3.278   4.215
38396W        W99685  17.703  41.447   3.229
38397W        W99686  41.829  31.936  13.533
38398W        W99687  16.669   5.261  12.884
38399W        W99688  13.152  41.034   0.802
38400W        W99689   9.253   3.318   3.146
38401W        W99690  15.244  12.143  10.446
38402W        W99691  26.187  31.606  13.848
38403W        W99692  21.614   8.664  10.955
38404W        W99693  31.042   2.448   2.689
38405W        W99694  11.773  36.482   0.458
38406W        W99695  29.513  34.492  10.549
38407W        W99696  38.435   3.805  12.019
38408W        W99697   1.847  24.688   3.804
38409W        W99698  24.619   8.296  14.365
38410W        W99699  11.710  34.381   0.319
38411W        W99700  29.991  33.598   0.380
38412W        W99701   2.448  36.576   0.926
38413W        W99702  32.477  41.789  13.020
38414W        W99703  13.743  27.144  14.941
38415W        W99704  14.649  44.377  13.051
38416W        W99705  34.531  32.089   1.303
38417W        W99706  19.775  35.975  13.051
38418W        W99707  14.711   5.710   3.778
38419W        W99708  42.334   8.203   5.179
38420W        W99709   4.772  22.019  11.555
38421W        W99710  13.779  26.206  10.422
38422W        W99711  38.071   3.278   1.827
38423W        W99712  24.583  16.227  14.853
38424W        W99713   8.175  44.986   1.310
38425W        W99714  43.377  14.677  14.020
38426W        W99715  20.739  14.267  14.340
38427W        W99716   7.668  33.417   2.787
38428W        W99717  26.096  31.976   1.297
38429W        W99718  17.678   6.331  13.357
38430W        W99719  19.059  11.830  14.347
38431W        W99720  31.973  30.547   9.941
38432W        W99721   8.329  34.448  10.994
38433W        W99722  30.993  25.144   0.733
38434W        W99723  18.159  20.704   3.228
38435W        W99724   2.391  37.573   2.215
38436W        W99725  18.284  14.717   4.249
38437W        W99726  44.957  14.818  13.041
38438W        W99727  14.177  38.996  13.423
38439W        W99728   0.270   6.878  10.631
38440W        W99729  23.660  26.053   3.343
38441W        W99730  32.427  20.722   2.854
38442W        W99731  14.165  26.063  13.026
38443W        W99732  41.497  33.566   5.268
38444W        W99733  34.475  14.712  11.455
38445W        W99734  38.429  12.183  13.794
38446W        W99735  26.035  34.059   4.727
38447W        W99736  19.548  18.737  12.563
38448W        W99737  25.149  22.172  13.394
38449W        W99738  14.306  28.615   0.731
38450W        W99739  17.138  42.861  13.985
38451W        W99740  22.510   7.687   0.881
38452W        W99741   4.283  22.626  12.954
38453W        W99742   8.671  36.396   2.193
38454W        W99743   7.882  10.751  13.500
38455W        W99744  25.689  11.717   4.336
38456W        W99745   3.274  37.993   0.411
38457W        W99746  10.235  18.124  13.058
38458W        W99747  41.453  12.774  11.000
38459W        W99748  29.488  21.104   3.733
38460W        W99749  16.769  32.562   3.848
38461W        W99750   1.414   7.392  14.412
38462W        W99751  27.628   2.957   3.699
38463W        W99752   8.220  32.930  12.424
38464W        W99753  27.191  24.637  11.884
38465W        W99754  35.481  24.079   4.753
38466W        W99755   5.918  16.262  12.929
38467W        W99756  14.220  36.376  10.550
38468W        W99757  16.226  11.727  14.855
38469W        W99758  22.093  16.635  12.829
38470W        W99759  16.592  39.837  12.568
38471W        W99760   0.925  23.535   1.284
38472W        W99761  12.794  19.078   3.781
38473W        W99762   4.372  10.721  10.485
38474W        W99763  32.437  20.233  12.979
38475W        W99764  34.486   3.342  12.936
38476W        W99765   4.384  13.703  14.932
38477W        W99766  19.721   5.351  13.019
38478W        W99767  34.416  12.748  10.999
38479W        W99768  15.173  11.249   4.742
38480W        W99769   4.395  15.208   4.134
38481W        W99770  13.267   2.855   0.385
38482W        W99771  21.634   4.814   1.224
38483W        W99772  24.583  23.059  14.926
38484W        W99773  29.624   6.757   1.808
38485W        W99774  25.165  10.220   1.290
38486W        W99775  32.604  18.236  10.620
38487W        W99776  34.478  16.700  12.572
38488W        W99777  29.497  23.220   1.441
38489W        W99778   8.800  36.471  11.610
38490W        W99779  24.006  19.093   2.318
38491W        W99780   9.822  40.392  14.834
38492W        W99781  19.699  20.220  14.779
38493W        W99782  13.737  32.910  14.797
38494W        W99783  33.432   4.934   0.312
38495W        W99784  29.023  35.478   2.405
38496W        W99785  20.605  26.039   0.295
38497W        W99786  43.887  40.335   2.192
38498W        W99787  14.649  42.506  10.919
38499W        W99788  19.606  37.449   1.918
38500W        W99789   9.354   7.390  12.050
38501W        W99790  13.632  25.610   4.181
38502W        W99791   8.262  23.507   4.353
38503W        W99792  26.639  13.674  10.638
38504W        W99793   8.796  29.995  10.413
38505W        W99794   1.422   7.803   9.440
38506W        W99795  12.645  19.690  11.945
38507W        W99796   4.854  20.655   4.339
38508W        W99797  26.060  35.034  12.996
38509W        W99798   9.176  36.071  12.398
38510W        W99799  25.714  39.489  10.494
38511W        W99800  11.726  32.982   2.377
38512W        W99801   2.380  41.839   0.738
38513W        W99802  35.858  34.489  13.044
38514W        W99803   1.248   3.812   3.679
38515W        W99804  18.550  35.567   0.913
38516W        W99805  25.219  18.778  14.296
38517W        W99806  18.203  30.552  13.397
38518W        W99807   2.444   9.182   4.262
38519W        W99808  36.963   4.789  13.362
38520W        W99809   1.823   1.839   4.310
38521W        W99810  12.337  13.188   2.882
38522W        W99811  10.635   9.808   1.320
38523W        W99812  33.454  18.755   1.222
38524W        W99813  13.755  26.684  14.857
38525W        W99814  40.316   8.313  11.441
38526W        W99815  23.595  24.171  11.430
38527W        W99816  22.170  23.984   3.645
38528W        W99817  17.175  40.974  10.529
38529W        W99818  23.620  39.327   4.232
38530W        W99819  44.400  32.905   9.970
38531W        W99820  27.141   8.674   3.718
38532W        W99821  44.985  33.459  13.968
38533W        W99822  29.959  11.342  13.815
38534W        W99823   5.252  38.032  10.443
38535W        W99824  40.817  29.541   3.781
38536W        W99825  37.497  35.460   3.207
38537W        W99826  14.670  25.583   2.835
38538W        W99827  26.638   6.810   2.779
38539W        W99828  12.181  20.637   5.136
38540W        W99829  37.432  11.128   2.412
38541W        W99830  28.947   0.919  11.857
38542W        W99831  39.828  42.980  12.376
38543W        W99832  16.297  38.866  13.329
38544W        W99833  40.530  10.165  11.004
38545W        W99834  29.155   9.877   2.698
38546W        W99835  18.546  40.380  11.376
38547W        W99836   3.863  11.798   1.277
38548W        W99837  36.929  24.511   4.249
38549W        W99838  42.823  29.134  14.934
38550W        W99839   4.732  14.626  10.119
38551W        W99840   4.295   0.328   3.213
38552W        W99841  30.510  44.977  12.888
38553W        W99842  42.852  30.907  14.812
38554W        W99843   3.357  37.571  12.512
38555W        W99844  38.899  37.864   2.355
38556W        W99845  14.289  22.560   4.615
38557W        W99846  39.498   7.836   1.317
38558W        W99847   4.274   1.822  11.590
38559W        W99848  35.486  20.723   4.631
38560W        W99849   4.381   4.840  12.498
38561W        W99850   1.290   5.742  14.880
38562W        W99851  35.435  25.091  13.990
38563W        W99852  19.770  22.673  14.372
38564W        W99853  22.018  34.116  12.475
38565W        W99854   8.393   8.861  14.498
38566W        W99855   7.843   2.914   1.405
38567W        W99856  24.670  17.302  13.857
38568W        W99857  23.236  24.177   3.320
38569W        W99858   3.427  32.080  13.408
38570W        W99859  36.095  40.021  11.901
38571W        W99860  34.549   5.717  13.517
38572W        W99861  22.159  40.866   1.713
38573W        W99862  12.137   2.802   0.452
38574W        W99863  28.488  22.531  14.825
38575W        W99864   4.766  23.073  11.047
38576W        W99865  28.137  16.777  11.062
38577W        W99866  38.871  21.677  12.422
38578W        W99867  30.099  32.142  13.434
38579W        W99868  13.183   0.338   0.289
38580W        W99869  43.507  16.246  14.308
38581W        W99870  36.873  15.722  12.566
38582W        W99871  18.618   6.704  11.115
38583W        W99872  42.377  18.698   3.367
38584W        W99873   4.924  16.664   5.182
38585W        W99874  14.627  14.249   4.340
38586W        W99875  19.765  38.919   2.186
38587W        W99876   2.720  44.371   0.448
38588W        W99877   0.320  23.680  13.977
38589W        W99878  19.593  15.768   0.789
38590W        W99879  14.184  23.222  11.404
38591W        W99880  30.061  44.325   1.289
38592W        W99881   3.247  10.305  12.045
38593W        W99882  13.600  24.663  10.461
38594W        W99883  20.557   9.704  13.431
38595W        W99884  20.621  27.550   2.342
38596W        W99885  41.033  43.516   2.692
38597W        W99886  38.069  14.231   0.727
38598W        W99887  30.999  33.912  12.040
38599W        W99888  39.496   6.304  11.980
38600W        W99889  17.570  16.140  10.642
38601W        W99890   4.838  12.309  13.848
38602W        W99891  29.600  43.802  14.432
38603W        W99892  12.638   3.766   2.409
38604W        W99893  21.203  35.042   4.168
38605W        W99894  13.187  23.072  10.622
38606W        W99895  35.096   5.298  11.089
38607W        W99896   7.250  21.187   2.701
38608W        W99897  22.141   3.940  11.032
38609W        W99898  25.158  24.610   1.394
38610W        W99899  36.386   3.876   0.909
38611W        W99900   6.724  25.649  14.435
38612W        W99901  22.583  14.211  13.363
38613W        W99902  32.125  21.523  10.478
38614W        W99903  18.055  24.117  14.280
38615W        W99904  39.498   9.666  10.630
38616W        W99905  44.315  26.507  11.514
38617W        W99906  14.663  23.501   0.740
38618W        W99907  16.641   8.394   4.600
38619W        W99908  33.437   1.775  12.565
38620W        W99909  43.013  22.043   1.365
38621W        W99910  44.782   0.453   3.266
38622W        W99911  35.509   3.956   2.691
38623W        W99912   9.853  25.601   0.952
38624W        W99913  14.320  28.680  11.070
38625W        W99914  12.125   2.388   1.808
38626W        W99915  27.109  36.442   3.671
38627W        W99916  29.449  27.650  13.003
38628W        W99917  43.800  18.096   0.954
38629W        W99918  36.460  12.796  13.896
38630W        W99919  25.105  34.033  12.562
38631W        W99920  43.008  19.573   0.967
38632W        W99921   2.764  33.507   0.329
38633W        W99922  26.092  33.525   1.823
38634W        W99923   6.761  26.043  12.476
38635W        W99924  37.967   4.782   1.817
38636W        W99925   6.774   8.307  14.462
38637W        W99926  10.378   0.251  12.536
38638W        W99927  20.055  27.570   0.338
38639W        W99928  25.195  27.987  13.851
38640W        W99929  12.625  17.229  13.931
38641W        W99930  15.149   7.819   2.732
38642W        W99931  36.361  44.359  10.477
38643W        W99932  25.052  41.876   1.433
38644W        W99933  27.515   7.774  12.893
38645W        W99934  37.836   8.200  13.392
38646W        W99935  21.173  33.913  14.886
38647W        W99936  35.390  34.505   3.298
38648W        W99937   3.778  36.062   9.975
38649W        W99938   5.426   3.222  12.448
38650W        W99939  16.590  29.652   3.382
38651W        W99940   3.352  30.976  12.930
38652W        W99941   9.358  27.083  14.428
38653W        W99942   6.206  40.467   3.307
38654W        W99943   7.859   5.279  12.413
38655W        W99944  28.483   6.277  11.511
38656W        W99945  12.726   4.729  11.504
38657W        W99946  39.907   6.876   2.740
38658W        W99947  11.859  24.633  14.382
38659W        W99948  30.957  12.742  11.597
38660W        W99949  28.145  21.101  14.365
38661W        W99950  28.456  34.553   0.475
38662W        W99951  25.655   3.240   0.963
38663W        W99952  18.728   2.263  11.070
38664W        W99953  40.392  23.103   3.318
38665W        W99954  10.263  37.022   0.331
38666W        W99955  15.159  27.483   4.194
38667W        W99956  34.091  40.881   4.646
38668W        W99957  27.045   4.447   0.779
38669W        W99958  38.556  14.652  10.943
38670W        W99959  40.977  16.796   3.310
38671W        W99960   4.865  31.561   2.215
38672W        W99961  20.752  27.511  10.546
38673W        W99962   2.387  30.089  11.407
38674W        W99963   1.302  11.258  11.396
38675W        W99964  16.238  25.013  10.423
38676W        W99965  21.737  35.401  10.628
38677W        W99966  44.908  40.303  10.919
38678W        W99967   5.921   7.301  12.560
38679W        W99968  27.112  39.039  13.395
38680W        W99969  21.651  26.482   1.300
38681W        W99970   2.310  24.056  10.922
38682W        W99971  10.708  28.068   1.884
38683W        W99972   3.768  31.147   1.319
38684W        W99973   3.364   7.179   2.277
38685W        W99974   6.911  12.258   0.280
38686W        W99975  19.220  30.466  12.402
38687W        W99976  31.437  34.541   3.225
38688W        W99977   7.375  24.224   0.911
38689W        W99978  30.110  15.178  14.784
38690W        W99979  34.607  44.002  14.297
38691W        W99980  14.744  40.496  13.897
38692W        W99981   8.729  15.782   0.769
38693W        W99982  42.970   6.289   3.225
38694W        W99983   1.839  35.365  11.554
38695W        W99984  18.294   0.898  12.075
38696W        W99985   7.720  39.451  11.959
38697W        W99986  38.549  30.529   1.350
38698W        W99987  38.071  38.393  14.381
38699W        W99988  17.625  32.038  13.972
38700W        W99989  32.504  30.054  10.591
38701W        W99990  16.100  35.538  11.096
38702W        W99991  13.175   1.940   2.217
38703W        W99992  42.828  19.725   1.857
38704W        W99993  35.994  41.353  13.824
38705W        W99994  15.649  36.434  13.013
38706W        W99995  43.485  42.848   3.635
38707W        W99996  21.261  26.202   1.342
38708W        W99997  32.606  36.548  11.941
38709W        W99998  38.571   6.281  13.307
38710W        W99999  14.681  41.488   3.270
38711W        W    0  23.502  42.485  13.892
38712W        W    1  31.088   6.414   4.769
38713W        W    2   5.774   8.217  13.481
38714W        W    3  30.996   0.332   1.212
38715W        W    4  11.228  30.080  13.793
38716W        W    5  43.924  32.891  11.099
38717W        W    6   7.666   4.448  13.389
38718W        W    7  32.543  15.695  11.446
38719W        W    8  40.338  41.529   5.115
38720W        W    9  14.771  30.510  14.779
38721W        W   10  35.097  42.523  11.023
38722W        W   11  27.124  10.794  11.578
38723W        W   12   3.250  18.242  14.912
38724W        W   13  20.735  42.810  11.509
38725W        W   14  36.856   9.184   3.664
38726W        W   15  33.622  18.240  11.013
38727W        W   16  17.191  15.193   3.344
38728W        W   17  41.964   9.727   2.224
38729W        W   18  22.646  35.534  13.013
38730W        W   19   7.868  38.985   4.720
38731W        W   20  34.452  10.233  10.056
38732W        W   21  23.035  39.396  10.596
38733W        W   22   1.290  43.348  11.882
38734W        W   23  21.071  23.732  11.999
38735W        W   24  34.949   5.702  11.538
38736W        W   25  40.350  42.338  12.022
38737W        W   26   9.664  39.017   4.656
38738W        W   27   7.750  25.976   3.241
38739W        W   28  43.958  37.997  12.448
38740W        W   29  25.029  28.945  13.493
38741W        W   30  10.176  32.946   0.828
38742W        W   31   5.251   8.182   2.377
38743W        W   32  15.782  41.917  12.578
38744W        W   33   6.831   7.378  11.516
38745W        W   34   5.720  21.724  10.435
38746W        W   35  22.223   2.854   2.759
38747W        W   36  24.059  39.336   3.304
38748W        W   37  12.797   1.418  14.835
38749W        W   38  41.408   2.468  12.961
38750W        W   39  41.413  18.756   4.282
38751W        W   40   4.218   9.307   0.782
38752W        W   41  29.548  25.544   4.786
38753W        W   42  38.047  40.310  12.436
38754W        W   43  19.263   0.488   4.785
38755W        W   44   5.350   7.700  10.568
38756W        W   45   0.336  36.490   3.839
38757W        W   46  18.078  32.946   0.344
38758W        W   47  22.527  19.717   0.479
38759W        W   48  29.947  42.463   2.274
38760W        W   49  21.222  34.874  13.495
38761W        W   50  34.438  41.849  14.982
38762W        W   51  22.683  27.492   3.251
38763W        W   52  36.351  28.988  13.049
38764W        W   53  37.403  16.210   1.430
38765W        W   54  21.107   9.784  10.568
38766W        W   55  44.318  26.102  14.426
38767W        W   56  34.994   6.817   1.791
38768W        W   57  33.436   3.787  14.329
38769W        W   58  18.181  42.385  14.487
38770W        W   59  37.074  22.602  11.963
38771W        W   60  38.432  22.535  12.011
38772W        W   61  14.760   5.693  14.357
38773W        W   62   6.218  29.960   3.199
38774W        W   63  30.018  42.818   2.738
38775W        W   64  37.932  38.439  11.905
38776W        W   65   6.832   2.762   4.813
38777W        W   66  26.203  26.653   4.598
38778W        W   67  43.425  37.930  13.500
38779W        W   68  20.631  20.225   4.735
38780W        W   69   4.742  24.094  13.810
38781W        W   70  24.026  25.144  10.970
38782W        W   71   6.365   5.894  14.905
38783W        W   72  22.686   6.736   2.359
38784W        W   73  39.466  18.213   2.874
38785W        W   74  44.766  15.725   4.748
38786W        W   75   2.274  37.491   1.792
38787W        W   76  12.824  19.682  11.080
38788W        W   77  22.182  41.968  13.444
38789W        W   78  33.542  10.780  13.023
38790W        W   79  12.818   7.835  12.057
38791W        W   80   6.684  39.887  14.823
38792W        W   81  22.526  32.907  14.300
38793W        W   82  37.060  42.016  14.887
38794W        W   83  25.600  11.132  14.504
38795W        W   84  22.127  37.427  12.377
38796W        W   85  34.870  25.501   4.633
38797W        W   86  25.698  39.949  11.012
38798W        W   87  24.020   9.661   4.323
38799W        W   88  40.517  25.118   3.285
38800W        W   89   0.256   0.770   3.208
38801W        W   90  14.819  20.077  14.017
38802W        W   91  20.559   8.889  11.419
38803W        W   92  26.505  20.147  14.015
38804W        W   93  30.147  42.879  14.784
38805W        W   94  14.728  26.019   4.305
38806W        W   95  19.737  10.799  14.763
38807W        W   96   6.350  36.864  11.046
38808W        W   97  32.996   6.912  14.476
38809W        W   98  31.449  34.018   3.268
38810W        W   99  31.984  19.044  10.557
38811W        W  100  17.690  15.213   1.420
38812W        W  101  27.966  39.405   4.299
38813W        W  102  21.235   1.780  12.394
38814W        W  103   0.976  18.548  14.515
38815W        W  104  18.111   7.378  14.768
38816W        W  105  11.220  17.235  12.402
38817W        W  106  18.564  26.124   4.223
38818W        W  107  18.656   0.275  10.962
38819W        W  108  39.011  16.766  13.858
38820W        W  109  18.672  24.543  12.870
38821W        W  110  19.602  41.811   4.735
38822W        W  111  35.385  44.786   2.179
38823W        W  112   4.398  20.555  13.857
38824W        W  113  14.790  10.683   2.264
38825W        W  114   2.399   1.320   3.357
38826W        W  115   2.400  40.494   2.332
38827W        W  116  40.891  42.454  10.633
38828W        W  117   8.224  30.557   1.709
38829W        W  118   1.270  28.952  11.915
38830W        W  119  44.902  39.017  11.879
38831W        W  120  30.054  33.525  13.383
38832W        W  121  31.130  15.622  10.587
38833W        W  122   4.398   8.756   0.452
38834W        W  123  28.177   0.834   1.222
38835W        W  124   4.860  11.626   2.249
38836W        W  125  12.234  37.560  13.485
38837W        W  126  40.886  21.041  14.866
38838W        W  127  40.991  23.155   2.257
38839W        W  128  24.023  24.015  12.913
38840W        W  129  41.896  39.507  14.799
38841W        W  130  34.382  15.650   4.140
38842W        W  131  14.829  33.398   0.851
38843W        W  132  39.995  27.005  12.026
38844W        W  133  41.352  23.568  12.355
38845W        W  134  35.979  23.560   2.406
38846W        W  135  43.408  30.925   3.164
38847W        W  136  31.101  26.196  13.012
38848W        W  137  15.306  43.010   3.269
38849W        W  138  11.255  21.738  12.842
38850W        W  139  19.098  11.722   0.266
38851W        W  140  11.268   7.802  11.932
38852W        W  141  41.427  34.958   3.367
38853W        W  142   8.348  18.180   4.727
38854W        W  143  26.608  31.442   4.803
38855W        W  144  29.445  17.086  11.109
38856W        W  145   4.746   0.895  10.592
38857W        W  146  24.002   2.734   3.238
38858W        W  147   4.338  42.780   0.866
38859W        W  148  40.934  42.820  13.489
38860W        W  149  39.963  15.585  12.541
38861W        W  150  31.919  21.735  12.399
38862W        W  151  21.757   4.715  14.438
38863W        W  152  11.817  30.104  13.465
38864W        W  153   4.315  15.628   3.366
38865W        W  154  43.896  27.474  12.397
38866W        W  155   0.332  31.994   5.190
38867W        W  156  36.351  40.013   3.377
38868W        W  157  43.820  37.078   1.805
38869W        W  158  27.608  20.667   4.216
38870W        W  159  22.028  42.027  11.127
38871W        W  160  11.246   1.936  12.988
38872W        W  161  15.119   4.312   2.315
38873W        W  162  13.177   6.823  12.397
38874W        W  163  36.441  37.494   1.253
38875W        W  164  23.556  19.586  11.859
38876W        W  165  37.015  28.437   0.958
38877W        W  166  40.346  23.199  14.482
38878W        W  167  34.579  15.137   2.762
38879W        W  168  28.081  41.538   4.248
38880W        W  169  14.285   2.778   4.677
38881W        W  170  35.592  37.065  11.437
38882W        W  171  44.476  17.214  14.389
38883W        W  172  23.051   4.300  11.420
38884W        W  173  17.167  15.674  13.819
38885W        W  174   2.465  15.274  13.942
38886W        W  175   8.760  33.496   1.330
38887W        W  176  14.771  42.375  12.466
38888W        W  177  35.078  43.999  12.927
38889W        W  178  42.321  16.287  12.026
38890W        W  179  28.615   0.871  13.854
38891W        W  180  42.923  37.059   4.687
38892W        W  181  38.461  39.875   3.777
38893W        W  182  14.280  33.608  10.554
38894W        W  183  19.197  30.052  12.551
38895W        W  184   6.333  37.414   1.427
38896W        W  185   7.218  11.760   1.882
38897W        W  186   1.247  27.463   1.886
38898W        W  187   5.764  25.551   0.390
38899W        W  188  11.138  26.007   4.656
38900W        W  189  29.134  25.092   4.832
38901W        W  190  25.665  26.659  12.089
38902W        W  191   1.242  43.997   1.410
38903W        W  192   5.380   1.416   1.398
38904W        W  193  17.268  40.904  11.057
38905W        W  194  18.210  24.035  14.771
38906W        W  195  16.211  32.101   4.629
38907W        W  196   9.231  15.618  12.949
38908W        W  197  14.294  13.789  12.994
38909W        W  198   9.699   8.285  12.571
38910W        W  199  18.716  37.397  14.429
38911W        W  200  13.285   6.351   1.800
38912W        W  201  21.724  34.473   4.785
38913W        W  202  29.550   6.874   0.335
38914W        W  203  23.124  36.097   3.277
38915W        W  204  30.065  16.314   4.765
38916W        W  205  30.944  35.446  12.930
38917W        W  206  13.313  42.386  11.103
38918W        W  207  27.610  36.054  14.364
38919W        W  208   3.912  20.596  13.379
38920W        W  209  10.206  35.461  13.436
38921W        W  210  32.476  23.560  12.870
38922W        W  211   4.440  29.088   0.937
38923W        W  212  38.977  19.690   2.680
38924W        W  213  35.560  30.057  11.424
38925W        W  214  34.986  41.369  11.097
38926W        W  215   7.314  24.547  12.905
38927W        W  216   6.325  26.191   5.234
38928W        W  217  36.376  42.920  11.483
38929W        W  218  17.178   5.313   3.297
38930W        W  219  34.448  33.568   3.176
38931W        W  220  28.997   9.829  12.378
38932W        W  221  32.606  27.039   2.832
38933W        W  222   8.217  25.484  10.004
38934W        W  223  29.074  36.408   3.154
38935W        W  224   0.289  23.528   4.665
38936W        W  225  37.012  35.927   1.408
38937W        W  226   9.823  21.657  10.612
38938W        W  227  42.811  18.703  14.884
38939W        W  228  16.194  38.519  13.344
38940W        W  229  38.556  16.173  12.342
38941W        W  230  10.220  23.028  11.126
38942W        W  231   1.455  42.379   3.711
38943W        W  232   4.799  10.773   1.219
38944W        W  233  24.619  37.031  11.918
38945W        W  234  28.096  40.316  10.914
38946W        W  235  37.466  27.135  14.908
38947W        W  236  20.528  20.053  12.462
38948W        W  237  44.960  23.057   4.353
38949W        W  238   9.369  38.547  11.537
38950W        W  239  17.163  37.016  10.555
38951W        W  240  35.413  32.434   2.216
38952W        W  241  44.464  37.504  14.915
38953W        W  242  27.456   5.325   2.892
38954W        W  243  30.095  16.179  13.835
38955W        W  244  10.158  35.082   5.286
38956W        W  245  20.225  36.881   1.916
38957W        W  246  37.019   3.219  14.029
38958W        W  247  17.600  17.676   1.721
38959W        W  248  24.204  17.755   2.354
38960W        W  249   4.844  19.635  14.805
38961W        W  250   2.278  23.670   4.794
38962W        W  251  29.048   9.172   0.819
38963W        W  252   3.933  42.288  11.536
38964W        W  253   7.225  43.021   3.182
38965W        W  254  16.151  36.019   4.791
38966W        W  255   5.248   9.691   3.348
38967W        W  256   1.863  14.792   0.446
38968W        W  257  17.727  39.815  13.920
38969W        W  258   1.825  23.015  11.421
38970W        W  259  35.883  41.385   3.718
38971W        W  260  31.110   8.714   2.900
38972W        W  261  34.526  24.020   1.829
38973W        W  262  10.286  24.150  12.362
38974W        W  263  25.520  29.026   4.667
38975W        W  264  15.720   5.337   1.276
38976W        W  265  12.653  21.256  14.980
38977W        W  266   9.732   9.827  13.909
38978W        W  267  33.091   6.722   3.669
38979W        W  268  43.961  34.019   2.404
38980W        W  269   2.296  23.061   4.136
38981W        W  270  25.483  37.058   2.180
38982W        W  271  25.658  31.915   9.947
38983W        W  272  20.651   0.421   2.327
38984W        W  273  24.132  37.533   2.267
38985W        W  274  22.126  37.018   4.695
38986W        W  275  41.895  37.554  14.930
38987W        W  276   1.446  23.634   0.398
38988W        W  277  14.693  23.583  12.911
38989W        W  278  31.613  11.132  12.898
38990W        W  279  38.335  38.547  14.474
38991W        W  280  24.101   1.928  10.961
38992W        W  281  30.436   8.733   1.312
38993W        W  282  35.857  39.464   1.360
38994W        W  283  39.812   3.295   1.368
38995W        W  284  30.936  44.345  14.004
38996W        W  285  17.165  12.825   3.204
38997W        W  286   7.323  35.106   3.636
38998W        W  287  43.509  25.169  12.458
38999W        W  288  38.865  26.587  10.139
39000W        W  289  30.600   4.355   2.855
39001W        W  290   7.879   4.728  14.772
39002W        W  291  19.691   3.891   1.347
39003W        W  292   8.360  29.668   0.298
39004W        W  293  15.119   6.307  14.352
39005W        W  294  18.757  13.821   1.848
39006W        W  295  41.025   2.239  10.929
39007W        W  296   4.324  12.137   4.138
39008W        W  297  40.800  13.113  10.928
39009W        W  298  10.878  14.236   4.313
39010W        W  299   3.824  23.605   3.784
39011W        W  300   2.805  29.015   3.189
39012W        W  301  31.972  21.123  13.363
39013W        W  302   2.381   4.433   4.820
39014W        W  303  44.472  24.667   4.783
39015W        W  304  31.061  12.612  14.466
39016W        W  305  40.322  26.192   1.801
39017W        W  306  31.005  30.038   0.360
39018W        W  307  12.668  30.042  11.069
39019W        W  308  21.079  39.320   4.826
39020W        W  309  39.412  32.045  12.023
39021W        W  310  20.233  14.131  13.042
39022W        W  311  14.728  33.992   3.268
39023W        W  312   1.480   6.820   0.817
39024W        W  313  11.641  31.415  13.864
39025W        W  314   4.889  39.994  14.505
39026W        W  315  10.647   5.713   2.693
39027W        W  316  28.088  23.121   9.592
39028W        W  317  37.547   8.670   2.369
39029W        W  318   4.818  16.790   0.826
39030W        W  319  32.530   7.362  11.575
39031W        W  320  11.724  23.178   4.744
39032W        W  321  19.113  34.987  13.978
39033W        W  322  11.786   4.831  13.410
39034W        W  323   7.674  20.061  13.491
39035W        W  324  22.504   7.783   4.195
39036W        W  325  17.300  34.066  10.452
39037W        W  326  11.187  44.282  10.936
39038W        W  327   8.837  21.046   0.920
39039W        W  328  32.100  35.879  13.457
39040W        W  329  23.013  17.243  10.622
39041W        W  330  44.887  22.187   1.835
39042W        W  331  11.330  37.545  10.624
39043W        W  332  19.153  32.139  13.532
39044W        W  333  44.434  22.676  10.531
39045W        W  334   5.883  35.484   0.459
39046W        W  335  21.081  20.042   2.331
39047W        W  336  16.239  30.059   2.185
39048W        W  337  41.036  40.469   1.409
39049W        W  338  24.632  40.876  11.466
39050W        W  339  36.469   2.288  14.991
39051W        W  340   1.783  27.609  14.806
39052W        W  341   0.309  40.458   2.864
39053W        W  342  15.617  25.689   3.751
39054W        W  343  40.030  41.311  13.988
39055W        W  344  43.020  12.728  14.307
39056W        W  345  10.345  27.189   1.868
39057W        W  346  43.418   8.234   2.792
39058W        W  347   9.363  34.040  14.874
39059W        W  348   2.274   2.960   4.330
39060W        W  349  26.556  21.741   3.370
39061W        W  350   0.825  14.171  10.452
39062W        W  351  18.779  28.174   4.598
39063W        W  352   5.848  21.206  12.565
39064W        W  353  14.152   9.229   1.431
39065W        W  354  38.021  30.594  14.463
39066W        W  355  14.696  12.779   1.220
39067W        W  356   7.849  30.511  12.942
39068W        W  357  15.774  28.632   0.781
39069W        W  358  12.696   9.222   3.684
39070W        W  359   4.744  30.088   2.702
39071W        W  360  35.002  42.791   2.764
39072W        W  361  30.457  19.165  10.407
39073W        W  362  38.370   8.895   2.686
39074W        W  363   6.261  24.984   0.470
39075W        W  364   0.417  28.005  11.040
39076W        W  365  18.651  29.536   3.850
39077W        W  366  31.920  16.745  12.931
39078W        W  367   3.392  12.815   9.972
39079W        W  368  44.880  38.978   0.466
39080W        W  369  15.598  36.462  11.483
39081W        W  370  43.476  16.716   1.442
39082W        W  371   8.334  41.358  10.447
39083W        W  372  32.125   5.790   4.632
39084W        W  373  39.943  26.196   2.864
39085W        W  374   9.329   3.856  11.019
39086W        W  375   1.933  38.406  13.462
39087W        W  376   4.718   4.930   4.700
39088W        W  377  29.020  18.246  13.442
39089W        W  378   8.344  41.822   4.267
39090W        W  379   3.281  38.001  10.986
39091W        W  380  14.706  33.405   1.725
39092W        W  381  34.064  13.253  12.004
39093W        W  382  18.620   1.891   3.262
39094W        W  383  32.535   5.716  11.125
39095W        W  384  44.860  20.179  12.427
39096W        W  385  32.928  21.663   4.223
39097W        W  386   8.180   5.341  12.882
39098W        W  387  39.916  44.333   4.599
39099W        W  388  21.263  30.964  12.523
39100W        W  389  21.755  11.693   0.942
39101W        W  390   9.733  27.181  11.057
39102W        W  391  35.573   4.317   5.730
39103W        W  392  42.287   6.759   3.699
39104W        W  393   9.797  27.997   0.804
39105W        W  394  13.332  19.662   5.092
39106W        W  395   0.896  19.555   4.751
39107W        W  396  12.665  30.963   1.227
39108W        W  397  24.098  13.348   2.341
39109W        W  398  12.322  11.129   4.606
39110W        W  399   2.884  42.413   0.849
39111W        W  400  38.836  12.650  11.558
39112W        W  401  36.347  22.595   3.683
39113W        W  402  27.111  39.382   1.265
39114W        W  403   2.733  32.504   0.873
39115W        W  404  18.160  27.519  13.469
39116W        W  405   2.252  28.475   2.746
39117W        W  406   3.741   3.377   2.330
39118W        W  407  17.183  43.964   0.349
39119W        W  408   6.759  33.412  14.427
39120W        W  409  25.499  27.543   3.322
39121W        W  410  34.054  21.757   0.343
39122W        W  411  41.483  15.799  13.311
39123W        W  412  34.507  14.619  12.948
39124W        W  413   0.914   6.276  10.977
39125W        W  414  22.038  44.871   1.713
39126W        W  415  22.619  14.155  12.855
39127W        W  416   7.328  21.229   4.136
39128W        W  417  29.458  10.335   3.818
39129W        W  418  31.480  22.084   4.282
39130W        W  419  17.691   1.908  14.295
39131W        W  420  22.008  10.708   2.209
39132W        W  421  21.183  40.800   2.230
39133W        W  422  32.556   1.298  13.974
39134W        W  423  29.173  20.260  11.554
39135W        W  424  10.309  14.204   4.233
39136W        W  425  25.196  43.515  14.403
39137W        W  426  17.213  40.462   4.200
39138W        W  427  41.532   0.779  14.480
39139W        W  428  26.198  28.935   2.336
39140W        W  429   2.314   2.380  10.968
39141W        W  430  31.013   5.430  11.399
39142W        W  431   1.821   2.855   2.305
39143W        W  432  28.605  19.142   3.292
39144W        W  433   8.762  42.777   0.396
39145W        W  434  40.464  42.865   3.275
39146W        W  435  21.663  31.647  10.569
39147W        W  436   9.872  11.255  11.551
39148W        W  437   4.308   7.678  11.549
39149W        W  438  30.072  24.647  10.612
39150W        W  439  12.804  14.145  10.424
39151W        W  440  20.601  33.970  13.817
39152W        W  441   6.259   1.796   4.834
39153W        W  442  35.081  12.677  11.863
39154W        W  443  13.210  19.144  14.020
39155W        W  444  10.238  39.432   4.824
39156W        W  445  30.957  31.510   3.145
39157W        W  446  36.488  16.212  14.370
39158W        W  447  38.544  18.213  12.550
39159W        W  448   7.377  30.520   2.754
39160W        W  449  29.929  38.074  13.891
39161W        W  450  32.044  14.747  12.544
39162W        W  451  34.025   6.687  12.536
39163W        W  452   9.286  38.008   4.143
39164W        W  453  22.557  36.874  13.389
39165W        W  454  36.902   3.392   3.650
39166W        W  455  32.903  16.632   4.672
39167W        W  456  25.120  31.901  12.468
39168W        W  457  41.412  10.677   0.267
39169W        W  458  34.919  34.108   2.217
39170W        W  459  11.650  18.764   4.769
39171W        W  460  42.019  30.593   1.375
39172W        W  461  34.487   9.864  14.486
39173W        W  462  16.762  35.496   4.773
39174W        W  463  19.204  31.529  14.002
39175W        W  464   7.390   9.765  13.835
39176W        W  465  39.395  32.434   1.838
39177W        W  466  41.968   9.782   3.630
39178W        W  467  28.121  31.488   1.235
39179W        W  468  37.526  34.006  14.421
39180W        W  469  33.038   3.453  14.992
39181W        W  470  11.760  24.671  12.958
39182W        W  471  21.061  27.686   3.673
39183W        W  472  24.652  24.622   1.302
39184W        W  473  25.073  26.505   2.817
39185W        W  474   1.810  32.461   1.805
39186W        W  475  31.960  35.878   3.165
39187W        W  476   4.257  25.178  14.503
39188W        W  477  36.457  44.957   4.241
39189W        W  478  30.615  22.098   1.398
39190W        W  479  32.024  43.278   2.282
39191W        W  480  12.636  43.886   3.844
39192W        W  481  20.628  14.645  10.918
39193W        W  482   1.938  32.447   2.859
39194W        W  483  44.313  40.866  11.586
39195W        W  484  43.442   7.755   0.757
39196W        W  485  36.077  39.465  14.807
39197W        W  486  13.181  32.459   4.761
39198W        W  487  42.290  19.633  13.811
39199W        W  488   1.936  24.121  14.990
39200W        W  489  35.860   3.344   3.269
39201W        W  490  16.139   5.803  14.935
39202W        W  491  16.619  24.077   2.898
39203W        W  492  14.631  27.112  12.026
39204W        W  493  15.723  27.461   1.839
39205W        W  494  39.030  24.087   2.316
39206W        W  495   3.359  42.857   3.810
39207W        W  496  26.062  33.924  12.455
39208W        W  497  24.544   8.401  10.423
39209W        W  498  13.329  12.839  12.965
39210W        W  499  14.695  41.454   0.826
39211W        W  500  10.729  18.712   4.337
39212W        W  501   5.881  34.116  12.995
39213W        W  502   2.744  39.486   3.249
39214W        W  503  36.558  14.785  11.096
39215W        W  504  20.613  26.483   3.289
39216W        W  505  29.104  34.568  11.020
39217W        W  506  16.175  10.719  11.496
39218W        W  507  22.150  22.029   5.306
39219W        W  508  26.484   2.953   4.130
39220W        W  509  18.235  15.780  12.412
39221W        W  510  23.547  29.162  11.902
39222W        W  511   3.738  33.422  12.891
39223W        W  512   2.916   8.852  11.940
39224W        W  513  22.130  33.875  14.300
39225W        W  514  33.597  32.937  14.026
39226W        W  515  34.574  39.405   3.836
39227W        W  516  20.218  36.904  14.758
39228W        W  517  24.208  15.200  11.450
39229W        W  518   1.321   3.430   3.267
39230W        W  519  30.156  18.710  14.504
39231W        W  520  23.066  36.039   1.223
39232W        W  521  11.785  29.959  11.875
39233W        W  522  26.614  40.800  10.521
39234W        W  523  38.969  35.552  10.594
39235W        W  524  13.753  13.213  10.979
39236W        W  525  41.792   1.838   3.722
39237W        W  526  23.666  30.006  13.309
39238W        W  527  15.601   4.807  13.813
39239W        W  528  41.399  26.649   0.794
39240W        W  529  35.592   1.966   5.097
39241W        W  530   6.278   1.968   0.480
39242W        W  531  40.947  26.177  14.783
39243W        W  532   7.847  28.070  11.419
39244W        W  533  16.786  41.361  10.546
39245W        W  534  14.209  14.594  14.320
39246W        W  535  23.158  30.087   3.852
39247W        W  536  10.198   5.223   0.260
39248W        W  537  20.735  34.877  14.011
39249W        W  538   0.770  15.591   3.749
39250W        W  539   0.313   4.399  13.048
39251W        W  540  39.475  11.200   0.407
39252W        W  541  28.118  32.085   2.706
39253W        W  542  13.739  31.448   4.794
39254W        W  543  16.209   0.309   4.803
39255W        W  544  16.168  19.672  14.329
39256W        W  545  30.932  39.335   0.319
39257W        W  546  14.175  42.488   4.771
39258W        W  547  43.303  18.110   0.256
39259W        W  548  12.632  16.690  13.982
39260W        W  549  20.702  25.117   3.260
39261W        W  550  15.665  13.718  13.317
39262W        W  551  35.890  39.481  11.117
39263W        W  552  25.530  31.607   1.331
39264W        W  553  22.210  38.420  13.891
39265W        W  554  25.582  34.566   1.447
39266W        W  555  39.550  38.418  14.357
39267W        W  556  18.216   7.314  13.869
39268W        W  557  15.723  36.557   2.771
39269W        W  558  24.598  28.529  13.979
39270W        W  559   0.411   8.248   3.155
39271W        W  560  37.539  11.864  14.920
39272W        W  561   9.157   8.302   1.744
39273W        W  562  15.309  44.932   0.947
39274W        W  563  21.207  26.137  14.334
39275W        W  564   5.356  24.575  13.887
39276W        W  565  22.218   4.772  11.891
39277W        W  566  26.678   1.766   2.285
39278W        W  567  44.801  29.062   1.775
39279W        W  568  28.935  17.614  13.010
39280W        W  569  21.644  17.694  11.552
39281W        W  570  32.100   3.896   0.765
39282W        W  571  10.353  11.787  12.452
39283W        W  572  23.157  42.781   4.143
39284W        W  573  32.612  23.985   1.718
39285W        W  574  35.855  19.750  13.435
39286W        W  575  18.106   0.362   1.734
39287W        W  576  39.408  13.745  13.858
39288W        W  577   5.802  42.385   3.275
39289W        W  578  26.612  30.128   2.845
39290W        W  579  30.610  30.495   1.441
39291W        W  580   4.398   4.216  14.806
39292W        W  581  11.254   1.257  14.433
39293W        W  582  35.935   6.875  14.021
39294W        W  583  25.594  14.683   2.734
39295W        W  584  26.093   0.256   2.237
39296W        W  585  36.092  33.026   1.387
39297W        W  586  28.971  15.157  13.987
39298W        W  587   4.923  36.532   3.291
39299W        W  588   3.373  22.177   0.359
39300W        W  589   6.413  38.016  12.972
39301W        W  590  40.920  44.301   0.434
39302W        W  591   1.899  12.330  12.456
39303W        W  592  19.759  38.524   0.451
39304W        W  593   7.687  42.491   0.255
39305W        W  594   4.838  39.447  11.571
39306W        W  595   0.788  35.409  13.469
39307W        W  596  14.281  26.508  14.833
39308W        W  597  33.497  38.554   1.743
39309W        W  598  44.472  30.160   4.808
39310W        W  599  28.152  37.386   9.981
39311W        W  600  38.858  19.190   9.993
39312W        W  601  26.630  28.437   0.467
39313W        W  602  41.458  35.994  13.931
39314W        W  603  32.933  34.025  12.571
39315W        W  604  44.857  12.752   4.345
39316W        W  605  41.369  29.615  13.862
39317W        W  606  43.977  29.643  13.980
39318W        W  607  27.586  17.786   2.798
39319W        W  608  37.462   5.421  12.436
39320W        W  609  20.096   9.286   4.816
39321W        W  610  30.114  19.077  14.961
39322W        W  611  37.369  42.302   4.820
39323W        W  612  16.577  42.321   3.302
39324W        W  613   3.332  36.036  10.579
39325W        W  614  25.667  25.656  10.006
39326W        W  615  14.790  40.425  14.441
39327W        W  616   2.905  24.704   4.202
39328W        W  617  17.674  23.056  13.500
39329W        W  618  23.514  20.172   2.280
39330W        W  619  41.505   4.748  14.848
39331W        W  620  15.786  25.500   0.363
39332W        W  621  41.861  25.132   0.855
39333W        W  622   6.277  18.591  13.415
39334W        W  623  23.609  25.580  12.570
39335W        W  624  16.569  21.659   2.783
39336W        W  625  16.585  39.912  12.080
39337W        W  626  29.506  34.588   4.234
39338W        W  627   7.787  42.375  10.434
39339W        W  628   1.306  40.328  12.921
39340W        W  629  41.312  19.078  10.474
39341W        W  630  11.842  24.700  13.414
39342W        W  631  40.433  22.097   2.777
39343W        W  632  10.280   2.900   1.223
39344W        W  633  35.367  17.070   4.293
39345W        W  634  17.770  12.846   4.210
39346W        W  635  14.094  19.253   9.958
39347W        W  636  34.915  12.723   2.214
39348W        W  637   6.334  22.518   5.735
39349W        W  638  25.498  31.924  10.417
39350W        W  639   3.385  15.781   4.714
39351W        W  640  34.400   3.375  14.451
39352W        W  641  36.364  17.185  11.932
39353W        W  642  32.407  33.544  13.416
39354W        W  643  30.556  10.747   0.905
39355W        W  644  37.998  44.993   1.216
39356W        W  645  22.996  16.210  13.002
39357W        W  646  26.162  34.048  11.408
39358W        W  647  31.043  17.137   0.454
39359W        W  648  23.194  36.525  14.984
39360W        W  649  20.265   7.793  11.878
39361W        W  650  31.521  11.738   0.884
39362W        W  651  10.807  12.779  14.962
39363W        W  652  11.724   6.413   2.734
39364W        W  653   9.305  16.162  10.488
39365W        W  654  14.695  26.488  10.480
39366W        W  655  35.080  33.012  11.074
39367W        W  656  43.291  10.300  10.970
39368W        W  657  38.844   5.343   3.307
39369W        W  658  16.747  38.947   5.139
39370W        W  659  35.878  11.866  13.328
39371W        W  660  12.189   2.946   0.773
39372W        W  661   0.454  33.435  11.488
39373W        W  662  36.969   2.899   0.771
39374W        W  663  17.782  11.257  11.574
39375W        W  664  16.074   9.361   1.445
39376W        W  665  23.548  23.021  12.983
39377W        W  666   0.910  33.619   2.849
39378W        W  667  44.956  16.611   1.226
39379W        W  668  26.681   6.390  13.522
39380W        W  669  19.100  15.664   2.297
39381W        W  670   1.785  32.079  11.405
39382W        W  671  18.151  42.004   0.365
39383W        W  672  33.547  44.892  12.357
39384W        W  673  28.610  34.603   0.868
39385W        W  674   3.382  27.088   0.777
39386W        W  675  33.950  40.007  11.099
39387W        W  676  29.455   9.661   9.934
39388W        W  677  29.542   0.391  14.501
39389W        W  678  34.927  17.070  12.403
39390W        W  679  30.451  37.935  14.976
39391W        W  680  16.645  31.551   0.453
39392W        W  681  10.198  43.323  12.901
39393W        W  682   9.381   3.443   3.743
39394W        W  683   4.822   7.668   4.694
39395W        W  684  36.891  11.294   3.249
39396W        W  685  33.946   7.786   4.761
39397W        W  686  20.210  13.833  12.990
39398W        W  687  27.047  30.558  13.967
39399W        W  688  44.325  36.024  13.973
39400W        W  689  31.057  23.031   4.677
39401W        W  690  11.368  12.335   2.818
39402W        W  691  23.103  32.541   2.322
39403W        W  692   4.255  31.498   2.268
39404W        W  693  21.261  36.548   2.691
39405W        W  694  25.972  31.152  13.316
39406W        W  695  23.106  23.128   0.865
39407W        W  696  11.131  37.544  11.448
39408W        W  697  31.584  11.162   0.955
39409W        W  698  15.320  18.100  10.088
39410W        W  699  42.428  29.509   4.318
39411W        W  700  35.585  19.745  11.478
39412W        W  701  38.958  22.016  14.437
39413W        W  702  20.078   5.420   0.965
39414W        W  703  14.800  18.729  12.854
39415W        W  704  20.693  13.632  11.870
39416W        W  705  14.690  38.868   0.389
39417W        W  706  18.701  40.509   3.177
39418W        W  707  41.516   5.764   3.858
39419W        W  708  42.898   9.369  11.600
39420W        W  709  35.566  17.161  10.471
39421W        W  710  24.125  30.524   0.733
39422W        W  711  18.124  16.705   0.347
39423W        W  712  44.931  41.405   1.716
39424W        W  713  24.656  22.033  13.798
39425W        W  714   9.813  32.632  11.891
39426W        W  715  43.479  34.077  13.912
39427W        W  716  26.102  38.552   0.862
39428W        W  717  16.721  23.541  12.412
39429W        W  718   6.183   1.298   9.957
39430W        W  719  32.491   6.375   4.223
39431W        W  720   7.183  44.892   2.709
39432W        W  721  35.501  30.095   4.760
39433W        W  722  25.501  41.375  11.917
39434W        W  723  24.023  24.031   1.434
39435W        W  724  10.758  33.462  13.313
39436W        W  725  35.069  12.203  13.437
39437W        W  726  34.587   1.802  10.613
39438W        W  727   9.838  26.484   3.330
39439W        W  728  27.060  43.447   4.835
39440W        W  729  32.486  13.608   4.802
39441W        W  730   3.937   7.742   3.321
39442W        W  731  44.277  24.565  13.809
39443W        W  732  43.426  35.909   0.321
39444W        W  733  36.546  10.252   3.167
39445W        W  734  16.791  36.903  11.372
39446W        W  735   2.958   6.887  13.870
39447W        W  736  25.523  29.119   1.849
39448W        W  737  35.598  44.271  12.853
39449W        W  738  16.596  37.989   2.220
39450W        W  739   6.307  17.251  12.036
39451W        W  740  31.502  10.796   0.352
39452W        W  741  37.577  18.258  11.512
39453W        W  742  19.640   6.745   1.745
39454W        W  743  19.583   0.850   4.244
39455W        W  744  12.801   0.478   0.281
39456W        W  745  41.335  30.511  14.905
39457W        W  746  37.509   2.343  13.963
39458W        W  747  40.999   2.247   1.433
39459W        W  748  14.235  43.824  12.555
39460W        W  749   6.207   7.742  11.520
39461W        W  750   6.426  25.522  13.972
39462W        W  751  28.653  39.996   2.764
39463W        W  752  27.058   0.872  14.478
39464W        W  753  38.344  29.469   1.329
39465W        W  754  43.296   7.832   4.255
39466W        W  755   5.712  43.010  12.382
39467W        W  756  43.895  14.710   1.924
39468W        W  757   3.747  35.370   1.270
39469W        W  758  40.849  41.866  12.885
39470W        W  759  29.613  34.571   3.666
39471W        W  760  41.533  21.647   2.255
39472W        W  761  14.286  14.154  10.519
39473W        W  762   3.435  16.628   1.367
39474W        W  763  25.010  14.813   2.781
39475W        W  764  41.880   4.901   2.811
39476W        W  765  39.559  24.482   2.885
39477W        W  766  18.755   5.851   0.438
39478W        W  767  27.141  12.182  14.408
39479W        W  768   0.857   4.379   4.648
39480W        W  769   4.352   1.860   4.720
39481W        W  770  32.566   5.379   3.835
39482W        W  771  21.543   9.316   2.245
39483W        W  772  22.189  12.227   0.878
39484W        W  773   5.349  35.964  14.379
39485W        W  774   8.734   2.402  14.884
39486W        W  775  38.365   4.320   1.280
39487W        W  776   0.357  44.302   0.732
39488W        W  777  26.600   4.432  12.902
39489W        W  778  33.120  31.637   3.836
39490W        W  779  37.514  36.549   3.754
39491W        W  780   6.819  24.606   1.759
39492W        W  781   0.373  41.903  12.467
39493W        W  782   8.871  19.243   0.248
39494W        W  783   9.155  40.908   2.273
39495W        W  784  29.164  30.068   2.232
39496W        W  785  35.090  10.263  14.295
39497W        W  786  38.940  39.395   1.365
39498W        W  787  37.043  20.272   3.793
39499W        W  788   1.965  14.175  10.643
39500W        W  789  18.775  11.671   0.883
39501W        W  790  35.429  35.497  13.881
39502W        W  791  22.067   7.907  13.396
39503W        W  792  21.226  44.780  14.896
39504W        W  793  39.942  19.714   1.237
39505W        W  794   9.863   5.723  14.414
39506W        W  795   5.713  20.536  10.636
39507W        W  796  19.561  20.749  11.889
39508W        W  797  37.540   9.671  12.547
39509W        W  798  27.078  27.487   0.819
39510W        W  799   7.856  12.286  12.436
39511W        W  800  37.400  37.077   2.792
39512W        W  801   6.237  26.581   1.430
39513W        W  802   5.205  11.169  13.799
39514W        W  803   0.967  34.443   4.670
39515W        W  804  35.359  38.833   0.729
39516W        W  805  22.212  37.408  11.450
39517W        W  806   1.301  35.864  11.124
39518W        W  807  43.861  33.895  14.924
39519W        W  808  24.025  17.777   4.774
39520W        W  809  33.393  43.296  14.843
39521W        W  810  43.423  15.819  12.382
39522W        W  811  38.482  21.116   2.192
39523W        W  812  44.893   6.860   1.800
39524W        W  813   2.818   4.206   0.962
39525W        W  814  18.762  34.568   1.774
39526W        W  815   4.842  26.532  11.551
39527W        W  816  17.783  35.992   3.177
39528W        W  817  33.503  18.592   5.121
39529W        W  818   7.811   3.822  11.487
39530W        W  819  18.154  17.589  12.467
39531W        W  820   6.686  36.908  14.808
39532W        W  821   3.729  20.172   0.905
39533W        W  822  15.191  22.590   4.606
39534W        W  823  42.821   0.478  12.568
39535W        W  824  34.491   0.328  11.893
39536W        W  825   9.162  42.024   2.189
39537W        W  826  27.114  11.172   1.851
39538W        W  827  16.578  27.165   4.260
39539W        W  828  31.097  38.044  12.456
39540W        W  829   5.195  11.349  12.830
39541W        W  830  25.088  29.058   4.143
39542W        W  831  11.689  26.034  13.938
39543W        W  832  38.836  36.869   4.726
39544W        W  833  12.274  25.602   1.423
39545W        W  834   4.837  17.198  11.487
39546W        W  835  30.452  32.570  12.360
39547W        W  836   9.651  25.066  11.081
39548W        W  837   1.878  10.249   1.791
39549W        W  838   4.873  44.801  10.518
39550W        W  839  20.645  44.936   0.343
39551W        W  840  41.319  37.895  12.950
39552W        W  841   9.644  30.079   0.249
39553W        W  842  19.228  25.048   3.192
39554W        W  843   1.474  27.022  11.422
39555W        W  844   6.808  25.661   1.710
39556W        W  845  39.413  34.511   4.626
39557W        W  846   3.940  40.502  13.006
39558W        W  847  44.998  40.398   2.800
39559W        W  848  20.035   2.413  13.012
39560W        W  849  22.134   6.714  11.570
39561W        W  850  44.303  22.696   2.272
39562W        W  851  33.954  23.224   0.792
39563W        W  852   3.224  10.154   0.901
39564W        W  853  18.613   5.278  14.783
39565W        W  854   6.780  22.108   4.307
39566W        W  855   7.388  38.974  12.503
39567W        W  856  37.908  40.009  12.510
39568W        W  857  22.632  29.582   4.237
39569W        W  858  19.209  27.140  13.539
39570W        W  859  22.601  36.036   4.178
39571W        W  860  24.226  44.376   5.205
39572W        W  861  40.871  33.000   0.921
39573W        W  862  12.731  18.070   2.302
39574W        W  863  31.140  26.991  12.886
39575W        W  864  15.118   9.780  10.949
39576W        W  865  28.570  22.558  11.555
39577W        W  866  24.593   9.162  12.900
39578W        W  867  27.105  33.881   3.292
39579W        W  868   1.239  39.373   2.876
39580W        W  869  17.615   3.746   3.707
39581W        W  870  32.479  21.161  11.407
39582W        W  871  40.544  25.101   4.307
39583W        W  872  29.432  11.187   0.947
39584W        W  873  33.109  36.541   4.347
39585W        W  874  29.988  32.140  12.038
39586W        W  875  28.482   1.439   4.232
39587W        W  876  21.143  32.514  10.442
39588W        W  877  42.352  24.653   2.311
39589W        W  878  40.824  22.626  10.561
39590W        W  879   4.900  15.197   1.224
39591W        W  880  32.976  27.667  13.792
39592W        W  881  32.085  25.690   0.863
39593W        W  882  39.964  21.672  13.895
39594W        W  883  22.033  19.170   3.161
39595W        W  884  39.878  10.353  14.842
39596W        W  885  42.898   4.314  13.397
39597W        W  886  32.050   5.769   1.294
39598W        W  887   0.471  38.848  14.494
39599W        W  888   5.904  19.543   4.769
39600W        W  889  28.001  24.027   3.157
39601W        W  890  30.415  28.161   3.223
39602W        W  891  15.293   2.244  12.549
39603W        W  892  44.963  34.520   3.645
39604W        W  893   3.360  35.927   2.832
39605W        W  894  10.323  44.847   2.759
39606W        W  895  17.749  33.882   4.685
39607W        W  896   9.224  41.988  12.402
39608W        W  897  22.176  42.956  13.326
39609W        W  898  22.105  11.752  14.313
39610W        W  899  44.864  20.592  12.379
39611W        W  900  39.816  32.050   4.604
39612W        W  901  29.569  19.237  14.014
39613W        W  902  41.963  33.880   3.800
39614W        W  903  20.078  42.498   0.727
39615W        W  904  23.560  44.753  11.113
39616W        W  905  17.623  16.144   3.802
39617W        W  906  29.452   4.401   0.903
39618W        W  907   2.382  12.250   3.658
39619W        W  908  40.435   0.975  10.597
39620W        W  909  20.061   6.368   4.161
39621W        W  910  32.091  32.057   5.156
39622W        W  911  19.574   4.858   2.746
39623W        W  912  18.115  14.791  13.911
39624W        W  913   0.419  44.795   3.770
39625W        W  914  35.500  40.311   1.734
39626W        W  915  32.491  37.037  12.823
39627W        W  916   8.210  30.136   2.261
39628W        W  917  19.753  26.464   0.439
39629W        W  918  33.886  23.185   2.378
39630W        W  919   1.823  25.550  14.444
39631W        W  920   0.445  16.189   4.803
39632W        W  921  33.453  44.311  13.830
39633W        W  922   1.391  43.307  10.558
39634W        W  923  25.537  24.724  12.421
39635W        W  924   4.276  19.764   3.682
39636W        W  925  30.962  35.077  10.553
39637W        W  926  27.109  44.776   4.729
39638W        W  927  21.215   5.404  12.019
39639W        W  928  25.106   4.855  14.390
39640W        W  929  12.148  24.721  14.441
39641W        W  930   6.891  27.150  13.961
39642W        W  931  19.228   5.837   1.377
39643W        W  932  34.489   3.824   2.822
39644W        W  933  11.724   4.296  10.111
39645W        W  934   6.847  26.675  12.450
39646W        W  935  23.116  26.601  11.095
39647W        W  936  23.034   9.227  12.876
39648W        W  937  21.643  18.224   1.868
39649W        W  938  43.986  12.178  13.895
39650W        W  939  16.081  42.286   2.268
39651W        W  940  44.799  17.614   1.797
39652W        W  941   2.357  11.660  13.894
39653W        W  942  42.395   2.884   3.188
39654W        W  943  19.544  17.100   0.834
39655W        W  944  36.899  21.219   4.258
39656W        W  945  14.183  12.282  14.767
39657W        W  946  20.268   9.757  10.981
39658W        W  947  10.765  17.764  10.569
39659W        W  948  43.504  36.849  13.852
39660W        W  949  28.000  43.924  10.461
39661W        W  950   4.392  34.394   2.884
39662W        W  951  29.154  10.854   4.207
39663W        W  952  41.464  32.508  12.029
39664W        W  953  20.753  29.483   0.322
39665W        W  954  43.985  19.766   1.282
39666W        W  955  44.961  15.760  12.380
39667W        W  956  10.718  26.479   2.876
39668W        W  957  34.979  34.000   4.116
39669W        W  958   8.166   2.876   2.382
39670W        W  959   4.448  36.934  13.509
39671W        W  960  19.642  14.606   0.277
39672W        W  961  22.167  24.026   1.794
39673W        W  962   5.366  10.243   4.279
39674W        W  963  13.145  15.656  13.370
39675W        W  964  44.840  17.184  11.592
39676W        W  965  30.652  29.453   3.333
39677W        W  966  19.645   0.889   2.871
39678W        W  967  34.485  13.118  14.020
39679W        W  968  31.910  28.661   4.701
39680W        W  969  28.599  16.713  12.074
39681W        W  970   0.937   2.319   4.166
39682W        W  971  28.045  10.670   1.804
39683W        W  972  12.855  41.351   3.173
39684W        W  973  20.241  25.472   4.655
39685W        W  974   7.287  13.335  11.566
39686W        W  975  18.729   3.896  14.861
39687W        W  976  29.545  28.526   2.826
39688W        W  977  24.703  42.791   3.719
39689W        W  978  39.516   5.198   4.291
39690W        W  979  25.704  31.459  11.385
39691W        W  980  30.106   5.865  11.593
39692W        W  981  25.499   8.253   4.796
39693W        W  982  14.301  31.573   2.182
39694W        W  983   8.832  29.995  12.037
39695W        W  984  28.044  13.735  13.833
39696W        W  985  14.233  17.622   0.804
39697W        W  986  12.303  26.680   3.822
39698W        W  987  20.522  39.038  10.463
39699W        W  988  35.880  40.948   0.368
39700W        W  989   9.843   9.702  12.990
39701W        W  990  14.208  39.008  14.775
39702W        W  991  24.111  38.952   3.148
39703W        W  992  27.124  11.803  10.590
39704W        W  993   9.760  21.063   0.771
39705W        W  994  12.853  16.783  10.428
39706W        W  995  13.267  32.609   9.930
39707W        W  996  41.475  33.927  12.094
39708W        W  997  20.586   4.364  14.281
39709W        W  998  32.050   5.354   1.854
39710W        W  999   8.885  40.329   4.682
39711W        W 1000  35.378  44.472   1.741
39712W        W 1001  43.947  35.912   3.147
39713W        W 1002  44.775   5.408   4.738
39714W        W 1003  13.191  44.359  14.798
39715W        W 1004  42.862  19.555   4.178
39716W        W 1005  34.051   1.409  12.037
39717W        W 1006  34.117  27.645   3.311
39718W        W 1007  20.272  37.889   0.932
39719W        W 1008  24.209  32.985  12.977
39720W        W 1009  28.053  36.528   1.796
39721W        W 1010  18.580   7.363  13.495
39722W        W 1011  10.796  30.487  13.317
39723W        W 1012  25.552  24.612   9.922
39724W        W 1013  15.602  31.072  10.028
39725W        W 1014  29.575  37.013  14.383
39726W        W 1015  36.589   4.277   1.801
39727W        W 1016  44.273   5.903  10.530
39728W        W 1017  41.953  39.503   2.807
39729W        W 1018  39.817   4.258   4.670
39730W        W 1019   4.443  12.652   2.825
39731W        W 1020   2.467   3.908   1.771
39732W        W 1021  33.000  44.416   4.168
39733W        W 1022   4.904  42.394   4.745
39734W        W 1023  12.286  34.870  10.904
39735W        W 1024  29.959  11.308  10.914
39736W        W 1025  35.869  32.080  11.955
39737W        W 1026  41.848  19.577   4.641
39738W        W 1027   2.833  12.282   2.259
39739W        W 1028  12.754  42.947   1.223
39740W        W 1029  10.144  22.022  12.060
39741W        W 1030  14.674  40.432   4.130
39742W        W 1031  28.021  42.503  12.508
39743W        W 1032   6.236  33.048   0.747
39744W        W 1033   2.276  35.472  14.916
39745W        W 1034   1.422  35.097  14.403
39746W        W 1035  41.860  37.877  12.537
39747W        W 1036  29.132  31.430   1.862
39748W        W 1037  13.818  25.505   0.782
39749W        W 1038   7.874   0.842  10.481
39750W        W 1039  37.387   3.783  11.858
39751W        W 1040  27.499  15.126   2.283
39752W        W 1041  35.947  11.808   0.398
39753W        W 1042  12.303  36.573   0.350
39754W        W 1043  20.537   0.789   1.290
39755W        W 1044   5.849  12.822   1.783
39756W        W 1045  25.969  14.307  11.569
39757W        W 1046  41.018   9.340   3.301
39758W        W 1047  17.582  42.300  11.911
39759W        W 1048   9.260  32.615  14.474
39760W        W 1049  13.719   3.838  14.898
39761W        W 1050  15.196  17.213  10.998
39762W        W 1051  21.560  14.834   1.903
39763W        W 1052  29.500   3.830  11.425
39764W        W 1053  12.717  32.102  12.989
39765W        W 1054  42.292  33.451  13.362
39766W        W 1055  17.796   5.688  13.424
39767W        W 1056  20.259  31.439  13.046
39768W        W 1057  29.545  37.928   3.210
39769W        W 1058  29.132  35.083   2.699
39770W        W 1059   8.696  37.955   4.302
39771W        W 1060  26.476  19.551  10.007
39772W        W 1061   9.225   8.182   4.170
39773W        W 1062  11.230  40.525  13.499
39774W        W 1063  18.587   6.863  13.009
39775W        W 1064  31.603  31.142   0.474
39776W        W 1065  26.982  42.375   2.680
39777W        W 1066  34.518   4.736  14.492
39778W        W 1067  24.011   5.876   4.759
39779W        W 1068  39.836  34.591   1.710
39780W        W 1069   1.972   6.702  12.863
39781W        W 1070  41.335   8.289  11.900
39782W        W 1071  25.575  32.077   0.411
39783W        W 1072  15.150  20.746   4.830
39784W        W 1073  14.340  23.650   1.783
39785W        W 1074  24.056  38.820  10.575
39786W        W 1075  13.603  42.454  13.924
39787W        W 1076   2.866   2.300  14.946
39788W        W 1077  32.922  27.158  10.410
39789W        W 1078   7.895  38.539   2.364
39790W        W 1079  28.008  41.929  14.470
39791W        W 1080  28.055   3.278   3.189
39792W        W 1081   6.721  38.479   0.770
39793W        W 1082  10.314  18.174  12.091
39794W        W 1083   5.932  37.562   1.374
39795W        W 1084  40.817  32.476  14.365
39796W        W 1085  28.955   1.935  11.585
39797W        W 1086  24.659  19.730   1.214
39798W        W 1087  30.475  13.349  14.444
39799W        W 1088  37.854  35.447  12.424
39800W        W 1089  26.974  12.677   4.598
39801W        W 1090  23.669  42.953   0.484
39802W        W 1091   3.750  19.618   0.742
39803W        W 1092   4.838  22.563   2.259
39804W        W 1093  27.982   6.846   1.763
39805W        W 1094  17.656  34.929   0.284
39806W        W 1095  27.596  35.453   1.786
39807W        W 1096  30.531  40.895  11.551
39808W        W 1097  23.230  32.540  12.436
39809W        W 1098  27.667  23.094   2.355
39810W        W 1099  44.937  27.076  10.445
39811W        W 1100  42.921  41.430   4.756
39812W        W 1101  11.844  12.652   9.951
39813W        W 1102  38.909  15.201   3.166
39814W        W 1103  22.583  26.606  11.880
39815W        W 1104  39.976  19.221   0.917
39816W        W 1105  36.917  26.165   2.334
39817W        W 1106  29.607  13.178   2.300
39818W        W 1107  33.579  17.179   4.793
39819W        W 1108   2.891  37.009   2.354
39820W        W 1109  15.214   3.818  13.358
39821W        W 1110  36.486   4.732   9.942
39822W        W 1111   5.281  22.176  13.795
39823W        W 1112  38.938  30.527  10.536
39824W        W 1113   6.332  14.163  13.870
39825W        W 1114  44.759  42.443   1.787
39826W        W 1115  31.589  17.159   0.345
39827W        W 1116  29.063  20.743   4.773
39828W        W 1117  41.308  19.696  14.805
39829W        W 1118   5.868   9.183   3.663
39830W        W 1119  32.062  29.010   1.376
39831W        W 1120  10.738  24.091  13.856
39832W        W 1121  35.498  13.294  12.002
39833W        W 1122  27.547  16.746   2.900
39834W        W 1123   7.314  36.401  11.422
39835W        W 1124   2.809  34.079  10.965
39836W        W 1125  44.353   6.345  11.441
39837W        W 1126  27.613  22.674   4.678
39838W        W 1127   8.869  36.897  13.029
39839W        W 1128  20.733   4.297  13.436
39840W        W 1129  18.675  17.684  12.023
39841W        W 1130   6.248  37.337   2.281
39842W        W 1131  29.174  14.151   3.192
39843W        W 1132  12.749  31.456   0.349
39844W        W 1133  28.446  39.887   0.448
39845W        W 1134   9.301  19.112   1.805
39846W        W 1135  11.830  19.158  14.897
39847W        W 1136   6.232  36.415  14.933
39848W        W 1137  13.693  25.584  10.508
39849W        W 1138   4.806  16.147  12.891
39850W        W 1139  44.935  22.741   4.113
39851W        W 1140  16.701   7.705  10.575
39852W        W 1141  31.000   4.275   1.334
39853W        W 1142  43.474   2.736   2.390
39854W        W 1143   1.252   6.718  14.303
39855W        W 1144   1.940   3.766  10.423
39856W        W 1145  14.676  18.134  11.911
39857W        W 1146  13.270   0.379   3.253
39858W        W 1147  28.069  39.822  12.930
39859W        W 1148  40.321   4.916   4.330
39860W        W 1149  33.981  19.733   4.213
39861W        W 1150  40.349   2.291   2.815
39862W        W 1151   7.862  18.083  10.098
39863W        W 1152  14.731  44.300  13.812
39864W        W 1153  19.544  36.374   1.798
39865W        W 1154  18.277  37.337  12.939
39866W        W 1155  34.976  19.723   1.371
39867W        W 1156  24.982  35.948   1.895
39868W        W 1157   8.379  21.085   2.817
39869W        W 1158  10.332   6.899  11.090
39870W        W 1159  32.588  28.590  13.471
39871W        W 1160  40.007   9.766   2.254
39872W        W 1161  24.224  34.607   2.348
39873W        W 1162  40.391  15.131  14.372
39874W        W 1163   6.346  10.380   4.666
39875W        W 1164  33.560  14.658  14.289
39876W        W 1165  16.126  41.970   9.995
39877W        W 1166  44.943  34.924  10.459
39878W        W 1167  42.451  10.727  14.894
39879W        W 1168   7.246  31.512  10.501
39880W        W 1169   6.281  19.626  13.412
39881W        W 1170  15.578  16.308  12.360
39882W        W 1171  36.363  11.813   1.255
39883W        W 1172  20.071   7.171   3.226
39884W        W 1173  38.401  15.672   5.119
39885W        W 1174  42.318   4.944   2.293
39886W        W 1175  34.410  17.219   1.232
39887W        W 1176   3.888  11.336   4.251
39888W        W 1177  13.337  39.364  13.893
39889W        W 1178  40.877  18.699   2.718
39890W        W 1179   4.797  34.991  13.870
39891W        W 1180  30.484   6.745  14.808
39892W        W 1181  21.608   9.325  13.939
39893W        W 1182   5.397  22.068  13.339
39894W        W 1183  38.413  33.519  14.819
39895W        W 1184  38.547  34.886  13.505
39896W        W 1185  43.930   4.870   3.161
39897W        W 1186  40.976  37.024   4.152
39898W        W 1187  33.018  19.078  11.548
39899W        W 1188  22.581  43.865   1.911
39900W        W 1189  17.075  44.416   3.228
39901W        W 1190  43.292  21.568   0.962
39902W        W 1191  38.489   4.326   3.847
39903W        W 1192   4.767   5.261  12.928
39904W        W 1193  28.543  19.040  12.011
39905W        W 1194  23.623  18.728   1.231
39906W        W 1195  34.504  10.730   3.340
39907W        W 1196  15.145  33.006   3.649
39908W        W 1197   7.854  39.375  11.497
39909W        W 1198  29.048   8.760   2.675
39910W        W 1199  18.229  32.411  10.445
39911W        W 1200  27.961  31.029   4.256
39912W        W 1201  19.259  27.657  11.056
39913W        W 1202  22.127  38.518   0.825
39914W        W 1203  29.172  20.038   4.789
39915W        W 1204  41.799  28.105  12.896
39916W        W 1205  11.134  40.888   4.309
39917W        W 1206  29.489  34.066  10.902
39918W        W 1207  39.846  43.346   4.672
39919W        W 1208  22.167  37.856   4.262
39920W        W 1209  37.918  32.509  11.427
39921W        W 1210  12.330  38.036   0.928
39922W        W 1211  11.260   7.395   1.237
39923W        W 1212  15.599   4.914   4.745
39924W        W 1213  20.747   5.295  13.499
39925W        W 1214   7.179  17.137   4.782
39926W        W 1215  15.290  21.538   3.864
39927W        W 1216  28.634  12.164   1.420
39928W        W 1217   2.736  41.924   0.894
39929W        W 1218  36.869  25.199   4.725
39930W        W 1219  39.891  11.252  11.518
39931W        W 1220  12.298  25.069  14.451
39932W        W 1221   0.856   1.291  12.419
39933W        W 1222   7.348  22.137  12.544
39934W        W 1223  37.976  29.001  10.403
39935W        W 1224  26.128  17.557  14.501
39936W        W 1225   8.282  28.506   4.213
39937W        W 1226  25.099  32.015  13.869
39938W        W 1227  26.075  13.721  11.985
39939W        W 1228   6.766  22.171   0.382
39940W        W 1229   2.836  26.116   0.406
39941W        W 1230  26.141   1.946  11.445
39942W        W 1231  27.639  42.784   3.845
39943W        W 1232   0.986  41.024   0.344
39944W        W 1233  31.140   1.974   1.214
39945W        W 1234  12.755  43.895   4.632
39946W        W 1235  44.282   7.691  12.517
39947W        W 1236  13.303  42.003   3.657
39948W        W 1237  26.483  42.981  12.033
39949W        W 1238  17.113  10.806   1.708
39950W        W 1239  44.994  32.543   1.292
39951W        W 1240   6.308  38.865   2.757
39952W        W 1241  24.487  16.134  13.971
39953W        W 1242  20.045  12.776   4.267
39954W        W 1243  39.368  27.033  12.096
39955W        W 1244  26.507  34.391  12.898
39956W        W 1245  38.998  39.006   3.286
39957W        W 1246  12.661  10.722  11.098
39958W        W 1247  12.782   2.454  13.320
39959W        W 1248  36.493  41.382  11.588
39960W        W 1249  34.520  24.668  11.109
39961W        W 1250  18.744  25.666   4.334
39962W        W 1251   1.267  35.399  11.961
39963W        W 1252   1.734  25.988  14.990
39964W        W 1253  42.521  35.571  14.773
39965W        W 1254   0.870   9.651   1.884
39966W        W 1255  33.875  38.342   2.748
39967W        W 1256   0.948   2.803  14.963
39968W        W 1257   7.803   2.811   1.776
39969W        W 1258   2.443  16.216   3.807
39970W        W 1259  26.584  22.612  14.832
39971W        W 1260  18.277  25.587  10.457
39972W        W 1261  40.914  10.697   0.944
39973W        W 1262  44.785  12.279   2.218
39974W        W 1263  36.369  35.086   1.730
39975W        W 1264   0.822  38.982  14.918
39976W        W 1265  29.057  20.601  10.895
39977W        W 1266  35.963   6.320  10.932
39978W        W 1267  14.114  10.245   0.446
39979W        W 1268   4.282  40.343  11.371
39980W        W 1269   1.786  36.380   4.124
39981W        W 1270  38.401  26.600   1.867
39982W        W 1271  28.461   7.854   0.834
39983W        W 1272   3.859   1.287  12.518
39984W        W 1273   1.286  23.635   1.250
39985W        W 1274  27.669  36.351   4.225
39986W        W 1275  23.174  23.168  14.997
39987W        W 1276  31.497  23.218  14.861
39988W        W 1277  22.009  23.661  12.447
39989W        W 1278  39.895  25.166   4.351
39990W        W 1279  17.721  36.476  12.826
39991W        W 1280  31.640  18.270  13.902
39992W        W 1281   9.268  10.260  10.018
39993W        W 1282  36.009  13.122   0.912
39994W        W 1283  14.199  17.281  11.973
39995W        W 1284  11.228   3.783   0.251
39996W        W 1285  13.732  30.070  11.962
39997W        W 1286  31.957  38.355   0.358
39998W        W 1287  28.164  35.601  11.044
39999W        W 1288  33.420  41.872   1.230
40000W        W 1289  16.601  39.000   2.304
40001W        W 1290   1.811  28.002  11.384
40002W        W 1291  41.883  13.115   0.867
40003W        W 1292  13.625  15.128   2.700
40004W        W 1293  22.689  28.488  13.421
40005W        W 1294  22.663  18.164   0.745
40006W        W 1295  34.034  24.564  12.879
40007W        W 1296  22.142  16.612  11.530
40008W        W 1297  28.052   8.861   2.348
40009W        W 1298   6.827   3.801   3.299
40010W        W 1299  19.264  33.894   1.295
40011W        W 1300  43.273   9.862  11.011
40012W        W 1301  27.099  26.140   3.781
40013W        W 1302  39.363   2.254  11.518
40014W        W 1303  14.834  21.165   0.912
40015W        W 1304  24.669  26.983  13.425
40016W        W 1305   5.220  23.179  13.042
40017W        W 1306  14.628   6.189  11.553
40018W        W 1307  32.567  26.959   0.900
40019W        W 1308   1.304  19.587   2.731
40020W        W 1309   5.788  14.604  14.906
40021W        W 1310  27.576  29.579  14.891
40022W        W 1311  36.008  10.356  10.493
40023W        W 1312  40.340   3.859   3.237
40024W        W 1313  25.156  41.324  11.987
40025W        W 1314  30.471  32.085   0.474
40026W        W 1315   7.406  13.225  14.874
40027W        W 1316   6.186  43.317  10.534
40028W        W 1317   4.795  29.080  11.975
40029W        W 1318  17.709  33.428   0.856
40030W        W 1319  13.318  29.996   0.317
40031W        W 1320  12.741  23.514   0.425
40032W        W 1321   2.230  38.024   3.215
40033W        W 1322   9.848  19.624   0.745
40034W        W 1323  22.065  33.964  14.008
40035W        W 1324  14.760  28.067  12.577
40036W        W 1325  19.743  29.101   2.243
40037W        W 1326  13.628  35.077   2.759
40038W        W 1327   8.169  39.941  11.907
40039W        W 1328  29.080  31.530   2.813
40040W        W 1329  29.076   9.782   9.966
40041W        W 1330  18.691  31.042  12.365
40042W        W 1331  40.842  38.447   0.813
40043W        W 1332  18.747  24.142   4.636
40044W        W 1333  19.617  18.774  11.393
40045W        W 1334  26.681  21.180  11.995
40046W        W 1335  34.106  42.919   5.251
40047W        W 1336  42.857   2.351   2.357
40048W        W 1337   3.256  32.143   5.147
40049W        W 1338   0.277  19.577   2.403
40050W        W 1339  33.412  21.648   4.796
40051W        W 1340  33.001  43.984   1.904
40052W        W 1341  23.082   8.254  10.617
40053W        W 1342   0.827   9.296  14.880
40054W        W 1343  34.037  44.262   0.480
40055W        W 1344  17.272   5.689  13.943
40056W        W 1345  10.743   3.918  12.837
40057W        W 1346   5.887  34.443  14.325
40058W        W 1347  13.760   2.892  13.507
40059W        W 1348   1.366  12.341  13.798
40060W        W 1349   2.291  15.750  10.137
40061W        W 1350  37.429  10.281  14.800
40062W        W 1351  16.619  10.821  14.814
40063W        W 1352  31.026  41.787   2.260
40064W        W 1353  34.963  41.843   1.242
40065W        W 1354  34.971  26.461  12.460
40066W        W 1355  42.473  18.122   4.280
40067W        W 1356  36.946  21.094   5.115
40068W        W 1357  16.208   5.414   2.664
40069W        W 1358   3.912   8.185   3.672
40070W        W 1359  32.460  40.921  10.528
40071W        W 1360  39.062  41.500   4.709
40072W        W 1361  11.807  13.742  12.345
40073W        W 1362   1.792  32.525   0.787
40074W        W 1363  11.242   5.890   2.349
40075W        W 1364  20.181  37.924  11.491
40076W        W 1365  43.296  18.790  14.279
40077W        W 1366  35.565   9.153   3.265
40078W        W 1367  34.914   5.231  14.403
40079W        W 1368  35.027  31.104   4.652
40080W        W 1369  31.010  43.932   2.669
40081W        W 1370  32.073  33.518  11.090
40082W        W 1371  32.538  20.099   4.686
40083W        W 1372  42.976  27.055  13.460
40084W        W 1373  15.823  20.668   3.760
40085W        W 1374  28.526  21.026  11.094
40086W        W 1375  35.436  34.500  14.442
40087W        W 1376  15.279  28.021  12.063
40088W        W 1377  38.973   1.901  13.443
40089W        W 1378   2.753  19.726   3.225
40090W        W 1379  34.084  18.602   2.406
40091W        W 1380  38.534   4.899   4.152
40092W        W 1381  15.152  17.795   4.132
40093W        W 1382  23.667  28.576  11.958
40094W        W 1383  20.734  10.159  10.470
40095W        W 1384  35.465   9.159   3.674
40096W        W 1385  29.995  28.050  12.479
40097W        W 1386  22.088  41.398   2.233
40098W        W 1387  21.717  18.597  14.777
40099W        W 1388  18.714  18.603  14.889
40100W        W 1389  13.210  37.390  11.479
40101W        W 1390  13.158  34.460  10.988
40102W        W 1391  21.757  26.147  13.909
40103W        W 1392  26.139  41.932   2.796
40104W        W 1393  25.621  23.003   0.745
40105W        W 1394  18.154  27.536  12.076
40106W        W 1395  10.736   2.900  12.906
40107W        W 1396  17.786  41.984  11.880
40108W        W 1397  17.282  29.608   5.221
40109W        W 1398  13.620  42.853   4.711
40110W        W 1399  35.501  30.418   4.158
40111W        W 1400  18.726  26.551   4.179
40112W        W 1401  18.649  42.817   1.846
40113W        W 1402  17.166  33.449  11.436
40114W        W 1403  15.727  41.390  11.017
40115W        W 1404  29.658   3.268   0.928
40116W        W 1405  14.297  35.069  11.021
40117W        W 1406   8.397  21.127   0.460
40118W        W 1407  39.819  20.253  10.412
40119W        W 1408   3.828  25.976   1.262
40120W        W 1409  41.890  28.556  12.578
40121W        W 1410   3.270  10.153  12.962
40122W        W 1411  27.475   2.860  13.926
40123W        W 1412  36.391  13.839  10.541
40124W        W 1413  29.956  37.482  12.824
40125W        W 1414  33.121   8.222  13.054
40126W        W 1415  26.480   4.359   3.779
40127W        W 1416   4.438   7.307  11.585
40128W        W 1417  24.057   8.297  10.146
40129W        W 1418  12.147  12.243  11.855
40130W        W 1419  24.172   0.385   0.314
40131W        W 1420  39.047  25.142  14.418
40132W        W 1421  11.755  33.454  12.090
40133W        W 1422  11.162  24.118  14.463
40134W        W 1423   3.936   6.253   4.204
40135W        W 1424  12.245  14.688   4.786
40136W        W 1425  19.661  22.581  12.561
40137W        W 1426   4.826   6.806   4.683
40138W        W 1427  42.864  10.654   3.257
40139W        W 1428  24.071  38.513   2.749
40140W        W 1429  13.187  15.130   0.265
40141W        W 1430  21.080  32.980   4.168
40142W        W 1431  12.250  32.927   2.200
40143W        W 1432  31.074   1.750   5.270
40144W        W 1433   1.914   2.906  10.498
40145W        W 1434   3.853  34.916  12.367
40146W        W 1435  15.131  20.681   3.664
40147W        W 1436  30.558   5.882  14.481
40148W        W 1437  27.623   6.242  13.947
40149W        W 1438  28.960  14.305   2.369
40150W        W 1439   8.316  34.505  11.395
40151W        W 1440  18.052   0.296  12.454
40152W        W 1441  20.173  31.513  10.413
40153W        W 1442   0.469  37.830   1.340
40154W        W 1443  10.239  11.654  11.517
40155W        W 1444  31.082  41.805   0.786
40156W        W 1445  12.834   6.276  14.814
40157W        W 1446  32.552  30.932   4.623
40158W        W 1447  12.294  19.218   0.845
40159W        W 1448   5.283   4.235  14.295
40160W        W 1449  24.613  18.575   4.318
40161W        W 1450   5.865  14.754  12.877
40162W        W 1451  42.781  11.340  12.996
40163W        W 1452  36.053  33.381  11.055
40164W        W 1453  39.330  30.451   2.261
40165W        W 1454  21.160  11.712   2.774
40166W        W 1455  41.421   8.770   2.374
40167W        W 1456  43.978  11.846  11.067
40168W        W 1457  16.285  39.880  12.068
40169W        W 1458  20.582  13.842   2.387
40170W        W 1459   1.778  44.819   2.219
40171W        W 1460  28.571   4.739  12.412
40172W        W 1461   6.885  24.596  14.446
40173W        W 1462   0.761  40.818   2.769
40174W        W 1463   0.794  23.119  11.481
40175W        W 1464  42.844  36.362   5.312
40176W        W 1465  35.431  28.542   3.671
40177W        W 1466  34.565  42.404   1.716
40178W        W 1467  26.029   5.314  12.554
40179W        W 1468  17.247  36.005  12.538
40180W        W 1469  41.799  26.491   5.082
40181W        W 1470  34.078   1.268  12.988
40182W        W 1471   6.771  11.739  10.490
40183W        W 1472  13.293  40.855  11.051
40184W        W 1473  36.951  29.113   4.699
40185W        W 1474  32.479   2.824  10.574
40186W        W 1475  16.676   1.255  14.872
40187W        W 1476  44.889   1.767  14.886
40188W        W 1477  10.352  30.952   5.297
40189W        W 1478  10.816   3.248  13.526
40190W        W 1479  32.052  19.046   3.243
40191W        W 1480  40.458   4.238  13.445
40192W        W 1481  23.563  43.480  14.894
40193W        W 1482  32.489  36.964   4.785
40194W        W 1483  27.192  19.675  14.889
40195W        W 1484  21.021  16.091  14.915
40196W        W 1485  40.899  25.665  10.520
40197W        W 1486   4.416  31.061   2.873
40198W        W 1487  19.161  34.937   1.715
40199W        W 1488  36.895  32.929  12.993
40200W        W 1489   0.364  24.622  11.969
40201W        W 1490  43.499  38.522  12.941
40202W        W 1491  24.578   5.769   2.844
40203W        W 1492   3.902  30.934  11.025
40204W        W 1493   2.306  17.238   0.432
40205W        W 1494  19.076  12.707   4.743
40206W        W 1495   9.190  30.422  13.459
40207W        W 1496  42.889   4.870   4.249
40208W        W 1497  16.126  18.170   5.306
40209W        W 1498  36.989  17.273   4.122
40210W        W 1499  41.512   2.895  13.342
40211W        W 1500  43.985  18.586  11.565
40212W        W 1501  31.090  33.513  10.118
40213W        W 1502  20.545  27.995   0.843
40214W        W 1503  11.275  40.540   3.291
40215W        W 1504  38.530  25.667   3.778
40216W        W 1505  39.879  18.237   1.274
40217W        W 1506  36.427  26.526   1.846
40218W        W 1507  36.936  26.513  10.505
40219W        W 1508  25.505  25.642   1.930
40220W        W 1509  11.761  24.673   4.758
40221W        W 1510   4.404  23.666  10.076
40222W        W 1511  25.004   4.282  14.961
40223W        W 1512  40.055   5.418   0.899
40224W        W 1513  32.612  18.742   0.846
40225W        W 1514  17.768   1.347  14.404
40226W        W 1515  29.995  42.970  14.025
40227W        W 1516  33.572  16.806  11.990
40228W        W 1517  43.291   4.703   4.664
40229W        W 1518  39.514  38.375  13.505
40230W        W 1519  39.822   2.445  13.452
40231W        W 1520  18.765  30.982   3.646
40232W        W 1521   8.697  34.099   2.778
40233W        W 1522  36.382  33.113  11.590
40234W        W 1523   8.705  22.244   3.307
40235W        W 1524   6.237   8.823  11.996
40236W        W 1525  20.555  30.436  14.945
40237W        W 1526  31.977  41.913   4.138
40238W        W 1527  15.200  23.521  11.530
40239W        W 1528  34.493  40.477   3.689
40240W        W 1529   1.740  32.953   1.858
40241W        W 1530  42.410  36.379   4.688
40242W        W 1531  12.216  42.781  10.895
40243W        W 1532  16.626   8.833  10.947
40244W        W 1533  22.100  26.167  12.056
40245W        W 1534  28.929   5.327  10.083
40246W        W 1535   0.767  29.548  12.834
40247W        W 1536  30.526   6.298  14.972
40248W        W 1537  42.515  10.680  11.998
40249W        W 1538  17.222  44.421   4.204
40250W        W 1539  29.054  37.571  14.866
40251W        W 1540  36.844  35.037   3.707
40252W        W 1541  25.141  27.609  13.450
40253W        W 1542   7.340   8.826   1.825
40254W        W 1543   5.755  14.164  10.947
40255W        W 1544  15.799  19.105  13.313
40256W        W 1545  26.047   1.784  10.602
40257W        W 1546  12.122  36.866  12.397
40258W        W 1547  30.642   0.860   4.741
40259W        W 1548   3.444  13.720  14.839
40260W        W 1549  28.181  18.153   2.865
40261W        W 1550  42.865  23.998  10.630
40262W        W 1551  33.515  22.025   0.367
40263W        W 1552  37.066  12.631  11.513
40264W        W 1553  31.636  19.201   1.215
40265W        W 1554  20.583   8.851   3.743
40266W        W 1555  22.526   0.969   4.270
40267W        W 1556   5.887   7.322  13.844
40268W        W 1557  20.132   5.421   0.393
40269W        W 1558  41.339  11.286   2.303
40270W        W 1559  36.978  33.421  13.438
40271W        W 1560  41.852  38.920   3.192
40272W        W 1561  11.366  20.141  10.926
40273W        W 1562   7.716  15.307  12.860
40274W        W 1563   7.306   7.228   1.210
40275W        W 1564  39.868  13.654   0.243
40276W        W 1565  37.013   1.313  10.589
40277W        W 1566  28.551   0.277   0.805
40278W        W 1567  29.496  42.396  14.400
40279W        W 1568  43.453   4.782  10.421
40280W        W 1569   6.343   7.309  10.468
40281W        W 1570   4.715  16.098   0.408
40282W        W 1571  37.046  10.140  14.475
40283W        W 1572  19.539  19.219   0.806
40284W        W 1573   5.863  34.539  11.909
40285W        W 1574  17.176  44.889  11.989
40286W        W 1575   8.216  21.109  14.972
40287W        W 1576  33.470  16.269   3.353
40288W        W 1577  42.444   5.928  11.902
40289W        W 1578  18.766  27.520  12.850
40290W        W 1579  19.137  11.643   2.785
40291W        W 1580  35.554  17.263   3.696
40292W        W 1581  40.050   6.400  14.792
40293W        W 1582  16.647  16.634  11.392
40294W        W 1583  20.754  40.545  10.427
40295W        W 1584  32.416   6.772   5.189
40296W        W 1585  12.803   0.327   3.270
40297W        W 1586  41.368   7.831  12.871
40298W        W 1587  25.180  10.296  11.992
40299W        W 1588  14.215   0.957  14.457
40300W        W 1589  25.093  25.653   0.478
40301W        W 1590  10.275  13.241   0.813
40302W        W 1591  31.049  22.733  12.068
40303W        W 1592  18.258  32.120   4.271
40304W        W 1593  15.597  34.428  11.125
40305W        W 1594  33.113  40.350   0.886
40306W        W 1595   6.410   7.323  14.820
40307W        W 1596  43.002  36.850   3.204
40308W        W 1597  44.450  36.058  14.320
40309W        W 1598   7.808  24.101  12.874
40310W        W 1599   0.965  42.964  10.017
40311W        W 1600  25.036  11.202   3.838
40312W        W 1601  17.112   6.193  13.352
40313W        W 1602  11.777   5.710  11.573
40314W        W 1603  37.458  14.130  10.460
40315W        W 1604   7.246  10.153  10.900
40316W        W 1605   4.825  28.156  10.027
40317W        W 1606   2.309  34.890  10.529
40318W        W 1607   5.765   3.813   2.237
40319W        W 1608   9.280   9.197   2.743
40320W        W 1609  22.134  25.489   0.936
40321W        W 1610  23.049  24.112  13.365
40322W        W 1611  27.462   9.782  11.099
40323W        W 1612  15.289  26.640  13.809
40324W        W 1613   3.800  30.130  14.012
40325W        W 1614   4.335   1.422   1.270
40326W        W 1615  25.134  22.527   0.442
40327W        W 1616  11.785  13.321   4.337
40328W        W 1617  31.502  11.366  14.432
40329W        W 1618   7.236   0.898   2.798
40330W        W 1619   3.851  42.447   3.641
40331W        W 1620   8.302  38.910   4.837
40332W        W 1621  23.148  14.198  11.415
40333W        W 1622  40.546   0.762   0.424
40334W        W 1623   8.184  11.146   3.314
40335W        W 1624  17.632  24.500   2.804
40336W        W 1625  28.536  15.779   0.960
40337W        W 1626  11.229   1.405  12.503
40338W        W 1627  24.188  38.974   0.309
40339W        W 1628  15.809   3.755   0.450
40340W        W 1629  26.190   9.238   0.295
40341W        W 1630  15.762   2.766   2.213
40342W        W 1631  22.064  32.899   3.179
40343W        W 1632   9.318   9.842   0.351
40344W        W 1633  30.541  17.075   0.827
40345W        W 1634  36.018  39.419  12.359
40346W        W 1635  40.544  36.569   0.775
40347W        W 1636   5.742  36.885   0.732
40348W        W 1637  14.799  40.319  13.394
40349W        W 1638  33.042   7.692   4.168
40350W        W 1639  41.323   9.782  14.423
40351W        W 1640   7.279  34.430   4.800
40352W        W 1641  39.850  16.772  10.072
40353W        W 1642  30.590  28.466   2.202
40354W        W 1643  33.100  25.675   1.807
40355W        W 1644  35.042   4.214  13.530
40356W        W 1645  30.117  21.693  13.806
40357W        W 1646  31.612  10.354   1.753
40358W        W 1647  13.245  35.575   2.822
40359W        W 1648  42.333  25.488   0.305
40360W        W 1649  15.587  20.250  10.914
40361W        W 1650  27.127  42.914  14.770
40362W        W 1651  29.122  30.950   4.690
40363W        W 1652  43.454   4.864  11.860
40364W        W 1653  42.838  39.996   3.706
40365W        W 1654  34.492  13.330  14.295
40366W        W 1655   8.406  36.458   3.799
40367W        W 1656   5.736  39.886  11.609
40368W        W 1657  42.299  36.991  11.009
40369W        W 1658  29.514  44.499   1.765
40370W        W 1659  22.083  25.155  12.424
40371W        W 1660  27.642  27.480   2.297
40372W        W 1661  22.035  29.945   2.364
40373W        W 1662  34.878  32.518   1.214
40374W        W 1663  16.768  26.670  13.398
40375W        W 1664   2.878  44.451  14.507
40376W        W 1665  21.705  44.829  10.629
40377W        W 1666   7.867   3.456  11.861
40378W        W 1667  18.582   2.917  14.334
40379W        W 1668  17.712  33.973  11.373
40380W        W 1669  43.506  30.159   3.230
40381W        W 1670  27.046  28.528   2.300
40382W        W 1671   7.200  34.392  13.395
40383W        W 1672  44.413  19.154  14.852
40384W        W 1673  32.555  18.281   2.846
40385W        W 1674  28.639  16.275  11.567
40386W        W 1675  39.466  22.614  11.050
40387W        W 1676   8.278  15.307  14.494
40388W        W 1677   1.339  21.121  14.931
40389W        W 1678  13.621  19.544  13.960
40390W        W 1679  33.511   4.259  14.883
40391W        W 1680  25.647  10.240  11.440
40392W        W 1681  35.488  31.402   4.257
40393W        W 1682  41.998  44.771  13.056
40394W        W 1683  19.117  12.638  14.932
40395W        W 1684  24.695  43.980   2.751
40396W        W 1685   5.218  29.960   4.827
40397W        W 1686   5.255  24.075   1.262
40398W        W 1687   0.769   4.899   3.639
40399W        W 1688  14.805  14.595   2.278
40400W        W 1689   2.425  32.114   1.913
40401W        W 1690   2.444  16.702  11.110
40402W        W 1691  35.004  39.427  12.060
40403W        W 1692  18.257   0.783  10.641
40404W        W 1693  39.474  21.103   0.346
40405W        W 1694   5.315  24.505   3.165
40406W        W 1695   4.297  43.844  12.073
40407W        W 1696  24.046  15.790  12.086
40408W        W 1697  29.531  38.905   4.762
40409W        W 1698  25.195  35.886   4.278
40410W        W 1699  12.273  24.679   1.827
40411W        W 1700  13.311  23.660   4.254
40412W        W 1701  15.177  28.090   1.268
40413W        W 1702  37.418   2.381   0.363
40414W        W 1703  25.989  24.640   4.145
40415W        W 1704  16.266   1.733   3.321
40416W        W 1705   5.761  20.586  13.007
40417W        W 1706  42.328  17.298   5.225
40418W        W 1707  26.065   0.902  13.482
40419W        W 1708  37.974   9.695   0.774
40420W        W 1709  30.600  10.851  14.366
40421W        W 1710  23.611  17.787   3.660
40422W        W 1711   6.843  32.075   0.768
40423W        W 1712   1.252  18.158   1.279
40424W        W 1713  13.837   2.946   1.295
40425W        W 1714  14.718  31.449  11.863
40426W        W 1715  28.513  20.252   4.680
40427W        W 1716  37.881   1.319  14.282
40428W        W 1717  29.617  36.064   9.981
40429W        W 1718  34.018  34.864   3.676
40430W        W 1719  19.661  14.758  13.821
40431W        W 1720  36.548   6.917   0.862
40432W        W 1721  10.164  41.300  13.397
40433W        W 1722  21.020  19.108  10.575
40434W        W 1723   0.312  29.521  10.949
40435W        W 1724  22.087  32.560   3.362
40436W        W 1725  20.533  16.757   0.244
40437W        W 1726  31.532  32.502  11.576
40438W        W 1727  10.144   8.666  13.344
40439W        W 1728  23.564  22.537   0.398
40440W        W 1729  39.329  36.097   4.766
40441W        W 1730  27.050  15.215  14.782
40442W        W 1731  16.113   2.310   3.387
40443W        W 1732  43.899  22.685  12.941
40444W        W 1733   2.420  44.937  12.518
40445W        W 1734  32.595  38.993  14.425
40446W        W 1735  16.744  33.475  14.389
40447W        W 1736  30.656  14.685  12.463
40448W        W 1737  16.166   8.709   4.701
40449W        W 1738  11.825  33.477   0.265
40450W        W 1739  31.409   9.855  12.444
40451W        W 1740  42.925   8.205   3.384
40452W        W 1741   0.846  14.618   3.633
40453W        W 1742  11.689  20.703  12.439
40454W        W 1743  43.799  27.954  10.898
40455W        W 1744  14.663  13.738  11.087
40456W        W 1745  44.841  20.654   1.714
40457W        W 1746  39.417  33.060  12.448
40458W        W 1747  26.096  41.834  12.934
40459W        W 1748  43.345  34.525  14.839
40460W        W 1749  17.615   1.812   3.672
40461W        W 1750  35.418   9.815  11.910
40462W        W 1751  14.293  38.848  12.890
40463W        W 1752   5.841  43.423  12.529
40464W        W 1753  44.363  43.879   1.436
40465W        W 1754   7.226  30.456   0.893
40466W        W 1755   9.871  35.568   4.719
40467W        W 1756  36.569   0.768  13.309
40468W        W 1757  32.126  34.373   4.309
40469W        W 1758   5.812   0.410  14.315
40470W        W 1759  20.148   2.356  14.782
40471W        W 1760  27.083   4.343   3.827
40472W        W 1761  24.120  13.781  13.384
40473W        W 1762  43.771  31.418  14.855
40474W        W 1763  21.681  31.016   3.165
40475W        W 1764  39.915  24.680   4.838
40476W        W 1765  25.138  25.137  10.443
40477W        W 1766  23.586  24.495   3.347
40478W        W 1767  40.854  13.677   2.314
40479W        W 1768  18.595  30.014   0.259
40480W        W 1769   9.708   0.423   5.700
40481W        W 1770  16.124  43.277   0.792
40482W        W 1771  38.019  16.094  13.938
40483W        W 1772  43.786   2.883   2.751
40484W        W 1773  21.022  44.990   3.212
40485W        W 1774  19.564  18.078  14.377
40486W        W 1775  23.984  33.464  13.543
40487W        W 1776  21.045  31.607   4.148
40488W        W 1777  20.626  14.741  11.487
40489W        W 1778  25.113  10.743   4.135
40490W        W 1779  38.464  31.614   2.705
40491W        W 1780  21.723  21.022   3.776
40492W        W 1781  21.742  10.756  11.413
40493W        W 1782  37.887  20.165   0.399
40494W        W 1783  27.057  26.026  13.528
40495W        W 1784  37.081   3.858   4.223
40496W        W 1785  14.294  20.051   5.138
40497W        W 1786  15.216  34.573  12.871
40498W        W 1787  14.680  30.441   2.354
40499W        W 1788   9.789  19.190   3.182
40500W        W 1789   2.846   2.239   1.226
40501W        W 1790   0.754  26.170   2.180
40502W        W 1791  30.994  12.673   4.813
40503W        W 1792  35.857   5.723   2.870
40504W        W 1793   9.663  10.242  14.760
40505W        W 1794  42.995  16.605  14.407
40506W        W 1795   9.340  23.192   1.924
40507W        W 1796  38.990  29.033  12.886
40508W        W 1797  30.149  34.527  13.517
40509W        W 1798   4.911  35.547   4.759
40510W        W 1799  10.281  34.499   4.800
40511W        W 1800  29.158  11.236  11.403
40512W        W 1801  28.095  30.521  10.464
40513W        W 1802  31.062  41.355   0.291
40514W        W 1803   7.330   6.198  14.325
40515W        W 1804  26.956   9.725  13.430
40516W        W 1805  14.220   4.232   4.606
40517W        W 1806   3.833  33.907   1.438
40518W        W 1807  36.589  10.778  11.939
40519W        W 1808  41.530  30.951   2.680
40520W        W 1809  26.147  29.630  13.443
40521W        W 1810  42.874   8.365  11.412
40522W        W 1811  33.045  14.126  14.993
40523W        W 1812   8.286   4.896   3.717
40524W        W 1813  15.682  44.850   2.191
40525W        W 1814   6.789  33.917   2.230
40526W        W 1815  35.035  38.820  14.480
40527W        W 1816  11.288  44.282  13.453
40528W        W 1817   8.271  19.634   5.185
40529W        W 1818  13.670  36.928   1.266
40530W        W 1819  43.474  41.321   2.668
40531W        W 1820  31.552  12.239   0.261
40532W        W 1821   1.415  41.952   3.205
40533W        W 1822  28.542  29.990   3.368
40534W        W 1823   9.182   8.688  13.344
40535W        W 1824  38.371  16.227   4.172
40536W        W 1825  25.213   7.797  12.476
40537W        W 1826  11.682  38.493  12.917
40538W        W 1827   4.423  18.653   4.804
40539W        W 1828  27.502   3.834   2.315
40540W        W 1829   0.816  33.588   0.856
40541W        W 1830  38.060  32.535   3.273
40542W        W 1831   8.690  39.811   3.692
40543W        W 1832  19.655  28.125   4.297
40544W        W 1833  22.504  44.856   4.288
40545W        W 1834  29.574  31.988   5.314
40546W        W 1835   5.860  40.353  12.893
40547W        W 1836   4.817  36.065  11.073
40548W        W 1837  11.722  11.132  13.951
40549W        W 1838  39.914  10.169  11.029
40550W        W 1839  16.644   3.863  14.984
40551W        W 1840  27.164  19.635  12.566
40552W        W 1841   6.380  10.839  13.945
40553W        W 1842  34.530  35.363   4.282
40554W        W 1843  30.537  21.144   3.382
40555W        W 1844  22.065  20.560  12.995
40556W        W 1845  32.484  13.610  13.384
40557W        W 1846  24.190  28.573   1.230
40558W        W 1847   0.299  32.501   2.330
40559W        W 1848  18.729  16.156   3.353
40560W        W 1849  30.460  40.866   3.331
40561W        W 1850  25.697   5.913  13.419
40562W        W 1851   0.442  27.677  11.511
40563W        W 1852  27.184  32.133   4.835
40564W        W 1853  22.170  26.605   4.598
40565W        W 1854  14.236  15.123  13.824
40566W        W 1855  29.052  32.920  13.829
40567W        W 1856  30.468  12.134  11.060
40568W        W 1857  15.138  30.493  11.871
40569W        W 1858  19.105  15.221  13.412
40570W        W 1859  43.505  11.227  14.926
40571W        W 1860  37.535  42.486  14.911
40572W        W 1861   1.954  17.687  12.496
40573W        W 1862  12.684   3.401  12.000
40574W        W 1863   7.308   5.370   4.140
40575W        W 1864  39.378  43.850  10.597
40576W        W 1865  22.637  25.607   0.831
40577W        W 1866  37.423  31.045   4.113
40578W        W 1867  33.536   2.785   0.967
40579W        W 1868  34.065  26.067   3.770
40580W        W 1869  25.525   4.283   0.310
40581W        W 1870  25.078   1.769   3.843
40582W        W 1871   0.311   9.766   1.905
40583W        W 1872  41.308  36.881  10.982
40584W        W 1873  25.647  10.653   0.244
40585W        W 1874   5.769  29.515   0.250
40586W        W 1875   3.772  27.568   4.286
40587W        W 1876  20.670  26.537   2.804
40588W        W 1877  13.764  38.038   4.221
40589W        W 1878   5.783  39.889   3.355
40590W        W 1879   0.913  10.254  12.027
40591W        W 1880  18.651  12.798  12.377
40592W        W 1881  31.402   2.940   2.714
40593W        W 1882  32.103  21.565   2.307
40594W        W 1883   0.892  19.101  10.604
40595W        W 1884   6.190  34.598   2.840
40596W        W 1885  42.988   2.800   2.250
40597W        W 1886  28.673   5.422  11.415
40598W        W 1887   9.784   5.814  11.381
40599W        W 1888  19.585  23.105   3.307
40600W        W 1889  10.290   7.216   0.420
40601W        W 1890  10.794  39.489   4.136
40602W        W 1891  25.189  41.473   0.244
40603W        W 1892  24.645   0.279  11.539
40604W        W 1893  27.965  34.915  12.402
40605W        W 1894   0.877  29.015  14.871
40606W        W 1895  29.562  21.111  12.895
40607W        W 1896  40.907   5.835   1.921
40608W        W 1897   4.253  30.945  11.410
40609W        W 1898  38.496  12.299  10.928
40610W        W 1899  29.528  43.384   2.218
40611W        W 1900  40.825  31.084   1.695
40612W        W 1901  27.526  27.023  11.589
40613W        W 1902  16.298  25.102   2.229
40614W        W 1903   1.735  31.077   1.865
40615W        W 1904   1.828   6.390   4.280
40616W        W 1905  11.317  11.838   4.681
40617W        W 1906  27.665  25.188   2.217
40618W        W 1907   1.808  34.394  13.505
40619W        W 1908  22.237   8.352  14.438
40620W        W 1909  40.000  15.276  10.441
40621W        W 1910  44.944  41.877  11.534
40622W        W 1911   2.421   9.787  14.375
40623W        W 1912  37.568  34.002  12.946
40624W        W 1913  30.445  38.328   2.726
40625W        W 1914  44.827  36.005  12.544
40626W        W 1915  20.151  30.567  10.515
40627W        W 1916  23.079  23.549   3.371
40628W        W 1917  42.358  18.282  10.642
40629W        W 1918   5.764  19.249  14.762
40630W        W 1919  18.142  40.538  11.532
40631W        W 1920  11.234   3.812  10.947
40632W        W 1921  37.377  22.126  12.851
40633W        W 1922  41.945  39.319   1.411
40634W        W 1923  11.759  17.730  12.079
40635W        W 1924   6.379   7.730   1.371
40636W        W 1925  42.999  18.693  12.429
40637W        W 1926  37.983  25.568   0.371
40638W        W 1927   1.937   9.731   2.814
40639W        W 1928  20.579  25.676   3.283
40640W        W 1929  25.644  14.311  10.960
40641W        W 1930  41.318   2.250  14.005
40642W        W 1931   1.442   5.693  10.577
40643W        W 1932  29.152   2.323  14.507
40644W        W 1933  16.243   7.377  13.877
40645W        W 1934   0.316  44.923  11.940
40646W        W 1935   7.774  21.238  14.986
40647W        W 1936  32.075  10.263  10.458
40648W        W 1937  27.170   6.203  10.135
40649W        W 1938  40.022  21.668   2.861
40650W        W 1939  32.903  21.721  11.012
40651W        W 1940   2.763  11.761  12.518
40652W        W 1941  34.477  32.500  14.018
40653W        W 1942   9.659  37.439  12.579
40654W        W 1943  21.249  42.374  12.387
40655W        W 1944   1.242  44.997   4.242
40656W        W 1945  10.692   4.793  11.862
40657W        W 1946  44.326  25.065   3.151
40658W        W 1947  20.740  42.429  11.573
40659W        W 1948   1.345  34.905  11.021
40660W        W 1949  16.150  16.785  11.970
40661W        W 1950   9.707  31.134  11.042
40662W        W 1951  38.335  36.980  12.035
40663W        W 1952  10.848   8.300   0.242
40664W        W 1953  11.319   3.795   2.764
40665W        W 1954  36.501  39.812  14.770
40666W        W 1955   6.692  24.108  12.909
40667W        W 1956  33.017  30.496  13.392
40668W        W 1957  13.739   9.786   0.315
40669W        W 1958   7.868  29.975   1.768
40670W        W 1959  10.638  15.738  10.639
40671W        W 1960  14.633  28.655   1.921
40672W        W 1961  16.687  28.028   4.267
40673W        W 1962  30.119  22.136  11.544
40674W        W 1963  30.998  27.603   1.887
40675W        W 1964  26.089  22.628  10.533
40676W        W 1965  29.106  16.222   1.839
40677W        W 1966  21.633  32.505   2.181
40678W        W 1967   5.247  19.155   3.325
40679W        W 1968  31.127   6.852  13.063
40680W        W 1969  40.446  25.477  10.995
40681W        W 1970  22.063  12.341   2.849
40682W        W 1971   2.421  32.602   3.866
40683W        W 1972  37.434  40.957  11.883
40684W        W 1973  13.269  43.510   2.761
40685W        W 1974  22.125  42.406  10.494
40686W        W 1975  12.345  44.330   3.726
40687W        W 1976  20.059   2.334  11.866
40688W        W 1977  41.316  27.118  13.399
40689W        W 1978  36.036   1.916   0.736
40690W        W 1979  36.900  39.822  11.419
40691W        W 1980  41.532  27.524   4.283
40692W        W 1981  14.695  10.290   4.705
40693W        W 1982   1.239  31.097   2.367
40694W        W 1983  21.681  34.420  10.597
40695W        W 1984  30.921   3.285   2.346
40696W        W 1985  26.526  43.367   4.794
40697W        W 1986  18.287  44.921  10.453
40698W        W 1987  26.664  13.784   2.723
40699W        W 1988  41.393  35.085  13.018
40700W        W 1989  28.484  39.955  12.077
40701W        W 1990  36.550   5.411   0.390
40702W        W 1991  17.188  36.881  14.973
40703W        W 1992  43.361  33.480   2.250
40704W        W 1993  16.603  11.856   2.745
40705W        W 1994   4.773   6.287  11.035
40706W        W 1995  14.215  23.608  14.325
40707W        W 1996  23.624   7.306  12.823
40708W        W 1997   2.724  26.641   2.217
40709W        W 1998  11.164   5.352  10.453
40710W        W 1999   1.790  40.816   4.258
40711W        W 2000   4.403  11.837  11.434
40712W        W 2001   5.209  41.041   0.814
40713W        W 2002  38.971  12.217   3.634
40714W        W 2003  39.945  14.208   0.894
40715W        W 2004  10.829  23.999   1.846
40716W        W 2005   5.382  44.370   3.798
40717W        W 2006   6.373  44.377   9.933
40718W        W 2007  26.196  43.392   1.726
40719W        W 2008  22.542   6.363   3.212
40720W        W 2009  24.221  26.158  10.482
40721W        W 2010  33.113  39.957  12.911
40722W        W 2011  16.763  13.708   3.777
40723W        W 2012   8.872  32.944  12.835
40724W        W 2013  22.685  21.065   0.886
40725W        W 2014  13.303  16.278  13.923
40726W        W 2015  44.281   2.350  13.985
40727W        W 2016  30.990  41.035  10.573
40728W        W 2017   5.374  24.680  11.496
40729W        W 2018  10.877   6.396   9.977
40730W        W 2019  34.519  22.661   1.906
40731W        W 2020  21.085  22.661  14.909
40732W        W 2021  18.727  36.403   2.673
40733W        W 2022  19.730  16.205  12.418
40734W        W 2023  42.031  24.682  12.087
40735W        W 2024  42.341  40.372  10.910
40736W        W 2025  40.485  40.499   2.350
40737W        W 2026  20.718   0.857   4.793
40738W        W 2027  13.653  26.084  12.548
40739W        W 2028  13.818   7.690  10.425
40740W        W 2029  41.839  16.630   1.900
40741W        W 2030  31.014  40.003   3.345
40742W        W 2031  35.966  27.642   0.813
40743W        W 2032  17.738  26.970   1.242
40744W        W 2033  16.127  16.277  14.818
40745W        W 2034  36.957  38.567  12.378
40746W        W 2035  31.622  34.401   1.851
40747W        W 2036  33.075  14.655  12.545
40748W        W 2037  31.003  14.098   2.258
40749W        W 2038  41.918  32.610   3.850
40750W        W 2039   3.225   3.300  11.980
40751W        W 2040  27.459  19.583  14.861
40752W        W 2041  15.225   3.735  13.872
40753W        W 2042  20.539  41.436  10.429
40754W        W 2043   7.334   4.795   0.902
40755W        W 2044  43.931  24.990   4.799
40756W        W 2045  38.820  21.642  13.974
40757W        W 2046   9.689   9.391  13.878
40758W        W 2047   2.351   2.775  12.083
40759W        W 2048  42.910  22.634  14.814
40760W        W 2049  41.028  38.455  13.362
40761W        W 2050  20.622   5.692  12.927
40762W        W 2051  26.515  22.511  12.442
40763W        W 2052   0.917  19.071  14.853
40764W        W 2053  44.378  18.548   1.341
40765W        W 2054  41.488  17.196   4.354
40766W        W 2055  23.599   8.831  14.823
40767W        W 2056  44.788  11.153   2.235
40768W        W 2057   5.916  44.413  11.464
40769W        W 2058  35.385  34.514   4.332
40770W        W 2059  20.561  15.770  10.607
40771W        W 2060  44.366  12.174   2.383
40772W        W 2061  23.666  44.852   4.305
40773W        W 2062   1.891   1.368  14.898
40774W        W 2063  39.009  21.060  10.490
40775W        W 2064  40.535  27.047  10.974
40776W        W 2065  28.181  34.566  10.506
40777W        W 2066  28.511  34.556  14.855
40778W        W 2067  18.069  30.156   3.180
40779W        W 2068  15.732  44.377  13.022
40780W        W 2069  38.038   3.389   3.302
40781W        W 2070   4.444   9.798  13.381
40782W        W 2071  25.487  43.843  10.546
40783W        W 2072  37.926  25.020  12.855
40784W        W 2073  30.557  37.461  11.866
40785W        W 2074   4.325   6.756  13.880
40786W        W 2075   5.193  12.701   0.482
40787W        W 2076  24.719  16.583   1.416
40788W        W 2077  34.093  41.482   1.844
40789W        W 2078  33.930  16.745  11.026
40790W        W 2079  27.489  42.938  14.902
40791W        W 2080  41.432  14.620  10.925
40792W        W 2081  42.007  11.317  11.074
40793W        W 2082  31.499  23.128   4.256
40794W        W 2083  43.966  14.123   1.409
40795W        W 2084  16.080  24.544   3.355
40796W        W 2085  33.539   4.805  11.064
40797W        W 2086  11.728  17.693   2.398
40798W        W 2087  20.047  27.075   1.420
40799W        W 2088  43.464  37.527   5.089
40800W        W 2089   5.406  23.658   3.718
40801W        W 2090   8.330   2.879  12.527
40802W        W 2091   4.807   8.377  11.606
40803W        W 2092  13.729   6.360   4.696
40804W        W 2093  35.513   9.883   2.386
40805W        W 2094  12.296   4.733  11.988
40806W        W 2095   3.285  39.336  14.344
40807W        W 2096  18.218  27.571   2.383
40808W        W 2097  13.711  26.999   0.412
40809W        W 2098  18.231   1.792   1.781
40810W        W 2099  11.159  26.986  13.940
40811W        W 2100   4.831  15.613  12.445
40812W        W 2101  15.704  19.127   1.876
40813W        W 2102   9.377  27.019  14.893
40814W        W 2103  21.158  10.668   1.779
40815W        W 2104  27.079  43.467  12.493
40816W        W 2105  40.905  36.466  12.921
40817W        W 2106   6.273  44.478  14.779
40818W        W 2107  21.152  40.547  13.486
40819W        W 2108   5.351  14.188  10.616
40820W        W 2109  17.762  37.042   2.365
40821W        W 2110   1.790  28.646   2.293
40822W        W 2111  38.021  29.013  13.521
40823W        W 2112  40.020  35.471   4.267
40824W        W 2113  44.479  32.937  13.925
40825W        W 2114  21.726  26.186  12.921
40826W        W 2115   9.337   0.828  12.958
40827W        W 2116  43.410  33.625  12.558
40828W        W 2117  14.102  37.366   1.821
40829W        W 2118   7.893  30.511  11.402
40830W        W 2119  42.458   4.916   1.210
40831W        W 2120   1.870  38.940   0.919
40832W        W 2121   4.432   6.797   1.790
40833W        W 2122   2.745  24.218   2.222
40834W        W 2123  40.042  11.249  12.828
40835W        W 2124  10.253  27.664   0.277
40836W        W 2125   6.772  23.598  10.987
40837W        W 2126   0.288   1.935  12.924
40838W        W 2127   9.149  31.107  14.767
40839W        W 2128  44.457   7.691   0.325
40840W        W 2129   9.148   9.363   3.832
40841W        W 2130  28.116  31.972   5.167
40842W        W 2131  18.231  31.535  11.575
40843W        W 2132  24.984  11.799   0.437
40844W        W 2133  41.001  30.640   2.673
40845W        W 2134  29.490  22.506   1.391
40846W        W 2135  35.467  33.474  10.624
40847W        W 2136  38.990  38.477  11.942
40848W        W 2137   0.396   9.344  10.005
40849W        W 2138  27.508  28.535   1.799
40850W        W 2139  12.143  38.508  11.586
40851W        W 2140  18.056  42.309   1.875
40852W        W 2141  12.337  39.977   2.323
40853W        W 2142   7.210  30.063   4.204
40854W        W 2143  21.161   9.837   1.231
40855W        W 2144  19.183  22.511   2.318
40856W        W 2145  40.544  28.935  10.598
40857W        W 2146   5.787  25.522  11.572
40858W        W 2147  44.972  35.372  12.456
40859W        W 2148  13.623   4.761  14.872
40860W        W 2149  35.442  15.791  13.375
40861W        W 2150  17.785  32.477   3.787
40862W        W 2151   0.374  43.350  14.901
40863W        W 2152   4.824  35.011  14.297
40864W        W 2153  39.900  15.757   0.959
40865W        W 2154   3.845  22.084  11.492
40866W        W 2155  25.658  43.389   3.266
40867W        W 2156   2.816  36.042  13.046
40868W        W 2157  31.447  17.203  14.806
40869W        W 2158  37.995  37.010  14.946
40870W        W 2159  25.572  13.283   0.773
40871W        W 2160  35.927  28.951   0.752
40872W        W 2161  33.541  38.486  14.863
40873W        W 2162  44.260   5.899   2.218
40874W        W 2163  20.159  37.975   1.899
40875W        W 2164  25.098  11.843   5.256
40876W        W 2165   4.381  20.235  14.315
40877W        W 2166  35.491  43.845  12.579
40878W        W 2167   7.349  16.143  12.895
40879W        W 2168  25.693   8.361   2.394
40880W        W 2169  13.287  11.656   4.262
40881W        W 2170  28.083  23.595   4.786
40882W        W 2171  38.392  14.678  14.486
40883W        W 2172  44.296  13.301   2.705
40884W        W 2173  39.318  41.496   3.765
40885W        W 2174  12.334   6.768   0.946
40886W        W 2175   0.272  37.558   0.357
40887W        W 2176  12.139  41.020  13.887
40888W        W 2177  40.914  29.523   1.779
40889W        W 2178  16.759  18.105  10.432
40890W        W 2179  12.700  39.485   4.324
40891W        W 2180  32.008  10.750  12.034
40892W        W 2181  13.191  12.174  12.024
40893W        W 2182  27.115  11.196   3.711
40894W        W 2183   3.412  44.489  14.795
40895W        W 2184  27.450   4.746  13.804
40896W        W 2185  30.995   9.173  12.386
40897W        W 2186  32.466  37.980   0.325
40898W        W 2187  41.951  14.299  14.922
40899W        W 2188  44.401  33.987   1.810
40900W        W 2189  24.706   9.748  10.428
40901W        W 2190   4.805  43.968   2.371
40902W        W 2191  20.546   1.936   4.115
40903W        W 2192  37.004  14.831  11.521
40904W        W 2193  13.182  22.510   0.833
40905W        W 2194  20.210  24.630   0.735
40906W        W 2195  10.634  32.036   1.769
40907W        W 2196  14.758  12.656  13.465
40908W        W 2197  32.524  39.996   3.328
40909W        W 2198  23.021   5.312  14.774
40910W        W 2199  16.576  12.160   4.311
40911W        W 2200  10.227  21.209  12.414
40912W        W 2201   1.351  12.830  11.441
40913W        W 2202  23.599  19.285   4.167
40914W        W 2203   0.831   2.921   4.338
40915W        W 2204   5.241  14.191  12.062
40916W        W 2205  28.011  15.758   2.860
40917W        W 2206  25.469   9.870  12.466
40918W        W 2207  39.972  37.413   1.417
40919W        W 2208   0.479   0.301  10.408
40920W        W 2209  25.637  30.972  12.519
40921W        W 2210  36.493  35.523   1.833
40922W        W 2211   9.149  41.807  13.974
40923W        W 2212  23.010   3.349   4.179
40924W        W 2213  32.959  38.845   4.609
40925W        W 2214  35.458  30.961  14.027
40926W        W 2215  40.034   5.747   0.834
40927W        W 2216  29.981   7.240  11.521
40928W        W 2217  20.758  14.270  12.543
40929W        W 2218   3.296  29.524  12.574
40930W        W 2219  25.646  36.056  13.001
40931W        W 2220  19.606   1.737   3.215
40932W        W 2221   5.704  30.987   3.678
40933W        W 2222   0.337  28.479   4.746
40934W        W 2223  11.849   6.760  14.395
40935W        W 2224  41.913   6.333  13.475
40936W        W 2225  36.897   6.411   1.716
40937W        W 2226   6.881  21.547   5.245
40938W        W 2227  14.640  32.453  13.516
40939W        W 2228  17.786  25.563  14.458
40940W        W 2229  17.687  40.383   4.745
40941W        W 2230  13.660  19.120   1.889
40942W        W 2231  40.435  33.988  11.890
40943W        W 2232  26.529  12.317  14.493
40944W        W 2233  31.102   0.914  14.924
40945W        W 2234  30.149  20.736   1.777
40946W        W 2235  33.394  17.181   3.348
40947W        W 2236   7.407  15.587  11.020
40948W        W 2237  43.825  13.614   0.454
40949W        W 2238  11.344   4.714   2.839
40950W        W 2239  17.600  30.460   3.381
40951W        W 2240  37.537  14.135   4.700
40952W        W 2241  32.449  36.543  10.431
40953W        W 2242  32.049  20.693  11.049
40954W        W 2243  43.962  34.522   3.640
40955W        W 2244  40.535   3.790   2.270
40956W        W 2245  23.516  30.504   3.838
40957W        W 2246  42.488  20.131   3.173
40958W        W 2247   9.313  20.083   2.341
40959W        W 2248  42.311   8.734  12.863
40960W        W 2249  14.761   8.813  10.571
40961W        W 2250  35.485  19.084  10.419
40962W        W 2251  33.540  28.117  14.825
40963W        W 2252  13.340  19.234  12.496
40964W        W 2253  17.600  11.815  11.475
40965W        W 2254   3.385  24.605   0.386
40966W        W 2255  15.619  13.267  10.526
40967W        W 2256  24.097   4.225   4.674
40968W        W 2257   1.945  40.036  11.496
40969W        W 2258   6.693  22.229  11.455
40970W        W 2259  25.164  34.048  13.052
40971W        W 2260  33.114  15.302   1.267
40972W        W 2261   4.295   0.860   0.914
40973W        W 2262  10.188   8.215  13.387
40974W        W 2263  38.451  15.190  13.443
40975W        W 2264   3.342  33.615   0.478
40976W        W 2265   4.860   5.728   4.776
40977W        W 2266  18.765  10.336   1.240
40978W        W 2267  37.991  16.603   3.783
40979W        W 2268  22.179   9.159  12.522
40980W        W 2269   5.933  22.077   0.757
40981W        W 2270   3.457  22.114  12.542
40982W        W 2271  33.951  32.623   4.698
40983W        W 2272  15.601  43.825   4.318
40984W        W 2273   9.833  43.771  14.792
40985W        W 2274   0.306  27.084  10.999
40986W        W 2275  42.416  24.641   4.287
40987W        W 2276   6.203   4.836   2.196
40988W        W 2277  44.877  15.325  13.349
40989W        W 2278  41.521   5.196   2.741
40990W        W 2279   9.352  40.524   0.303
40991W        W 2280  38.517   6.419   1.284
40992W        W 2281   1.278  23.184   3.806
40993W        W 2282  12.828  24.637  14.838
40994W        W 2283  26.093   2.856  11.011
40995W        W 2284  12.256   6.341   4.159
40996W        W 2285  20.692  36.966   0.333
40997W        W 2286  33.962   7.353  13.438
40998W        W 2287  35.541  27.177  12.445
40999W        W 2288  43.477  11.652   1.793
41000W        W 2289   6.841  24.681   0.433
41001W        W 2290  15.101  14.250   0.740
41002W        W 2291  21.210   6.888   1.897
41003W        W 2292  32.435  42.417   1.803
41004W        W 2293  19.677  23.596   4.203
41005W        W 2294  37.472  42.919   3.169
41006W        W 2295  42.030  14.252  12.528
41007W        W 2296   8.726  36.374   0.327
41008W        W 2297   5.305  32.610  12.914
41009W        W 2298  15.686  27.105   4.136
41010W        W 2299  24.579  20.661   0.360
41011W        W 2300  19.240  19.244   4.641
41012W        W 2301  11.661   1.901   1.225
41013W        W 2302   8.806  38.972   2.237
41014W        W 2303  20.206  39.445  13.935
41015W        W 2304  26.514  16.677  10.071
41016W        W 2305  15.246   2.368   3.777
41017W        W 2306  38.534  42.423   4.825
41018W        W 2307   7.825  37.536  10.521
41019W        W 2308  23.035  10.691  13.389
41020W        W 2309   1.750   2.963   1.376
41021W        W 2310  33.621   7.361  13.907
41022W        W 2311  37.576  15.731   3.746
41023W        W 2312   2.346  31.069   0.447
41024W        W 2313   8.679  35.376  11.948
41025W        W 2314  19.678  36.889  14.906
41026W        W 2315   8.684  39.555   0.428
41027W        W 2316  42.297  34.404   2.759
41028W        W 2317  14.319  23.160  12.982
41029W        W 2318  33.122  24.182   1.315
41030W        W 2319  15.164  19.061  12.042
41031W        W 2320  15.620  39.324  12.557
41032W        W 2321  13.607  34.578   2.291
41033W        W 2322  30.441  33.904  14.012
41034W        W 2323  18.602  13.278   1.766
41035W        W 2324  31.472  43.999  12.393
41036W        W 2325   8.353  14.692  12.516
41037W        W 2326  25.651  11.348   2.687
41038W        W 2327  10.740  16.209  12.493
41039W        W 2328  42.002  25.150   2.404
41040W        W 2329  31.069  17.790  12.969
41041W        W 2330  18.051   7.270   4.313
41042W        W 2331   3.308  41.959  12.506
41043W        W 2332  16.616  25.588  14.968
41044W        W 2333  31.460   5.756  11.540
41045W        W 2334  33.959  21.084  14.314
41046W        W 2335  15.727  41.526   0.853
41047W        W 2336  32.558   1.904  10.435
41048W        W 2337  14.626  18.266   3.740
41049W        W 2338   5.209  23.223  12.002
41050W        W 2339   9.337   9.355   0.772
41051W        W 2340  24.688  36.911  11.398
41052W        W 2341  28.161  24.991   3.807
41053W        W 2342   9.394   1.767  12.868
41054W        W 2343  37.898   6.361   4.290
41055W        W 2344  42.305  37.462   3.766
41056W        W 2345  16.158  10.786   0.908
41057W        W 2346  14.166  25.586   0.954
41058W        W 2347  18.145  10.813   0.394
41059W        W 2348  17.071  10.374   4.807
41060W        W 2349   3.875  30.558   0.801
41061W        W 2350  32.443  36.843  10.957
41062W        W 2351   2.945  10.850   4.758
41063W        W 2352  14.246  23.238   0.263
41064W        W 2353  27.174  19.226   2.759
41065W        W 2354  28.155   4.794   4.603
41066W        W 2355   3.848  41.490   3.716
41067W        W 2356  32.969  38.880   0.941
41068W        W 2357  13.107  27.617  13.955
41069W        W 2358  33.011  26.122  12.497
41070W        W 2359  22.605  20.749  10.448
41071W        W 2360  43.906  12.315   4.167
41072W        W 2361  31.984  21.150  10.434
41073W        W 2362  32.973  39.025  11.024
41074W        W 2363   1.752  33.001   0.480
41075W        W 2364  16.293  29.979   3.754
41076W        W 2365  25.129  42.902  12.419
41077W        W 2366  22.680  34.499   1.907
41078W        W 2367  30.468   6.247  14.385
41079W        W 2368   7.402  34.958  12.383
41080W        W 2369  21.130  35.430  12.969
41081W        W 2370  40.347  27.094   4.818
41082W        W 2371  44.371  23.494  11.052
41083W        W 2372  33.543  29.041   0.966
41084W        W 2373  36.482  38.954   4.833
41085W        W 2374  30.093   5.777   4.710
41086W        W 2375  22.700  37.986   1.273
41087W        W 2376  22.181  41.036   0.300
41088W        W 2377  11.309   3.303  11.014
41089W        W 2378  36.434  31.981   0.402
41090W        W 2379   9.692  11.230   1.441
41091W        W 2380  29.029  26.993   4.662
41092W        W 2381  24.147  15.106   4.788
41093W        W 2382  35.925  15.282  14.905
41094W        W 2383  36.097  23.505  13.868
41095W        W 2384  32.613  31.456  12.034
41096W        W 2385  21.221  13.623   1.932
41097W        W 2386  41.950  21.676  11.077
41098W        W 2387  17.705  14.247  13.418
41099W        W 2388   8.754  32.988  14.007
41100W        W 2389  13.220  19.555  10.101
41101W        W 2390  20.042   2.738  13.429
41102W        W 2391  24.194  17.787  11.029
41103W        W 2392  23.150  21.625   5.279
41104W        W 2393  24.634   6.239  13.413
41105W        W 2394   5.231  11.367   0.352
41106W        W 2395  15.268  23.509  12.483
41107W        W 2396  23.990  12.807   3.704
41108W        W 2397  17.290  41.368  11.592
41109W        W 2398  27.571  16.310   0.342
41110W        W 2399  14.232  12.322   1.320
41111W        W 2400  19.158  24.008  13.966
41112W        W 2401  41.524  20.072   4.190
41113W        W 2402   7.180   4.301  10.462
41114W        W 2403  33.900  11.747   2.354
41115W        W 2404  42.501  28.451  14.475
41116W        W 2405   4.832  41.535   9.956
41117W        W 2406  19.260   7.827   4.613
41118W        W 2407  24.591  23.614  10.037
41119W        W 2408  14.645   4.215  13.523
41120W        W 2409  25.009  29.006   1.748
41121W        W 2410  23.006  34.941  12.069
41122W        W 2411  23.509  26.629   1.448
41123W        W 2412  25.114   7.838  14.494
41124W        W 2413  14.633  36.964  12.427
41125W        W 2414  37.574   9.726  13.367
41126W        W 2415   3.775   0.938   1.775
41127W        W 2416  34.870   0.938   2.810
41128W        W 2417  24.189  42.420   4.238
41129W        W 2418  26.126  40.417  11.484
41130W        W 2419  43.823  37.001   3.821
41131W        W 2420  37.076  28.548   2.699
41132W        W 2421   0.853  13.334  13.064
41133W        W 2422  29.577  42.504   3.768
41134W        W 2423  11.171  28.970   1.243
41135W        W 2424  42.898  32.906  10.975
41136W        W 2425  15.612  28.085   2.682
41137W        W 2426  10.707  23.698   1.830
41138W        W 2427  43.008  27.518  13.056
41139W        W 2428  41.854  19.060  10.984
41140W        W 2429  19.272  27.057  11.499
41141W        W 2430  34.451  30.047   3.726
41142W        W 2431  16.574  32.637  10.499
41143W        W 2432  12.274   0.957  12.381
41144W        W 2433  11.318  18.209   0.482
41145W        W 2434  33.880  42.013  14.303
41146W        W 2435  15.090   5.773  10.422
41147W        W 2436   2.342  23.638   2.723
41148W        W 2437   9.822  33.498   1.708
41149W        W 2438   2.425  33.591  14.763
41150W        W 2439  11.804   3.296  14.490
41151W        W 2440  33.540  40.305  14.819
41152W        W 2441  13.657  20.635  10.605
41153W        W 2442  14.322   8.675   1.365
41154W        W 2443  25.041   5.363  14.461
41155W        W 2444  13.126  26.170  11.517
41156W        W 2445  16.702  11.217   0.314
41157W        W 2446  42.292  13.792  13.880
41158W        W 2447   6.346  40.961  11.927
41159W        W 2448  11.646  32.024   0.281
41160W        W 2449  32.460  26.065  14.797
41161W        W 2450  24.072  43.421   0.317
41162W        W 2451  39.949  14.689   4.743
41163W        W 2452  36.490  21.754   2.872
41164W        W 2453  18.279  28.641   0.732
41165W        W 2454  30.945  40.967  12.450
41166W        W 2455   6.184  12.355  12.972
41167W        W 2456   7.210  14.660  10.411
41168W        W 2457  40.985  12.331   2.744
41169W        W 2458  12.122  40.336   2.191
41170W        W 2459  25.122  38.059  14.326
41171W        W 2460  26.116   5.325  10.519
41172W        W 2461   3.319   9.365   1.243
41173W        W 2462  30.164  33.505  12.851
41174W        W 2463  18.159  31.029  14.437
41175W        W 2464  29.103  37.921  11.937
41176W        W 2465  18.092   9.361  10.490
41177W        W 2466  36.083   5.201  12.967
41178W        W 2467  23.124  26.035  12.904
41179W        W 2468  22.236  16.276  14.803
41180W        W 2469  15.671  37.086  13.007
41181W        W 2470  24.143  28.086   4.143
41182W        W 2471  35.468  44.866   1.437
41183W        W 2472  37.358  11.362  10.028
41184W        W 2473  29.120   5.884   2.286
41185W        W 2474  28.470  36.472   3.735
41186W        W 2475  42.801  35.528  11.481
41187W        W 2476  26.528  32.025  14.798
41188W        W 2477   9.389   3.257  10.922
41189W        W 2478  20.216  42.869   1.810
41190W        W 2479  22.236  19.761   0.865
41191W        W 2480  13.310  24.628  11.473
41192W        W 2481   4.316  22.674   0.911
41193W        W 2482  42.884  24.184  11.462
41194W        W 2483  40.986  28.173   3.852
41195W        W 2484   0.917   0.854   2.705
41196W        W 2485  16.315  25.986  11.612
41197W        W 2486  28.971  32.959   0.296
41198W        W 2487  43.840   3.399  13.380
41199W        W 2488  34.883  44.924  12.495
41200W        W 2489  31.570  40.832  13.839
41201W        W 2490  25.058  28.094  12.405
41202W        W 2491  23.517  23.040   3.289
41203W        W 2492  39.496  24.979   2.735
41204W        W 2493  26.183   6.367   0.819
41205W        W 2494  26.951  42.450  12.088
41206W        W 2495  31.938   7.230   1.736
41207W        W 2496  12.242  35.901  10.498
41208W        W 2497  20.054  37.357   1.872
41209W        W 2498  31.123  40.508   3.675
41210W        W 2499   6.254  33.962  13.331
41211W        W 2500  39.437   0.901   0.786
41212W        W 2501   1.749  39.339  11.938
41213W        W 2502  21.204  35.503  14.969
41214W        W 2503  14.675  24.645   4.142
41215W        W 2504  28.649  21.620   5.317
41216W        W 2505  15.126   5.247   4.672
41217W        W 2506  17.174   6.406  10.544
41218W        W 2507  11.760   8.362  10.888
41219W        W 2508  27.689  41.522   0.812
41220W        W 2509  31.578  44.259  11.496
41221W        W 2510  41.418  16.712   2.781
41222W        W 2511  16.788  20.245  12.567
41223W        W 2512  43.784  21.024   0.289
41224W        W 2513  26.112  30.549   4.641
41225W        W 2514   6.774  27.017  11.125
41226W        W 2515  11.789  36.392  14.966
41227W        W 2516  38.848  21.092   0.316
41228W        W 2517   7.869  37.852   0.458
41229W        W 2518  11.761  22.670   4.681
41230W        W 2519  12.713  36.887   3.361
41231W        W 2520  15.116  27.456  13.988
41232W        W 2521  12.157  30.041   0.858
41233W        W 2522  17.301  17.802   3.156
41234W        W 2523  30.489  41.416   0.449
41235W        W 2524  33.941  40.891  10.636
41236W        W 2525  41.943   1.738   0.812
41237W        W 2526  14.118  38.537  14.961
41238W        W 2527  33.920  29.624  12.401
41239W        W 2528  42.889  40.525  10.485
41240W        W 2529  29.583   8.348  14.498
41241W        W 2530  34.014  14.266   0.266
41242W        W 2531  40.548   1.788   4.133
41243W        W 2532  43.861  36.473  14.359
41244W        W 2533  18.092  22.689   0.729
41245W        W 2534  19.608  43.454  14.282
41246W        W 2535   5.232  32.896  12.907
41247W        W 2536  31.896   1.355  14.800
41248W        W 2537  24.157  35.455   1.339
41249W        W 2538   3.858   6.328   2.191
41250W        W 2539  31.002  39.316  13.990
41251W        W 2540   7.814   9.738  11.377
41252W        W 2541  14.112   4.777  13.920
41253W        W 2542  16.097  31.417  12.454
41254W        W 2543  34.881  43.510  11.078
41255W        W 2544  33.097  35.945  11.906
41256W        W 2545  36.072  35.363  10.469
41257W        W 2546  29.487  26.009   2.242
41258W        W 2547  31.429  23.614  11.980
41259W        W 2548   6.912  18.592   0.339
41260W        W 2549  26.951   4.719   1.716
41261W        W 2550   6.836  27.514  13.855
41262W        W 2551   1.916  36.883   0.390
41263W        W 2552  32.411   9.857   2.294
41264W        W 2553  34.896  17.269  14.396
41265W        W 2554   2.730  28.975   2.848
41266W        W 2555  26.472  12.247  13.339
41267W        W 2556   6.350  33.968   3.641
41268W        W 2557  31.142   8.296   3.310
41269W        W 2558  44.771  13.785   2.325
41270W        W 2559   0.338   9.307  14.512
41271W        W 2560   6.766  37.408  11.113
41272W        W 2561  27.048  44.261  10.535
41273W        W 2562  17.649  39.920  12.968
41274W        W 2563  25.063  27.127  14.349
41275W        W 2564   1.413  25.594   2.782
41276W        W 2565  31.004   6.776   0.905
41277W        W 2566  15.242   2.838   4.136
41278W        W 2567  41.831  11.830   3.269
41279W        W 2568  39.485   3.748  12.551
41280W        W 2569  17.254  31.612   1.891
41281W        W 2570   0.964  30.915  13.339
41282W        W 2571  25.086  12.324   1.377
41283W        W 2572  35.914   2.290   1.337
41284W        W 2573  17.741   5.812  14.789
41285W        W 2574  28.664  13.699  12.389
41286W        W 2575   8.225   5.726  11.014
41287W        W 2576  39.049   0.357   2.820
41288W        W 2577  35.540  32.630  13.496
41289W        W 2578  24.992   1.388  12.094
41290W        W 2579  15.632  43.833   3.160
41291W        W 2580  10.382  26.563   0.407
41292W        W 2581   4.401  21.153   2.336
41293W        W 2582  16.785  17.235  14.275
41294W        W 2583  13.838   5.313   4.625
41295W        W 2584   9.394  12.769  12.050
41296W        W 2585   8.220  28.159   4.230
41297W        W 2586  18.215  12.163  13.904
41298W        W 2587  22.738  37.948  10.977
41299W        W 2588  13.310  23.202   3.269
41300W        W 2589  19.264  21.112  13.501
41301W        W 2590  19.665  19.574   2.771
41302W        W 2591  40.905  43.277   1.339
41303W        W 2592  38.466  41.324   3.261
41304W        W 2593  17.218  38.032   0.357
41305W        W 2594   3.863  35.066  11.484
41306W        W 2595  29.134  17.069   2.754
41307W        W 2596  34.554  17.275  13.493
41308W        W 2597  26.963  15.803   1.430
41309W        W 2598   5.836  27.153  10.934
41310W        W 2599  27.980  13.177  10.411
41311W        W 2600   3.228  39.870   3.265
41312W        W 2601  33.551  22.146  10.070
41313W        W 2602  42.818  15.223   2.376
41314W        W 2603  17.151  10.264  10.918
41315W        W 2604   1.370   4.783   2.692
41316W        W 2605  43.891  33.382   2.883
41317W        W 2606  13.780  33.907  11.037
41318W        W 2607   1.301  42.325   4.694
41319W        W 2608   1.858  29.490   0.773
41320W        W 2609   7.245   6.364   4.239
41321W        W 2610  38.844   5.339   0.293
41322W        W 2611   0.456  34.525   1.405
41323W        W 2612   6.193  35.011  13.356
41324W        W 2613   3.397  33.473  14.016
41325W        W 2614  30.152   8.173  10.138
41326W        W 2615  19.182  15.088   3.303
41327W        W 2616  23.005   4.417   0.428
41328W        W 2617  42.831   9.717  11.515
41329W        W 2618   7.353  28.174  14.496
41330W        W 2619  14.777   2.877  11.126
41331W        W 2620  42.887  44.007  14.465
41332W        W 2621   3.373  10.215   4.654
41333W        W 2622  25.041  23.080  11.898
41334W        W 2623  29.460   3.359   4.742
41335W        W 2624   2.891  18.187  13.511
41336W        W 2625  12.759  44.444  14.444
41337W        W 2626  10.700  21.233   4.733
41338W        W 2627  34.059  14.176   4.712
41339W        W 2628   3.840  44.438  12.859
41340W        W 2629  23.094  32.135   1.762
41341W        W 2630  25.579  35.486  13.993
41342W        W 2631  23.223  18.598  10.911
41343W        W 2632  41.465   5.885   3.264
41344W        W 2633  14.152  12.727   0.746
41345W        W 2634  44.315  13.203  13.491
41346W        W 2635  14.172   0.257   4.204
41347W        W 2636  18.587  44.428  14.843
41348W        W 2637  10.664  37.900   3.717
41349W        W 2638   8.732  28.974   4.617
41350W        W 2639   1.853   7.717  11.914
41351W        W 2640  34.896  33.610   5.224
41352W        W 2641   2.367  34.864   1.707
41353W        W 2642  18.222  13.169   2.363
41354W        W 2643  13.319   3.830   0.468
41355W        W 2644   8.378  17.250  13.536
41356W        W 2645  42.796  36.947  11.886
41357W        W 2646  41.878  40.019   3.679
41358W        W 2647  27.511  29.439   2.744
41359W        W 2648  20.609  21.604   0.884
41360W        W 2649  30.647   4.400  10.526
41361W        W 2650   5.727  27.188   2.327
41362W        W 2651   3.738  32.016  11.487
41363W        W 2652  40.536  12.161  12.900
41364W        W 2653  36.849   3.832  13.384
41365W        W 2654  26.024  18.182   1.306
41366W        W 2655  11.837  17.153   0.365
41367W        W 2656  32.964  18.225   3.255
41368W        W 2657  44.414   4.713  12.899
41369W        W 2658   8.299  16.296  11.482
41370W        W 2659  37.365  11.817   1.290
41371W        W 2660  11.354  36.905  10.574
41372W        W 2661  32.967  23.217   2.329
41373W        W 2662  26.617  14.684   4.771
41374W        W 2663  17.650  33.624   2.315
41375W        W 2664  36.421  17.756  12.061
41376W        W 2665   1.320  33.591   1.339
41377W        W 2666  28.532  12.316   2.775
41378W        W 2667  40.049  20.532  12.909
41379W        W 2668  34.871  42.862   0.249
41380W        W 2669   6.411  15.204   0.929
41381W        W 2670  36.513  39.922   0.323
41382W        W 2671  41.939  37.562   0.287
41383W        W 2672  38.378  27.153  11.005
41384W        W 2673  28.932  33.494   2.825
41385W        W 2674   4.895  37.437   1.305
41386W        W 2675  33.416  19.704   4.784
41387W        W 2676  18.675  30.010   3.188
41388W        W 2677  17.581  29.061   2.247
41389W        W 2678  15.147   8.737   4.173
41390W        W 2679   8.819  16.238  10.463
41391W        W 2680  16.183  27.197  11.074
41392W        W 2681  43.327  42.445  14.448
41393W        W 2682  29.592  19.094  11.519
41394W        W 2683  40.872   6.223   2.377
41395W        W 2684  36.355  12.217   1.849
41396W        W 2685  10.330  17.193   4.191
41397W        W 2686  41.798   1.947   0.258
41398W        W 2687  18.642  30.011   1.264
41399W        W 2688   0.839  25.138   2.835
41400W        W 2689   2.394   7.879   3.247
41401W        W 2690  23.198  19.212   1.340
41402W        W 2691   9.213  22.149  14.305
41403W        W 2692  13.169   2.403   0.465
41404W        W 2693  41.353  36.924   2.830
41405W        W 2694  28.018   3.228  12.404
41406W        W 2695  22.028  36.983  10.580
41407W        W 2696  17.646  17.286  13.991
41408W        W 2697  12.296  12.142   3.799
41409W        W 2698  41.855  15.751  12.940
41410W        W 2699  42.331  30.937   3.860
41411W        W 2700  36.901  17.583  11.914
41412W        W 2701  42.493   1.369   2.375
41413W        W 2702  12.117  22.521  11.068
41414W        W 2703  27.096  37.528   1.784
41415W        W 2704   2.358  27.981   4.270
41416W        W 2705  31.961  13.655  11.573
41417W        W 2706   6.320  22.513   0.898
41418W        W 2707  11.172   3.249  13.979
41419W        W 2708  10.299   0.369   3.261
41420W        W 2709  42.452  11.274  13.879
41421W        W 2710  21.206  38.400   4.622
41422W        W 2711   6.817  18.787   2.336
41423W        W 2712  34.892  10.302   1.214
41424W        W 2713  28.672  26.091  12.343
41425W        W 2714  18.685  16.217  14.277
41426W        W 2715   9.876  24.217   2.378
41427W        W 2716  18.649  15.700   4.283
41428W        W 2717  23.036   2.354   0.258
41429W        W 2718  22.668  13.135  10.600
41430W        W 2719  12.177  16.688   2.711
41431W        W 2720  38.557  13.337   2.208
41432W        W 2721  39.317  25.060  12.435
41433W        W 2722  33.991  30.082   4.793
41434W        W 2723  14.159  34.924  10.498
41435W        W 2724  11.868  36.870   0.446
41436W        W 2725  18.254  44.957   2.178
41437W        W 2726  19.665   3.235  10.898
41438W        W 2727  36.521  16.793  11.543
41439W        W 2728   8.232   0.907   1.934
41440W        W 2729  38.382  12.805  11.869
41441W        W 2730   3.305   4.804   2.673
41442W        W 2731  41.921   5.392  10.491
41443W        W 2732  29.963   6.398   2.739
41444W        W 2733  30.139  37.891   3.340
41445W        W 2734  39.319  39.838  12.356
41446W        W 2735  14.822   0.832   1.838
41447W        W 2736   0.279  24.000   2.344
41448W        W 2737  38.492  26.491  10.610
41449W        W 2738   5.248  37.422   0.744
41450W        W 2739  38.071  20.647  12.894
41451W        W 2740  14.104  35.513  12.866
41452W        W 2741  40.870  25.087  10.537
41453W        W 2742   9.312  29.451  13.867
41454W        W 2743  22.127  40.011  13.358
41455W        W 2744   0.865   3.711  13.945
41456W        W 2745  41.437  31.004   1.441
41457W        W 2746  30.909  29.052   4.333
41458W        W 2747  27.965  34.117  12.015
41459W        W 2748  34.538  41.788  10.937
41460W        W 2749  25.547  33.419  12.072
41461W        W 2750  19.248  36.445  10.562
41462W        W 2751  28.027  40.503  12.904
41463W        W 2752   5.430  34.065   2.243
41464W        W 2753   0.934  18.570  14.964
41465W        W 2754  44.900   7.308  12.548
41466W        W 2755  30.613  23.123  10.476
41467W        W 2756  44.976  38.004   0.811
41468W        W 2757   2.967  12.807  14.928
41469W        W 2758   1.911  20.110  14.819
41470W        W 2759   4.327  23.703  13.497
41471W        W 2760  34.590  15.791   0.254
41472W        W 2761  20.703  40.370  12.458
41473W        W 2762  32.072  34.992   0.863
41474W        W 2763  21.607  22.171  13.936
41475W        W 2764  26.627  23.115  14.916
41476W        W 2765  15.174  40.521   1.399
41477W        W 2766  16.601  28.988  13.350
41478W        W 2767   1.850   5.431   4.178
41479W        W 2768  21.658   4.846  14.998
41480W        W 2769   6.280  38.851   4.699
41481W        W 2770   8.304  15.729  11.086
41482W        W 2771  28.068  25.550  10.928
41483W        W 2772  44.815  43.904  13.010
41484W        W 2773   7.256  13.239   0.440
41485W        W 2774  13.315   9.812   2.407
41486W        W 2775  23.664  34.553   4.837
41487W        W 2776  29.981  12.617   4.346
41488W        W 2777  39.417  28.480  14.800
41489W        W 2778  33.891  30.469   3.255
41490W        W 2779  37.493   0.849  13.860
41491W        W 2780  20.747  32.054   4.662
41492W        W 2781   2.928  16.807   2.721
41493W        W 2782  23.000  28.027   4.718
41494W        W 2783  22.995  21.234  12.575
41495W        W 2784  18.686  15.766  11.428
41496W        W 2785  42.283   3.885   2.828
41497W        W 2786  33.386  20.168   4.631
41498W        W 2787  29.080  30.439   1.447
41499W        W 2788  34.079  28.014  12.431
41500W        W 2789   0.822  15.811   4.140
41501W        W 2790  24.001  42.475  10.519
41502W        W 2791  15.700   3.254  14.346
41503W        W 2792  28.160  34.096  12.908
41504W        W 2793  36.852  11.784  12.374
41505W        W 2794  38.007  24.118  11.569
41506W        W 2795   5.264  12.232   4.727
41507W        W 2796  28.174  12.218   4.711
41508W        W 2797   7.326  28.539  10.893
41509W        W 2798  44.845  15.273  11.920
41510W        W 2799  30.652   8.886   3.326
41511W        W 2800  39.872  42.993   1.233
41512W        W 2801  10.269   9.161   2.883
41513W        W 2802   1.912  10.816   2.364
41514W        W 2803  37.876  10.635  11.392
41515W        W 2804  18.230  44.372   4.153
41516W        W 2805  34.874  11.173  11.569
41517W        W 2806   7.797  23.507   3.322
41518W        W 2807   5.417  12.322   0.354
41519W        W 2808  20.166   4.216  13.406
41520W        W 2809  27.163  29.131  10.625
41521W        W 2810  17.652  12.171  13.428
41522W        W 2811   1.364  27.074   0.357
41523W        W 2812   0.395  20.663  12.490
41524W        W 2813  38.987  15.143   2.743
41525W        W 2814  13.814   7.887   4.286
41526W        W 2815  25.153   8.718   0.790
41527W        W 2816   6.805  32.435  11.983
41528W        W 2817  34.056  22.733   1.733
41529W        W 2818  21.543  40.890   1.714
41530W        W 2819  41.327  25.694   1.404
41531W        W 2820  31.944  18.766   5.233
41532W        W 2821  34.414  18.724   2.808
41533W        W 2822   1.943  26.499  13.487
41534W        W 2823  25.603  24.581   4.604
41535W        W 2824  41.384   3.266  12.061
41536W        W 2825  39.853   6.902  11.884
41537W        W 2826   6.296  31.561  14.318
41538W        W 2827  10.643   0.823   3.663
41539W        W 2828  37.853  17.158  13.372
41540W        W 2829  25.185   7.233   4.772
41541W        W 2830  44.266  17.800  11.901
41542W        W 2831  23.089  41.326  14.784
41543W        W 2832   7.242   9.838  13.529
41544W        W 2833   5.901  42.801   1.905
41545W        W 2834  41.991  10.339  12.088
41546W        W 2835  21.056  11.651  12.016
41547W        W 2836  12.775  13.271   1.215
41548W        W 2837  38.529  33.931  11.404
41549W        W 2838  14.799   4.857   3.295
41550W        W 2839   8.849   7.376  14.360
41551W        W 2840  21.028  20.562  11.048
41552W        W 2841  12.843  30.453   3.681
41553W        W 2842   5.382  41.459   0.455
41554W        W 2843  21.736   0.950  12.884
41555W        W 2844  37.482  29.665   0.379
41556W        W 2845  42.444  35.384  10.424
41557W        W 2846   0.281  42.400  12.459
41558W        W 2847  25.971  36.080  13.513
41559W        W 2848  26.040  25.151  12.482
41560W        W 2849  36.022  11.630  13.885
41561W        W 2850  15.706  39.455   1.726
41562W        W 2851  40.370  34.568   2.734
41563W        W 2852  25.170  16.733  12.421
41564W        W 2853  12.702  39.382   3.323
41565W        W 2854   7.393   4.335   0.921
41566W        W 2855   3.420   7.398   0.848
41567W        W 2856  29.520   4.214   2.283
41568W        W 2857   5.221  30.026   2.738
41569W        W 2858  44.865   1.273  13.491
41570W        W 2859  14.184  16.226  11.416
41571W        W 2860  40.390  19.051   4.709
41572W        W 2861  25.699  24.079  14.284
41573W        W 2862  16.603  30.483  11.375
41574W        W 2863   4.279  24.716   2.743
41575W        W 2864   6.722  18.675  10.945
41576W        W 2865  30.625  35.984   0.369
41577W        W 2866  23.624  36.003   1.301
41578W        W 2867  10.696  11.250   2.901
41579W        W 2868  44.801  24.546   1.848
41580W        W 2869  42.933  35.042  13.793
41581W        W 2870   8.678  26.064   3.672
41582W        W 2871  30.163  27.487  13.962
41583W        W 2872  25.615  35.362   2.893
41584W        W 2873   7.237  36.003   4.206
41585W        W 2874  21.537  15.761  12.854
41586W        W 2875  25.020  28.090   5.163
41587W        W 2876  29.174   2.731   1.267
41588W        W 2877  28.053  21.710   1.347
41589W        W 2878  33.403  19.764  10.951
41590W        W 2879  25.548  32.547  14.348
41591W        W 2880  15.205  30.050   1.908
41592W        W 2881  20.053  41.869  14.357
41593W        W 2882   4.259   7.808  14.289
41594W        W 2883  34.460  16.190   0.901
41595W        W 2884  30.580   8.292   0.418
41596W        W 2885  31.465  14.307  10.553
41597W        W 2886  15.175  42.399   4.195
41598W        W 2887  25.051  18.241   0.423
41599W        W 2888   0.485   9.345  11.417
41600W        W 2889  33.529  25.707   2.371
41601W        W 2890  40.961  41.304   3.669
41602W        W 2891   7.691  44.985   2.750
41603W        W 2892  18.570  38.897   5.248
41604W        W 2893  27.586  38.447  12.847
41605W        W 2894  24.081   7.399   2.257
41606W        W 2895  23.109  32.079  10.604
41607W        W 2896   6.200   6.247  11.599
41608W        W 2897   3.794   1.300   3.254
41609W        W 2898   6.407  44.429   1.331
41610W        W 2899  38.359  21.100   1.233
41611W        W 2900  16.619  34.578   1.694
41612W        W 2901  43.374  19.737  13.988
41613W        W 2902  27.597   9.826   1.776
41614W        W 2903  42.403  10.296  12.845
41615W        W 2904  35.105   5.764   4.153
41616W        W 2905  24.572  26.977  14.774
41617W        W 2906  25.516   7.393   4.327
41618W        W 2907  21.625   6.184   3.803
41619W        W 2908  11.713  27.645  13.809
41620W        W 2909  13.782   2.455  12.852
41621W        W 2910  35.962  44.007   4.268
41622W        W 2911  12.127   1.809   2.385
41623W        W 2912  41.410   4.392   0.958
41624W        W 2913  18.174  35.905  12.947
41625W        W 2914  35.955  18.157  11.552
41626W        W 2915  24.166  12.282   0.824
41627W        W 2916  39.060  32.897  11.903
41628W        W 2917  32.491   5.774   5.316
41629W        W 2918   0.350  20.035  10.404
41630W        W 2919   0.978  24.590   4.260
41631W        W 2920   8.718  38.926   1.251
41632W        W 2921  31.149  36.534  14.345
41633W        W 2922  39.843  15.597  14.021
41634W        W 2923   0.932   8.311   0.383
41635W        W 2924  40.357  31.624   3.853
41636W        W 2925  43.290  41.461  11.128
41637W        W 2926  42.903  19.600  11.566
41638W        W 2927  17.695  17.654  11.123
41639W        W 2928  40.321  22.143   1.395
41640W        W 2929  37.894  34.542   9.952
41641W        W 2930   1.372  34.386   0.783
41642W        W 2931  21.523  40.420   2.408
41643W        W 2932  43.386   9.721   1.851
41644W        W 2933  17.583  24.981  11.078
41645W        W 2934  31.440  17.706   2.815
41646W        W 2935  44.910  40.346  14.474
41647W        W 2936  25.172  22.066  10.577
41648W        W 2937  38.884  32.613  13.336
41649W        W 2938   4.271  43.357  12.938
41650W        W 2939   1.375  32.539   0.787
41651W        W 2940   7.372  41.437  10.608
41652W        W 2941  28.535  26.555  12.001
41653W        W 2942  35.596  27.464  13.955
41654W        W 2943   7.271  34.871  14.828
41655W        W 2944   1.909  41.381  11.609
41656W        W 2945  15.132  18.700  14.412
41657W        W 2946  25.075  10.799  12.841
41658W        W 2947   9.351  21.142  11.940
41659W        W 2948   1.885  36.440   1.326
41660W        W 2949   5.226  20.130  13.997
41661W        W 2950   8.309  23.997  14.985
41662W        W 2951  23.632  23.032   1.309
41663W        W 2952  20.171  12.840  12.032
41664W        W 2953   4.894   3.376   1.927
41665W        W 2954  29.619  26.096   0.385
41666W        W 2955   2.891   3.887   3.635
41667W        W 2956  28.145  41.833   0.343
41668W        W 2957   7.223  43.984  14.314
41669W        W 2958   2.927  32.025   0.464
41670W        W 2959  20.165  41.930   3.365
41671W        W 2960   9.164   1.817   4.263
41672W        W 2961   3.875  22.592   1.795
41673W        W 2962  36.353   6.840  13.310
41674W        W 2963  32.504  12.659  13.960
41675W        W 2964  27.965  40.027  14.950
41676W        W 2965  38.353   0.786   0.272
41677W        W 2966  33.090  36.447  13.341
41678W        W 2967  42.504  16.169   1.926
41679W        W 2968   3.882  29.152  14.499
41680W        W 2969  15.779  40.518  13.481
41681W        W 2970  28.973  39.975   0.265
41682W        W 2971   5.695   0.434   2.409
41683W        W 2972   5.397   4.355  11.980
41684W        W 2973  21.585  36.996   0.243
41685W        W 2974   6.867  17.110  11.538
41686W        W 2975   5.895  26.597  11.121
41687W        W 2976  30.460   6.849  13.437
41688W        W 2977  27.596   3.820  10.927
41689W        W 2978   2.324  21.724   4.631
41690W        W 2979   5.756  29.062  14.920
41691W        W 2980   5.733  38.455  14.788
41692W        W 2981   9.315  24.134   2.693
41693W        W 2982  35.059  19.058   4.335
41694W        W 2983  22.666  24.581   0.906
41695W        W 2984  14.681  15.227   1.430
41696W        W 2985  44.340  37.969  12.963
41697W        W 2986   7.708   3.243  12.540
41698W        W 2987  41.919  36.530   0.397
41699W        W 2988  23.579  27.977  12.951
41700W        W 2989  19.682  25.665   4.183
41701W        W 2990  11.660  42.479   3.303
41702W        W 2991  20.267  41.443   0.794
41703W        W 2992  24.640  41.522   4.729
41704W        W 2993  11.767   2.230  10.055
41705W        W 2994   0.450  15.236   3.287
41706W        W 2995   6.811  12.694  12.503
41707W        W 2996  24.149  28.084   3.369
41708W        W 2997  19.656  35.865  14.921
41709W        W 2998  19.132   7.744   2.182
41710W        W 2999  15.766   8.351  11.931
41711W        W 3000  38.329  37.469   3.705
41712W        W 3001  23.134  42.498  12.929
41713W        W 3002  14.149  13.838   2.783
41714W        W 3003  42.286  15.095   2.241
41715W        W 3004  20.725   6.387  12.484
41716W        W 3005   3.947  20.131   1.735
41717W        W 3006  31.514  10.820  11.424
41718W        W 3007  19.092   4.927  14.856
41719W        W 3008  27.182  29.637   1.443
41720W        W 3009  26.499  21.169  12.403
41721W        W 3010  25.481  29.067   2.822
41722W        W 3011   7.258  31.130   4.306
41723W        W 3012   8.318  38.931  11.610
41724W        W 3013  25.495  19.641  11.073
41725W        W 3014  25.015  39.882  12.834
41726W        W 3015  44.309  22.166   1.725
41727W        W 3016   7.901  42.938  14.019
41728W        W 3017   9.715  40.313  12.839
41729W        W 3018   4.435   6.903  12.931
41730W        W 3019   1.361  26.095   4.267
41731W        W 3020  33.493  13.305  12.389
41732W        W 3021  28.653  15.126  10.598
41733W        W 3022  21.626  33.913  11.986
41734W        W 3023  18.283  26.147   1.764
41735W        W 3024   7.197  37.539  13.547
41736W        W 3025  10.345   9.779   4.189
41737W        W 3026  41.988  22.613   5.144
41738W        W 3027  11.295  43.809  11.393
41739W        W 3028   2.720   5.716  11.082
41740W        W 3029   0.798  44.270   1.277
41741W        W 3030  28.586  39.508  11.408
41742W        W 3031  34.963   1.251  14.950
41743W        W 3032  16.719  38.437  10.001
41744W        W 3033  38.475  30.622  11.433
41745W        W 3034  21.747  16.303   0.267
41746W        W 3035  26.466  11.145  12.882
41747W        W 3036  22.571  35.575   0.901
41748W        W 3037  13.802  14.629  10.544
41749W        W 3038  14.284   2.761   2.326
41750W        W 3039  32.558  44.414   4.774
41751W        W 3040  23.004   9.213   1.408
41752W        W 3041   8.895  42.472   0.962
41753W        W 3042   0.761  33.552   2.207
41754W        W 3043  30.646   2.770   2.364
41755W        W 3044  12.346   6.229   0.780
41756W        W 3045  30.638  32.449   4.334
41757W        W 3046   3.380  15.816   0.819
41758W        W 3047  17.734  43.311  10.642
41759W        W 3048  10.168  17.656  12.513
41760W        W 3049  33.382  41.029   3.721
41761W        W 3050  21.697   2.953   1.838
41762W        W 3051  23.691  14.737   2.328
41763W        W 3052  27.977   1.790  11.534
41764W        W 3053  29.574   0.376  14.876
41765W        W 3054   8.855  41.851   0.423
41766W        W 3055  14.306  21.159  11.541
41767W        W 3056  16.597   0.854   4.636
41768W        W 3057  35.560  21.674  12.372
41769W        W 3058   3.910  32.443   4.629
41770W        W 3059  30.537  38.563  14.987
41771W        W 3060  10.150  10.754   4.623
41772W        W 3061   7.809  41.986  13.944
41773W        W 3062   8.247  22.585  14.474
41774W        W 3063  17.666  42.973   3.200
41775W        W 3064   2.388  26.520  13.000
41776W        W 3065  22.702  41.957   1.748
41777W        W 3066  25.212  43.313   2.795
41778W        W 3067  12.324  39.026   4.777
41779W        W 3068   3.235   8.718  12.480
41780W        W 3069   2.784  34.043  10.486
41781W        W 3070  35.486  40.978   2.757
41782W        W 3071   1.325  40.466   0.325
41783W        W 3072  28.165  28.479   2.305
41784W        W 3073  14.157  28.527  13.375
41785W        W 3074  14.246  11.171  11.583
41786W        W 3075  44.265   0.823  11.943
41787W        W 3076  21.063  40.041   0.726
41788W        W 3077  16.152  12.766   3.346
41789W        W 3078  44.501  20.548   0.395
41790W        W 3079  24.100   5.764  14.867
41791W        W 3080  44.804  27.064   4.654
41792W        W 3081  40.909  10.745  11.905
41793W        W 3082  31.132   9.868  14.314
41794W        W 3083  12.327  43.809   4.246
41795W        W 3084   1.882  36.375   0.423
41796W        W 3085  20.066  28.151   4.167
41797W        W 3086  34.592  39.415  13.380
41798W        W 3087  43.279   0.839  10.904
41799W        W 3088  27.995  25.077  13.409
41800W        W 3089  25.107  39.409  12.081
41801W        W 3090   2.255   0.317  11.592
41802W        W 3091  16.657   2.345  12.560
41803W        W 3092  15.748  28.572  14.808
41804W        W 3093  10.803   5.351   3.670
41805W        W 3094  19.735  18.549   0.304
41806W        W 3095  19.050  10.741  14.027
41807W        W 3096  21.542  37.362  11.876
41808W        W 3097  19.113  36.055  14.842
41809W        W 3098  23.985  33.012   1.709
41810W        W 3099  22.565  40.544   0.271
41811W        W 3100  25.113  43.881   0.954
41812W        W 3101  35.376  26.652   0.801
41813W        W 3102  10.240  17.797  13.929
41814W        W 3103  20.083  23.723  12.984
41815W        W 3104  43.789  16.080  11.550
41816W        W 3105  42.501  41.452  14.474
41817W        W 3106   3.335  42.467   4.635
41818W        W 3107  38.879  27.472  12.502
41819W        W 3108  38.477  20.538  12.980
41820W        W 3109   6.319   6.813   9.932
41821W        W 3110  37.567  39.037  13.829
41822W        W 3111  41.805  34.495  10.534
41823W        W 3112  29.588  16.696  14.011
41824W        W 3113   6.344  11.363  11.527
41825W        W 3114  12.118  29.168  12.476
41826W        W 3115  29.986  26.075   1.417
41827W        W 3116  22.997  12.719  11.865
41828W        W 3117  37.868  42.522   3.219
41829W        W 3118  21.136  37.504  14.302
41830W        W 3119  38.024  11.153   4.308
41831W        W 3120  36.899  37.359   0.378
41832W        W 3121  10.348  23.733  12.416
41833W        W 3122  14.212  36.092  12.824
41834W        W 3123   9.797   3.416  13.474
41835W        W 3124  31.961   1.449  11.381
41836W        W 3125  13.129   1.264   1.244
41837W        W 3126  23.715   7.835   3.162
41838W        W 3127   1.900   5.265   1.921
41839W        W 3128   8.239   9.661   1.750
41840W        W 3129  35.983  20.142  13.794
41841W        W 3130  44.778  41.335   2.290
41842W        W 3131  33.552   5.398   2.415
41843W        W 3132  15.224   5.914   2.327
41844W        W 3133  12.841  37.449   5.632
41845W        W 3134  12.222  35.513   3.734
41846W        W 3135  13.702  26.160   1.310
41847W        W 3136  19.603  44.448   0.893
41848W        W 3137   4.261  27.451  10.975
41849W        W 3138  28.571  11.629   4.278
41850W        W 3139  35.929  14.735   1.909
41851W        W 3140  17.619  28.071   0.940
41852W        W 3141   1.917   6.289   1.829
41853W        W 3142  36.411  11.711   1.818
41854W        W 3143  12.144   0.404  12.985
41855W        W 3144  44.410   1.792  11.575
41856W        W 3145  42.844   8.195   3.702
41857W        W 3146  35.955   7.216   4.625
41858W        W 3147  36.423  39.477   0.273
41859W        W 3148  40.815  19.105  14.993
41860W        W 3149  43.931  28.993   4.135
41861W        W 3150  43.894  20.700   0.449
41862W        W 3151  39.997  24.036  10.983
41863W        W 3152  22.179  29.629  13.961
41864W        W 3153   3.453  14.801  10.426
41865W        W 3154  16.753  15.278   2.219
41866W        W 3155  18.071  26.159  13.035
41867W        W 3156  21.226  13.787  10.593
41868W        W 3157  36.469  30.540   1.448
41869W        W 3158   3.797   5.726   3.818
41870W        W 3159  17.244  43.880  11.431
41871W        W 3160  37.833  17.069   2.795
41872W        W 3161  42.996  25.706   2.278
41873W        W 3162  21.167   8.406   0.825
41874W        W 3163  15.098  23.555  12.954
41875W        W 3164  34.549  10.859  10.552
41876W        W 3165   6.791  24.093   0.798
41877W        W 3166  29.021  31.113  13.478
41878W        W 3167  16.578  36.409   3.332
41879W        W 3168   5.890   7.702   1.929
41880W        W 3169  34.566  38.510   2.696
41881W        W 3170   5.279   1.960  11.000
41882W        W 3171  30.138  27.461  14.885
41883W        W 3172   5.853  13.620  14.308
41884W        W 3173  12.361  38.012  12.453
41885W        W 3174  34.016   5.861  12.580
41886W        W 3175  35.871  44.315   4.776
41887W        W 3176  11.784  10.698  11.997
41888W        W 3177  42.946  31.437  14.477
41889W        W 3178  42.995  44.265   1.864
41890W        W 3179   1.290  24.630  11.871
41891W        W 3180  44.386   3.446   2.828
41892W        W 3181  36.943  23.530   3.331
41893W        W 3182  14.721  41.912  12.574
41894W        W 3183   6.266  32.042  13.398
41895W        W 3184   6.247  39.810   4.707
41896W        W 3185   1.969  37.402  12.442
41897W        W 3186  24.142   7.779   3.319
41898W        W 3187  43.992  32.973  12.449
41899W        W 3188  14.155  32.506  12.046
41900W        W 3189   8.834   0.418  12.402
41901W        W 3190  19.725  21.545  12.564
41902W        W 3191  44.975  44.881   2.269
41903W        W 3192  42.504  31.126   1.281
41904W        W 3193  29.553  26.685   3.866
41905W        W 3194   3.442  26.138   3.317
41906W        W 3195  36.901  28.471  12.576
41907W        W 3196   5.704  32.520  14.854
41908W        W 3197   1.978   6.195  14.942
41909W        W 3198  22.126  14.279   3.246
41910W        W 3199  13.781   5.410   4.189
41911W        W 3200  41.789  32.998  14.951
41912W        W 3201  42.824  40.905   1.348
41913W        W 3202  33.071   7.378  10.519
41914W        W 3203  31.446  21.172   4.624
41915W        W 3204  22.199  44.783  14.900
41916W        W 3205  15.823   6.289  13.995
41917W        W 3206   3.396  26.202   0.464
41918W        W 3207  23.224  24.722   3.731
41919W        W 3208  25.072  17.230   3.734
41920W        W 3209   5.285  39.424   3.287
41921W        W 3210   6.735  11.671   4.810
41922W        W 3211   9.246  19.552   3.679
41923W        W 3212  20.217  22.671   2.219
41924W        W 3213  31.527  38.342  10.572
41925W        W 3214   3.303  12.817   3.719
41926W        W 3215  44.262  30.052   5.216
41927W        W 3216  16.076   7.226   2.308
41928W        W 3217  25.519  10.781   3.731
41929W        W 3218  10.667  31.900   3.748
41930W        W 3219  39.428  41.845  11.104
41931W        W 3220  26.192  30.531   3.686
41932W        W 3221  40.811  41.994   3.257
41933W        W 3222  17.777  29.479  14.852
41934W        W 3223   6.922   0.338   3.351
41935W        W 3224  40.331  36.907  12.530
41936W        W 3225  41.031  30.618  14.399
41937W        W 3226  16.631  11.783  10.912
41938W        W 3227  33.568  37.001   0.401
41939W        W 3228  34.599   7.290   0.338
41940W        W 3229  17.665   0.903  13.539
41941W        W 3230  44.943  24.072  13.386
41942W        W 3231  32.980  42.786  11.882
41943W        W 3232  15.238   8.689  14.399
41944W        W 3233  14.255   4.699  14.342
41945W        W 3234  22.640  24.595  11.587
41946W        W 3235  36.429  29.517  10.088
41947W        W 3236   2.337   6.357   3.679
41948W        W 3237  12.291  44.791   0.402
41949W        W 3238  35.533  15.327   0.738
41950W        W 3239   3.746   0.921   0.943
41951W        W 3240   4.780  22.042   0.408
41952W        W 3241  16.658  36.506   3.794
41953W        W 3242  28.665   3.836   3.727
41954W        W 3243  43.506  40.963   2.891
41955W        W 3244  42.846  26.498   4.220
41956W        W 3245  20.037  41.416  14.861
41957W        W 3246  29.079  23.009  12.351
41958W        W 3247  28.635  14.627   0.444
41959W        W 3248  25.609  27.073  13.341
41960W        W 3249  24.630  35.592  10.608
41961W        W 3250  10.285  30.603  11.945
41962W        W 3251  12.701  23.627   3.753
41963W        W 3252  25.063   0.959  13.872
41964W        W 3253  32.418  32.963  13.846
41965W        W 3254  38.425  14.191  10.161
41966W        W 3255   2.225  16.739   0.811
41967W        W 3256  27.501   7.854   3.234
41968W        W 3257  26.524  32.631   3.315
41969W        W 3258  19.766  16.289  11.886
41970W        W 3259  37.459  23.722  13.415
41971W        W 3260  34.422  35.006  13.000
41972W        W 3261  38.883   1.870  14.806
41973W        W 3262  35.596   9.713  14.000
41974W        W 3263  24.483  37.027   2.263
41975W        W 3264  43.313  35.041  14.762
41976W        W 3265  42.418   7.386  14.375
41977W        W 3266   8.298   6.784   2.387
41978W        W 3267   8.788  42.020   3.829
41979W        W 3268  33.930  16.791   4.659
41980W        W 3269  32.900  10.288   2.257
41981W        W 3270  26.159  41.512   2.894
41982W        W 3271  30.105  24.197  11.476
41983W        W 3272  25.115  13.635   4.330
41984W        W 3273  27.111  39.557   3.706
41985W        W 3274  29.155  23.688  13.045
41986W        W 3275  12.725  23.583   2.229
41987W        W 3276   5.308  29.068  14.992
41988W        W 3277  40.952  37.893  14.918
41989W        W 3278   4.939  24.006   0.749
41990W        W 3279   8.788  38.960   2.740
41991W        W 3280  13.143   6.695   4.144
41992W        W 3281   9.250  25.616   5.218
41993W        W 3282  30.988  41.879   2.900
41994W        W 3283  21.652  43.827  14.508
41995W        W 3284  22.128  20.590   0.921
41996W        W 3285  27.158  19.114  12.406
41997W        W 3286  36.435  37.962   2.280
41998W        W 3287  19.130  43.323  11.532
41999W        W 3288  19.241   4.754  14.030
42000W        W 3289  39.503  10.342  13.791
42001W        W 3290  14.735  35.567  10.926
42002W        W 3291   0.273  38.385  10.590
42003W        W 3292   5.338  12.337  14.298
42004W        W 3293  38.057  17.783   1.259
42005W        W 3294  19.698  19.135   4.275
42006W        W 3295  38.872  29.007   0.471
42007W        W 3296  40.016   9.180   2.180
42008W        W 3297  41.431  40.392   1.784
42009W        W 3298  36.885  35.533   4.827
42010W        W 3299  17.087   1.405  14.280
42011W        W 3300   7.202  19.564  13.526
42012W        W 3301  13.751  43.367  13.033
42013W        W 3302  30.910  42.411   4.746
42014W        W 3303  19.657  23.231   0.833
42015W        W 3304   2.449  20.538  14.798
42016W        W 3305  24.214  20.707  10.969
42017W        W 3306   6.248   5.407  10.040
42018W        W 3307   8.761  29.607  13.545
42019W        W 3308  31.029  16.106   4.745
42020W        W 3309  24.663  22.239  13.315
42021W        W 3310  33.132   0.899   3.262
42022W        W 3311  23.212   6.743  12.437
42023W        W 3312   9.670  37.034  14.032
42024W        W 3313   1.259  31.630  10.599
42025W        W 3314  13.794  29.152   3.678
42026W        W 3315  39.470  35.933   2.835
42027W        W 3316   7.901  21.129  12.339
42028W        W 3317  10.637  29.172   2.332
42029W        W 3318  44.397   2.955   3.367
42030W        W 3319  23.048  21.518  12.574
42031W        W 3320  34.099  13.614   1.382
42032W        W 3321   0.456  36.026   4.777
42033W        W 3322  13.126  16.149  12.476
42034W        W 3323  30.530  41.412   2.266
42035W        W 3324  14.699  26.024   2.282
42036W        W 3325  10.789  37.900   1.849
42037W        W 3326  34.973  14.634  11.988
42038W        W 3327   1.957  18.642   3.736
42039W        W 3328   6.260  19.552  11.595
42040W        W 3329  24.095  20.527  14.298
42041W        W 3330  27.534  22.084   3.814
42042W        W 3331  21.228   6.838  13.818
42043W        W 3332   2.386  35.087  12.507
42044W        W 3333   6.192  42.452   1.815
42045W        W 3334  42.948  10.364   3.373
42046W        W 3335  29.984  26.600  11.554
42047W        W 3336  22.711   5.387  11.509
42048W        W 3337  10.362   6.883   2.326
42049W        W 3338  18.568  18.661   3.235
42050W        W 3339  28.563  33.925   2.304
42051W        W 3340  16.777  20.584   9.629
42052W        W 3341  20.215  20.595   1.295
42053W        W 3342  16.315  39.984  10.637
42054W        W 3343   7.190  37.437  14.011
42055W        W 3344  20.641  25.582   1.796
42056W        W 3345  40.002  24.525   1.744
42057W        W 3346  10.860  10.643  10.510
42058W        W 3347   7.689  14.643   3.851
42059W        W 3348  25.615  11.664  11.612
42060W        W 3349  22.734  34.403   1.423
42061W        W 3350  21.052  11.675   0.399
42062W        W 3351  27.015  33.931  12.421
42063W        W 3352   9.794  27.988   2.375
42064W        W 3353  40.833  12.794  11.516
42065W        W 3354  31.621  37.444   2.248
42066W        W 3355  20.586  21.086   4.704
42067W        W 3356   9.204  41.477  13.005
42068W        W 3357  44.472  16.098  10.404
42069W        W 3358  14.201  36.533   1.215
42070W        W 3359  19.176  37.507  11.962
42071W        W 3360  39.953  26.480  13.456
42072W        W 3361   2.337   0.466   2.213
42073W        W 3362  29.619   8.860   5.775
42074W        W 3363   3.391  40.382  14.871
42075W        W 3364   2.905   4.875   3.749
42076W        W 3365   3.802  35.389  13.009
42077W        W 3366   3.389  28.934  11.986
42078W        W 3367  21.728  21.048  11.410
42079W        W 3368   8.819  41.406  12.378
42080W        W 3369  15.597   1.927  13.863
42081W        W 3370   4.368  37.391  11.047
42082W        W 3371  11.673  21.598   2.858
42083W        W 3372  41.523  21.108  12.382
42084W        W 3373  12.701   1.305  11.951
42085W        W 3374  13.751  31.131  12.942
42086W        W 3375  12.763  33.403   2.690
42087W        W 3376  39.861  12.698  13.022
42088W        W 3377  16.191  16.222  12.386
42089W        W 3378  20.085  42.909  10.624
42090W        W 3379  27.073  13.191  11.894
42091W        W 3380  11.362  13.212  11.026
42092W        W 3381  28.012  32.041  11.532
42093W        W 3382  37.494  29.927   0.373
42094W        W 3383  11.331  36.474  14.420
42095W        W 3384   6.786  37.848  13.443
42096W        W 3385  21.147  17.562  12.408
42097W        W 3386  16.602  37.348   0.820
42098W        W 3387  23.579  15.675   0.343
42099W        W 3388  10.324   0.398   0.799
42100W        W 3389  25.077  30.968   4.794
42101W        W 3390  21.242  27.577   2.327
42102W        W 3391  15.685  21.721   1.807
42103W        W 3392  34.465  41.942   0.242
42104W        W 3393  21.031   1.305   4.750
42105W        W 3394  30.961   9.301  12.993
42106W        W 3395   0.446  43.275   2.277
42107W        W 3396  17.114  15.610  10.155
42108W        W 3397  24.612  30.025   2.766
42109W        W 3398  13.815   8.804  12.944
42110W        W 3399  18.275  13.742  13.998
42111W        W 3400  44.981  39.500   3.751
42112W        W 3401  42.514  17.736   1.393
42113W        W 3402  23.012  34.537  14.883
42114W        W 3403  26.640   6.244  12.355
42115W        W 3404  34.439  29.560   2.674
42116W        W 3405  42.411   5.787   2.693
42117W        W 3406  34.117  33.495  14.366
42118W        W 3407  22.563  37.446   2.854
42119W        W 3408  23.497  21.087  12.527
42120W        W 3409   7.323   0.864   4.291
42121W        W 3410  28.054   6.710  12.369
42122W        W 3411  29.068  25.585  10.462
42123W        W 3412   2.302  27.031   3.715
42124W        W 3413  12.230  34.099   5.174
42125W        W 3414  40.951   7.879   2.852
42126W        W 3415  24.696   4.700  13.046
42127W        W 3416  14.610  41.990   9.951
42128W        W 3417  10.817  40.959  13.058
42129W        W 3418  33.109  39.373   3.289
42130W        W 3419  16.670  25.967   0.794
42131W        W 3420  43.490  21.541   2.293
42132W        W 3421  32.533  31.008  11.510
42133W        W 3422  15.119   0.880   4.214
42134W        W 3423  42.983   1.874   3.258
42135W        W 3424  30.146  27.106  11.435
42136W        W 3425  28.173  24.601  14.447
42137W        W 3426  28.442  14.834  10.993
42138W        W 3427  38.525  26.555   0.895
42139W        W 3428  42.855  23.545   1.402
42140W        W 3429  35.368   7.852   4.711
42141W        W 3430  16.761  30.570  14.314
42142W        W 3431  44.332  22.066  13.449
42143W        W 3432   7.405  17.627   1.213
42144W        W 3433  20.264   9.860  12.881
42145W        W 3434  28.082  36.476   0.878
42146W        W 3435   1.933  30.924  12.966
42147W        W 3436  25.674  10.661   0.730
42148W        W 3437  34.461  31.927  13.059
42149W        W 3438  43.285  10.786   5.715
42150W        W 3439   9.172  37.874  13.809
42151W        W 3440  10.318   2.351   3.200
42152W        W 3441  16.636  33.031  11.896
42153W        W 3442  41.912  39.982  11.863
42154W        W 3443  44.440   9.779   3.841
42155W        W 3444  10.871   3.750   9.954
42156W        W 3445  26.200   6.810   3.267
42157W        W 3446  36.552   5.773   0.335
42158W        W 3447   0.357  30.592   0.308
42159W        W 3448  44.867  14.254  14.473
42160W        W 3449  44.407  37.376   3.632
42161W        W 3450  42.519  44.941   0.921
42162W        W 3451  17.234  37.413   1.373
42163W        W 3452   8.333  42.875  14.937
42164W        W 3453  13.609  30.135   1.868
42165W        W 3454  13.711  17.297  10.638
42166W        W 3455  21.107  21.515   0.270
42167W        W 3456  37.351  27.603  12.065
42168W        W 3457   1.916   7.908  13.422
42169W        W 3458  25.607  15.665   4.139
42170W        W 3459  21.034  14.617  13.932
42171W        W 3460  21.689  23.686  10.084
42172W        W 3461  17.597  33.446   2.859
42173W        W 3462  30.113   4.894   4.346
42174W        W 3463  39.044  18.265   4.220
42175W        W 3464  28.453   4.209  13.838
42176W        W 3465  16.619  11.172  13.963
42177W        W 3466   1.403  10.834  12.869
42178W        W 3467  13.232  33.486   0.788
42179W        W 3468   2.370  30.611  12.481
42180W        W 3469  12.824  43.481  13.797
42181W        W 3470  41.374  43.957  12.415
42182W        W 3471  33.968   3.843   0.272
42183W        W 3472  18.134   9.823   0.858
42184W        W 3473   2.384  21.585  14.811
42185W        W 3474  33.601  21.170   4.818
42186W        W 3475  40.525  25.570  10.441
42187W        W 3476  29.008  24.594   0.745
42188W        W 3477   0.818  38.885  12.485
42189W        W 3478   8.845  44.445  14.009
42190W        W 3479  21.618  20.742  11.416
42191W        W 3480  42.943  13.237   0.930
42192W        W 3481  20.082  34.016  12.558
42193W        W 3482  28.617  36.348  13.003
42194W        W 3483   6.827  29.977  13.531
42195W        W 3484  11.754  31.141  14.304
42196W        W 3485  21.087  14.780  13.478
42197W        W 3486   3.789  25.628  13.482
42198W        W 3487   4.213  44.439   2.738
42199W        W 3488   4.888  22.140  10.410
42200W        W 3489   2.312  34.477  11.420
42201W        W 3490  42.305  14.775   4.701
42202W        W 3491  19.222   1.740   3.262
42203W        W 3492  41.875   2.293  11.906
42204W        W 3493  19.635  16.797   0.356
42205W        W 3494   0.932  21.159  11.573
42206W        W 3495  32.082  40.362   1.902
42207W        W 3496  35.062   3.951   1.410
42208W        W 3497  24.106  10.201  14.343
42209W        W 3498  26.670  11.202  10.546
42210W        W 3499  10.719  23.229  11.495
42211W        W 3500  38.367  16.642  13.446
42212W        W 3501  30.021  19.241  12.463
42213W        W 3502  27.172   6.850   0.872
42214W        W 3503  11.359  10.205   0.267
42215W        W 3504  30.514  26.989   1.867
42216W        W 3505  21.092   4.714   1.325
42217W        W 3506  11.135  26.107  13.376
42218W        W 3507   5.715  23.087   4.627
42219W        W 3508   6.206  35.009  10.972
42220W        W 3509  22.670  11.719  13.974
42221W        W 3510  25.053  17.668   4.827
42222W        W 3511   6.401   3.230  13.827
42223W        W 3512   4.927  27.455   1.292
42224W        W 3513  30.984  17.233   3.697
42225W        W 3514  35.504  17.290   4.720
42226W        W 3515  20.177   7.336  13.912
42227W        W 3516  19.107  28.472  11.987
42228W        W 3517  42.939  39.325  11.497
42229W        W 3518  12.295  40.376   1.818
42230W        W 3519  21.100   3.272  14.992
42231W        W 3520   6.225   2.416  10.934
42232W        W 3521  36.365  40.836   2.804
42233W        W 3522  25.710  35.450  14.779
42234W        W 3523   9.658   1.870  10.514
42235W        W 3524  21.529  37.482  12.410
42236W        W 3525  23.718  21.145   5.300
42237W        W 3526  32.972   0.431   5.799
42238W        W 3527  18.760  35.464   3.795
42239W        W 3528   7.870  38.466  10.644
42240W        W 3529   6.872   9.656  13.339
42241W        W 3530  15.262  30.467   2.893
42242W        W 3531  35.053  40.969  11.384
42243W        W 3532  43.979   7.284   5.264
42244W        W 3533   8.273  15.098   0.320
42245W        W 3534  12.842  10.369   4.757
42246W        W 3535  44.819  18.634  10.626
42247W        W 3536  41.905  26.661  12.055
42248W        W 3537   0.803  32.632  14.883
42249W        W 3538   5.280  23.733   9.499
42250W        W 3539   6.721  19.715   1.449
42251W        W 3540  17.687  37.557  13.371
42252W        W 3541   7.835  42.309  13.951
42253W        W 3542  18.114   5.359  12.857
42254W        W 3543  24.153  40.365  11.571
42255W        W 3544  29.047  16.305   3.146
42256W        W 3545  36.979  22.209  13.450
42257W        W 3546  15.235   8.225  13.934
42258W        W 3547  23.230  35.554   4.241
42259W        W 3548  22.668  43.341  12.409
42260W        W 3549   7.230   3.922   3.161
42261W        W 3550  22.610   5.850  10.466
42262W        W 3551  38.075  42.958   1.853
42263W        W 3552  39.043  37.556  11.482
42264W        W 3553  26.182  31.009   3.253
42265W        W 3554   1.823  44.286   1.766
42266W        W 3555   5.244  24.149  14.987
42267W        W 3556   3.938  42.445   3.186
42268W        W 3557  16.086  18.071   3.243
42269W        W 3558  28.087  12.303  14.815
42270W        W 3559  11.349  33.592  10.979
42271W        W 3560  39.984  35.929   1.885
42272W        W 3561  28.085  18.059  11.504
42273W        W 3562  15.822   8.826  13.024
42274W        W 3563  35.930  36.993  12.075
42275W        W 3564  10.709  14.113  12.926
42276W        W 3565  37.404  33.471   2.693
42277W        W 3566  28.638  18.575   0.269
42278W        W 3567  40.377  12.622  12.414
42279W        W 3568  44.938  26.649  10.635
42280W        W 3569  21.711  44.486  11.485
42281W        W 3570  40.799  14.605   2.394
42282W        W 3571  29.097   0.397   0.244
42283W        W 3572   1.477  44.814   3.299
42284W        W 3573  18.066  33.554  13.908
42285W        W 3574  39.359  43.862   0.358
42286W        W 3575  18.130   3.430  11.391
42287W        W 3576   0.931  29.484   4.812
42288W        W 3577  41.834  17.145  14.319
42289W        W 3578  26.527   3.343  13.386
42290W        W 3579  32.532   1.301   4.204
42291W        W 3580  33.081  31.915   3.346
42292W        W 3581   6.376   9.222   1.846
42293W        W 3582  21.027  34.029   4.623
42294W        W 3583  41.940  36.423   3.767
42295W        W 3584  14.266   5.437   2.226
42296W        W 3585  29.100   3.351   3.778
42297W        W 3586  41.012  27.623   1.832
42298W        W 3587   0.845  32.898  10.585
42299W        W 3588  30.064  12.342   1.242
42300W        W 3589  40.316   7.813  14.499
42301W        W 3590   2.766  36.843  12.047
42302W        W 3591  10.731   6.730   1.695
42303W        W 3592  25.698   3.947  13.497
42304W        W 3593  37.415  35.945  10.491
42305W        W 3594   0.340  20.209   4.114
42306W        W 3595  31.983  14.145   2.322
42307W        W 3596  10.379  28.021   4.610
42308W        W 3597  34.900  10.374   4.715
42309W        W 3598  21.167  35.881  12.072
42310W        W 3599  40.419  34.922   4.644
42311W        W 3600  39.022  25.518  10.403
42312W        W 3601  14.635  20.654  14.816
42313W        W 3602  27.157  21.085   4.760
42314W        W 3603  28.675  27.990  14.316
42315W        W 3604   1.402  13.750  14.364
42316W        W 3605  18.619  28.147  10.412
42317W        W 3606  26.471  21.232   0.880
42318W        W 3607  15.694  16.101   0.784
42319W        W 3608  39.440   9.674   3.352
42320W        W 3609  41.510   6.786  13.337
42321W        W 3610  11.337  43.787   3.150
42322W        W 3611  13.772  22.148   0.406
42323W        W 3612  39.536   2.786  10.632
42324W        W 3613  10.206  28.951   3.282
42325W        W 3614  39.514  44.759   0.957
42326W        W 3615  23.150  39.014   0.307
42327W        W 3616  43.433  41.474   3.747
42328W        W 3617  29.955  21.044   4.787
42329W        W 3618  41.885  19.261  11.475
42330W        W 3619  44.425  37.836   5.094
42331W        W 3620  10.216  14.608   3.682
42332W        W 3621  14.330   2.390  12.825
42333W        W 3622  18.292  30.164   2.381
42334W        W 3623  44.762  39.487  11.899
42335W        W 3624  27.592   1.416  14.789
42336W        W 3625   6.722  42.426   3.825
42337W        W 3626  10.140   8.866  10.059
42338W        W 3627  12.815  30.125  12.056
42339W        W 3628  20.106  33.512   0.839
42340W        W 3629  21.656   3.300  11.448
42341W        W 3630  39.871  30.443   0.889
42342W        W 3631  26.521   4.288   1.702
42343W        W 3632   8.800  32.020  13.925
42344W        W 3633  32.018  28.043   3.670
42345W        W 3634  31.564  35.912   2.371
42346W        W 3635  32.473  13.295   2.765
42347W        W 3636  15.662  34.454   1.885
42348W        W 3637  33.461  34.905  10.909
42349W        W 3638  19.111   4.395  10.908
42350W        W 3639   3.417  18.101  12.847
42351W        W 3640  40.452  31.485   1.361
42352W        W 3641  14.817  37.045  13.522
42353W        W 3642   8.313  41.381   0.350
42354W        W 3643  29.030  13.273   1.284
42355W        W 3644   2.884  40.970   0.455
42356W        W 3645  27.544  19.565  11.404
42357W        W 3646  34.966  23.129   3.764
42358W        W 3647  37.441   7.671  11.582
42359W        W 3648  40.956   7.396  14.987
42360W        W 3649  22.242  32.967   2.684
42361W        W 3650   1.813  22.176   4.780
42362W        W 3651  21.622  16.075   4.689
42363W        W 3652   5.752   8.162   0.846
42364W        W 3653   8.398  29.051   1.705
42365W        W 3654  35.994  37.575  12.968
42366W        W 3655   5.844  15.268  13.796
42367W        W 3656  21.693   3.883  13.501
42368W        W 3657   6.265  14.715   0.885
42369W        W 3658  39.968  25.518  10.983
42370W        W 3659  32.461  21.586   2.216
42371W        W 3660  29.460  12.184   0.451
42372W        W 3661  35.071  37.464  13.536
42373W        W 3662  21.640  32.009  12.836
42374W        W 3663   4.448  42.903  12.365
42375W        W 3664  20.139  10.732  11.394
42376W        W 3665  16.779  11.306  12.881
42377W        W 3666  42.291  13.799  13.511
42378W        W 3667   9.347  21.675   4.159
42379W        W 3668   5.717  35.942  11.541
42380W        W 3669   6.204  18.123  14.275
42381W        W 3670   4.365  17.617   0.377
42382W        W 3671  27.952  10.264  12.852
42383W        W 3672  17.603  40.451  14.279
42384W        W 3673  32.079  42.842   3.209
42385W        W 3674   5.891  26.181  14.999
42386W        W 3675  19.179  35.046   0.907
42387W        W 3676   5.713  38.403  14.390
42388W        W 3677  30.043  17.235   2.396
42389W        W 3678  22.146  32.944  14.345
42390W        W 3679   7.305   3.397   4.748
42391W        W 3680  10.682  12.337  11.533
42392W        W 3681  33.886  21.567  11.602
42393W        W 3682  25.616  28.111   9.936
42394W        W 3683  13.171   9.720  14.917
42395W        W 3684   6.880  34.058   0.284
42396W        W 3685  41.528   3.935  14.417
42397W        W 3686  41.946  39.006  12.480
42398W        W 3687  43.773  27.100   2.281
42399W        W 3688  34.519  39.389   0.422
42400W        W 3689  43.915  11.199   9.523
42401W        W 3690  36.519  36.059   2.842
42402W        W 3691  37.838  33.479  10.412
42403W        W 3692  39.456  27.499   1.860
42404W        W 3693  37.568  34.543  12.867
42405W        W 3694  11.164  39.416  14.332
42406W        W 3695   9.383  38.928  14.380
42407W        W 3696  23.629   3.330   4.184
42408W        W 3697   9.287  15.298  11.392
42409W        W 3698  17.594  28.616  13.898
42410W        W 3699  24.527   0.477  12.537
42411W        W 3700  29.539  29.925   2.373
42412W        W 3701  35.603   0.463   3.715
42413W        W 3702  25.045  38.341   0.732
42414W        W 3703   3.378  28.552   3.357
42415W        W 3704   3.390  33.562  13.398
42416W        W 3705  14.702   1.270  14.459
42417W        W 3706  34.535  12.786   2.870
42418W        W 3707  25.658   1.796  12.873
42419W        W 3708  36.374   2.265  10.446
42420W        W 3709  40.044  28.050  11.894
42421W        W 3710   8.810   8.396  13.955
42422W        W 3711  12.205   9.327   0.269
42423W        W 3712  29.947   2.943  12.377
42424W        W 3713   6.262  22.543  12.378
42425W        W 3714  23.721  35.358  11.050
42426W        W 3715  19.099   5.795  11.612
42427W        W 3716  12.767  41.911  10.568
42428W        W 3717  29.441  18.272  11.381
42429W        W 3718  36.398  40.037  12.419
42430W        W 3719  24.096  34.033  11.959
42431W        W 3720  16.813  17.585  14.012
42432W        W 3721  27.041  34.395   2.723
42433W        W 3722   8.201  30.416   4.826
42434W        W 3723  16.109  14.770  12.014
42435W        W 3724  37.835   6.185   1.403
42436W        W 3725   1.254  42.779  11.930
42437W        W 3726  35.500  20.194  10.920
42438W        W 3727  27.134  34.054   3.799
42439W        W 3728  10.377  30.150  11.054
42440W        W 3729  17.556  40.403   1.242
42441W        W 3730  14.643   8.674   3.385
42442W        W 3731  34.870  28.117  13.902
42443W        W 3732  10.721  35.985  13.920
42444W        W 3733  31.486  35.388  10.511
42445W        W 3734  17.581  39.502   2.185
42446W        W 3735  31.480  34.105   2.339
42447W        W 3736  18.626  27.969  10.081
42448W        W 3737   3.291   0.483  12.994
42449W        W 3738  13.233  38.533   3.359
42450W        W 3739   1.288   6.308   4.675
42451W        W 3740  39.408  27.505   0.752
42452W        W 3741  15.216   9.701   1.876
42453W        W 3742  13.320   6.205  10.142
42454W        W 3743  18.295  27.974  13.352
42455W        W 3744  29.656   4.796   4.227
42456W        W 3745  20.124  28.100  13.828
42457W        W 3746  23.643   3.812   4.765
42458W        W 3747  36.442   3.240  14.032
42459W        W 3748   1.296  32.077  11.926
42460W        W 3749  42.985  26.660   0.889
42461W        W 3750   7.679   5.241  12.931
42462W        W 3751   0.969  36.985  10.996
42463W        W 3752  31.473  15.201   0.920
42464W        W 3753   9.272   8.402  13.318
42465W        W 3754  21.194  20.071  10.953
42466W        W 3755   7.397   1.313   3.832
42467W        W 3756  36.392  15.747  14.967
42468W        W 3757  39.942  33.915   2.239
42469W        W 3758  11.750  43.836   4.651
42470W        W 3759  17.708  38.986   3.868
42471W        W 3760  42.355  44.826  13.051
42472W        W 3761   0.489  13.233  12.533
42473W        W 3762  13.214   5.394  11.888
42474W        W 3763  13.243  30.629   9.935
42475W        W 3764  26.185  34.889   4.225
42476W        W 3765  24.216  38.073  11.463
42477W        W 3766   5.761  25.198  13.307
42478W        W 3767   1.379  35.569  10.490
42479W        W 3768  10.182  39.931  12.476
42480W        W 3769  40.485  28.069   1.228
42481W        W 3770  35.478   3.237   0.428
42482W        W 3771   3.238  17.648  12.571
42483W        W 3772   8.802  21.122  11.895
42484W        W 3773  37.451  43.820  12.046
42485W        W 3774  44.864   0.916  12.944
42486W        W 3775  22.574  15.743  12.938
42487W        W 3776  44.448  36.015  11.096
42488W        W 3777   6.216   0.358  11.591
42489W        W 3778   9.383  43.360  13.495
42490W        W 3779  34.898   7.854  13.398
42491W        W 3780   0.287  39.936   4.714
42492W        W 3781  13.245   9.716   1.854
42493W        W 3782  12.715  19.221  11.449
42494W        W 3783  18.666   6.320   2.277
42495W        W 3784  38.023  37.848   3.702
42496W        W 3785   4.781  31.505   4.662
42497W        W 3786   9.209  41.313  13.845
42498W        W 3787  24.503  12.619  10.628
42499W        W 3788  26.490   1.362   4.652
42500W        W 3789  28.007  34.583  10.953
42501W        W 3790  13.758   9.690  14.762
42502W        W 3791   0.817  12.217   3.702
42503W        W 3792  36.864  38.521  10.423
42504W        W 3793  24.057  28.125   2.251
42505W        W 3794  29.544  41.377  14.905
42506W        W 3795  41.810  25.970  10.607
42507W        W 3796  29.532  32.124   0.340
42508W        W 3797  34.537  27.561   0.457
42509W        W 3798   7.672   1.479   0.777
42510W        W 3799  15.277   5.392  12.390
42511W        W 3800  12.734  40.493  11.042
42512W        W 3801  44.349  10.255  14.016
42513W        W 3802  16.786  20.102  10.490
42514W        W 3803  44.856  28.005  12.373
42515W        W 3804  32.128   5.846   2.338
42516W        W 3805  38.820  38.962   5.200
42517W        W 3806  40.848  36.355   2.779
42518W        W 3807  40.040  22.080  10.547
42519W        W 3808  41.938   2.847   4.784
42520W        W 3809   6.404  11.729   4.343
42521W        W 3810  39.023  20.643  13.428
42522W        W 3811  12.210  21.746   3.645
42523W        W 3812  15.763   6.703  13.978
42524W        W 3813  32.906  31.604  12.492
42525W        W 3814   3.323  14.181   2.666
42526W        W 3815  27.577  25.100  10.413
42527W        W 3816  23.002  22.156   1.757
42528W        W 3817   2.283  20.233  14.830
42529W        W 3818  30.006  11.668   1.841
42530W        W 3819  13.115  35.590   0.872
42531W        W 3820  12.116   1.411  14.381
42532W        W 3821   7.238   7.350  12.505
42533W        W 3822  13.210   5.430   1.451
42534W        W 3823  10.173  14.319   3.737
42535W        W 3824  34.924  29.438   4.805
42536W        W 3825   2.418  16.164   2.677
42537W        W 3826   3.767  31.425  10.956
42538W        W 3827  42.497  40.457   3.710
42539W        W 3828  15.660  25.699  12.572
42540W        W 3829   9.161  42.834   1.364
42541W        W 3830  24.666  40.472  13.931
42542W        W 3831  28.973  22.208  10.995
42543W        W 3832  30.527   5.899   3.358
42544W        W 3833  30.960  36.587  11.388
42545W        W 3834  13.184  38.033  12.028
42546W        W 3835   7.338  34.397   3.632
42547W        W 3836  23.649  31.453   3.757
42548W        W 3837   8.867  44.501   4.298
42549W        W 3838   4.766  43.986  13.492
42550W        W 3839  22.079  28.476   2.671
42551W        W 3840   5.416  32.437   4.694
42552W        W 3841  20.656  39.869  13.442
42553W        W 3842  32.019  23.121   4.777
42554W        W 3843  36.496  41.504  10.954
42555W        W 3844  27.029   8.746   0.756
42556W        W 3845  42.328  22.075   1.874
42557W        W 3846  18.580  21.650   0.306
42558W        W 3847  13.739  14.234  10.514
42559W        W 3848  33.583  21.180  13.536
42560W        W 3849  39.948  15.211   4.277
42561W        W 3850  33.121  44.799  12.428
42562W        W 3851  27.493  41.304   1.837
42563W        W 3852  17.674  11.360  12.519
42564W        W 3853  17.184   5.238  12.459
42565W        W 3854  23.099  27.492   4.835
42566W        W 3855   4.786  21.702  14.836
42567W        W 3856  19.205  39.869   3.332
42568W        W 3857  36.848   4.271   0.900
42569W        W 3858   8.769  11.232  14.799
42570W        W 3859  33.562  16.244   0.811
42571W        W 3860   3.903  12.318   3.201
42572W        W 3861  21.200  29.984  11.082
42573W        W 3862  22.720  40.929  11.950
42574W        W 3863  25.630   4.739   0.262
42575W        W 3864  39.316  17.115  14.478
42576W        W 3865  30.499   1.787   4.693
42577W        W 3866  23.698  30.949  10.924
42578W        W 3867  21.538  43.292   3.315
42579W        W 3868  27.089   9.222   1.900
42580W        W 3869  38.826  33.081   4.822
42581W        W 3870   7.394  21.263   1.706
42582W        W 3871   9.231  15.243  10.540
42583W        W 3872  19.770  14.238   3.654
42584W        W 3873  40.414  36.473  14.383
42585W        W 3874  27.186  13.309   1.924
42586W        W 3875  10.840  21.636   4.615
42587W        W 3876  17.741  33.492  14.973
42588W        W 3877  21.619  13.260  11.061
42589W        W 3878  40.035   6.371   0.414
42590W        W 3879  34.433   4.806  12.435
42591W        W 3880  13.261  37.453   9.478
42592W        W 3881   1.366  40.959  11.463
42593W        W 3882  20.262   0.433  12.933
42594W        W 3883  24.136   6.769  12.860
42595W        W 3884  35.562  31.613   2.362
42596W        W 3885  15.817  41.325   2.876
42597W        W 3886   9.654   7.674  12.836
42598W        W 3887  40.548   6.403  11.605
42599W        W 3888  37.529   3.458   3.647
42600W        W 3889  10.787  27.653   2.758
42601W        W 3890   1.239   7.233  11.519
42602W        W 3891   1.847  30.587  11.914
42603W        W 3892  11.691  10.328  10.477
42604W        W 3893   2.271  27.948  10.570
42605W        W 3894  22.049  25.154  13.984
42606W        W 3895  33.475  31.102   5.162
42607W        W 3896  16.239  15.167  10.997
42608W        W 3897   9.253  23.705   1.857
42609W        W 3898  41.523  30.932   1.896
42610W        W 3899  32.594  32.047  11.122
42611W        W 3900  11.643  28.530   0.466
42612W        W 3901  21.143  31.919  12.500
42613W        W 3902  41.490   4.803   3.202
42614W        W 3903  25.686  27.168   3.824
42615W        W 3904  36.348  15.231   3.149
42616W        W 3905  13.262  16.263   3.302
42617W        W 3906   8.784   6.689   2.776
42618W        W 3907  32.010  23.671   1.818
42619W        W 3908  12.221  24.023   0.374
42620W        W 3909  39.020   7.677   0.858
42621W        W 3910  31.114  31.060   1.306
42622W        W 3911  38.454  21.239  12.071
42623W        W 3912   6.723  28.608   2.877
42624W        W 3913  43.431   8.295  13.835
42625W        W 3914  10.334  39.896   2.377
42626W        W 3915  32.565  36.536   0.850
42627W        W 3916   0.807  20.089   2.752
42628W        W 3917   1.747  44.394   4.680
42629W        W 3918   8.740  34.408  13.349
42630W        W 3919  36.036  34.589  14.803
42631W        W 3920  36.864  28.643   2.213
42632W        W 3921  11.132  35.507  13.548
42633W        W 3922  11.861   4.744   4.747
42634W        W 3923  38.980  40.938   2.874
42635W        W 3924  15.193  41.019   1.266
42636W        W 3925   0.870   6.225  13.433
42637W        W 3926   7.338   0.966   0.283
42638W        W 3927   9.277   6.775   0.897
42639W        W 3928  27.973  12.713  14.414
42640W        W 3929  35.910  25.017   3.841
42641W        W 3930  26.046   7.737  14.446
42642W        W 3931  19.687   4.791  13.912
42643W        W 3932  25.142  24.613   2.776
42644W        W 3933  43.968  15.119   1.907
42645W        W 3934  42.896   0.905  13.482
42646W        W 3935   2.777   9.648   3.298
42647W        W 3936  44.324  41.030  12.396
42648W        W 3937  43.001  38.425  12.003
42649W        W 3938  35.890  23.042  14.899
42650W        W 3939  18.223  22.116   3.835
42651W        W 3940  18.260  11.300   0.919
42652W        W 3941  21.684  10.656   1.758
42653W        W 3942   1.921   4.907  13.455
42654W        W 3943  31.028   2.816   1.252
42655W        W 3944  19.738  16.657  14.925
42656W        W 3945  37.404   2.774  14.781
42657W        W 3946  25.167  23.110   2.240
42658W        W 3947  13.825  28.598   2.829
42659W        W 3948   9.649  34.405  11.080
42660W        W 3949  23.056  20.205   2.748
42661W        W 3950  16.662  15.610  12.909
42662W        W 3951   3.946  28.575   0.400
42663W        W 3952  43.018  24.007  14.498
42664W        W 3953  33.536  22.090  11.879
42665W        W 3954   8.776   4.361  12.847
42666W        W 3955  21.263  18.074  12.938
42667W        W 3956  44.880  30.954  14.392
42668W        W 3957  21.608  32.584  12.381
42669W        W 3958  22.063  37.481   3.376
42670W        W 3959  34.041  28.997  12.857
42671W        W 3960  23.723  13.305  12.021
42672W        W 3961  31.074  18.063   1.242
42673W        W 3962  13.721  24.140  13.869
42674W        W 3963  14.775  11.691  14.003
42675W        W 3964  32.523  25.486  11.412
42676W        W 3965  21.081  40.917  11.527
42677W        W 3966  16.570  41.482  13.001
42678W        W 3967  14.181  13.770  13.455
42679W        W 3968  28.134  24.723  10.644
42680W        W 3969  17.263  26.143  11.611
42681W        W 3970  11.313  13.269  12.341
42682W        W 3971  31.586  22.109  11.552
42683W        W 3972  40.504  16.209   2.185
42684W        W 3973  40.314  17.557   0.727
42685W        W 3974   7.173   1.759  11.962
42686W        W 3975   8.756  12.759   4.166
42687W        W 3976   1.926  20.033  14.304
42688W        W 3977  29.154  36.472   2.706
42689W        W 3978  26.147  35.992  11.871
42690W        W 3979   3.423   3.351  14.926
42691W        W 3980  34.580  21.735  14.424
42692W        W 3981   3.282  37.450   1.335
42693W        W 3982  21.208   3.232  14.344
42694W        W 3983  17.094  28.542   3.386
42695W        W 3984  31.607   1.246  10.980
42696W        W 3985  31.544  33.509  10.642
42697W        W 3986  37.495  14.280   2.769
42698W        W 3987   0.371  36.387   2.888
42699W        W 3988  41.432  16.167   0.925
42700W        W 3989   6.827   8.257  11.469
42701W        W 3990  16.172   9.693  12.451
42702W        W 3991  38.514  34.528  12.984
42703W        W 3992   0.845  29.591  13.881
42704W        W 3993  24.694  30.081  13.009
42705W        W 3994  22.066  10.303   2.296
42706W        W 3995  33.442   2.928   0.422
42707W        W 3996  10.718  11.835  13.809
42708W        W 3997  40.532  13.637   0.859
42709W        W 3998  15.170  16.723   2.836
42710W        W 3999  33.440  24.007  12.344
42711W        W 4000  44.386  41.890  13.462
42712W        W 4001  33.991   0.312  11.523
42713W        W 4002  28.077  42.451  13.007
42714W        W 4003   9.726  29.452  10.927
42715W        W 4004  31.585  16.206  11.395
42716W        W 4005  18.703   9.273  10.577
42717W        W 4006  35.040  29.440  10.517
42718W        W 4007  35.579  10.687   4.830
42719W        W 4008  28.070   5.770   4.720
42720W        W 4009   8.347  14.234  13.921
42721W        W 4010  39.953  37.838  14.317
42722W        W 4011  37.843  19.606  13.495
42723W        W 4012  16.596  34.417  12.511
42724W        W 4013  16.137  17.769  14.855
42725W        W 4014  33.476   9.742   4.164
42726W        W 4015  28.551  17.199  12.055
42727W        W 4016  35.889  15.682   1.821
42728W        W 4017   9.387  35.995  10.442
42729W        W 4018  36.047  18.166   1.765
42730W        W 4019  26.593  37.986   3.636
42731W        W 4020  15.148   1.963   4.163
42732W        W 4021  36.395  18.184   4.598
42733W        W 4022  34.111   8.865  13.036
42734W        W 4023  42.431  31.594  14.392
42735W        W 4024  38.057   3.834  13.939
42736W        W 4025  28.500  11.672  10.624
42737W        W 4026  16.078  24.984   4.837
42738W        W 4027   4.427   1.249  13.375
42739W        W 4028  34.476  41.852   0.856
42740W        W 4029   1.251  17.741   1.340
42741W        W 4030  35.391   8.373  11.076
42742W        W 4031   6.847   9.178   3.851
42743W        W 4032  21.583  35.522  11.599
42744W        W 4033   6.860  15.602   0.341
42745W        W 4034  27.661   2.468   2.827
42746W        W 4035   8.822   5.223   4.164
42747W        W 4036  14.160  35.481  10.967
42748W        W 4037  16.620   1.913   1.327
42749W        W 4038  30.955   9.853   5.246
42750W        W 4039  41.292  25.075  12.574
42751W        W 4040   3.445  28.130   5.153
42752W        W 4041  39.502   2.455   0.963
42753W        W 4042  24.016   4.365   1.434
42754W        W 4043   8.337  36.559  14.831
42755W        W 4044   4.346  39.917   2.314
42756W        W 4045   9.335  16.737  11.488
42757W        W 4046  26.463  31.537  12.460
42758W        W 4047  41.995  21.086  13.015
42759W        W 4048   3.297   7.207  14.760
42760W        W 4049  36.079  30.438   4.347
42761W        W 4050  30.618   4.409  14.772
42762W        W 4051  30.056   2.920   5.570
42763W        W 4052  39.324  30.960   4.719
42764W        W 4053  22.661  21.571   1.394
42765W        W 4054  35.911  10.375   2.198
42766W        W 4055  13.843   2.231  10.988
42767W        W 4056  28.458  11.674   5.589
42768W        W 4057   5.285  25.608   4.809
42769W        W 4058  38.953  16.277  12.009
42770W        W 4059  28.480  42.482   2.288
42771W        W 4060  38.419  36.578  12.473
42772W        W 4061  16.617  36.018  11.417
42773W        W 4062   4.817   5.328  13.849
42774W        W 4063  42.296  24.213  10.442
42775W        W 4064  25.991  30.552   1.321
42776W        W 4065   9.288  16.722  13.519
42777W        W 4066  12.273   4.280  13.445
42778W        W 4067  13.188  44.922   4.273
42779W        W 4068   2.950  40.484   1.737
42780W        W 4069  30.502  34.556  14.966
42781W        W 4070  18.145  39.932   1.697
42782W        W 4071   7.765   8.399   0.403
42783W        W 4072  31.970  32.991   2.690
42784W        W 4073  28.503  36.500   3.158
42785W        W 4074   9.239  38.564   2.900
42786W        W 4075  40.400  39.921  13.398
42787W        W 4076  28.599  39.889  11.052
42788W        W 4077  25.620  10.358  14.330
42789W        W 4078  41.826  15.087  12.021
42790W        W 4079  44.802   7.762  11.066
42791W        W 4080  37.489   0.758   2.392
42792W        W 4081  15.690   1.307  14.480
42793W        W 4082  44.488  27.558  14.394
42794W        W 4083  14.221  22.183  12.516
42795W        W 4084  24.172  18.270  14.500
42796W        W 4085  19.609  19.072   2.367
42797W        W 4086  16.592  25.132  13.825
42798W        W 4087  21.109  27.647  13.333
42799W        W 4088  33.490  26.198   1.419
42800W        W 4089   2.461   8.866   2.310
42801W        W 4090  24.086  12.639   2.846
42802W        W 4091   9.720   1.249  13.422
42803W        W 4092  17.119  25.578  14.793
42804W        W 4093  39.416  30.641   0.796
42805W        W 4094  30.033  22.511  10.441
42806W        W 4095  27.183  20.625  11.587
42807W        W 4096  39.357   3.228  12.374
42808W        W 4097   0.447  42.327   0.466
42809W        W 4098  33.913  42.961  10.537
42810W        W 4099   3.413  37.878   4.245
42811W        W 4100   9.804  18.221   0.808
42812W        W 4101   5.426  31.975  10.629
42813W        W 4102   6.383   1.307  11.398
42814W        W 4103  10.253   0.374   2.717
42815W        W 4104  27.085  19.588  11.041
42816W        W 4105  17.164  39.468   3.346
42817W        W 4106  31.962   0.744   0.833
42818W        W 4107  27.571  31.438   2.206
42819W        W 4108  20.051  30.576   0.374
42820W        W 4109  27.531  14.283   1.701
42821W        W 4110  17.232  18.645   3.751
42822W        W 4111  26.494  22.054  13.429
42823W        W 4112  43.439  28.594   3.725
42824W        W 4113  20.731   8.406  11.968
42825W        W 4114  38.535  26.021  11.990
42826W        W 4115   7.264   2.786   4.655
42827W        W 4116   7.708  12.691   4.176
42828W        W 4117  20.728  11.695  13.351
42829W        W 4118   8.380  44.472  10.426
42830W        W 4119  31.456  30.002   1.429
42831W        W 4120  20.578   3.914   3.842
42832W        W 4121  19.254  23.707  11.408
42833W        W 4122  31.955  22.037  11.535
42834W        W 4123  26.573  18.596   1.217
42835W        W 4124  18.669  29.040   4.133
42836W        W 4125   4.892  12.150  11.529
42837W        W 4126  20.148   4.334   0.423
42838W        W 4127  10.375  17.221   2.337
42839W        W 4128   8.400  34.497   4.672
42840W        W 4129  43.439  36.996  11.857
42841W        W 4130  20.184  19.600  11.021
42842W        W 4131   6.743  37.888   4.178
42843W        W 4132   5.768   9.375  14.792
42844W        W 4133   9.866  43.950  12.840
42845W        W 4134  11.196  15.255  13.860
42846W        W 4135  35.085  14.160   9.991
42847W        W 4136  35.942  38.441  14.947
42848W        W 4137  22.150  22.612   4.663
42849W        W 4138  27.988  25.201  13.909
42850W        W 4139  15.203  33.462   2.239
42851W        W 4140  21.126  13.202   2.673
42852W        W 4141   2.813  31.049  11.908
42853W        W 4142  36.384  24.021   4.160
42854W        W 4143   9.826  13.171  10.498
42855W        W 4144  40.489   9.682  11.917
42856W        W 4145  13.624  15.266  10.895
42857W        W 4146  41.874  38.454   2.899
42858W        W 4147  33.585  37.344  11.068
42859W        W 4148  23.192  19.114   1.919
42860W        W 4149  33.126   0.300   1.361
42861W        W 4150  33.964  42.782  11.585
42862W        W 4151  21.163  38.007  12.368
42863W        W 4152  12.640  42.342  13.308
42864W        W 4153  23.097   0.468   1.272
42865W        W 4154  42.014  41.295  12.860
42866W        W 4155   6.825  12.738  14.004
42867W        W 4156  19.108  26.961  11.117
42868W        W 4157   9.271  38.847   3.772
42869W        W 4158  38.998  35.019   4.133
42870W        W 4159   3.849   7.749   4.654
42871W        W 4160  12.706  33.004   0.888
42872W        W 4161  27.127   2.850   4.798
42873W        W 4162  32.927  35.449   1.378
42874W        W 4163  27.580  21.611  13.333
42875W        W 4164  44.765  40.306   2.200
42876W        W 4165  22.048  27.159   0.844
42877W        W 4166  41.324  22.517  11.878
42878W        W 4167  12.179  32.100   3.350
42879W        W 4168  32.592  34.459   3.749
42880W        W 4169  14.778  36.463   0.732
42881W        W 4170  38.330  42.341   4.236
42882W        W 4171   9.336  37.504  14.465
42883W        W 4172  21.728  21.712  10.049
42884W        W 4173   2.426  31.473  10.519
42885W        W 4174  26.994   1.278  10.615
42886W        W 4175  30.448   2.779   0.941
42887W        W 4176  37.990  28.935   0.793
42888W        W 4177  24.171  28.128   5.293
42889W        W 4178  30.454  14.330  11.985
42890W        W 4179  10.147  40.949  14.320
42891W        W 4180  42.298  40.435  13.432
42892W        W 4181  15.767  10.227  11.042
42893W        W 4182   6.258   6.875  11.920
42894W        W 4183  24.651  33.544   3.258
42895W        W 4184  11.175  26.532  13.488
42896W        W 4185  12.660  23.998  12.420
42897W        W 4186  16.178  30.633   4.309
42898W        W 4187  13.828  44.359  12.059
42899W        W 4188   9.863  34.930   1.741
42900W        W 4189  13.335  18.290   2.699
42901W        W 4190  31.404  18.591   2.902
42902W        W 4191  17.112   5.793  14.865
42903W        W 4192  38.887  44.375  14.503
42904W        W 4193  25.480  37.516  12.452
42905W        W 4194  14.732  26.467   1.895
42906W        W 4195  39.532  10.324   0.763
42907W        W 4196  34.894  10.250  13.052
42908W        W 4197  39.818  40.033   4.300
42909W        W 4198  26.966  26.601  13.851
42910W        W 4199  13.143  28.481   2.822
42911W        W 4200  26.128  18.624  13.918
42912W        W 4201  34.041   5.930  10.531
42913W        W 4202  44.866  17.555  10.605
42914W        W 4203  14.793   8.295  10.977
42915W        W 4204  40.975  20.270  13.048
42916W        W 4205  20.731  11.349   1.315
42917W        W 4206   5.346  31.627  14.435
42918W        W 4207   0.859  23.691   3.706
42919W        W 4208   0.309  18.246   4.818
42920W        W 4209  40.350  28.104   0.905
42921W        W 4210  25.046  28.636   3.163
42922W        W 4211  11.158  15.776  12.885
42923W        W 4212  25.197  35.520   1.220
42924W        W 4213  43.876  17.682   3.213
42925W        W 4214   9.796  30.576   2.248
42926W        W 4215  39.334   3.726  11.934
42927W        W 4216  42.926  40.541   4.270
42928W        W 4217  10.832  29.058   3.254
42929W        W 4218  37.889  38.439   2.190
42930W        W 4219  35.486   2.822  12.984
42931W        W 4220  42.361  19.196   3.225
42932W        W 4221  35.539  18.193   1.372
42933W        W 4222  14.123  25.148   4.819
42934W        W 4223   2.921  19.154  14.317
42935W        W 4224  38.363  10.302   4.670
42936W        W 4225   4.282   2.757   4.347
42937W        W 4226  27.984  31.604   4.212
42938W        W 4227   9.219  17.590  12.891
42939W        W 4228  23.100  11.646   2.385
42940W        W 4229  29.434  31.475   4.114
42941W        W 4230   2.449  10.165   9.947
42942W        W 4231  33.478  30.150  11.937
42943W        W 4232  31.003  10.671   1.790
42944W        W 4233  13.317  23.572   4.675
42945W        W 4234  28.462  33.492   0.755
42946W        W 4235   1.414  34.068  12.932
42947W        W 4236   1.458  22.194  14.358
42948W        W 4237  36.943  42.297   0.322
42949W        W 4238  17.103   9.663   1.267
42950W        W 4239  16.194  24.548  10.517
42951W        W 4240  33.409  36.952   1.917
42952W        W 4241   0.860  17.245   2.373
42953W        W 4242  42.525  13.840   2.882
42954W        W 4243   5.871  14.154   3.711
42955W        W 4244  22.560  19.088  13.002
42956W        W 4245   0.450  32.041  10.570
42957W        W 4246  22.596  30.132   3.208
42958W        W 4247  13.764  31.916   4.789
42959W        W 4248  30.941  20.645   1.836
42960W        W 4249  16.603  23.022   3.775
42961W        W 4250  27.161   8.712   3.230
42962W        W 4251  43.456  11.841   2.271
42963W        W 4252  26.017   7.907  13.043
42964W        W 4253   6.908  22.619   0.372
42965W        W 4254  12.137  37.445   1.380
42966W        W 4255  36.565  34.526  13.354
42967W        W 4256  20.545  16.214   0.910
42968W        W 4257  34.381   8.402   2.348
42969W        W 4258  19.218  23.051   1.352
42970W        W 4259   5.824  23.204   2.228
42971W        W 4260  30.628  20.064  14.870
42972W        W 4261  20.658  12.256   3.292
42973W        W 4262  11.137  25.544  12.026
42974W        W 4263  29.017  15.276  11.401
42975W        W 4264  43.018  11.794  13.822
42976W        W 4265  20.647   7.805  11.067
42977W        W 4266  18.185  30.129   4.305
42978W        W 4267   8.724  43.336  14.339
42979W        W 4268  36.972  15.251   4.599
42980W        W 4269  38.336  16.807  14.359
42981W        W 4270  29.556  12.674  11.079
42982W        W 4271   4.354   1.316   0.360
42983W        W 4272  36.856   6.834  11.038
42984W        W 4273  30.095   9.283  14.783
42985W        W 4274  13.329  31.440  14.801
42986W        W 4275  22.702  35.486  10.120
42987W        W 4276  24.043  15.635   4.833
42988W        W 4277  19.082  36.398   1.733
42989W        W 4278  27.002   2.460   0.394
42990W        W 4279   8.732   5.697  13.806
42991W        W 4280  30.594  40.003  12.874
42992W        W 4281  31.093  32.429   1.933
42993W        W 4282  18.104   5.395   4.697
42994W        W 4283   0.428  35.987  12.010
42995W        W 4284   3.350   4.424  12.841
42996W        W 4285  15.115  15.172   1.840
42997W        W 4286  13.168  44.869  12.474
42998W        W 4287  38.448  32.519   4.690
42999W        W 4288  38.833   0.788   4.264
43000W        W 4289  19.169  38.524  12.352
43001W        W 4290   0.447  17.169  11.959
43002W        W 4291   8.844  24.149   2.870
43003W        W 4292   1.931  36.377   3.340
43004W        W 4293  34.049  33.613  13.918
43005W        W 4294  17.209   3.250  13.529
43006W        W 4295  44.343   4.711   2.751
43007W        W 4296  30.615  11.745   1.732
43008W        W 4297  44.876  28.101  10.926
43009W        W 4298  29.959  25.495   4.664
43010W        W 4299   0.875  20.553  13.495
43011W        W 4300  10.645  42.286  10.467
43012W        W 4301  40.486  11.206   4.256
43013W        W 4302  32.624  37.382  12.948
43014W        W 4303  41.388   7.252   4.656
43015W        W 4304  13.128  10.828  14.962
43016W        W 4305  39.490  43.895  11.543
43017W        W 4306  20.195  32.108  10.468
43018W        W 4307  38.834   2.747  10.975
43019W        W 4308  34.065  24.225   0.448
43020W        W 4309  25.642  16.191   4.807
43021W        W 4310  36.431  37.362  12.481
43022W        W 4311   3.232  17.189  14.378
43023W        W 4312  32.079  24.155  12.371
43024W        W 4313   7.731  27.982   3.662
43025W        W 4314  24.569  44.340  11.467
43026W        W 4315   6.868  18.670  13.918
43027W        W 4316  25.971   5.714  12.460
43028W        W 4317   4.450  37.887   2.817
43029W        W 4318  39.887  12.230   0.786
43030W        W 4319  24.034   9.355  13.464
43031W        W 4320  22.089  26.526   0.249
43032W        W 4321  35.089  18.109  10.992
43033W        W 4322  12.644  20.575  13.535
43034W        W 4323  37.920   6.357  11.994
43035W        W 4324   1.308   6.733   2.736
43036W        W 4325  21.700  35.494  11.941
43037W        W 4326   4.295   1.436  13.800
43038W        W 4327  18.154  40.500   2.890
43039W        W 4328   9.342  35.888   0.314
43040W        W 4329  16.684   1.283   1.309
43041W        W 4330   3.378  41.976  12.856
43042W        W 4331   0.799   3.440  10.501
43043W        W 4332   5.874  34.427  13.427
43044W        W 4333  32.987  19.061  13.444
43045W        W 4334   6.882   1.775  11.414
43046W        W 4335  34.941  43.361  10.452
43047W        W 4336  17.127  31.118   3.778
43048W        W 4337  11.319  23.626   2.767
43049W        W 4338  10.840   1.799   2.714
43050W        W 4339  13.635  26.517   4.701
43051W        W 4340  29.602  43.328  10.456
43052W        W 4341  37.873  40.543  13.049
43053W        W 4342  36.914  23.530  11.018
43054W        W 4343  13.300  25.032   4.790
43055W        W 4344  16.276  43.324  13.501
43056W        W 4345  34.496  34.020  12.828
43057W        W 4346  27.590  25.031  14.942
43058W        W 4347  22.663  23.571   3.728
43059W        W 4348  38.954  11.716  12.852
43060W        W 4349  39.840  34.555   0.799
43061W        W 4350  10.639  18.739  11.001
43062W        W 4351   3.305  13.692  11.593
43063W        W 4352  39.341  13.207  11.402
43064W        W 4353  41.834  22.680  14.325
43065W        W 4354  38.418  15.300   1.871
43066W        W 4355  40.906  25.124   1.394
43067W        W 4356   5.772  13.833   4.263
43068W        W 4357   4.280  20.080  12.439
43069W        W 4358  32.445  21.209   1.916
43070W        W 4359  39.417  25.180   0.949
43071W        W 4360  14.153  40.811  10.415
43072W        W 4361  29.662  32.905  13.321
43073W        W 4362  24.158  44.426  11.448
43074W        W 4363  23.021  35.105  13.458
43075W        W 4364  31.547  35.565   2.893
43076W        W 4365  34.614  23.544  11.084
43077W        W 4366  34.086  24.194   0.737
43078W        W 4367  24.073   5.330   3.234
43079W        W 4368  41.003  15.783   1.250
43080W        W 4369  13.638  14.644   2.231
43081W        W 4370   8.215  25.107   3.304
43082W        W 4371  27.646  43.939   1.338
43083W        W 4372  40.832  43.990  13.929
43084W        W 4373  18.082   4.414  10.471
43085W        W 4374  41.417  31.431  11.537
43086W        W 4375  44.890  40.993  11.531
43087W        W 4376  17.756  16.282   0.874
43088W        W 4377  27.039   8.669  13.046
43089W        W 4378  38.904  16.755   3.343
43090W        W 4379  10.842   1.323  12.029
43091W        W 4380  10.287  41.973   2.387
43092W        W 4381  34.939  11.321  10.554
43093W        W 4382  31.113   5.869  11.529
43094W        W 4383  29.518  20.750  12.515
43095W        W 4384  34.064   2.286   2.290
43096W        W 4385  24.630  33.954   3.650
43097W        W 4386  13.233  37.077   4.283
43098W        W 4387  35.084   9.651   0.436
43099W        W 4388  18.199   4.912   2.678
43100W        W 4389  31.402  27.077  14.485
43101W        W 4390  43.848  39.435   0.874
43102W        W 4391  28.157  21.644   1.934
43103W        W 4392   8.723  24.656   1.742
43104W        W 4393  29.042  27.521   4.780
43105W        W 4394   5.747  44.809  10.946
43106W        W 4395  19.765  29.508   0.369
43107W        W 4396  43.840  33.428  13.970
43108W        W 4397  44.840  21.638  11.591
43109W        W 4398  16.270  37.981  13.035
43110W        W 4399  39.820  38.879   0.767
43111W        W 4400  23.667  30.982  14.849
43112W        W 4401  10.308  25.676  13.914
43113W        W 4402   0.311  10.825   3.635
43114W        W 4403  34.000  24.014  14.469
43115W        W 4404   7.818  29.533  11.374
43116W        W 4405   1.913  27.569   4.810
43117W        W 4406  16.581   4.882  14.911
43118W        W 4407  19.762  11.179   3.840
43119W        W 4408  42.947  42.514   4.133
43120W        W 4409  15.307  15.234  10.937
43121W        W 4410  40.451  24.708   1.332
43122W        W 4411  31.902  36.992  14.347
43123W        W 4412   9.750  18.146   0.457
43124W        W 4413  39.021  38.900  10.485
43125W        W 4414   1.397  37.339   4.684
43126W        W 4415  11.127  42.492  11.865
43127W        W 4416  31.496  27.651   2.263
43128W        W 4417  22.640  28.146  13.399
43129W        W 4418  27.049  39.010   2.313
43130W        W 4419  44.273  10.837  12.040
43131W        W 4420  20.249   2.923   1.737
43132W        W 4421  26.501  27.550   2.205
43133W        W 4422   1.326   1.432  12.428
43134W        W 4423  14.210   3.944  13.434
43135W        W 4424  17.270  27.525   1.848
43136W        W 4425  42.450  16.673  12.978
43137W        W 4426  14.703  16.235  12.390
43138W        W 4427  38.019  16.783  14.002
43139W        W 4428  33.586  17.269  11.501
43140W        W 4429  27.565   1.400   4.726
43141W        W 4430  36.509  20.691  11.878
43142W        W 4431  15.652  16.136  10.125
43143W        W 4432  37.035  35.363   2.279
43144W        W 4433  26.987  15.727  10.997
43145W        W 4434   9.877  14.667   1.399
43146W        W 4435   1.475   1.275   0.936
43147W        W 4436   2.236   7.396  11.489
43148W        W 4437  27.642  44.360   3.230
43149W        W 4438  17.209  28.669   0.278
43150W        W 4439  23.164  30.111   1.279
43151W        W 4440  17.177  28.974  14.024
43152W        W 4441  31.411  18.137  14.952
43153W        W 4442  29.439  42.426  10.415
43154W        W 4443   5.203  44.303   2.311
43155W        W 4444   6.367   1.841   2.780
43156W        W 4445  31.922  43.960   0.253
43157W        W 4446   2.803   8.232  14.029
43158W        W 4447  34.120  35.023  10.995
43159W        W 4448  28.581  36.896  11.519
43160W        W 4449  43.387  43.852   1.832
43161W        W 4450  22.699  28.941  12.936
43162W        W 4451  13.610  31.608   2.833
43163W        W 4452  38.975  36.540  12.564
43164W        W 4453  40.918  32.054  12.854
43165W        W 4454   6.743  42.955   0.416
43166W        W 4455  28.545  27.159   1.782
43167W        W 4456  35.536   1.814  11.071
43168W        W 4457  32.425   0.352   4.230
43169W        W 4458  20.147   0.306  13.859
43170W        W 4459  17.242  38.978  14.384
43171W        W 4460  27.569  15.810  14.459
43172W        W 4461  32.918  16.706  11.492
43173W        W 4462  38.554   2.373   4.246
43174W        W 4463  16.691   0.453   3.282
43175W        W 4464  39.506   9.861   3.698
43176W        W 4465  34.087  20.194   4.686
43177W        W 4466   7.180   1.469  12.538
43178W        W 4467  28.598   2.321  12.931
43179W        W 4468  26.469   0.841   3.701
43180W        W 4469   7.416  40.495   3.236
43181W        W 4470   4.889  40.846   0.381
43182W        W 4471   2.244  19.162  11.528
43183W        W 4472  34.036  29.979   1.215
43184W        W 4473  31.512   7.376  11.435
43185W        W 4474  16.234   3.744  13.921
43186W        W 4475  28.480  19.137   1.276
43187W        W 4476  42.449  32.455  13.024
43188W        W 4477  14.623  30.111   4.242
43189W        W 4478  37.539  20.201  12.862
43190W        W 4479  31.056  38.930   4.285
43191W        W 4480  32.503  30.583   2.413
43192W        W 4481  34.561  41.461   4.679
43193W        W 4482  34.407   5.880  12.367
43194W        W 4483  22.104   6.921   3.319
43195W        W 4484  31.143  17.723  14.763
43196W        W 4485  27.013  41.975   4.713
43197W        W 4486  20.121  19.113  11.395
43198W        W 4487  21.727  30.113  11.510
43199W        W 4488  23.648  36.364  11.559
43200W        W 4489  28.062  11.843   0.456
43201W        W 4490  30.651  24.985   4.649
43202W        W 4491  22.516  31.476   4.311
43203W        W 4492  16.292  32.571   0.318
43204W        W 4493   6.706  12.717   1.278
43205W        W 4494  29.072   7.802  11.009
43206W        W 4495  11.345  31.944   2.376
43207W        W 4496  17.182   0.783   1.841
43208W        W 4497  19.603  18.766   2.408
43209W        W 4498  35.438  33.014  11.989
43210W        W 4499  29.439   7.223   2.724
43211W        W 4500  39.942  26.096   3.187
43212W        W 4501  43.937   0.772  13.984
43213W        W 4502  21.248  32.008   0.784
43214W        W 4503  23.661  15.259   4.120
43215W        W 4504  39.497  34.898  10.450
43216W        W 4505  41.491  29.091   4.125
43217W        W 4506  36.369  38.554   0.876
43218W        W 4507   6.679  38.538  12.576
43219W        W 4508   9.870   0.253   9.517
43220W        W 4509  19.595  12.219   2.800
43221W        W 4510  38.009  37.442   0.919
43222W        W 4511  23.604   2.430   4.257
43223W        W 4512   7.847  11.218   3.179
43224W        W 4513  39.400   2.890  13.351
43225W        W 4514  37.926  44.948  11.026
43226W        W 4515  40.835  18.746  10.470
43227W        W 4516  35.930  29.016  10.630
43228W        W 4517  19.175  16.170  10.482
43229W        W 4518  18.147  24.541  13.398
43230W        W 4519   8.404  21.592  10.960
43231W        W 4520  22.238  17.723  14.967
43232W        W 4521  43.820  13.343   3.708
43233W        W 4522  12.643   3.436  12.560
43234W        W 4523  29.993   5.203   2.830
43235W        W 4524  32.610  37.989   0.844
43236W        W 4525  41.996  17.302   4.698
43237W        W 4526  26.029  42.913  13.340
43238W        W 4527  37.908  26.528   1.393
43239W        W 4528  31.571  14.752  13.378
43240W        W 4529  26.692  12.298   5.243
43241W        W 4530  22.031  10.316   4.137
43242W        W 4531  14.727  34.865  10.604
43243W        W 4532   1.929  44.352  13.948
43244W        W 4533  13.256   4.333   2.313
43245W        W 4534  27.084   1.841  13.932
43246W        W 4535   8.787  13.125  13.930
43247W        W 4536  24.635   8.789   9.965
43248W        W 4537  10.672  41.307  11.548
43249W        W 4538  31.462  35.570   3.155
43250W        W 4539   5.198  22.642   0.369
43251W        W 4540  12.699  17.588  14.491
43252W        W 4541  22.678   5.358  13.333
43253W        W 4542  13.115  44.925   2.203
43254W        W 4543  30.959  20.226  14.470
43255W        W 4544  10.218  25.029   0.795
43256W        W 4545   7.399  29.112   0.454
43257W        W 4546  24.191   8.829  14.992
43258W        W 4547  41.875   6.791   1.214
43259W        W 4548  28.585   6.703   1.398
43260W        W 4549   9.807  17.138  13.000
43261W        W 4550  13.350  42.405   3.671
43262W        W 4551  28.108  19.211  13.440
43263W        W 4552  33.897  42.776   2.662
43264W        W 4553  21.255  35.376   2.306
43265W        W 4554  22.688   2.947   3.713
43266W        W 4555  13.223  32.126   1.288
43267W        W 4556  40.860  37.974  12.870
43268W        W 4557  15.197  14.331   1.372
43269W        W 4558  22.504  27.629  10.911
43270W        W 4559   2.776  35.049   3.241
43271W        W 4560   5.239  39.026  13.963
43272W        W 4561   2.237  25.084  13.826
43273W        W 4562  41.832  33.427  12.992
43274W        W 4563  17.264  23.660  12.410
43275W        W 4564  23.670  40.837   3.700
43276W        W 4565  32.423   2.767   2.746
43277W        W 4566  38.038  44.318  12.533
43278W        W 4567  22.548  33.428   4.257
43279W        W 4568  22.686  20.243  12.901
43280W        W 4569  32.072  24.147   3.198
43281W        W 4570  41.881  11.754  14.808
43282W        W 4571  35.483  34.110  13.021
43283W        W 4572  24.203   7.829   3.841
43284W        W 4573  37.031  42.427  13.800
43285W        W 4574  44.896  26.122   0.351
43286W        W 4575   2.832  29.457  13.917
43287W        W 4576   8.229   6.886   1.351
43288W        W 4577  40.340  12.773   5.241
43289W        W 4578   5.825  19.111  10.435
43290W        W 4579  12.761  10.690   2.864
43291W        W 4580  18.161   8.692   4.729
43292W        W 4581  12.738  39.486  10.958
43293W        W 4582  26.983  31.422  14.800
43294W        W 4583  23.123   7.210   0.359
43295W        W 4584  31.563  11.820   1.919
43296W        W 4585   9.651   6.762  10.539
43297W        W 4586  42.296  24.141   1.341
43298W        W 4587  33.543  12.650  14.787
43299W        W 4588  25.053   4.440  10.550
43300W        W 4589   7.410   4.747   3.669
43301W        W 4590   5.349  42.845   0.846
43302W        W 4591   0.946  40.520   1.387
43303W        W 4592  10.305  17.692  11.479
43304W        W 4593  37.878   3.267  14.793
43305W        W 4594  23.508  41.502   1.376
43306W        W 4595   2.321  17.725   3.806
43307W        W 4596  11.652  36.043   0.246
43308W        W 4597   7.328  37.006   2.394
43309W        W 4598  20.548  29.622   4.768
43310W        W 4599  32.520  41.342   2.855
43311W        W 4600  42.344   3.363   0.920
43312W        W 4601  29.485  17.064  11.487
43313W        W 4602  14.248  34.407  11.979
43314W        W 4603   1.949  22.184  12.939
43315W        W 4604   1.924  33.955  11.071
43316W        W 4605  37.548   9.311   0.785
43317W        W 4606   6.788   3.382   3.853
43318W        W 4607  41.294   1.809  13.433
43319W        W 4608  15.095  32.027   5.260
43320W        W 4609   9.712  36.904   0.949
43321W        W 4610  15.127  25.103   2.695
43322W        W 4611  17.731  43.000   5.088
43323W        W 4612  28.515  10.259  13.491
43324W        W 4613   4.340  42.375  12.072
43325W        W 4614   0.262  11.714  11.923
43326W        W 4615   8.732  19.551   4.811
43327W        W 4616  41.524   8.837  14.459
43328W        W 4617  12.837  30.561   1.440
43329W        W 4618   6.911  18.551  11.913
43330W        W 4619   5.872  19.202  12.543
43331W        W 4620  28.633  18.747  10.541
43332W        W 4621  18.112  20.136   4.186
43333W        W 4622   6.217  40.513  11.548
43334W        W 4623   3.289  10.707  11.380
43335W        W 4624  38.065   4.860   3.836
43336W        W 4625  19.558  37.496   4.201
43337W        W 4626  13.224  12.643   0.908
43338W        W 4627  22.576   8.261   1.734
43339W        W 4628  39.977  41.505   0.949
43340W        W 4629  13.804  40.393  14.302
43341W        W 4630  42.866  33.055   0.838
43342W        W 4631  17.775  23.640  11.989
43343W        W 4632   8.377   0.459   3.219
43344W        W 4633  44.883  22.603  10.937
43345W        W 4634  32.423  29.123  11.486
43346W        W 4635  42.307  36.897  13.920
43347W        W 4636  27.986  37.046   4.663
43348W        W 4637  44.306  39.326  14.413
43349W        W 4638  37.531  10.782  14.765
43350W        W 4639  11.289  28.503   0.949
43351W        W 4640  21.519  36.986  12.837
43352W        W 4641  28.447  44.499   0.933
43353W        W 4642   6.798   1.924   4.827
43354W        W 4643  43.787   1.865   4.719
43355W        W 4644  42.437   4.352  11.384
43356W        W 4645  39.418  14.822  13.016
43357W        W 4646  43.446  37.055   0.457
43358W        W 4647  23.003  17.249   2.673
43359W        W 4648  35.018  30.455   3.356
43360W        W 4649  29.138   0.445   2.192
43361W        W 4650  18.192  22.691  12.896
43362W        W 4651  36.524  20.600   3.764
43363W        W 4652  39.534  22.142  12.880
43364W        W 4653   2.877  40.964   3.203
43365W        W 4654  31.541  34.589  12.036
43366W        W 4655  14.329  43.470  14.888
43367W        W 4656  33.456  27.164  12.378
43368W        W 4657   0.311  10.763   5.256
43369W        W 4658  14.632  19.112  13.060
43370W        W 4659  35.043   6.771  12.517
43371W        W 4660  30.063   2.920  10.007
43372W        W 4661  24.177  31.916   3.381
43373W        W 4662  15.769  16.178   4.808
43374W        W 4663  15.313   4.833  12.507
43375W        W 4664  36.443  37.394   4.728
43376W        W 4665  22.209  34.979   4.245
43377W        W 4666  29.662  39.859  14.977
43378W        W 4667  25.160  42.837  10.436
43379W        W 4668  22.565   2.330  11.445
43380W        W 4669   3.297  15.779  12.866
43381W        W 4670   8.245  10.722   0.756
43382W        W 4671  28.079  10.235   4.728
43383W        W 4672  17.608  24.219   2.357
43384W        W 4673   0.968   4.918   1.916
43385W        W 4674   7.398  43.852   3.715
43386W        W 4675  12.148   7.199  10.525
43387W        W 4676   4.219  10.266  12.516
43388W        W 4677  15.705  32.891  13.803
43389W        W 4678  44.348  31.947   1.342
43390W        W 4679   7.730  33.104   4.252
43391W        W 4680  31.455  43.408   0.921
43392W        W 4681  37.473   3.879   2.247
43393W        W 4682  33.010  43.771  14.350
43394W        W 4683  37.936  32.116   0.380
43395W        W 4684   0.859  42.964   0.923
43396W        W 4685  23.591  10.268   5.169
43397W        W 4686   5.257  23.625  12.937
43398W        W 4687  11.861  26.463   1.311
43399W        W 4688  20.700  28.962   1.801
43400W        W 4689  32.524  38.519  11.537
43401W        W 4690   6.372  12.618  14.921
43402W        W 4691  15.320  33.547   3.818
43403W        W 4692   9.323  44.938   1.264
43404W        W 4693  38.963  13.241   0.272
43405W        W 4694   6.830  43.400  14.025
43406W        W 4695  30.966  19.719   4.667
43407W        W 4696  34.984  24.105  10.483
43408W        W 4697  36.947   4.789  14.812
43409W        W 4698  20.061  14.219  13.904
43410W        W 4699  26.105  28.569  14.985
43411W        W 4700  23.160  38.031  14.468
43412W        W 4701  24.603  42.926  13.495
43413W        W 4702  44.479  21.518  12.525
43414W        W 4703  33.411  40.323   1.842
43415W        W 4704  21.257  42.817   0.448
43416W        W 4705   6.895  15.747  14.455
43417W        W 4706  16.750  16.185   2.203
43418W        W 4707  29.600   1.254  14.801
43419W        W 4708  13.318  21.697   2.710
43420W        W 4709  28.439  15.161   2.757
43421W        W 4710  17.283  42.027   0.800
43422W        W 4711   3.216  13.796   1.853
43423W        W 4712  27.992  29.945   0.834
43424W        W 4713  11.644  16.733  12.037
43425W        W 4714   6.323  23.611   3.168
43426W        W 4715  32.992  44.942   0.859
43427W        W 4716   7.338   5.226  10.944
43428W        W 4717  38.010   2.228   2.346
43429W        W 4718  12.712   7.872  11.512
43430W        W 4719  10.276  44.864  10.892
43431W        W 4720  12.714  31.501   1.750
43432W        W 4721  23.633  22.086  12.044
43433W        W 4722  12.141  38.565   4.810
43434W        W 4723  25.477  36.423  13.911
43435W        W 4724  21.610  28.081   0.885
43436W        W 4725  28.550  34.482   4.166
43437W        W 4726  34.974  18.723   0.445
43438W        W 4727  38.034  32.987  14.808
43439W        W 4728   1.946  28.939  13.870
43440W        W 4729  31.959  38.547   3.188
43441W        W 4730  39.452   8.168  14.003
43442W        W 4731  11.310  20.597   3.673
43443W        W 4732   5.857  21.119   4.224
43444W        W 4733  43.497  28.507   0.291
43445W        W 4734  32.560  36.560   3.228
43446W        W 4735   9.720  28.456   0.358
43447W        W 4736  44.480   1.270  14.508
43448W        W 4737  33.584  24.600  11.473
43449W        W 4738  41.924  43.949  10.485
43450W        W 4739  11.312  40.523  12.942
43451W        W 4740  22.548  25.475   2.307
43452W        W 4741   9.222  31.150   5.214
43453W        W 4742   5.406  41.366  10.457
43454W        W 4743  37.927  15.645  14.792
43455W        W 4744  17.273  20.100   4.779
43456W        W 4745  31.979  31.081   3.267
43457W        W 4746  37.562   2.371  12.900
43458W        W 4747  14.668  40.037  11.442
43459W        W 4748  22.032  30.628  12.400
43460W        W 4749  15.713  15.732   4.278
43461W        W 4750  44.855  33.557   2.744
43462W        W 4751  22.668  19.606  10.493
43463W        W 4752  43.982  26.099  10.414
43464W        W 4753  11.291   7.869   0.874
43465W        W 4754   3.731  18.086   2.721
43466W        W 4755  20.239   0.421   2.224
43467W        W 4756  38.922  23.133   2.301
43468W        W 4757   2.880  26.036   4.748
43469W        W 4758  12.833  12.837  11.475
43470W        W 4759   1.794   5.797  13.947
43471W        W 4760  15.645  12.182   0.788
43472W        W 4761  25.513  38.007   1.723
43473W        W 4762  18.770  22.212   4.119
43474W        W 4763  13.804  15.678   4.352
43475W        W 4764  27.611  14.095  12.552
43476W        W 4765   6.883  19.131  10.451
43477W        W 4766  12.694   1.464  13.358
43478W        W 4767  11.626  32.039  10.158
43479W        W 4768  39.909  16.610  12.447
43480W        W 4769  33.522  20.265  14.398
43481W        W 4770   8.225   6.874   0.437
43482W        W 4771  36.008  27.964   0.404
43483W        W 4772   6.428  44.406   4.676
43484W        W 4773  23.118   4.814   2.372
43485W        W 4774  39.910  35.365  13.523
43486W        W 4775  30.485   2.472   5.738
43487W        W 4776   7.877   3.372  10.898
43488W        W 4777  31.444  39.822  13.922
43489W        W 4778  19.734   5.399   3.810
43490W        W 4779  39.979   7.831   4.118
43491W        W 4780   5.360  20.100  10.896
43492W        W 4781  18.163  10.679  11.529
43493W        W 4782  43.795  15.632   2.272
43494W        W 4783  28.935  29.475  13.440
43495W        W 4784  16.748   8.833  14.781
43496W        W 4785  12.622   2.905  14.375
43497W        W 4786   0.847  11.173  14.373
43498W        W 4787  23.496  37.046  10.594
43499W        W 4788  24.524  35.490  11.946
43500W        W 4789  27.020  18.085  13.935
43501W        W 4790  10.643  23.240   4.166
43502W        W 4791  35.855  37.383  13.965
43503W        W 4792  28.089  15.102  11.467
43504W        W 4793  24.137  17.686  12.373
43505W        W 4794  19.669   6.700  14.777
43506W        W 4795   8.274   1.812   3.698
43507W        W 4796  17.171  16.104  12.967
43508W        W 4797  32.005  38.416  10.969
43509W        W 4798  41.032  21.566  11.879
43510W        W 4799  21.683   7.782   1.427
43511W        W 4800  25.969  39.464   0.902
43512W        W 4801  24.133  35.904   4.721
43513W        W 4802  32.545  18.152   0.789
43514W        W 4803  37.393  34.950  11.000
43515W        W 4804  30.449   9.709  13.829
43516W        W 4805  27.171   4.716   2.386
43517W        W 4806  15.205  30.109  14.788
43518W        W 4807  24.655  11.196   1.769
43519W        W 4808   5.240  41.901   3.795
43520W        W 4809  44.955  31.045   2.210
43521W        W 4810  34.871  40.034  14.990
43522W        W 4811  27.050  35.013  11.976
43523W        W 4812  35.602  11.282   3.869
43524W        W 4813  16.674   3.432  11.376
43525W        W 4814  28.672  14.637   2.215
43526W        W 4815   5.912  11.352   2.302
43527W        W 4816  21.101  35.933   3.784
43528W        W 4817  38.002  28.617  12.406
43529W        W 4818  39.396   9.250  14.299
43530W        W 4819  31.524  21.122  11.048
43531W        W 4820  10.714   8.794   0.860
43532W        W 4821  26.467  37.367  12.012
43533W        W 4822  26.621  26.078   2.754
43534W        W 4823  35.500  12.346  11.050
43535W        W 4824  30.148  16.240   0.825
43536W        W 4825  18.249   7.865  10.990
43537W        W 4826  28.974  17.277  12.071
43538W        W 4827   3.239  19.661   1.710
43539W        W 4828  20.619  23.017  14.876
43540W        W 4829  29.948  37.376  11.430
43541W        W 4830  15.764  22.205   2.395
43542W        W 4831  31.535  43.361  13.839
43543W        W 4832  36.067  29.541   1.906
43544W        W 4833  19.562  15.732  12.059
43545W        W 4834  44.821  38.558  12.039
43546W        W 4835  35.584  14.289  13.425
43547W        W 4836   9.884  24.605  14.497
43548W        W 4837  42.829  31.995   0.927
43549W        W 4838  42.921  15.100  10.406
43550W        W 4839   6.302  30.999   3.654
43551W        W 4840  16.653  15.624   3.859
43552W        W 4841  44.417  13.197  12.920
43553W        W 4842   3.934  16.801  12.853
43554W        W 4843  43.472  27.542  13.506
43555W        W 4844  35.393  19.558  13.039
43556W        W 4845  21.523  33.487   0.850
43557W        W 4846  43.821  24.710   1.273
43558W        W 4847   3.249  33.906  13.062
43559W        W 4848  11.140  12.349   1.298
43560W        W 4849  21.705  39.488   0.328
43561W        W 4850  10.252  15.589   3.854
43562W        W 4851  21.554  29.054  13.044
43563W        W 4852  31.103   4.804   0.269
43564W        W 4853  33.046   7.739  13.837
43565W        W 4854  42.902  35.102   3.640
43566W        W 4855   3.822  21.158   2.707
43567W        W 4856  30.047  38.986  11.129
43568W        W 4857  43.888   8.329   3.819
43569W        W 4858  10.356  40.524  14.836
43570W        W 4859  17.595   9.274  11.595
43571W        W 4860   1.777   4.902  11.606
43572W        W 4861  36.853   3.850  12.880
43573W        W 4862   1.793  22.059   0.816
43574W        W 4863  40.047  11.372  10.925
43575W        W 4864  40.504  36.434  10.539
43576W        W 4865  13.845  32.469  12.946
43577W        W 4866  25.021  31.568  13.947
43578W        W 4867  43.982  11.335   1.795
43579W        W 4868  32.588  25.101  10.442
43580W        W 4869  16.570   3.356   3.843
43581W        W 4870  19.198  40.054   4.803
43582W        W 4871  40.932   1.801  13.959
43583W        W 4872  20.272   4.333  10.632
43584W        W 4873  16.568  14.735  11.516
43585W        W 4874  42.860  28.004   4.155
43586W        W 4875  35.446   1.338  12.453
43587W        W 4876  29.004  26.532   4.302
43588W        W 4877  34.925  41.453  13.801
43589W        W 4878   4.414   3.853   4.747
43590W        W 4879  13.712   6.753   2.695
43591W        W 4880   8.811  30.623   0.480
43592W        W 4881  10.731  28.047   4.213
43593W        W 4882  25.169  31.541   2.726
43594W        W 4883  27.017  10.377  12.081
43595W        W 4884  17.565   6.258  11.020
43596W        W 4885  39.553  39.984   2.395
43597W        W 4886  22.674   1.897   2.672
43598W        W 4887  12.178  12.726  13.328
43599W        W 4888  30.126  33.018  13.825
43600W        W 4889  36.519  32.634  11.526
43601W        W 4890  13.128   9.767  11.520
43602W        W 4891  33.484  34.062  12.860
43603W        W 4892   2.424  18.081   2.734
43604W        W 4893   5.708  24.530  14.406
43605W        W 4894   8.869   1.297   2.295
43606W        W 4895  34.602  10.771  11.473
43607W        W 4896  16.787   1.846   4.756
43608W        W 4897  23.570  10.633   2.897
43609W        W 4898  14.811  34.039   2.211
43610W        W 4899  30.495   0.372   3.282
43611W        W 4900  29.529  34.070  12.024
43612W        W 4901  23.184  13.641   3.236
43613W        W 4902  28.044   2.287   4.216
43614W        W 4903   0.265  29.082   2.355
43615W        W 4904  37.015  43.449   2.881
43616W        W 4905  16.213  35.937  14.412
43617W        W 4906   6.850  40.461   0.465
43618W        W 4907  34.889  17.786   3.292
43619W        W 4908   5.429  26.539  11.860
43620W        W 4909  25.609   5.713   0.962
43621W        W 4910  27.508  36.893  11.860
43622W        W 4911  21.232  22.008   3.760
43623W        W 4912  44.487  44.287   3.223
43624W        W 4913  43.803  12.830   3.149
43625W        W 4914  32.436  10.863   3.313
43626W        W 4915  16.298  41.512  14.432
43627W        W 4916  36.554  32.888   1.261
43628W        W 4917  24.652  20.209  12.093
43629W        W 4918  10.168  17.719   4.732
43630W        W 4919  13.664  36.458  14.833
43631W        W 4920   1.752   0.983  14.321
43632W        W 4921  36.412  29.005  14.982
43633W        W 4922   0.350  16.631   0.923
43634W        W 4923  42.456  20.270  10.447
43635W        W 4924  37.353  30.078   1.402
43636W        W 4925  42.856  41.909   0.878
43637W        W 4926  34.397  11.797   0.246
43638W        W 4927  21.164  16.700   1.445
43639W        W 4928  27.610  24.662  14.363
43640W        W 4929  25.132  19.220  10.910
43641W        W 4930  33.980  10.228  10.409
43642W        W 4931  11.206  19.558   2.731
43643W        W 4932  29.161   9.215   3.768
43644W        W 4933  19.086  41.867   4.612
43645W        W 4934   8.852  12.778   1.844
43646W        W 4935  43.485   3.332  11.880
43647W        W 4936  11.805  23.604  10.622
43648W        W 4937  29.955   5.911  13.032
43649W        W 4938  16.242   4.398   3.783
43650W        W 4939   4.791  35.432   1.720
43651W        W 4940  10.685  38.471  13.378
43652W        W 4941  14.754  14.312   3.346
43653W        W 4942  41.347  12.334  14.403
43654W        W 4943   6.749  39.531  14.900
43655W        W 4944  18.073   4.827   2.290
43656W        W 4945   2.881  16.174  11.608
43657W        W 4946  32.024  39.318   0.759
43658W        W 4947  21.596  25.986   4.666
43659W        W 4948   6.202  10.199  14.827
43660W        W 4949   7.762  10.313  13.895
43661W        W 4950  25.168  26.970  12.981
43662W        W 4951  17.572  31.455   2.818
43663W        W 4952  15.788   6.421  11.560
43664W        W 4953  14.294  26.554  12.344
43665W        W 4954  43.401  35.584  14.482
43666W        W 4955  21.132  26.132   0.473
43667W        W 4956  36.008  42.458  13.008
43668W        W 4957  31.040  23.232  13.941
43669W        W 4958  40.421  28.582  14.919
43670W        W 4959  41.351  23.198  14.899
43671W        W 4960   9.674  40.917  14.797
43672W        W 4961  25.184  15.138   0.279
43673W        W 4962  27.164  40.513   2.182
43674W        W 4963   2.948  18.655   1.391
43675W        W 4964  41.999   5.263  12.396
43676W        W 4965  17.146  13.670  14.468
43677W        W 4966  23.685   0.411   0.304
43678W        W 4967  15.707   1.369  12.544
43679W        W 4968  35.497  16.769  14.864
43680W        W 4969   0.475  16.777   4.601
43681W        W 4970  44.923  19.602  13.374
43682W        W 4971  43.383  15.768   2.856
43683W        W 4972   4.216   4.735   0.409
43684W        W 4973   0.971   4.294   4.336
43685W        W 4974  28.024  12.669   0.953
43686W        W 4975   0.477  16.665  12.034
43687W        W 4976  32.994  37.004  13.324
43688W        W 4977  10.240  36.012  14.403
43689W        W 4978  43.387   9.825  13.815
43690W        W 4979   4.899  35.005  10.540
43691W        W 4980  38.526   7.372   3.254
43692W        W 4981  36.984  43.460   0.475
43693W        W 4982  14.307  25.537   2.393
43694W        W 4983  25.998   5.902  10.984
43695W        W 4984  25.062  37.080   2.878
43696W        W 4985  17.727  39.476  13.041
43697W        W 4986  19.694   5.250   2.195
43698W        W 4987  31.603   3.414   2.876
43699W        W 4988  21.568  12.354  14.942
43700W        W 4989  14.144   9.728  14.891
43701W        W 4990  39.968  44.793   0.873
43702W        W 4991  36.495   6.312  11.606
43703W        W 4992  13.689   5.355  14.297
43704W        W 4993   0.296   9.395   0.391
43705W        W 4994  35.876   8.719  13.908
43706W        W 4995   8.323  38.459  12.480
43707W        W 4996  35.500  41.040   0.475
43708W        W 4997  22.087   1.896  14.450
43709W        W 4998  42.921   8.836   0.760
43710W        W 4999  26.459  20.715   3.824
43711W        W 5000  33.407  41.503  14.968
43712W        W 5001  11.803   8.698  13.042
43713W        W 5002   0.463   0.872   4.784
43714W        W 5003   4.417   8.721  13.378
43715W        W 5004  32.457   7.900   4.353
43716W        W 5005  39.413  17.305  13.545
43717W        W 5006   7.871  17.801   1.918
43718W        W 5007   5.909   4.389   0.464
43719W        W 5008  44.778  23.137   1.299
43720W        W 5009  40.308  31.516   0.432
43721W        W 5010  34.998   8.877  13.014
43722W        W 5011   0.922   5.419   3.302
43723W        W 5012  25.048  21.142   4.259
43724W        W 5013   1.771  33.585   4.811
43725W        W 5014  42.788  29.572   1.430
43726W        W 5015  28.457   9.668  14.387
43727W        W 5016  29.081   1.410  11.857
43728W        W 5017  12.647  30.568  11.038
43729W        W 5018  26.089  27.067  12.875
43730W        W 5019  21.132  20.544   1.750
43731W        W 5020  40.840   0.440  12.890
43732W        W 5021  25.092   3.290  13.044
43733W        W 5022  16.137  27.522  14.372
43734W        W 5023  15.308  32.580  14.424
43735W        W 5024   9.355  13.605   1.347
43736W        W 5025  18.268   4.896  13.381
43737W        W 5026  20.048   1.887   3.365
43738W        W 5027  18.103  18.239  13.366
43739W        W 5028  38.917   3.956  10.641
43740W        W 5029  38.359  13.643   1.336
43741W        W 5030  19.152  35.069  10.556
43742W        W 5031  13.697  35.071  14.283
43743W        W 5032   5.887  28.502   9.662
43744W        W 5033  22.636   6.361  10.892
43745W        W 5034  13.182  11.145   1.812
43746W        W 5035  30.489  35.104  10.624
43747W        W 5036  11.843  15.751  12.826
43748W        W 5037  12.219  42.384  12.423
43749W        W 5038  14.741  24.010  11.025
43750W        W 5039  42.957  31.441  11.399
43751W        W 5040  37.044  17.269  11.480
43752W        W 5041  14.694  27.671  14.385
43753W        W 5042  25.123  19.613   0.358
43754W        W 5043  23.706  42.510  10.987
43755W        W 5044  10.243  30.470  12.532
43756W        W 5045  38.366  11.329   3.783
43757W        W 5046  19.730  31.602   0.779
43758W        W 5047   6.374  43.443   4.331
43759W        W 5048  41.396  42.444   2.184
43760W        W 5049   2.895   9.766   2.804
43761W        W 5050   4.808  44.293  14.919
43762W        W 5051  38.990  32.106   2.871
43763W        W 5052   5.832  18.698   2.378
43764W        W 5053  32.409  13.225  10.495
43765W        W 5054  26.699  38.921   5.206
43766W        W 5055   0.296  41.812  10.594
43767W        W 5056   4.879  40.016  12.885
43768W        W 5057  28.084  20.200  10.623
43769W        W 5058  16.124  20.271  14.376
43770W        W 5059  13.169  30.521   2.855
43771W        W 5060  21.236   7.182   2.664
43772W        W 5061  34.520   2.787   1.231
43773W        W 5062  11.292  36.968  11.529
43774W        W 5063   6.902   3.807   3.631
43775W        W 5064  31.112   7.314   0.256
43776W        W 5065  11.776  29.562  11.589
43777W        W 5066  42.858  31.404   0.753
43778W        W 5067   4.359  24.029   1.876
43779W        W 5068  36.490  43.811  14.005
43780W        W 5069  12.149  30.516   4.289
43781W        W 5070  26.654  31.550  14.915
43782W        W 5071   9.872  19.762  10.529
43783W        W 5072  31.473   5.431   4.323
43784W        W 5073  21.650  13.177  10.487
43785W        W 5074  14.208  36.066   0.277
43786W        W 5075  38.556  44.321  10.602
43787W        W 5076   8.331  38.829   4.148
43788W        W 5077  21.195   9.693  11.002
43789W        W 5078   3.926  10.791   3.263
43790W        W 5079  16.617  12.716   2.399
43791W        W 5080  27.020  43.883  13.392
43792W        W 5081  10.169  22.032   4.635
43793W        W 5082  10.328  37.565  13.799
43794W        W 5083  24.175  15.149  14.985
43795W        W 5084  11.218  31.955  13.856
43796W        W 5085  15.766  43.406  13.985
43797W        W 5086  26.552   9.825   3.191
43798W        W 5087  20.574  34.082   3.356
43799W        W 5088   5.932   0.390   3.177
43800W        W 5089  12.300  19.268  13.932
43801W        W 5090  13.291  10.804   4.313
43802W        W 5091  18.699   7.671  14.968
43803W        W 5092  39.964  20.561   1.783
43804W        W 5093  20.246  23.634  14.340
43805W        W 5094  12.303   5.325  11.425
43806W        W 5095  12.622  21.029   0.427
43807W        W 5096  11.852   6.342  12.543
43808W        W 5097  16.577  27.607  11.873
43809W        W 5098  35.939  22.610   3.752
43810W        W 5099   8.227  41.489   2.209
43811W        W 5100  11.218  36.407   2.245
43812W        W 5101   1.927  22.648   2.309
43813W        W 5102  39.374  15.612  14.876
43814W        W 5103  14.757  21.623  14.433
43815W        W 5104   8.384  13.730   2.681
43816W        W 5105  42.305  28.085   1.847
43817W        W 5106  31.594   1.859   0.317
43818W        W 5107  36.013   0.264  13.543
43819W        W 5108  16.626   4.931   0.322
43820W        W 5109  13.705  27.510   0.789
43821W        W 5110   3.728   3.355  13.536
43822W        W 5111  32.053   2.366  11.993
43823W        W 5112  16.767   3.941  13.959
43824W        W 5113  11.251  27.478  12.477
43825W        W 5114  42.027   1.861  11.437
43826W        W 5115  33.613  36.910  13.853
43827W        W 5116  18.205  10.714   1.931
43828W        W 5117  19.130  13.707   4.297
43829W        W 5118  28.184  35.008  14.829
43830W        W 5119  12.139   2.850  13.054
43831W        W 5120  31.928  23.202  13.511
43832W        W 5121   0.826  14.757  12.408
43833W        W 5122  19.042  31.090   2.790
43834W        W 5123  29.646  12.820  10.505
43835W        W 5124  22.999   2.880  13.990
43836W        W 5125  12.855   4.338   1.343
43837W        W 5126  38.478  17.594  14.406
43838W        W 5127  31.596   5.749  14.915
43839W        W 5128  25.485  12.691   3.862
43840W        W 5129   3.758   2.746  11.446
43841W        W 5130  26.501  11.234   0.257
43842W        W 5131  30.644   8.207   9.944
43843W        W 5132  29.511  37.014  12.841
43844W        W 5133  38.066  42.376  11.376
43845W        W 5134  31.458  35.068   2.692
43846W        W 5135   2.443   1.390  11.447
43847W        W 5136  31.989  33.024   4.242
43848W        W 5137   7.383  14.338  11.995
43849W        W 5138  44.340   2.260   1.784
43850W        W 5139   6.913  10.296  12.368
43851W        W 5140   5.308  11.716  14.853
43852W        W 5141  11.655  18.151   0.784
43853W        W 5142  33.929  11.792   3.257
43854W        W 5143  25.545   7.858   5.217
43855W        W 5144  39.817   8.846   2.304
43856W        W 5145  17.094  39.877   0.369
43857W        W 5146  18.612  14.832   4.607
43858W        W 5147   4.430   3.218   3.245
43859W        W 5148  10.198  29.457  13.870
43860W        W 5149  44.756  30.503  13.903
43861W        W 5150   8.273   7.326  13.339
43862W        W 5151  12.245   0.433   2.335
43863W        W 5152  32.132   9.863   4.707
43864W        W 5153  17.080  37.017  13.947
43865W        W 5154  44.790  33.612   2.396
43866W        W 5155  38.922   9.333  11.459
43867W        W 5156   0.818  27.533   1.344
43868W        W 5157   4.379  30.995  13.043
43869W        W 5158  33.525  26.517   1.870
43870W        W 5159  43.478  14.150  11.962
43871W        W 5160  44.813  13.681   4.264
43872W        W 5161  19.777  11.270  12.001
43873W        W 5162  18.723  19.731  14.769
43874W        W 5163  25.629  34.956   0.836
43875W        W 5164  10.766  23.610  10.548
43876W        W 5165  22.672  16.606   2.287
43877W        W 5166  25.090  15.159  12.362
43878W        W 5167  40.855  10.202  10.484
43879W        W 5168  39.833  30.545   0.318
43880W        W 5169  40.466  30.947  10.914
43881W        W 5170  21.230  42.926  12.842
43882W        W 5171  27.981  20.717   0.774
43883W        W 5172  29.009   2.855  11.994
43884W        W 5173  36.562   4.723  11.088
43885W        W 5174  21.117  14.122  12.412
43886W        W 5175  23.637   3.405  11.079
43887W        W 5176  12.774  32.895  12.569
43888W        W 5177  44.000  42.400  14.441
43889W        W 5178  10.238  44.396  14.893
43890W        W 5179  16.251  31.108  12.354
43891W        W 5180  44.479  40.425   2.356
43892W        W 5181  25.684   7.864  13.030
43893W        W 5182  42.002  28.081   3.838
43894W        W 5183  36.956  26.542   2.730
43895W        W 5184  23.561  34.490   1.926
43896W        W 5185  41.460  21.719   2.761
43897W        W 5186  18.073  16.798   3.778
43898W        W 5187  27.543  26.668   3.182
43899W        W 5188   2.348   3.280  14.959
43900W        W 5189  13.300   9.738   4.722
43901W        W 5190   5.698   2.345  11.966
43902W        W 5191  33.477  12.611  12.833
43903W        W 5192   7.271  43.277   1.826
43904W        W 5193  22.510  22.024   4.787
43905W        W 5194  24.553  14.640  12.013
43906W        W 5195  17.166  26.702   1.907
43907W        W 5196  20.076   9.717   1.212
43908W        W 5197  24.714  40.386   0.478
43909W        W 5198  11.343  35.888   1.387
43910W        W 5199  28.569  38.996  13.495
43911W        W 5200  26.611  40.968   4.209
43912W        W 5201  44.436  12.813   3.335
43913W        W 5202  11.624   1.361  11.117
43914W        W 5203  37.487  13.838   0.732
43915W        W 5204   6.756  34.533   2.866
43916W        W 5205  13.189  34.928   4.837
43917W        W 5206  11.362  31.065  14.977
43918W        W 5207  19.624  41.416  12.354
43919W        W 5208   8.281  20.525   2.878
43920W        W 5209  36.028   3.799   1.219
43921W        W 5210  35.503  16.580   3.298
43922W        W 5211  15.674  41.438   3.365
43923W        W 5212  32.407   3.822  13.444
43924W        W 5213  20.558  22.063  12.424
43925W        W 5214   6.814   4.868   2.339
43926W        W 5215  28.517  11.622  13.439
43927W        W 5216  18.070   0.812  14.289
43928W        W 5217   5.904  37.916  13.882
43929W        W 5218   1.439  18.101  13.389
43930W        W 5219  16.616  30.618  10.940
43931W        W 5220  23.601  26.502  14.985
43932W        W 5221   7.318  35.580   0.445
43933W        W 5222   1.415  39.024  11.081
43934W        W 5223   2.752  28.512   1.856
43935W        W 5224  25.689  26.154  13.432
43936W        W 5225   7.344   9.748  10.411
43937W        W 5226  34.588  26.548  14.423
43938W        W 5227  28.544  22.997  12.500
43939W        W 5228   3.921  14.655   4.615
43940W        W 5229  15.288   0.295   0.282
43941W        W 5230  39.058  18.221   3.795
43942W        W 5231  20.715  31.918  14.895
43943W        W 5232  40.051   9.213  14.783
43944W        W 5233   0.405  38.015   0.828
43945W        W 5234  19.748  42.434  11.099
43946W        W 5235  12.850  23.106  10.457
43947W        W 5236  37.009  40.827   1.264
43948W        W 5237  22.546   5.315   0.785
43949W        W 5238  44.306  29.668  10.631
43950W        W 5239  40.824  34.431   4.702
43951W        W 5240   3.904  15.083   0.818
43952W        W 5241  18.056  39.459   0.393
43953W        W 5242  44.992  25.185  13.445
43954W        W 5243  14.149  31.034  12.036
43955W        W 5244  44.263  38.407  12.924
43956W        W 5245  33.895  20.526  12.002
43957W        W 5246  10.345  36.948   9.993
43958W        W 5247  42.460  26.981  14.285
43959W        W 5248  39.059  17.161  13.477
43960W        W 5249  23.509  15.220  14.423
43961W        W 5250  22.580  34.377  12.565
43962W        W 5251  37.863  29.174   4.199
43963W        W 5252  40.958   9.295  11.055
43964W        W 5253  44.946   8.382  12.375
43965W        W 5254  31.473  41.375  12.951
43966W        W 5255  10.702  12.275   1.245
43967W        W 5256  24.123   9.741   0.251
43968W        W 5257  13.214  20.752   2.356
43969W        W 5258  44.335  37.867  11.971
43970W        W 5259   7.412  27.602   9.975
43971W        W 5260  10.200  31.404  10.587
43972W        W 5261  25.633  19.779  12.020
43973W        W 5262  25.118  25.708   0.900
43974W        W 5263   4.323  30.987   3.167
43975W        W 5264  32.456  38.335   1.389
43976W        W 5265  22.549   0.854  11.577
43977W        W 5266  23.538  20.610  11.594
43978W        W 5267  43.822   6.896  11.894
43979W        W 5268  33.896  44.318  12.000
43980W        W 5269  17.727   6.283   3.729
43981W        W 5270  14.799  11.739  14.334
43982W        W 5271   4.804   5.288   1.362
43983W        W 5272  41.894  31.900  14.863
43984W        W 5273  35.883  30.606   2.685
43985W        W 5274  18.281  24.516   3.172
43986W        W 5275  24.138   2.837  13.986
43987W        W 5276  30.506  42.419   4.634
43988W        W 5277  10.149  23.532   1.364
43989W        W 5278  32.567  40.999  14.959
43990W        W 5279  29.482   4.209  13.817
43991W        W 5280  26.606  40.457   5.228
43992W        W 5281  37.514  12.262   0.336
43993W        W 5282  23.034  15.144   4.158
43994W        W 5283  34.513  38.836   4.154
43995W        W 5284  26.503  43.940  13.470
43996W        W 5285  11.804  36.080   2.768
43997W        W 5286   8.399  41.461   4.622
43998W        W 5287  16.605  37.076  11.933
43999W        W 5288   5.871  11.711   3.253
44000W        W 5289  20.764  30.043  12.434
44001W        W 5290  44.890   9.356   2.722
44002W        W 5291  40.853  16.611  12.546
44003W        W 5292  14.298  19.538   4.645
44004W        W 5293   8.332  41.966   2.747
44005W        W 5294  35.041  32.899  12.420
44006W        W 5295  40.530   3.801   0.400
44007W        W 5296  43.369  27.940   4.310
44008W        W 5297  39.501  21.531   9.475
44009W        W 5298  22.694  24.575  10.440
44010W        W 5299  43.926   6.777  14.866
44011W        W 5300  24.137   4.238  11.084
44012W        W 5301  35.493   1.819   1.232
44013W        W 5302  40.451  33.944  11.540
44014W        W 5303  20.679  16.103   1.292
44015W        W 5304  23.215  24.004  10.440
44016W        W 5305  38.412  10.649  10.947
44017W        W 5306  15.087   9.723  14.514
44018W        W 5307  22.204  15.089   3.315
44019W        W 5308  20.665  35.081  10.983
44020W        W 5309  25.039  31.032  11.512
44021W        W 5310  26.594  25.108  14.877
44022W        W 5311   1.321  17.773  12.916
44023W        W 5312   2.428   5.353  14.359
44024W        W 5313   5.733  23.541   3.246
44025W        W 5314  27.539  18.561   3.165
44026W        W 5315  26.184  13.739   1.450
44027W        W 5316  14.130  43.487   3.334
44028W        W 5317  17.618   2.391  11.994
44029W        W 5318   7.866   7.719  11.000
44030W        W 5319  32.408  42.853   3.259
44031W        W 5320  28.662   2.246  14.285
44032W        W 5321  36.509  19.770  10.511
44033W        W 5322   6.853  27.116   4.296
44034W        W 5323  35.461   1.896   3.847
44035W        W 5324  26.499   3.380  12.518
44036W        W 5325  24.049  43.864  11.452
44037W        W 5326  27.671  26.146   0.369
44038W        W 5327   6.326  37.384  10.509
44039W        W 5328   0.332  16.754   3.714
44040W        W 5329   8.234  38.550  10.934
44041W        W 5330  10.764   0.931   3.202
44042W        W 5331  18.714   2.262   1.435
44043W        W 5332  29.439  30.164   4.141
44044W        W 5333   2.780  44.292   0.950
44045W        W 5334  19.665   7.240  14.976
44046W        W 5335  34.951  23.639   2.752
44047W        W 5336   5.308   4.379   3.385
44048W        W 5337  35.889  16.254   0.820
44049W        W 5338   0.296  44.415  12.470
44050W        W 5339   2.814  13.146  11.532
44051W        W 5340  21.193  24.996  11.556
44052W        W 5341  18.269   2.954   1.286
44053W        W 5342  35.883  18.758   2.408
44054W        W 5343  33.016  35.468   3.732
44055W        W 5344  21.651   6.856  13.364
44056W        W 5345  33.999  14.619  11.483
44057W        W 5346  29.041  18.218  13.921
44058W        W 5347  37.345  43.919   0.870
44059W        W 5348   6.859  22.747   4.803
44060W        W 5349  16.625   1.447  12.871
44061W        W 5350   5.272   5.372   2.891
44062W        W 5351  12.717  23.534  10.096
44063W        W 5352  10.224  33.968  12.478
44064W        W 5353  39.465  35.107  12.422
44065W        W 5354  23.627  19.535  13.861
44066W        W 5355  38.351  38.041   0.752
44067W        W 5356  16.722  20.642   3.841
44068W        W 5357  42.845   8.233   5.576
44069W        W 5358  12.146  37.431   9.493
44070W        W 5359  38.485  22.505   2.866
44071W        W 5360  11.710  29.557   3.332
44072W        W 5361  30.004  43.445   2.337
44073W        W 5362   9.170  16.117  14.974
44074W        W 5363  19.229  22.608  14.865
44075W        W 5364  17.645   5.335  10.410
44076W        W 5365  35.938  23.575  13.407
44077W        W 5366  31.467  42.435   2.767
44078W        W 5367  42.792  13.778  14.373
44079W        W 5368   2.767  32.066  11.545
44080W        W 5369   5.327   9.372   4.130
44081W        W 5370  24.170  33.404  14.454
44082W        W 5371  24.187   4.250  12.002
44083W        W 5372  32.445  32.420   2.805
44084W        W 5373  14.749   4.911   0.243
44085W        W 5374  37.355  11.651   4.294
44086W        W 5375  31.050  33.025   2.692
44087W        W 5376  16.315  10.177  11.416
44088W        W 5377  44.410  30.631   0.735
44089W        W 5378  20.699  15.194   1.369
44090W        W 5379  29.121  43.300   1.758
44091W        W 5380  41.402  18.112   3.732
44092W        W 5381  42.465  35.516   3.372
44093W        W 5382   2.286  15.317  11.960
44094W        W 5383   7.761  42.999   1.873
44095W        W 5384  14.278  43.922   9.930
44096W        W 5385   8.753  19.561   1.258
44097W        W 5386  10.721   1.415  14.946
44098W        W 5387  23.159   6.799  10.890
44099W        W 5388  37.908  26.172   2.855
44100W        W 5389  13.725  14.785   1.750
44101W        W 5390  36.372  24.566   1.755
44102W        W 5391  16.618  35.437  12.428
44103W        W 5392  28.967   1.452   4.798
44104W        W 5393  43.820  19.652  14.773
44105W        W 5394   2.855   5.204  13.928
44106W        W 5395  42.525  36.426   3.871
44107W        W 5396   5.307   0.434  14.480
44108W        W 5397  11.719  18.721  13.491
44109W        W 5398  25.156   9.277   4.173
44110W        W 5399  37.346  18.589   5.131
44111W        W 5400  33.925  32.549   1.813
44112W        W 5401  39.359  13.181  14.355
44113W        W 5402  11.335  29.939   2.705
44114W        W 5403  18.116  15.668  13.439
44115W        W 5404  37.928   8.243   3.831
44116W        W 5405  11.179  22.126  13.948
44117W        W 5406  12.169  40.989  14.397
44118W        W 5407   5.369   4.304   2.278
44119W        W 5408  31.478  33.518  13.870
44120W        W 5409  36.924  19.155  10.448
44121W        W 5410  24.093  28.617  12.438
44122W        W 5411  41.790  41.490  12.344
44123W        W 5412  38.073   5.824  12.954
44124W        W 5413   1.738  42.930  14.454
44125W        W 5414   0.480   6.847   4.756
44126W        W 5415  13.235  43.824  12.900
44127W        W 5416  17.758  14.666  10.907
44128W        W 5417  35.868   0.346  13.989
44129W        W 5418  10.345  27.979   0.437
44130W        W 5419  32.519  37.428  13.483
44131W        W 5420  25.167  40.851   2.782
44132W        W 5421  13.833  40.391   0.741
44133W        W 5422  42.902  44.365  11.955
44134W        W 5423   7.174  30.458   2.271
44135W        W 5424  12.217  34.992   3.256
44136W        W 5425  31.130  37.087   0.457
44137W        W 5426  14.743  32.027   4.703
44138W        W 5427  35.038  38.496  11.093
44139W        W 5428  10.640  33.036   3.652
44140W        W 5429  34.396  22.658   2.258
44141W        W 5430  33.019  35.543   4.220
44142W        W 5431   3.389  43.412  12.572
44143W        W 5432  36.054  43.332   1.830
44144W        W 5433  26.627  34.043  13.978
44145W        W 5434   3.754  41.026   1.265
44146W        W 5435  42.920  23.634   3.176
44147W        W 5436   0.884   5.694   1.299
44148W        W 5437  43.338  35.885  11.976
44149W        W 5438  12.719  33.962   3.336
44150W        W 5439  34.879  35.579  11.109
44151W        W 5440  16.225  14.759  10.965
44152W        W 5441   8.794   7.253   0.478
44153W        W 5442  32.488  39.477  12.482
44154W        W 5443  40.908  32.412  13.962
44155W        W 5444  10.296  21.727   0.788
44156W        W 5445   8.401  16.284   0.321
44157W        W 5446  32.994  13.668  12.525
44158W        W 5447   6.845  30.019   3.865
44159W        W 5448  11.855   1.251  14.832
44160W        W 5449  17.307  27.595  13.034
44161W        W 5450   4.357  23.662   4.599
44162W        W 5451  17.776  20.660  14.815
44163W        W 5452  42.884  37.894  13.498
44164W        W 5453  16.598  24.712   2.728
44165W        W 5454  39.049  42.391  12.914
44166W        W 5455  17.792   1.820   2.262
44167W        W 5456  44.982   4.247  14.498
44168W        W 5457   2.936  17.233  14.360
44169W        W 5458  28.039  40.801  10.424
44170W        W 5459  26.969   7.768   1.305
44171W        W 5460  26.148  36.910   0.733
44172W        W 5461  21.139   6.877  14.915
44173W        W 5462  11.319  40.394  14.795
44174W        W 5463  16.175  14.141  12.868
44175W        W 5464  27.165  30.118   4.116
44176W        W 5465   1.458  18.169  14.310
44177W        W 5466  19.743  19.209   4.735
44178W        W 5467  10.656  35.017   2.279
44179W        W 5468  21.750   0.475  10.542
44180W        W 5469  22.008  31.938  14.352
44181W        W 5470   6.740  34.906  10.107
44182W        W 5471   1.858  32.535   2.190
44183W        W 5472  36.876   1.940  14.397
44184W        W 5473   1.931  33.920  10.547
44185W        W 5474  41.911  12.305   3.226
44186W        W 5475  42.849  23.037   3.281
44187W        W 5476  33.030  24.704  14.293
44188W        W 5477  18.101   6.254  10.612
44189W        W 5478  38.421  13.269  13.052
44190W        W 5479  40.331  22.642   5.234
44191W        W 5480  25.207  28.107  14.927
44192W        W 5481  34.089  15.624  12.030
44193W        W 5482  25.483  17.719  14.775
44194W        W 5483  36.901  35.456  11.489
44195W        W 5484  18.213  41.977  11.011
44196W        W 5485   2.785  11.170   3.256
44197W        W 5486  29.579   4.724  13.836
44198W        W 5487  37.903  12.245   2.321
44199W        W 5488   0.876   5.697  13.484
44200W        W 5489  34.996   9.752  10.594
44201W        W 5490  15.609   3.240   0.274
44202W        W 5491  19.623  12.769  13.357
44203W        W 5492  14.655  24.184  10.607
44204W        W 5493  23.143  21.728   3.315
44205W        W 5494   4.388  43.326   2.288
44206W        W 5495   7.225  27.958   2.266
44207W        W 5496  33.039   6.390   2.852
44208W        W 5497  10.685  29.167  11.040
44209W        W 5498  13.707   3.399  14.408
44210W        W 5499  21.175  34.423  14.926
44211W        W 5500  25.524  21.037   0.323
44212W        W 5501  25.554  17.164   4.680
44213W        W 5502   0.746  11.229   1.449
44214W        W 5503  27.513  11.783   4.698
44215W        W 5504  43.782  28.078   0.309
44216W        W 5505   2.785  38.399  12.403
44217W        W 5506  42.289  20.666   4.837
44218W        W 5507  18.682   6.846  12.057
44219W        W 5508  33.408  28.571  12.998
44220W        W 5509  39.436  12.355   0.299
44221W        W 5510  30.910   8.714  13.886
44222W        W 5511  24.084  24.990  14.405
44223W        W 5512   9.685  35.929  12.535
44224W        W 5513  24.654  35.474  12.372
44225W        W 5514  36.010   9.678  13.337
44226W        W 5515  33.936  11.680  10.520
44227W        W 5516  20.733  14.792   2.663
44228W        W 5517   6.241   5.920   0.394
44229W        W 5518   6.352  36.946  12.874
44230W        W 5519  33.521  44.285   0.943
44231W        W 5520  23.078   5.208   1.697
44232W        W 5521  18.705  26.169   1.397
44233W        W 5522   4.753  26.203  12.039
44234W        W 5523   5.197  37.904   4.333
44235W        W 5524  43.448  40.396   3.686
44236W        W 5525  30.598  24.611  12.991
44237W        W 5526  11.227  38.984   3.149
44238W        W 5527  16.239  13.228  11.459
44239W        W 5528   9.876  28.986   4.610
44240W        W 5529  36.035  42.296  14.357
44241W        W 5530   7.699  42.456   0.829
44242W        W 5531  37.025   7.319  14.925
44243W        W 5532  35.469  10.176   3.699
44244W        W 5533  16.783  24.198  10.464
44245W        W 5534  42.903  37.407  13.416
44246W        W 5535  14.831  19.728  12.450
44247W        W 5536  10.818  26.526  10.590
44248W        W 5537  13.317  39.057   2.662
44249W        W 5538  20.650  21.085   0.933
44250W        W 5539   9.845  10.284   3.662
44251W        W 5540  41.538   9.727   1.848
44252W        W 5541   7.411   0.383  12.900
44253W        W 5542  21.512  31.596  13.857
44254W        W 5543  14.281  40.921   3.153
44255W        W 5544  22.077   5.790   4.113
44256W        W 5545  11.827  37.354  13.344
44257W        W 5546  12.832  37.410  13.383
44258W        W 5547  17.777  22.590  14.953
44259W        W 5548  29.524  22.239  10.411
44260W        W 5549  43.933  36.562   0.447
44261W        W 5550   9.885  37.997   4.344
44262W        W 5551  12.855   1.919   2.765
44263W        W 5552  31.534  44.487   4.176
44264W        W 5553   5.815  40.523  13.432
44265W        W 5554   8.747  40.341  10.629
44266W        W 5555  30.502   8.793  13.894
44267W        W 5556  42.448  34.561   4.179
44268W        W 5557  37.418  21.167  10.499
44269W        W 5558  25.132  32.417   0.934
44270W        W 5559  32.546  21.159  13.504
44271W        W 5560   3.754   7.744   2.819
44272W        W 5561  37.864   1.931   2.319
44273W        W 5562  41.788   5.775  13.892
44274W        W 5563  40.354  18.194  11.860
44275W        W 5564  40.910  20.722   1.800
44276W        W 5565  39.900   5.313  13.458
44277W        W 5566  34.432  38.049   2.687
44278W        W 5567  26.629  19.731  12.932
44279W        W 5568  21.075   5.213   0.371
44280W        W 5569  24.492  19.249  11.986
44281W        W 5570  12.338   0.340  14.844
44282W        W 5571  13.764  43.403  13.379
44283W        W 5572  35.563  11.365  12.995
44284W        W 5573  42.476   1.852   3.820
44285W        W 5574  33.941  23.060  11.906
44286W        W 5575  25.520  12.293  12.436
44287W        W 5576  21.045   5.709  11.459
44288W        W 5577  22.635  39.554  13.409
44289W        W 5578  25.079  33.060   1.935
44290W        W 5579  26.486  35.400  13.485
44291W        W 5580  31.613  31.607   1.745
44292W        W 5581  15.807  23.606  13.447
44293W        W 5582   0.810  24.069  11.865
44294W        W 5583  12.801   4.415  13.532
44295W        W 5584  30.922  24.574  13.930
44296W        W 5585  40.366  13.783   2.729
44297W        W 5586  40.052  30.038   3.314
44298W        W 5587  13.182  20.652  14.006
44299W        W 5588  16.737  17.656  14.866
44300W        W 5589  12.734   0.416  12.851
44301W        W 5590  35.513   2.468   4.716
44302W        W 5591   9.762  38.435   0.337
44303W        W 5592  38.867   1.934  12.392
44304W        W 5593  31.584  41.341   4.735
44305W        W 5594  25.647  44.431  12.862
44306W        W 5595  44.356  41.889  12.532
44307W        W 5596  19.591  32.470   2.898
44308W        W 5597  27.615  42.874   3.301
44309W        W 5598  17.210  37.088  12.440
44310W        W 5599  12.236  36.991  11.576
44311W        W 5600  22.541  27.035  13.035
44312W        W 5601   7.292  40.454   0.283
44313W        W 5602  32.896  42.304  11.390
44314W        W 5603  34.412  16.198  11.971
44315W        W 5604  20.642  17.791  14.987
44316W        W 5605   1.373  27.195  10.944
44317W        W 5606  12.300  40.499  10.012
44318W        W 5607  28.514   8.804  14.364
44319W        W 5608  21.204  23.598   2.407
44320W        W 5609  24.657   6.410  12.502
44321W        W 5610  24.140  43.278   2.847
44322W        W 5611   4.809  22.541  12.959
44323W        W 5612  30.016  27.607   3.695
44324W        W 5613  18.607   1.270  10.578
44325W        W 5614   1.749  21.134   4.331
44326W        W 5615  24.194  33.579   3.155
44327W        W 5616   8.179  29.510  12.986
44328W        W 5617   6.721  43.464   4.826
44329W        W 5618  27.512   5.760   2.245
44330W        W 5619  39.815  39.530  10.548
44331W        W 5620  17.197  14.787   0.751
44332W        W 5621  41.815  13.261  14.900
44333W        W 5622  11.804  34.562   3.373
44334W        W 5623   4.777  16.644  13.966
44335W        W 5624  32.588   1.978  13.334
44336W        W 5625  18.622  13.159  14.937
44337W        W 5626  23.521   9.670  11.969
44338W        W 5627  17.677  25.138   1.324
44339W        W 5628  36.983   8.211  13.452
44340W        W 5629   0.971  18.638   1.920
44341W        W 5630  18.101  25.985   0.243
44342W        W 5631  13.748  29.610   3.228
44343W        W 5632   3.891  41.907  11.596
44344W        W 5633  27.143  17.290  13.020
44345W        W 5634  18.684  14.656   3.868
44346W        W 5635  30.080  24.037  13.912
44347W        W 5636  12.119   7.867   4.647
44348W        W 5637  26.542  16.281  11.509
44349W        W 5638  16.663  18.203  14.826
44350W        W 5639  17.091  16.807  14.873
44351W        W 5640  38.331   5.403  12.515
44352W        W 5641  11.641   5.778  13.484
44353W        W 5642  29.148  37.908   0.253
44354W        W 5643  20.678  15.109   0.964
44355W        W 5644  18.069  26.552  12.081
44356W        W 5645  39.396  31.083  14.340
44357W        W 5646  24.654  19.113   1.449
44358W        W 5647  27.160  12.248   4.804
44359W        W 5648  33.107  13.308   0.885
44360W        W 5649  24.104  33.571   1.307
44361W        W 5650  16.301  36.360  13.460
44362W        W 5651  21.611  13.316  13.053
44363W        W 5652   3.405  25.049  10.613
44364W        W 5653  30.502  14.789  12.951
44365W        W 5654  39.374  11.165   4.733
44366W        W 5655  36.050  44.815   4.184
44367W        W 5656   9.706  14.154   2.876
44368W        W 5657  41.523   8.675   9.482
44369W        W 5658  18.134  30.554   2.217
44370W        W 5659  43.930  41.906  12.451
44371W        W 5660  20.243   3.393  10.892
44372W        W 5661  15.588   1.775   1.774
44373W        W 5662  43.806   3.281   1.371
44374W        W 5663   1.437  34.968  13.984
44375W        W 5664  22.648   4.325   4.303
44376W        W 5665   4.390  18.125   2.867
44377W        W 5666  41.794  22.508  12.034
44378W        W 5667  41.919  31.938   3.164
44379W        W 5668  20.549  24.519  13.845
44380W        W 5669  36.932  31.619  14.498
44381W        W 5670  32.479  41.309  12.001
44382W        W 5671  42.777  33.469  11.494
44383W        W 5672  33.997   0.362   0.907
44384W        W 5673  28.642  41.536   1.695
44385W        W 5674  25.567  18.216  14.788
44386W        W 5675   5.276  42.522   1.448
44387W        W 5676  39.332  26.507   1.225
44388W        W 5677   6.880  34.405   1.908
44389W        W 5678  40.457  16.158   3.316
44390W        W 5679   1.397   5.363   3.668
44391W        W 5680  24.077  33.076   2.189
44392W        W 5681  32.909  41.937  13.323
44393W        W 5682  32.552   0.745   1.432
44394W        W 5683  20.530  44.291  10.481
44395W        W 5684  42.886  22.533  12.011
44396W        W 5685  42.949  42.372   1.720
44397W        W 5686   9.326  29.669   2.401
44398W        W 5687  18.737  31.936  13.850
44399W        W 5688  38.423   7.315  12.943
44400W        W 5689  23.615   0.986   4.826
44401W        W 5690  29.607  28.978  11.024
44402W        W 5691  18.153  32.599   0.432
44403W        W 5692  31.577  23.162   3.162
44404W        W 5693   7.823  11.370   1.239
44405W        W 5694  16.140  17.175   4.820
44406W        W 5695   3.360  21.722  13.969
44407W        W 5696  42.442  18.754  13.836
44408W        W 5697   1.369  24.157  13.030
44409W        W 5698   6.190  25.145  10.974
44410W        W 5699   1.272  12.124   2.219
44411W        W 5700  14.756  40.458   1.212
44412W        W 5701  42.851  23.068   4.623
44413W        W 5702   9.809   8.663  12.070
44414W        W 5703   2.262   9.832  11.069
44415W        W 5704  33.576  36.921  12.881
44416W        W 5705   3.233  10.771   4.617
44417W        W 5706  32.111  22.540   2.667
44418W        W 5707   4.359  39.372  11.534
44419W        W 5708   3.939   6.921  14.895
44420W        W 5709  41.964   4.907   4.603
44421W        W 5710  34.535  18.593   4.261
44422W        W 5711   1.378  15.091   3.149
44423W        W 5712  38.464  13.762  10.545
44424W        W 5713   0.761   5.401  11.434
44425W        W 5714  23.665   8.731   2.896
44426W        W 5715  43.501  33.566   1.392
44427W        W 5716  10.803  10.858   1.307
44428W        W 5717  13.239  24.716   2.847
44429W        W 5718  44.887   8.211  14.292
44430W        W 5719  15.685  14.808  14.493
44431W        W 5720  15.716   6.280   1.251
44432W        W 5721  19.107  23.121  11.540
44433W        W 5722  12.623  31.899   2.361
44434W        W 5723  27.997  39.016   1.377
44435W        W 5724  15.579  11.680  11.944
44436W        W 5725  15.593  20.560   3.212
44437W        W 5726  27.063  11.701   1.735
44438W        W 5727  29.059  12.150  11.565
44439W        W 5728  36.909  27.660   1.889
44440W        W 5729   0.965  15.287   2.311
44441W        W 5730  29.477  14.710   0.364
44442W        W 5731   2.899  11.208  11.886
44443W        W 5732  29.651  36.430  13.315
44444W        W 5733  10.208  43.478   3.303
44445W        W 5734   6.894   0.423  12.574
44446W        W 5735  24.151  31.587   0.394
44447W        W 5736   4.883  26.025  11.384
44448W        W 5737  15.316  10.338  13.444
44449W        W 5738  32.120  13.666   2.728
44450W        W 5739  13.700  28.635  13.308
44451W        W 5740  44.888  34.451   4.141
44452W        W 5741  33.071   1.835  10.637
44453W        W 5742  15.085  41.039   1.880
44454W        W 5743  20.053  22.235   3.175
44455W        W 5744   5.848   0.445  10.960
44456W        W 5745  25.612  34.099   3.652
44457W        W 5746  42.868  38.035  14.340
44458W        W 5747  27.665  41.338  14.882
44459W        W 5748  21.028  33.473   4.265
44460W        W 5749  18.684  41.377   4.808
44461W        W 5750  12.667  17.649   1.216
44462W        W 5751  21.692   7.668  13.352
44463W        W 5752   7.322  43.852   0.950
44464W        W 5753  22.542  42.515  12.444
44465W        W 5754  16.096   2.334  10.450
44466W        W 5755  20.169   9.292  11.383
44467W        W 5756  16.741  28.681  13.934
44468W        W 5757  32.005  25.002  13.495
44469W        W 5758   4.287   5.398   0.832
44470W        W 5759  28.543  26.548  13.844
44471W        W 5760  39.414  39.484  13.042
44472W        W 5761  44.770  30.026   2.710
44473W        W 5762   1.733  22.722  10.583
44474W        W 5763   2.299  28.509  12.946
44475W        W 5764  33.057  44.930   1.717
44476W        W 5765  27.549  15.814  13.453
44477W        W 5766  24.709  15.276   0.928
44478W        W 5767  25.710   6.264   3.179
44479W        W 5768   3.215   8.228  10.563
44480W        W 5769  42.014  27.993  12.407
44481W        W 5770   9.710  10.147  12.468
44482W        W 5771   3.750  22.625  13.517
44483W        W 5772  16.173  38.428   1.331
44484W        W 5773   4.940  13.281   4.274
44485W        W 5774   2.732  25.130  14.861
44486W        W 5775  38.062  20.630  13.956
44487W        W 5776  18.293  16.309  11.906
44488W        W 5777   3.917  11.180  14.395
44489W        W 5778  12.240   3.872   5.220
44490W        W 5779  44.966  19.596  13.917
44491W        W 5780  37.063   4.834  11.080
44492W        W 5781  23.145   6.835  12.957
44493W        W 5782  37.958  14.699   4.791
44494W        W 5783  33.033  32.559  13.394
44495W        W 5784  29.535  36.383   1.307
44496W        W 5785   8.250  37.366   1.703
44497W        W 5786   0.940   9.158  11.121
44498W        W 5787   8.240  39.450  12.902
44499W        W 5788  17.629   4.351  13.361
44500W        W 5789  35.576  17.066  14.505
44501W        W 5790  20.626  43.823   2.822
44502W        W 5791  28.498   1.270   0.750
44503W        W 5792  44.397   5.277   3.386
44504W        W 5793  38.964  19.049  14.927
44505W        W 5794  12.129  36.024  14.821
44506W        W 5795  35.482  36.095   3.794
44507W        W 5796  16.175  30.528   3.774
44508W        W 5797  29.515  23.122  11.567
44509W        W 5798   7.206   9.789  14.332
44510W        W 5799  33.893  29.463  12.045
44511W        W 5800  37.906  34.922  11.948
44512W        W 5801  35.046   9.644  12.060
44513W        W 5802  16.725  28.670   2.210
44514W        W 5803  10.214  24.598  14.409
44515W        W 5804  16.315  30.950  14.901
44516W        W 5805  15.267   8.830  11.502
44517W        W 5806  32.138  16.582   1.729
44518W        W 5807  39.894  33.620   1.320
44519W        W 5808  20.643  22.148  11.551
44520W        W 5809  19.707  39.448   1.285
44521W        W 5810   2.768  30.160   0.769
44522W        W 5811  29.610   1.339  11.953
44523W        W 5812  22.649  21.245   2.811
44524W        W 5813  29.612  39.002   2.395
44525W        W 5814  15.270  26.656  11.606
44526W        W 5815  34.916   4.893  13.497
44527W        W 5816   2.258  25.527  12.034
44528W        W 5817  42.889  10.840   0.769
44529W        W 5818  14.615   9.797  12.351
44530W        W 5819   4.215  21.073   4.192
44531W        W 5820  33.401  35.550  14.958
44532W        W 5821  34.067  32.629  12.912
44533W        W 5822  19.565  12.217   1.698
44534W        W 5823   5.919   3.711   1.375
44535W        W 5824  10.801  44.438   3.154
44536W        W 5825   5.885  38.337   4.302
44537W        W 5826  10.246   7.888  10.003
44538W        W 5827   1.762  18.117   2.882
44539W        W 5828  32.498   0.305  13.898
44540W        W 5829  19.200  27.533  11.554
44541W        W 5830  43.767   3.323   3.362
44542W        W 5831   7.197  31.921   0.307
44543W        W 5832   6.222  37.027  14.449
44544W        W 5833  40.519  36.586   2.759
44545W        W 5834  32.559  42.023  14.787
44546W        W 5835  22.513  40.443   9.987
44547W        W 5836  40.346  24.512  11.044
44548W        W 5837   7.755  41.421   4.765
44549W        W 5838  22.190   8.167  13.844
44550W        W 5839  41.973  25.710   1.819
44551W        W 5840  14.240  18.119  13.925
44552W        W 5841  36.079  37.836  14.973
44553W        W 5842  37.544  17.099  13.451
44554W        W 5843   6.416  13.120  14.906
44555W        W 5844  13.132   2.268   4.693
44556W        W 5845  25.013  26.635  14.450
44557W        W 5846  27.187  20.538   4.811
44558W        W 5847   0.809  32.112  14.843
44559W        W 5848  38.543  44.773  11.926
44560W        W 5849  22.575  15.254  11.974
44561W        W 5850  36.580  32.919  12.981
44562W        W 5851  42.020  39.339  13.342
44563W        W 5852  21.714   1.311  12.010
44564W        W 5853  30.437   5.788   5.313
44565W        W 5854   2.382   0.808  10.571
44566W        W 5855   8.293  11.752   4.292
44567W        W 5856  31.938  21.252  12.947
44568W        W 5857   2.425   1.811   3.775
44569W        W 5858  35.369  11.677  13.420
44570W        W 5859  15.623  38.929  11.379
44571W        W 5860   1.858  30.101   1.234
44572W        W 5861   0.774  42.781  13.486
44573W        W 5862  39.984  14.225  14.931
44574W        W 5863   9.271  30.443  13.925
44575W        W 5864  38.976   2.349  11.500
44576W        W 5865   8.334  19.154   0.435
44577W        W 5866  34.953  15.669  11.092
44578W        W 5867  11.779  10.677  12.912
44579W        W 5868  38.068  22.079   3.315
44580W        W 5869  10.662  15.134   2.716
44581W        W 5870  41.463  28.598   4.280
44582W        W 5871   4.921   2.896   4.309
44583W        W 5872  21.204  12.345   1.287
44584W        W 5873  26.690  22.654  12.017
44585W        W 5874   3.929  38.498   1.437
44586W        W 5875  20.197   7.791   1.334
44587W        W 5876  26.013  44.438  13.501
44588W        W 5877  39.058  42.301   4.245
44589W        W 5878  38.565  23.539   1.286
44590W        W 5879  17.689  43.930  13.034
44591W        W 5880  11.714  29.995   1.746
44592W        W 5881  39.460  16.273  14.514
44593W        W 5882  23.579  17.598   0.399
44594W        W 5883  13.788  41.462  11.583
44595W        W 5884  15.171  33.953  11.871
44596W        W 5885  25.217  37.947  11.415
44597W        W 5886   0.932   7.369  13.438
44598W        W 5887   7.888  38.950   1.913
44599W        W 5888  16.682  41.847  10.620
44600W        W 5889  11.315  11.142   1.360
44601W        W 5890  38.868  12.765  11.013
44602W        W 5891  13.266  44.493  14.432
44603W        W 5892   1.771  30.422   1.803
44604W        W 5893  36.096   8.822   1.920
44605W        W 5894  22.142  27.989   4.210
44606W        W 5895  19.715  30.912   3.705
44607W        W 5896  28.636   4.356   3.800
44608W        W 5897  28.056  17.305  13.993
44609W        W 5898   3.750  33.930   0.745
44610W        W 5899  26.030  40.491  12.854
44611W        W 5900  34.928  20.152  11.038
44612W        W 5901  40.446  22.509   0.780
44613W        W 5902  17.556   8.665   4.215
44614W        W 5903  37.970  27.465  11.595
44615W        W 5904  40.877   0.767  13.422
44616W        W 5905  21.652  27.533   1.432
44617W        W 5906  16.173  24.668   5.277
44618W        W 5907  36.442  10.384  13.969
44619W        W 5908  18.632  35.370  14.497
44620W        W 5909  32.038  20.763  13.841
44621W        W 5910  22.542  14.815  10.521
44622W        W 5911  37.927   8.845   2.704
44623W        W 5912  22.143  31.984   4.145
44624W        W 5913  44.793  42.018   3.869
44625W        W 5914   5.325  28.528  12.985
44626W        W 5915  34.500   5.415  13.907
44627W        W 5916  24.685  31.144   3.340
44628W        W 5917  21.177  23.135  14.953
44629W        W 5918  33.577  14.608  14.022
44630W        W 5919  36.967  30.600   4.676
44631W        W 5920  26.149   0.914   3.708
44632W        W 5921  36.483  12.809   4.318
44633W        W 5922  43.978  23.709  14.858
44634W        W 5923  35.399  39.435  13.545
44635W        W 5924  22.997  11.709   0.906
44636W        W 5925  11.224  38.839   2.243
44637W        W 5926  42.425  43.449   3.870
44638W        W 5927  24.542  38.886   2.700
44639W        W 5928  14.786  32.474   0.941
44640W        W 5929  18.622  10.712   1.840
44641W        W 5930   9.660  34.991   3.323
44642W        W 5931  18.059   7.307   1.884
44643W        W 5932  14.683   6.379   1.816
44644W        W 5933  20.694   1.358   4.675
44645W        W 5934  12.753   6.192  13.846
44646W        W 5935  33.399   8.707  14.961
44647W        W 5936  39.325   1.785  10.463
44648W        W 5937  38.409   4.416  14.988
44649W        W 5938  39.422   0.976  13.944
44650W        W 5939   8.222  34.508  10.473
44651W        W 5940  19.586  28.040   0.900
44652W        W 5941  14.287  20.043   4.796
44653W        W 5942  31.494  18.755   0.897
44654W        W 5943  28.562  38.480   0.432
44655W        W 5944  32.567  22.624  11.376
44656W        W 5945   8.847  35.088   0.453
44657W        W 5946  19.182  23.705  12.560
44658W        W 5947  43.299  41.857  10.485
44659W        W 5948   9.842  35.529  10.424
44660W        W 5949  30.988  18.271  11.021
44661W        W 5950  29.659  25.996  14.871
44662W        W 5951  11.793  14.779  13.997
44663W        W 5952  39.449   5.841  11.423
44664W        W 5953  29.096  37.503   2.296
44665W        W 5954  26.509   3.770  14.383
44666W        W 5955  10.303  44.000   3.157
44667W        W 5956  26.468  26.991  14.762
44668W        W 5957  16.777   5.319   2.776
44669W        W 5958   7.221  18.573   1.834
44670W        W 5959  30.086  27.164   3.749
44671W        W 5960   5.842  15.251   4.119
44672W        W 5961  27.050   9.765   2.747
44673W        W 5962  15.161  19.766   3.346
44674W        W 5963   9.780  29.005   1.258
44675W        W 5964  37.977  35.571   4.826
44676W        W 5965  22.179   9.650  14.318
44677W        W 5966  19.258  28.622   1.765
44678W        W 5967  25.214  32.454   4.799
44679W        W 5968  19.179  20.551   0.816
44680W        W 5969  10.186   3.286   0.755
44681W        W 5970  23.589   0.314   1.904
44682W        W 5971   9.314  43.791   1.799
44683W        W 5972  28.567  12.116  13.964
44684W        W 5973  30.112  24.061   1.768
44685W        W 5974   8.248  29.954   4.812
44686W        W 5975   5.786  13.676   4.790
44687W        W 5976  40.928  19.601   2.300
44688W        W 5977  43.800   1.816  13.928
44689W        W 5978  29.460  29.620   3.376
44690W        W 5979  19.728  25.643   4.626
44691W        W 5980  14.699  43.996   2.827
44692W        W 5981  24.222  21.742   2.326
44693W        W 5982   7.198  11.848  14.869
44694W        W 5983   3.929  27.609   4.662
44695W        W 5984  41.377  17.597   2.286
44696W        W 5985  33.084  41.450   1.730
44697W        W 5986  15.651  15.130  13.984
44698W        W 5987  17.657  40.897   3.316
44699W        W 5988  41.920  10.847  12.392
44700W        W 5989  32.515  26.488   2.745
44701W        W 5990  30.991  24.215  12.477
44702W        W 5991  17.768  15.293   4.742
44703W        W 5992   1.315  12.349   1.410
44704W        W 5993  22.037  17.635  14.306
44705W        W 5994  34.112  23.531  11.069
44706W        W 5995   5.218  19.702  11.439
44707W        W 5996  24.661  34.980  13.417
44708W        W 5997  28.461  31.405   1.366
44709W        W 5998  43.781  39.048  14.909
44710W        W 5999   3.843  42.015   4.166
44711W        W 6000  21.219  17.125  14.794
44712W        W 6001  12.664  13.221   2.735
44713W        W 6002  10.667  25.207  14.503
44714W        W 6003  14.655  12.761  10.961
44715W        W 6004  12.239  40.417   2.868
44716W        W 6005  28.463  35.927  12.414
44717W        W 6006   5.731  10.199   3.692
44718W        W 6007  18.589  25.562   1.311
44719W        W 6008  37.054  26.164  13.317
44720W        W 6009  36.872   6.758   3.660
44721W        W 6010  44.992  37.517  11.006
44722W        W 6011  22.246  40.511  13.025
44723W        W 6012   2.809  19.192   2.356
44724W        W 6013   9.881  27.158  12.079
44725W        W 6014  11.780   1.459  13.347
44726W        W 6015  36.483  21.727   4.746
44727W        W 6016  10.322  24.486   1.240
44728W        W 6017  44.006  33.117  14.003
44729W        W 6018  26.080  33.987   3.782
44730W        W 6019  19.243  39.339   2.220
44731W        W 6020  21.586  14.156   0.857
44732W        W 6021   7.395  33.626  13.027
44733W        W 6022  29.538  19.769   1.290
44734W        W 6023   0.269   3.820   3.173
44735W        W 6024  21.566  31.414   1.299
44736W        W 6025  27.944  16.589  13.369
44737W        W 6026  20.730  11.159  13.307
44738W        W 6027  16.213  31.469  14.983
44739W        W 6028  30.935  36.370  10.896
44740W        W 6029  19.546  30.149   3.369
44741W        W 6030  21.211   4.421  13.046
44742W        W 6031  18.151  36.040  11.069
44743W        W 6032  19.266  35.076  13.504
44744W        W 6033  22.155  13.789   2.827
44745W        W 6034  13.309  44.868  13.804
44746W        W 6035  23.067  40.334   4.794
44747W        W 6036  44.828  40.861  13.931
44748W        W 6037  21.563  15.233  14.777
44749W        W 6038  30.917   7.813  11.533
44750W        W 6039  33.404  30.588  14.447
44751W        W 6040  16.078  42.925   1.859
44752W        W 6041  37.075  40.450   0.779
44753W        W 6042  40.450  20.040  13.506
44754W        W 6043  40.461  14.127  11.969
44755W        W 6044  36.444  15.692   3.758
44756W        W 6045  30.083  42.834  10.643
44757W        W 6046  12.230  17.789  14.905
44758W        W 6047  13.106  33.002   2.324
44759W        W 6048  26.074  22.153  12.934
44760W        W 6049  42.387  19.684  10.631
44761W        W 6050  43.284  10.271  14.870
44762W        W 6051  21.037   1.257   2.695
44763W        W 6052  21.247  33.944  10.585
44764W        W 6053  35.542  13.298   1.428
44765W        W 6054  16.142  35.449   0.269
44766W        W 6055  26.556  41.438  14.987
44767W        W 6056  43.463   1.890   1.896
44768W        W 6057  40.828   0.288   4.660
44769W        W 6058  39.051  42.953   3.663
44770W        W 6059   8.889  28.456  14.994
44771W        W 6060  39.005   8.708   9.962
44772W        W 6061   4.231  25.138  13.046
44773W        W 6062   9.155  40.343   4.190
44774W        W 6063  25.649  43.994   3.379
44775W        W 6064  41.882  18.181   1.255
44776W        W 6065  31.963   5.755   3.291
44777W        W 6066   6.322   9.343  10.637
44778W        W 6067   4.889  19.276  12.388
44779W        W 6068  36.048  36.458   4.332
44780W        W 6069  27.460  33.072  12.490
44781W        W 6070   8.249  25.104   0.731
44782W        W 6071  43.775   1.262  14.996
44783W        W 6072  43.453  10.741  14.818
44784W        W 6073   6.423  24.482   1.444
44785W        W 6074  40.902  31.091   0.901
44786W        W 6075   6.395  13.791   0.481
44787W        W 6076  31.021  35.520  13.319
44788W        W 6077  42.855  42.912  11.987
44789W        W 6078  31.147  14.217  11.471
44790W        W 6079  22.514  27.565   9.978
44791W        W 6080   6.724  27.630   4.627
44792W        W 6081  35.090  14.268  11.862
44793W        W 6082  41.445  26.182  13.901
44794W        W 6083  33.567  20.624   3.634
44795W        W 6084  27.509  14.732   2.368
44796W        W 6085  22.176  36.954  12.374
44797W        W 6086  32.901  33.077  14.030
44798W        W 6087  44.756  37.451   1.721
44799W        W 6088  38.882   6.425  14.005
44800W        W 6089  28.982  17.264  13.923
44801W        W 6090  39.949  31.962   0.261
44802W        W 6091  33.592  10.727  13.877
44803W        W 6092  35.952  39.062  12.375
44804W        W 6093  27.480  24.699  11.580
44805W        W 6094  44.802  39.410  13.984
44806W        W 6095   5.932  32.053  10.903
44807W        W 6096  14.271  27.013   1.700
44808W        W 6097  32.992  32.139  13.925
44809W        W 6098   2.859  21.179  10.059
44810W        W 6099  44.810  19.760  13.044
44811W        W 6100   0.983  21.678  11.423
44812W        W 6101  18.746  14.298   1.810
44813W        W 6102   4.890   7.719   3.740
44814W        W 6103  44.954  39.883  13.487
44815W        W 6104   4.898  11.732  14.955
44816W        W 6105   4.318  11.333  10.599
44817W        W 6106  12.194  20.134  13.426
44818W        W 6107  25.656   4.755   9.985
44819W        W 6108  12.362  39.895  10.473
44820W        W 6109  36.486  40.471   9.929
44821W        W 6110  38.038  22.533   3.672
44822W        W 6111  13.288  32.503   3.288
44823W        W 6112   8.352  35.975   4.291
44824W        W 6113   0.954   4.929   0.260
44825W        W 6114  19.075  10.209  10.515
44826W        W 6115   4.409  11.838  14.422
44827W        W 6116  31.477  40.310  13.336
44828W        W 6117  38.557   8.251  12.575
44829W        W 6118  26.616   9.782   5.277
44830W        W 6119  11.158  10.840   0.924
44831W        W 6120  18.767  43.789   4.838
44832W        W 6121  17.282  24.176  13.023
44833W        W 6122   8.319  40.969   2.415
44834W        W 6123  22.584  10.663  13.417
44835W        W 6124  33.884   1.930  14.900
44836W        W 6125  35.499   6.740  12.831
44837W        W 6126  21.555  11.320  11.506
44838W        W 6127  25.083  12.355   4.275
44839W        W 6128   9.855  43.485   0.726
44840W        W 6129  36.460  18.262  11.437
44841W        W 6130   3.316  39.932  13.513
44842W        W 6131  22.512  30.998  11.902
44843W        W 6132   3.815  10.138   0.736
44844W        W 6133  26.540  44.407  14.023
44845W        W 6134  29.005  44.850   3.192
44846W        W 6135  38.009   7.684  12.511
44847W        W 6136   1.823  23.558   0.438
44848W        W 6137  43.493   6.415   2.871
44849W        W 6138  32.430   3.860   4.748
44850W        W 6139  31.019  39.058   2.381
44851W        W 6140  17.782  13.183  11.517
44852W        W 6141  26.130  21.694  11.480
44853W        W 6142   7.911   5.317   2.347
44854W        W 6143  36.550  38.825   0.390
44855W        W 6144  16.282  22.082  14.384
44856W        W 6145  23.558  11.345  10.905
44857W        W 6146  16.787  39.990  14.366
44858W        W 6147  39.957  18.650  12.341
44859W        W 6148  33.070   7.779   1.822
44860W        W 6149  42.907  12.672  10.104
44861W        W 6150   4.801  30.636   2.279
44862W        W 6151  17.062  37.016  10.899
44863W        W 6152   3.872  21.118  11.479
44864W        W 6153  37.413  28.932  13.399
44865W        W 6154  13.631  41.384  10.489
44866W        W 6155  34.549  22.209  10.985
44867W        W 6156   5.220  27.050   3.238
44868W        W 6157  14.618  13.803  12.371
44869W        W 6158  26.600  23.165   3.727
44870W        W 6159  37.918  34.974   4.288
44871W        W 6160  10.219  41.021   2.865
44872W        W 6161  11.226  14.310  11.094
44873W        W 6162  10.773   5.425  10.476
44874W        W 6163  10.293  16.754  12.027
44875W        W 6164  28.064  17.078   5.195
44876W        W 6165  12.839   3.237  14.777
44877W        W 6166  21.614  17.798   1.239
44878W        W 6167   4.368   1.866   3.851
44879W        W 6168  12.680  34.889  12.874
44880W        W 6169   9.679  18.111  14.796
44881W        W 6170  22.609  20.215   2.408
44882W        W 6171  27.066  14.211  14.032
44883W        W 6172  44.886  30.153   4.196
44884W        W 6173  16.223  14.601   3.674
44885W        W 6174   7.868  16.238  12.387
44886W        W 6175  31.575  24.588  11.398
44887W        W 6176   2.388  18.065   1.379
44888W        W 6177  43.333  39.417   1.735
44889W        W 6178  30.580  10.376   2.863
44890W        W 6179  26.619  28.141   2.258
44891W        W 6180  31.909  30.995   0.478
44892W        W 6181  36.471  31.957  11.074
44893W        W 6182  20.700   4.895  13.864
44894W        W 6183  11.622  19.710  10.634
44895W        W 6184  37.910  17.587   2.201
44896W        W 6185  36.443  28.453   4.147
44897W        W 6186  23.146  12.166   3.697
44898W        W 6187  21.533  33.576   4.708
44899W        W 6188  13.824  11.358   0.931
44900W        W 6189  21.612  12.261   3.329
44901W        W 6190   1.826  12.151  14.989
44902W        W 6191  21.149   9.799   3.367
44903W        W 6192  20.705  26.181  11.964
44904W        W 6193  11.296  15.251  11.086
44905W        W 6194   4.940  39.896   2.356
44906W        W 6195  17.144  23.715   1.872
44907W        W 6196  44.417   1.820  13.525
44908W        W 6197  41.354  26.663  14.986
44909W        W 6198  10.270   4.781  13.347
44910W        W 6199  25.483  23.494  13.489
44911W        W 6200   0.969  19.115   0.421
44912W        W 6201  15.216   9.796   0.821
44913W        W 6202  25.480  40.924  13.483
44914W        W 6203  37.445  42.467  11.452
44915W        W 6204  42.463  42.485  10.893
44916W        W 6205  39.413  17.709  12.833
44917W        W 6206  32.606  42.867  10.888
44918W        W 6207  21.257  11.338  12.838
44919W        W 6208  36.513  27.667   0.428
44920W        W 6209  37.422  43.366  14.957
44921W        W 6210   9.868  40.483  12.344
44922W        W 6211  21.544  22.710  13.970
44923W        W 6212  31.001  22.746   3.352
44924W        W 6213   3.745  33.902  13.319
44925W        W 6214  36.408  42.440  12.825
44926W        W 6215  14.274   9.249  13.389
44927W        W 6216  35.963  11.266   3.152
44928W        W 6217  41.324  35.863  11.546
44929W        W 6218   7.280  12.655  11.886
44930W        W 6219  18.785  15.741   3.843
44931W        W 6220  41.840  34.888   5.122
44932W        W 6221  34.061   4.388  13.336
44933W        W 6222  38.424  31.915  10.437
44934W        W 6223   3.422  30.989   4.755
44935W        W 6224   3.798  37.421  12.449
44936W        W 6225  27.620  23.032   4.338
44937W        W 6226   4.738  15.677   1.362
44938W        W 6227  16.073  10.712  14.842
44939W        W 6228  17.776  36.454  11.996
44940W        W 6229  24.083   3.858  14.018
44941W        W 6230  15.193   4.448   0.408
44942W        W 6231   6.410  38.022  14.274
44943W        W 6232  21.564   2.374  14.337
44944W        W 6233  35.866  35.360  11.434
44945W        W 6234  11.198  37.573  13.849
44946W        W 6235  39.916   5.780  11.546
44947W        W 6236  38.398  35.937   0.363
44948W        W 6237  19.176  16.290   0.440
44949W        W 6238  16.222  26.682   2.414
44950W        W 6239  21.565  11.851  14.295
44951W        W 6240  31.029  36.539   3.782
44952W        W 6241   3.920  29.584   2.804
44953W        W 6242  38.476  32.445  11.575
44954W        W 6243  28.591  19.224  11.057
44955W        W 6244   1.297  29.970  12.924
44956W        W 6245  10.287   6.429   3.181
44957W        W 6246  29.084  26.567  11.106
44958W        W 6247  36.085  25.051   3.365
44959W        W 6248  32.629  33.949   4.764
44960W        W 6249  24.127  29.576  10.594
44961W        W 6250  35.882  10.269   1.246
44962W        W 6251  42.813   1.953   1.723
44963W        W 6252  33.494   6.889  14.454
44964W        W 6253   5.340   5.336   1.279
44965W        W 6254   1.273  32.569  12.522
44966W        W 6255   0.259  32.471   1.878
44967W        W 6256  36.569  37.962  12.832
44968W        W 6257  19.615  21.518  10.445
44969W        W 6258  27.089  25.163  11.033
44970W        W 6259   4.899  28.665   2.816
44971W        W 6260  41.458   8.258  12.478
44972W        W 6261  35.076  40.463  13.818
44973W        W 6262  39.937  27.071   3.860
44974W        W 6263  41.917  35.548   4.749
44975W        W 6264   7.799  44.290   4.312
44976W        W 6265  42.886   7.235   3.360
44977W        W 6266   4.839   0.457  14.875
44978W        W 6267   6.420  42.030  14.320
44979W        W 6268   1.390  32.954   1.362
44980W        W 6269   9.723  13.666  10.414
44981W        W 6270  26.687  21.116  14.448
44982W        W 6271  32.460  40.446  12.931
44983W        W 6272  17.093  37.978  12.095
44984W        W 6273  43.396  14.659  14.817
44985W        W 6274   4.329  36.931   0.378
44986W        W 6275   3.831  28.992   2.679
44987W        W 6276  29.515  10.176  12.384
44988W        W 6277  10.817  20.073  13.817
44989W        W 6278  39.945  10.791   3.338
44990W        W 6279  42.324   3.770  14.877
44991W        W 6280  43.807  29.008   2.292
44992W        W 6281   0.303   5.873  12.023
44993W        W 6282  19.712  17.671  14.452
44994W        W 6283  29.448  27.156  13.997
44995W        W 6284  28.627  25.641   2.666
44996W        W 6285  10.161  26.163  10.590
44997W        W 6286   8.302  12.707  14.843
44998W        W 6287  41.444   0.345  14.401
44999W        W 6288  23.025  18.191   4.672
45000W        W 6289   9.785  23.712  12.570
45001W        W 6290   8.358  38.398  13.940
45002W        W 6291  36.562  20.701   4.182
45003W        W 6292  14.244   9.333  10.980
45004W        W 6293  30.158  25.559  13.796
45005W        W 6294  43.380  31.033   4.348
45006W        W 6295  42.979  31.002   5.207
45007W        W 6296   0.368   3.305  11.010
45008W        W 6297   0.799  23.179   2.197
45009W        W 6298  37.069  20.224   4.340
45010W        W 6299  15.135   7.749  10.451
45011W        W 6300  31.630  33.515  14.320
45012W        W 6301  37.953  25.182  14.338
45013W        W 6302  35.861   4.367   3.254
45014W        W 6303  41.928  44.786   3.741
45015W        W 6304  24.604  18.659  14.777
45016W        W 6305  14.241  19.183   2.902
45017W        W 6306  22.178  16.656  14.839
45018W        W 6307  23.491   8.320  14.453
45019W        W 6308  18.562  33.414  10.080
45020W        W 6309  26.986  44.775  12.916
45021W        W 6310  36.384   2.939  14.498
45022W        W 6311  29.171  42.362  14.787
45023W        W 6312  32.961  24.499  12.897
45024W        W 6313  33.462   9.225   4.731
45025W        W 6314  32.055  37.907  12.077
45026W        W 6315   8.179  44.498   0.923
45027W        W 6316  13.830  34.110   0.291
45028W        W 6317  40.854  44.982  14.330
45029W        W 6318   9.808  17.081  14.325
45030W        W 6319  34.897  15.654   2.287
45031W        W 6320  15.792  18.058  14.874
45032W        W 6321  10.717  12.232  13.422
45033W        W 6322  15.273  42.348  13.851
45034W        W 6323  42.313  35.415  14.278
45035W        W 6324   7.258  31.942  11.080
45036W        W 6325  23.682  28.048   3.806
45037W        W 6326   8.356  38.918  12.561
45038W        W 6327  22.182  17.785   2.697
45039W        W 6328  33.481  41.840  13.010
45040W        W 6329  44.339   7.785  13.969
45041W        W 6330  11.183   6.867  12.894
45042W        W 6331  39.498  39.439   3.247
45043W        W 6332  21.188  25.627  10.003
45044W        W 6333  36.022  34.928  14.965
45045W        W 6334   2.419  32.903   4.790
45046W        W 6335  44.310   8.245   4.232
45047W        W 6336  16.202  26.171   2.328
45048W        W 6337  16.596  31.039  12.367
45049W        W 6338  31.533  23.647   3.708
45050W        W 6339  12.282  32.482  14.856
45051W        W 6340   6.252  34.557  10.929
45052W        W 6341  44.799  27.606   3.733
45053W        W 6342  25.625   4.742   3.680
45054W        W 6343  27.596   0.406  11.486
45055W        W 6344  31.473  13.839   2.747
45056W        W 6345   0.813  13.693   2.893
45057W        W 6346  31.034  44.285  14.476
45058W        W 6347  37.342  40.913  13.335
45059W        W 6348  26.040  18.672   2.187
45060W        W 6349  18.269   2.229  14.926
45061W        W 6350  20.530  33.884   4.785
45062W        W 6351  41.006  33.528  10.033
45063W        W 6352   2.462  24.028   3.208
45064W        W 6353  25.491  31.900   2.692
45065W        W 6354  17.241  27.565  12.356
45066W        W 6355  35.102  12.796   1.880
45067W        W 6356  44.384  12.794  10.025
45068W        W 6357  22.525  24.574   4.695
45069W        W 6358  19.206  14.782  10.444
45070W        W 6359   9.674  21.524   4.129
45071W        W 6360  37.379   6.857   4.650
45072W        W 6361  34.914  30.636   5.317
45073W        W 6362  10.243  29.557   0.421
45074W        W 6363   6.289   6.184   2.769
45075W        W 6364  27.983  35.034   3.148
45076W        W 6365   2.436  42.313  14.794
45077W        W 6366  40.380  44.318   2.674
45078W        W 6367  42.291  15.718  12.874
45079W        W 6368  23.628  14.679   0.340
45080W        W 6369  22.516  14.679  10.905
45081W        W 6370   2.385   1.894  13.798
45082W        W 6371  21.539  20.190  10.473
45083W        W 6372  44.341  30.022  11.079
45084W        W 6373  38.990  43.911  13.432
45085W        W 6374  33.931  32.476  14.890
45086W        W 6375  16.155   3.825  14.814
45087W        W 6376  27.118  14.711   2.885
45088W        W 6377  44.279  33.461   1.360
45089W        W 6378  28.051  29.025  13.868
45090W        W 6379  14.131  24.691   3.640
45091W        W 6380  44.408  37.369  12.964
45092W        W 6381  26.467   5.330   1.753
45093W        W 6382  39.406   5.767  12.901
45094W        W 6383  26.639  40.797  11.899
45095W        W 6384  32.635   5.403  10.012
45096W        W 6385  24.053  17.233  11.572
45097W        W 6386   4.404  12.776  11.484
45098W        W 6387  28.947  37.932  13.916
45099W        W 6388  13.111  31.038   0.436
45100W        W 6389   5.407   3.420  10.963
45101W        W 6390  38.516  26.007  14.927
45102W        W 6391   8.709   3.386   0.760
45103W        W 6392  17.131  22.081   2.778
45104W        W 6393  34.423  44.969   3.772
45105W        W 6394  10.282   2.926  13.867
45106W        W 6395  35.047  10.789   2.780
45107W        W 6396   1.374  42.982  14.371
45108W        W 6397  20.131   3.328   3.636
45109W        W 6398   0.254  39.413   1.357
45110W        W 6399  12.819  41.994   4.828
45111W        W 6400  25.573  20.681   4.740
45112W        W 6401  41.444   0.491   3.775
45113W        W 6402  32.565   9.746  12.849
45114W        W 6403  38.959  38.426   1.428
45115W        W 6404  24.001  15.297   3.234
45116W        W 6405  16.734  23.599   4.205
45117W        W 6406  12.792  38.344   1.268
45118W        W 6407  30.006  41.516   2.250
45119W        W 6408  42.782   1.238  13.908
45120W        W 6409  11.296   9.245   3.678
45121W        W 6410  23.494  11.856   3.714
45122W        W 6411  11.731  20.083   2.361
45123W        W 6412   0.855  14.813   3.357
45124W        W 6413   2.842  19.716   4.814
45125W        W 6414  12.623  29.452   4.824
45126W        W 6415   8.728  30.543  12.425
45127W        W 6416  41.939  41.454   3.864
45128W        W 6417  26.133  14.122   4.266
45129W        W 6418  36.050  43.484   2.874
45130W        W 6419   5.697  43.337   2.829
45131W        W 6420  42.375   1.936  10.612
45132W        W 6421  41.973  42.969   0.882
45133W        W 6422  27.491  32.398   3.261
45134W        W 6423  26.488  31.539  11.908
45135W        W 6424  34.100  23.049   3.310
45136W        W 6425  14.149   8.319   3.731
45137W        W 6426  42.990   4.842  14.827
45138W        W 6427  34.901  32.552   2.770
45139W        W 6428  15.719  26.566   3.154
45140W        W 6429  44.849  37.949   4.304
45141W        W 6430  34.492   4.313   1.346
45142W        W 6431  26.994   0.357   2.744
45143W        W 6432  19.582   7.717  10.954
45144W        W 6433  14.733  32.478   1.259
45145W        W 6434  21.197  21.548  10.627
45146W        W 6435  41.532  22.122   3.705
45147W        W 6436  30.934  23.085   3.185
45148W        W 6437  15.756  22.068  13.457
45149W        W 6438  23.060   1.295  12.079
45150W        W 6439  29.466   8.733   9.665
45151W        W 6440  29.128   6.338   2.719
45152W        W 6441  18.644  19.607  11.402
45153W        W 6442   5.338   4.269   0.403
45154W        W 6443  28.582  12.755  12.489
45155W        W 6444  42.857  18.582  10.626
45156W        W 6445  12.834  24.210   4.299
45157W        W 6446   3.872  18.182   4.121
45158W        W 6447  34.446  40.440   1.240
45159W        W 6448  31.039  43.853  13.931
45160W        W 6449  24.188  22.676  14.420
45161W        W 6450  10.764  26.543   0.889
45162W        W 6451  23.003  15.130  12.978
45163W        W 6452   9.162   7.284  14.421
45164W        W 6453   4.333  38.995   1.869
45165W        W 6454   5.699  43.399   3.342
45166W        W 6455  29.566  30.058  12.390
45167W        W 6456  16.285  29.576   2.234
45168W        W 6457  37.500  25.072   1.423
45169W        W 6458  44.336  32.470   2.228
45170W        W 6459  15.140  12.615   2.320
45171W        W 6460   9.768  15.623  11.110
45172W        W 6461  28.526  28.008  11.955
45173W        W 6462  11.847   3.928   3.700
45174W        W 6463  32.087   1.878  11.420
45175W        W 6464  14.305  14.189  11.963
45176W        W 6465   2.322  23.996  13.434
45177W        W 6466  36.936  15.621  12.901
45178W        W 6467  28.104  17.239  14.313
45179W        W 6468   3.232  12.285  14.329
45180W        W 6469   4.313  15.682  13.373
45181W        W 6470  21.542  44.452  12.032
45182W        W 6471  26.088  23.716  13.308
45183W        W 6472   7.210  22.551  13.338
45184W        W 6473  27.177  11.737  12.395
45185W        W 6474  14.155  41.903   3.307
45186W        W 6475  24.525   2.895  11.860
45187W        W 6476  43.938  21.622   1.304
45188W        W 6477  44.776  37.069   4.707
45189W        W 6478  25.191  37.948   0.858
45190W        W 6479   8.168   9.235  13.344
45191W        W 6480  27.654  28.061  11.591
45192W        W 6481  34.017  37.025   1.304
45193W        W 6482  41.462  38.042  14.980
45194W        W 6483  14.821  33.057  11.863
45195W        W 6484  36.489   7.173  10.503
45196W        W 6485  26.078  19.632   1.843
45197W        W 6486  38.393  38.915   4.720
45198W        W 6487   6.202   3.709  13.396
45199W        W 6488  37.860   1.472  11.516
45200W        W 6489  25.612  25.600   4.213
45201W        W 6490  33.504  23.058   4.776
45202W        W 6491  24.070  44.341  10.129
45203W        W 6492  11.700  36.500   2.842
45204W        W 6493   4.903  11.342   4.784
45205W        W 6494  11.319  39.997   1.346
45206W        W 6495  26.121  44.370  14.895
45207W        W 6496   0.327  34.489  12.404
45208W        W 6497  29.062  23.053   1.807
45209W        W 6498   7.342  33.067   3.637
45210W        W 6499  17.241  28.078   2.719
45211W        W 6500  21.038   2.915  10.505
45212W        W 6501   5.247  22.521  11.407
45213W        W 6502  10.870  37.060  14.837
45214W        W 6503  29.140  12.841   3.210
45215W        W 6504   7.847  24.066   1.897
45216W        W 6505  32.531   4.205  13.847
45217W        W 6506   2.925  20.629   1.393
45218W        W 6507   2.926   2.757  11.947
45219W        W 6508  37.439  36.397   1.343
45220W        W 6509  25.121  36.975  10.917
45221W        W 6510  12.831  12.643  11.957
45222W        W 6511  33.895   0.830   3.664
45223W        W 6512   9.860  38.462   2.295
45224W        W 6513  13.282  17.770  12.069
45225W        W 6514  40.901   2.334   3.672
45226W        W 6515  19.581  18.729   3.322
45227W        W 6516  28.952  42.898  11.516
45228W        W 6517  30.949  40.019   5.159
45229W        W 6518  21.039   1.451   4.338
45230W        W 6519  13.274  44.377   1.256
45231W        W 6520  43.812  37.033  12.864
45232W        W 6521  43.771  36.406   4.793
45233W        W 6522  10.762  41.796   3.801
45234W        W 6523   0.760  11.128  10.918
45235W        W 6524  29.111  16.666   3.226
45236W        W 6525  39.495  18.122  13.433
45237W        W 6526   4.700   8.806   4.770
45238W        W 6527  34.014  11.808   0.830
45239W        W 6528  25.501  15.607   0.417
45240W        W 6529   1.302  44.460   2.315
45241W        W 6530  17.614   2.429   2.369
45242W        W 6531  12.322   3.343   2.417
45243W        W 6532  27.633  35.411  11.464
45244W        W 6533   2.259   6.721  13.314
45245W        W 6534  32.537  16.209  11.492
45246W        W 6535  26.961  22.157  12.570
45247W        W 6536  34.030  36.869  14.391
45248W        W 6537  13.772   1.819  10.973
45249W        W 6538  24.037  32.925  13.541
45250W        W 6539  26.142  10.382  13.460
45251W        W 6540  15.750  30.530  13.383
45252W        W 6541  30.443  29.064  14.305
45253W        W 6542  14.249   6.223  11.075
45254W        W 6543  31.930  31.006  11.869
45255W        W 6544   9.682  21.261  10.433
45256W        W 6545   7.747  28.602   1.406
45257W        W 6546  17.243  26.071  13.845
45258W        W 6547  13.649  29.644   2.238
45259W        W 6548  44.418  27.550  10.639
45260W        W 6549  22.106  15.724   2.898
45261W        W 6550  15.280   9.169  13.849
45262W        W 6551  34.100  29.578   3.670
45263W        W 6552  21.551  42.806   1.856
45264W        W 6553  28.156  41.294   3.208
45265W        W 6554  38.344  42.472  10.983
45266W        W 6555  15.290   9.867  12.383
45267W        W 6556  39.060  18.638   2.392
45268W        W 6557  27.589  29.173  10.616
45269W        W 6558  19.123  42.461   1.214
45270W        W 6559  37.045  41.979  13.378
45271W        W 6560  44.278  38.867  10.618
45272W        W 6561  27.554   5.765   5.301
45273W        W 6562  21.023  28.134   3.156
45274W        W 6563  32.892   6.858  12.987
45275W        W 6564  24.675   4.280   3.307
45276W        W 6565  26.071  22.652  13.348
45277W        W 6566   7.369   8.321  11.423
45278W        W 6567  12.263  28.602   0.451
45279W        W 6568  15.212  26.106  13.845
45280W        W 6569  44.995   3.455   4.180
45281W        W 6570  12.764   4.378   9.640
45282W        W 6571  35.465  31.417   2.893
45283W        W 6572  26.100   8.662  13.369
45284W        W 6573  11.809  25.139  13.957
45285W        W 6574  37.347   7.758  13.827
45286W        W 6575  10.219  43.942  10.600
45287W        W 6576  17.709  40.844   0.377
45288W        W 6577  19.222  33.455   2.815
45289W        W 6578   9.824  13.255   2.259
45290W        W 6579  16.151  28.038   9.997
45291W        W 6580   0.816   3.310   1.837
45292W        W 6581  28.146  18.139   9.932
45293W        W 6582  11.341   2.285  14.277
45294W        W 6583   4.727  41.852  13.478
45295W        W 6584  36.036   7.283   2.207
45296W        W 6585  23.206  19.755   0.896
45297W        W 6586  28.113  21.520  11.013
45298W        W 6587   9.675  15.314   3.691
45299W        W 6588  43.959   3.341   4.696
45300W        W 6589  43.461  24.586  12.823
45301W        W 6590  43.915   3.857   3.297
45302W        W 6591  34.897   6.804  14.292
45303W        W 6592  24.702   5.193  12.933
45304W        W 6593  44.865  20.547   4.115
45305W        W 6594  15.282  43.003  12.037
45306W        W 6595   4.233  38.334  13.040
45307W        W 6596  25.192  29.131   0.355
45308W        W 6597  37.484  15.085   5.805
45309W        W 6598  33.585  29.562  10.595
45310W        W 6599  42.813  39.891   2.320
45311W        W 6600  28.112  29.523  10.432
45312W        W 6601  23.582   6.372  11.425
45313W        W 6602  29.020  28.181  11.959
45314W        W 6603  35.535  25.979  10.946
45315W        W 6604  33.008  42.297   0.322
45316W        W 6605  44.344  39.479   1.705
45317W        W 6606   0.264  16.742  14.946
45318W        W 6607  14.154   3.761   3.763
45319W        W 6608  34.047  17.227   3.371
45320W        W 6609  17.648   6.773  11.501
45321W        W 6610  43.363  27.942   9.971
45322W        W 6611  26.035  44.827  12.567
45323W        W 6612   0.375  12.342  14.461
45324W        W 6613   9.729  34.527  13.031
45325W        W 6614  36.848  20.624  10.535
45326W        W 6615  15.693  28.629   2.238
45327W        W 6616   6.345  30.420  14.414
45328W        W 6617  15.263  20.677  12.558
45329W        W 6618  38.549  25.081   1.337
45330W        W 6619  44.371  16.082  13.403
45331W        W 6620  10.787  39.869   4.253
45332W        W 6621  30.546  22.601   4.620
45333W        W 6622  26.068  42.017  12.520
45334W        W 6623  38.480  44.351  12.945
45335W        W 6624  21.743  14.691  12.395
45336W        W 6625  24.214  28.514   3.241
45337W        W 6626  27.071  19.249   3.382
45338W        W 6627  30.921  12.796   1.328
45339W        W 6628  40.483  40.481  12.464
45340W        W 6629  17.601  28.673  10.954
45341W        W 6630  38.993   2.886   2.383
45342W        W 6631  28.050  12.171   4.189
45343W        W 6632  29.034  20.110   3.245
45344W        W 6633   6.899  33.915   0.785
45345W        W 6634  16.602  30.910   1.213
45346W        W 6635  23.001  15.773  13.004
45347W        W 6636   8.185   8.875   3.758
45348W        W 6637  24.560  39.907   0.322
45349W        W 6638  12.650  29.113   3.378
45350W        W 6639  12.735  10.251   2.776
45351W        W 6640  33.941   9.817   4.704
45352W        W 6641  23.680  36.971  14.516
45353W        W 6642  23.192  20.673   1.881
45354W        W 6643   1.977  38.349   4.743
45355W        W 6644  10.331   8.160   2.315
45356W        W 6645  10.285   5.901  11.512
45357W        W 6646  38.007  32.035  11.923
45358W        W 6647  36.016   4.224   2.378
45359W        W 6648   2.744  36.519   1.351
45360W        W 6649  30.528   2.783  12.346
45361W        W 6650  11.344  14.135  11.479
45362W        W 6651  15.810  39.342   3.717
45363W        W 6652  35.101  25.206  11.950
45364W        W 6653  27.955  21.059  12.472
45365W        W 6654   9.263  22.508   4.142
45366W        W 6655  34.523  18.226  13.852
45367W        W 6656   8.179  42.456   2.186
45368W        W 6657  18.154   5.715  13.820
45369W        W 6658   3.831   4.384  14.396
45370W        W 6659  28.453  15.751   4.320
45371W        W 6660   1.764  17.772   0.385
45372W        W 6661  28.456  14.290  10.918
45373W        W 6662  32.620  15.182   2.195
45374W        W 6663  40.407  27.144   0.840
45375W        W 6664  11.257  25.576  10.958
45376W        W 6665  21.145  29.504   2.295
45377W        W 6666  33.037   2.235   2.687
45378W        W 6667  36.413  27.451   2.329
45379W        W 6668   5.303  21.563  12.544
45380W        W 6669  15.283   5.233   3.171
45381W        W 6670  44.985  35.108  12.474
45382W        W 6671  17.720   9.791  13.920
45383W        W 6672   9.698  28.452  12.569
45384W        W 6673  28.978  23.184   1.267
45385W        W 6674  23.667  16.672  12.877
45386W        W 6675   0.773  18.586  11.411
45387W        W 6676  12.666  44.308  13.405
45388W        W 6677  12.788  25.663  14.981
45389W        W 6678  10.817   9.363   2.358
45390W        W 6679  28.441  44.274   2.219
45391W        W 6680  38.424  18.271  12.867
45392W        W 6681   7.789  38.340  11.067
45393W        W 6682   2.909  16.655  12.482
45394W        W 6683  39.051  25.534   2.893
45395W        W 6684  38.459  36.564   1.772
45396W        W 6685  31.956  36.497  11.501
45397W        W 6686  17.226  32.927  13.369
45398W        W 6687   5.377  37.389  14.461
45399W        W 6688  18.122  17.284  14.408
45400W        W 6689  26.478   6.317   2.886
45401W        W 6690   2.793   4.320  11.882
45402W        W 6691  25.056  39.009  14.910
45403W        W 6692   1.313   8.851   4.660
45404W        W 6693   4.782  16.584   3.216
45405W        W 6694   8.895  18.626   4.170
45406W        W 6695  24.509  25.972  11.941
45407W        W 6696  18.060   6.193  11.008
45408W        W 6697  10.156  42.981  13.518
45409W        W 6698   9.387  33.621  13.412
45410W        W 6699   1.413   7.846  13.876
45411W        W 6700   1.419  35.445   2.900
45412W        W 6701  12.621  15.723   1.353
45413W        W 6702  12.264  27.970  13.013
45414W        W 6703  43.909  14.194   4.219
45415W        W 6704  29.589  36.465   4.631
45416W        W 6705   0.353   5.212   1.920
45417W        W 6706  25.095  15.202  14.931
45418W        W 6707  16.802   8.755   3.828
45419W        W 6708  30.094  30.913  14.407
45420W        W 6709  30.484  15.298  14.842
45421W        W 6710  27.534  21.630  13.877
45422W        W 6711  41.965  20.182   0.296
45423W        W 6712  41.318  41.883   4.319
45424W        W 6713  41.855   4.429  12.373
45425W        W 6714  21.690  38.957  14.937
45426W        W 6715  27.569   8.773  11.501
45427W        W 6716   1.823  22.185  14.292
45428W        W 6717   7.758  38.897   3.244
45429W        W 6718  14.655  40.463  12.073
45430W        W 6719   5.253  21.167  11.990
45431W        W 6720  29.077   4.820   1.217
45432W        W 6721  38.982  30.574   4.654
45433W        W 6722  29.095  36.938   0.438
45434W        W 6723  23.091  20.063   2.409
45435W        W 6724  38.346  32.398   1.250
45436W        W 6725  35.509  37.023   1.737
45437W        W 6726   8.218  16.239  14.962
45438W        W 6727   4.251  14.697  14.862
45439W        W 6728  23.024  22.107   9.437
45440W        W 6729  11.682  11.366   4.814
45441W        W 6730  32.091   1.401  10.015
45442W        W 6731  33.879  11.794   1.704
45443W        W 6732   1.781  15.634   4.314
45444W        W 6733  31.997   5.315   2.394
45445W        W 6734  30.648  36.379   5.105
45446W        W 6735  23.524  25.510  10.516
45447W        W 6736  32.912  21.164   3.688
45448W        W 6737  24.121   9.365   1.865
45449W        W 6738   1.934  40.454   1.928
45450W        W 6739  36.546  40.320   1.354
45451W        W 6740   3.860   7.770  12.413
45452W        W 6741  10.681   9.748  11.995
45453W        W 6742   8.215  23.107  13.373
45454W        W 6743  26.181  13.748   2.227
45455W        W 6744  19.181  20.562  14.854
45456W        W 6745  39.320  41.378   1.306
45457W        W 6746   1.432  30.004  14.920
45458W        W 6747  24.019  10.819  11.908
45459W        W 6748  34.908   2.756   4.230
45460W        W 6749  34.467   5.201  10.913
45461W        W 6750   6.301  13.846  13.965
45462W        W 6751  14.643  25.495   1.252
45463W        W 6752   6.789  18.596   4.608
45464W        W 6753   1.894   1.740  13.531
45465W        W 6754   6.813  34.406   3.688
45466W        W 6755  17.717  43.970   4.811
45467W        W 6756   8.278  24.579  14.908
45468W        W 6757   5.303  44.776   3.827
45469W        W 6758  26.132   2.263   4.744
45470W        W 6759  44.755  35.551   3.771
45471W        W 6760  32.119  31.058   2.775
45472W        W 6761  26.535   3.883  10.953
45473W        W 6762  20.646  21.563  12.411
45474W        W 6763  44.314  25.582   9.962
45475W        W 6764  36.418  37.384   5.194
45476W        W 6765   4.817  44.484   2.257
45477W        W 6766  29.033  41.796  12.512
45478W        W 6767  42.016  15.666  14.279
45479W        W 6768  14.812  34.952   3.755
45480W        W 6769  41.349  15.603   2.848
45481W        W 6770   3.246   1.820  14.367
45482W        W 6771  42.889  11.672  12.421
45483W        W 6772  44.267   8.705  11.949
45484W        W 6773  44.010  19.091   1.302
45485W        W 6774   4.797  29.130   0.385
45486W        W 6775   7.379  44.495   4.622
45487W        W 6776  39.368  42.007  12.962
45488W        W 6777  12.295   8.744  12.453
45489W        W 6778  31.556  32.595   2.711
45490W        W 6779  40.364  11.178   2.343
45491W        W 6780  14.158  19.772   0.404
45492W        W 6781  30.553  26.087   0.298
45493W        W 6782  29.992   1.337  12.094
45494W        W 6783  14.704   5.424   3.167
45495W        W 6784  37.523   3.389   0.947
45496W        W 6785  30.460   0.386   4.243
45497W        W 6786  25.055  34.094   1.845
45498W        W 6787   8.208   4.271   3.199
45499W        W 6788  20.611  43.001   1.839
45500W        W 6789  39.933   7.811   2.758
45501W        W 6790  35.034  21.154  10.606
45502W        W 6791  34.873   3.436   1.906
45503W        W 6792  28.517  17.173  14.858
45504W        W 6793  30.124  15.620  13.965
45505W        W 6794  26.120   7.389   1.725
45506W        W 6795  42.353  14.738   1.711
45507W        W 6796  29.999  27.000   2.873
45508W        W 6797  41.459  11.286  10.561
45509W        W 6798   2.937   3.917  10.513
45510W        W 6799  14.259  17.682  14.455
45511W        W 6800  34.529  12.310   1.431
45512W        W 6801   6.813   1.754   0.966
45513W        W 6802  34.562   7.416  10.533
45514W        W 6803  29.934   6.702   0.954
45515W        W 6804  17.605  27.187  14.494
45516W        W 6805  37.831  37.351   2.386
45517W        W 6806   5.931  31.474  14.776
45518W        W 6807  37.962  39.836   1.440
45519W        W 6808  24.059  41.479  10.627
45520W        W 6809  11.854   9.818  12.941
45521W        W 6810  44.923  39.846  13.018
45522W        W 6811   8.772  14.686   4.790
45523W        W 6812  12.716  32.427   4.180
45524W        W 6813  22.636  43.851  10.963
45525W        W 6814   6.286  28.620  12.975
45526W        W 6815  34.919  41.790  12.095
45527W        W 6816  39.454  16.142  12.874
45528W        W 6817  13.781  11.277   2.716
45529W        W 6818  41.323  15.704  11.552
45530W        W 6819  14.260  10.656  12.497
45531W        W 6820  23.734  35.451  12.007
45532W        W 6821  12.713  28.464   0.424
45533W        W 6822   0.925   8.162  13.893
45534W        W 6823  25.493   1.294  10.466
45535W        W 6824  24.529  31.406  14.414
45536W        W 6825  42.021  23.235  12.414
45537W        W 6826  19.229  37.057   4.795
45538W        W 6827  34.061   8.842  12.543
45539W        W 6828  20.082  22.083   4.689
45540W        W 6829  12.255   9.872   1.870
45541W        W 6830   0.787   7.292   2.714
45542W        W 6831   3.427  22.534   0.262
45543W        W 6832  24.116  15.781   1.711
45544W        W 6833  16.810   9.209  12.028
45545W        W 6834   6.213  24.486  12.380
45546W        W 6835  31.526  13.188  12.912
45547W        W 6836  23.580  27.990  11.533
45548W        W 6837   5.375   5.243  14.899
45549W        W 6838  20.195  18.095  13.368
45550W        W 6839  36.403  40.363   5.162
45551W        W 6840   7.867  13.656   2.217
45552W        W 6841  35.020  18.653  14.815
45553W        W 6842   4.402  34.400   4.267
45554W        W 6843  16.291  24.102   0.913
45555W        W 6844  38.439  25.557  12.575
45556W        W 6845   0.914   6.881  12.886
45557W        W 6846  14.645  12.160  10.928
45558W        W 6847  35.597  15.768   2.325
45559W        W 6848   9.157  39.473  14.918
45560W        W 6849   1.795  12.616   4.719
45561W        W 6850  24.629  18.637  14.425
45562W        W 6851   2.467  10.743  13.951
45563W        W 6852  29.103  42.456  11.917
45564W        W 6853   6.290  39.810   0.897
45565W        W 6854  21.051  16.214   2.860
45566W        W 6855  37.861  25.020  11.464
45567W        W 6856  32.093  35.914  10.431
45568W        W 6857   3.216   2.268  10.971
45569W        W 6858  44.451  27.012  14.896
45570W        W 6859  10.384  21.576   2.293
45571W        W 6860  14.635  42.508   2.289
45572W        W 6861  34.022   6.239  10.923
45573W        W 6862  32.542  19.173   1.810
45574W        W 6863  26.098   9.851  10.137
45575W        W 6864  44.954  32.538   2.321
45576W        W 6865   2.268  33.450  10.574
45577W        W 6866  25.209  34.080   1.299
45578W        W 6867   0.820  41.802   3.832
45579W        W 6868   4.369  24.517  14.311
45580W        W 6869  35.377  41.454   1.921
45581W        W 6870  44.903  44.936  13.419
45582W        W 6871  24.606  26.520   4.212
45583W        W 6872  20.202   8.314   4.322
45584W        W 6873  29.425  44.850  10.944
45585W        W 6874  38.444  18.170   1.316
45586W        W 6875  23.081  15.824   3.689
45587W        W 6876  19.662   7.772  10.637
45588W        W 6877  32.047  28.579  10.632
45589W        W 6878   6.200  17.786   2.766
45590W        W 6879  24.513   4.336  14.355
45591W        W 6880  10.212  25.521   2.395
45592W        W 6881  15.257  17.068  11.403
45593W        W 6882  10.353  11.166  10.985
45594W        W 6883  29.460   5.275   9.509
45595W        W 6884  35.450   2.249   0.426
45596W        W 6885  35.379  23.614   0.794
45597W        W 6886  12.165  17.201   1.395
45598W        W 6887  26.677  26.075   3.649
45599W        W 6888  17.602  23.161  10.947
45600W        W 6889  19.051  11.671   3.352
45601W        W 6890  30.984  34.025  13.872
45602W        W 6891  35.915  13.202  14.445
45603W        W 6892  26.639  35.517   3.836
45604W        W 6893   6.322  20.732   3.313
45605W        W 6894  14.604  30.031  11.450
45606W        W 6895  31.963   9.837   2.281
45607W        W 6896  38.457  36.843  14.335
45608W        W 6897  25.003  35.030   0.893
45609W        W 6898  27.540  21.749   4.262
45610W        W 6899  18.629  28.479  10.535
45611W        W 6900  23.583  16.108   2.715
45612W        W 6901  27.554  13.270   4.186
45613W        W 6902  26.958  28.563  13.409
45614W        W 6903   2.340  41.398  12.567
45615W        W 6904  11.250  26.123   0.440
45616W        W 6905  11.334   8.697  12.986
45617W        W 6906  31.615  30.453   2.392
45618W        W 6907  33.600  11.719   3.202
45619W        W 6908  11.292  17.769   0.852
45620W        W 6909   4.360  44.976  10.421
45621W        W 6910  44.963  28.020  11.999
45622W        W 6911  11.261  28.525  10.500
45623W        W 6912  24.990  29.158   3.354
45624W        W 6913  39.357  35.574   0.321
45625W        W 6914  37.885  23.518   2.714
45626W        W 6915  18.780   7.666   2.416
45627W        W 6916  10.205  28.588   3.324
45628W        W 6917  23.686  28.496   0.837
45629W        W 6918  28.565  16.305   2.183
45630W        W 6919  36.994   3.866  11.881
45631W        W 6920  11.663  32.605   1.424
45632W        W 6921   7.381  37.348  14.455
45633W        W 6922  25.977  43.778  10.533
45634W        W 6923  37.034  29.121  13.990
45635W        W 6924  14.295  44.380   1.340
45636W        W 6925  18.160  31.932  12.959
45637W        W 6926  38.947  16.692  14.921
45638W        W 6927  40.812  31.576   3.183
45639W        W 6928  41.982  28.534  13.447
45640W        W 6929  39.314  20.650  12.840
45641W        W 6930   6.760  32.440  11.500
45642W        W 6931   6.190  31.515   2.893
45643W        W 6932  37.936  13.840   0.258
45644W        W 6933  40.467  16.686   2.400
45645W        W 6934   7.836  10.225   0.860
45646W        W 6935  13.818   5.285  13.518
45647W        W 6936  15.766   3.877   2.418
45648W        W 6937  38.930  42.803  13.434
45649W        W 6938  37.083  29.505  13.334
45650W        W 6939  18.767  19.052   3.684
45651W        W 6940  43.975  11.846  12.390
45652W        W 6941  11.235  18.199   3.201
45653W        W 6942   9.258  21.542  13.968
45654W        W 6943   3.883   7.365   0.736
45655W        W 6944  12.322   4.885  13.996
45656W        W 6945   3.749  38.013   4.246
45657W        W 6946  44.779  23.581  14.877
45658W        W 6947  13.215  19.605  11.003
45659W        W 6948  20.165  11.731  11.525
45660W        W 6949  18.104  14.186   4.281
45661W        W 6950  13.176  32.544  10.639
45662W        W 6951  19.221  30.616   2.319
45663W        W 6952  26.066  29.598   4.337
45664W        W 6953  22.085  20.550   4.761
45665W        W 6954  34.942  23.113  10.914
45666W        W 6955  44.772  41.394   1.343
45667W        W 6956  11.627  37.077   4.779
45668W        W 6957   3.425  41.982  13.335
45669W        W 6958  38.500  33.091   4.783
45670W        W 6959  12.163   7.788   4.175
45671W        W 6960  10.834  32.473   2.228
45672W        W 6961  30.622  30.492   1.932
45673W        W 6962  28.974   7.343  14.352
45674W        W 6963  12.190  23.127   0.883
45675W        W 6964  23.161  11.693   0.290
45676W        W 6965  28.651  21.661   1.352
45677W        W 6966  20.577  43.800   0.308
45678W        W 6967  24.480  24.994  11.572
45679W        W 6968  29.117  17.176  14.969
45680W        W 6969  16.243  33.494   1.713
45681W        W 6970  38.518   5.368  14.477
45682W        W 6971  16.732  39.051  13.371
45683W        W 6972  22.229  34.953  11.078
45684W        W 6973  39.541   1.864   4.306
45685W        W 6974  38.420  27.566   4.150
45686W        W 6975  22.083   9.864   0.838
45687W        W 6976  10.182  13.140   4.187
45688W        W 6977  14.700  14.639   2.842
45689W        W 6978  35.994   1.434   3.362
45690W        W 6979  13.637  16.748   4.160
45691W        W 6980  32.117  43.944   1.427
45692W        W 6981  28.473  27.091  14.351
45693W        W 6982   7.771  20.073  13.912
45694W        W 6983  44.862   8.887  11.941
45695W        W 6984  13.686  11.699  12.005
45696W        W 6985   5.819  16.652   4.243
45697W        W 6986   2.340  30.968  13.356
45698W        W 6987   2.380   0.968   4.199
45699W        W 6988  11.250  23.115  14.331
45700W        W 6989  32.090  10.841  10.988
45701W        W 6990  34.890  26.477  14.939
45702W        W 6991  10.686  21.599  14.881
45703W        W 6992  35.898  38.042  12.521
45704W        W 6993  39.347  31.447  12.044
45705W        W 6994  19.610  28.440  12.978
45706W        W 6995   9.229  43.373   3.676
45707W        W 6996  26.999  25.080   1.832
45708W        W 6997  44.826  10.160  12.362
45709W        W 6998  30.143  39.413  11.041
45710W        W 6999  25.528  32.418  11.557
45711W        W 7000  17.628  35.915   3.774
45712W        W 7001   7.752  11.726   3.785
45713W        W 7002  18.294  33.969   4.752
45714W        W 7003  29.548  18.146  11.070
45715W        W 7004   5.287   1.355  10.541
45716W        W 7005  40.994  36.560  14.309
45717W        W 7006  12.156  35.526   0.766
45718W        W 7007   0.862  13.140  11.039
45719W        W 7008   2.445   4.428  10.610
45720W        W 7009  30.919  29.493  11.609
45721W        W 7010  21.245  14.126  10.475
45722W        W 7011  39.559  42.512   1.272
45723W        W 7012  31.542  40.317  11.046
45724W        W 7013  35.093  23.044   2.295
45725W        W 7014  32.427  10.189  10.486
45726W        W 7015   3.317  37.842   2.701
45727W        W 7016  33.077  44.829  10.912
45728W        W 7017   7.297   8.697   1.357
45729W        W 7018  22.668  26.516   3.172
45730W        W 7019  44.766  23.200   2.823
45731W        W 7020   1.444  19.055  14.275
45732W        W 7021  40.910   5.429  11.468
45733W        W 7022  40.319  13.812  11.475
45734W        W 7023   0.787  10.840   3.158
45735W        W 7024   5.744  19.669   4.143
45736W        W 7025   3.388  26.951  10.639
45737W        W 7026   9.735   6.794  12.466
45738W        W 7027   2.377  19.264   3.830
45739W        W 7028  11.739  13.347   0.850
45740W        W 7029  24.693  16.743  10.470
45741W        W 7030  33.555   3.360  11.054
45742W        W 7031   9.301  17.244   1.328
45743W        W 7032  12.133  42.888  13.829
45744W        W 7033  17.079  16.287   1.257
45745W        W 7034  41.389  39.366   4.114
45746W        W 7035  22.554   7.320   3.326
45747W        W 7036  19.212  43.781   3.679
45748W        W 7037  39.863  29.443  13.426
45749W        W 7038   3.263   0.303   4.226
45750W        W 7039  20.042  30.135  14.955
45751W        W 7040  36.894  32.072   4.818
45752W        W 7041   2.285  12.169   3.212
45753W        W 7042  26.093  37.995   1.789
45754W        W 7043  20.589  27.028  10.635
45755W        W 7044   4.727  19.667  13.044
45756W        W 7045  34.898  28.091  12.896
45757W        W 7046  32.409   8.710  10.559
45758W        W 7047  30.118  14.657  13.323
45759W        W 7048  23.153  25.198   4.736
45760W        W 7049  16.083  44.454  12.032
45761W        W 7050   5.771  16.131   3.693
45762W        W 7051  11.127   3.256   0.295
45763W        W 7052   5.195  16.240  13.447
45764W        W 7053  34.936  28.664  14.307
45765W        W 7054  44.805  28.097  11.417
45766W        W 7055  19.119  16.703  14.003
45767W        W 7056  26.979  29.467  13.932
45768W        W 7057  15.657  27.121   3.694
45769W        W 7058  37.396   7.900  10.606
45770W        W 7059   1.330   3.281  10.489
45771W        W 7060   5.847  29.598   0.819
45772W        W 7061  18.230  12.840  11.453
45773W        W 7062  12.271  41.012  13.482
45774W        W 7063  27.671  33.028  11.534
45775W        W 7064  10.777  21.629   4.209
45776W        W 7065  40.850  30.026  11.541
45777W        W 7066  38.860  41.418  11.952
45778W        W 7067   9.308  31.621  14.310
45779W        W 7068  11.755  23.154  10.635
45780W        W 7069  40.924  13.228  12.860
45781W        W 7070  25.127  17.579  11.594
45782W        W 7071  38.937  36.410   4.751
45783W        W 7072  23.229  41.296   0.914
45784W        W 7073  35.595  41.470  14.915
45785W        W 7074  22.038  21.125   1.215
45786W        W 7075   4.741  36.429   1.349
45787W        W 7076  26.519  40.893   1.707
45788W        W 7077  32.443  30.090  14.440
45789W        W 7078  22.715  33.514   4.682
45790W        W 7079  36.358  14.123   4.147
45791W        W 7080  19.553  34.560  11.541
45792W        W 7081  24.666   5.196   4.161
45793W        W 7082  19.142  12.349   3.171
45794W        W 7083  26.970  15.654   2.299
45795W        W 7084  33.880  43.913  10.639
45796W        W 7085  41.309   4.824   1.873
45797W        W 7086  40.517  28.041  10.463
45798W        W 7087  42.448  12.141   0.310
45799W        W 7088  34.986  30.492  12.059
45800W        W 7089   6.774  32.495   4.766
45801W        W 7090  17.599  26.064  12.921
45802W        W 7091  43.453  14.146  13.869
45803W        W 7092  11.291  27.528  12.904
45804W        W 7093  21.251  35.027   0.453
45805W        W 7094  19.197  24.115  14.941
45806W        W 7095   7.320  10.859   3.768
45807W        W 7096  44.462  23.624  11.399
45808W        W 7097   7.748  22.588  14.415
45809W        W 7098  27.469  42.952  14.315
45810W        W 7099  21.713  16.085   1.781
45811W        W 7100  12.832  32.504   2.779
45812W        W 7101  16.283  28.573  13.035
45813W        W 7102  21.731  19.128  10.534
45814W        W 7103   2.787  20.726   1.798
45815W        W 7104  30.104  34.000   2.218
45816W        W 7105  24.037  13.201  13.006
45817W        W 7106  11.738  21.209  11.438
45818W        W 7107  10.339  36.856  11.992
45819W        W 7108   0.385  38.982  11.968
45820W        W 7109  43.964   7.850   1.750
45821W        W 7110   5.911   8.726  10.617
45822W        W 7111  39.912  17.077   1.249
45823W        W 7112  23.986   7.693   4.269
45824W        W 7113  32.484  38.473  13.866
45825W        W 7114  24.000  21.223  10.589
45826W        W 7115  33.440  38.061   2.324
45827W        W 7116  17.721  33.434   1.444
45828W        W 7117  16.676  26.015  14.935
45829W        W 7118   8.234  40.012   3.781
45830W        W 7119  21.662  36.080   0.294
45831W        W 7120   0.349   2.328   4.622
45832W        W 7121  10.656  35.530  11.500
45833W        W 7122  25.580  44.780   0.744
45834W        W 7123  10.772   6.810   3.188
45835W        W 7124  12.852  40.402   0.384
45836W        W 7125  16.768   0.881  11.491
45837W        W 7126   5.206  44.504  13.931
45838W        W 7127   9.838  16.647   4.217
45839W        W 7128  40.005  32.584  12.529
45840W        W 7129  28.152   4.448  14.436
45841W        W 7130  14.312  29.508  13.512
45842W        W 7131  29.506  13.117   2.665
45843W        W 7132   8.319  15.609   0.403
45844W        W 7133   0.915   0.433  10.153
45845W        W 7134   9.852  12.200  10.435
45846W        W 7135   6.774  20.589  12.865
45847W        W 7136  44.879  23.069  10.552
45848W        W 7137  38.377  13.223  13.961
45849W        W 7138  10.754  39.366   2.748
45850W        W 7139   6.354  25.054   0.867
45851W        W 7140  14.121  15.194  14.378
45852W        W 7141  40.832  34.002   0.386
45853W        W 7142  39.866  36.886   4.191
45854W        W 7143  25.541  40.019  13.043
45855W        W 7144  40.405   2.801   0.810
45856W        W 7145  38.923  19.728   5.206
45857W        W 7146   5.883  24.641  13.866
45858W        W 7147  13.845  36.952   9.481
45859W        W 7148   9.270  21.118   5.191
45860W        W 7149   8.770   2.457   2.756
45861W        W 7150  23.551  16.261  10.937
45862W        W 7151  29.142  17.634  11.393
45863W        W 7152   9.330   9.673  11.121
45864W        W 7153  22.137   2.752   3.869
45865W        W 7154  31.102  22.225   3.762
45866W        W 7155  38.422  23.162  13.883
45867W        W 7156  17.682   3.798   2.231
45868W        W 7157   5.236   8.373  14.479
45869W        W 7158  42.509  11.231   4.646
45870W        W 7159  20.635  13.633   3.151
45871W        W 7160  37.862  40.350  11.587
45872W        W 7161  28.996  43.813  11.900
45873W        W 7162  18.254  29.439  11.992
45874W        W 7163  33.970   5.271  13.507
45875W        W 7164  11.322  11.354  14.767
45876W        W 7165  35.865   9.675  12.079
45877W        W 7166  14.252  35.990   2.328
45878W        W 7167   4.911  14.789   3.868
45879W        W 7168  13.197  18.772   0.736
45880W        W 7169  41.968  18.731  13.997
45881W        W 7170  29.122  25.601  14.820
45882W        W 7171  21.544  22.502   2.861
45883W        W 7172  39.948  20.696   2.688
45884W        W 7173  40.944   1.801   2.766
45885W        W 7174  30.937  29.522  14.308
45886W        W 7175  41.406  37.885  10.439
45887W        W 7176   2.887   4.854  10.440
45888W        W 7177  32.068  31.596   3.736
45889W        W 7178  12.322  18.122   3.360
45890W        W 7179  41.327   3.390   0.965
45891W        W 7180  16.263   2.285   4.663
45892W        W 7181  14.635  39.969   4.124
45893W        W 7182  14.796  14.636   4.654
45894W        W 7183  20.624  24.102   3.262
45895W        W 7184  31.066   2.881   0.419
45896W        W 7185  33.881   1.259   2.709
45897W        W 7186  42.827  41.901   2.889
45898W        W 7187  44.467  28.510   2.221
45899W        W 7188  42.877  17.561  13.939
45900W        W 7189  13.112  27.122  11.005
45901W        W 7190   8.282  35.532  10.570
45902W        W 7191  10.743  42.846  12.077
45903W        W 7192   6.383  37.536   4.680
45904W        W 7193  42.960  43.400  14.354
45905W        W 7194   9.881   2.426   0.891
45906W        W 7195   0.276   7.199  14.806
45907W        W 7196  23.109  40.494   3.331
45908W        W 7197  22.112   6.325   2.237
45909W        W 7198  22.235   2.397  13.312
45910W        W 7199  41.877  19.567   3.287
45911W        W 7200  31.976  11.754   0.890
45912W        W 7201   6.733   7.742   2.340
45913W        W 7202   4.416   2.885  12.879
45914W        W 7203  37.832   8.282  12.492
45915W        W 7204   0.447  24.582  12.449
45916W        W 7205  25.188  16.109  12.912
45917W        W 7206   5.767  38.364  12.511
45918W        W 7207  24.067   9.222  12.402
45919W        W 7208  34.605  36.849   2.665
45920W        W 7209  28.619  37.914  12.405
45921W        W 7210  10.198   8.886  12.420
45922W        W 7211  25.700  30.999   1.916
45923W        W 7212  40.919  39.511  11.988
45924W        W 7213  11.143  18.787   0.247
45925W        W 7214  16.269  36.443  10.923
45926W        W 7215   0.253  16.637  10.556
45927W        W 7216  37.879  12.652   2.770
45928W        W 7217  34.506   6.343  13.872
45929W        W 7218  18.698   9.332  11.928
45930W        W 7219   3.777  27.101   2.692
45931W        W 7220  21.623   4.247  11.612
45932W        W 7221  27.567  11.171  11.110
45933W        W 7222  34.474  40.017   2.236
45934W        W 7223  34.503  34.016  11.867
45935W        W 7224   8.341  10.189   2.690
45936W        W 7225  36.372  14.117   0.414
45937W        W 7226  15.171  10.784  11.534
45938W        W 7227  29.135  14.259  12.530
45939W        W 7228  41.947   4.345   4.784
45940W        W 7229  43.354   7.854   4.679
45941W        W 7230  44.771  34.963  13.039
45942W        W 7231  24.674  20.052  14.833
45943W        W 7232  20.232  18.169   4.750
45944W        W 7233  28.159  34.023   0.481
45945W        W 7234   5.835  18.564   3.355
45946W        W 7235   5.766  16.263  14.801
45947W        W 7236  27.545  36.895  12.973
45948W        W 7237  44.308  15.187  13.493
45949W        W 7238  10.814  35.560  12.034
45950W        W 7239  34.884   8.692   0.827
45951W        W 7240  24.512  12.178   3.732
45952W        W 7241  19.250   7.315  11.082
45953W        W 7242   2.803  13.808  12.559
45954W        W 7243  44.400  29.935  12.504
45955W        W 7244  28.145   2.230  10.623
45956W        W 7245  38.071  37.459  13.469
45957W        W 7246  22.019  19.573   3.774
45958W        W 7247   3.898  41.894  14.335
45959W        W 7248  14.094  26.616  11.378
45960W        W 7249  36.017   4.732  12.914
45961W        W 7250  17.700  17.563  14.781
45962W        W 7251   8.396  40.526  10.520
45963W        W 7252  29.621  19.263   3.770
45964W        W 7253   1.875  11.685  10.495
45965W        W 7254   2.265  40.946   1.271
45966W        W 7255  16.124  33.890  11.976
45967W        W 7256   4.922  33.524   2.327
45968W        W 7257  37.995  16.749   2.313
45969W        W 7258  17.676   1.867  10.586
45970W        W 7259   8.321   3.452  11.447
45971W        W 7260  20.165  36.883   2.716
45972W        W 7261  28.095  13.837  12.038
45973W        W 7262  30.500   5.303  13.408
45974W        W 7263  20.679  37.863   4.114
45975W        W 7264   0.863   3.850  12.904
45976W        W 7265  32.040   9.348   1.736
45977W        W 7266  44.844   2.807   3.656
45978W        W 7267  33.477  21.574   2.843
45979W        W 7268  35.954   4.253  13.918
45980W        W 7269   2.276  44.503  14.783
45981W        W 7270  37.478  26.639   4.737
45982W        W 7271   9.678  39.549  11.073
45983W        W 7272  10.705  20.553  12.534
45984W        W 7273  23.178  27.999   0.942
45985W        W 7274  27.475  18.183   1.804
45986W        W 7275  34.448  20.037  11.029
45987W        W 7276   6.416  10.142  13.528
45988W        W 7277   7.862  36.512  13.793
45989W        W 7278  17.163  10.272  12.412
45990W        W 7279  41.018   6.867   0.735
45991W        W 7280  16.130  19.163   2.876
45992W        W 7281  17.670  43.951   2.391
45993W        W 7282   5.837  44.984  12.496
45994W        W 7283  18.702   8.394  10.921
45995W        W 7284  38.913  16.766  12.829
45996W        W 7285  22.063   1.311  12.464
45997W        W 7286  12.691   3.223  10.998
45998W        W 7287   1.475  43.321   4.301
45999W        W 7288  37.935  25.565   1.274
46000W        W 7289  35.545  29.666   4.605
46001W        W 7290  15.641  34.381  11.475
46002W        W 7291  24.588  19.079   3.239
46003W        W 7292  16.177  36.563  11.544
46004W        W 7293  36.914  27.948   2.415
46005W        W 7294  11.669  25.070  14.941
46006W        W 7295  14.276   7.192  13.499
46007W        W 7296  22.112   7.696   4.733
46008W        W 7297   5.292  11.783   0.424
46009W        W 7298  39.550  19.587   0.404
46010W        W 7299  18.561  22.166  14.951
46011W        W 7300  23.507   7.219  10.937
46012W        W 7301  32.519  15.242  11.902
46013W        W 7302  31.541  15.131   2.841
46014W        W 7303   5.208   1.455  14.280
46015W        W 7304  21.125   3.712  12.039
46016W        W 7305  16.576  42.030   2.412
46017W        W 7306  43.864  35.419  10.595
46018W        W 7307  43.879   1.937   0.374
46019W        W 7308  24.126  21.713   0.795
46020W        W 7309   5.783  32.085  12.531
46021W        W 7310  28.154  24.684  13.031
46022W        W 7311   7.364  39.383   2.817
46023W        W 7312  40.471   2.937   1.779
46024W        W 7313   3.276  13.680   3.778
46025W        W 7314  35.439  10.740  14.326
46026W        W 7315   4.874   2.388  13.422
46027W        W 7316  21.722   2.307   3.240
46028W        W 7317  26.687   4.335  13.984
46029W        W 7318  20.632  30.506   1.903
46030W        W 7319  26.527   5.263  14.014
46031W        W 7320  29.096  14.695   4.168
46032W        W 7321   7.367   1.969  13.342
46033W        W 7322   3.264  10.769  11.880
46034W        W 7323  36.405   3.868  13.820
46035W        W 7324  31.558  36.422  12.409
46036W        W 7325  35.868   7.709   2.786
46037W        W 7326  36.418  30.018  14.852
46038W        W 7327   0.352  39.039  12.833
46039W        W 7328  14.686  20.264   5.772
46040W        W 7329   8.255   5.829   0.455
46041W        W 7330   6.416   1.903  11.066
46042W        W 7331  41.502  38.480  10.894
46043W        W 7332   6.394  43.944  14.478
46044W        W 7333  22.742  21.559  10.463
46045W        W 7334   4.896   0.362  11.111
46046W        W 7335   9.791  15.295  10.997
46047W        W 7336  37.343  40.953   0.856
46048W        W 7337  36.091  26.493  12.092
46049W        W 7338  33.483  31.015  10.557
46050W        W 7339  13.830  39.323   0.899
46051W        W 7340   5.930  42.831   1.237
46052W        W 7341  42.891   3.946   1.824
46053W        W 7342  21.060  29.628  12.026
46054W        W 7343  13.225  40.021   1.288
46055W        W 7344  22.542   9.349  12.410
46056W        W 7345   1.969  24.489   3.355
46057W        W 7346   3.775  16.187  13.408
46058W        W 7347  44.906  42.889   2.188
46059W        W 7348  13.167  17.733   1.816
46060W        W 7349  22.129  44.367  12.526
46061W        W 7350  30.585   0.771   3.669
46062W        W 7351  25.593  16.313   4.254
46063W        W 7352  16.578  18.151   4.153
46064W        W 7353  43.279  42.450   3.206
46065W        W 7354  40.957  31.015   0.254
46066W        W 7355   4.873   2.460  10.101
46067W        W 7356  38.389  38.447  13.380
46068W        W 7357  27.690  15.280  10.566
46069W        W 7358  25.036  12.326  14.915
46070W        W 7359  26.020  25.050   4.184
46071W        W 7360  28.592  11.807  12.054
46072W        W 7361  14.120  12.347  14.433
46073W        W 7362  16.279  34.914  14.447
46074W        W 7363   5.752  10.879  13.051
46075W        W 7364  20.045   1.970  14.861
46076W        W 7365  36.029  44.390   1.315
46077W        W 7366  38.040  42.924   3.371
46078W        W 7367  15.711   9.189  13.856
46079W        W 7368   4.710  31.137   5.158
46080W        W 7369  13.189  16.215   1.321
46081W        W 7370  20.226  15.815   0.424
46082W        W 7371   1.881  42.852   0.831
46083W        W 7372  14.707   4.733   2.380
46084W        W 7373  36.006  18.089  12.422
46085W        W 7374  17.783  20.650  13.046
46086W        W 7375  29.603   2.925   0.308
46087W        W 7376  30.443  37.074   2.823
46088W        W 7377   8.282  28.674   4.617
46089W        W 7378  28.578  13.109   3.320
46090W        W 7379  17.099  40.925  12.993
46091W        W 7380  13.772  12.718   0.436
46092W        W 7381  40.404  35.023  12.998
46093W        W 7382   5.860  20.765  14.385
46094W        W 7383  40.307  32.561   4.352
46095W        W 7384  38.034  26.020  14.929
46096W        W 7385   9.254  23.574   3.792
46097W        W 7386  13.106  29.503  11.126
46098W        W 7387   3.343  17.641   2.815
46099W        W 7388  23.580  40.008   1.217
46100W        W 7389  14.689  30.121  12.514
46101W        W 7390  31.971  17.637   2.815
46102W        W 7391   8.656  38.940  13.980
46103W        W 7392   2.721  30.553  11.101
46104W        W 7393  11.369  35.407   1.919
46105W        W 7394   4.321  37.414   0.943
46106W        W 7395  18.075  18.092  11.028
46107W        W 7396   5.799   4.780   4.607
46108W        W 7397  27.488  43.355   2.788
46109W        W 7398   6.905  12.833   3.768
46110W        W 7399   4.803  13.635  11.034
46111W        W 7400  15.804  32.886  10.048
46112W        W 7401  17.067   7.357  13.456
46113W        W 7402  14.113  43.008  10.438
46114W        W 7403  28.560  19.159   0.893
46115W        W 7404   9.387  36.016  14.846
46116W        W 7405  15.753  24.148   4.228
46117W        W 7406  34.607  23.701   2.236
46118W        W 7407   0.351  37.896  13.539
46119W        W 7408  12.285  27.551   3.713
46120W        W 7409  35.577  24.508   2.684
46121W        W 7410   9.261  34.096   1.329
46122W        W 7411  37.013  39.900  10.628
46123W        W 7412  11.195   7.843   3.339
46124W        W 7413  25.509  39.864  11.409
46125W        W 7414  35.089  36.052  14.296
46126W        W 7415  40.972  39.329  10.955
46127W        W 7416  11.833  20.252  12.848
46128W        W 7417  44.452   1.422   4.348
46129W        W 7418  19.752  38.843  14.898
46130W        W 7419   9.284  27.677  11.557
46131W        W 7420   3.759  33.607   1.830
46132W        W 7421  22.626  39.917   0.267
46133W        W 7422  15.150  18.677  14.992
46134W        W 7423  26.562  40.401  12.500
46135W        W 7424  14.093  29.039  14.989
46136W        W 7425  34.890  16.630  13.814
46137W        W 7426  33.614  27.623   3.291
46138W        W 7427  36.018  20.693   3.707
46139W        W 7428   3.787  23.564  12.443
46140W        W 7429   8.687   9.364   4.354
46141W        W 7430  15.682   4.824   1.813
46142W        W 7431  13.212  11.702  10.006
46143W        W 7432  11.789  32.015   4.664
46144W        W 7433  14.797  19.690   2.220
46145W        W 7434  17.186  43.404  13.485
46146W        W 7435  14.128  27.954   5.090
46147W        W 7436  17.718  34.596   4.598
46148W        W 7437  38.914  22.699   1.792
46149W        W 7438   9.214   1.278  12.941
46150W        W 7439  18.760  10.846   4.224
46151W        W 7440  29.441  13.179   4.652
46152W        W 7441   1.784   0.385  10.604
46153W        W 7442   0.432  43.346   2.677
46154W        W 7443  22.204  42.408  12.567
46155W        W 7444   3.876  28.592  12.861
46156W        W 7445   9.389  32.529   2.286
46157W        W 7446  24.603   9.355  10.626
46158W        W 7447   7.781   2.904   3.704
46159W        W 7448  12.119  20.625   0.887
46160W        W 7449  40.477   8.718   1.376
46161W        W 7450  18.781  13.112   2.790
46162W        W 7451  11.323  22.242  12.970
46163W        W 7452   1.481   7.259   0.320
46164W        W 7453  35.948  41.959   2.351
46165W        W 7454  39.029  15.114  10.057
46166W        W 7455  36.991  27.560   4.616
46167W        W 7456  17.613  23.222  13.995
46168W        W 7457  30.541  17.088   0.339
46169W        W 7458   3.851   3.861  11.978
46170W        W 7459  27.038  12.830  13.841
46171W        W 7460   7.780  10.789   2.741
46172W        W 7461  29.599  41.327   1.394
46173W        W 7462  13.657   1.393   0.449
46174W        W 7463  19.160   4.325  12.845
46175W        W 7464  27.137  22.647   0.321
46176W        W 7465  32.056  14.643   0.786
46177W        W 7466  19.664  32.473   3.783
46178W        W 7467  29.014  10.244  13.548
46179W        W 7468   0.922   9.291   1.753
46180W        W 7469  43.913  38.936   1.926
46181W        W 7470  20.045  36.536  14.971
46182W        W 7471  30.134  29.582   1.369
46183W        W 7472   9.667  22.218  14.368
46184W        W 7473  18.091   5.304   3.277
46185W        W 7474  37.941  40.034   1.705
46186W        W 7475  19.042   1.256  14.422
46187W        W 7476   9.259  37.453  11.872
46188W        W 7477  37.066  26.081   1.379
46189W        W 7478  38.834  43.465  12.345
46190W        W 7479  13.792   1.293   5.734
46191W        W 7480  34.045  26.521   3.373
46192W        W 7481  34.937  24.085  11.935
46193W        W 7482  15.147  42.902  14.497
46194W        W 7483   5.324  33.413   1.837
46195W        W 7484  41.410  28.675   1.271
46196W        W 7485  10.783  44.493   0.869
46197W        W 7486  31.440  15.265   2.339
46198W        W 7487  15.179  20.095  12.982
46199W        W 7488  20.732   1.772   2.818
46200W        W 7489  29.458  42.949   3.146
46201W        W 7490  37.851  25.663   4.185
46202W        W 7491  24.508  18.655  10.598
46203W        W 7492  40.856  41.472  11.561
46204W        W 7493  10.381  28.624  13.337
46205W        W 7494  32.921  11.293   0.425
46206W        W 7495   0.849  39.483   4.729
46207W        W 7496  34.974  37.837   1.373
46208W        W 7497  21.665  25.010   1.783
46209W        W 7498  35.504   4.446  11.383
46210W        W 7499  32.590  38.995   0.782
46211W        W 7500  15.114   7.334  12.414
46212W        W 7501   6.371  24.047  12.547
46213W        W 7502  26.701  42.958   0.810
46214W        W 7503  15.167  35.043  11.491
46215W        W 7504  27.474  10.140  12.364
46216W        W 7505  35.092  14.296   3.669
46217W        W 7506  13.715  12.300   1.316
46218W        W 7507  41.444  39.484   1.221
46219W        W 7508  21.543  37.029  10.506
46220W        W 7509  31.541  42.397  11.983
46221W        W 7510  22.584   9.796   3.666
46222W        W 7511  36.055   7.298   3.785
46223W        W 7512  14.275   9.795   0.732
46224W        W 7513  44.825   6.310   3.288
46225W        W 7514   6.842  40.483  12.341
46226W        W 7515   9.313   3.418  13.342
46227W        W 7516  44.893  37.356  11.479
46228W        W 7517   5.251  21.239   4.665
46229W        W 7518   5.328  20.047  12.073
46230W        W 7519  40.448   5.326  12.382
46231W        W 7520  35.059  32.902  14.923
46232W        W 7521   7.383  35.038   0.739
46233W        W 7522  40.484   8.203   3.770
46234W        W 7523   5.896  42.430   4.228
46235W        W 7524  14.335  43.478  13.504
46236W        W 7525   6.285  10.226   2.283
46237W        W 7526   4.807  10.178  12.372
46238W        W 7527  31.450  37.982  14.785
46239W        W 7528  13.301  11.329   4.604
46240W        W 7529  10.203   4.787   4.686
46241W        W 7530  43.806  34.459  12.343
46242W        W 7531   8.229  27.109  12.902
46243W        W 7532  31.920  11.324   1.886
46244W        W 7533   9.725  16.743   0.479
46245W        W 7534  41.830  24.215   4.606
46246W        W 7535  20.194  27.029  10.449
46247W        W 7536  41.300   4.816   3.757
46248W        W 7537   8.200  30.484   4.139
46249W        W 7538  18.227  20.760   9.465
46250W        W 7539   5.266  16.175   2.375
46251W        W 7540   7.853  35.897   4.741
46252W        W 7541  25.623  10.302  10.553
46253W        W 7542  33.965  16.694  11.553
46254W        W 7543  32.399  21.207  10.947
46255W        W 7544  43.880  22.088   0.428
46256W        W 7545  19.058  29.440  10.497
46257W        W 7546  17.799  41.425  12.573
46258W        W 7547   4.706  38.888  13.402
46259W        W 7548  14.246  28.034  10.610
46260W        W 7549   1.842  20.223   0.857
46261W        W 7550  43.319  40.422  10.893
46262W        W 7551  39.332  34.538   1.752
46263W        W 7552  13.247   5.379   0.377
46264W        W 7553  30.540  43.899   2.729
46265W        W 7554   0.884  41.018   4.325
46266W        W 7555  21.091  26.513   0.804
46267W        W 7556  20.624  25.495   0.453
46268W        W 7557  18.717  11.156  13.444
46269W        W 7558  30.416  33.554  14.032
46270W        W 7559  11.193  28.513  14.846
46271W        W 7560  41.429  39.987   2.317
46272W        W 7561  19.555  44.992  12.849
46273W        W 7562  14.645   9.278   3.350
46274W        W 7563  33.875   8.852   2.222
46275W        W 7564  24.542   6.771  14.278
46276W        W 7565  12.733  29.147  11.026
46277W        W 7566  24.614  20.169  13.511
46278W        W 7567  17.687  41.023  14.383
46279W        W 7568  20.610  33.528  14.350
46280W        W 7569  43.879  40.835   2.418
46281W        W 7570  18.626  39.808   1.280
46282W        W 7571   0.808  33.034  11.054
46283W        W 7572  41.488  39.817  11.059
46284W        W 7573  30.589  15.683  14.310
46285W        W 7574  43.474   7.865   1.738
46286W        W 7575  40.322   6.835   1.796
46287W        W 7576   8.311  17.134   0.246
46288W        W 7577  14.789  41.475  14.280
46289W        W 7578   3.412  17.308  10.455
46290W        W 7579  17.604   8.861   3.384
46291W        W 7580   8.674  30.507  13.349
46292W        W 7581  13.724  39.453  10.953
46293W        W 7582  22.624  44.869  10.526
46294W        W 7583  26.652  26.133  12.481
46295W        W 7584  37.893  24.715   4.139
46296W        W 7585  25.081  25.011  12.081
46297W        W 7586  44.951  27.472   4.220
46298W        W 7587  35.986  41.866   4.194
46299W        W 7588   6.341  19.678   0.963
46300W        W 7589  33.057  24.525  13.893
46301W        W 7590  23.198  31.570   1.440
46302W        W 7591   3.443  27.094   2.686
46303W        W 7592  28.941   7.338   3.647
46304W        W 7593   2.426  37.875   0.909
46305W        W 7594  22.663  36.990   1.232
46306W        W 7595  30.963  16.756   0.402
46307W        W 7596  12.261   2.232   3.288
46308W        W 7597  24.635   5.910  13.374
46309W        W 7598  36.996  21.561   1.447
46310W        W 7599  42.863  28.551  12.906
46311W        W 7600  11.836  40.370   0.440
46312W        W 7601   1.915  21.018   0.418
46313W        W 7602  28.018  27.455  10.440
46314W        W 7603  12.146  10.761  11.606
46315W        W 7604  29.525  38.340  12.945
46316W        W 7605  43.481  20.682  13.490
46317W        W 7606   0.744   3.302   0.446
46318W        W 7607  23.598  29.584  11.996
46319W        W 7608  10.346  42.012  12.547
46320W        W 7609  29.659  39.532   4.286
46321W        W 7610  28.490  34.496   3.314
46322W        W 7611  31.562  34.920   1.877
46323W        W 7612  33.013  16.634  14.895
46324W        W 7613  20.671  43.878   0.856
46325W        W 7614  31.980  10.293  11.001
46326W        W 7615  25.575  21.727  12.858
46327W        W 7616  36.883  28.636   3.208
46328W        W 7617   2.919  21.608  12.858
46329W        W 7618  13.265  25.570   1.221
46330W        W 7619  16.578  38.510  12.339
46331W        W 7620  32.495  38.029  11.600
46332W        W 7621   8.900  30.500   2.236
46333W        W 7622  28.442  15.638  12.926
46334W        W 7623  37.521  27.654  10.432
46335W        W 7624  29.529  31.637   3.203
46336W        W 7625  21.205  39.006  12.861
46337W        W 7626  34.595  41.511  13.927
46338W        W 7627  12.161   0.861   0.249
46339W        W 7628  12.320  31.150   3.219
46340W        W 7629  36.041  25.560  14.999
46341W        W 7630  15.697   7.884   1.720
46342W        W 7631  34.091  37.043  12.475
46343W        W 7632   7.325  28.069   5.101
46344W        W 7633  35.426  34.979  14.916
46345W        W 7634  38.066   4.853   4.827
46346W        W 7635  12.359  35.977   4.663
46347W        W 7636  36.426   7.317   2.893
46348W        W 7637  26.593  10.361  11.570
46349W        W 7638  41.432  12.357  12.351
46350W        W 7639  13.684  42.016  13.948
46351W        W 7640  13.314  40.480   2.239
46352W        W 7641   2.735   7.408   0.345
46353W        W 7642  16.640  26.643  11.882
46354W        W 7643  40.433  32.478  11.573
46355W        W 7644   1.921  37.957   1.442
46356W        W 7645  22.601  30.051  11.900
46357W        W 7646   0.818  32.010   3.146
46358W        W 7647   6.724  24.160   2.787
46359W        W 7648  12.348  19.172   1.759
46360W        W 7649  40.037  10.295  12.565
46361W        W 7650  18.666  44.806   1.820
46362W        W 7651  44.315  41.856   0.270
46363W        W 7652  18.086  13.639  11.886
46364W        W 7653  31.962  24.712  10.467
46365W        W 7654  12.152   2.431   1.380
46366W        W 7655  25.969  20.762   4.603
46367W        W 7656  13.741  37.059   2.282
46368W        W 7657  29.425  12.323  13.386
46369W        W 7658  31.001   8.244   3.689
46370W        W 7659   9.685  33.968  10.075
46371W        W 7660  37.382  32.420  14.795
46372W        W 7661  35.431   4.438  14.014
46373W        W 7662   6.398  32.065   0.265
46374W        W 7663  41.039  31.514   0.880
46375W        W 7664  39.964  25.477  13.938
46376W        W 7665  23.023  12.797   4.173
46377W        W 7666  37.026  16.692  13.418
46378W        W 7667  14.700   6.211   2.864
46379W        W 7668  22.564  20.052   1.213
46380W        W 7669   8.854   7.287   3.844
46381W        W 7670   9.828   4.431   2.197
46382W        W 7671  25.631  10.753  13.912
46383W        W 7672  38.070  14.199   2.871
46384W        W 7673  30.605   3.288   0.733
46385W        W 7674  31.560  33.579   2.722
46386W        W 7675  23.227  39.339   3.304
46387W        W 7676  40.438  28.516   0.730
46388W        W 7677  43.373  23.170  14.994
46389W        W 7678  31.985  21.194   3.362
46390W        W 7679  31.991  17.182   5.231
46391W        W 7680  30.130  36.541  13.018
46392W        W 7681  31.636   7.257   2.317
46393W        W 7682  21.613  17.760   3.317
46394W        W 7683  38.405   4.890   1.323
46395W        W 7684  28.135  37.835   2.902
46396W        W 7685   8.714  17.670   0.462
46397W        W 7686  22.236  12.280  14.959
46398W        W 7687   2.313   0.297  14.005
46399W        W 7688  22.047  22.679  10.088
46400W        W 7689  37.409  32.110   2.881
46401W        W 7690  21.252   6.710   4.750
46402W        W 7691  43.350  30.530  13.532
46403W        W 7692  22.742  29.581   4.713
46404W        W 7693  12.680   2.225   3.237
46405W        W 7694   9.378  37.914   0.437
46406W        W 7695  13.826  39.845  14.367
46407W        W 7696  39.397  33.533  13.316
46408W        W 7697  43.364  11.803  11.471
46409W        W 7698  42.501  43.837   3.340
46410W        W 7699   0.783  12.697   0.967
46411W        W 7700  42.357   3.340  10.615
46412W        W 7701  32.931  12.177  10.430
46413W        W 7702   4.761  23.156   1.299
46414W        W 7703  34.574  25.701   3.752
46415W        W 7704  36.020   9.290  11.972
46416W        W 7705  28.651   9.219   1.837
46417W        W 7706  10.261  19.547  14.765
46418W        W 7707  35.960   6.308   2.265
46419W        W 7708  27.077  35.930   2.321
46420W        W 7709  43.858  44.989  12.542
46421W        W 7710  29.441   8.785   0.949
46422W        W 7711  34.965  30.993   0.815
46423W        W 7712  37.066  33.448  12.873
46424W        W 7713  35.099   9.694   0.757
46425W        W 7714  22.248  20.571  10.069
46426W        W 7715  34.582  33.454   4.351
46427W        W 7716  38.013  10.140   4.597
46428W        W 7717   8.178  25.653   0.769
46429W        W 7718  17.673  20.143   3.647
46430W        W 7719  14.333  23.688  12.827
46431W        W 7720  32.896  36.020   1.370
46432W        W 7721  18.784  18.292   1.770
46433W        W 7722  14.813  34.078   0.953
46434W        W 7723  13.705  41.000  14.841
46435W        W 7724  27.680   7.706   3.769
46436W        W 7725   7.687  20.648   3.840
46437W        W 7726  14.674  28.548   3.835
46438W        W 7727   0.296  21.021   1.824
46439W        W 7728  16.205  10.824  13.023
46440W        W 7729  21.681   9.385   4.751
46441W        W 7730  33.574  18.235   3.666
46442W        W 7731  44.312  31.561  14.789
46443W        W 7732  15.227  23.160  13.016
46444W        W 7733  25.524   9.247  13.792
46445W        W 7734  28.992  13.241   1.722
46446W        W 7735  15.786   0.786  11.952
46447W        W 7736  14.126   0.361  11.896
46448W        W 7737  16.281  23.618   3.788
46449W        W 7738   6.862  27.529  11.118
46450W        W 7739  26.651   5.346   0.731
46451W        W 7740  17.115  23.119  13.020
46452W        W 7741  35.573  11.633   4.181
46453W        W 7742  11.782  39.450  12.057
46454W        W 7743  19.565   1.312   4.193
46455W        W 7744  28.479  32.536   0.929
46456W        W 7745  12.132  42.824   0.254
46457W        W 7746  23.033  21.147   1.915
46458W        W 7747  28.543  40.923   4.180
46459W        W 7748  18.241  32.620   0.959
46460W        W 7749  36.065   6.219  12.392
46461W        W 7750   5.249  11.631  10.058
46462W        W 7751  33.419  14.657  11.932
46463W        W 7752  14.220  28.525  13.815
46464W        W 7753  27.595  27.596  10.478
46465W        W 7754  31.495  39.815   0.757
46466W        W 7755  25.981  16.593   0.259
46467W        W 7756   1.398  30.957  14.939
46468W        W 7757   1.477   6.371  14.872
46469W        W 7758  18.619   1.399  12.015
46470W        W 7759   2.228  26.040   0.868
46471W        W 7760   5.321  24.103  11.566
46472W        W 7761   6.189  17.103  10.574
46473W        W 7762  43.367  34.989  13.801
46474W        W 7763  37.870   4.411   2.692
46475W        W 7764  28.508   8.182  12.860
46476W        W 7765  25.619   3.357  13.898
46477W        W 7766  30.443  41.998  14.512
46478W        W 7767  23.698  15.707   1.807
46479W        W 7768  14.710  15.197  11.994
46480W        W 7769  35.009  23.494  13.862
46481W        W 7770   8.272   9.792   3.815
46482W        W 7771  17.595  21.104  13.375
46483W        W 7772  38.435  25.169   3.848
46484W        W 7773   7.720   4.300   1.298
46485W        W 7774  27.648  10.379   0.449
46486W        W 7775  32.056  17.670   1.766
46487W        W 7776  17.139   5.933   3.280
46488W        W 7777  24.633   0.446   2.271
46489W        W 7778   0.307  33.986   3.226
46490W        W 7779  41.423  28.948  11.868
46491W        W 7780  15.224   8.247  11.513
46492W        W 7781  29.988  24.177  14.947
46493W        W 7782  11.866  41.328   1.337
46494W        W 7783  31.465  22.155   1.309
46495W        W 7784   3.430  16.097  12.397
46496W        W 7785  34.014  19.759   4.640
46497W        W 7786  25.518   1.941  14.941
46498W        W 7787  17.104  13.687  11.419
46499W        W 7788  25.664  31.569   2.319
46500W        W 7789  30.147  39.348  11.967
46501W        W 7790  41.804  17.750   4.214
46502W        W 7791  30.458  18.134  14.914
46503W        W 7792  15.277  41.813  13.793
46504W        W 7793  24.667  37.873   0.252
46505W        W 7794  39.059  22.505  13.844
46506W        W 7795  11.319  16.679  11.012
46507W        W 7796   3.828  35.874   2.201
46508W        W 7797   1.797  28.088   2.765
46509W        W 7798  32.965  37.839  13.387
46510W        W 7799  37.843   2.946  11.513
46511W        W 7800  28.097   0.436  10.645
46512W        W 7801   0.830  12.772   4.814
46513W        W 7802  38.447  12.299  10.408
46514W        W 7803  41.345  13.607   4.787
46515W        W 7804  33.381  41.936   3.700
46516W        W 7805  20.114  24.989  14.894
46517W        W 7806  21.637  25.002   5.260
46518W        W 7807   8.365   5.335   4.298
46519W        W 7808  23.590  24.577  13.992
46520W        W 7809  18.224   2.905   0.940
46521W        W 7810   2.268  41.822  13.844
46522W        W 7811  26.033  29.172   0.742
46523W        W 7812  10.284  26.477  12.445
46524W        W 7813  31.996  29.141  11.562
46525W        W 7814  19.241   7.702   1.897
46526W        W 7815  14.235  14.184  12.428
46527W        W 7816  17.775   2.747  11.902
46528W        W 7817   6.323  28.078  14.354
46529W        W 7818  31.627  43.896   2.851
46530W        W 7819   5.428  30.511   3.758
46531W        W 7820   8.223  14.826   0.872
46532W        W 7821  20.214  42.841  11.966
46533W        W 7822   3.341   9.810   4.318
46534W        W 7823  18.174   1.365  13.324
46535W        W 7824  42.505  44.995   1.292
46536W        W 7825  18.711  43.982   1.306
46537W        W 7826   9.154   7.337   2.333
46538W        W 7827  35.072   4.893  10.573
46539W        W 7828  31.006  37.849   3.206
46540W        W 7829   9.805  39.901  10.513
46541W        W 7830   1.919  17.604  13.341
46542W        W 7831  42.308  15.228   3.162
46543W        W 7832   9.223  26.007   1.257
46544W        W 7833   1.293   5.277   1.450
46545W        W 7834  33.924  37.501  14.292
46546W        W 7835  31.636  38.482  12.020
46547W        W 7836  38.461  40.034  11.042
46548W        W 7837  23.994   8.305   5.588
46549W        W 7838  22.160  33.564   0.841
46550W        W 7839  10.645  35.534  10.945
46551W        W 7840  25.062  13.840  11.421
46552W        W 7841  37.033   3.411  12.420
46553W        W 7842  30.033   9.203  13.996
46554W        W 7843  40.480  12.649   3.710
46555W        W 7844  40.991  10.235   3.738
46556W        W 7845  42.925  27.962   2.293
46557W        W 7846  38.874  32.560  12.413
46558W        W 7847  43.911  11.655  10.443
46559W        W 7848  31.540   9.253   0.852
46560W        W 7849  30.037  44.996  10.568
46561W        W 7850   7.792   5.834   2.844
46562W        W 7851  23.702   0.798   1.321
46563W        W 7852  27.517  38.823   1.271
46564W        W 7853  28.591   5.355   2.849
46565W        W 7854  25.079  31.492   4.748
46566W        W 7855  14.166  29.145   3.213
46567W        W 7856  11.782  22.607   0.912
46568W        W 7857  28.008  27.145  11.902
46569W        W 7858  16.735   4.810   2.214
46570W        W 7859   3.258  33.076  12.366
46571W        W 7860  44.456  31.483   1.392
46572W        W 7861  32.051  25.214   3.349
46573W        W 7862   6.369  19.107  13.026
46574W        W 7863   8.239   3.769   4.197
46575W        W 7864  39.050   2.328   4.809
46576W        W 7865   6.878   6.776  10.549
46577W        W 7866  20.031  18.280  14.358
46578W        W 7867  15.654  31.974   3.186
46579W        W 7868  41.036  39.843  11.421
46580W        W 7869   6.305  34.475   0.406
46581W        W 7870  11.720  12.705  11.033
46582W        W 7871  44.479  15.682  10.136
46583W        W 7872  22.508   6.285   2.240
46584W        W 7873  38.069  28.149  14.021
46585W        W 7874   4.723  23.577   1.897
46586W        W 7875  14.642  24.183   4.267
46587W        W 7876  11.228  25.520  13.032
46588W        W 7877  22.551   2.750  12.386
46589W        W 7878  31.120  36.549   4.706
46590W        W 7879   8.835  23.616  13.543
46591W        W 7880  16.175   2.927   0.856
46592W        W 7881  23.990  39.838   0.311
46593W        W 7882  13.761  26.198   3.724
46594W        W 7883  11.670  40.541  14.411
46595W        W 7884  11.710  19.055  10.503
46596W        W 7885  22.685  21.212  14.383
46597W        W 7886  30.077  37.836   2.759
46598W        W 7887   1.323  28.032  10.539
46599W        W 7888   9.232  25.057   1.286
46600W        W 7889  44.432  40.329   4.311
46601W        W 7890  33.545  32.964  14.422
46602W        W 7891  27.150   7.173   3.258
46603W        W 7892  29.998  20.643   3.204
46604W        W 7893  26.164  40.841   4.616
46605W        W 7894  28.544   0.879  13.482
46606W        W 7895  26.660   9.157   0.742
46607W        W 7896  16.085  33.116  11.594
46608W        W 7897  27.054  42.320  10.490
46609W        W 7898   1.278  13.304   2.227
46610W        W 7899  38.959  42.880   0.403
46611W        W 7900  14.755  25.986  14.817
46612W        W 7901   4.862  10.214   4.640
46613W        W 7902  19.158   9.378   0.844
46614W        W 7903  27.670  27.040  12.072
46615W        W 7904   9.870  29.534  12.430
46616W        W 7905   0.853  18.293  13.441
46617W        W 7906  40.373  31.001  11.432
46618W        W 7907  43.993  41.810  14.304
46619W        W 7908  43.808  15.199  10.552
46620W        W 7909   0.492  13.758   4.825
46621W        W 7910   6.269   9.887  12.454
46622W        W 7911  44.893   9.856  13.916
46623W        W 7912  14.182  27.495   0.790
46624W        W 7913  44.853   1.880  10.908
46625W        W 7914  27.005  21.738   3.308
46626W        W 7915  34.372  35.463  11.079
46627W        W 7916  23.727  14.208  10.550
46628W        W 7917  21.229   3.793  11.399
46629W        W 7918  35.534  20.685  11.429
46630W        W 7919  27.469  11.737   0.422
46631W        W 7920   2.446  25.115   0.280
46632W        W 7921   0.410  20.236   4.775
46633W        W 7922  23.526   2.385   3.323
46634W        W 7923  33.380  33.913   1.306
46635W        W 7924   8.314  30.034  14.971
46636W        W 7925   1.472  36.965   2.346
46637W        W 7926   2.471   8.723   5.273
46638W        W 7927  29.501  12.718  12.422
46639W        W 7928  14.627  33.061   3.240
46640W        W 7929  17.629   3.874  14.824
46641W        W 7930   3.423  11.186  14.948
46642W        W 7931  37.072  32.573   4.152
46643W        W 7932  16.743  43.875  12.463
46644W        W 7933  28.529  23.184  14.453
46645W        W 7934  40.399  40.040   5.206
46646W        W 7935  21.099   8.655   0.924
46647W        W 7936   7.682  34.940  11.916
46648W        W 7937  33.088  17.141   2.285
46649W        W 7938   9.196   7.809  13.515
46650W        W 7939   0.390  30.646  10.483
46651W        W 7940   1.427   2.848   3.173
46652W        W 7941  44.833  21.119  10.504
46653W        W 7942  44.319  28.991   9.999
46654W        W 7943  27.071  38.984  14.489
46655W        W 7944  22.166   8.671  13.056
46656W        W 7945  29.113   2.964   4.605
46657W        W 7946  36.358   1.859   1.697
46658W        W 7947  16.567  28.151  14.984
46659W        W 7948  19.690  13.837  10.475
46660W        W 7949  25.619  34.418  13.885
46661W        W 7950  36.364  19.285   0.774
46662W        W 7951  16.292  16.580   2.883
46663W        W 7952  33.603  35.912  13.376
46664W        W 7953  33.080   6.385   1.755
46665W        W 7954  37.492   7.255   4.239
46666W        W 7955   3.833  12.205   0.737
46667W        W 7956  29.566  10.674  12.477
46668W        W 7957  24.581  12.153  10.892
46669W        W 7958  30.492  25.560   0.395
46670W        W 7959  15.128   8.899  11.889
46671W        W 7960  25.555   7.750  10.141
46672W        W 7961  35.585  11.823  13.953
46673W        W 7962  40.910  35.590   2.359
46674W        W 7963  32.406   6.807   3.370
46675W        W 7964  27.445   9.706  11.383
46676W        W 7965  40.482  35.446   0.924
46677W        W 7966  26.115  13.308   1.783
46678W        W 7967  34.394   7.901  12.022
46679W        W 7968  41.864  29.127   4.806
46680W        W 7969   2.270  29.615   0.370
46681W        W 7970  44.329   3.828   0.915
46682W        W 7971   4.874  24.176  13.345
46683W        W 7972  12.695  11.653  14.370
46684W        W 7973  15.226   1.332   2.365
46685W        W 7974  18.601  14.272   0.783
46686W        W 7975  26.129  28.526  11.900
46687W        W 7976  27.654   3.807   3.336
46688W        W 7977  22.736  43.375   0.744
46689W        W 7978  30.990   0.983  14.301
46690W        W 7979  25.215   6.332   1.423
46691W        W 7980  19.573  44.287  13.865
46692W        W 7981  44.970  39.531   1.714
46693W        W 7982  36.058   0.898  10.631
46694W        W 7983  32.929  41.922   2.185
46695W        W 7984  42.963  12.842   4.258
46696W        W 7985  26.980   1.382   4.149
46697W        W 7986  18.271   5.694   2.729
46698W        W 7987  39.525   5.198  12.089
46699W        W 7988  35.874  23.060  13.332
46700W        W 7989  27.544  43.504   4.229
46701W        W 7990  42.006  26.633   0.408
46702W        W 7991  32.012   2.919   1.702
46703W        W 7992  31.070  16.301   0.823
46704W        W 7993   5.785  27.479  10.563
46705W        W 7994  10.710  32.406  13.050
46706W        W 7995  18.606   5.703  13.873
46707W        W 7996  25.071  36.512   5.232
46708W        W 7997  22.513  36.841  14.377
46709W        W 7998  42.330   2.906  11.978
46710W        W 7999   3.232   5.373  14.777
46711W        W 8000  11.134  18.758  10.563
46712W        W 8001   8.263  34.521  12.071
46713W        W 8002  18.754  40.902  14.339
46714W        W 8003  11.322  21.203   4.684
46715W        W 8004  22.234  35.562  14.811
46716W        W 8005  34.394  20.711   4.731
46717W        W 8006  32.001  19.086  13.332
46718W        W 8007  24.574  10.843   2.382
46719W        W 8008  10.354  20.139   3.766
46720W        W 8009  32.941  13.294  14.007
46721W        W 8010  12.260  20.111   2.753
46722W        W 8011  40.865  38.992  11.085
46723W        W 8012  29.058  12.250   2.875
46724W        W 8013  38.416  36.456  12.051
46725W        W 8014  10.732  30.441   4.741
46726W        W 8015  15.673  25.699   9.528
46727W        W 8016  39.463  29.999  11.975
46728W        W 8017  31.524  24.213  10.554
46729W        W 8018   6.370  23.190   4.340
46730W        W 8019  38.354  35.392   4.176
46731W        W 8020   9.319  12.781   0.898
46732W        W 8021  33.123  29.457   2.899
46733W        W 8022  12.147   4.381   1.705
46734W        W 8023   0.982  41.855   4.302
46735W        W 8024  33.381  17.715  10.524
46736W        W 8025  40.979  17.160   2.408
46737W        W 8026  10.190  41.979   1.340
46738W        W 8027  22.124  28.635   4.279
46739W        W 8028   6.221  26.982  12.067
46740W        W 8029  44.932   3.795   3.652
46741W        W 8030  20.111  26.517  13.382
46742W        W 8031  35.892  42.340  12.389
46743W        W 8032  39.859  44.925  12.481
46744W        W 8033   0.786  23.070  14.314
46745W        W 8034  38.515  19.158  10.641
46746W        W 8035  18.576  29.067  10.998
46747W        W 8036  38.906  42.965  12.415
46748W        W 8037  18.642  19.670  11.979
46749W        W 8038  32.918  42.996   0.348
46750W        W 8039  24.031  26.056  12.993
46751W        W 8040  18.561  13.640  14.764
46752W        W 8041  34.499   6.365   2.208
46753W        W 8042  17.699  14.336   4.180
46754W        W 8043  19.149   3.233   3.367
46755W        W 8044   5.286   0.421   2.202
46756W        W 8045  33.547  27.626   4.186
46757W        W 8046  20.037   6.812   0.377
46758W        W 8047  37.504   1.405  13.315
46759W        W 8048   5.277  40.977   2.187
46760W        W 8049  38.911   4.302   1.300
46761W        W 8050   9.706   4.333  12.934
46762W        W 8051  14.800  19.636  13.364
46763W        W 8052   3.872  32.543   4.218
46764W        W 8053   4.928  35.096  11.564
46765W        W 8054  34.602   9.200  11.441
46766W        W 8055  36.054   2.938  11.072
46767W        W 8056   8.828   8.291   2.782
46768W        W 8057  28.011  15.808  12.969
46769W        W 8058   2.767  29.565   0.877
46770W        W 8059  27.452   6.676   4.346
46771W        W 8060   2.784  44.352   4.605
46772W        W 8061  22.124   0.394  14.373
46773W        W 8062  23.000  41.402   3.728
46774W        W 8063  18.640   4.279  10.498
46775W        W 8064  28.935  10.771  14.026
46776W        W 8065  27.690  28.443  13.978
46777W        W 8066  39.922   3.868   1.372
46778W        W 8067  33.897  43.974  10.971
46779W        W 8068  12.702  35.534   4.747
46780W        W 8069  44.282  13.735  14.836
46781W        W 8070   0.988  32.482  12.034
46782W        W 8071  19.047  38.035  11.898
46783W        W 8072  30.582  44.924   2.749
46784W        W 8073   7.210  17.597  12.519
46785W        W 8074  36.470  26.146   0.266
46786W        W 8075  26.630  38.516  11.872
46787W        W 8076  19.156  10.741   3.744
46788W        W 8077  10.793   8.321   1.210
46789W        W 8078   7.792  15.157  14.402
46790W        W 8079   1.848  17.247   3.223
46791W        W 8080  15.770  23.577  12.425
46792W        W 8081  36.385  22.185   4.125
46793W        W 8082  38.371  44.412  11.873
46794W        W 8083  26.153  16.216  12.364
46795W        W 8084  40.825  24.161  14.918
46796W        W 8085  23.114  12.664   1.333
46797W        W 8086  38.368  30.913   3.211
46798W        W 8087   4.434   7.302   3.247
46799W        W 8088   7.392  21.100  13.462
46800W        W 8089   2.395  42.400   2.827
46801W        W 8090  34.973  16.145  11.529
46802W        W 8091  21.559  35.534   1.379
46803W        W 8092  30.624  15.598  10.030
46804W        W 8093  13.604  25.143   3.211
46805W        W 8094   0.928  28.586   4.338
46806W        W 8095  26.185   1.849  10.949
46807W        W 8096  34.957  26.971   2.666
46808W        W 8097  18.593  15.645   5.167
46809W        W 8098  16.766  19.075   1.328
46810W        W 8099  44.922   8.898  14.303
46811W        W 8100  42.930  38.436  13.476
46812W        W 8101   8.300  34.436  14.450
46813W        W 8102  22.092  36.972   2.280
46814W        W 8103  26.097  24.646   5.790
46815W        W 8104  14.117  15.695   1.342
46816W        W 8105  27.488  18.291  11.050
46817W        W 8106  28.617  18.770  12.884
46818W        W 8107  14.207   4.916   2.868
46819W        W 8108   9.202  12.191  11.467
46820W        W 8109  31.104  29.159  13.042
46821W        W 8110  10.856  29.594  12.842
46822W        W 8111  20.571  36.873  10.564
46823W        W 8112  30.581   4.720  10.973
46824W        W 8113  29.168  22.724  14.962
46825W        W 8114  41.813  44.419   2.795
46826W        W 8115  31.133  21.050  12.434
46827W        W 8116   2.308  21.032   0.952
46828W        W 8117  17.767  23.634  12.535
46829W        W 8118  11.359  39.516   3.770
46830W        W 8119  27.189  22.746   1.404
46831W        W 8120   9.733  19.646   3.376
46832W        W 8121  38.338  12.360  14.358
46833W        W 8122   1.891  16.737  11.864
46834W        W 8123  35.382  20.729   0.967
46835W        W 8124  33.601  31.027  14.795
46836W        W 8125  43.892  26.565  10.470
46837W        W 8126  41.535  27.124  10.556
46838W        W 8127  36.029   1.317  11.496
46839W        W 8128   7.405  42.389   0.795
46840W        W 8129   7.852  41.462  11.117
46841W        W 8130   9.702  35.453  12.892
46842W        W 8131   2.239  17.611   0.252
46843W        W 8132   3.740  37.842  11.374
46844W        W 8133  14.767  33.472  14.347
46845W        W 8134  35.362  20.652   2.403
46846W        W 8135  28.599  20.263  13.054
46847W        W 8136  25.632  17.292   0.797
46848W        W 8137  38.043  20.650  10.415
46849W        W 8138   6.358   0.466  10.596
46850W        W 8139  17.605  29.494   4.800
46851W        W 8140  19.104  25.540  13.429
46852W        W 8141  36.901   2.830  11.408
46853W        W 8142  38.951   3.331  13.849
46854W        W 8143   0.792  34.951   3.266
46855W        W 8144   5.348   8.732  14.491
46856W        W 8145  14.636   8.704   4.818
46857W        W 8146   8.815  33.058   3.200
46858W        W 8147  24.616  30.068  12.471
46859W        W 8148  24.155  31.405   4.299
46860W        W 8149  19.554  16.692   1.820
46861W        W 8150  15.612  20.635  11.411
46862W        W 8151   2.788   4.374   3.681
46863W        W 8152  25.208   2.847  11.463
46864W        W 8153  16.125  12.753   3.692
46865W        W 8154  17.761  25.500   0.372
46866W        W 8155  14.718   8.352  11.935
46867W        W 8156  37.027  27.465   0.925
46868W        W 8157  27.059   0.416  12.348
46869W        W 8158  21.746  30.595   1.323
46870W        W 8159   1.304  23.987   4.241
46871W        W 8160  18.591  21.036  12.960
46872W        W 8161  29.028  34.951  11.989
46873W        W 8162   5.249  25.129   2.218
46874W        W 8163   8.734  22.007  11.938
46875W        W 8164   4.286  35.493  10.406
46876W        W 8165  24.698  42.885  14.828
46877W        W 8166  37.410   7.361   0.898
46878W        W 8167   1.328  34.995   1.782
46879W        W 8168  14.741  32.089   0.296
46880W        W 8169  31.965   8.227  13.521
46881W        W 8170   8.842  35.394   1.728
46882W        W 8171  33.043   5.279   4.181
46883W        W 8172  21.640  15.300  10.972
46884W        W 8173  17.569  10.814   4.643
46885W        W 8174  24.567  28.651  12.403
46886W        W 8175  25.143  30.545   4.784
46887W        W 8176  22.610  44.870   0.243
46888W        W 8177  32.013  27.049  13.429
46889W        W 8178   2.252   3.402   0.345
46890W        W 8179  28.097  31.948   0.917
46891W        W 8180  35.930  29.604   2.777
46892W        W 8181  28.148  13.135   0.860
46893W        W 8182  22.213  18.668   1.933
46894W        W 8183  37.842  33.874  13.361
46895W        W 8184  25.218  21.188  12.437
46896W        W 8185   2.817  10.807  11.481
46897W        W 8186   7.815  36.897  11.612
46898W        W 8187  25.154  40.030   2.375
46899W        W 8188   1.365  40.894  13.893
46900W        W 8189  22.164  44.421  10.976
46901W        W 8190  18.129  27.643   1.888
46902W        W 8191   2.883  42.304   3.299
46903W        W 8192  43.844   5.282   4.124
46904W        W 8193  20.257  38.029  11.020
46905W        W 8194   0.980  18.229   0.939
46906W        W 8195   8.767   7.684  11.001
46907W        W 8196  30.089  42.933  13.307
46908W        W 8197  14.811  33.452  12.504
46909W        W 8198   7.870  44.867   3.838
46910W        W 8199  33.580  15.671   1.422
46911W        W 8200  25.017  37.928   2.702
46912W        W 8201  31.622  16.185   1.820
46913W        W 8202  37.377  44.809  12.434
46914W        W 8203   6.771  18.074   1.816
46915W        W 8204  21.628  14.807  11.385
46916W        W 8205  32.566  26.679  11.459
46917W        W 8206  22.685  39.886   4.769
46918W        W 8207  34.538  26.112   1.775
46919W        W 8208  16.297  15.232   3.272
46920W        W 8209  11.786   0.384  12.457
46921W        W 8210  42.373  37.838   1.224
46922W        W 8211  38.528  21.161   3.754
46923W        W 8212   1.839  17.692   0.858
46924W        W 8213  39.901   3.718  12.871
46925W        W 8214  28.671  14.781   1.836
46926W        W 8215  29.556  26.558  14.765
46927W        W 8216   4.418  41.036  14.402
46928W        W 8217   6.821  12.276  11.942
46929W        W 8218  24.510   2.333   0.311
46930W        W 8219  27.572  17.729  12.040
46931W        W 8220   6.845   6.349   4.597
46932W        W 8221  12.825  39.955   4.653
46933W        W 8222  17.706  10.843  14.002
46934W        W 8223  44.804  43.462  10.430
46935W        W 8224  36.500  32.938  14.986
46936W        W 8225  19.553  29.015   4.651
46937W        W 8226  29.555  16.573  11.012
46938W        W 8227  43.830  14.636  11.900
46939W        W 8228   4.760   5.688  13.848
46940W        W 8229  33.530  13.845  12.347
46941W        W 8230  25.032  15.684   4.603
46942W        W 8231  15.801  16.617   3.765
46943W        W 8232   1.950   2.344   3.244
46944W        W 8233   0.749  34.067  14.513
46945W        W 8234  21.091  37.900  14.401
46946W        W 8235  44.338  27.051  12.942
46947W        W 8236   1.968  38.065  14.313
46948W        W 8237  27.078  21.648   1.886
46949W        W 8238  29.014  40.946   0.312
46950W        W 8239  40.968  24.178  10.969
46951W        W 8240  29.663  24.095  11.429
46952W        W 8241   6.317  26.609  10.145
46953W        W 8242   1.271  42.008   1.739
46954W        W 8243  40.902  19.260   2.734
46955W        W 8244  26.053   5.264   0.743
46956W        W 8245   3.419  31.135   3.865
46957W        W 8246  17.075   0.810  14.332
46958W        W 8247   5.301  34.056  14.328
46959W        W 8248   7.736  35.491  11.935
46960W        W 8249  32.408   8.767  12.824
46961W        W 8250  15.253  26.954   3.685
46962W        W 8251   2.722  16.222  10.469
46963W        W 8252   6.764  41.854   3.262
46964W        W 8253  10.671  17.645   3.243
46965W        W 8254  35.904  14.775   2.751
46966W        W 8255  22.655  21.174  10.511
46967W        W 8256  18.067   2.793   0.472
46968W        W 8257  19.087  12.621  13.053
46969W        W 8258  44.864   2.435  14.904
46970W        W 8259  24.119  31.454  14.317
46971W        W 8260  28.580  39.558   0.896
46972W        W 8261  26.194  39.321   3.183
46973W        W 8262  40.835  41.924   1.355
46974W        W 8263  22.587  21.240  11.864
46975W        W 8264  33.043   3.762  13.981
46976W        W 8265  37.085  18.250  12.864
46977W        W 8266  19.213  35.020   2.883
46978W        W 8267   4.310  40.859  14.005
46979W        W 8268  30.425   9.218   1.909
46980W        W 8269   3.322  13.166   3.753
46981W        W 8270  42.427   1.736  11.011
46982W        W 8271   5.223  29.176   4.270
46983W        W 8272   9.382  43.898   0.855
46984W        W 8273  12.828   1.333  10.947
46985W        W 8274  23.169  30.021   2.297
46986W        W 8275  26.657  22.604  12.966
46987W        W 8276  21.060  36.848   1.730
46988W        W 8277  43.414   9.755  14.831
46989W        W 8278  36.523   0.922   2.386
46990W        W 8279  39.328  41.028   2.717
46991W        W 8280  22.571  40.973  14.281
46992W        W 8281  18.697  37.084  11.089
46993W        W 8282  42.517  32.604  14.006
46994W        W 8283  35.967  29.140  13.015
46995W        W 8284  18.718  26.058  12.428
46996W        W 8285  43.287   2.259  12.998
46997W        W 8286  28.129   2.395  12.380
46998W        W 8287  18.065  19.202  11.860
46999W        W 8288   1.470   5.717   2.246
47000W        W 8289  26.561  26.556  10.084
47001W        W 8290  31.944   0.281   2.336
47002W        W 8291   2.441  34.553   0.313
47003W        W 8292  34.524   9.778  12.906
47004W        W 8293  15.710  19.634  13.452
47005W        W 8294  24.151  27.006  14.485
47006W        W 8295  10.663   7.677  13.004
47007W        W 8296  42.432   5.887   3.805
47008W        W 8297   3.890  30.620   2.409
47009W        W 8298  38.872  42.954   2.237
47010W        W 8299   3.432  26.026  12.831
47011W        W 8300  30.045  41.833   4.834
47012W        W 8301   9.740   3.403   0.442
47013W        W 8302  30.955  21.230   0.456
47014W        W 8303  22.101  11.786  11.474
47015W        W 8304   7.821  38.067   1.316
47016W        W 8305  21.679  44.969  13.465
47017W        W 8306  27.671  31.595  14.409
47018W        W 8307  34.489  16.732   1.241
47019W        W 8308   4.450   2.429   2.817
47020W        W 8309  43.894  19.731   0.381
47021W        W 8310  19.553   3.295  14.782
47022W        W 8311  22.196  25.064   0.281
47023W        W 8312  41.788  30.429   2.324
47024W        W 8313  21.214  42.380   1.272
47025W        W 8314  14.665  37.347  14.462
47026W        W 8315  40.039  40.435  14.008
47027W        W 8316  33.907  21.070  13.844
47028W        W 8317   2.927   8.339  12.452
47029W        W 8318  28.435  25.091  12.358
47030W        W 8319  22.047  42.814   3.652
47031W        W 8320  17.180   1.268   3.256
47032W        W 8321   4.880  11.827  13.500
47033W        W 8322  28.109  21.559   5.112
47034W        W 8323   8.254  43.888  14.290
47035W        W 8324   3.883  27.107  11.966
47036W        W 8325  14.744  35.917  14.977
47037W        W 8326  30.025   7.845  14.977
47038W        W 8327  38.902   3.937  12.929
47039W        W 8328  26.637  10.635  14.355
47040W        W 8329  41.351  10.214  10.019
47041W        W 8330  36.889  21.239   0.818
47042W        W 8331   7.699  17.623   1.447
47043W        W 8332  39.502  18.138  14.293
47044W        W 8333  39.488  13.657   3.275
47045W        W 8334  31.450  24.015  13.928
47046W        W 8335  24.538  31.572   0.796
47047W        W 8336  12.747  13.309  14.769
47048W        W 8337  17.252  24.698  10.457
47049W        W 8338  27.183  21.242   1.441
47050W        W 8339  15.653   0.889   4.140
47051W        W 8340  33.066  14.604  10.569
47052W        W 8341  27.560  32.134   0.878
47053W        W 8342  27.996  36.931   2.282
47054W        W 8343  12.303  30.613  11.449
47055W        W 8344  42.910  31.049  13.362
47056W        W 8345  13.259  37.856  13.420
47057W        W 8346  35.552   0.870   1.418
47058W        W 8347  28.644   5.373  13.817
47059W        W 8348  38.327  24.571   2.669
47060W        W 8349  26.614   9.723  12.909
47061W        W 8350   0.464   2.839   3.780
47062W        W 8351  34.959  43.975  14.294
47063W        W 8352  10.682  42.358  11.539
47064W        W 8353  11.328  44.349   9.645
47065W        W 8354  20.623  17.158  14.818
47066W        W 8355   7.255  38.361  11.961
47067W        W 8356  18.291   9.223  12.403
47068W        W 8357  26.167  15.811   0.466
47069W        W 8358   2.324  21.167  11.590
47070W        W 8359   8.844   1.745   0.357
47071W        W 8360   7.182  28.504  14.391
47072W        W 8361  44.909   6.701  14.887
47073W        W 8362  14.295  44.757   0.285
47074W        W 8363  17.263   7.669   0.421
47075W        W 8364  27.144  28.581  12.947
47076W        W 8365  36.404  42.999   3.844
47077W        W 8366  19.261  18.656  12.419
47078W        W 8367  16.303  23.229   2.185
47079W        W 8368   8.398  14.819  11.860
47080W        W 8369   3.282  13.617   2.326
47081W        W 8370  28.623  34.096   1.376
47082W        W 8371  20.034  31.606  12.031
47083W        W 8372  12.247  32.629   2.719
47084W        W 8373  35.936  44.852  10.559
47085W        W 8374  27.605  13.258  14.776
47086W        W 8375  35.589  32.506  10.477
47087W        W 8376  27.611  25.047  12.842
47088W        W 8377  26.979  10.795   2.204
47089W        W 8378  26.646  31.640   5.226
47090W        W 8379  28.560  30.919   3.764
47091W        W 8380  16.612  22.710   0.254
47092W        W 8381   0.291  16.615  10.953
47093W        W 8382  39.918  30.639  12.052
47094W        W 8383  40.328  35.410  14.870
47095W        W 8384  36.521  31.936   0.825
47096W        W 8385  16.801   1.258   2.670
47097W        W 8386  17.298  33.540  13.053
47098W        W 8387   1.389  39.905   1.241
47099W        W 8388  26.043  42.885   0.276
47100W        W 8389  16.785  13.177   0.922
47101W        W 8390   5.934  17.604  12.926
47102W        W 8391  17.277  27.059   4.295
47103W        W 8392  40.437  12.709   1.809
47104W        W 8393  10.169  14.793  13.498
47105W        W 8394  39.375   0.292   2.686
47106W        W 8395  11.312  16.810  11.972
47107W        W 8396  41.403  11.762   3.345
47108W        W 8397  29.141  29.015   4.341
47109W        W 8398  16.641  29.145   4.252
47110W        W 8399  21.585   3.828  12.959
47111W        W 8400  11.854  25.473  10.468
47112W        W 8401  17.755  13.306   2.186
47113W        W 8402   9.309   4.426  13.494
47114W        W 8403  10.166  21.037   1.270
47115W        W 8404  43.892  17.162   4.317
47116W        W 8405  44.314   8.176   3.864
47117W        W 8406  30.466   8.814   2.395
47118W        W 8407  32.982  41.380  14.937
47119W        W 8408   2.758  16.144   4.204
47120W        W 8409  36.860  39.857  13.411
47121W        W 8410  28.991  16.586  14.897
47122W        W 8411  38.869   1.240   3.159
47123W        W 8412  25.514  11.639  14.950
47124W        W 8413  10.376  42.830   3.672
47125W        W 8414   0.935  22.200   2.373
47126W        W 8415  38.368  32.487  12.397
47127W        W 8416  35.105  40.384  13.496
47128W        W 8417  16.099  31.535   2.387
47129W        W 8418  21.738  24.989   4.125
47130W        W 8419  36.061   1.903  13.353
47131W        W 8420  22.709  30.019   1.727
47132W        W 8421  24.069  32.117  10.121
47133W        W 8422  29.059   9.331  11.886
47134W        W 8423  31.937  37.467  13.880
47135W        W 8424  41.299  42.030  14.846
47136W        W 8425  32.142   8.686   3.753
47137W        W 8426  35.486  36.941   0.471
47138W        W 8427  18.692  24.493  14.843
47139W        W 8428  26.660  30.477  11.861
47140W        W 8429  14.637  20.061  10.437
47141W        W 8430   6.826  32.547   0.313
47142W        W 8431  28.952  24.520   4.655
47143W        W 8432  36.501  33.531   4.690
47144W        W 8433  11.862  28.101  11.465
47145W        W 8434   7.677  21.666   4.303
47146W        W 8435  35.945  12.837   3.304
47147W        W 8436  34.997  14.218  13.063
47148W        W 8437  24.613  22.601   0.933
47149W        W 8438  27.633  16.143  11.568
47150W        W 8439  14.804  29.119  10.067
47151W        W 8440   4.725  27.169   1.426
47152W        W 8441  16.703  26.680   5.290
47153W        W 8442  26.119   9.712   2.729
47154W        W 8443  33.550  44.765   4.774
47155W        W 8444  43.447  40.510   0.965
47156W        W 8445  38.948  29.500  12.079
47157W        W 8446   7.212  28.476  13.859
47158W        W 8447  18.102  38.980  11.375
47159W        W 8448  23.553   9.189   0.319
47160W        W 8449  11.667  38.820   9.958
47161W        W 8450   9.788  32.569  13.400
47162W        W 8451  40.903  22.232  12.961
47163W        W 8452  25.035  24.593  13.453
47164W        W 8453  25.202  13.238  11.920
47165W        W 8454  35.367  29.476  10.427
47166W        W 8455  17.177  35.404  12.892
47167W        W 8456  21.729  42.906  13.401
47168W        W 8457  20.043   4.451   0.741
47169W        W 8458  27.675   2.342  12.835
47170W        W 8459  19.557  36.525  14.872
47171W        W 8460  23.550  18.193  12.977
47172W        W 8461  42.867  10.766  11.427
47173W        W 8462  34.009  14.804  11.081
47174W        W 8463  25.497  17.747   1.847
47175W        W 8464  32.124  44.503   5.116
47176W        W 8465  31.560  19.147  13.942
47177W        W 8466  21.679  40.804  10.626
47178W        W 8467  15.636  11.756  11.382
47179W        W 8468  44.324   8.297  13.416
47180W        W 8469  23.125  43.006   1.249
47181W        W 8470  38.007  25.517   3.357
47182W        W 8471  23.044   2.852  10.526
47183W        W 8472  24.651  16.759  14.838
47184W        W 8473  26.969  16.268   1.825
47185W        W 8474  31.469  21.077  13.494
47186W        W 8475  23.679  20.720   2.200
47187W        W 8476  21.146  16.717   0.927
47188W        W 8477  42.803  10.646   9.997
47189W        W 8478  19.768   7.218  12.864
47190W        W 8479   0.957  10.692   0.326
47191W        W 8480  29.049  26.052  12.972
47192W        W 8481  28.496  14.796   3.722
47193W        W 8482  33.395  10.817  11.499
47194W        W 8483   3.214   9.746  10.467
47195W        W 8484  29.938  36.502   1.720
47196W        W 8485  25.584  38.517  11.028
47197W        W 8486   9.317  43.352  10.556
47198W        W 8487  33.465  38.908   4.244
47199W        W 8488   5.743  42.510  14.404
47200W        W 8489  38.939  14.724   3.708
47201W        W 8490  29.992   6.696  11.114
47202W        W 8491  12.641  12.252   2.863
47203W        W 8492  36.435  17.627  14.398
47204W        W 8493  40.851  29.667  11.571
47205W        W 8494  38.867  10.138   0.346
47206W        W 8495  16.630  23.085  11.610
47207W        W 8496  43.782  10.368  12.020
47208W        W 8497  14.239  23.510  12.354
47209W        W 8498  10.280  19.557  14.432
47210W        W 8499  23.057  24.601   4.316
47211W        W 8500  20.700  32.553  13.410
47212W        W 8501  17.571  37.350   4.303
47213W        W 8502  29.980   1.269   1.901
47214W        W 8503  31.911   0.454  10.545
47215W        W 8504  22.514   7.219  13.886
47216W        W 8505  36.956  39.968  12.349
47217W        W 8506  23.202  42.294  13.818
47218W        W 8507  21.256   4.733  13.019
47219W        W 8508  30.134  23.491   2.843
47220W        W 8509  43.361  35.063   2.688
47221W        W 8510  42.881  44.807   3.720
47222W        W 8511  11.785  35.995   0.744
47223W        W 8512  41.913  13.733  12.908
47224W        W 8513  20.208  33.915   1.397
47225W        W 8514  14.710  26.690  14.845
47226W        W 8515   6.805  34.021  10.458
47227W        W 8516  12.783  23.174  11.565
47228W        W 8517   2.882  38.967  10.960
47229W        W 8518  39.811  17.160  14.823
47230W        W 8519   2.754  30.469   3.813
47231W        W 8520  29.427  25.181  12.906
47232W        W 8521  37.387  11.624  11.539
47233W        W 8522  40.820  17.163  13.387
47234W        W 8523  26.461  42.031   0.769
47235W        W 8524  26.628  39.538   3.734
47236W        W 8525  44.844  23.676   2.742
47237W        W 8526  10.782  12.714  10.973
47238W        W 8527  10.690  37.009   9.494
47239W        W 8528  27.575  44.953   3.251
47240W        W 8529  26.673   6.243   5.173
47241W        W 8530  42.288  14.322   0.436
47242W        W 8531   2.914  32.609  11.541
47243W        W 8532   6.887  12.151  13.514
47244W        W 8533  20.100  29.172  13.955
47245W        W 8534   8.785   4.834  11.059
47246W        W 8535  38.407  34.095  13.513
47247W        W 8536  15.751  34.953   0.418
47248W        W 8537  43.811   2.335  13.064
47249W        W 8538  37.404  23.022   3.736
47250W        W 8539  43.411   2.909   2.831
47251W        W 8540  29.037  40.045  11.559
47252W        W 8541   7.336   3.919  12.366
47253W        W 8542   1.906  44.502  12.576
47254W        W 8543  23.124  17.700   1.832
47255W        W 8544  35.935  37.862   1.229
47256W        W 8545  36.442  13.274  14.017
47257W        W 8546  41.886  37.974   0.727
47258W        W 8547  37.357  25.098  13.975
47259W        W 8548  43.863  40.417  11.052
47260W        W 8549  30.567  44.870   0.850
47261W        W 8550  23.992  40.316   2.228
47262W        W 8551   2.232  22.646  13.930
47263W        W 8552  12.751  13.631   2.345
47264W        W 8553   8.871  28.512   1.317
47265W        W 8554  12.145  19.713  14.820
47266W        W 8555  15.582  18.187   1.397
47267W        W 8556   2.925  24.198   4.318
47268W        W 8557   6.684  42.007  12.406
47269W        W 8558  27.112  15.314   4.255
47270W        W 8559  15.179   6.191   4.143
47271W        W 8560  34.953   2.469  12.356
47272W        W 8561  32.405   3.267  14.768
47273W        W 8562  34.434  32.537   2.805
47274W        W 8563  37.064  38.407  11.989
47275W        W 8564  43.797  35.084   2.402
47276W        W 8565  39.011  20.724   0.745
47277W        W 8566  30.952  28.934   1.344
47278W        W 8567  19.598   2.392  12.833
47279W        W 8568   2.847  21.134  12.039
47280W        W 8569  39.921  27.538  14.875
47281W        W 8570  27.637  31.938   3.288
47282W        W 8571   3.795  37.995   0.270
47283W        W 8572  26.198  14.152   4.639
47284W        W 8573  32.044  42.032  13.015
47285W        W 8574  36.500  39.833  13.895
47286W        W 8575   4.715  40.437   3.828
47287W        W 8576  44.931  22.742  11.429
47288W        W 8577   4.360   2.428  14.873
47289W        W 8578  35.539  32.537  11.966
47290W        W 8579  34.587  22.590   1.222
47291W        W 8580  24.567  35.870   1.355
47292W        W 8581  32.459  17.601  10.550
47293W        W 8582  15.140  12.211   3.325
47294W        W 8583  44.867   4.303   0.889
47295W        W 8584  28.454  40.831   2.384
47296W        W 8585  23.706  14.723  13.479
47297W        W 8586  13.206   7.341   2.392
47298W        W 8587   4.739  19.134   2.794
47299W        W 8588  10.848  19.588  14.411
47300W        W 8589  41.390  32.464   2.890
47301W        W 8590   8.175  18.687   4.652
47302W        W 8591  19.071  21.721   3.357
47303W        W 8592  38.421  29.150   4.225
47304W        W 8593  44.928   3.757  14.357
47305W        W 8594  35.046  30.108  10.447
47306W        W 8595  32.134  16.567  12.572
47307W        W 8596  17.736   0.753  11.952
47308W        W 8597  29.481  11.706   4.760
47309W        W 8598  28.657  38.033   4.819
47310W        W 8599  29.465  18.057   1.787
47311W        W 8600  11.642   7.703  14.416
47312W        W 8601  25.087  42.782   4.156
47313W        W 8602  16.600  33.392  10.889
47314W        W 8603  24.062  38.074  13.041
47315W        W 8604  40.444  28.535  11.602
47316W        W 8605  18.627  29.945  10.467
47317W        W 8606  19.665  17.266   4.189
47318W        W 8607  10.348  19.710   1.302
47319W        W 8608   5.385  39.912   2.662
47320W        W 8609  30.095  30.478   4.749
47321W        W 8610  35.458  27.991  10.968
47322W        W 8611  36.042   3.746   1.817
47323W        W 8612  37.941   9.236   0.288
47324W        W 8613  44.797   8.727   2.729
47325W        W 8614  39.968   6.867  11.491
47326W        W 8615   2.250   4.858   1.417
47327W        W 8616  15.684   1.397   4.819
47328W        W 8617  14.608  26.067  13.003
47329W        W 8618  28.478  13.260   0.907
47330W        W 8619  16.752  11.255   4.801
47331W        W 8620  20.269  25.189   1.226
47332W        W 8621   1.756  37.461   3.339
47333W        W 8622   4.324   2.298  12.371
47334W        W 8623   2.375  17.128   5.086
47335W        W 8624   1.481   2.916  14.958
47336W        W 8625  37.028  14.708   0.734
47337W        W 8626   2.414   2.786   1.261
47338W        W 8627  37.041   7.759   4.183
47339W        W 8628  16.806  43.287  14.353
47340W        W 8629   0.893  43.367   3.630
47341W        W 8630  44.407   1.791   4.713
47342W        W 8631  18.242  40.403  10.915
47343W        W 8632  40.912  22.686   0.432
47344W        W 8633  18.272   5.850   3.673
47345W        W 8634  29.161   8.759   1.299
47346W        W 8635  24.626  15.125  14.481
47347W        W 8636  34.029  31.436   0.448
47348W        W 8637  12.247  26.158   1.899
47349W        W 8638   3.769  13.161  14.482
47350W        W 8639  11.201  11.840  12.437
47351W        W 8640  29.033  40.457   1.285
47352W        W 8641  37.356   7.873   2.341
47353W        W 8642   4.258  17.082   0.401
47354W        W 8643  21.024  35.914   4.352
47355W        W 8644  17.218  20.759  12.089
47356W        W 8645  37.977  40.921   0.816
47357W        W 8646   9.266  35.427  13.824
47358W        W 8647  38.475   2.771   3.242
47359W        W 8648   5.798  16.292  14.297
47360W        W 8649  12.305  25.199  11.419
47361W        W 8650  42.507  43.840  13.031
47362W        W 8651  28.441   8.382  14.865
47363W        W 8652  41.845   2.870  14.403
47364W        W 8653  10.306  43.807  13.868
47365W        W 8654  18.762  33.948   1.252
47366W        W 8655  15.631  21.741   3.361
47367W        W 8656  33.418  13.626  14.889
47368W        W 8657  27.500  33.458   4.820
47369W        W 8658  14.811  22.648   3.318
47370W        W 8659  37.541   8.238   1.327
47371W        W 8660  11.247   9.879  14.427
47372W        W 8661  31.627  27.517  14.357
47373W        W 8662  10.727   4.375   1.427
47374W        W 8663  36.443  29.052   3.303
47375W        W 8664  20.120  42.794  12.422
47376W        W 8665  31.978  42.030   0.475
47377W        W 8666  18.761  36.379   4.740
47378W        W 8667  42.934  42.966  14.281
47379W        W 8668   4.406  38.990  11.974
47380W        W 8669  16.315  19.201  14.009
47381W        W 8670  10.648  38.416  14.019
47382W        W 8671  42.014  29.969  10.891
47383W        W 8672   2.955  25.473   0.388
47384W        W 8673   7.693  40.999  14.873
47385W        W 8674  42.502  44.451  14.888
47386W        W 8675  30.005   3.267  12.987
47387W        W 8676  19.062  39.042  14.999
47388W        W 8677  32.130  16.644   3.800
47389W        W 8678  24.979   1.423   3.374
47390W        W 8679   7.704  18.182  11.050
47391W        W 8680  25.683  29.520   1.935
47392W        W 8681  16.732  41.314   3.367
47393W        W 8682   3.808   3.900   2.863
47394W        W 8683  17.632  16.203  14.440
47395W        W 8684  29.615   2.821  11.122
47396W        W 8685  10.200   7.788  10.529
47397W        W 8686  22.249  12.833   1.855
47398W        W 8687  24.043  16.190  12.961
47399W        W 8688   4.905  32.515   4.644
47400W        W 8689   1.422  19.285  12.837
47401W        W 8690   9.851  36.879   3.238
47402W        W 8691   2.465  40.333  11.547
47403W        W 8692   0.420   5.285  12.492
47404W        W 8693  26.174  41.499   0.437
47405W        W 8694  31.474   6.743   4.673
47406W        W 8695  16.756  12.116  10.558
47407W        W 8696   1.776   8.807  10.972
47408W        W 8697  25.184   5.698   3.329
47409W        W 8698  22.699  31.623  14.843
47410W        W 8699  39.052  10.342  10.586
47411W        W 8700  26.191  29.619   0.355
47412W        W 8701  35.109  42.366  10.457
47413W        W 8702  40.055  32.449   3.768
47414W        W 8703   4.269   9.889   0.475
47415W        W 8704  10.141  25.480  13.062
47416W        W 8705  22.701  39.910  10.558
47417W        W 8706  38.831  43.340  14.422
47418W        W 8707  10.837   5.687  12.359
47419W        W 8708   5.312  16.228   0.806
47420W        W 8709  31.947  13.255   1.240
47421W        W 8710  12.778   4.898   4.759
47422W        W 8711  22.613  11.131   4.658
47423W        W 8712  10.789   7.882   1.912
47424W        W 8713  10.744  39.902   0.868
47425W        W 8714  36.943   3.868   1.711
47426W        W 8715  14.774  11.352   4.255
47427W        W 8716  10.820  19.166   2.689
47428W        W 8717  21.263  27.571  12.009
47429W        W 8718  43.011  38.866  13.498
47430W        W 8719  29.927  10.816   4.249
47431W        W 8720  35.494  35.884  13.474
47432W        W 8721   9.258   6.909   2.418
47433W        W 8722  36.499  22.579   1.234
47434W        W 8723   8.733  38.398  14.977
47435W        W 8724  36.551  36.965   3.243
47436W        W 8725  43.360  26.048  10.436
47437W        W 8726   0.483  39.411  13.994
47438W        W 8727  12.167  40.044  11.473
47439W        W 8728  19.268  33.967  10.552
47440W        W 8729   7.773  33.051   5.581
47441W        W 8730  40.007  25.196   3.645
47442W        W 8731  26.638  14.215   4.652
47443W        W 8732   5.277  37.918  14.326
47444W        W 8733  13.110  15.580  11.945
47445W        W 8734  27.956  18.714   2.286
47446W        W 8735  30.105  17.768  13.370
47447W        W 8736   2.361   1.356  11.108
47448W        W 8737  30.487   7.708   3.863
47449W        W 8738  33.049  24.566   0.467
47450W        W 8739   0.976  35.938   3.814
47451W        W 8740  15.127   1.824  13.968
47452W        W 8741  17.626  21.108  12.446
47453W        W 8742  10.384  30.486   3.629
47454W        W 8743  12.761   6.795   1.739
47455W        W 8744  18.264  35.019   4.820
47456W        W 8745  24.129  30.113   4.744
47457W        W 8746  24.720  25.686   9.537
47458W        W 8747  25.652  36.497   2.733
47459W        W 8748   3.797  31.421   3.863
47460W        W 8749  26.011  32.475   4.203
47461W        W 8750  33.444  21.732  13.930
47462W        W 8751  39.373  24.665   4.786
47463W        W 8752   8.262   4.313   1.391
47464W        W 8753   0.335  22.627  11.396
47465W        W 8754  38.012   8.783   1.325
47466W        W 8755  43.307  16.571  10.467
47467W        W 8756  43.908   5.746  10.889
47468W        W 8757  21.661  11.764   4.680
47469W        W 8758  36.980  44.343  13.346
47470W        W 8759  10.867  14.798   0.765
47471W        W 8760  19.082  11.144   3.739
47472W        W 8761  18.190  24.163   0.427
47473W        W 8762  38.895  34.038   3.154
47474W        W 8763  27.663  16.297   3.848
47475W        W 8764  24.975  44.326   1.332
47476W        W 8765   8.346  36.043  13.482
47477W        W 8766  28.083  17.558  13.429
47478W        W 8767  16.766   2.458   1.263
47479W        W 8768   5.332  39.877   1.709
47480W        W 8769   8.802   0.309   0.381
47481W        W 8770  15.261  21.057   0.845
47482W        W 8771  40.974   9.679  14.448
47483W        W 8772  19.254   2.738   0.933
47484W        W 8773  17.187  10.347   1.318
47485W        W 8774   8.802  12.655   3.386
47486W        W 8775   5.271  42.310  11.536
47487W        W 8776   9.252  30.438   3.660
47488W        W 8777  36.536  34.448  12.998
47489W        W 8778   8.738  21.543   2.825
47490W        W 8779  16.667  38.325   3.153
47491W        W 8780  26.668   0.753   5.161
47492W        W 8781   9.369  21.230  12.850
47493W        W 8782   9.235  13.241  12.076
47494W        W 8783   2.895   8.844   4.616
47495W        W 8784  15.612  30.600   2.662
47496W        W 8785   1.315   5.847  14.365
47497W        W 8786   8.177  33.586   1.832
47498W        W 8787  36.515  18.742  13.892
47499W        W 8788  35.437  25.502  12.568
47500W        W 8789   4.221   5.364  11.930
47501W        W 8790  31.153  29.963   1.708
47502W        W 8791   8.386  22.068  14.877
47503W        W 8792  27.967   7.782   0.480
47504W        W 8793  37.385  15.691  10.575
47505W        W 8794  24.644  23.707  13.039
47506W        W 8795  14.784  13.730   0.762
47507W        W 8796   3.716  11.136   3.363
47508W        W 8797  22.199  22.575   3.375
47509W        W 8798  25.669  25.654   2.263
47510W        W 8799   1.918  35.027   1.355
47511W        W 8800  31.074  34.961  14.279
47512W        W 8801  37.545  13.183   2.724
47513W        W 8802  37.082   1.386  13.859
47514W        W 8803  20.657   1.960   3.308
47515W        W 8804   4.776   8.705   1.822
47516W        W 8805  40.338  19.280  13.994
47517W        W 8806   3.849  13.182   0.950
47518W        W 8807  37.495  20.153  14.830
47519W        W 8808  11.727  34.544  13.041
47520W        W 8809  27.000   9.185   4.181
47521W        W 8810  21.041  30.151   2.370
47522W        W 8811  43.383  25.159  13.791
47523W        W 8812  20.711  26.621  11.862
47524W        W 8813  39.450  44.479  14.315
47525W        W 8814  37.565  16.723   1.785
47526W        W 8815   6.707  37.044  14.347
47527W        W 8816  27.495  13.836  13.449
47528W        W 8817  29.663  24.001  14.345
47529W        W 8818   1.431   9.773  10.928
47530W        W 8819   6.295   4.263  14.958
47531W        W 8820  10.202  41.380   3.148
47532W        W 8821  40.475   5.799  11.012
47533W        W 8822  10.762   2.322  13.815
47534W        W 8823   7.877  13.689  12.086
47535W        W 8824  22.013  35.056   2.345
47536W        W 8825  15.800  16.152   4.220
47537W        W 8826  32.115  43.810  10.025
47538W        W 8827  29.578   9.360   3.862
47539W        W 8828  40.546  34.026  12.925
47540W        W 8829  25.186  11.224   0.323
47541W        W 8830   6.344  40.503  14.504
47542W        W 8831   3.274  24.179  10.637
47543W        W 8832  16.129  11.748   1.856
47544W        W 8833  11.306  32.005   4.653
47545W        W 8834  39.399  28.103   2.308
47546W        W 8835  18.134  39.870  13.459
47547W        W 8836  43.780   3.886   4.248
47548W        W 8837  34.907  11.237   1.880
47549W        W 8838   1.773  16.175   1.411
47550W        W 8839  23.052  37.541  12.044
47551W        W 8840  10.262  24.532   1.708
47552W        W 8841  19.281  12.666   2.207
47553W        W 8842  12.805  23.683  13.029
47554W        W 8843  28.459  39.381   2.220
47555W        W 8844  14.828  24.540   0.787
47556W        W 8845  15.808  12.206  12.341
47557W        W 8846   0.265   8.679  10.987
47558W        W 8847  14.186   0.973  10.912
47559W        W 8848  18.671   4.247  13.314
47560W        W 8849  28.469   2.371   3.731
47561W        W 8850   0.478  38.035   3.779
47562W        W 8851  19.143  30.137  10.947
47563W        W 8852  34.083  28.132   4.119
47564W        W 8853  38.343  27.160   4.352
47565W        W 8854  38.966  33.107   2.178
47566W        W 8855  15.737  37.363   3.677
47567W        W 8856   1.792   2.816   3.273
47568W        W 8857  33.384  21.050  12.578
47569W        W 8858  24.631  33.437   2.753
47570W        W 8859   1.770  26.497  14.351
47571W        W 8860  42.465  42.347   1.258
47572W        W 8861   4.798   3.381   0.836
47573W        W 8862  16.679   8.812   2.812
47574W        W 8863   0.763  28.100   2.216
47575W        W 8864   4.350  26.566   0.914
47576W        W 8865  24.638  15.246   4.314
47577W        W 8866  36.965   2.731   1.805
47578W        W 8867  15.695   6.334   2.194
47579W        W 8868  33.063  20.153  10.413
47580W        W 8869  27.644  18.738  13.915
47581W        W 8870  15.309  24.670   0.930
47582W        W 8871  31.573  24.995   0.369
47583W        W 8872   5.223  23.999  13.038
47584W        W 8873  17.277  17.187  11.949
47585W        W 8874  13.284  22.045  14.462
47586W        W 8875  42.462  11.807  14.425
47587W        W 8876  27.686  19.679   4.326
47588W        W 8877  29.464  26.113  12.907
47589W        W 8878  20.749  44.314  13.366
47590W        W 8879  28.009  34.437   0.826
47591W        W 8880   3.844  40.400   0.784
47592W        W 8881   5.909   1.775  13.548
47593W        W 8882  35.055  42.819   1.901
47594W        W 8883   5.332  11.665   4.301
47595W        W 8884  35.892  16.152  14.860
47596W        W 8885   7.886  20.645   0.425
47597W        W 8886  42.298  37.022   4.763
47598W        W 8887  29.656  19.129  12.470
47599W        W 8888  11.150   5.305  12.091
47600W        W 8889  10.693  32.121  11.954
47601W        W 8890  25.671  22.106  12.837
47602W        W 8891  14.096   0.834  11.533
47603W        W 8892  33.483  17.585  12.464
47604W        W 8893  31.003  37.380  12.053
47605W        W 8894  28.935  19.668   1.386
47606W        W 8895   6.901  24.130   3.736
47607W        W 8896  37.384  24.539   4.799
47608W        W 8897  43.270  35.542  12.373
47609W        W 8898  34.044  35.396  11.600
47610W        W 8899  40.536  35.574  12.894
47611W        W 8900  42.848  28.477   0.271
47612W        W 8901  11.775   6.840  13.487
47613W        W 8902  25.576  24.104   5.258
47614W        W 8903  26.578  14.832   0.860
47615W        W 8904   7.408  17.754  11.007
47616W        W 8905  37.486  11.208   2.865
47617W        W 8906  27.984  30.617  12.093
47618W        W 8907  24.568  33.577   4.837
47619W        W 8908   6.209  26.483  11.569
47620W        W 8909  30.973   3.360   4.230
47621W        W 8910  36.416  21.080   3.326
47622W        W 8911  14.760  24.157   2.680
47623W        W 8912  24.600  32.977   3.800
47624W        W 8913  13.180  30.556   4.705
47625W        W 8914  19.632  30.938   2.396
47626W        W 8915  29.476  22.018   1.874
47627W        W 8916   8.798  36.918  12.546
47628W        W 8917   1.804   8.354   2.365
47629W        W 8918   0.316   6.726   1.270
47630W        W 8919  34.454   8.795   0.244
47631W        W 8920  41.339  18.208  11.602
47632W        W 8921   4.428  18.214  13.791
47633W        W 8922  30.920  18.174   0.872
47634W        W 8923   7.311  31.600  10.115
47635W        W 8924  32.002   7.275  12.389
47636W        W 8925  23.127  33.395   0.734
47637W        W 8926  22.662  25.170   4.200
47638W        W 8927  34.958   8.398   3.818
47639W        W 8928  19.193  35.989   0.294
47640W        W 8929  12.184  34.612   3.319
47641W        W 8930   6.881  25.681   0.432
47642W        W 8931  44.802   4.913   9.963
47643W        W 8932  20.643  20.108   2.275
47644W        W 8933  34.992  25.598  14.015
47645W        W 8934  33.393   5.400   1.408
47646W        W 8935   8.769  30.482  10.975
47647W        W 8936  39.963   3.901   3.848
47648W        W 8937  36.541  38.965   1.343
47649W        W 8938  29.580  36.074   0.807
47650W        W 8939  13.648  24.549   0.313
47651W        W 8940   3.320  37.400   0.833
47652W        W 8941   6.323   4.245   3.804
47653W        W 8942   5.806   5.695   1.712
47654W        W 8943  19.698  12.764  11.526
47655W        W 8944  32.061  39.418   1.421
47656W        W 8945  22.190   9.279  11.043
47657W        W 8946  29.630  42.919   4.284
47658W        W 8947  11.174   9.889  13.432
47659W        W 8948  19.672  40.042  11.971
47660W        W 8949  43.446  37.536   2.746
47661W        W 8950  25.520  28.045   0.294
47662W        W 8951   6.755  40.304  13.913
47663W        W 8952  28.149  23.653   2.414
47664W        W 8953   0.344  40.856  11.858
47665W        W 8954  19.612  24.997  14.373
47666W        W 8955   3.432  41.825  13.945
47667W        W 8956   6.696   9.776   2.872
47668W        W 8957  34.470  44.481   2.798
47669W        W 8958  26.648  41.378  12.561
47670W        W 8959  32.418   5.841  12.362
47671W        W 8960  17.720  41.402  13.955
47672W        W 8961   8.399  43.832  11.879
47673W        W 8962   3.843  32.911  13.863
47674W        W 8963  15.733  37.483  13.872
47675W        W 8964   1.406   6.188  12.971
47676W        W 8965  13.330  10.357   5.208
47677W        W 8966  36.914  34.877   4.686
47678W        W 8967   9.239  31.143   4.152
47679W        W 8968  43.999   1.968   4.149
47680W        W 8969   0.339  18.076  13.003
47681W        W 8970   3.398  33.944   2.214
47682W        W 8971   0.342  22.567  14.826
47683W        W 8972   6.730  13.277   2.237
47684W        W 8973  20.536  14.682  11.916
47685W        W 8974  20.527  10.384   1.882
47686W        W 8975  11.668  12.754  11.960
47687W        W 8976  32.103  11.201   2.688
47688W        W 8977  44.459   4.223   3.272
47689W        W 8978  44.944  41.969  13.427
47690W        W 8979   7.250  21.228  10.513
47691W        W 8980   9.858  35.549   1.846
47692W        W 8981  23.214  25.131  11.961
47693W        W 8982  36.095   3.869  11.000
47694W        W 8983   5.398  17.097   3.824
47695W        W 8984  17.304  15.785  11.864
47696W        W 8985   8.269  34.370   3.793
47697W        W 8986   5.366  20.257   2.774
47698W        W 8987  37.527   6.843  14.879
47699W        W 8988  40.048   4.210   2.752
47700W        W 8989   1.346  30.542   4.731
47701W        W 8990  13.801   1.294  11.409
47702W        W 8991   5.777  10.373   1.218
47703W        W 8992  12.663  22.079  11.500
47704W        W 8993  19.627  33.593   1.417
47705W        W 8994  43.357  34.111  10.468
47706W        W 8995   0.479   0.276  11.607
47707W        W 8996  19.729  32.610   4.308
47708W        W 8997  15.174  31.461   2.190
47709W        W 8998  36.048  19.778  13.862
47710W        W 8999   1.409  36.426   2.690
47711W        W 9000   4.310  31.439  12.848
47712W        W 9001   7.379  27.577   1.356
47713W        W 9002  41.495  19.663   1.932
47714W        W 9003   0.879   3.228  11.958
47715W        W 9004  20.046  36.884  10.446
47716W        W 9005   3.766  14.674   3.233
47717W        W 9006  40.333   7.885   3.201
47718W        W 9007  39.527  35.012  11.006
47719W        W 9008  11.671  15.644  10.529
47720W        W 9009   8.675  28.608   2.393
47721W        W 9010  31.914  26.018  14.500
47722W        W 9011   2.845  18.772  14.369
47723W        W 9012   7.353  14.805  12.419
47724W        W 9013  41.828  11.787  11.437
47725W        W 9014  15.610  31.925  13.040
47726W        W 9015  10.154  36.583   0.910
47727W        W 9016  18.234  42.516  12.555
47728W        W 9017  37.947  36.970   2.865
47729W        W 9018  27.133  17.297   3.371
47730W        W 9019  21.170  28.513  10.938
47731W        W 9020  25.655   6.740  14.298
47732W        W 9021  26.531  30.635   3.215
47733W        W 9022  30.090  33.941   0.280
47734W        W 9023   8.194  40.905  13.420
47735W        W 9024  25.071  28.016  10.979
47736W        W 9025   0.428  21.200  14.313
47737W        W 9026  44.927  32.977  14.491
47738W        W 9027  37.874  21.247  11.434
47739W        W 9028   8.189   9.662  11.578
47740W        W 9029  10.265  40.022   3.662
47741W        W 9030  43.377  22.662   9.940
47742W        W 9031  39.842  36.490   3.810
47743W        W 9032  23.526  33.006  10.927
47744W        W 9033  13.607  10.324  10.945
47745W        W 9034   0.840   7.197   4.252
47746W        W 9035   2.439  10.248  11.908
47747W        W 9036   4.729  27.676   3.288
47748W        W 9037  33.491  34.008  11.496
47749W        W 9038  19.681   6.725   0.312
47750W        W 9039  16.669  36.467   2.400
47751W        W 9040  35.036  42.334   2.398
47752W        W 9041   6.422   4.804   4.281
47753W        W 9042  24.004  31.993  10.543
47754W        W 9043   5.310   9.374  14.296
47755W        W 9044   6.213  33.945  11.075
47756W        W 9045  11.350  13.624  13.541
47757W        W 9046   6.849  41.039  10.552
47758W        W 9047  36.586  25.687  10.586
47759W        W 9048  12.333   2.353  14.339
47760W        W 9049  18.568  28.947   3.808
47761W        W 9050  12.766  42.504   4.632
47762W        W 9051  20.544  42.433   3.770
47763W        W 9052  38.445  11.747  14.487
47764W        W 9053  10.638  23.504  13.379
47765W        W 9054  40.496  36.093  10.490
47766W        W 9055  27.015  35.455  12.835
47767W        W 9056   0.307  37.081   0.774
47768W        W 9057   7.272  28.935   1.879
47769W        W 9058  21.535   6.842  11.088
47770W        W 9059  23.600  40.351  14.394
47771W        W 9060  28.612   3.729   4.613
47772W        W 9061   5.763  15.701  13.314
47773W        W 9062  31.898  38.386   4.118
47774W        W 9063  27.604  25.656   3.176
47775W        W 9064  25.562  21.078  11.375
47776W        W 9065  27.158  32.129  12.984
47777W        W 9066  43.813  30.918  11.579
47778W        W 9067  40.497  39.363   1.229
47779W        W 9068  33.000   9.828   0.906
47780W        W 9069  16.208  43.797   3.258
47781W        W 9070  37.363  41.456  10.901
47782W        W 9071   6.816  31.075  12.478
47783W        W 9072   4.291   6.371   1.867
47784W        W 9073  21.166  31.954  13.435
47785W        W 9074  44.809  17.616  10.957
47786W        W 9075  29.601  40.473  10.448
47787W        W 9076   1.916   6.782  10.503
47788W        W 9077  44.302   2.344   3.225
47789W        W 9078  27.981   4.834   4.328
47790W        W 9079  17.656  10.178  12.439
47791W        W 9080   4.398  31.450  13.944
47792W        W 9081  44.845   2.432   3.761
47793W        W 9082  27.979   5.866  14.342
47794W        W 9083  28.954  17.086  14.408
47795W        W 9084  13.251   1.740   3.242
47796W        W 9085   4.302  11.837  12.402
47797W        W 9086  17.144   2.435  11.429
47798W        W 9087  20.754   8.399  10.469
47799W        W 9088  10.273  24.208  13.969
47800W        W 9089  42.313  33.545   2.728
47801W        W 9090  16.172   4.800  14.426
47802W        W 9091  31.993   0.349   3.719
47803W        W 9092  39.350  20.098   2.309
47804W        W 9093  43.830  30.116   3.764
47805W        W 9094   0.463  42.352  13.040
47806W        W 9095  14.119  43.951  13.003
47807W        W 9096  13.166  22.680   1.251
47808W        W 9097  20.255  29.097  14.299
47809W        W 9098  24.143  26.611  14.902
47810W        W 9099  32.002  17.735  14.876
47811W        W 9100   4.318   3.445   1.901
47812W        W 9101  13.731   8.894   2.763
47813W        W 9102  43.363  23.157   2.363
47814W        W 9103   7.404  43.466  14.972
47815W        W 9104  43.795  10.371   0.451
47816W        W 9105  43.491  22.689   3.782
47817W        W 9106   2.877  12.695   0.467
47818W        W 9107   2.405  15.742  13.891
47819W        W 9108  29.026  24.572   3.866
47820W        W 9109  40.861  12.119  13.865
47821W        W 9110   9.853   1.960   2.360
47822W        W 9111  27.682  24.716  12.896
47823W        W 9112  41.969  26.155  14.770
47824W        W 9113  30.549  35.068  10.974
47825W        W 9114   0.967   7.315  10.542
47826W        W 9115   4.250  44.905   4.836
47827W        W 9116  42.509   0.932  12.542
47828W        W 9117  43.328  41.963   0.451
47829W        W 9118  17.707  12.665  13.017
47830W        W 9119  11.357  37.479   4.274
47831W        W 9120  32.529  44.925  14.993
47832W        W 9121   6.724  27.096   3.704
47833W        W 9122  19.579  38.546   1.295
47834W        W 9123  23.641  30.054  10.626
47835W        W 9124  27.513  13.841  10.633
47836W        W 9125  25.540  38.049  11.422
47837W        W 9126  26.512  18.230  12.507
47838W        W 9127   2.436  30.492   2.297
47839W        W 9128  12.212  33.393   4.291
47840W        W 9129   3.349  20.695   4.125
47841W        W 9130  41.952  35.984  12.464
47842W        W 9131  14.626  33.093  12.428
47843W        W 9132   8.318  43.474   0.728
47844W        W 9133  39.357   1.274  14.501
47845W        W 9134  42.984  29.083  14.324
47846W        W 9135  22.112  13.613  11.930
47847W        W 9136  41.930  12.616   3.868
47848W        W 9137  40.530   1.426   0.757
47849W        W 9138  15.687  11.198  14.391
47850W        W 9139  17.061  39.850   4.799
47851W        W 9140  40.824  10.649  14.442
47852W        W 9141  44.925  29.478   3.829
47853W        W 9142  19.745   8.828   2.823
47854W        W 9143  36.930  30.929  13.844
47855W        W 9144   5.857  17.711   1.763
47856W        W 9145  35.411  35.431  14.785
47857W        W 9146  11.829   2.317   1.731
47858W        W 9147  19.586  40.325   1.264
47859W        W 9148  40.852  40.520  12.507
47860W        W 9149  17.692  31.954  11.093
47861W        W 9150  44.806  26.501   9.990
47862W        W 9151  27.617   6.411  14.921
47863W        W 9152  14.126  12.820  11.034
47864W        W 9153  26.997  14.658  12.856
47865W        W 9154  23.622   7.886  12.845
47866W        W 9155  18.544  17.177   3.302
47867W        W 9156  20.525   6.900  12.566
47868W        W 9157   6.202  44.477  11.930
47869W        W 9158  20.753  43.307  14.888
47870W        W 9159  32.955  26.496   3.691
47871W        W 9160  39.531  36.052  13.529
47872W        W 9161  24.225  26.196  11.123
47873W        W 9162  21.539  11.628  12.000
47874W        W 9163  14.151  36.919   0.811
47875W        W 9164   2.899  22.629  13.475
47876W        W 9165   7.298  40.399   4.330
47877W        W 9166  44.871  42.011   3.287
47878W        W 9167  42.951  30.504  12.895
47879W        W 9168  41.510  33.985  10.584
47880W        W 9169  15.254  34.102  11.476
47881W        W 9170  33.513  43.862  11.899
47882W        W 9171  10.218  12.204   2.853
47883W        W 9172  21.514   8.898   1.847
47884W        W 9173  41.959  20.098   3.639
47885W        W 9174  33.992  14.693   2.378
47886W        W 9175  31.971   1.479   4.737
47887W        W 9176  43.970   6.386   3.151
47888W        W 9177  12.319  23.029  13.024
47889W        W 9178  11.163   7.367  10.902
47890W        W 9179  33.908   1.913  13.454
47891W        W 9180   8.299  29.054   1.281
47892W        W 9181  15.648  40.889   0.932
47893W        W 9182  41.355  17.077   1.381
47894W        W 9183  26.626  23.019  12.413
47895W        W 9184  36.964  31.037  12.554
47896W        W 9185   6.721  31.116   1.286
47897W        W 9186  31.495   6.239  13.532
47898W        W 9187  40.400  41.982  14.312
47899W        W 9188  26.985   8.278   1.422
47900W        W 9189  27.553  24.074  12.828
47901W        W 9190  26.039  14.716  12.091
47902W        W 9191  14.628  19.048   5.122
47903W        W 9192  30.637   6.404   3.697
47904W        W 9193  33.966  21.179   2.902
47905W        W 9194  15.206  30.119  11.506
47906W        W 9195  12.690  24.563  10.625
47907W        W 9196  43.451  12.328   2.694
47908W        W 9197  10.784  23.562   0.439
47909W        W 9198  11.777   9.792   0.422
47910W        W 9199  27.115  29.974  12.875
47911W        W 9200  40.889  37.017   0.482
47912W        W 9201  19.065  30.941  12.403
47913W        W 9202  15.789  18.135  13.433
47914W        W 9203  43.384  19.724  13.336
47915W        W 9204  10.246  30.620   2.800
47916W        W 9205  36.460  13.284   2.747
47917W        W 9206  38.372  20.155  10.899
47918W        W 9207  36.993   4.340  14.318
47919W        W 9208   3.750   9.363   4.824
47920W        W 9209  26.549  12.162  12.911
47921W        W 9210  23.635   5.843   2.821
47922W        W 9211  14.826  39.407   3.346
47923W        W 9212  16.275  35.506   2.195
47924W        W 9213  19.654  25.699   2.834
47925W        W 9214  31.520  19.759  11.511
47926W        W 9215   2.304  15.696   3.363
47927W        W 9216  12.833  10.188   0.355
47928W        W 9217  10.154  22.629   1.734
47929W        W 9218   2.812   1.272   4.300
47930W        W 9219   3.395  16.788   4.115
47931W        W 9220  12.317  15.323  13.825
47932W        W 9221  19.733   6.319   0.922
47933W        W 9222  22.518  24.003  14.811
47934W        W 9223  36.570   4.906  11.468
47935W        W 9224  35.911  25.706   3.183
47936W        W 9225  31.631  24.722  11.125
47937W        W 9226  39.319  14.668   4.276
47938W        W 9227  13.350   3.798  12.893
47939W        W 9228  18.158  21.690   4.321
47940W        W 9229  18.257  12.303   0.321
47941W        W 9230  36.866  29.549   3.709
47942W        W 9231  41.418  14.789  10.417
47943W        W 9232   8.857   5.434  14.455
47944W        W 9233   0.464   8.895   5.232
47945W        W 9234  24.710  23.026   1.749
47946W        W 9235  25.580  41.416   1.814
47947W        W 9236  30.497  40.027  14.451
47948W        W 9237  20.746  36.573   2.250
47949W        W 9238  24.488  39.319   3.778
47950W        W 9239   8.751  39.411   1.423
47951W        W 9240   1.400   3.346  11.114
47952W        W 9241  39.435  35.394   4.696
47953W        W 9242  38.435  22.635  11.521
47954W        W 9243  29.649  11.322   4.812
47955W        W 9244  33.880  23.990  13.896
47956W        W 9245   2.246  44.858   4.318
47957W        W 9246  29.484  15.744  11.462
47958W        W 9247  25.660   3.427  10.442
47959W        W 9248  41.953  36.911   4.606
47960W        W 9249  21.646  37.932  12.468
47961W        W 9250   6.816  13.750   3.263
47962W        W 9251  29.436  14.215  11.954
47963W        W 9252  35.096   3.455  13.831
47964W        W 9253  29.426  27.562   4.261
47965W        W 9254   7.241  32.910  11.945
47966W        W 9255   6.689   2.967  10.997
47967W        W 9256  18.745  15.260  11.108
47968W        W 9257  20.150  41.347  10.635
47969W        W 9258  43.961  32.134   9.969
47970W        W 9259  37.478  20.757   3.828
47971W        W 9260   2.905  25.966  10.442
47972W        W 9261   2.246  44.392   2.731
47973W        W 9262  27.580  28.597  14.765
47974W        W 9263   3.850  27.496   3.859
47975W        W 9264  38.000  37.075   0.346
47976W        W 9265  44.930  18.155  12.027
47977W        W 9266  12.839  27.578  14.929
47978W        W 9267  22.667  27.513  14.029
47979W        W 9268  11.191  31.538  14.456
47980W        W 9269  11.235   3.244   2.397
47981W        W 9270   9.262  18.750   3.228
47982W        W 9271   5.703   8.293   1.713
47983W        W 9272  10.372  36.976   0.739
47984W        W 9273  40.459  17.207   3.268
47985W        W 9274  32.565  30.465  12.999
47986W        W 9275  44.930  44.333  11.958
47987W        W 9276  25.558  23.683   4.803
47988W        W 9277   7.808  25.479  11.884
47989W        W 9278   1.275   5.235  14.926
47990W        W 9279  26.068   1.817   0.450
47991W        W 9280  26.551  10.684  12.988
47992W        W 9281  34.408   4.342   5.191
47993W        W 9282  40.470  18.570  10.446
47994W        W 9283  15.279  14.248  11.074
47995W        W 9284  20.181  11.280  10.485
47996W        W 9285  10.877  17.163  11.943
47997W        W 9286  20.726  28.148  12.390
47998W        W 9287  32.979  43.469   4.839
47999W        W 9288  16.611  16.673   1.931
48000W        W 9289   1.265   0.383   3.380
48001W        W 9290  24.137  26.533  11.507
48002W        W 9291  44.388  43.808  14.413
48003W        W 9292   9.702  23.070  13.320
48004W        W 9293  43.502  24.639   0.323
48005W        W 9294  40.355  16.793  11.372
48006W        W 9295  13.209  10.215   4.624
48007W        W 9296  38.351  43.476  11.058
48008W        W 9297  22.191   9.231   1.399
48009W        W 9298  18.603  35.086  10.582
48010W        W 9299  25.184   5.768  10.480
48011W        W 9300  41.958  37.349   1.836
48012W        W 9301  40.937  39.533   0.735
48013W        W 9302  25.708  11.148  11.035
48014W        W 9303   6.849  44.367   2.209
48015W        W 9304  21.192  28.090   2.826
48016W        W 9305  40.046  31.143   1.359
48017W        W 9306  26.562  39.957  11.885
48018W        W 9307   3.887   6.916  12.404
48019W        W 9308  15.660  11.312   3.811
48020W        W 9309  19.165  41.806   1.922
48021W        W 9310   2.847  17.628  10.483
48022W        W 9311  30.526  28.549  14.780
48023W        W 9312  19.049  17.175  14.903
48024W        W 9313  27.521  24.180   4.817
48025W        W 9314   0.866  37.523   9.946
48026W        W 9315  10.258  28.622   1.315
48027W        W 9316  13.618  22.019  12.954
48028W        W 9317  35.563  34.486  11.033
48029W        W 9318   2.326   8.389   0.399
48030W        W 9319   4.432  41.494  11.438
48031W        W 9320   9.862  21.709   2.338
48032W        W 9321  23.594  26.092  12.956
48033W        W 9322   1.339  22.019  13.024
48034W        W 9323  37.975  41.307  11.998
48035W        W 9324  11.369   0.370   0.462
48036W        W 9325  37.880  12.838  11.117
48037W        W 9326  30.511  16.745  14.301
48038W        W 9327  27.689  31.419   1.716
48039W        W 9328   7.400  13.678   0.276
48040W        W 9329  24.499   3.430   2.680
48041W        W 9330  43.868   9.712  10.615
48042W        W 9331  33.624   7.393  12.507
48043W        W 9332   0.413  28.110  14.859
48044W        W 9333  37.850  32.439   2.878
48045W        W 9334   8.374  13.259  13.485
48046W        W 9335  35.059  25.083  11.428
48047W        W 9336  38.447  25.663   3.213
48048W        W 9337   4.430  44.304  12.408
48049W        W 9338   8.303   2.786  13.869
48050W        W 9339  11.333  33.124   3.283
48051W        W 9340  29.068  11.141   2.678
48052W        W 9341  30.426  40.318   3.337
48053W        W 9342  14.592  12.185  13.318
48054W        W 9343  15.622   3.257  13.057
48055W        W 9344  44.913  41.000   1.367
48056W        W 9345  39.945  24.684  11.503
48057W        W 9346  25.990  16.133   0.957
48058W        W 9347  43.489  26.661  11.094
48059W        W 9348   8.339  41.363   3.293
48060W        W 9349  15.177  35.989   3.189
48061W        W 9350  32.422   9.729  11.591
48062W        W 9351   8.179  33.053   3.344
48063W        W 9352   9.367  33.930  13.336
48064W        W 9353  39.834  12.202   3.779
48065W        W 9354   4.263   4.222  14.383
48066W        W 9355  29.541  28.667   4.619
48067W        W 9356  24.587  44.496   1.228
48068W        W 9357  12.698  29.955   2.276
48069W        W 9358   4.859  17.676  12.958
48070W        W 9359   8.885  40.494   2.348
48071W        W 9360   8.900  20.127  14.992
48072W        W 9361  26.040  42.296   0.763
48073W        W 9362   9.662   9.810   3.657
48074W        W 9363  31.585   8.831   2.787
48075W        W 9364   4.207   3.951   1.331
48076W        W 9365  24.652  28.095   4.119
48077W        W 9366  37.454  33.540  13.843
48078W        W 9367  32.427  41.951   0.853
48079W        W 9368  15.775   0.876   4.722
48080W        W 9369  36.952  12.262   2.227
48081W        W 9370  15.620  40.412   5.135
48082W        W 9371   2.261  21.656   1.368
48083W        W 9372  25.532  24.561   3.329
48084W        W 9373  43.508  23.539   0.870
48085W        W 9374  27.552  31.059   0.768
48086W        W 9375  24.513  13.235   4.759
48087W        W 9376   3.851  40.965   4.185
48088W        W 9377  23.193  19.114   2.419
48089W        W 9378   3.346   0.824   3.711
48090W        W 9379  39.982  27.664   4.284
48091W        W 9380  34.034  13.721  13.063
48092W        W 9381  37.581  39.893  12.000
48093W        W 9382   4.773  22.129   9.923
48094W        W 9383  24.171  11.308   4.616
48095W        W 9384  19.720  20.083  10.640
48096W        W 9385  42.840  27.594   0.917
48097W        W 9386  24.479  38.459  13.810
48098W        W 9387  36.396   8.691   4.802
48099W        W 9388  40.536  15.816   1.260
48100W        W 9389  23.627  17.076   3.861
48101W        W 9390   5.271  26.030  11.598
48102W        W 9391  18.053  40.408   2.235
48103W        W 9392  40.007  14.710  13.795
48104W        W 9393  39.331  15.098  11.900
48105W        W 9394  21.543  42.907   0.967
48106W        W 9395  12.307  14.702   2.809
48107W        W 9396  18.656  35.359  12.857
48108W        W 9397  40.882  29.175   3.255
48109W        W 9398  38.875  14.284   0.295
48110W        W 9399   6.334  44.935  12.504
48111W        W 9400  38.510   4.335   0.830
48112W        W 9401   7.888  22.251   4.259
48113W        W 9402  27.976  17.610   3.222
48114W        W 9403  40.820  36.956  12.392
48115W        W 9404  12.651  11.297   1.714
48116W        W 9405  27.674  43.285  13.466
48117W        W 9406  11.367  16.272   0.375
48118W        W 9407  30.633  11.215   2.407
48119W        W 9408   2.879  24.136  14.325
48120W        W 9409  40.467  38.907   0.444
48121W        W 9410  42.329   6.705   5.656
48122W        W 9411  42.413   9.827   3.710
48123W        W 9412  33.113  22.599  14.301
48124W        W 9413  41.865  15.818  12.386
48125W        W 9414   5.389  44.910  12.974
48126W        W 9415  29.077  41.426   1.314
48127W        W 9416  40.931  22.134   0.879
48128W        W 9417  35.916  23.115   4.686
48129W        W 9418  25.478  29.141   5.194
48130W        W 9419  16.586  20.686  12.917
48131W        W 9420  30.623  42.022  13.351
48132W        W 9421  19.099  39.872   0.805
48133W        W 9422  22.506  33.491  10.017
48134W        W 9423  42.956  22.117   3.275
48135W        W 9424  22.709  33.066   1.811
48136W        W 9425  28.487  34.611   2.287
48137W        W 9426  41.896   1.903   2.705
48138W        W 9427  38.429  40.398   1.244
48139W        W 9428   5.244  10.867  11.399
48140W        W 9429  17.278  19.741   4.696
48141W        W 9430   4.773  15.714   2.682
48142W        W 9431   8.686  41.017  12.967
48143W        W 9432  42.965   7.750  11.954
48144W        W 9433   4.273  40.369  10.422
48145W        W 9434  42.973  43.776   3.776
48146W        W 9435  35.458  44.355  12.438
48147W        W 9436  19.624  16.097  10.499
48148W        W 9437  25.964  37.872  11.387
48149W        W 9438   6.837  10.849  11.090
48150W        W 9439  18.743  12.646  11.550
48151W        W 9440  27.629  19.750   2.767
48152W        W 9441  14.652   9.363  13.383
48153W        W 9442  11.303  20.756  13.435
48154W        W 9443   0.817  19.748  14.354
48155W        W 9444  35.376   4.318  14.900
48156W        W 9445   6.232   3.907  11.474
48157W        W 9446  27.053  44.816  14.018
48158W        W 9447  41.342  13.678  10.906
48159W        W 9448   3.910  15.737   1.257
48160W        W 9449  29.950  42.484  13.503
48161W        W 9450  22.059  42.844  11.917
48162W        W 9451   2.351   3.363   3.863
48163W        W 9452  44.481  38.347   0.740
48164W        W 9453  18.673   1.854  10.009
48165W        W 9454   6.296   5.417   1.763
48166W        W 9455  17.297  17.190  11.578
48167W        W 9456  31.117  28.483   0.861
48168W        W 9457  11.186  38.991   3.739
48169W        W 9458  17.602  17.230   3.210
48170W        W 9459  21.112  31.462   3.188
48171W        W 9460  11.756  28.962   1.315
48172W        W 9461   4.404  29.668   0.745
48173W        W 9462  14.248  41.299   2.324
48174W        W 9463  37.869  21.694   4.733
48175W        W 9464  12.781  34.121  14.870
48176W        W 9465  36.045  31.109   0.355
48177W        W 9466   3.435  33.996   2.886
48178W        W 9467  24.009   1.887   3.715
48179W        W 9468  13.751  18.260  12.092
48180W        W 9469   4.783  11.165  10.924
48181W        W 9470  40.521  42.959   4.146
48182W        W 9471  30.982  38.075  11.447
48183W        W 9472   0.788  41.950  11.423
48184W        W 9473  42.329  12.254  13.883
48185W        W 9474  38.835  26.612  13.916
48186W        W 9475  33.880  17.095   1.224
48187W        W 9476  20.109  20.240  11.415
48188W        W 9477   3.796  13.780  11.519
48189W        W 9478  31.921  38.428  10.072
48190W        W 9479   1.453  22.049   4.340
48191W        W 9480   1.953  35.505   2.758
48192W        W 9481  24.004  18.670  10.619
48193W        W 9482  44.888  37.472   3.697
48194W        W 9483  41.520   5.752  12.010
48195W        W 9484   8.245  10.708   2.273
48196W        W 9485  34.875  13.116   3.836
48197W        W 9486  15.145  26.193   1.296
48198W        W 9487  33.969   5.823  11.882
48199W        W 9488  16.773  22.204   2.308
48200W        W 9489   0.874  11.666  14.449
48201W        W 9490  33.105  39.981  14.454
48202W        W 9491   4.749  25.648   4.779
48203W        W 9492   9.336  38.841  12.979
48204W        W 9493  13.202  38.911   3.674
48205W        W 9494  13.289  40.418  11.023
48206W        W 9495   4.941  23.602  11.565
48207W        W 9496  42.512  33.905  12.042
48208W        W 9497  37.017  32.015   1.740
48209W        W 9498  24.552   6.309  14.385
48210W        W 9499  44.790  30.983  12.038
48211W        W 9500  11.796  28.445   1.844
48212W        W 9501  18.192  21.232   3.755
48213W        W 9502  43.454  38.879   4.785
48214W        W 9503  36.580  10.368  11.007
48215W        W 9504  10.811  31.446  11.371
48216W        W 9505  14.187  16.079   2.238
48217W        W 9506   7.831  37.978   3.788
48218W        W 9507  39.870  34.979  14.505
48219W        W 9508  41.501  27.990  10.562
48220W        W 9509  19.649  16.666   0.764
48221W        W 9510  30.097  42.285  13.928
48222W        W 9511   7.846  11.721   3.216
48223W        W 9512  24.513  12.764  12.938
48224W        W 9513  28.021  23.673  13.548
48225W        W 9514  26.642  20.731   4.795
48226W        W 9515  14.253  25.210  12.958
48227W        W 9516  44.948  14.274  12.984
48228W        W 9517  40.356  44.899   4.351
48229W        W 9518  34.535  17.789   4.807
48230W        W 9519   0.284   8.685  14.386
48231W        W 9520  32.085  22.621   4.148
48232W        W 9521   0.943  34.546  11.490
48233W        W 9522  30.525  38.981   4.717
48234W        W 9523  11.242   6.784   1.724
48235W        W 9524  16.795  40.904   3.297
48236W        W 9525  13.138  25.680   4.274
48237W        W 9526  22.071  28.546  12.011
48238W        W 9527   5.873   6.708  11.122
48239W        W 9528  24.028  36.412   1.246
48240W        W 9529  22.740  23.057  14.961
48241W        W 9530  18.736   4.340  12.378
48242W        W 9531   6.272  41.511  13.818
48243W        W 9532  24.698  11.656  11.998
48244W        W 9533   3.847   1.460  10.481
48245W        W 9534  30.587  27.014   2.773
48246W        W 9535  24.654   8.400   3.866
48247W        W 9536  36.517  36.440   0.371
48248W        W 9537   7.184  25.022   3.179
48249W        W 9538  20.211   4.702  10.086
48250W        W 9539   7.292  11.858  14.313
48251W        W 9540  44.410  42.382   3.722
48252W        W 9541   1.286  36.475   3.386
48253W        W 9542  33.904  27.679   0.391
48254W        W 9543  44.348  24.585  12.468
48255W        W 9544   5.729  10.798  11.979
48256W        W 9545  28.634  22.664  11.972
48257W        W 9546  23.123   4.819  13.965
48258W        W 9547  37.954  26.052  13.850
48259W        W 9548   1.758  39.315   3.705
48260W        W 9549  41.370  43.473  11.551
48261W        W 9550   3.871  43.326  14.322
48262W        W 9551  16.227  15.669  10.467
48263W        W 9552  23.241   4.944  14.992
48264W        W 9553   4.790   6.727   2.702
48265W        W 9554   0.872   5.749  11.967
48266W        W 9555  34.554  11.771  12.858
48267W        W 9556  25.125  30.444   0.811
48268W        W 9557  28.553  24.663   4.728
48269W        W 9558  33.484  15.280  14.886
48270W        W 9559   8.883  31.086  11.520
48271W        W 9560  37.392  28.437   2.724
48272W        W 9561  15.254   2.950   9.460
48273W        W 9562   8.886  40.967   0.482
48274W        W 9563  21.027  41.346  11.092
48275W        W 9564  26.571  31.023   3.152
48276W        W 9565  44.332  29.467   0.877
48277W        W 9566   6.768  22.680   0.866
48278W        W 9567  15.762  10.373  14.828
48279W        W 9568  28.638  21.217  10.149
48280W        W 9569  15.326   3.842   2.342
48281W        W 9570  26.541   1.969  11.935
48282W        W 9571  27.144  28.108  11.121
48283W        W 9572   9.651  40.808  12.980
48284W        W 9573  23.548  24.669  14.969
48285W        W 9574   5.220   8.179  13.062
48286W        W 9575  43.851  13.137  11.102
48287W        W 9576  29.517  20.185   1.803
48288W        W 9577   8.334  38.991  14.915
48289W        W 9578   6.779   5.710   4.634
48290W        W 9579  23.035  25.095   1.320
48291W        W 9580  23.206  19.040   4.145
48292W        W 9581   0.340   2.954   3.244
48293W        W 9582  39.939  10.659  12.375
48294W        W 9583   1.740  29.647  13.893
48295W        W 9584  24.648  21.622  12.382
48296W        W 9585  23.114  17.260   1.763
48297W        W 9586  17.660  41.299  11.945
48298W        W 9587  19.123  39.990  12.851
48299W        W 9588  39.041   5.728   1.377
48300W        W 9589  32.928  37.850   1.300
48301W        W 9590  42.317  16.698   0.894
48302W        W 9591  27.520  41.351   0.258
48303W        W 9592  13.192  25.619  12.575
48304W        W 9593  39.322  44.942  14.005
48305W        W 9594  15.807  29.563  13.034
48306W        W 9595   1.905  38.864  11.994
48307W        W 9596  42.985  44.772  13.914
48308W        W 9597  15.176  27.150  11.982
48309W        W 9598  38.474  31.431   1.722
48310W        W 9599   9.371  28.100  13.979
48311W        W 9600  34.489   8.231  12.076
48312W        W 9601  22.610  35.532   4.642
48313W        W 9602  31.074  39.379   4.707
48314W        W 9603   0.787  27.145   2.731
48315W        W 9604  40.339  28.588   1.711
48316W        W 9605  35.858  42.383   1.741
48317W        W 9606  41.441   5.824   0.830
48318W        W 9607  26.073  31.501   1.893
48319W        W 9608  25.543  38.539   2.334
48320W        W 9609  12.242  14.816   0.893
48321W        W 9610   7.866  32.475  14.769
48322W        W 9611  27.682  15.274  14.323
48323W        W 9612   0.423  16.602   2.682
48324W        W 9613  26.487  32.008  12.032
48325W        W 9614  38.463  12.161   2.684
48326W        W 9615  39.340  18.570   0.935
48327W        W 9616   0.353  35.010  14.997
48328W        W 9617  18.675  39.327  13.889
48329W        W 9618   0.321  37.883  12.853
48330W        W 9619  35.089  28.149   1.860
48331W        W 9620   1.267   0.769  11.542
48332W        W 9621  17.154  22.182   0.936
48333W        W 9622  12.796  33.381  14.351
48334W        W 9623  22.652  30.921  14.880
48335W        W 9624  26.136  16.152  11.901
48336W        W 9625   5.841  27.124   4.247
48337W        W 9626   6.341  19.119  11.041
48338W        W 9627  13.733  43.995  13.330
48339W        W 9628  42.472   7.265  13.387
48340W        W 9629  20.139   7.674   2.679
48341W        W 9630  42.941   4.231  11.029
48342W        W 9631   3.406  10.761  12.470
48343W        W 9632  38.966  41.003   0.941
48344W        W 9633  42.791   6.810   1.432
48345W        W 9634  17.635  24.163   1.744
48346W        W 9635   6.254   2.335   1.347
48347W        W 9636   7.830  32.604   4.743
48348W        W 9637  20.580  39.967  14.888
48349W        W 9638   8.240   0.453   1.314
48350W        W 9639  25.971   8.396  11.429
48351W        W 9640  28.574  42.446  12.888
48352W        W 9641  25.035   0.323  14.329
48353W        W 9642  28.186  39.429  14.502
48354W        W 9643  43.503  37.342   1.421
48355W        W 9644  29.583  38.820   3.254
48356W        W 9645  21.057  40.437  10.952
48357W        W 9646  39.037  33.952  13.801
48358W        W 9647  27.577   6.426   2.408
48359W        W 9648  25.679  39.820   2.732
48360W        W 9649  44.311  38.987  11.027
48361W        W 9650  17.228  26.567   0.327
48362W        W 9651  42.827  30.515  11.517
48363W        W 9652  32.497  15.294  14.016
48364W        W 9653  24.658  39.531  10.987
48365W        W 9654  28.118  19.193  12.978
48366W        W 9655  14.218  32.409  11.112
48367W        W 9656  11.803  30.458   5.249
48368W        W 9657  32.040  28.674  12.930
48369W        W 9658  10.668  15.302  13.392
48370W        W 9659   3.295  25.556   2.410
48371W        W 9660  39.481  24.012   3.302
48372W        W 9661  11.813  40.306   3.309
48373W        W 9662  39.986  34.417  12.506
48374W        W 9663  37.055  22.621  11.119
48375W        W 9664  16.125   9.175  10.478
48376W        W 9665  17.746  30.975  11.124
48377W        W 9666  19.199  37.359   3.797
48378W        W 9667   1.323  32.062  12.857
48379W        W 9668  34.916   0.917  12.004
48380W        W 9669  28.055   5.756  10.440
48381W        W 9670   4.345   5.931   0.325
48382W        W 9671  25.062  12.814  11.962
48383W        W 9672  24.177   7.242  12.539
48384W        W 9673  36.417  14.231  12.902
48385W        W 9674   8.681  41.401   3.673
48386W        W 9675  21.260  24.158   3.240
48387W        W 9676   8.236  30.513  11.887
48388W        W 9677  28.030  32.456  11.084
48389W        W 9678  35.013   9.690   1.418
48390W        W 9679  10.298  31.456   2.760
48391W        W 9680   4.918  24.657  11.538
48392W        W 9681  17.572   9.838   2.406
48393W        W 9682  38.442  18.604  13.056
48394W        W 9683  12.794   5.789  13.038
48395W        W 9684  21.642  17.065  10.540
48396W        W 9685  11.639  31.585  12.904
48397W        W 9686  24.009  39.953  12.439
48398W        W 9687  15.658  31.481   4.706
48399W        W 9688   4.710  31.138   4.249
48400W        W 9689   0.891  37.377   0.307
48401W        W 9690  14.701   2.291   0.409
48402W        W 9691  17.158  24.210   2.686
48403W        W 9692   5.200   6.347   0.817
48404W        W 9693  44.785   0.301   1.369
48405W        W 9694   6.227  14.708  10.910
48406W        W 9695   1.892   4.450  13.330
48407W        W 9696  31.451   3.328   1.390
48408W        W 9697  42.282   7.185   5.215
48409W        W 9698  32.529   1.922   4.627
48410W        W 9699  40.427   8.822  14.424
48411W        W 9700  17.584  33.967  12.412
48412W        W 9701  44.007  26.099   1.908
48413W        W 9702  24.221  35.916  14.919
48414W        W 9703  27.559  35.405  14.772
48415W        W 9704   9.824   2.777  11.472
48416W        W 9705  29.592  37.401   9.947
48417W        W 9706  39.510  14.147   0.249
48418W        W 9707  13.250  33.095   3.853
48419W        W 9708  30.559  15.587   1.376
48420W        W 9709  26.152  29.122  10.588
48421W        W 9710  12.788  15.785   4.257
48422W        W 9711  11.802  13.207  11.511
48423W        W 9712  12.800  25.498  11.983
48424W        W 9713   1.248  31.117  13.399
48425W        W 9714  28.027  27.497   3.354
48426W        W 9715  13.622  31.034  10.906
48427W        W 9716  26.522  32.023   4.720
48428W        W 9717   6.209  30.046  11.478
48429W        W 9718   8.840   7.290  11.420
48430W        W 9719  39.459  22.728   0.359
48431W        W 9720   3.242  32.067   0.810
48432W        W 9721  43.979  16.787   2.692
48433W        W 9722   0.946   5.424  12.088
48434W        W 9723  40.390  40.874   0.335
48435W        W 9724  26.962  13.332   1.312
48436W        W 9725  32.471  33.598  10.443
48437W        W 9726   4.742  21.261   2.338
48438W        W 9727  38.464   2.322   1.917
48439W        W 9728   4.372  24.989   9.674
48440W        W 9729  31.447  39.313  13.502
48441W        W 9730  31.428  12.120  12.988
48442W        W 9731  15.284  41.354   3.147
48443W        W 9732  39.040  34.532   0.892
48444W        W 9733  28.454  13.352  10.972
48445W        W 9734  28.472  26.091  13.486
48446W        W 9735  38.356  20.574   9.560
48447W        W 9736  16.718  36.551  13.853
48448W        W 9737   7.716  24.488   0.257
48449W        W 9738  22.095   7.172  13.468
48450W        W 9739   1.456  44.403  14.805
48451W        W 9740  10.736  34.948   0.893
48452W        W 9741  24.154  36.911  10.892
48453W        W 9742  38.344  37.985  14.810
48454W        W 9743  17.224   8.224   4.739
48455W        W 9744  33.924  28.538   4.275
48456W        W 9745   4.918   9.354   3.196
48457W        W 9746  25.036  16.634   1.263
48458W        W 9747  39.422  41.452  14.947
48459W        W 9748  40.939   5.316   0.921
48460W        W 9749  40.037   3.836   0.434
48461W        W 9750   3.334  12.344  13.829
48462W        W 9751  33.113   3.217   1.759
48463W        W 9752  41.874  10.279   2.681
48464W        W 9753   6.376  22.199  13.039
48465W        W 9754  21.045  28.502   3.813
48466W        W 9755  32.444  15.790  10.458
48467W        W 9756   1.326  25.706  12.079
48468W        W 9757  13.741   2.238   0.265
48469W        W 9758  17.597  13.745   3.659
48470W        W 9759  12.330  22.735   0.949
48471W        W 9760  10.764  26.543  10.937
48472W        W 9761  37.341   8.394  13.802
48473W        W 9762  30.070  30.150   0.739
48474W        W 9763  20.230  31.112  13.033
48475W        W 9764   4.849  20.218  14.821
48476W        W 9765  11.867   3.343   3.324
48477W        W 9766  41.422  43.861   3.368
48478W        W 9767  24.163  43.765  11.994
48479W        W 9768   2.832  41.341  14.317
48480W        W 9769  35.003   2.935   3.639
48481W        W 9770   8.318  37.379  12.464
48482W        W 9771   8.869  10.164   3.707
48483W        W 9772  20.237   9.256   1.697
48484W        W 9773  42.375  14.717  13.477
48485W        W 9774  14.708  35.584  12.951
48486W        W 9775  38.502  29.149  11.375
48487W        W 9776  12.842  30.144  12.845
48488W        W 9777   0.918  35.080   0.889
48489W        W 9778  23.213  16.198  11.915
48490W        W 9779  19.601   7.216   1.321
48491W        W 9780   8.357  24.571  14.297
48492W        W 9781  25.473  30.563  13.911
48493W        W 9782  14.655  15.721   3.646
48494W        W 9783  31.599   2.371  12.564
48495W        W 9784  37.984  34.035   3.145
48496W        W 9785  12.783  20.160   2.720
48497W        W 9786  30.624   4.307   2.253
48498W        W 9787  43.818  43.975  10.577
48499W        W 9788  43.796  22.139  14.505
48500W        W 9789   6.311  38.326   4.195
48501W        W 9790   7.818  19.587   5.254
48502W        W 9791  35.070  18.085   0.948
48503W        W 9792  16.675  25.710  12.954
48504W        W 9793  38.980   9.781  14.391
48505W        W 9794  38.835  22.550  12.971
48506W        W 9795  12.312  11.347  13.543
48507W        W 9796  37.374  10.694   1.232
48508W        W 9797   9.813  13.799  13.367
48509W        W 9798   1.422  30.539   3.828
48510W        W 9799  44.299  11.222  10.475
48511W        W 9800  37.855   5.743  12.519
48512W        W 9801  32.398  11.838   2.278
48513W        W 9802  31.411  33.900   4.675
48514W        W 9803  21.119  14.261  13.454
48515W        W 9804  25.098  19.253  11.431
48516W        W 9805   2.771   4.251   2.753
48517W        W 9806   8.842  24.126  10.588
48518W        W 9807  16.579  40.976  10.949
48519W        W 9808  13.717   9.758  11.901
48520W        W 9809  25.646  15.090  12.513
48521W        W 9810  19.221  25.015   1.303
48522W        W 9811  39.837  11.369   3.843
48523W        W 9812  22.706  33.943   1.929
48524W        W 9813   9.386  41.894  13.483
48525W        W 9814  20.264  38.511   4.792
48526W        W 9815  35.598  27.142  13.056
48527W        W 9816  14.738  20.548   3.259
48528W        W 9817   2.858   5.277   4.733
48529W        W 9818  35.076  11.793  12.991
48530W        W 9819   9.852  39.867  13.425
48531W        W 9820   7.715  32.553   0.253
48532W        W 9821   9.216  20.723  13.412
48533W        W 9822   8.366   3.245   2.361
48534W        W 9823  44.398  43.328  11.383
48535W        W 9824  34.452   9.858  12.430
48536W        W 9825  42.310  43.324   1.308
48537W        W 9826   9.819  12.828  13.339
48538W        W 9827  20.679  27.690  12.571
48539W        W 9828  15.634   6.783  12.402
48540W        W 9829  23.557  34.077   2.773
48541W        W 9830   5.255   2.799  12.403
48542W        W 9831  17.556  37.997  14.297
48543W        W 9832   3.218  39.880  14.441
48544W        W 9833  44.445   6.915   0.868
48545W        W 9834  29.146  41.985  14.277
48546W        W 9835   3.850  40.988   3.698
48547W        W 9836  33.987  30.036  12.087
48548W        W 9837  19.173   5.876  13.834
48549W        W 9838  19.613  33.444   4.774
48550W        W 9839  18.717  36.469  10.057
48551W        W 9840   4.885  25.632   0.939
48552W        W 9841  43.401  30.113   3.758
48553W        W 9842   0.345  22.091  12.954
48554W        W 9843  39.825  44.813   2.825
48555W        W 9844   6.771  24.038   2.275
48556W        W 9845  41.024  38.018   0.247
48557W        W 9846  29.932  33.533  12.361
48558W        W 9847   7.890  27.994   1.865
48559W        W 9848  18.093  13.669   4.787
48560W        W 9849  23.035  27.664  11.473
48561W        W 9850   2.305  39.005   5.194
48562W        W 9851   9.694  11.635   4.125
48563W        W 9852  17.107  31.081   0.332
48564W        W 9853  22.225   0.962  10.432
48565W        W 9854  29.959   8.363   3.705
48566W        W 9855  18.224  15.102   1.782
48567W        W 9856  24.091  17.166   4.799
48568W        W 9857  28.488  14.687  10.413
48569W        W 9858  34.534  19.063  13.457
48570W        W 9859  43.771  20.125  11.387
48571W        W 9860  16.617  35.061   1.916
48572W        W 9861  13.719   3.435  13.929
48573W        W 9862  19.665   4.833  10.552
48574W        W 9863   4.348  37.464  14.965
48575W        W 9864  16.658  13.836  10.461
48576W        W 9865  20.166  15.096  10.524
48577W        W 9866  31.594  35.491   2.380
48578W        W 9867  33.475   5.902   2.189
48579W        W 9868  28.126   8.727  12.467
48580W        W 9869   1.869  40.468  14.862
48581W        W 9870   3.746  24.209  11.063
48582W        W 9871  27.537   3.315   1.220
48583W        W 9872  16.180  34.905   3.208
48584W        W 9873   4.881   2.369   2.252
48585W        W 9874  42.945  24.636   2.861
48586W        W 9875   9.744  14.133   0.941
48587W        W 9876  37.512   0.988  14.979
48588W        W 9877  16.681  31.054  14.838
48589W        W 9878  34.500  13.704  14.899
48590W        W 9879  12.154  44.359   4.741
48591W        W 9880  21.556  29.549   3.703
48592W        W 9881  10.805   9.203  12.499
48593W        W 9882   7.314  36.018   0.823
48594W        W 9883  15.612   3.756  11.901
48595W        W 9884  43.392  41.357   2.254
48596W        W 9885   8.694  24.128   4.215
48597W        W 9886  33.034  34.892  14.855
48598W        W 9887  36.897  11.852   1.291
48599W        W 9888   3.893  19.272   2.861
48600W        W 9889   9.212  31.402  12.031
48601W        W 9890  13.263  37.004   1.324
48602W        W 9891  43.914   1.932   1.782
48603W        W 9892  29.932   3.221   5.174
48604W        W 9893   0.412  21.722  11.974
48605W        W 9894  28.124  34.600   2.418
48606W        W 9895   5.244  44.857  14.456
48607W        W 9896  37.354  36.994  12.416
48608W        W 9897   9.687  28.545   2.375
48609W        W 9898  32.130   6.817   1.913
48610W        W 9899  33.891  23.149   4.679
48611W        W 9900  33.521   8.261   0.862
48612W        W 9901  33.006   6.727  10.533
48613W        W 9902  30.448   0.403   2.748
48614W        W 9903  36.421   7.829   0.788
48615W        W 9904  26.034  17.175  14.796
48616W        W 9905  34.520  23.231   4.762
48617W        W 9906   6.323  21.206   0.322
48618W        W 9907  10.269   8.795  11.889
48619W        W 9908   0.432  14.733   3.201
48620W        W 9909  36.084  13.287   4.341
48621W        W 9910  19.250  16.264  13.064
48622W        W 9911  38.370  17.167   0.960
48623W        W 9912  35.571  37.506  12.373
48624W        W 9913  37.076  16.187   0.270
48625W        W 9914   2.859  42.027   3.197
48626W        W 9915   5.720  30.144   2.767
48627W        W 9916  39.035   0.412   4.305
48628W        W 9917  17.750  15.808   4.744
48629W        W 9918   1.290  20.265  10.981
48630W        W 9919   0.831  40.385  10.442
48631W        W 9920  27.194   0.392  12.884
48632W        W 9921  25.979   4.338  12.900
48633W        W 9922  24.692  34.000   3.321
48634W        W 9923  37.893  26.688   4.346
48635W        W 9924  31.618  10.363  10.538
48636W        W 9925  20.048  32.510  14.481
48637W        W 9926  41.505  29.946   0.755
48638W        W 9927  41.839   2.817  10.542
48639W        W 9928  41.448  17.077  13.957
48640W        W 9929   2.902  10.838  14.028
48641W        W 9930   1.416  34.456   0.415
48642W        W 9931  33.892  17.088   4.711
48643W        W 9932   2.354  31.914  13.875
48644W        W 9933  44.758  18.138   0.352
48645W        W 9934  29.010  16.696   4.264
48646W        W 9935   8.823  25.160  10.001
48647W        W 9936   7.399  30.541   3.690
48648W        W 9937  12.191  15.725  11.116
48649W        W 9938   3.931  37.502   2.284
48650W        W 9939  16.238  34.585   0.896
48651W        W 9940   4.899  33.101   3.376
48652W        W 9941  19.131   5.204  14.979
48653W        W 9942  10.157  27.668  14.367
48654W        W 9943  21.018  15.110   3.185
48655W        W 9944  26.589  44.450   1.811
48656W        W 9945  22.239   3.367   3.732
48657W        W 9946   4.418  13.162  13.362
48658W        W 9947  34.002  43.935   4.352
48659W        W 9948  33.523  29.626   3.289
48660W        W 9949  23.232  26.130  10.407
48661W        W 9950  33.457  44.911  12.013
48662W        W 9951  23.102  19.207   2.764
48663W        W 9952  11.179   4.928  14.932
48664W        W 9953  24.181   8.828  14.400
48665W        W 9954  23.684  42.872  13.891
48666W        W 9955  12.832   3.390   0.930
48667W        W 9956  32.581   5.908  11.530
48668W        W 9957   3.941  37.484  12.026
48669W        W 9958  30.129  30.149  13.025
48670W        W 9959  29.067  21.128   3.670
48671W        W 9960  34.980  43.810   1.291
48672W        W 9961  35.869  34.089   1.237
48673W        W 9962  29.659  15.774  13.032
48674W        W 9963  22.564   5.384   3.799
48675W        W 9964   6.283   0.871  11.061
48676W        W 9965  28.975  33.922   2.719
48677W        W 9966  31.461  33.439  13.472
48678W        W 9967  39.060  13.183   1.756
48679W        W 9968  22.538  15.245  13.382
48680W        W 9969  32.023  12.327   1.226
48681W        W 9970  31.101  29.622   3.295
48682W        W 9971  35.432  19.596  13.930
48683W        W 9972   1.913  16.127  12.468
48684W        W 9973  36.416   1.946  10.154
48685W        W 9974  20.058   3.812   4.601
48686W        W 9975  16.122  41.908  14.406
48687W        W 9976  38.552  31.980   3.855
48688W        W 9977  23.219  28.602  14.329
48689W        W 9978   1.835  19.552   0.932
48690W        W 9979  42.406  26.460  11.498
48691W        W 9980   0.817  29.529   2.219
48692W        W 9981  22.006  22.177  11.108
48693W        W 9982  39.030   8.284   3.243
48694W        W 9983  10.178  43.375  13.422
48695W        W 9984   0.342  23.523   3.849
48696W        W 9985   7.884  32.888  11.896
48697W        W 9986  12.181  39.488  11.107
48698W        W 9987  15.318  30.158   4.608
48699W        W 9988  32.503   0.845   0.818
48700W        W 9989   3.237  28.120  14.276
48701W        W 9990  21.195   1.352   1.728
48702W        W 9991  44.301  34.933   1.234
48703W        W 9992  33.902  10.647   3.260
48704W        W 9993  38.900   7.804  13.005
48705W        W 9994  17.685   3.341  14.340
48706W        W 9995  36.082  23.682  12.937
48707W        W 9996  33.475  28.054  12.021
48708W        W 9997  33.089   8.779  12.079
48709W        W 9998  29.165  20.650   2.265
48710W        W 9999  19.635  16.136  11.586
48711W        W10000   0.315  26.591  11.372
48712W        W10001  23.496  22.528  12.484
48713W        W10002  36.363  25.117  14.342
48714W        W10003   3.302  33.967  14.476
48715W        W10004   1.360   9.715  11.379
48716W        W10005   4.210  34.455  12.012
48717W        W10006   2.824  40.503  14.461
48718W        W10007  27.523   7.305   3.313
48719W        W10008   4.701  41.338   3.168
48720W        W10009  15.294  18.282  11.606
48721W        W10010  43.927  22.598   4.622
48722W        W10011   6.901  36.069  13.011
48723W        W10012  44.917   2.363  13.445
48724W        W10013  13.223  35.961   1.448
48725W        W10014  31.940  35.955   0.314
48726W        W10015  35.960  28.486   4.765
48727W        W10016   7.346  11.290   2.781
48728W        W10017  37.535  44.294  10.545
48729W        W10018   3.364  31.147  14.895
48730W        W10019  28.640  42.896   0.464
48731W        W10020  39.860   2.290  12.929
48732W        W10021   8.349  16.738   0.373
48733W        W10022  13.175  35.961  10.998
48734W        W10023   5.235  25.132   0.339
48735W        W10024  36.544  23.691   9.932
48736W        W10025  36.546   4.849   0.801
48737W        W10026   2.736  23.591   1.779
48738W        W10027  30.442  39.877   0.459
48739W        W10028  32.021  24.514   0.291
48740W        W10029  19.559  17.604   1.778
48741W        W10030  35.384  14.237  13.060
48742W        W10031  37.486  25.704  13.929
48743W        W10032  38.936  13.164   4.137
48744W        W10033  26.090  39.047  11.534
48745W        W10034   9.226  17.114  11.873
48746W        W10035  14.159  26.504   1.409
48747W        W10036  42.875   4.222   3.361
48748W        W10037  25.643  42.807  12.085
48749W        W10038  25.053  19.599   4.174
48750W        W10039  35.027  33.021   4.139
48751W        W10040  43.793   5.289  11.039
48752W        W10041   3.712  37.888   0.743
48753W        W10042  39.958  30.990  11.998
48754W        W10043  31.624  23.226   1.362
48755W        W10044  36.903   0.839   4.160
48756W        W10045  11.139  39.941   4.349
48757W        W10046  42.378  26.523   3.658
48758W        W10047  10.173  30.091   5.310
48759W        W10048  41.892  33.022  11.065
48760W        W10049   8.734  25.004   2.293
48761W        W10050  32.436  22.746   0.385
48762W        W10051  34.977   9.353  14.495
48763W        W10052   4.707  30.428  10.134
48764W        W10053  20.041  33.974   2.715
48765W        W10054  35.593  34.943   1.892
48766W        W10055  20.765  30.042   2.755
48767W        W10056  34.514  39.031  10.543
48768W        W10057  10.808  15.820  10.927
48769W        W10058   6.823  39.455  14.002
48770W        W10059  14.299  27.048   0.939
48771W        W10060  37.511  16.215  12.456
48772W        W10061  23.236  30.072   0.905
48773W        W10062  38.076  10.154   0.429
48774W        W10063   9.790  43.821   5.678
48775W        W10064  37.352   0.957  12.953
48776W        W10065  24.546  17.140   3.755
48777W        W10066  28.093   9.282  13.868
48778W        W10067   1.917  11.646   2.215
48779W        W10068  15.791  18.147   5.122
48780W        W10069  30.006   8.882   3.810
48781W        W10070  29.170  22.528  13.995
48782W        W10071   7.370  21.585  13.958
48783W        W10072  17.225  32.454   4.620
48784W        W10073  34.114  43.497  11.511
48785W        W10074  27.042   4.352   2.230
48786W        W10075  30.136   2.828  11.984
48787W        W10076   0.421  42.330  11.999
48788W        W10077   4.929   3.753  10.142
48789W        W10078  16.705  35.476   1.371
48790W        W10079  14.283   3.349   3.776
48791W        W10080  35.101  19.667  14.013
48792W        W10081   1.920  35.509   1.294
48793W        W10082  11.822   7.816   3.802
48794W        W10083  19.671  26.986   0.860
48795W        W10084  34.975   5.909  10.977
48796W        W10085   7.878  44.486   1.781
48797W        W10086  39.959  33.124  13.006
48798W        W10087   3.302   5.199  10.505
48799W        W10088  33.586  27.011   0.373
48800W        W10089  20.189  34.963  13.473
48801W        W10090   7.832  41.923  12.052
48802W        W10091  21.641  22.009  11.412
48803W        W10092  41.352  17.727   3.729
48804W        W10093  27.514  43.993   1.878
48805W        W10094   8.688  26.498  14.369
48806W        W10095  14.158  16.089   0.395
48807W        W10096  16.312   8.297  14.383
48808W        W10097  23.207  26.172   3.218
48809W        W10098  26.133  31.132  12.836
48810W        W10099  15.173  34.115   2.341
48811W        W10100  14.834   0.251  11.490
48812W        W10101  39.832  21.578   1.709
48813W        W10102  26.190  34.975  14.378
48814W        W10103  16.704  26.536   1.720
48815W        W10104  39.956  12.298  11.524
48816W        W10105  13.653  44.983  10.540
48817W        W10106  39.396  28.649   4.268
48818W        W10107  37.476   0.489   0.763
48819W        W10108   8.280  15.683  14.781
48820W        W10109  14.228  43.849  11.579
48821W        W10110  44.800  26.987   2.249
48822W        W10111  39.546  13.196  13.370
48823W        W10112  24.022  11.134   0.783
48824W        W10113   0.432   6.759  12.993
48825W        W10114  44.788  21.703  14.463
48826W        W10115  40.898  33.400   1.851
48827W        W10116  26.167  24.025   2.838
48828W        W10117  11.842  31.094   1.709
48829W        W10118   4.282  27.505   0.795
48830W        W10119  30.496   0.908  10.621
48831W        W10120  23.671  31.943  14.376
48832W        W10121   4.880   8.722   0.922
48833W        W10122  35.878   7.187  11.547
48834W        W10123  33.449   4.712   3.146
48835W        W10124  28.991  28.664  11.965
48836W        W10125  27.611  29.979  14.980
48837W        W10126   7.723  14.715   2.730
48838W        W10127  29.619   0.475   3.242
48839W        W10128   2.267   0.862  14.768
48840W        W10129  26.956  34.958  13.790
48841W        W10130  22.544  28.045   2.681
48842W        W10131  36.478  20.239   3.786
48843W        W10132   6.795  36.885   2.866
48844W        W10133  38.455  29.457   3.158
48845W        W10134  42.411  16.724   1.799
48846W        W10135  32.904   3.318   0.939
48847W        W10136  21.642  43.350  12.082
48848W        W10137  44.825   6.189  14.874
48849W        W10138  19.728  25.656  10.454
48850W        W10139  12.758  13.773  14.825
48851W        W10140  26.965  25.091  11.382
48852W        W10141  32.091   2.459   3.211
48853W        W10142   7.696  34.482  14.504
48854W        W10143  13.709  27.683  14.354
48855W        W10144  25.128  18.622   5.180
48856W        W10145  23.611  32.407  11.889
48857W        W10146  40.450  21.039   0.328
48858W        W10147  44.311  15.264   4.247
48859W        W10148  13.304  14.805  14.457
48860W        W10149  44.298   5.773   3.631
48861W        W10150  37.528  37.411   0.797
48862W        W10151  13.652  38.000  11.435
48863W        W10152   5.219  28.110   4.256
48864W        W10153   8.870  36.420  10.574
48865W        W10154  27.127  38.371  13.531
48866W        W10155  28.681  25.552   3.318
48867W        W10156  22.545  16.752  11.555
48868W        W10157  32.053  32.460   2.835
48869W        W10158  26.672  18.166   1.215
48870W        W10159   8.677  38.986   0.875
48871W        W10160  15.598  21.198  14.477
48872W        W10161  25.206   8.378   0.351
48873W        W10162   4.315   1.376   0.785
48874W        W10163  22.025  17.093  12.498
48875W        W10164  30.541  31.515  13.022
48876W        W10165  28.052  15.088   0.859
48877W        W10166  28.011   5.745  14.997
48878W        W10167  27.665   0.382   1.346
48879W        W10168  36.465  12.843  10.450
48880W        W10169  29.023  30.011   3.696
48881W        W10170  14.289  13.147   2.737
48882W        W10171  37.529  10.672  13.816
48883W        W10172  39.054  21.604   3.660
48884W        W10173  17.302  36.887  11.908
48885W        W10174  39.416   4.346  12.095
48886W        W10175  21.112  43.804  13.326
48887W        W10176  19.175  13.243  13.414
48888W        W10177  33.444  28.002   5.209
48889W        W10178  16.266  21.130   1.238
48890W        W10179  25.619  36.063   3.766
48891W        W10180   2.426   9.162   1.760
48892W        W10181   9.320  39.344   3.165
48893W        W10182   4.898  35.464   3.864
48894W        W10183  42.385  32.515  14.297
48895W        W10184   9.744  19.640   2.188
48896W        W10185  38.411   0.284  13.519
48897W        W10186   8.160  18.563  13.980
48898W        W10187  12.790  28.114  11.567
48899W        W10188  29.489  28.525  13.015
48900W        W10189  27.635  20.148  11.990
48901W        W10190  18.233   1.773   0.312
48902W        W10191   5.874  30.064   4.137
48903W        W10192   0.447  24.537   2.689
48904W        W10193   8.893  33.889   3.860
48905W        W10194  38.343   8.244   2.300
48906W        W10195  13.844   3.803   3.213
48907W        W10196   4.203   3.816  12.049
48908W        W10197   2.417  33.576   4.289
48909W        W10198  42.885  37.991   3.225
48910W        W10199  10.340   9.205  13.920
48911W        W10200  23.150  10.145   2.886
48912W        W10201  31.130  17.282   1.781
48913W        W10202  21.655  22.079  10.605
48914W        W10203  40.851   1.751   4.274
48915W        W10204   4.339  29.091  14.289
48916W        W10205  15.761  23.702   1.869
48917W        W10206  33.878  36.461   3.163
48918W        W10207  22.007  17.294   4.603
48919W        W10208  10.382  34.376   0.365
48920W        W10209  21.562  10.230   1.216
48921W        W10210  31.902  22.150  10.138
48922W        W10211  12.700  41.794   1.777
48923W        W10212   3.934   4.723   3.676
48924W        W10213  12.276  20.107  14.780
48925W        W10214  38.910  21.087   4.774
48926W        W10215  41.355  29.603  11.463
48927W        W10216  27.510   0.896   0.408
48928W        W10217   8.704  12.649  13.376
48929W        W10218  40.984  11.308  11.452
48930W        W10219  24.553  44.467   2.326
48931W        W10220  33.913  41.366   5.278
48932W        W10221  42.939   0.330   3.861
48933W        W10222  18.694   3.860   2.814
48934W        W10223  22.032  42.896   1.787
48935W        W10224  31.944  14.295   2.751
48936W        W10225  31.930  27.944  13.457
48937W        W10226  42.889  24.031   2.183
48938W        W10227   1.848  24.488   4.261
48939W        W10228   9.726  44.413  11.388
48940W        W10229  43.365  27.001   1.813
48941W        W10230  29.024  22.037  13.018
48942W        W10231  15.634  44.429   5.102
48943W        W10232   7.181   6.379  12.463
48944W        W10233   6.325  24.650   3.729
48945W        W10234   7.179   5.713   3.365
48946W        W10235   2.376  29.620   1.792
48947W        W10236   8.727  12.762   4.695
48948W        W10237  14.621   4.295   1.845
48949W        W10238  12.625  26.952   0.416
48950W        W10239  26.508   0.932   2.889
48951W        W10240  41.383  20.239   0.456
48952W        W10241  33.040  32.086   4.190
48953W        W10242   6.805  35.507   2.870
48954W        W10243  17.675  11.797  12.488
48955W        W10244   2.793   5.739  14.383
48956W        W10245  10.771  26.148   2.697
48957W        W10246  14.754  15.285  13.450
48958W        W10247   4.710   0.744   2.215
48959W        W10248  42.811   1.331   2.284
48960W        W10249  35.895   8.177   1.734
48961W        W10250  15.151  18.550   3.806
48962W        W10251  22.518  36.404   4.631
48963W        W10252   2.745  26.099   1.732
48964W        W10253  36.042  20.057   4.833
48965W        W10254  10.139  19.187  14.448
48966W        W10255  25.206  25.497   2.235
48967W        W10256  30.960   0.492  12.948
48968W        W10257   6.871  42.495   4.697
48969W        W10258   2.863   0.936   4.152
48970W        W10259  11.183   4.809   0.750
48971W        W10260  39.994   9.332   1.833
48972W        W10261   2.946  12.260  14.340
48973W        W10262  12.160  41.861   3.233
48974W        W10263  36.947  42.421  14.831
48975W        W10264  42.877  11.717   0.897
48976W        W10265  34.058  33.414   0.866
48977W        W10266  11.707  17.717   1.440
48978W        W10267  10.773  38.369   2.202
48979W        W10268   0.987  18.548   0.279
48980W        W10269   5.425  26.518   2.742
48981W        W10270  37.576  40.459  14.013
48982W        W10271  24.041   5.913  12.919
48983W        W10272  39.322  34.973  12.064
48984W        W10273  43.959  20.152  14.405
48985W        W10274  29.435  40.318  11.534
48986W        W10275  24.561  41.849   2.203
48987W        W10276  10.239  37.885   2.805
48988W        W10277  12.301  39.554   4.627
48989W        W10278  31.956   9.686   1.817
48990W        W10279  10.773  26.591  11.870
48991W        W10280  20.642  19.231   4.261
48992W        W10281  11.687  38.427  11.950
48993W        W10282  42.943  17.246  10.907
48994W        W10283  19.551  27.027   1.304
48995W        W10284  16.272   6.840   4.643
48996W        W10285   0.300  23.097  12.493
48997W        W10286   2.329  33.010   3.235
48998W        W10287  42.363  19.257   4.175
48999W        W10288  19.062  29.595   0.737
49000W        W10289  14.712  15.640   3.177
49001W        W10290   8.673  13.628  11.120
49002W        W10291  10.819  10.151   1.919
49003W        W10292  34.062  31.434   3.350
49004W        W10293  34.945   2.358  10.013
49005W        W10294  16.801  43.480  14.938
49006W        W10295  42.308  24.151   4.769
49007W        W10296  29.644  21.548   3.232
49008W        W10297  36.475  32.917   3.227
49009W        W10298  25.999  44.277   2.850
49010W        W10299  40.383  31.050   1.787
49011W        W10300  34.096  35.487   4.336
49012W        W10301  44.492  10.681   2.737
49013W        W10302  18.654  27.690   1.387
49014W        W10303  30.031  37.849  12.867
49015W        W10304  35.550  19.682   1.357
49016W        W10305  24.687  25.506  12.048
49017W        W10306  29.973  44.856  12.886
49018W        W10307  25.138  26.459  10.437
49019W        W10308  37.893  35.429   2.363
49020W        W10309  26.952  23.086   9.944
49021W        W10310  23.205  29.655   1.263
49022W        W10311  20.256  37.454   5.094
49023W        W10312  34.603   6.376  13.032
49024W        W10313   3.724  44.005  12.449
49025W        W10314  10.265  38.956  14.767
49026W        W10315  25.094  26.493   0.799
49027W        W10316  14.100  30.418  11.483
49028W        W10317  40.527   5.327   3.713
49029W        W10318  32.090  44.368   2.757
49030W        W10319  42.299  24.688  11.004
49031W        W10320  13.639  39.867  14.925
49032W        W10321   3.790  31.545  11.589
49033W        W10322   5.339   7.264  10.584
49034W        W10323  37.560  12.272  12.361
49035W        W10324  37.979   6.704   0.464
49036W        W10325  31.476  32.109  14.430
49037W        W10326   3.932  27.968   0.840
49038W        W10327  37.391  35.530   1.388
49039W        W10328   6.722   1.805  11.879
49040W        W10329  43.001   5.778   0.293
49041W        W10330  16.222  31.135  12.951
49042W        W10331  41.811  24.169  11.044
49043W        W10332  15.649  34.531   4.233
49044W        W10333  39.056   7.742  11.374
49045W        W10334  33.456  25.556  14.850
49046W        W10335  27.480  44.307   2.214
49047W        W10336  38.883  39.048   3.681
49048W        W10337  25.480  42.413   2.260
49049W        W10338  21.531  11.678   4.241
49050W        W10339   7.294   4.868   9.995
49051W        W10340  30.594  42.891  12.474
49052W        W10341  36.473  11.183   4.251
49053W        W10342   0.393  20.672   3.329
49054W        W10343  23.524   9.229   3.860
49055W        W10344  31.637  17.557  10.510
49056W        W10345  23.491  34.879  11.933
49057W        W10346  13.808  37.571  14.776
49058W        W10347  38.044  35.466  13.313
49059W        W10348  40.402  29.072   1.248
49060W        W10349  15.717  27.545  11.480
49061W        W10350   3.324  44.000   2.671
49062W        W10351  33.089  18.750  14.933
49063W        W10352  19.773  26.473  13.928
49064W        W10353   3.240   9.827  14.961
49065W        W10354   7.297  21.162   4.766
49066W        W10355  16.082   4.717  13.344
49067W        W10356  23.085  32.072   1.386
49068W        W10357  40.487   4.844   3.640
49069W        W10358  38.511  19.169  12.978
49070W        W10359  20.698  29.153  10.535
49071W        W10360  24.020  41.490  11.093
49072W        W10361  38.539   2.368  14.826
49073W        W10362  24.631   0.464   4.597
49074W        W10363  24.647  18.142  11.934
49075W        W10364  31.051  18.582  11.954
49076W        W10365  12.197  15.223   2.388
49077W        W10366   3.938  25.148   4.779
49078W        W10367  21.247  23.504   0.360
49079W        W10368  35.590  37.062  10.626
49080W        W10369  40.469  35.860   0.478
49081W        W10370  33.885  16.650  14.874
49082W        W10371  20.126  19.692  11.514
49083W        W10372   5.766  24.672   1.423
49084W        W10373  18.773  19.264  11.989
49085W        W10374  25.171  20.155   2.685
49086W        W10375  11.665  20.643   4.683
49087W        W10376  12.758  31.143  12.508
49088W        W10377   4.801   0.852   0.869
49089W        W10378  13.622  33.973  14.390
49090W        W10379  13.623  38.074   3.682
49091W        W10380   2.741  18.633  10.518
49092W        W10381   8.303  16.566   4.731
49093W        W10382  25.484  17.560   3.258
49094W        W10383  40.818  33.942  11.913
49095W        W10384  26.139  30.514  12.568
49096W        W10385   7.363   2.913  10.957
49097W        W10386  20.049  12.191  11.899
49098W        W10387  19.041  28.619   2.377
49099W        W10388  10.282  38.932   5.084
49100W        W10389   4.229  15.232  10.440
49101W        W10390  33.896   6.716  10.929
49102W        W10391   2.242  13.281   0.299
49103W        W10392  25.571  40.026   0.345
49104W        W10393  27.571  15.753   1.397
49105W        W10394  23.008  41.380   2.762
49106W        W10395  22.577  40.307  12.436
49107W        W10396  23.054  25.139   5.189
49108W        W10397  30.473  34.925  12.530
49109W        W10398   3.776  25.657  14.833
49110W        W10399   4.433  14.327   3.193
49111W        W10400  11.857   1.440  14.386
49112W        W10401  35.451  36.482  14.511
49113W        W10402  31.623  23.617   0.466
49114W        W10403  34.887  12.634  14.289
49115W        W10404  31.096  16.272   1.904
49116W        W10405   9.210   1.238   2.754
49117W        W10406  12.247  25.200  12.863
49118W        W10407  19.205  43.992  12.580
49119W        W10408   9.292   4.363   0.917
49120W        W10409  16.272  13.191  14.799
49121W        W10410  10.814   5.280   0.307
49122W        W10411  20.043  38.991   1.419
49123W        W10412  26.663  11.791   3.301
49124W        W10413   5.328  20.643  13.335
49125W        W10414  14.173  18.622   1.894
49126W        W10415  42.387  26.155   0.733
49127W        W10416  20.543  22.590   0.433
49128W        W10417   2.880  26.138  10.950
49129W        W10418   3.863  14.109   2.321
49130W        W10419  25.039  26.614   3.795
49131W        W10420  29.007  15.812  12.927
49132W        W10421  43.450  10.301  14.480
49133W        W10422  21.701  11.348   3.191
49134W        W10423  30.492   6.695  13.811
49135W        W10424  30.509  33.516  10.608
49136W        W10425  18.144  33.515   1.787
49137W        W10426   2.443  12.792  11.089
49138W        W10427  39.970  41.011   1.734
49139W        W10428  33.557  38.360  14.404
49140W        W10429  41.294  13.633  10.521
49141W        W10430   7.768   8.841   3.687
49142W        W10431  20.060  21.152  14.882
49143W        W10432  38.862  11.258  14.836
49144W        W10433  11.747   7.366  10.437
49145W        W10434  33.589  29.479  13.941
49146W        W10435  29.469   4.768   4.603
49147W        W10436  35.852   8.381   4.619
49148W        W10437  34.011  21.708   1.430
49149W        W10438  30.619  17.646  13.967
49150W        W10439   4.921  14.149  14.397
49151W        W10440  25.602   6.831  12.078
49152W        W10441  14.323  27.095   0.405
49153W        W10442  11.223  42.899  13.840
49154W        W10443  42.812  16.193   1.398
49155W        W10444  27.000  12.240  11.915
49156W        W10445   2.400  25.499   0.747
49157W        W10446  29.956  39.933  13.431
49158W        W10447  14.659   8.675   1.418
49159W        W10448  44.864   6.183  14.001
49160W        W10449  25.703  28.073   3.705
49161W        W10450   5.241  13.256   1.808
49162W        W10451  32.929  27.165   2.891
49163W        W10452  17.691  20.748  11.537
49164W        W10453  14.786  40.810   2.674
49165W        W10454  30.987  11.142  14.904
49166W        W10455   8.362  25.177  14.466
49167W        W10456  11.232  29.043  13.528
49168W        W10457  14.153  19.142   1.289
49169W        W10458  35.014  32.604  14.022
49170W        W10459  38.390  19.577   2.876
49171W        W10460  17.069  42.417  12.394
49172W        W10461  28.019   7.737  13.929
49173W        W10462  20.662  14.713   4.211
49174W        W10463  41.468  28.125   2.900
49175W        W10464  31.946  25.106   9.979
49176W        W10465  20.653  12.845   2.211
49177W        W10466  34.474   2.469   0.249
49178W        W10467  30.484  44.934  14.785
49179W        W10468  30.459  40.344   3.703
49180W        W10469  33.901  20.037   0.813
49181W        W10470  29.496  10.201  10.573
49182W        W10471  28.961   0.805  13.395
49183W        W10472  15.254  22.097  13.870
49184W        W10473  33.974  41.813   4.258
49185W        W10474  11.729  37.510   3.177
49186W        W10475  21.187   2.928   4.645
49187W        W10476  30.507  17.564   0.311
49188W        W10477  16.144  41.040   2.241
49189W        W10478  31.552  20.167  12.830
49190W        W10479   3.389  33.446   1.749
49191W        W10480  21.202  21.644  11.992
49192W        W10481   9.220   8.685   4.835
49193W        W10482   6.699  22.554   1.315
49194W        W10483  16.154  17.622  13.942
49195W        W10484  42.487  43.422  13.939
49196W        W10485   4.803  24.622   2.401
49197W        W10486   2.227  12.159   1.424
49198W        W10487  20.274   0.922  14.370
49199W        W10488  14.169   3.369  12.087
49200W        W10489  16.254   2.815   3.842
49201W        W10490  39.825   4.255  14.443
49202W        W10491  35.028  10.329  10.957
49203W        W10492   6.868   7.230  13.060
49204W        W10493  25.557  31.985   5.313
49205W        W10494   2.447  18.231  14.806
49206W        W10495  34.876  22.534  11.517
49207W        W10496  44.998  43.347   4.643
49208W        W10497   4.719  20.092  13.971
49209W        W10498  36.852   8.384   2.209
49210W        W10499   6.677  44.753   1.891
49211W        W10500   2.912  13.762  12.001
49212W        W10501  38.930  36.863  12.981
49213W        W10502  35.884  34.009  13.828
49214W        W10503  43.279  34.369  14.456
49215W        W10504   2.788  10.656  10.963
49216W        W10505  17.595  10.749  14.371
49217W        W10506  42.950  17.226  13.886
49218W        W10507  41.306  28.074   2.236
49219W        W10508  36.584   0.773   0.859
49220W        W10509   3.765  41.992  12.877
49221W        W10510  29.919  43.769  10.998
49222W        W10511  11.726  21.748  13.049
49223W        W10512  36.882  32.063  11.888
49224W        W10513  14.832  29.974   2.407
49225W        W10514  31.999  32.602  14.000
49226W        W10515   9.834  43.310   4.126
49227W        W10516  24.160  14.649   2.703
49228W        W10517  12.206  24.582   2.764
49229W        W10518   5.310   1.378  13.855
49230W        W10519   7.339  26.190   3.768
49231W        W10520  41.500  10.700   2.676
49232W        W10521  28.071  37.838   3.274
49233W        W10522  14.796  27.543  13.960
49234W        W10523  40.046  10.722  13.371
49235W        W10524   4.814  36.855   2.803
49236W        W10525   1.833  36.979  11.518
49237W        W10526  28.600   4.250  11.006
49238W        W10527  18.188  35.886  11.416
49239W        W10528  24.720  32.950   0.803
49240W        W10529  41.787  39.412   1.786
49241W        W10530  41.909  18.718   1.773
49242W        W10531  38.340  41.355   1.402
49243W        W10532   6.293   2.374   4.225
49244W        W10533  33.996  43.506  13.062
49245W        W10534  40.515  16.128   0.849
49246W        W10535   7.830  16.298   4.184
49247W        W10536  14.197   8.285   2.896
49248W        W10537  23.500   1.737   4.759
49249W        W10538   4.782  15.327   0.877
49250W        W10539   6.754  19.719   3.308
49251W        W10540   4.784   4.333   1.346
49252W        W10541   0.786  11.683   3.662
49253W        W10542  41.300  38.963  11.003
49254W        W10543  43.990   3.234  13.023
49255W        W10544  14.821   5.701  12.519
49256W        W10545  36.889   5.313   2.890
49257W        W10546   4.770  15.284  14.402
49258W        W10547  32.104   9.652  14.988
49259W        W10548  21.524  27.065  10.551
49260W        W10549  38.880  21.231  12.507
49261W        W10550   0.301  17.305   1.364
49262W        W10551  31.446  39.346   2.714
49263W        W10552   9.263  10.186   0.839
49264W        W10553   9.383  26.659  11.461
49265W        W10554  12.144  21.580   2.691
49266W        W10555  16.695   1.350  10.432
49267W        W10556   7.283   0.987   4.662
49268W        W10557   1.849  24.034   3.383
49269W        W10558  34.042  34.999  12.367
49270W        W10559  31.114   5.697  10.920
49271W        W10560  29.635  24.213   4.764
49272W        W10561  39.444  33.588  14.959
49273W        W10562  33.069   6.880  14.778
49274W        W10563  25.598   6.226  11.975
49275W        W10564  38.854  41.383   5.102
49276W        W10565  18.276  33.578   2.361
49277W        W10566  19.583  23.221  13.840
49278W        W10567  15.624   8.793   2.415
49279W        W10568  17.642  35.944   1.933
49280W        W10569  35.102  16.626  11.869
49281W        W10570  20.725  21.685   1.800
49282W        W10571  25.680  18.785   3.382
49283W        W10572  10.643   2.422  10.626
49284W        W10573  24.645  13.348   2.664
49285W        W10574   4.770  35.358  12.435
49286W        W10575  21.677  26.148  10.566
49287W        W10576  27.109  15.584   0.318
49288W        W10577  27.637  15.311   0.904
49289W        W10578  30.587   0.830   2.229
49290W        W10579   7.779  20.256   0.740
49291W        W10580  15.807   5.236   1.716
49292W        W10581  40.304  17.106  10.994
49293W        W10582  15.714  19.256  11.935
49294W        W10583  24.164  41.508   3.171
49295W        W10584  33.497   0.331   1.889
49296W        W10585  12.662   7.195   2.208
49297W        W10586   2.263  30.494  11.023
49298W        W10587  29.061   3.916   0.933
49299W        W10588  20.041  32.073   0.946
49300W        W10589   4.325  40.826  12.078
49301W        W10590  21.529  29.987  14.789
49302W        W10591  12.247  17.077   3.287
49303W        W10592  35.001  44.842   4.141
49304W        W10593   9.886  19.734  14.365
49305W        W10594  13.839   4.292   4.674
49306W        W10595  32.886   4.764  12.355
49307W        W10596  19.089  12.229  11.967
49308W        W10597  29.112  28.936   3.858
49309W        W10598  41.798   0.745  10.629
49310W        W10599  40.012  10.196  13.996
49311W        W10600  28.439  12.175   0.387
49312W        W10601  12.247  41.915  12.483
49313W        W10602  16.649  22.228  11.382
49314W        W10603   6.767  30.070  14.513
49315W        W10604  23.044  43.811   2.746
49316W        W10605  13.113  42.474   1.715
49317W        W10606   5.210  11.133  10.964
49318W        W10607  24.089  31.065  10.404
49319W        W10608  41.333  44.309  14.942
49320W        W10609  32.614   1.798   2.221
49321W        W10610   4.238  18.086   1.345
49322W        W10611  32.036  31.944   0.873
49323W        W10612  41.013   1.270  11.524
49324W        W10613  32.563  39.943  13.375
49325W        W10614  22.597  13.276  13.025
49326W        W10615  28.145  31.590   4.614
49327W        W10616  12.722  37.068   4.325
49328W        W10617  29.442  43.405  10.940
49329W        W10618   1.873   5.357  14.946
49330W        W10619  18.665  42.854  12.851
49331W        W10620   0.416  12.739  11.440
49332W        W10621   7.826  11.187   3.855
49333W        W10622  11.305  40.901   3.311
49334W        W10623  11.696  34.571   0.876
49335W        W10624  32.994  18.050   2.290
49336W        W10625  38.830  20.564  11.548
49337W        W10626  23.664  37.465  14.768
49338W        W10627  27.129  25.093   3.373
49339W        W10628  20.754   0.359  12.529
49340W        W10629  36.993  17.186   2.752
49341W        W10630  28.447   7.256  14.763
49342W        W10631  41.908  42.369  10.429
49343W        W10632  37.007   8.899   1.805
49344W        W10633  11.668  29.574  13.031
49345W        W10634  23.601  37.463  14.373
49346W        W10635   6.833  10.352   0.472
49347W        W10636  10.709  13.831   0.924
49348W        W10637  13.149   4.867  11.928
49349W        W10638   0.858  17.745   4.742
49350W        W10639   8.359  27.521   0.272
49351W        W10640   3.422  43.419  10.945
49352W        W10641  44.329  27.623  12.554
49353W        W10642   5.346  33.085  11.597
49354W        W10643  18.758  40.010   0.787
49355W        W10644  14.794  28.592  13.491
49356W        W10645  36.591  19.229   3.315
49357W        W10646  27.135  27.022  11.032
49358W        W10647  22.995  36.391  12.451
49359W        W10648  19.754  22.149  10.970
49360W        W10649  12.315  38.844   2.730
49361W        W10650  24.038  32.088  13.439
49362W        W10651   2.906  34.564  11.503
49363W        W10652  20.120  38.898   3.215
49364W        W10653  32.520   8.802   2.882
49365W        W10654  39.498  21.710  14.433
49366W        W10655  28.992   2.236   2.334
49367W        W10656   7.324   3.727  14.918
49368W        W10657   4.714  38.327  11.397
49369W        W10658  34.924  32.400  14.944
49370W        W10659  42.333  23.627  14.510
49371W        W10660  40.844  22.718   3.185
49372W        W10661  14.113   5.868   4.718
49373W        W10662  33.446  26.535   2.674
49374W        W10663   2.466  30.915  13.996
49375W        W10664  13.265  31.567  10.991
49376W        W10665  24.638  12.637  14.495
49377W        W10666  20.589  22.651   3.328
49378W        W10667   9.296   8.709   2.272
49379W        W10668  35.898  14.590   3.266
49380W        W10669  14.628  33.875   4.310
49381W        W10670  25.033  28.635   3.845
49382W        W10671  11.848   2.936  10.021
49383W        W10672  19.231  32.471  10.531
49384W        W10673  40.034  40.950  12.871
49385W        W10674   9.188  40.480   3.643
49386W        W10675  33.428  32.608   3.225
49387W        W10676  24.595   1.481  10.509
49388W        W10677  33.106  22.508   0.885
49389W        W10678  34.875  33.026   3.696
49390W        W10679  28.073   5.756   0.313
49391W        W10680  42.353  30.578   2.275
49392W        W10681  25.139  13.747   3.867
49393W        W10682  40.923   9.660   3.685
49394W        W10683   1.357  33.958  14.966
49395W        W10684  32.405   8.399   4.288
49396W        W10685  16.596  34.016   2.287
49397W        W10686  11.311  10.875  14.301
49398W        W10687   1.764  16.805  14.802
49399W        W10688  31.007  12.842   2.380
49400W        W10689  14.754  28.555   4.817
49401W        W10690  18.712  25.021  11.431
49402W        W10691  32.500   4.792  14.963
49403W        W10692  23.204  20.171  14.327
49404W        W10693  16.138  40.873  11.374
49405W        W10694  27.558   9.204   2.885
49406W        W10695  24.157  34.601   1.844
49407W        W10696  43.822   4.232   4.686
49408W        W10697  31.513   1.887  13.493
49409W        W10698  12.799  10.860  12.842
49410W        W10699  20.591  41.349  14.390
49411W        W10700  15.811  19.601   4.281
49412W        W10701  37.965  43.928  11.499
49413W        W10702   3.769  23.724  11.996
49414W        W10703  19.103  40.505  13.018
49415W        W10704  16.797  21.237   0.335
49416W        W10705  44.874  13.603  11.070
49417W        W10706  31.408   2.752  11.966
49418W        W10707   7.783  12.676  10.623
49419W        W10708  16.123   3.309   1.287
49420W        W10709  26.003  28.674  12.498
49421W        W10710  19.619  36.476   4.179
49422W        W10711  11.276  10.740   0.270
49423W        W10712  34.580   4.376  13.505
49424W        W10713  38.403  40.899   0.776
49425W        W10714  31.605   1.807   4.782
49426W        W10715  37.906  40.018  14.282
49427W        W10716  35.892  30.959  14.431
49428W        W10717  18.629  22.062  13.528
49429W        W10718  22.568  14.222   4.810
49430W        W10719   4.358  19.132  11.436
49431W        W10720  33.048  16.215  12.892
49432W        W10721  26.550   2.361   2.364
49433W        W10722  11.783   0.904   3.269
49434W        W10723  36.577  28.134  12.407
49435W        W10724  35.394  38.052  14.405
49436W        W10725  22.178  34.432   4.127
49437W        W10726   7.236  13.775  12.361
49438W        W10727  38.970  35.402  12.523
49439W        W10728   5.831  37.544  12.391
49440W        W10729  38.505  31.939  14.349
49441W        W10730  25.585  36.479  14.327
49442W        W10731   1.804   9.663   3.706
49443W        W10732  22.167  26.197   1.811
49444W        W10733  36.899   1.431   0.475
49445W        W10734  26.489  44.475   1.320
49446W        W10735   6.756  33.964   1.310
49447W        W10736   6.808  20.581   4.318
49448W        W10737  41.849  20.606  12.022
49449W        W10738  32.966  18.284   2.719
49450W        W10739  25.180  11.185   2.734
49451W        W10740   7.361  28.594   4.165
49452W        W10741   6.274   7.674  10.604
49453W        W10742  25.632  18.619   3.721
49454W        W10743  11.303  12.222   4.757
49455W        W10744  11.325   4.401  13.900
49456W        W10745  16.273  12.668   0.356
49457W        W10746  21.545   1.809   1.806
49458W        W10747  32.058  40.332  14.324
49459W        W10748  14.619  20.638  13.813
49460W        W10749  34.425  38.542   3.220
49461W        W10750  42.326  41.006   1.367
49462W        W10751  34.446  32.576  13.468
49463W        W10752  40.894  26.958   0.427
49464W        W10753  19.566  41.869   2.707
49465W        W10754  11.305  39.359  11.916
49466W        W10755   3.947  34.511  14.353
49467W        W10756  10.709  40.508   3.680
49468W        W10757  26.111  35.973  14.313
49469W        W10758  14.618  33.056   1.390
49470W        W10759   6.723  44.855  10.436
49471W        W10760  37.880   9.383  14.331
49472W        W10761  30.609  11.810   5.086
49473W        W10762  12.656  37.998   3.253
49474W        W10763  14.171   2.293   3.369
49475W        W10764   0.359  14.743   0.423
49476W        W10765  15.164  39.422  11.120
49477W        W10766  23.572   3.909   2.840
49478W        W10767  19.109  19.643  10.569
49479W        W10768  31.997  15.100  10.608
49480W        W10769   3.929   5.750  14.376
49481W        W10770  29.508  11.306   5.248
49482W        W10771  27.007  41.417  10.096
49483W        W10772  31.580  38.032   0.801
49484W        W10773  42.523  41.931   2.284
49485W        W10774  33.491  40.993   1.451
49486W        W10775  37.541  11.665   2.299
49487W        W10776   1.875  40.469   4.234
49488W        W10777  16.685  32.933  11.396
49489W        W10778  10.638  39.902  11.494
49490W        W10779  32.609  23.562  13.508
49491W        W10780  44.795  44.319   2.902
49492W        W10781  39.028   3.878  13.419
49493W        W10782   2.837  11.741  11.430
49494W        W10783  26.489  15.687   3.758
49495W        W10784  40.415  15.670  13.362
49496W        W10785   1.463  44.499  14.404
49497W        W10786  15.276  20.222   5.321
49498W        W10787  35.501  18.786  11.515
49499W        W10788   8.167   0.296  12.047
49500W        W10789   3.334  15.184  12.383
49501W        W10790  16.256  36.045   2.744
49502W        W10791  21.147   3.860   5.302
49503W        W10792  12.118   8.208  12.905
49504W        W10793  15.164  22.617   4.206
49505W        W10794  28.677  24.985   4.183
49506W        W10795  15.675  16.591   1.869
49507W        W10796  20.680  20.663  12.410
49508W        W10797  38.460  40.869  11.893
49509W        W10798  10.198  35.591   0.937
49510W        W10799  41.498   5.346   2.412
49511W        W10800  44.758  24.164   4.671
49512W        W10801  42.787  27.620   4.612
49513W        W10802  39.018   6.381  12.549
49514W        W10803  25.529   1.254   2.373
49515W        W10804  31.021   6.241   3.756
49516W        W10805  24.017  21.244   1.250
49517W        W10806  12.156  44.971   2.666
49518W        W10807   9.383  15.590  13.543
49519W        W10808  16.699  34.439   2.825
49520W        W10809  14.773  30.433  14.466
49521W        W10810   7.798  22.106   2.412
49522W        W10811   0.899  26.659   4.828
49523W        W10812  26.585   0.857  10.888
49524W        W10813  17.616  37.025  12.541
49525W        W10814  33.081  27.518   3.209
49526W        W10815  22.163  13.254  13.441
49527W        W10816  13.206  12.356  10.592
49528W        W10817  17.641  14.221  11.446
49529W        W10818   4.239   6.791   3.308
49530W        W10819  32.587  31.411  13.884
49531W        W10820  13.602  29.958   0.827
49532W        W10821  21.647   6.254   2.203
49533W        W10822  21.046  14.808   4.657
49534W        W10823   1.440  29.014   4.149
49535W        W10824  30.944  14.206   0.471
49536W        W10825   6.189   7.257   2.238
49537W        W10826  26.459  42.831   1.764
49538W        W10827   4.419  20.181  11.489
49539W        W10828  21.623  41.893  11.557
49540W        W10829   6.404   8.337  12.399
49541W        W10830  30.562   0.386   2.248
49542W        W10831  33.927  13.629  10.934
49543W        W10832   2.910  10.355  10.982
49544W        W10833  23.576  36.861  11.580
49545W        W10834   6.713  26.589   4.213
49546W        W10835  13.634  27.951   4.717
49547W        W10836   2.923  44.446  12.441
49548W        W10837  42.874  33.566   0.771
49549W        W10838  14.718   8.394   1.231
49550W        W10839   6.835  29.938   2.863
49551W        W10840   0.257  35.092  14.508
49552W        W10841  15.209  11.660   2.824
49553W        W10842  10.853  43.811  12.373
49554W        W10843   4.426  39.880  13.437
49555W        W10844  35.522  11.643  11.923
49556W        W10845  10.784  32.926   1.422
49557W        W10846  29.604  29.667  14.361
49558W        W10847   4.215  26.605  11.092
49559W        W10848  29.124  20.116   3.863
49560W        W10849   1.738  18.252   4.642
49561W        W10850  28.519  13.282  13.473
49562W        W10851  40.817  44.267  13.938
49563W        W10852   9.692   9.778   1.707
49564W        W10853   8.793  21.134   4.148
49565W        W10854   3.798  40.442   4.174
49566W        W10855  38.074   1.477   3.166
49567W        W10856  26.661   8.217   0.287
49568W        W10857  30.967  25.585   4.606
49569W        W10858  34.080  27.996  14.439
49570W        W10859  24.597  28.534   0.855
49571W        W10860  20.658  39.833   0.268
49572W        W10861  22.239  43.851  10.598
49573W        W10862  22.151  10.642   3.730
49574W        W10863  21.033  21.255  11.885
49575W        W10864  10.875  43.380  14.374
49576W        W10865  36.875  16.693  10.462
49577W        W10866  20.653  27.074  11.948
49578W        W10867   0.747  19.686   3.661
49579W        W10868   4.719  14.729  12.888
49580W        W10869  23.003  38.416  13.882
49581W        W10870   6.821  41.516   3.178
49582W        W10871  38.886   1.761  11.963
49583W        W10872  24.628  21.127   1.336
49584W        W10873  35.989  14.120   3.828
49585W        W10874  26.607  39.431  11.396
49586W        W10875  21.055  11.310  13.525
49587W        W10876  44.419   1.946   3.379
49588W        W10877  32.898  39.933  13.936
49589W        W10878  18.098   8.286   0.733
49590W        W10879   7.813  44.389  12.452
49591W        W10880   1.399   3.305   2.731
49592W        W10881  26.061  17.280  13.958
49593W        W10882   4.343  21.750  11.553
49594W        W10883  24.481  18.786   3.163
49595W        W10884  15.225  44.998   4.714
49596W        W10885   2.870   0.283   2.683
49597W        W10886  37.046  15.191   3.747
49598W        W10887  17.574  24.547  12.391
49599W        W10888  32.941  38.000  13.822
49600W        W10889   4.206  14.636   0.335
49601W        W10890  40.996  18.610   1.788
49602W        W10891  24.663  31.559  13.867
49603W        W10892  19.702   2.443  12.060
49604W        W10893  17.732  32.949  14.029
49605W        W10894  43.326   9.722   3.796
49606W        W10895  28.044  22.253   4.268
49607W        W10896  44.478   7.247  13.364
49608W        W10897   1.375   9.832   4.172
49609W        W10898   8.845  16.307  11.046
49610W        W10899   9.735  16.745   3.637
49611W        W10900  31.900  40.341   3.348
49612W        W10901  40.334  24.196   3.241
49613W        W10902  30.576  39.530   1.418
49614W        W10903  36.540  30.463  14.501
49615W        W10904  27.038  20.274  11.102
49616W        W10905   9.659  27.975  14.432
49617W        W10906  41.471  38.940  12.998
49618W        W10907  31.431  31.407   4.281
49619W        W10908  33.505  15.737  11.965
49620W        W10909  34.894  35.366  14.959
49621W        W10910   0.433  18.077   1.386
49622W        W10911  30.068  44.290   3.814
49623W        W10912  33.624  34.088  10.113
49624W        W10913  16.803   0.396  14.914
49625W        W10914   1.277  20.544  12.349
49626W        W10915  41.789  20.662   4.352
49627W        W10916  40.464  22.112   3.752
49628W        W10917  22.105  42.831  12.496
49629W        W10918   5.798  24.108   0.876
49630W        W10919   6.339  27.617  11.571
49631W        W10920   2.960   4.339  13.386
49632W        W10921  25.561  14.609  13.330
49633W        W10922  31.540  31.978  11.587
49634W        W10923  13.634   5.358  13.009
49635W        W10924  34.989  10.373  12.072
49636W        W10925  27.606  32.442  14.452
49637W        W10926   6.729  39.859   3.726
49638W        W10927   4.805  13.744   1.740
49639W        W10928  25.975   3.307  13.528
49640W        W10929  15.225   6.680   3.754
49641W        W10930  11.780   4.405  11.891
49642W        W10931  19.659  12.685  10.528
49643W        W10932  13.691  19.704   2.705
49644W        W10933  26.985  40.803   3.645
49645W        W10934  16.232  35.579   1.842
49646W        W10935  29.053   9.805   0.399
49647W        W10936  13.290  23.109  14.470
49648W        W10937  33.998  10.734  13.968
49649W        W10938  29.165  44.952  14.770
49650W        W10939  17.601  18.104  14.817
49651W        W10940  17.234   6.416   0.749
49652W        W10941  16.190  32.555   1.744
49653W        W10942  22.515  42.800  13.320
49654W        W10943  12.843  32.028  11.913
49655W        W10944   6.850  36.371   0.738
49656W        W10945  21.138  10.685  11.590
49657W        W10946   6.427  27.549  13.808
49658W        W10947   9.696  13.614  13.820
49659W        W10948  43.907  31.440  11.006
49660W        W10949   9.785  33.495  12.962
49661W        W10950  25.542   9.812  13.992
49662W        W10951  44.269  17.293  14.890
49663W        W10952  13.148  22.237  14.782
49664W        W10953  41.449  42.973   1.368
49665W        W10954  10.333  15.279  11.511
49666W        W10955   8.328  40.819   2.867
49667W        W10956  18.665  31.452  14.434
49668W        W10957  43.969   0.802  11.905
49669W        W10958  13.700  28.100  12.559
49670W        W10959  41.425  39.063   0.466
49671W        W10960  43.933   7.327  14.311
49672W        W10961  37.951   3.900   3.251
49673W        W10962  11.629  15.321   1.797
49674W        W10963  11.712   1.278  11.900
49675W        W10964  14.279  36.055  11.001
49676W        W10965  33.883  29.026   3.241
49677W        W10966  33.079  40.363  13.041
49678W        W10967  33.417   6.769  13.818
49679W        W10968  28.111  14.721   4.261
49680W        W10969  41.870  20.062  14.956
49681W        W10970  43.448  36.871   1.303
49682W        W10971  29.944  16.656   1.262
49683W        W10972  44.334  39.824   2.263
49684W        W10973   9.393  21.576   0.293
49685W        W10974  32.125  14.668   1.210
49686W        W10975   5.706  32.539  13.896
49687W        W10976  25.622  11.827   1.415
49688W        W10977  15.583  10.680  11.464
49689W        W10978  19.102  36.988  12.073
49690W        W10979  28.157   3.910   1.790
49691W        W10980  18.630  22.502   4.821
49692W        W10981  16.706  44.869   4.786
49693W        W10982  20.678  17.595   4.128
49694W        W10983  24.214  44.961   4.622
49695W        W10984  39.466  26.565   3.757
49696W        W10985  29.941  30.043   4.343
49697W        W10986  37.971   5.206  11.041
49698W        W10987  33.392  26.616   2.327
49699W        W10988  24.675  43.329   0.732
49700W        W10989  17.120  27.057   2.273
49701W        W10990  34.424   7.323   4.173
49702W        W10991  27.942   8.359  12.516
49703W        W10992   0.330  25.589  14.328
49704W        W10993  34.024   1.855  13.045
49705W        W10994  34.402  16.692   2.811
49706W        W10995  26.508  26.651   4.831
49707W        W10996  19.164  42.875   2.896
49708W        W10997  40.474  16.718   3.797
49709W        W10998   4.289  27.670  13.336
49710W        W10999   6.351   6.746   0.456
49711W        W11000  11.725  26.089  14.385
49712W        W11001  24.521  16.211   3.189
49713W        W11002  17.611   9.307  12.519
49714W        W11003   4.938  39.523   2.260
49715W        W11004  15.719   9.849   3.156
49716W        W11005  22.055  39.393   0.465
49717W        W11006  24.184  14.255  11.972
49718W        W11007  18.089  37.873   0.897
49719W        W11008  12.195  21.696  13.864
49720W        W11009   3.827   4.744   4.326
49721W        W11010  16.293  23.117  10.484
49722W        W11011   8.326   7.374  10.534
49723W        W11012  39.047   4.745   2.836
49724W        W11013   6.702  19.617  14.789
49725W        W11014  15.629  38.395  13.796
49726W        W11015  15.793  32.546   4.245
49727W        W11016   3.938  26.617   9.988
49728W        W11017  14.098  43.796   0.273
49729W        W11018  43.857  30.996  13.038
49730W        W11019  19.050   3.813  10.944
49731W        W11020   8.255  10.671   0.278
49732W        W11021  11.692  16.292   1.701
49733W        W11022  25.582   2.954  13.535
49734W        W11023  31.535   9.224  10.926
49735W        W11024  21.017   0.947   2.206
49736W        W11025  19.753   2.898  10.526
49737W        W11026  16.118  40.970  14.295
49738W        W11027  32.102  17.245  11.478
49739W        W11028  10.636   5.902   1.750
49740W        W11029  22.741  18.227  13.976
49741W        W11030  15.758  42.396   1.401
49742W        W11031  44.329   9.808   1.242
49743W        W11032   3.285   6.800   0.359
49744W        W11033   9.669  27.615  14.393
49745W        W11034   8.167  19.281  10.483
49746W        W11035  32.396   4.351  12.946
49747W        W11036   1.893  19.618  13.020
49748W        W11037  32.020  24.012  11.454
49749W        W11038  34.086  43.962   2.393
49750W        W11039  31.007   4.288  13.923
49751W        W11040  26.461  28.635  12.023
49752W        W11041  31.486  22.098   0.744
49753W        W11042  40.827   2.791   4.141
49754W        W11043  18.627  23.098   2.704
49755W        W11044  12.172  15.650  10.620
49756W        W11045  19.748  36.872   0.463
49757W        W11046  10.265   2.776   4.157
49758W        W11047   7.395  25.708   5.294
49759W        W11048  21.048  13.763   4.620
49760W        W11049  22.081  44.834  13.835
49761W        W11050  31.004   5.771  12.825
49762W        W11051  30.987  44.009   4.832
49763W        W11052   0.812  18.220  10.891
49764W        W11053  10.197   8.225   1.381
49765W        W11054   2.733  27.951   2.272
49766W        W11055  27.548  27.057  13.338
49767W        W11056  33.077   8.678  14.285
49768W        W11057  44.276  20.198   0.473
49769W        W11058  33.487  23.033  10.950
49770W        W11059   8.270  21.245   1.740
49771W        W11060  39.349  32.602   2.782
49772W        W11061  10.285   4.355   3.783
49773W        W11062  42.511  44.435  11.538
49774W        W11063  34.048  10.707   0.325
49775W        W11064  39.330  17.687  13.857
49776W        W11065  30.998   4.841  14.401
49777W        W11066  40.524  37.884  11.510
49778W        W11067   1.812  10.749   2.771
49779W        W11068  16.279  16.710   3.312
49780W        W11069   3.726   2.280  14.275
49781W        W11070  15.217  23.057   1.717
49782W        W11071   4.916  37.885  13.028
49783W        W11072  19.707  11.831   4.355
49784W        W11073  27.555  25.656  10.943
49785W        W11074   0.907  21.556   1.729
49786W        W11075  43.276   0.789  12.938
49787W        W11076  23.513  26.557  13.853
49788W        W11077   1.743   6.249   2.213
49789W        W11078   8.816  24.997   4.181
49790W        W11079  40.013   0.764   3.733
49791W        W11080  43.450   8.892   4.132
49792W        W11081  39.552  11.368   1.867
49793W        W11082  43.881  34.042  14.324
49794W        W11083  34.001   7.218   4.689
49795W        W11084  31.015   1.882   4.799
49796W        W11085   4.928  21.721   4.669
49797W        W11086   1.880  27.125   3.218
49798W        W11087  10.737   4.431  11.939
49799W        W11088   3.348   2.357  13.851
49800W        W11089  26.546  41.026  12.341
49801W        W11090  20.684  14.789  10.443
49802W        W11091  33.016   9.213   3.183
49803W        W11092  38.396  34.406  14.347
49804W        W11093  17.698   4.747  12.551
49805W        W11094  28.593  19.657   2.856
49806W        W11095  38.336  41.369  12.039
49807W        W11096  23.604  34.994   2.326
49808W        W11097  21.103  15.207  12.441
49809W        W11098  30.519  22.008  10.418
49810W        W11099   6.784  33.940  14.938
49811W        W11100  34.919  39.831  10.609
49812W        W11101  25.637   7.698   3.247
49813W        W11102  11.307   6.803   3.790
49814W        W11103  38.867  13.330   5.168
49815W        W11104   5.276   9.329   0.838
49816W        W11105  22.661  12.708   0.253
49817W        W11106  30.453  16.605  10.506
49818W        W11107  39.926  16.745   0.885
49819W        W11108  19.181  29.553   2.768
49820W        W11109  44.955  32.583  11.540
49821W        W11110   1.397   0.772  10.509
49822W        W11111  27.059  34.959  14.499
49823W        W11112   8.900  15.127   4.646
49824W        W11113  15.809  28.536   4.730
49825W        W11114   6.733  29.539  12.466
49826W        W11115  22.674   0.817   0.388
49827W        W11116  22.542  29.061  10.497
49828W        W11117  43.891   4.253   2.212
49829W        W11118  11.639  30.967   2.324
49830W        W11119  22.687  39.929   9.982
49831W        W11120  22.626  24.665   4.213
49832W        W11121  31.458  12.691   4.808
49833W        W11122   3.786   5.317  11.967
49834W        W11123  18.768   1.850   0.394
49835W        W11124  17.656  33.445  11.597
49836W        W11125   3.336  44.499  12.347
49837W        W11126   0.832  33.580  14.842
49838W        W11127   6.376  18.135   3.147
49839W        W11128  12.141   7.221   3.722
49840W        W11129  36.850  42.345   4.655
49841W        W11130  21.113  21.528   4.829
49842W        W11131  43.850  19.600   0.772
49843W        W11132  15.220   4.429  14.879
49844W        W11133  39.957   7.323   2.279
49845W        W11134  28.100  42.000   0.914
49846W        W11135  31.040  26.495   1.731
49847W        W11136  10.153  13.342  11.102
49848W        W11137  31.447  29.532   3.817
49849W        W11138   0.879  33.987  12.867
49850W        W11139  16.283  31.048  10.573
49851W        W11140  29.928   1.275  12.476
49852W        W11141  30.427  38.975   2.665
49853W        W11142  38.535  21.656  13.860
49854W        W11143  43.803  16.308  11.938
49855W        W11144   6.397  26.669   4.256
49856W        W11145   6.841  23.030  14.941
49857W        W11146   1.297  11.653   3.335
49858W        W11147  35.086   5.802   2.791
49859W        W11148  14.629   1.790  11.552
49860W        W11149  32.954  38.059  14.373
49861W        W11150  41.821  14.649   0.762
49862W        W11151   5.872   7.840  12.420
49863W        W11152  10.152  16.710   2.683
49864W        W11153  10.153  34.567  12.876
49865W        W11154  41.907  17.696  10.550
49866W        W11155  23.690  37.927   4.324
49867W        W11156  23.157  26.524  14.504
49868W        W11157  30.047  28.098  11.877
49869W        W11158   8.834   7.218  10.563
49870W        W11159  15.124  33.550  14.803
49871W        W11160  37.373  23.689  13.030
49872W        W11161  42.343  36.588  14.905
49873W        W11162  41.513   8.812  10.585
49874W        W11163  21.716  32.087   2.828
49875W        W11164   8.290  40.805   0.828
49876W        W11165  42.397  39.551  12.556
49877W        W11166  15.141  27.156  10.509
49878W        W11167   9.262  35.588  11.098
49879W        W11168  14.611  28.483   0.751
49880W        W11169  34.991  37.489  14.839
49881W        W11170  39.047  42.833   4.330
49882W        W11171  39.381  34.405   4.255
49883W        W11172  17.710  44.820  12.891
49884W        W11173  18.060  21.261   1.811
49885W        W11174  40.013  18.630   2.791
49886W        W11175  23.086  33.515   2.747
49887W        W11176  43.926  29.624   0.252
49888W        W11177  34.013   5.732   4.741
49889W        W11178   7.905  22.079   3.730
49890W        W11179  41.427   8.847   4.670
49891W        W11180   0.894  39.957   4.196
49892W        W11181  41.380  30.610  12.895
49893W        W11182   2.256  20.568  11.940
49894W        W11183   3.862  21.177  12.917
49895W        W11184  36.404   2.828   3.268
49896W        W11185  12.765  38.332   5.226
49897W        W11186  41.450  10.734  10.638
49898W        W11187  43.357  37.055   2.347
49899W        W11188   2.953  35.973   2.888
49900W        W11189  20.670  28.643  13.805
49901W        W11190  15.638   5.289   4.741
49902W        W11191  40.517  32.086   4.255
49903W        W11192   0.283  43.902  10.604
49904W        W11193   5.283  42.415   2.794
49905W        W11194  15.824  12.720   3.161
49906W        W11195  40.009  44.809   3.704
49907W        W11196  26.675   5.846  12.945
49908W        W11197   5.787  11.653  14.493
49909W        W11198  17.303   7.182  12.372
49910W        W11199  24.218  31.024   0.304
49911W        W11200  13.688  27.968   2.374
49912W        W11201  27.569  12.308  10.591
49913W        W11202   7.272  42.840  10.626
49914W        W11203  24.623  24.202   0.795
49915W        W11204  18.634   8.714  11.044
49916W        W11205  19.735  17.580   0.257
49917W        W11206  12.686   3.917   5.129
49918W        W11207  22.682  36.592  14.414
49919W        W11208  38.957   3.411  10.556
49920W        W11209  27.087  34.033  11.980
49921W        W11210  44.911  11.673   1.309
49922W        W11211  25.080  17.774  12.410
49923W        W11212  36.898  43.438   0.777
49924W        W11213  13.604  30.086  10.997
49925W        W11214  11.306  32.066  12.519
49926W        W11215  17.192  14.633  12.000
49927W        W11216   0.302  33.420  14.848
49928W        W11217  19.220  19.208  11.977
49929W        W11218  31.502  36.467  13.834
49930W        W11219  22.162  30.450   2.402
49931W        W11220   2.944  14.302   3.670
49932W        W11221   0.340  32.958   4.241
49933W        W11222   8.860  18.101  14.930
49934W        W11223  39.553  37.534  12.412
49935W        W11224  13.725  27.950   1.798
49936W        W11225  37.380  39.864  10.945
49937W        W11226   0.837  10.733   3.688
49938W        W11227  39.547   5.820   1.226
49939W        W11228  15.756  43.777   4.622
49940W        W11229  17.792  44.817   2.819
49941W        W11230  40.392  17.302  11.559
49942W        W11231  22.722  27.617  14.304
49943W        W11232  42.350   3.779   3.817
49944W        W11233  14.221  43.991  11.009
49945W        W11234   6.838  26.639  13.868
49946W        W11235  11.723   9.778   4.710
49947W        W11236  44.460  42.866  11.905
49948W        W11237   2.763  10.219  10.593
49949W        W11238  35.452  26.654   0.249
49950W        W11239  15.615  35.372   4.347
49951W        W11240  29.428  31.483  10.516
49952W        W11241   7.725   7.344  12.497
49953W        W11242   3.728  23.601  11.551
49954W        W11243  38.485  32.887   2.281
49955W        W11244  21.570  20.205   1.267
49956W        W11245   1.427  29.583   0.879
49957W        W11246  19.748   5.750  13.378
49958W        W11247   7.909  13.239  11.926
49959W        W11248   1.845   6.892  14.001
49960W        W11249  17.094  39.907   3.258
49961W        W11250  33.005  23.701   4.233
49962W        W11251  23.240   4.303   2.356
49963W        W11252  28.027  37.532   2.186
49964W        W11253  37.916  21.563   2.361
49965W        W11254  41.319   2.380  11.946
49966W        W11255  43.498  32.894   4.693
49967W        W11256  37.958   5.869  11.582
49968W        W11257   3.763  26.485   4.353
49969W        W11258  11.153  30.439  11.963
49970W        W11259  26.469  13.681  14.427
49971W        W11260   3.412  44.279  10.559
49972W        W11261   5.347  29.618   2.695
49973W        W11262  33.956  29.625   1.250
49974W        W11263   3.858   7.249  13.346
49975W        W11264  43.319  29.561  11.875
49976W        W11265  12.254   7.704  14.485
49977W        W11266  20.032   1.850  11.981
49978W        W11267  33.890  32.941   4.239
49979W        W11268  37.907  19.643  14.356
49980W        W11269  22.104  28.979  14.384
49981W        W11270  31.959  17.724   4.237
49982W        W11271  43.810  16.702   4.151
49983W        W11272  44.433  16.618   3.741
49984W        W11273   5.264   4.272   2.878
49985W        W11274  33.974  26.516  10.533
49986W        W11275  35.994   2.328   1.901
49987W        W11276  19.649  43.945  13.037
49988W        W11277   9.752   3.716   4.346
49989W        W11278   4.869  19.762   4.733
49990W        W11279   0.903  34.592  11.913
49991W        W11280  12.132  21.557  12.831
49992W        W11281   2.369   8.173  13.444
49993W        W11282  20.570   3.422   5.290
49994W        W11283  21.579   3.369  12.517
49995W        W11284  13.298  34.076   3.314
49996W        W11285  11.152  12.717  14.886
49997W        W11286   0.427  15.661  14.364
49998W        W11287  27.028  13.730   3.714
49999W        W11288  28.610  38.506  13.041
50000W        W11289  16.247  42.026   4.266
50001W        W11290  16.177  16.146  10.637
50002W        W11291  33.016  40.030   3.664
50003W        W11292  37.574  23.143   0.901
50004W        W11293  29.973  39.843   2.325
50005W        W11294  11.647  33.943   2.844
50006W        W11295   2.275  27.550  10.470
50007W        W11296  42.319  36.016  12.357
50008W        W11297  29.920   8.344   0.379
50009W        W11298  20.204  34.889   0.363
50010W        W11299  44.286  13.602   1.790
50011W        W11300   8.222  18.129   3.316
50012W        W11301  10.307  27.575   4.113
50013W        W11302   2.731  43.480  12.445
50014W        W11303  12.185  22.732  12.984
50015W        W11304  24.149  37.506  13.462
50016W        W11305  28.503   2.246   4.249
50017W        W11306   2.859  30.442  13.882
50018W        W11307  37.352  37.394   1.704
50019W        W11308  20.767  15.733   1.713
50020W        W11309  17.141   1.920   3.286
50021W        W11310  28.999  39.420   0.307
50022W        W11311  31.492  42.958  13.505
50023W        W11312   1.290   3.440   0.874
50024W        W11313  31.510  35.864  14.432
50025W        W11314  33.012  12.346  11.059
50026W        W11315  20.028  13.311  14.412
50027W        W11316  21.207   1.413   0.756
50028W        W11317  27.617  15.659   0.931
50029W        W11318  25.105  36.952   1.309
50030W        W11319  24.138   3.347   0.261
50031W        W11320  36.842   2.952   4.162
50032W        W11321  18.788  27.977  13.439
50033W        W11322  21.223  38.382  14.802
50034W        W11323  44.461   6.732   3.212
50035W        W11324  14.190   2.311  14.446
50036W        W11325  27.083  30.531  12.517
50037W        W11326  31.497  10.172  14.483
50038W        W11327  23.494  43.288   2.883
50039W        W11328  31.644   6.821  11.407
50040W        W11329  38.933   2.863  10.617
50041W        W11330  27.149  29.143   2.889
50042W        W11331   1.282  25.021   2.715
50043W        W11332   6.911   6.276  11.051
50044W        W11333  37.566   2.736   3.764
50045W        W11334  29.500  15.275   4.144
50046W        W11335  15.749  38.385  12.366
50047W        W11336  21.102   5.886  13.833
50048W        W11337  22.995  34.120   0.819
50049W        W11338  34.867  29.176  14.434
50050W        W11339  41.826   9.160   3.293
50051W        W11340  13.646  16.645   1.916
50052W        W11341   9.748  20.732   1.810
50053W        W11342   3.229  42.863  12.851
50054W        W11343  28.067  30.992   2.857
50055W        W11344  28.121  35.070   1.245
50056W        W11345  20.580  20.273  11.010
50057W        W11346   4.906   1.858   3.148
50058W        W11347  18.142   8.850  10.900
50059W        W11348  16.235   8.760   0.796
50060W        W11349   8.397  11.222  11.078
50061W        W11350  30.102  10.375  14.820
50062W        W11351  29.926  43.287  12.389
50063W        W11352  17.073  28.595  13.852
50064W        W11353   8.717  10.172  13.347
50065W        W11354   9.256  23.998  10.645
50066W        W11355  24.973   8.787   3.769
50067W        W11356  17.581  36.871  10.961
50068W        W11357  35.496  20.058   1.873
50069W        W11358  22.544  39.475   0.929
50070W        W11359  19.713   6.901   4.816
50071W        W11360  29.050  37.374   3.845
50072W        W11361  25.576  16.712   4.141
50073W        W11362  37.982  26.059  12.035
50074W        W11363   2.928  39.857  13.423
50075W        W11364  39.407  32.089  12.571
50076W        W11365  23.064  21.631   3.839
50077W        W11366  38.445  43.363  10.569
50078W        W11367  32.600  43.469  10.605
50079W        W11368   7.382  15.202  14.295
50080W        W11369   4.272  37.995  10.575
50081W        W11370  42.522  37.396   4.622
50082W        W11371  42.416  37.899   4.660
50083W        W11372  34.955  23.494   4.281
50084W        W11373  15.176  12.856  11.483
50085W        W11374  29.979  37.565  14.812
50086W        W11375  37.414  41.021   3.234
50087W        W11376  15.790   0.306  12.027
50088W        W11377  17.192   5.396  11.613
50089W        W11378   4.787  15.113   5.103
50090W        W11379  12.648  44.823  13.009
50091W        W11380  27.671  37.569  11.599
50092W        W11381   1.970   4.786   5.312
50093W        W11382  22.147  27.172  12.344
50094W        W11383  15.790  16.740   0.936
50095W        W11384  38.344  25.672  11.059
50096W        W11385  26.990  42.892  13.509
50097W        W11386  43.320  27.019   4.311
50098W        W11387  41.945   1.942  11.084
50099W        W11388  44.439  29.638  13.917
50100W        W11389  24.223  40.462  10.455
50101W        W11390  36.527   4.429   2.254
50102W        W11391  41.478  40.805   1.813
50103W        W11392  38.360  14.310   4.225
50104W        W11393  21.261   0.371   0.779
50105W        W11394   2.313   8.671   1.932
50106W        W11395  18.064   6.279   1.276
50107W        W11396   2.725  25.160  11.053
50108W        W11397  18.241  32.609  13.320
50109W        W11398  43.862   0.895   2.835
50110W        W11399  10.820  22.693  13.861
50111W        W11400  25.667  37.517  11.976
50112W        W11401  25.987  36.847  11.522
50113W        W11402  14.798  30.002  14.974
50114W        W11403  35.497  12.637  13.350
50115W        W11404   2.762  23.682   0.811
50116W        W11405  36.863  14.190   3.775
50117W        W11406  23.012   3.230   1.262
50118W        W11407  18.680  33.442   5.202
50119W        W11408  36.559  33.127   4.196
50120W        W11409  26.520  10.179   1.695
50121W        W11410  24.101  13.607  10.896
50122W        W11411  11.127  14.176   3.862
50123W        W11412  17.644  26.532   2.878
50124W        W11413   8.350  20.534   4.181
50125W        W11414  23.714  12.194   2.717
50126W        W11415  24.100  14.672   1.364
50127W        W11416  11.866  27.658   0.320
50128W        W11417  31.569  13.795  11.000
50129W        W11418   8.167  23.562  14.391
50130W        W11419  19.636  36.870   4.691
50131W        W11420  29.105   8.230   9.656
50132W        W11421  22.143  41.007   1.210
50133W        W11422  27.679  24.081   2.274
50134W        W11423  20.703  10.718   1.900
50135W        W11424  19.732   5.923   3.670
50136W        W11425  27.979  15.670   0.863
50137W        W11426  38.349  32.416  13.811
50138W        W11427  14.138  37.873   1.308
50139W        W11428   3.424  41.510   3.719
50140W        W11429  43.379  24.157  13.501
50141W        W11430   3.731  17.556  13.992
50142W        W11431  36.058  22.673  14.824
50143W        W11432  23.629   9.696   2.833
50144W        W11433  17.783  32.928   3.748
50145W        W11434  25.645  10.643  11.069
50146W        W11435  29.972   3.352  10.927
50147W        W11436  12.635  22.662   1.348
50148W        W11437   9.177  27.175   4.677
50149W        W11438  19.187  41.039  13.792
50150W        W11439  10.339  10.206   1.916
50151W        W11440  39.381  31.631  11.381
50152W        W11441  27.993  40.945  14.371
50153W        W11442  20.136   3.260  11.555
50154W        W11443   8.828   5.365   2.673
50155W        W11444  35.498  24.019   0.294
50156W        W11445   8.289  38.879  11.863
50157W        W11446  40.319  11.734   0.331
50158W        W11447  17.293  42.814   0.832
50159W        W11448  14.604  40.963   4.167
50160W        W11449  26.058  16.149  12.903
50161W        W11450  18.127   9.314   0.889
50162W        W11451  34.086  23.643  13.311
50163W        W11452  40.984   9.322   9.977
50164W        W11453  18.155  31.949   2.671
50165W        W11454  20.091  27.019  12.372
50166W        W11455  22.559  19.740   9.964
50167W        W11456   1.351   9.680   1.925
50168W        W11457  28.576  32.073   1.733
50169W        W11458   5.434  42.794  14.514
50170W        W11459  16.603  27.977   3.857
50171W        W11460  39.461  19.728  14.811
50172W        W11461   7.797  39.551   1.875
50173W        W11462  11.269  15.194   0.781
50174W        W11463  23.083  26.983   2.859
50175W        W11464  21.555  12.308  12.856
50176W        W11465   3.229  31.095  14.410
50177W        W11466  32.575  28.449   0.407
50178W        W11467  36.501  42.375   4.159
50179W        W11468  21.193  36.540   3.716
50180W        W11469  26.020  34.485  12.829
50181W        W11470   0.903  15.217   3.660
50182W        W11471  12.626  14.255  13.486
50183W        W11472  17.773  11.822   1.850
50184W        W11473  11.340  43.452  10.088
50185W        W11474  44.780  21.747   1.885
50186W        W11475  14.673  28.996  12.466
50187W        W11476  33.913  23.679   5.261
50188W        W11477  12.189  39.826  12.889
50189W        W11478  27.947  32.049  11.987
50190W        W11479  14.289   4.708   0.418
50191W        W11480  29.628  31.986  14.926
50192W        W11481   8.685  18.162   3.294
50193W        W11482  32.465  11.341   2.761
50194W        W11483  37.437   4.823  10.427
50195W        W11484  22.146  25.691  11.525
50196W        W11485  30.045  18.193  12.446
50197W        W11486   2.725  15.781  14.302
50198W        W11487  38.001   2.773   0.865
50199W        W11488  25.557  42.403  14.379
50200W        W11489  38.831  36.094   3.321
50201W        W11490   3.795  29.496  14.416
50202W        W11491   8.250  41.002  14.368
50203W        W11492  34.117  32.633  11.432
50204W        W11493  23.512   0.803   2.675
50205W        W11494  20.630  25.089  12.398
50206W        W11495  28.528   2.878  14.996
50207W        W11496   8.764  35.956   4.211
50208W        W11497  20.160   9.753   4.805
50209W        W11498  15.137  23.047   2.766
50210W        W11499  32.057  27.467  11.390
50211W        W11500   3.329  20.095   2.821
50212W        W11501  25.036   1.253   0.882
50213W        W11502  41.397  25.161   2.392
50214W        W11503   6.820  19.683   4.175
50215W        W11504  22.567  27.614  11.520
50216W        W11505  39.542  18.621   1.914
50217W        W11506  37.530  12.199  11.018
50218W        W11507  18.255  10.782  10.462
50219W        W11508  41.897  12.222  11.877
50220W        W11509   3.906  38.025  12.034
50221W        W11510  10.686  17.559   0.395
50222W        W11511   8.339  25.626   2.191
50223W        W11512  28.650  21.208   2.891
50224W        W11513   6.255  30.649   1.252
50225W        W11514  13.678   6.913   0.436
50226W        W11515   5.800  39.981  14.303
50227W        W11516  21.027  29.565  13.863
50228W        W11517  25.217  37.938   4.285
50229W        W11518  32.109  30.974   0.781
50230W        W11519  31.449  23.500   2.267
50231W        W11520   8.386  18.578   0.912
50232W        W11521  38.929  44.761  10.995
50233W        W11522  42.399  41.965  11.545
50234W        W11523  38.496  15.687   9.486
50235W        W11524   4.279  36.426  11.581
50236W        W11525  27.630  32.140   5.142
50237W        W11526  26.099  40.807   2.669
50238W        W11527  19.545  10.173   4.248
50239W        W11528  43.812   4.341  11.452
50240W        W11529  34.914  14.739   4.351
50241W        W11530  43.956   0.249  10.624
50242W        W11531  38.510  29.456   2.403
50243W        W11532  14.784  15.662  13.802
50244W        W11533   9.809  26.688  10.536
50245W        W11534  27.581  31.578   3.680
50246W        W11535  12.153  31.929  12.373
50247W        W11536  29.453  16.739   2.783
50248W        W11537  12.612  22.584  12.551
50249W        W11538  21.163   7.354   4.308
50250W        W11539  23.212   6.233  14.454
50251W        W11540  10.154  39.443   2.891
50252W        W11541  15.773  34.978   4.678
50253W        W11542   1.769  43.995   0.934
50254W        W11543   6.892  26.095   0.949
50255W        W11544   4.822  44.950  14.433
50256W        W11545   7.393  19.056  13.442
50257W        W11546  32.082  10.237  12.969
50258W        W11547  34.901  33.495  11.497
50259W        W11548   1.739   8.179  10.538
50260W        W11549   1.322  38.481  14.926
50261W        W11550  28.173  16.160  11.405
50262W        W11551  32.020  44.469  12.558
50263W        W11552  29.094  41.465   1.829
50264W        W11553  30.564  37.479  14.016
50265W        W11554  13.796  20.585  12.501
50266W        W11555   6.333   9.746  13.445
50267W        W11556   3.953  41.446  12.526
50268W        W11557  35.943  42.859   4.202
50269W        W11558   2.361  29.089   0.797
50270W        W11559  20.735  14.738   1.915
50271W        W11560  30.654  29.474  11.081
50272W        W11561   3.411  10.808  10.531
50273W        W11562  16.656  30.460   3.306
50274W        W11563  34.108  10.767   2.381
50275W        W11564  44.986  10.632  13.547
50276W        W11565  40.822  17.615   0.871
50277W        W11566   1.917  19.084   0.821
50278W        W11567  26.952  31.901  14.809
50279W        W11568  43.274  12.180   3.829
50280W        W11569  38.931   1.796  11.128
50281W        W11570   8.170  37.926  12.509
50282W        W11571  11.165  15.222   3.789
50283W        W11572  41.383  30.155   1.240
50284W        W11573  26.063  41.520  14.515
50285W        W11574  29.074   4.357   2.331
50286W        W11575  20.657  43.916  10.464
50287W        W11576  14.340  10.879   4.606
50288W        W11577  27.690  41.795   2.758
50289W        W11578   5.434  30.427  13.427
50290W        W11579  27.651  17.062  14.009
50291W        W11580   6.208  12.823  13.842
50292W        W11581  40.026  39.449  11.421
50293W        W11582  44.925  29.460  14.892
50294W        W11583  30.154  24.675   4.342
50295W        W11584  42.931   2.945   1.277
50296W        W11585  24.682  43.956  13.507
50297W        W11586   4.428  43.810  11.549
50298W        W11587   2.386  26.587   5.229
50299W        W11588  42.963  15.234   0.331
50300W        W11589  17.260  20.691  14.443
50301W        W11590  19.762  16.642  13.418
50302W        W11591   2.410  23.079   2.288
50303W        W11592  42.797  23.228   1.269
50304W        W11593  37.994  29.591  10.150
50305W        W11594  18.686  23.607  10.943
50306W        W11595  19.580  27.066  11.484
50307W        W11596  27.066  41.818  12.870
50308W        W11597  44.909  43.354   4.164
50309W        W11598  24.160  19.619  12.354
50310W        W11599  35.875  12.147  14.313
50311W        W11600  34.468   8.793  12.089
50312W        W11601  19.744  22.118  12.577
50313W        W11602  31.491  16.606  14.807
50314W        W11603  17.300  21.689   2.718
50315W        W11604  40.304  31.117   4.782
50316W        W11605  43.905  12.715   2.698
50317W        W11606  35.098  30.038   2.665
50318W        W11607  18.215   7.869  10.606
50319W        W11608  31.627  17.717  11.509
50320W        W11609  30.423   5.914   2.205
50321W        W11610  26.114   4.378   2.777
50322W        W11611  31.097  11.237  10.578
50323W        W11612   2.372  11.239   2.778
50324W        W11613  17.652  37.421  10.915
50325W        W11614   3.231  39.452  14.871
50326W        W11615  43.429  22.660   0.937
50327W        W11616  32.048  15.714  14.409
50328W        W11617  27.093  20.053   1.903
50329W        W11618   8.338  42.365   4.328
50330W        W11619  31.908   4.239   1.853
50331W        W11620  26.459  16.297  12.530
50332W        W11621  41.985   2.949  12.009
50333W        W11622   7.717  25.200   2.189
50334W        W11623   9.165  22.184   3.683
50335W        W11624  44.866  32.125  11.037
50336W        W11625  27.991   5.909  10.155
50337W        W11626  29.562   1.483  13.027
50338W        W11627  15.764  20.148   1.886
50339W        W11628  32.555  29.140  11.118
50340W        W11629   8.843   6.321  13.930
50341W        W11630  15.202  12.641   4.220
50342W        W11631  42.324  16.810   9.551
50343W        W11632  29.432  26.990   3.244
50344W        W11633  13.120  27.607   3.867
50345W        W11634   4.209  34.054   4.670
50346W        W11635   2.899  25.098   4.146
50347W        W11636  16.721  30.087   3.293
50348W        W11637  15.327  36.469   0.840
50349W        W11638  26.208  30.931  12.366
50350W        W11639  12.737  15.136  12.528
50351W        W11640  32.564   4.925   3.172
50352W        W11641  36.407  16.790  12.393
50353W        W11642  20.664  32.428   0.392
50354W        W11643   4.838   7.200  12.064
50355W        W11644   9.771  35.040  12.572
50356W        W11645  24.217  18.252   0.473
50357W        W11646  13.786  42.283   1.786
50358W        W11647  39.469  11.775   0.479
50359W        W11648  34.092  13.670  13.521
50360W        W11649  22.192  30.599   2.718
50361W        W11650  40.802  26.638   0.306
50362W        W11651  32.614  31.589  11.476
50363W        W11652   9.218  30.973  11.461
50364W        W11653  32.994  31.455  10.464
50365W        W11654  22.206   0.857   2.408
50366W        W11655  34.513  28.020  14.834
50367W        W11656  15.242  40.006  12.515
50368W        W11657   1.831  33.093   1.316
50369W        W11658   4.398  43.318  11.013
50370W        W11659   3.461  37.561  12.069
50371W        W11660  36.441  38.432  10.543
50372W        W11661  41.934  31.989  14.011
50373W        W11662  17.668   1.816   0.796
50374W        W11663   5.703  27.968   0.865
50375W        W11664  39.458  42.489   0.317
50376W        W11665  19.656  32.492  10.430
50377W        W11666  43.429  28.966  13.021
50378W        W11667   7.362  15.283   0.404
50379W        W11668  20.082  40.325  13.972
50380W        W11669   5.854  10.355  14.392
50381W        W11670  41.342  40.526   2.372
50382W        W11671  21.576  40.396  11.445
50383W        W11672   3.803  43.356   2.332
50384W        W11673  20.589  19.748  13.040
50385W        W11674   2.938  40.863  11.124
50386W        W11675  13.180   1.785   5.149
50387W        W11676  31.073  13.846  11.569
50388W        W11677  26.132  37.963  10.412
50389W        W11678  22.225  35.450  12.563
50390W        W11679  11.849  34.370   4.612
50391W        W11680  24.534  31.984   2.864
50392W        W11681  17.245   5.237  14.938
50393W        W11682  39.364   5.707   0.317
50394W        W11683  10.213   4.801   5.085
50395W        W11684   4.361  29.033   4.351
50396W        W11685  10.766  18.645  11.857
50397W        W11686   2.355   4.345  12.982
50398W        W11687  30.051  43.806   0.763
50399W        W11688   1.832  35.855   3.327
50400W        W11689   6.919  30.476  10.429
50401W        W11690  44.490  17.696   1.283
50402W        W11691  35.515  41.842  11.467
50403W        W11692  42.415   8.214  14.802
50404W        W11693  16.109  43.844  10.424
50405W        W11694  14.615  23.188   3.661
50406W        W11695  33.120  31.963   3.733
50407W        W11696  16.717  12.761  13.044
50408W        W11697  23.024   1.312  14.394
50409W        W11698  11.860  39.872  12.040
50410W        W11699  37.849  20.068   4.828
50411W        W11700  42.409  28.551  12.562
50412W        W11701  22.516  22.647  10.585
50413W        W11702  36.535  42.820  13.027
50414W        W11703   6.900   1.809  14.955
50415W        W11704  15.710  32.091   1.265
50416W        W11705  16.142  42.890  11.027
50417W        W11706  40.331  21.600   1.893
50418W        W11707   3.804  34.007  12.427
50419W        W11708  27.063  42.382   4.142
50420W        W11709  17.777   7.262  11.121
50421W        W11710  18.258  12.846   4.163
50422W        W11711  25.139  21.083  13.489
50423W        W11712  20.721  15.086  11.467
50424W        W11713  28.086  13.799  12.864
50425W        W11714  39.823   1.875   0.429
50426W        W11715   7.801  15.749   1.751
50427W        W11716  16.313  14.329   0.835
50428W        W11717  37.505   4.292  13.453
50429W        W11718  22.533  11.145   1.383
50430W        W11719  19.602   8.893   2.386
50431W        W11720  44.271  33.876  11.023
50432W        W11721  44.460  23.645  14.438
50433W        W11722  27.684   9.259  12.477
50434W        W11723  10.743  10.704   3.226
50435W        W11724  24.570  27.163   3.155
50436W        W11725  25.977  17.072   2.248
50437W        W11726  15.181  32.616  14.912
50438W        W11727  30.539  19.082  14.507
50439W        W11728   4.328  41.304  12.865
50440W        W11729   9.311  26.025  14.832
50441W        W11730  18.754  26.954   2.219
50442W        W11731   0.793  10.246   5.115
50443W        W11732  40.531  28.623  12.081
50444W        W11733  35.065  13.271   1.289
50445W        W11734   7.399  21.636   4.226
50446W        W11735   2.885  13.840  14.505
50447W        W11736  18.571  27.599  13.356
50448W        W11737   0.376  33.030  13.889
50449W        W11738  38.415  35.540   2.240
50450W        W11739  16.722   2.878   2.330
50451W        W11740  28.545  14.603  12.958
50452W        W11741   8.781  15.821  12.342
50453W        W11742   9.735  20.184  12.390
50454W        W11743  39.814   3.344   2.330
50455W        W11744  38.867  38.477  10.557
50456W        W11745   2.786   2.276  13.417
50457W        W11746  30.078  28.669  13.905
50458W        W11747  44.401  36.523   0.811
50459W        W11748  29.617  16.796  13.013
50460W        W11749   5.374  24.019   3.379
50461W        W11750  42.954  34.097  10.580
50462W        W11751  18.608  23.090  11.087
50463W        W11752  36.090   4.446  14.849
50464W        W11753  17.790  30.018  10.583
50465W        W11754  42.375  16.719   5.235
50466W        W11755  36.526  23.717  12.927
50467W        W11756  28.151   6.777   2.203
50468W        W11757  10.680  37.066  10.433
50469W        W11758  21.615   9.287   4.296
50470W        W11759  42.372  30.435  12.973
50471W        W11760  16.130   7.236  14.354
50472W        W11761  43.021   1.932   2.782
50473W        W11762  36.884  13.808   1.909
50474W        W11763  19.560  38.550   2.210
50475W        W11764  38.388  17.290   1.387
50476W        W11765  15.193  32.110   3.361
50477W        W11766  15.092  21.148  14.279
50478W        W11767  38.850   2.750  12.872
50479W        W11768  38.821  15.302   4.340
50480W        W11769   2.961  40.896  11.582
50481W        W11770  44.300   1.274   0.879
50482W        W11771  30.550  12.757   4.721
50483W        W11772  26.006  26.955   2.760
50484W        W11773   1.798   5.382  12.970
50485W        W11774  21.219   3.310   1.759
50486W        W11775   3.342  43.406   4.249
50487W        W11776  38.004   2.235   0.313
50488W        W11777  20.053  41.454   4.334
50489W        W11778  28.519  13.668   3.837
50490W        W11779  12.170  37.554  11.372
50491W        W11780  26.695  40.456   0.304
50492W        W11781  15.722  14.250   0.777
50493W        W11782  21.686   2.237   2.694
50494W        W11783  43.777  31.010   2.263
50495W        W11784  22.736  15.741  10.584
50496W        W11785  29.462  33.392   4.230
50497W        W11786   6.321   8.277   1.440
50498W        W11787  26.478  24.092   1.895
50499W        W11788  35.458  19.769  14.512
50500W        W11789  33.488  38.551   2.251
50501W        W11790  26.673  29.976   4.211
50502W        W11791  40.381  17.170  14.279
50503W        W11792  30.568  13.719   3.327
50504W        W11793  24.978  12.145  13.439
50505W        W11794   2.330  19.254   0.907
50506W        W11795  25.608  33.615  11.487
50507W        W11796  44.417   8.247  12.444
50508W        W11797  43.357  19.711  10.562
50509W        W11798  16.170   4.288   4.128
50510W        W11799  13.613  12.259   3.277
50511W        W11800   3.327  25.679   1.884
50512W        W11801  43.382   8.374  11.415
50513W        W11802  26.074  40.914  11.943
50514W        W11803  32.403  32.106   2.678
50515W        W11804  31.532   3.395  14.319
50516W        W11805  35.494   9.274  12.555
50517W        W11806  42.357   2.401   1.719
50518W        W11807  40.827  13.725   3.156
50519W        W11808  18.745  25.979   4.740
50520W        W11809  13.604  37.380   2.781
50521W        W11810  28.097  16.778   5.240
50522W        W11811  13.737  25.556   1.351
50523W        W11812  18.613  22.250   3.725
50524W        W11813   4.346  30.150  13.816
50525W        W11814   6.818  23.196  12.997
50526W        W11815   5.909  23.010  11.412
50527W        W11816  25.544   8.290   1.445
50528W        W11817  22.120  22.722  12.884
50529W        W11818  43.482  25.632   3.716
50530W        W11819  44.470  15.169  12.440
50531W        W11820  23.660   3.280  11.989
50532W        W11821  44.800  11.142   1.266
50533W        W11822  20.046  42.396  12.341
50534W        W11823  20.559  31.474   3.834
50535W        W11824   8.722   1.881   1.243
50536W        W11825  20.050  23.566   5.154
50537W        W11826   9.738   0.782  13.968
50538W        W11827  41.463   1.301   0.920
50539W        W11828  30.118  19.737  13.880
50540W        W11829  42.992   7.670   4.745
50541W        W11830  36.576  40.539   3.785
50542W        W11831  43.327   7.323  10.089
50543W        W11832  21.208   0.900  11.573
50544W        W11833  26.517  33.519   5.189
50545W        W11834  15.228  22.017   0.262
50546W        W11835   0.913   8.399  14.285
50547W        W11836  21.648   8.248  12.553
50548W        W11837  36.898  14.311   4.322
50549W        W11838  32.999   6.861   5.591
50550W        W11839   4.727  40.878  10.458
50551W        W11840  23.122  42.973  11.432
50552W        W11841  44.369   9.376  13.496
50553W        W11842  26.185  30.579  10.545
50554W        W11843  19.661  19.731   0.788
50555W        W11844  30.633   0.466   4.715
50556W        W11845  36.581  42.980   2.255
50557W        W11846  23.148  34.033   4.119
50558W        W11847  44.335  20.271   2.318
50559W        W11848   4.900  35.537   4.296
50560W        W11849  15.609  19.763   2.356
50561W        W11850  29.974  31.533  11.465
50562W        W11851  27.944  20.148  12.464
50563W        W11852   7.836  44.505  14.339
50564W        W11853  40.856  19.267   3.285
50565W        W11854  35.529  24.137  12.045
50566W        W11855  37.041  17.612   1.438
50567W        W11856  40.465  22.185  12.384
50568W        W11857  36.864  43.938   1.739
50569W        W11858  12.311  36.543   2.727
50570W        W11859   8.346  16.106  13.518
50571W        W11860  40.402   0.986  14.487
50572W        W11861  41.431  36.079  14.850
50573W        W11862   5.735  23.009   0.860
50574W        W11863   7.698  36.569   3.706
50575W        W11864  30.115  39.553  10.470
50576W        W11865  27.161  13.234  12.377
50577W        W11866  21.520  43.374   1.273
50578W        W11867   0.406  30.026  13.433
50579W        W11868  41.334  33.917  11.517
50580W        W11869  43.942  38.504   4.218
50581W        W11870   4.890   4.225   4.706
50582W        W11871  41.006  16.767  10.506
50583W        W11872  21.734  40.922  13.943
50584W        W11873   7.410  19.585   2.277
50585W        W11874  27.951   4.309   1.733
50586W        W11875  20.558  28.006   3.826
50587W        W11876  44.271  29.584  13.547
50588W        W11877  13.837  33.585  11.973
50589W        W11878  29.978  36.578  11.423
50590W        W11879  17.071  35.596  10.506
50591W        W11880   5.418   5.706   4.722
50592W        W11881   0.339  28.522  12.491
50593W        W11882  43.387  33.473   4.288
50594W        W11883   0.916   4.228   0.736
50595W        W11884   5.850  17.070   2.765
50596W        W11885  23.588  25.186   1.380
50597W        W11886   9.829  12.676  12.890
50598W        W11887  34.424   1.902  11.934
50599W        W11888  14.174   8.811   4.194
50600W        W11889  39.412  26.152  12.991
50601W        W11890  15.146   9.163  13.479
50602W        W11891  41.952  20.124  10.484
50603W        W11892  10.333  39.384  14.454
50604W        W11893  27.045  37.084  14.924
50605W        W11894   9.318  40.382   1.222
50606W        W11895  21.637  37.861  14.894
50607W        W11896   0.782  13.238   1.383
50608W        W11897  35.361  33.051   1.746
50609W        W11898  16.125   0.870  11.909
50610W        W11899  34.015  33.901  10.481
50611W        W11900  17.076  16.092  14.762
50612W        W11901  18.280   2.853  14.379
50613W        W11902  19.272  43.493  10.457
50614W        W11903  44.383  26.529  14.762
50615W        W11904  19.662   9.738  14.513
50616W        W11905  30.625  41.867  11.965
50617W        W11906  18.164  13.178   1.253
50618W        W11907  41.961  41.926   0.350
50619W        W11908  32.017  15.250   5.296
50620W        W11909  10.343  43.294  10.503
50621W        W11910  36.984  34.419   3.835
50622W        W11911  23.680  39.541   1.814
50623W        W11912  23.631  38.071   0.896
50624W        W11913  11.675  25.091   1.751
50625W        W11914  13.797  25.604   3.280
50626W        W11915  34.052  41.434  14.850
50627W        W11916  40.038  36.872   2.197
50628W        W11917  35.093   6.303   2.702
50629W        W11918   8.183   0.852  13.311
50630W        W11919  20.028  28.654   1.228
50631W        W11920   2.455  20.131  13.015
50632W        W11921   8.315  39.034  13.841
50633W        W11922   5.415  41.301  13.859
50634W        W11923  41.036   6.264   1.258
50635W        W11924  30.121   3.917  12.876
50636W        W11925  18.128  26.469   5.141
50637W        W11926  18.719  25.649   0.334
50638W        W11927   4.770  19.240  10.426
50639W        W11928  29.931  23.594  11.009
50640W        W11929  32.055  25.495  12.462
50641W        W11930   6.901  43.000  14.959
50642W        W11931  30.083  30.601   3.199
50643W        W11932  17.284   4.775   1.369
50644W        W11933  36.590  35.904   3.164
50645W        W11934  16.213  41.874   3.258
50646W        W11935   9.726  19.222   1.922
50647W        W11936  16.313  44.467  10.948
50648W        W11937  41.454  30.912  10.609
50649W        W11938  29.062   1.302   4.141
50650W        W11939   4.352   6.705  12.093
50651W        W11940  32.585  12.818  11.574
50652W        W11941   3.258   3.759  11.580
50653W        W11942  30.939  31.619  11.019
50654W        W11943  17.128   6.803  14.317
50655W        W11944  19.725  26.472  12.527
50656W        W11945   2.344  10.368   0.934
50657W        W11946  44.001  23.230  14.974
50658W        W11947  42.920   3.812   0.331
50659W        W11948  20.554   6.712   3.629
50660W        W11949  14.331  36.518  10.001
50661W        W11950  23.560  11.690   0.868
50662W        W11951  43.289  33.887   3.838
50663W        W11952  22.586  21.700   3.375
50664W        W11953   6.351  34.413  11.594
50665W        W11954  42.402  14.623   3.306
50666W        W11955  43.464  21.522   1.861
50667W        W11956  38.346  42.440  14.987
50668W        W11957  17.153  35.916  11.966
50669W        W11958  30.987   2.433   5.626
50670W        W11959  29.505  16.209   4.206
50671W        W11960  35.089  40.376  12.545
50672W        W11961  21.139   9.229   4.785
50673W        W11962  30.435  14.174   3.788
50674W        W11963   1.885  24.615   0.300
50675W        W11964  40.329  15.815  12.952
50676W        W11965  34.450  37.398   0.360
50677W        W11966  36.514  10.282  11.922
50678W        W11967  29.079   0.818   1.220
50679W        W11968  39.386  24.129   2.664
50680W        W11969  36.950  25.490  12.861
50681W        W11970   0.471  21.106  13.823
50682W        W11971  41.954  28.476  11.603
50683W        W11972   2.339   6.730  11.466
50684W        W11973  35.074  42.511  12.049
50685W        W11974  28.034  42.894  13.424
50686W        W11975  11.134  27.553   3.293
50687W        W11976  20.544  20.152   3.773
50688W        W11977   3.922  12.782  11.416
50689W        W11978   3.433   9.190  11.959
50690W        W11979   3.778  40.809  11.928
50691W        W11980  37.491  11.789   1.705
50692W        W11981  32.520  34.042   4.240
50693W        W11982  18.785   9.814  12.881
50694W        W11983   3.814  31.086  14.023
50695W        W11984  21.240   6.894   4.257
50696W        W11985   9.865   1.424   1.785
50697W        W11986   0.884  10.138   2.884
50698W        W11987  33.926  25.151   4.627
50699W        W11988  35.092  33.576   4.257
50700W        W11989  23.735  23.231  14.371
50701W        W11990  10.306  18.774  14.928
50702W        W11991  37.844   0.425  10.896
50703W        W11992   4.247  15.622  11.562
50704W        W11993  21.572  37.470  13.833
50705W        W11994   0.358  33.489   3.340
50706W        W11995   5.886   1.390   3.799
50707W        W11996   3.920  29.164   1.787
50708W        W11997  23.017   7.702   0.393
50709W        W11998  14.094  42.487   3.725
50710W        W11999  29.586  34.377   1.890
50711W        W12000  15.197   1.435  14.923
50712W        W12001  19.735  37.382  12.418
50713W        W12002   2.731  28.510  10.558
50714W        W12003  43.894  44.284  11.488
50715W        W12004  29.955  28.523   0.918
50716W        W12005  13.738  19.237   2.265
50717W        W12006  16.140  32.475  13.385
50718W        W12007  42.013   3.769   0.869
50719W        W12008   6.366  31.481  13.982
50720W        W12009  14.733  43.456   1.897
50721W        W12010   4.297  11.310  11.455
50722W        W12011  36.064  21.163  11.598
50723W        W12012  43.469   5.249   4.266
50724W        W12013  17.675  34.927  10.570
50725W        W12014  43.499  25.648  12.960
50726W        W12015  30.614  13.123   1.721
50727W        W12016  38.504  24.679   1.324
50728W        W12017   3.753  28.442  10.542
50729W        W12018  41.022  24.142   4.836
50730W        W12019  16.125   2.897  13.949
50731W        W12020  38.819  34.119   4.351
50732W        W12021  15.265  41.934   4.687
50733W        W12022   2.373  24.028   1.262
50734W        W12023   9.677   9.271  14.957
50735W        W12024   9.347   4.321   2.305
50736W        W12025   7.256  22.740  11.489
50737W        W12026  14.656  19.694  10.601
50738W        W12027  29.934   2.314   3.631
50739W        W12028  38.832  24.079  12.895
50740W        W12029  43.949  35.481  13.893
50741W        W12030  36.371  20.614  13.452
50742W        W12031  18.208  16.308  12.339
50743W        W12032   9.385  17.154  14.991
50744W        W12033  24.668  35.051   0.441
50745W        W12034  22.523  22.583  13.827
50746W        W12035   6.243  39.959  13.970
50747W        W12036  28.963  32.627  13.394
50748W        W12037  10.303  26.541  10.949
50749W        W12038  19.708  14.760   3.833
50750W        W12039  26.502  19.727   4.804
50751W        W12040   7.791   4.838  13.000
50752W        W12041  43.900   7.872  14.824
50753W        W12042  17.146  10.355   2.396
50754W        W12043  22.117  32.563   0.936
50755W        W12044   2.426  14.598   0.765
50756W        W12045  44.774  37.556   0.781
50757W        W12046  43.014   4.366   3.739
50758W        W12047  43.363  13.324   4.280
50759W        W12048  12.332  14.280  11.517
50760W        W12049  29.145  20.716  14.472
50761W        W12050  35.077  22.069  12.847
50762W        W12051  10.180  43.008  14.428
50763W        W12052  14.804  40.969  13.510
50764W        W12053  15.223   2.443   2.744
50765W        W12054   3.912  26.512   1.876
50766W        W12055   7.395  41.876   1.325
50767W        W12056  26.664  33.948  10.492
50768W        W12057  36.056  11.146   0.256
50769W        W12058   6.294  15.583  10.423
50770W        W12059  31.926  35.906  14.900
50771W        W12060   5.698  10.822   0.838
50772W        W12061  15.814  30.914   1.267
50773W        W12062  15.325  31.041  14.486
50774W        W12063  17.244  22.674   3.824
50775W        W12064  33.593  39.361  10.518
50776W        W12065   8.663  24.599  12.964
50777W        W12066  34.398  42.775  14.905
50778W        W12067  37.450  43.273  10.574
50779W        W12068  31.916   4.215  13.818
50780W        W12069  16.136  32.908  13.006
50781W        W12070  18.288  11.365  10.999
50782W        W12071   1.890  23.631   1.403
50783W        W12072  25.058   1.820  13.333
50784W        W12073  24.589  27.948  14.905
50785W        W12074  44.820  37.060   0.824
50786W        W12075  12.692  37.416   3.696
50787W        W12076  12.278   1.902   5.255
50788W        W12077  30.921  44.410  11.116
50789W        W12078  12.340  11.840   3.271
50790W        W12079   1.844  38.822   3.333
50791W        W12080   2.805   5.697  12.867
50792W        W12081  31.056  12.675   3.298
50793W        W12082  37.422  19.114  12.479
50794W        W12083  42.286  33.130   0.848
50795W        W12084  20.033  42.463   3.173
50796W        W12085  13.667  11.698   0.398
50797W        W12086  21.040  32.082  14.760
50798W        W12087  37.032  15.790  10.526
50799W        W12088  12.261  24.193   1.431
50800W        W12089  41.995  40.305  11.127
50801W        W12090  33.537  35.397   1.346
50802W        W12091  29.932   2.292   0.321
50803W        W12092  23.140  42.439  12.428
50804W        W12093  38.830  27.595  10.498
50805W        W12094  25.210  17.193   1.434
50806W        W12095   7.798  40.951  14.275
50807W        W12096  23.551  38.500  13.867
50808W        W12097  35.878  28.526   2.799
50809W        W12098  30.431  22.595   0.839
50810W        W12099   2.350  16.618   0.400
50811W        W12100  26.490  23.587  13.341
50812W        W12101  41.997  14.269  10.615
50813W        W12102   1.272  14.167  11.434
50814W        W12103  34.463  31.126   0.831
50815W        W12104   0.294  39.851  14.841
50816W        W12105   0.392   8.854   4.226
50817W        W12106  10.338  19.243  12.450
50818W        W12107   1.394  41.324   3.257
50819W        W12108  44.913  26.169   0.932
50820W        W12109  17.128  21.132  12.901
50821W        W12110  30.950   8.282  10.997
50822W        W12111  42.431  16.683  14.962
50823W        W12112  15.298  38.964   0.847
50824W        W12113  30.450  26.046  14.499
50825W        W12114  35.555  30.989   3.236
50826W        W12115  16.599  24.707   1.337
50827W        W12116   4.289  20.694  11.483
50828W        W12117  10.737  39.039  13.013
50829W        W12118  24.486  20.226   0.868
50830W        W12119  31.953  27.008  14.487
50831W        W12120   5.388   8.335  11.018
50832W        W12121  37.879  37.464  12.912
50833W        W12122  27.485   7.283   1.764
50834W        W12123  41.815  38.444  11.057
50835W        W12124  36.947  41.969  11.886
50836W        W12125  42.335   4.886  10.092
50837W        W12126  14.658  20.656   0.445
50838W        W12127   2.250  35.442   3.834
50839W        W12128  29.654  12.692  12.930
50840W        W12129  34.409  32.886  14.936
50841W        W12130   6.380   1.309   0.857
50842W        W12131   4.436  26.981  14.323
50843W        W12132  24.669  42.889  12.449
50844W        W12133  32.952  13.312  12.989
50845W        W12134  23.653  19.168  14.463
50846W        W12135  44.323  17.184   2.690
50847W        W12136   8.191  41.481  11.592
50848W        W12137   2.768  37.568   4.645
50849W        W12138  40.853  43.335  11.023
50850W        W12139  44.275   5.196   1.301
50851W        W12140   3.291  37.510   4.646
50852W        W12141  32.594  16.288  14.456
50853W        W12142  24.505  11.281   0.362
50854W        W12143  37.400  42.340  11.078
50855W        W12144  35.910   2.884  13.935
50856W        W12145  39.500   9.660  10.900
50857W        W12146  30.021  35.080   1.761
50858W        W12147   3.866  44.317  12.067
50859W        W12148  15.791  12.157   4.687
50860W        W12149  17.142  15.176   1.906
50861W        W12150  40.955   0.342  11.550
50862W        W12151  24.184  21.129  11.938
50863W        W12152  11.247   2.841   4.599
50864W        W12153  24.494  10.817   3.634
50865W        W12154  43.396  23.598   0.317
50866W        W12155   1.842  11.187  14.291
50867W        W12156  21.090  29.990  11.503
50868W        W12157  33.548  19.677   9.995
50869W        W12158  17.197  14.175  10.589
50870W        W12159  16.222  27.082  14.825
50871W        W12160  27.544  29.436  12.580
50872W        W12161  10.652  17.206   2.291
50873W        W12162   6.236  12.291  13.417
50874W        W12163  27.525   9.205  13.946
50875W        W12164  15.714  19.251   2.188
50876W        W12165  42.782  20.639  12.056
50877W        W12166  32.533  11.786  11.079
50878W        W12167  36.528   0.423  13.435
50879W        W12168  19.739   7.224   2.667
50880W        W12169  28.583  41.978  12.034
50881W        W12170  20.554   1.355   3.314
50882W        W12171  34.473  32.138  11.866
50883W        W12172  16.267  36.386  14.937
50884W        W12173  24.170  36.897   4.236
50885W        W12174  15.643  39.850  11.866
50886W        W12175   7.203  16.199   4.616
50887W        W12176  24.066  22.124  11.919
50888W        W12177   6.805  35.894   2.413
50889W        W12178  11.695  34.463   2.397
50890W        W12179  22.622  13.784  11.113
50891W        W12180   8.666  40.930   1.709
50892W        W12181  44.990  32.061  12.958
50893W        W12182  39.993  28.044   4.332
50894W        W12183  27.619  35.500   4.762
50895W        W12184  14.733  33.944   1.275
50896W        W12185  27.453   9.867   4.168
50897W        W12186  43.475  12.122   4.639
50898W        W12187  12.344  18.596  11.116
50899W        W12188  27.684   5.841  14.420
50900W        W12189  31.944  44.270  10.559
50901W        W12190  20.169  39.471   1.240
50902W        W12191  31.033  17.643   0.329
50903W        W12192  36.545  19.093   4.191
50904W        W12193  34.985  18.192  11.386
50905W        W12194   9.857  20.183  14.341
50906W        W12195  11.861  22.252  13.821
50907W        W12196  16.697  16.647   4.825
50908W        W12197   4.412  12.297   3.375
50909W        W12198  19.183  11.801   0.911
50910W        W12199  19.267  13.241   0.283
50911W        W12200  18.569  42.908  13.541
50912W        W12201  16.597  41.294   2.335
50913W        W12202  22.245  31.048  13.471
50914W        W12203  13.662  37.569   3.805
50915W        W12204  31.019  40.969   2.819
50916W        W12205  14.713  25.143  12.404
50917W        W12206   8.191  40.017  12.374
50918W        W12207  10.355  40.934   4.325
50919W        W12208   2.328  42.974  12.479
50920W        W12209  17.260  14.654  12.397
50921W        W12210  41.917  22.522   4.139
50922W        W12211  22.141  13.154   2.306
50923W        W12212  27.053   5.840   3.162
50924W        W12213  33.947   0.314  11.900
50925W        W12214  28.048  18.185   2.199
50926W        W12215  42.475  21.191  14.413
50927W        W12216  15.169   4.307   1.806
50928W        W12217  32.079  44.998   1.740
50929W        W12218  10.165  40.517   1.927
50930W        W12219  41.043   0.850  10.643
50931W        W12220  14.300  44.776  13.791
50932W        W12221  15.685  23.733  10.582
50933W        W12222  44.880  10.824   3.246
50934W        W12223  23.215  37.431  11.452
50935W        W12224  12.167   6.917  14.001
50936W        W12225  31.903  39.905   3.777
50937W        W12226  22.031  27.974   0.331
50938W        W12227  21.088  31.535  13.337
50939W        W12228   2.404   7.200  12.991
50940W        W12229  12.183  20.150   9.930
50941W        W12230  19.766  11.292   0.882
50942W        W12231  14.654  21.689  14.857
50943W        W12232  21.064  25.144   1.809
50944W        W12233   2.947  36.972  11.421
50945W        W12234  38.045  16.601  14.860
50946W        W12235  23.117   5.793  11.127
50947W        W12236  35.528  40.321   4.762
50948W        W12237   7.708  19.615   1.248
50949W        W12238  37.529  34.895   0.788
50950W        W12239  20.218  35.449  14.861
50951W        W12240   4.393  41.852  11.379
50952W        W12241  19.054  21.533  11.949
50953W        W12242  16.132  30.081  12.541
50954W        W12243   0.909  43.793   0.775
50955W        W12244  27.543  22.671   3.840
50956W        W12245  36.483  17.123   1.231
50957W        W12246  41.883  10.225   2.356
50958W        W12247  28.033  27.083   0.767
50959W        W12248  42.440  32.923   4.772
50960W        W12249  36.522  38.924  10.488
50961W        W12250   0.864  26.642   1.325
50962W        W12251  32.028  17.129   4.668
50963W        W12252  29.468  33.877   0.862
50964W        W12253  22.516  42.850  12.374
50965W        W12254  26.614  27.465   0.960
50966W        W12255  28.507  20.170   1.270
50967W        W12256   3.926  21.196  12.570
50968W        W12257  12.243  39.560   3.634
50969W        W12258  30.022   9.810   5.286
50970W        W12259  25.486  19.595  12.412
50971W        W12260  37.516  25.498  12.376
50972W        W12261   4.842  34.065   1.359
50973W        W12262  26.177  32.631   2.342
50974W        W12263  39.500  14.129  10.083
50975W        W12264  12.842  16.124  10.506
50976W        W12265   3.897  24.529   1.356
50977W        W12266   2.915  31.619  14.861
50978W        W12267  40.429  20.101   1.417
50979W        W12268  12.737   2.469  13.938
50980W        W12269  10.182  21.098  14.287
50981W        W12270  25.065  13.203  10.987
50982W        W12271  24.014  19.048  12.021
50983W        W12272   4.284   2.805   0.848
50984W        W12273  11.338  42.842  10.545
50985W        W12274  27.544  31.949  13.396
50986W        W12275  13.133  30.098  14.392
50987W        W12276  43.872  42.348  13.063
50988W        W12277  10.686   7.764  12.021
50989W        W12278  28.957  44.395  14.908
50990W        W12279  19.240  30.462   4.225
50991W        W12280  35.585   9.190   0.803
50992W        W12281  12.163  26.643  11.100
50993W        W12282  41.976  31.111  12.475
50994W        W12283  13.125  43.440  10.437
50995W        W12284   0.893  30.977  14.921
50996W        W12285  43.283  40.980  13.875
50997W        W12286  20.161  43.944  11.105
50998W        W12287  12.308  37.555   1.930
50999W        W12288  26.603  10.302  14.860
51000W        W12289  31.481  31.567  11.876
51001W        W12290  40.868  41.897   4.616
51002W        W12291   8.187  25.616   4.658
51003W        W12292  24.637  20.736  11.105
51004W        W12293   9.779  26.650   2.792
51005W        W12294  34.454  16.610   2.190
51006W        W12295  24.581  11.751   0.461
51007W        W12296  32.542  20.079   2.239
51008W        W12297  35.918   5.216  12.097
51009W        W12298  44.294  32.461   5.218
51010W        W12299  26.588  43.776   2.178
51011W        W12300  11.250  43.478   4.822
51012W        W12301  35.037  11.799   3.786
51013W        W12302   4.811  40.838   3.810
51014W        W12303  37.359  25.193  14.910
51015W        W12304  34.398  33.107  12.520
51016W        W12305  15.139   9.663  12.089
51017W        W12306  38.450  34.608  12.027
51018W        W12307   2.782  12.757  10.624
51019W        W12308   5.870   8.295  13.006
51020W        W12309  38.397  24.616  10.503
51021W        W12310  18.103  11.353  13.832
51022W        W12311  37.859   4.379   2.401
51023W        W12312  40.319  38.857  11.573
51024W        W12313   1.965  43.863  13.019
51025W        W12314  28.512   0.836  10.896
51026W        W12315   3.763  39.922   1.352
51027W        W12316  31.618  18.615  11.971
51028W        W12317  35.470   7.202   3.340
51029W        W12318   9.793  21.107   2.192
51030W        W12319  18.579   5.776   4.235
51031W        W12320  20.212  14.103  10.009
51032W        W12321  19.099  35.926   3.739
51033W        W12322  40.465  32.116  11.512
51034W        W12323   8.847  32.136  14.346
51035W        W12324  10.737  28.638  13.463
51036W        W12325  16.302  15.094   1.841
51037W        W12326   5.415  33.406  10.939
51038W        W12327  28.122  36.895   2.767
51039W        W12328  30.513   9.217  12.860
51040W        W12329  19.644  17.086  11.128
51041W        W12330  26.549   5.871  13.545
51042W        W12331  23.214  34.552   1.881
51043W        W12332  43.979  16.294   2.702
51044W        W12333   3.805  29.940   1.401
51045W        W12334  29.450  17.265  12.084
51046W        W12335   0.851   5.782  11.576
51047W        W12336  23.198  19.613   2.698
51048W        W12337  41.015  36.026   2.744
51049W        W12338  34.457  22.182  13.529
51050W        W12339  37.871   5.341  12.991
51051W        W12340  21.562  27.599   4.631
51052W        W12341  22.172  26.525   0.798
51053W        W12342  32.427  42.966  13.399
51054W        W12343  23.104  27.024   0.295
51055W        W12344  32.945  23.241  14.027
51056W        W12345  31.949  44.492  14.469
51057W        W12346  14.121  24.127  13.406
51058W        W12347   6.683  31.977  10.428
51059W        W12348  42.365  15.580   2.792
51060W        W12349  44.935  12.637   2.257
51061W        W12350  23.140  37.040   2.204
51062W        W12351  16.671  16.232   3.690
51063W        W12352  19.146  28.153   1.770
51064W        W12353   7.701  38.008   2.257
51065W        W12354  27.128  41.015   0.895
51066W        W12355   7.411  42.457  14.369
51067W        W12356  26.188  25.202  14.851
51068W        W12357  10.756  32.964  13.400
51069W        W12358  34.885  38.902   1.850
51070W        W12359  33.019  10.835   4.238
51071W        W12360   6.356  38.922  12.070
51072W        W12361  32.003  43.304   3.338
51073W        W12362  21.166  31.473   0.818
51074W        W12363  39.895  19.692  12.071
51075W        W12364  41.466  39.043   0.827
51076W        W12365   1.886  17.120  10.442
51077W        W12366  28.594  44.468  14.398
51078W        W12367   8.313   8.737   0.831
51079W        W12368  41.845  34.543   1.795
51080W        W12369   6.389   4.767  10.091
51081W        W12370   1.857  34.955   3.739
51082W        W12371  10.677   1.786   9.942
51083W        W12372  35.091  30.622   1.352
51084W        W12373   5.713  41.025   3.764
51085W        W12374  15.802  18.581  12.020
51086W        W12375  31.519  19.065  11.918
51087W        W12376   0.322   8.825   4.599
51088W        W12377  39.427  32.419   3.198
51089W        W12378  32.456  44.002   3.264
51090W        W12379  28.031  21.130   3.385
51091W        W12380   3.889  30.624  10.538
51092W        W12381  16.607  35.987  12.996
51093W        W12382   7.792  29.157   3.153
51094W        W12383  10.346  14.751  13.926
51095W        W12384  34.614   0.874   4.148
51096W        W12385   7.705  25.978  13.929
51097W        W12386  14.287  37.520  13.997
51098W        W12387  37.378   4.914  11.039
51099W        W12388  27.676  44.494  14.445
51100W        W12389   5.425  30.601   0.924
51101W        W12390   9.268  31.623  12.998
51102W        W12391   2.282  32.408   0.261
51103W        W12392  44.949   5.398  10.998
51104W        W12393  11.742  38.848   1.887
51105W        W12394  29.982  26.066   0.298
51106W        W12395  30.046   7.822  10.957
51107W        W12396  22.117  30.625  11.049
51108W        W12397   1.323  30.041   3.836
51109W        W12398  39.970  42.416  14.026
51110W        W12399  25.968  20.680  14.356
51111W        W12400  26.494   9.166  12.347
51112W        W12401  21.134  21.219   5.083
51113W        W12402  37.007  11.276   0.964
51114W        W12403  25.108  38.841   3.275
51115W        W12404  24.109  38.508   2.385
51116W        W12405  13.259  34.106   0.919
51117W        W12406  43.906  31.117   1.294
51118W        W12407  33.930  32.396  13.922
51119W        W12408   7.186  16.766   4.674
51120W        W12409  17.737   9.667  13.392
51121W        W12410  22.224  27.070  10.926
51122W        W12411   1.936  37.370   2.868
51123W        W12412  42.517  33.104  14.972
51124W        W12413  29.630  19.188  11.860
51125W        W12414  34.421  42.890  11.595
51126W        W12415   4.219  43.979   2.241
51127W        W12416  44.332  40.503  13.434
51128W        W12417  22.704   1.307  12.843
51129W        W12418  12.304  17.222   4.804
51130W        W12419  27.066  11.677  13.395
51131W        W12420  22.543   2.856  13.878
51132W        W12421  21.147  38.540   2.330
51133W        W12422  19.270  37.006  14.352
51134W        W12423  11.709   5.360  12.415
51135W        W12424  31.529  26.628  13.437
51136W        W12425  39.825  44.278  12.983
51137W        W12426  38.019  23.490   5.109
51138W        W12427   4.286   7.821  10.905
51139W        W12428  28.069  24.031  11.490
51140W        W12429  32.893  13.733   2.805
51141W        W12430  39.913  36.513  10.611
51142W        W12431  36.520  18.646   2.807
51143W        W12432  13.198   1.381  14.400
51144W        W12433  29.022  26.954  12.527
51145W        W12434  13.644  42.775  12.993
51146W        W12435  12.823  11.731   3.757
51147W        W12436  15.732  44.285  14.994
51148W        W12437   1.851  31.446  10.968
51149W        W12438  10.339  19.614   0.935
51150W        W12439  16.710   8.389  14.920
51151W        W12440  25.167  14.308  12.880
51152W        W12441  15.328  40.013  14.288
51153W        W12442  41.517   6.729   0.924
51154W        W12443  38.427  25.027  11.004
51155W        W12444  39.822  41.436   4.695
51156W        W12445  43.497  25.118   2.692
51157W        W12446  36.070  31.116   5.213
51158W        W12447  25.578  32.399   1.741
51159W        W12448  37.388   7.714   1.340
51160W        W12449  28.511  34.579  10.597
51161W        W12450  21.546  23.702  11.048
51162W        W12451  31.560  24.215  11.569
51163W        W12452  36.936  32.069   4.150
51164W        W12453  14.206  26.154   0.364
51165W        W12454  33.895  26.700  14.345
51166W        W12455   6.280  33.528  11.488
51167W        W12456  11.231  30.489  11.115
51168W        W12457  37.400  23.112  12.373
51169W        W12458  19.075   4.403   0.316
51170W        W12459  44.321   3.715  12.489
51171W        W12460  14.252  36.911   3.634
51172W        W12461  26.618  38.457   1.803
51173W        W12462  15.636  15.104   1.334
51174W        W12463  24.039  29.000  10.473
51175W        W12464  31.455  17.135   1.412
51176W        W12465  15.800  42.425   1.714
51177W        W12466  26.638   8.395  11.496
51178W        W12467   6.263  15.638  11.856
51179W        W12468  42.371  41.867  10.452
51180W        W12469  21.643  34.971   4.597
51181W        W12470  11.739  30.911  13.945
51182W        W12471  32.479  39.823  12.405
51183W        W12472  18.059  32.921  11.939
51184W        W12473   5.887  13.705   3.204
51185W        W12474  34.465  21.145  11.407
51186W        W12475  44.259  16.576   2.346
51187W        W12476  28.965   3.907   2.790
51188W        W12477   4.813  37.504  13.981
51189W        W12478  13.723  22.716   0.483
51190W        W12479  41.960   9.803   0.429
51191W        W12480   5.754  13.215   4.688
51192W        W12481  39.362  12.326  10.925
51193W        W12482  32.078  23.228   0.441
51194W        W12483  29.162  41.368  14.885
51195W        W12484  42.474  16.105  10.940
51196W        W12485  27.594  16.146   4.689
51197W        W12486  28.577  17.141  13.915
51198W        W12487  26.988  16.199  13.495
51199W        W12488  16.782   6.755   3.154
51200W        W12489  17.565  14.228  12.015
51201W        W12490   3.758   4.324  11.965
51202W        W12491  24.620  30.067  12.074
51203W        W12492  39.980  19.150  11.489
51204W        W12493  44.264  44.945  10.568
51205W        W12494  44.377  25.536  14.975
51206W        W12495  27.989  19.752  10.026
51207W        W12496  12.777  14.834   3.387
51208W        W12497   4.845  31.495  10.512
51209W        W12498  28.015  40.932  13.400
51210W        W12499   8.700  22.684   0.797
51211W        W12500   4.438  39.465   4.682
51212W        W12501  13.718  38.957  11.527
51213W        W12502  33.088  12.215   4.260
51214W        W12503  25.511  24.632  11.378
51215W        W12504  44.322  15.299   2.287
51216W        W12505  10.157  15.269  10.629
51217W        W12506  31.532  19.226   4.619
51218W        W12507  37.353  16.807   4.184
51219W        W12508  14.206  40.927  14.343
51220W        W12509  18.763  36.009  10.063
51221W        W12510  24.640   0.787  14.822
51222W        W12511  37.524  17.242   1.919
51223W        W12512  28.650  14.166  13.880
51224W        W12513  44.964  13.780   0.818
51225W        W12514  39.868  14.803   1.928
51226W        W12515  41.803  16.750  11.900
51227W        W12516  38.015  44.822  14.759
51228W        W12517  14.750  10.771  11.877
51229W        W12518  15.771  31.999   0.738
51230W        W12519  35.444  27.462   4.651
51231W        W12520  31.096  44.356   0.785
51232W        W12521   7.900  30.625  12.077
51233W        W12522  35.104  31.009  11.581
51234W        W12523   4.822   6.373   1.219
51235W        W12524  36.916  24.221  13.036
51236W        W12525   1.406   5.416   4.289
51237W        W12526  35.968  11.301   1.441
51238W        W12527  23.604   6.712  13.440
51239W        W12528   0.275  13.171  12.091
51240W        W12529  27.493  41.807   2.317
51241W        W12530  20.065  36.981   1.291
51242W        W12531   4.910  44.889  13.847
51243W        W12532  18.615  15.821  14.880
51244W        W12533  41.937  33.385  13.836
51245W        W12534  43.982  20.738  13.895
51246W        W12535  42.013  17.573   2.250
51247W        W12536   7.339  27.042  14.324
51248W        W12537   8.268   0.980   2.332
51249W        W12538  37.479   0.957   5.247
51250W        W12539  42.995   7.359   3.689
51251W        W12540   1.923  10.336   3.768
51252W        W12541  32.059  25.147  14.012
51253W        W12542   6.415  38.411  12.039
51254W        W12543  16.775  42.295   4.787
51255W        W12544  30.977  18.728  13.962
51256W        W12545  28.186   6.840  12.937
51257W        W12546  23.646  18.652   3.164
51258W        W12547   6.874   6.842  14.407
51259W        W12548  40.010  20.139   3.254
51260W        W12549  38.987  36.910  10.076
51261W        W12550  27.614  23.177   5.305
51262W        W12551  26.146   0.829  12.447
51263W        W12552  23.196   3.823   2.795
51264W        W12553  14.321  42.785   4.798
51265W        W12554  22.597  33.522  13.536
51266W        W12555  22.132  35.961  11.458
51267W        W12556  36.499  32.055  12.863
51268W        W12557  18.222  29.041   4.606
51269W        W12558  18.136  22.610   0.258
51270W        W12559  21.712  28.166   4.667
51271W        W12560   1.413   5.793   0.288
51272W        W12561  11.717   5.312  11.984
51273W        W12562  13.651  44.882   0.379
51274W        W12563   8.374  35.874  10.921
51275W        W12564   1.754  37.905  10.615
51276W        W12565  22.564  28.622  12.081
51277W        W12566  18.206   5.322   4.120
51278W        W12567  12.352  39.024  12.566
51279W        W12568  17.215   2.366  10.549
51280W        W12569  10.652  37.906   3.291
51281W        W12570   3.774  23.627  13.034
51282W        W12571  10.347  44.967   3.847
51283W        W12572  32.452  18.262   4.254
51284W        W12573   1.469  31.924  14.857
51285W        W12574  14.294  33.599   4.659
51286W        W12575  32.600  26.198  11.965
51287W        W12576   7.386  35.051  13.452
51288W        W12577  16.109   3.229   4.833
51289W        W12578  36.074  39.859  10.424
51290W        W12579  12.849  33.888  10.084
51291W        W12580  11.750   7.797   1.358
51292W        W12581  11.229  11.243   1.844
51293W        W12582   6.200   6.201  10.146
51294W        W12583   3.888  29.651   4.330
51295W        W12584  42.926  22.553  13.949
51296W        W12585  20.581  30.921   4.823
51297W        W12586  39.851   5.215  13.802
51298W        W12587  12.291  43.474   1.919
51299W        W12588  13.812  41.330   1.417
51300W        W12589  25.104  20.072   3.243
51301W        W12590  43.350  13.673   1.318
51302W        W12591  24.217  40.033  10.938
51303W        W12592  15.624  19.594  10.486
51304W        W12593  43.350  10.846   4.215
51305W        W12594  39.428   2.430  11.007
51306W        W12595  19.253  24.224  14.300
51307W        W12596   1.405  42.346  11.422
51308W        W12597  24.975  10.320  14.453
51309W        W12598  26.540  16.288  14.976
51310W        W12599   9.886  44.873   1.426
51311W        W12600  21.124  39.910  14.770
51312W        W12601  38.013  14.155   4.796
51313W        W12602  29.126  11.774   3.824
51314W        W12603  39.501  21.618   0.956
51315W        W12604  37.500   5.224   2.861
51316W        W12605  16.596   0.269  10.632
51317W        W12606   2.767   3.389   3.639
51318W        W12607  30.061  41.964   2.880
51319W        W12608  38.970  22.049  12.441
51320W        W12609  15.686  29.121  10.112
51321W        W12610  31.598  30.647   1.346
51322W        W12611  18.290  32.133  10.511
51323W        W12612  35.437  35.050   1.354
51324W        W12613  22.667   2.416  12.528
51325W        W12614  19.735  24.508   0.303
51326W        W12615  29.958   0.258   3.374
51327W        W12616   3.270  16.221   1.698
51328W        W12617  19.703  23.711  11.868
51329W        W12618   3.349   0.961  14.770
51330W        W12619   5.369  13.194  13.892
51331W        W12620  34.901  17.603  10.451
51332W        W12621  23.191  40.041   2.246
51333W        W12622  15.111   8.841  13.833
51334W        W12623  44.903  15.611  13.039
51335W        W12624  24.532  28.947   4.285
51336W        W12625   5.813  17.178   3.646
51337W        W12626  18.183  16.788  13.450
51338W        W12627  24.009   6.287  14.860
51339W        W12628  20.638  42.309   4.673
51340W        W12629  17.735  39.963  13.501
51341W        W12630   0.868  17.242   0.274
51342W        W12631  37.550   4.239  11.521
51343W        W12632  43.297   7.793  10.009
51344W        W12633   1.432  23.516  13.353
51345W        W12634  28.968  33.032   3.380
51346W        W12635   7.883  37.429   2.366
51347W        W12636  15.130  14.639  11.610
51348W        W12637  10.202  41.293  12.525
51349W        W12638  14.636  10.836   1.259
51350W        W12639   9.169   0.353  11.497
51351W        W12640  30.054   4.336  12.570
51352W        W12641  41.934  20.602   3.250
51353W        W12642  36.928   0.347  10.903
51354W        W12643   5.236  43.434   1.913
51355W        W12644  33.104  34.075   0.351
51356W        W12645  26.035  21.128  13.060
51357W        W12646  24.482  20.615  14.446
51358W        W12647  27.593  14.247   3.741
51359W        W12648   0.490   1.437   0.293
51360W        W12649  12.219  11.806   4.319
51361W        W12650  26.093  13.196  12.061
51362W        W12651  16.632  26.468   1.389
51363W        W12652   5.212  44.994   0.746
51364W        W12653  24.994   2.839   0.353
51365W        W12654   7.409  37.531  11.529
51366W        W12655  19.065  31.472   1.863
51367W        W12656  27.184   9.361  14.402
51368W        W12657  13.148  32.441   3.638
51369W        W12658  18.259   7.371  12.351
51370W        W12659  36.915  25.527   1.796
51371W        W12660   0.324  34.940  10.438
51372W        W12661   0.482   6.189   3.842
51373W        W12662  42.837  16.772  10.990
51374W        W12663  31.947   7.220  11.482
51375W        W12664  18.550  27.171   1.756
51376W        W12665  34.050   5.307  11.079
51377W        W12666  14.719  42.809   3.660
51378W        W12667   7.774  36.946   0.253
51379W        W12668  12.287  30.600   4.738
51380W        W12669  41.306   2.937  11.602
51381W        W12670   6.368  42.886   2.220
51382W        W12671  26.695   1.357   3.376
51383W        W12672  15.777  22.573  13.809
51384W        W12673  22.088  38.333   0.483
51385W        W12674  20.270   6.327   3.783
51386W        W12675   6.319  30.447   5.182
51387W        W12676  37.507  31.447  14.420
51388W        W12677  21.169  43.958  11.857
51389W        W12678  41.865  41.466   1.754
51390W        W12679  12.185  20.641   2.320
51391W        W12680  44.915  44.912  10.616
51392W        W12681  29.477  27.461  11.471
51393W        W12682  19.613   4.215   1.800
51394W        W12683   3.815  12.773   0.961
51395W        W12684   7.752  15.756   3.775
51396W        W12685  26.462  23.131   2.868
51397W        W12686   8.274   6.361  14.503
51398W        W12687  15.792  22.046  14.292
51399W        W12688  43.463   8.194  11.955
51400W        W12689  28.453  21.553   9.646
51401W        W12690  13.644  36.980  12.549
51402W        W12691  29.146  38.874  12.907
51403W        W12692  37.087   7.269  13.839
51404W        W12693  30.443  35.092   0.766
51405W        W12694  24.649  26.082  10.008
51406W        W12695  40.837  24.158  10.496
51407W        W12696  37.935   7.303   3.346
51408W        W12697   4.806   3.736   1.271
51409W        W12698   3.453  24.511  12.571
51410W        W12699  10.674  12.264  13.810
51411W        W12700  40.881  19.640  11.412
51412W        W12701  26.569  26.989  11.059
51413W        W12702  24.716  20.274  10.152
51414W        W12703  11.216  23.985   4.758
51415W        W12704  15.187  21.557  14.927
51416W        W12705  13.699  10.271   0.745
51417W        W12706  17.762  13.318  14.018
51418W        W12707  41.506  20.235  13.313
51419W        W12708  39.449  28.031  10.946
51420W        W12709  40.013   2.265  14.329
51421W        W12710  15.597  27.118  12.570
51422W        W12711   2.877  17.159  12.958
51423W        W12712  16.264  34.874  10.094
51424W        W12713   3.251  28.438   4.245
51425W        W12714  19.752  29.459  12.402
51426W        W12715   4.407  34.906  10.945
51427W        W12716   9.228  14.694  11.467
51428W        W12717  35.942  21.629   3.213
51429W        W12718  27.495  43.405   3.652
51430W        W12719  24.564   4.854  11.975
51431W        W12720  31.620  40.487   2.819
51432W        W12721  17.127  17.190  13.336
51433W        W12722   5.414  18.257  14.803
51434W        W12723  19.281  23.562  10.569
51435W        W12724  24.689   8.793   9.645
51436W        W12725  22.135   1.410   3.234
51437W        W12726  21.567  43.884  14.972
51438W        W12727  19.106  29.516  11.990
51439W        W12728  29.939   4.253  14.454
51440W        W12729  16.662  19.654  11.105
51441W        W12730  37.983  28.627  14.025
51442W        W12731  18.666  14.196  14.833
51443W        W12732  40.838  12.844   2.382
51444W        W12733  13.606  25.681  12.439
51445W        W12734  10.634  35.942   2.253
51446W        W12735   4.856   9.381   4.208
51447W        W12736  43.509  38.495   4.125
51448W        W12737  39.377   8.695  14.027
51449W        W12738  10.162  10.275   4.314
51450W        W12739  34.944  40.351   2.393
51451W        W12740  19.154   8.308  14.921
51452W        W12741  35.862  26.983  14.475
51453W        W12742  41.963  41.039   4.683
51454W        W12743  40.442  12.212  12.559
51455W        W12744  30.495   9.263   3.764
51456W        W12745  34.472  34.537   2.373
51457W        W12746  44.345  31.610  11.047
51458W        W12747  28.490  40.042   3.674
51459W        W12748   8.849  10.755  14.787
51460W        W12749  23.583  33.535  10.947
51461W        W12750  10.220  21.604   0.387
51462W        W12751   3.298   0.767   2.722
51463W        W12752   6.335  16.719   3.386
51464W        W12753   5.194  27.113  14.875
51465W        W12754  36.541   0.279   3.173
51466W        W12755  11.144  34.590   0.844
51467W        W12756  39.360  28.443  12.945
51468W        W12757  18.088   5.329  14.345
51469W        W12758  27.573  36.590  12.830
51470W        W12759  33.618  18.081  10.045
51471W        W12760   6.682  15.699  13.047
51472W        W12761  12.770  40.494   3.730
51473W        W12762  19.104   9.149  10.533
51474W        W12763  11.245   6.351   0.345
51475W        W12764  28.584   4.895  14.440
51476W        W12765  33.539  26.597  11.386
51477W        W12766  27.119  35.956  13.850
51478W        W12767  13.619   5.751  14.998
51479W        W12768  36.946  33.129   0.268
51480W        W12769  13.734  22.627  13.408
51481W        W12770  40.385  20.713   1.723
51482W        W12771  38.960   9.152   4.210
51483W        W12772   0.943   9.264  10.016
51484W        W12773  27.504   4.215  12.015
51485W        W12774  34.516  34.603   0.950
51486W        W12775  12.341  42.018   0.909
51487W        W12776  29.568   6.345  14.319
51488W        W12777  38.963   9.780   2.352
51489W        W12778  41.338  34.587  11.482
51490W        W12779  29.519   9.837  13.837
51491W        W12780  23.204  14.120  13.831
51492W        W12781  14.288  34.001  10.927
51493W        W12782  39.819  36.859  12.982
51494W        W12783  40.054   1.344  12.942
51495W        W12784  43.831  10.156  11.581
51496W        W12785  37.920  15.198   4.613
51497W        W12786  18.607  41.486   3.719
51498W        W12787  13.208  41.366  11.426
51499W        W12788  42.932  10.774  14.840
51500W        W12789  19.246  37.057  10.928
51501W        W12790   2.959  22.098  13.962
51502W        W12791  20.598  17.077  10.992
51503W        W12792   9.659  41.402  10.559
51504W        W12793  20.073  40.523  14.896
51505W        W12794  37.054  43.274  12.553
51506W        W12795  23.517  25.036   0.468
51507W        W12796  14.826   4.761   4.764
51508W        W12797  33.886  16.786  11.988
51509W        W12798  13.261  28.445   0.408
51510W        W12799  17.116   0.360   3.203
51511W        W12800  19.175   6.764  11.931
51512W        W12801  42.000   9.791  14.412
51513W        W12802  31.537  13.164  10.948
51514W        W12803   7.297   6.259   2.325
51515W        W12804   0.365  44.814  12.530
51516W        W12805   3.865  16.581   4.341
51517W        W12806   7.255  21.111   3.634
51518W        W12807  34.993   4.806   2.292
51519W        W12808  12.118  21.518   1.352
51520W        W12809  23.516  14.182  11.953
51521W        W12810   4.263  44.905  10.904
51522W        W12811  29.582  42.390  13.519
51523W        W12812   6.366  35.947   5.124
51524W        W12813  35.403  25.629  13.485
51525W        W12814  13.791  17.088  14.953
51526W        W12815  18.634   7.293   2.771
51527W        W12816  23.176  28.940   3.763
51528W        W12817  22.560  33.625  14.885
51529W        W12818  30.933  43.951  10.536
51530W        W12819   5.740   7.353   2.758
51531W        W12820  20.681  44.340  14.905
51532W        W12821  44.996  30.435   4.832
51533W        W12822  32.477   8.880   3.640
51534W        W12823  15.778  31.495   1.778
51535W        W12824  12.314  33.413  12.494
51536W        W12825  29.661   8.370   2.324
51537W        W12826  38.906  37.046  13.898
51538W        W12827  40.433   5.264   1.872
51539W        W12828  34.442  32.007  14.409
51540W        W12829  39.515   7.806   2.407
51541W        W12830   7.808  21.749   0.883
51542W        W12831  15.649  36.569  14.426
51543W        W12832  33.591  22.069   3.725
51544W        W12833  21.594   7.267  11.442
51545W        W12834  32.938  10.795  14.303
51546W        W12835  41.818  30.104  10.529
51547W        W12836  32.888   3.321  10.578
51548W        W12837  31.142  31.058  13.975
51549W        W12838  28.155   7.324   4.601
51550W        W12839  44.505  35.870   0.271
51551W        W12840  22.654  22.738  13.360
51552W        W12841  39.011  38.877   2.673
51553W        W12842  24.589  35.595  13.823
51554W        W12843   6.291  27.484   1.256
51555W        W12844  32.474  41.039   2.847
51556W        W12845   2.254  22.033   2.328
51557W        W12846  13.120  43.348  10.956
51558W        W12847  39.482  35.016  11.433
51559W        W12848  34.542  10.377   4.291
51560W        W12849  31.450  16.809  11.943
51561W        W12850  20.063  20.140  11.939
51562W        W12851  25.965  31.118   1.319
51563W        W12852  40.518  39.417   0.295
51564W        W12853  12.298  41.904   2.771
51565W        W12854  14.161  14.731   0.391
51566W        W12855   4.728   6.679  10.591
51567W        W12856   9.270  18.581  13.508
51568W        W12857  10.874  19.758  12.006
51569W        W12858  11.772  26.068   1.352
51570W        W12859  41.859  14.174   0.747
51571W        W12860  43.842   7.241  14.010
51572W        W12861  27.010  30.595  10.591
51573W        W12862  17.651   2.338   1.893
51574W        W12863  10.186   7.381  13.887
51575W        W12864  14.788   0.462   2.408
51576W        W12865  43.305  42.418   2.281
51577W        W12866   1.405   2.460  10.573
51578W        W12867  41.469  36.035   2.840
51579W        W12868   4.282  40.424  14.399
51580W        W12869  24.984  25.201   1.398
51581W        W12870  24.220  19.610   3.181
51582W        W12871  39.547  23.222   3.222
51583W        W12872  12.170  21.040  14.789
51584W        W12873   5.398   1.914  14.901
51585W        W12874  42.918  13.721  11.002
51586W        W12875  34.473  42.802   3.332
51587W        W12876  36.584  27.055   0.797
51588W        W12877  28.468   1.941   2.743
51589W        W12878   7.801  19.067  11.094
51590W        W12879   5.427  25.219   4.674
51591W        W12880  20.091  29.607  10.499
51592W        W12881  18.162  31.448   0.433
51593W        W12882  21.030  32.950  12.896
51594W        W12883  41.529  31.491   3.664
51595W        W12884  22.111  16.725   1.390
51596W        W12885  39.013  34.010  11.404
51597W        W12886  23.225  19.738   1.273
51598W        W12887  42.428  17.281   9.950
51599W        W12888  12.729  14.099  14.848
51600W        W12889   6.797  43.336  13.470
51601W        W12890  23.016  26.513   4.270
51602W        W12891   6.800  11.636   0.315
51603W        W12892  35.994  11.220  11.052
51604W        W12893  22.656  21.636   0.463
51605W        W12894   9.799  36.373  12.560
51606W        W12895  40.323  41.447  14.849
51607W        W12896  12.120   8.840   3.146
51608W        W12897  42.994  21.251   3.323
51609W        W12898  28.451  43.373   2.386
51610W        W12899   5.243  36.043   0.727
51611W        W12900   3.870  28.151  11.440
51612W        W12901  21.184  13.187  11.047
51613W        W12902  30.959   8.762   1.826
51614W        W12903  11.768   5.880  13.973
51615W        W12904  40.830   7.321   0.403
51616W        W12905  42.887  20.541   4.708
51617W        W12906  18.058  12.718   1.732
51618W        W12907   0.408  43.006  10.955
51619W        W12908  15.161  44.886   1.441
51620W        W12909  26.093  44.839   2.371
51621W        W12910  17.669  12.319   2.349
51622W        W12911  36.906  12.290   3.761
51623W        W12912  37.012  23.129  11.951
51624W        W12913  24.603  24.977   0.926
51625W        W12914   3.856  24.692  11.980
51626W        W12915  21.713  20.044  14.898
51627W        W12916  21.246  43.865  14.943
51628W        W12917  32.108  18.282  12.083
51629W        W12918  33.618  11.365  10.514
51630W        W12919  39.951   5.812   2.258
51631W        W12920   7.742  39.055   0.428
51632W        W12921  37.486  10.177   1.295
51633W        W12922  21.517  24.226  13.039
51634W        W12923  29.109  33.104   4.643
51635W        W12924  30.077  11.863  11.433
51636W        W12925   4.219  31.448   3.753
51637W        W12926  20.676  10.170   4.182
51638W        W12927   5.200  15.241   4.775
51639W        W12928  25.641   5.758  12.497
51640W        W12929  12.799  11.169   3.323
51641W        W12930  23.992  18.656  12.951
51642W        W12931  13.689   3.397   3.329
51643W        W12932  19.182  33.913   3.182
51644W        W12933  23.191  36.014  12.982
51645W        W12934  25.661  29.942  12.011
51646W        W12935   4.869  12.732  12.913
51647W        W12936  43.311  25.507  13.824
51648W        W12937  40.378  21.053  13.822
51649W        W12938  43.986  11.258   2.329
51650W        W12939  11.359   3.720   3.841
51651W        W12940  35.868  19.204   3.807
51652W        W12941  44.981  37.017  10.427
51653W        W12942  11.815   6.208   0.824
51654W        W12943   3.721  41.315   4.278
51655W        W12944  43.404  37.372  12.529
51656W        W12945   5.899  17.663  13.969
51657W        W12946  27.107   7.798  10.923
51658W        W12947  18.771  11.177   3.301
51659W        W12948   9.162  17.164   4.638
51660W        W12949   0.403   3.248  13.386
51661W        W12950  16.734  18.168  13.866
51662W        W12951  29.040   8.741   3.287
51663W        W12952  39.481  34.602  12.942
51664W        W12953   3.257   1.778  13.809
51665W        W12954   6.303  38.415   4.689
51666W        W12955  12.151  32.630   2.246
51667W        W12956  40.441  32.503   3.384
51668W        W12957   0.360  14.094   2.677
51669W        W12958  35.924  25.688  11.596
51670W        W12959  27.154  27.547  10.494
51671W        W12960   7.226  44.345  14.509
51672W        W12961   5.242  20.195   1.311
51673W        W12962  30.446  29.160  10.915
51674W        W12963   2.245  37.041   1.811
51675W        W12964   3.439  25.518  12.875
51676W        W12965  43.928  34.968  14.016
51677W        W12966   7.188  39.946  14.802
51678W        W12967  34.029  14.188  14.280
51679W        W12968   7.194  38.519   4.135
51680W        W12969  28.506  27.605   3.763
51681W        W12970  19.748  43.389   3.299
51682W        W12971   5.852  40.905  12.087
51683W        W12972  40.482  28.948   5.320
51684W        W12973  44.957  42.977  14.833
51685W        W12974  15.706  17.279   0.965
51686W        W12975  19.149  18.691  10.518
51687W        W12976  18.167  32.915   3.258
51688W        W12977  25.708  40.369   4.220
51689W        W12978  42.394   6.366   0.855
51690W        W12979   1.453  23.689   0.955
51691W        W12980  36.971  25.981  13.813
51692W        W12981  15.132  31.413  14.930
51693W        W12982   4.447  19.267   2.413
51694W        W12983   7.850  42.294  13.345
51695W        W12984  28.964   6.291   1.929
51696W        W12985  34.389  26.056   0.865
51697W        W12986  26.060  36.360  11.002
51698W        W12987  22.006  38.547  10.955
51699W        W12988  30.447   9.244  10.631
51700W        W12989  10.342   9.674   1.310
51701W        W12990  12.838   0.300   0.911
51702W        W12991   1.760  38.337   3.245
51703W        W12992  11.768   7.298  14.885
51704W        W12993  35.085  43.409   4.251
51705W        W12994  30.464  38.385   3.167
51706W        W12995  40.362  32.577   4.793
51707W        W12996  39.920  21.670  14.804
51708W        W12997  21.659   7.332   2.217
51709W        W12998  19.082  10.219   0.404
51710W        W12999   7.904   0.930  12.839
51711W        W13000  33.128  38.556  14.312
51712W        W13001  27.179   8.322   2.252
51713W        W13002  15.750  18.053   4.201
51714W        W13003  36.967  44.985   2.666
51715W        W13004  28.959  30.935  12.898
51716W        W13005  14.809  10.740  10.607
51717W        W13006   8.660  16.712   4.600
51718W        W13007  32.525  17.100  13.379
51719W        W13008  10.269  17.152   1.418
51720W        W13009  31.409  16.143  14.011
51721W        W13010  20.761  40.888  11.889
51722W        W13011  39.403  42.985   1.279
51723W        W13012  25.175   6.371  11.513
51724W        W13013  23.241   2.371  11.986
51725W        W13014  14.264  24.500  14.027
51726W        W13015  30.117   2.406  13.521
51727W        W13016  16.296   5.925   3.382
51728W        W13017   0.982   0.482  11.922
51729W        W13018  29.666  13.349  14.307
51730W        W13019   8.188   3.318  12.909
51731W        W13020  26.591  39.474   0.255
51732W        W13021  19.558  14.335   4.759
51733W        W13022   4.271  30.476  13.509
51734W        W13023   9.833   9.247   1.402
51735W        W13024  32.587   4.865  10.105
51736W        W13025  21.042  12.240   0.942
51737W        W13026  22.155  42.486   2.248
51738W        W13027  15.802  33.431  14.461
51739W        W13028  41.433  18.613  11.097
51740W        W13029  33.991  16.624  14.361
51741W        W13030  17.762  42.324   3.631
51742W        W13031  38.915  37.886   4.124
51743W        W13032  30.961   6.246   0.415
51744W        W13033  38.027   2.799   3.786
51745W        W13034  43.450  20.049  13.450
51746W        W13035  18.171  26.971   3.353
51747W        W13036  34.113  13.628  11.522
51748W        W13037  41.999  16.108   1.359
51749W        W13038  37.017  27.072  12.984
51750W        W13039  14.202  10.813   4.316
51751W        W13040  18.092  44.336  11.003
51752W        W13041  19.069   9.232   1.741
51753W        W13042  43.288  21.528  12.914
51754W        W13043   5.838  37.487   0.356
51755W        W13044  20.096  34.556   2.809
51756W        W13045  28.470  42.498  13.332
51757W        W13046  17.737   4.838   1.767
51758W        W13047  13.752  19.695  11.966
51759W        W13048   3.793   2.383   1.763
51760W        W13049  26.088  44.975  14.773
51761W        W13050  14.137  14.605  14.934
51762W        W13051  18.592  11.133   4.172
51763W        W13052   4.847   5.858   0.414
51764W        W13053   1.961  30.415  10.931
51765W        W13054  15.639  10.692  11.017
51766W        W13055  31.084  43.281   0.730
51767W        W13056   8.308  13.838   1.736
51768W        W13057  29.548  36.397  13.952
51769W        W13058   2.752  32.535   4.288
51770W        W13059  30.965  44.478  12.917
51771W        W13060   1.746  44.414  13.546
51772W        W13061  33.496  29.543  14.882
51773W        W13062  19.625  38.866   1.890
51774W        W13063  12.334   5.211   0.774
51775W        W13064  31.095  39.982   2.189
51776W        W13065  39.346  17.580  14.877
51777W        W13066   5.241  15.124   3.200
51778W        W13067  31.067   7.206  11.489
51779W        W13068  36.005  31.481   1.773
51780W        W13069   0.941  21.197   3.263
51781W        W13070  41.993   3.890   3.150
51782W        W13071  21.728  19.751   1.364
51783W        W13072  20.681  20.263  11.513
51784W        W13073  36.359  25.168   3.153
51785W        W13074  20.076  24.131  13.986
51786W        W13075   0.341  32.419  10.899
51787W        W13076   0.884  34.471  14.759
51788W        W13077  40.915   2.260   2.290
51789W        W13078  21.599   8.798   4.604
51790W        W13079  33.587   3.850  14.787
51791W        W13080   8.666  22.249  11.457
51792W        W13081  21.706  23.551   0.783
51793W        W13082   1.752  13.348  11.043
51794W        W13083  17.286  12.805  14.433
51795W        W13084  43.887  27.098  14.012
51796W        W13085  18.126  23.988  10.971
51797W        W13086  32.413  22.191   0.378
51798W        W13087  27.471  42.942  11.601
51799W        W13088  21.624  34.502   1.875
51800W        W13089  41.876  23.599   4.792
51801W        W13090  40.408  17.649  12.518
51802W        W13091  22.677  24.026   4.651
51803W        W13092  44.458  40.334   0.424
51804W        W13093  39.505  24.637  11.953
51805W        W13094   7.832  31.605  11.579
51806W        W13095  35.510  16.254  12.517
51807W        W13096  10.741  21.258  14.885
51808W        W13097   2.901  28.127  11.921
51809W        W13098   3.245  21.097  12.044
51810W        W13099  33.099  42.410   3.329
51811W        W13100  17.140  38.382  13.427
51812W        W13101  10.236  36.080  10.453
51813W        W13102  15.197  28.186  10.410
51814W        W13103  21.227  44.004   2.399
51815W        W13104  39.408  42.019   0.453
51816W        W13105  44.341  35.368  10.022
51817W        W13106   7.293  24.106  14.926
51818W        W13107  20.229  18.668  14.941
51819W        W13108  10.302  27.637  11.125
51820W        W13109   8.342  21.552   1.425
51821W        W13110   2.260   3.777   3.166
51822W        W13111   9.855   6.209   0.312
51823W        W13112  43.780  41.873  11.930
51824W        W13113  25.071  33.952  13.532
51825W        W13114   6.405   1.965  14.974
51826W        W13115  22.179  24.126   4.263
51827W        W13116  14.629   5.865   0.422
51828W        W13117   5.386  38.018   1.933
51829W        W13118   8.771  37.509  14.443
51830W        W13119  15.152  40.452   0.796
51831W        W13120   1.923  12.121  14.020
51832W        W13121  32.928  34.098  13.014
51833W        W13122  26.513  28.061   0.841
51834W        W13123  19.176  18.118   4.800
51835W        W13124  31.459  26.072   2.218
51836W        W13125  11.174  21.708  14.847
51837W        W13126  41.864  43.867   2.213
51838W        W13127  21.133  40.023   4.711
51839W        W13128   0.435   4.244   3.271
51840W        W13129  40.451  11.283   1.728
51841W        W13130  15.753  34.105  12.470
51842W        W13131  39.328  42.023  10.589
51843W        W13132  34.555   8.223   3.827
51844W        W13133  31.480   9.737   2.384
51845W        W13134  35.873  26.180   3.688
51846W        W13135  12.795  21.053   9.529
51847W        W13136   0.899  11.799  13.022
51848W        W13137  18.254   2.450   4.770
51849W        W13138  12.196  11.722  11.932
51850W        W13139  27.099  34.088  10.411
51851W        W13140  36.913  33.468  12.079
51852W        W13141   7.277  32.910  14.309
51853W        W13142  18.159  32.573   1.833
51854W        W13143  38.478  30.042   3.299
51855W        W13144  38.568  26.173   0.784
51856W        W13145   0.759  42.367   4.758
51857W        W13146  15.222   1.399   0.898
51858W        W13147  37.469  29.945   4.690
51859W        W13148  32.014  12.275  12.056
51860W        W13149  11.740   5.372  14.772
51861W        W13150  29.127  39.383   3.363
51862W        W13151  10.772  19.754  12.932
51863W        W13152  26.975   6.351  11.462
51864W        W13153  44.294   3.793   4.303
51865W        W13154  43.999  19.113   4.217
51866W        W13155  41.331  39.921   3.286
51867W        W13156  39.446  25.990   0.279
51868W        W13157  42.506  39.936   3.316
51869W        W13158   8.338  41.920   1.251
51870W        W13159  26.970  33.978  14.797
51871W        W13160  39.433  19.216   3.246
51872W        W13161   7.724  27.077   2.356
51873W        W13162  14.751  21.037   0.277
51874W        W13163   4.440   7.685  12.481
51875W        W13164  43.998  12.172  14.892
51876W        W13165   1.400  28.101   1.923
51877W        W13166  27.446  27.067   3.339
51878W        W13167  44.355  25.545  13.922
51879W        W13168  38.995  18.284  13.356
51880W        W13169  15.649  25.106  14.838
51881W        W13170  10.251  43.309   4.207
51882W        W13171   6.226   4.941  12.367
51883W        W13172  36.513  16.752  10.989
51884W        W13173  11.210  25.179  10.976
51885W        W13174  43.305  39.898  13.918
51886W        W13175  17.238  32.103   4.289
51887W        W13176   2.954  21.560  11.895
51888W        W13177   8.323  43.005  12.895
51889W        W13178  29.437   3.738  13.796
51890W        W13179  15.223  11.722  11.972
51891W        W13180  15.677  43.866   3.632
51892W        W13181  31.120  33.619   0.732
51893W        W13182  43.298  15.792  13.826
51894W        W13183  12.680  22.033  12.459
51895W        W13184  43.840  41.998   0.821
51896W        W13185  17.118  44.274   2.389
51897W        W13186  20.037  38.863  12.034
51898W        W13187   0.359  40.016   2.709
51899W        W13188  27.054  17.555   0.416
51900W        W13189  32.404  19.607   3.175
51901W        W13190  27.620  19.120  10.501
51902W        W13191  17.280  18.276  11.378
51903W        W13192  32.014  44.469  13.438
51904W        W13193  42.345   7.865   5.239
51905W        W13194  21.126  42.303   0.257
51906W        W13195  27.974  16.657   1.844
51907W        W13196  35.023  28.597  12.961
51908W        W13197  10.214  14.725   2.248
51909W        W13198   5.894  44.503   3.810
51910W        W13199  27.654  19.222  14.979
51911W        W13200  10.846  30.107   5.640
51912W        W13201  36.856  17.224   3.238
51913W        W13202  23.099  22.039   3.240
51914W        W13203  27.662   7.351   4.823
51915W        W13204  23.180   2.394  13.860
51916W        W13205   5.228  41.862   4.631
51917W        W13206  20.151  33.025   1.929
51918W        W13207  30.066   1.793   2.250
51919W        W13208  19.077  40.949   0.906
51920W        W13209   0.878  30.931   4.767
51921W        W13210  20.553  16.207  13.337
51922W        W13211  30.560   8.681   0.832
51923W        W13212   1.819  33.441  11.072
51924W        W13213  13.347  40.876  11.573
51925W        W13214   5.836  11.335  11.063
51926W        W13215  34.929  29.147   4.717
51927W        W13216  12.754  31.551  10.501
51928W        W13217  25.014  34.382  10.486
51929W        W13218  30.094  36.374   4.826
51930W        W13219  44.323   5.887  14.300
51931W        W13220  17.649  41.901  11.486
51932W        W13221  19.048  20.756   3.760
51933W        W13222  12.626  41.863   0.263
51934W        W13223  18.636  43.316   2.675
51935W        W13224  38.392   6.418  12.897
51936W        W13225   7.357  13.247  11.970
51937W        W13226  36.581  14.172  13.955
51938W        W13227  13.147  33.560   0.482
51939W        W13228  26.587  39.848  12.936
51940W        W13229  40.941  43.914   1.263
51941W        W13230  33.399   6.330   5.142
51942W        W13231  24.702  33.435  12.533
51943W        W13232   7.287  33.493   9.997
51944W        W13233  31.515  23.221  11.116
51945W        W13234  26.499  38.877   4.775
51946W        W13235  22.168  26.562  11.945
51947W        W13236  36.922  16.806  14.473
51948W        W13237  11.165  42.005  14.426
51949W        W13238  14.115  24.163  14.327
51950W        W13239   1.923  19.171  10.619
51951W        W13240  33.550   3.324   3.319
51952W        W13241  11.712   0.406   3.243
51953W        W13242  35.001   4.255  14.818
51954W        W13243  38.349  21.021  14.778
51955W        W13244  16.266  33.475  14.853
51956W        W13245   9.809  30.463  10.920
51957W        W13246  40.519  15.602   0.327
51958W        W13247  32.563  24.505  11.117
51959W        W13248  16.655  15.206   2.841
51960W        W13249  29.665  24.671  14.970
51961W        W13250  38.904   5.224   1.916
51962W        W13251  32.439  14.230   3.644
51963W        W13252   5.875  18.063  13.317
51964W        W13253  26.569  35.572  14.973
51965W        W13254  23.203  38.869  10.563
51966W        W13255  29.604   3.947  14.298
51967W        W13256  37.004  28.074   2.737
51968W        W13257  11.367   9.215   3.214
51969W        W13258  44.961  25.189  12.463
51970W        W13259  16.600   4.898  10.954
51971W        W13260  24.495  21.661  14.942
51972W        W13261   7.356  13.250  14.350
51973W        W13262  12.637  38.462  12.904
51974W        W13263  39.344  43.461   1.719
51975W        W13264  31.149   9.205   4.332
51976W        W13265  41.813  19.751  10.924
51977W        W13266  29.450  24.534   0.257
51978W        W13267  34.961  32.439  13.363
51979W        W13268  37.551  14.094   9.947
51980W        W13269  31.567  26.589   2.233
51981W        W13270  29.948   4.738   3.310
51982W        W13271  34.086  26.080   2.777
51983W        W13272  37.965  30.631   1.305
51984W        W13273  26.110  37.525  10.540
51985W        W13274   5.830   2.337  12.868
51986W        W13275  35.059  34.888   5.139
51987W        W13276  27.537  19.125   3.215
51988W        W13277  35.906  32.503  10.583
51989W        W13278  44.390  28.515  12.396
51990W        W13279  18.599  39.545  11.564
51991W        W13280  16.146   1.428  13.940
51992W        W13281   9.718  37.013   1.254
51993W        W13282  31.423  44.385   2.743
51994W        W13283   5.709  41.015   3.169
51995W        W13284  24.523   4.824   2.276
51996W        W13285  12.805  40.980  14.318
51997W        W13286  11.816  17.640   4.701
51998W        W13287  33.958  20.053   2.759
51999W        W13288  25.047   8.403  13.410
52000W        W13289  35.571  20.220   4.771
52001W        W13290  34.020  38.038  12.068
52002W        W13291  20.691   7.705   2.241
52003W        W13292  24.978   3.406  14.397
52004W        W13293  12.756  35.980   2.336
52005W        W13294  35.563   7.725  14.411
52006W        W13295  32.966  31.916  13.043
52007W        W13296  34.053   4.722   1.364
52008W        W13297   9.776  19.542  11.048
52009W        W13298  31.619  19.561   0.275
52010W        W13299   3.229  44.839   0.383
52011W        W13300  19.760  20.590  14.995
52012W        W13301  21.228  16.206   4.784
52013W        W13302   8.192  35.365  13.348
52014W        W13303  22.153  42.028   2.885
52015W        W13304  34.121  24.150  10.921
52016W        W13305  29.530   7.799  13.880
52017W        W13306  13.728   6.727  10.946
52018W        W13307  33.091  18.237   3.802
52019W        W13308  21.556  32.470  11.560
52020W        W13309  43.365  31.911  10.949
52021W        W13310  13.106  20.762   1.296
52022W        W13311  16.735  12.683   4.782
52023W        W13312   7.250  23.581  13.312
52024W        W13313   1.806  10.223  11.011
52025W        W13314  32.058  20.201   0.769
52026W        W13315  23.099   3.303   2.666
52027W        W13316  21.577  24.498   1.762
52028W        W13317  43.506   7.337   1.820
52029W        W13318  29.088   6.755  14.461
52030W        W13319  38.032   9.327   4.204
52031W        W13320  29.081   9.174  14.446
52032W        W13321  14.111  32.076  11.890
52033W        W13322   6.314  13.203  12.854
52034W        W13323   1.303   8.725   3.711
52035W        W13324  21.040  18.776  11.003
52036W        W13325  17.157   4.292   0.257
52037W        W13326  11.712  22.703   2.739
52038W        W13327  24.587  27.668  13.001
52039W        W13328  38.450  13.799  11.485
52040W        W13329  44.890  38.428  12.380
52041W        W13330  21.230   5.787  12.451
52042W        W13331   5.348   0.857  11.893
52043W        W13332  35.097  40.950   2.359
52044W        W13333  24.481   0.399   3.225
52045W        W13334  15.775  29.058  13.535
52046W        W13335  28.129  15.165   0.460
52047W        W13336  15.330  23.081   4.148
52048W        W13337  41.035   5.818  13.935
52049W        W13338   9.814  37.461   4.712
52050W        W13339   1.443  44.884  11.611
52051W        W13340   2.332  28.935   0.303
52052W        W13341   6.890  32.496  14.419
52053W        W13342  15.317   4.435   3.854
52054W        W13343  19.086  40.950  11.095
52055W        W13344  28.582  35.556  13.853
52056W        W13345  34.549  13.285   3.154
52057W        W13346  32.417  39.056   2.269
52058W        W13347  16.116  24.084   1.930
52059W        W13348  28.100  30.588   2.766
52060W        W13349   2.841  35.480  14.003
52061W        W13350  42.291  36.057   4.716
52062W        W13351   4.446  23.993  14.807
52063W        W13352   5.850  36.944  12.408
52064W        W13353  15.296  13.127   1.894
52065W        W13354  33.618  35.004   1.742
52066W        W13355  18.605  12.730   1.319
52067W        W13356  22.553  35.906  10.129
52068W        W13357  11.647   4.261   5.121
52069W        W13358  29.557   5.916   0.385
52070W        W13359  38.940  11.851   3.771
52071W        W13360  34.426  11.762  11.496
52072W        W13361  29.513  12.699   0.320
52073W        W13362  17.248  29.920  12.922
52074W        W13363  26.469  23.546  12.400
52075W        W13364  11.631   9.332  11.881
52076W        W13365   4.845  40.422  10.459
52077W        W13366  35.472  13.184   0.411
52078W        W13367  38.561   6.776   3.382
52079W        W13368  26.057  33.467   0.400
52080W        W13369  22.595  42.911   2.310
52081W        W13370  14.108  13.721   2.355
52082W        W13371   9.259  42.901   2.193
52083W        W13372  35.094  41.360   1.306
52084W        W13373  18.723  38.835  10.563
52085W        W13374   3.815  40.407  12.527
52086W        W13375  30.941  19.771   1.913
52087W        W13376  28.590  43.000   4.310
52088W        W13377  27.989  42.306  14.003
52089W        W13378  28.577  17.655   2.772
52090W        W13379   3.747  10.173   4.313
52091W        W13380  41.927   5.726  14.513
52092W        W13381   6.262  26.634   4.715
52093W        W13382  22.102   3.901   1.756
52094W        W13383  37.865  20.217  11.904
52095W        W13384  43.371  16.583  13.910
52096W        W13385  21.716  10.691  13.469
52097W        W13386  15.714  26.107   0.404
52098W        W13387  38.341  37.550  11.900
52099W        W13388  28.127  15.195   1.433
52100W        W13389   6.355   7.347   0.742
52101W        W13390  15.718  18.089   2.402
52102W        W13391   5.726  40.326   1.416
52103W        W13392   0.948  38.852  11.375
52104W        W13393  26.586  28.014   2.811
52105W        W13394   5.363  28.674  10.453
52106W        W13395  17.573  29.468   3.823
52107W        W13396  14.252  23.085  14.877
52108W        W13397  17.617  29.157   1.265
52109W        W13398   8.689  27.552  11.025
52110W        W13399  37.559  21.195   1.924
52111W        W13400  37.888   4.934  12.466
52112W        W13401  16.713  31.903   2.753
52113W        W13402  24.605   6.685  13.425
52114W        W13403   5.818  29.934   1.819
52115W        W13404   3.449  21.152   0.300
52116W        W13405  29.010  39.402  13.030
52117W        W13406  30.532  27.058  10.518
52118W        W13407  44.805  40.433  11.397
52119W        W13408  23.653  19.203   3.653
52120W        W13409   6.201   9.824   3.351
52121W        W13410  22.152  42.372   1.409
52122W        W13411  25.614  17.139   1.304
52123W        W13412  12.341  28.503   1.428
52124W        W13413  14.222   9.181   3.694
52125W        W13414  12.622   0.427  14.465
52126W        W13415  44.475  25.135  12.397
52127W        W13416   1.412  24.691  14.766
52128W        W13417   9.286  24.212   4.312
52129W        W13418  42.832  40.459  13.924
52130W        W13419   4.778  12.316  14.858
52131W        W13420  32.135  20.224   2.330
52132W        W13421  14.685  26.640  14.414
52133W        W13422  31.100  40.963   3.846
52134W        W13423  29.969  14.707   1.773
52135W        W13424  43.372   6.720  12.983
52136W        W13425  24.109  12.655  13.419
52137W        W13426  26.575  30.002   3.343
52138W        W13427  20.695  18.558  12.987
52139W        W13428  24.044  10.702   0.309
52140W        W13429  34.029  32.963   2.285
52141W        W13430   1.351  27.659  13.996
52142W        W13431  19.715   0.391  13.349
52143W        W13432  13.632  29.020   3.171
52144W        W13433   6.781  16.573  11.593
52145W        W13434  15.738  17.273  13.509
52146W        W13435  23.158   3.457   0.459
52147W        W13436  22.200  35.058  10.621
52148W        W13437  21.205  11.146  14.827
52149W        W13438  26.074   5.725   3.796
52150W        W13439  34.076  24.642  10.448
52151W        W13440  37.041   0.789   0.361
52152W        W13441  43.885  40.378  10.561
52153W        W13442  18.763  36.884   2.349
52154W        W13443   1.343  43.337   0.411
52155W        W13444  26.102  26.544  14.465
52156W        W13445  44.949  41.840   0.357
52157W        W13446   3.829   0.306  12.562
52158W        W13447  34.978  41.831   3.370
52159W        W13448   4.363  13.325  13.831
52160W        W13449  20.750  40.445  13.520
52161W        W13450   3.388  21.678   2.850
52162W        W13451  20.666  33.876  11.577
52163W        W13452  14.613   2.407  13.401
52164W        W13453   2.945  16.272  14.939
52165W        W13454  27.548   5.927  10.887
52166W        W13455  15.221   2.279   1.710
52167W        W13456  25.692  17.207  10.518
52168W        W13457  36.590  35.879  12.489
52169W        W13458  12.642   4.915   2.366
52170W        W13459  40.326  20.271  14.303
52171W        W13460  12.777  15.132  11.584
52172W        W13461  22.665  24.168  13.834
52173W        W13462  25.599  15.260   2.381
52174W        W13463  10.201   3.904   0.781
52175W        W13464  26.032   6.390  11.931
52176W        W13465   7.790  40.329   3.214
52177W        W13466   6.331  33.099  13.876
52178W        W13467  26.053   0.825  14.279
52179W        W13468  13.738   4.783   5.276
52180W        W13469  21.756  24.637  14.512
52181W        W13470  10.679  31.488   5.310
52182W        W13471  11.822   8.369   4.307
52183W        W13472  43.422   7.349  11.509
52184W        W13473  38.502  25.674   0.901
52185W        W13474  38.410  13.327  10.607
52186W        W13475  34.893   4.876   0.361
52187W        W13476  16.741  43.388  13.903
52188W        W13477  26.584  13.192   3.288
52189W        W13478  21.668   4.321   4.182
52190W        W13479  28.490  28.969   0.388
52191W        W13480  25.129  18.182  13.056
52192W        W13481  30.020  40.962  14.462
52193W        W13482  18.768  18.776  11.450
52194W        W13483  22.029  38.538  13.341
52195W        W13484  39.969  29.142  11.088
52196W        W13485  17.720  21.606  10.025
52197W        W13486  19.749  24.053  14.312
52198W        W13487   0.838   1.755  12.999
52199W        W13488  24.644  24.710  12.074
52200W        W13489  33.111   6.718  11.469
52201W        W13490   7.743  35.025  10.530
52202W        W13491   5.426   0.921   3.812
52203W        W13492  26.192   4.898  13.838
52204W        W13493  39.440  37.034   1.337
52205W        W13494  44.799  26.623   0.452
52206W        W13495  20.760   2.867  13.863
52207W        W13496  33.623  33.567  13.824
52208W        W13497  17.737  12.247  12.569
52209W        W13498  27.534   3.351  13.331
52210W        W13499  30.007   5.431   2.213
52211W        W13500  36.904  22.506  12.552
52212W        W13501  12.260  43.445   4.689
52213W        W13502  25.011  10.223  13.864
52214W        W13503  38.073  24.227  13.950
52215W        W13504  15.208  11.146   2.272
52216W        W13505   7.220  43.988  12.939
52217W        W13506  21.093  12.330   0.292
52218W        W13507  12.754   4.824  10.908
52219W        W13508  27.538   5.774  12.890
52220W        W13509  11.148  28.932   4.124
52221W        W13510  12.217  19.688   0.468
52222W        W13511  44.383  22.009   3.181
52223W        W13512  39.858  40.429   4.795
52224W        W13513  23.080  13.162   1.413
52225W        W13514  25.520  27.153  11.585
52226W        W13515  23.640  13.338  10.500
52227W        W13516  22.238   1.787   0.832
52228W        W13517  25.141  36.534  14.948
52229W        W13518  26.617  30.946  11.033
52230W        W13519   3.461  42.937   3.288
52231W        W13520  11.682  41.915   0.751
52232W        W13521  36.099  27.091   0.459
52233W        W13522  31.945  37.938   3.370
52234W        W13523   6.427  21.662   1.921
52235W        W13524  17.603  29.610   0.756
52236W        W13525  24.609  34.885  13.890
52237W        W13526  26.637   7.848  10.644
52238W        W13527  34.597  25.641   0.915
52239W        W13528  17.255  42.396  12.068
52240W        W13529  43.970  24.222  12.053
52241W        W13530   5.194  40.839   4.322
52242W        W13531  26.521   1.865  10.618
52243W        W13532  38.431  20.139  11.570
52244W        W13533   9.760  39.982   1.319
52245W        W13534  41.837  38.010   0.414
52246W        W13535  10.144  35.958   1.729
52247W        W13536  43.943  39.985  14.875
52248W        W13537   0.821  31.085  11.528
52249W        W13538  44.383  35.883   2.414
52250W        W13539  41.526  33.384   3.657
52251W        W13540  14.826  29.943   3.220
52252W        W13541   7.318  14.651   4.763
52253W        W13542  23.173  28.954  14.386
52254W        W13543  10.160  33.477  13.797
52255W        W13544   0.962  41.012   1.913
52256W        W13545   8.746   0.269   2.344
52257W        W13546  12.626  27.145  14.003
52258W        W13547  34.609  44.433  10.616
52259W        W13548   7.852  33.088   9.490
52260W        W13549  32.006  44.860   1.260
52261W        W13550  13.730  27.566   3.641
52262W        W13551  28.447  35.014   4.276
52263W        W13552  23.631  37.085   2.686
52264W        W13553  43.305  25.992   4.634
52265W        W13554  18.222  15.635   3.659
52266W        W13555   7.819  11.801  12.963
52267W        W13556   3.826  26.202  14.342
52268W        W13557   8.377   6.921  14.356
52269W        W13558  39.381  33.067   3.758
52270W        W13559  16.566  28.032   2.899
52271W        W13560  31.402   0.398   4.312
52272W        W13561  24.612   6.310  13.801
52273W        W13562  44.767  11.835   2.183
52274W        W13563  24.612  31.151   3.814
52275W        W13564   2.903   8.299   3.818
52276W        W13565   8.304   1.866   4.763
52277W        W13566  28.661   4.395  14.764
52278W        W13567  16.632  40.346  13.022
52279W        W13568   2.916  34.099  11.392
52280W        W13569   9.177  36.882   3.186
52281W        W13570  42.942   4.236   4.284
52282W        W13571   4.437  18.755  13.991
52283W        W13572  38.437   6.761   1.272
52284W        W13573   1.299  28.545   3.232
52285W        W13574   5.757  12.813  11.550
52286W        W13575  19.737  27.476  10.570
52287W        W13576  33.076  32.482  10.502
52288W        W13577  19.199  29.523   1.222
52289W        W13578  42.817  22.622   5.088
52290W        W13579  22.043  23.196   2.713
52291W        W13580  13.826  12.283  14.462
52292W        W13581   0.864  29.097  11.543
52293W        W13582  30.980  27.126  10.601
52294W        W13583   5.246   2.443  14.911
52295W        W13584  18.629  20.645  13.796
52296W        W13585  12.236  43.318   3.752
52297W        W13586   1.272  30.976   4.822
52298W        W13587  37.834  36.558   0.432
52299W        W13588  26.591  29.487  14.506
52300W        W13589  33.912  17.275   0.285
52301W        W13590  26.983  27.129  12.356
52302W        W13591  41.829   1.440   3.178
52303W        W13592  15.692  32.467  11.583
52304W        W13593  12.129  20.236  14.494
52305W        W13594  10.302  40.488   0.469
52306W        W13595   7.363   7.843  11.124
52307W        W13596  12.728   5.257  12.983
52308W        W13597  18.775  32.466  13.941
52309W        W13598  12.827  27.095  14.969
52310W        W13599  27.481  35.905   4.741
52311W        W13600   0.421  30.494  12.866
52312W        W13601  13.282  34.585  13.891
52313W        W13602  27.574  39.855  12.566
52314W        W13603   8.857  31.526  13.527
52315W        W13604  22.248   7.241  12.862
52316W        W13605  12.673  43.959   0.257
52317W        W13606  26.048  25.710   1.405
52318W        W13607  32.100   8.783  14.951
52319W        W13608  25.505   6.296   2.375
52320W        W13609   6.910  10.340  12.033
52321W        W13610   0.337  39.901  13.356
52322W        W13611  23.223  35.041   2.237
52323W        W13612  13.318  32.082  13.824
52324W        W13613  20.766   6.368   3.231
52325W        W13614   6.193  36.523   1.232
52326W        W13615  10.179  35.396   1.397
52327W        W13616  38.390  40.990  12.974
52328W        W13617  24.979  20.627  10.073
52329W        W13618  36.402   1.975  11.537
52330W        W13619  26.124   1.275  11.016
52331W        W13620   4.765  32.396  12.947
52332W        W13621  42.941  27.680  11.924
52333W        W13622  18.657  20.201   1.266
52334W        W13623   1.431  35.476   1.734
52335W        W13624   1.934  16.145   0.759
52336W        W13625  33.452  25.053  10.552
52337W        W13626  28.941  38.390   4.728
52338W        W13627   3.338   9.745  13.953
52339W        W13628  10.877  34.382  13.347
52340W        W13629   0.418  24.662   4.224
52341W        W13630  28.652   2.799   4.267
52342W        W13631  43.504  18.763  11.547
52343W        W13632  41.871  14.313  12.027
52344W        W13633  36.850  44.974   4.220
52345W        W13634  39.427   5.383  14.012
52346W        W13635  10.657  33.586   1.859
52347W        W13636  33.121   7.907  11.036
52348W        W13637   3.358   7.755   2.343
52349W        W13638  27.047  31.041  14.966
52350W        W13639  22.092  25.097   1.239
52351W        W13640   2.442  22.099  12.924
52352W        W13641  31.624   5.378   1.332
52353W        W13642  37.965  28.114   0.353
52354W        W13643  15.721  38.392   0.825
52355W        W13644  12.711  15.237  11.932
52356W        W13645  33.007  37.984  11.610
52357W        W13646  23.044  37.049  12.432
52358W        W13647   4.398   2.769  13.394
52359W        W13648  10.690  16.700   1.294
52360W        W13649   2.450   0.462  14.353
52361W        W13650  27.136  23.516   5.288
52362W        W13651   9.167  21.166   4.790
52363W        W13652   0.456  20.707   3.649
52364W        W13653  21.687   9.660   3.328
52365W        W13654  10.872  37.569  12.517
52366W        W13655   1.740  43.010  10.997
52367W        W13656  27.494   2.381   1.297
52368W        W13657  26.089   6.204  10.434
52369W        W13658  21.688  10.294  12.966
52370W        W13659  12.615  22.712   0.375
52371W        W13660  33.913  35.876  11.438
52372W        W13661   5.749  18.609  12.845
52373W        W13662  41.796  29.441   1.905
52374W        W13663  14.590  15.741   1.791
52375W        W13664  12.161  30.107  10.898
52376W        W13665  20.087  26.576   4.296
52377W        W13666  39.540  44.269  12.570
52378W        W13667  14.304  15.607  12.541
52379W        W13668   6.313   4.914  14.008
52380W        W13669  39.441   8.894  11.023
52381W        W13670  28.036  12.194   5.705
52382W        W13671   3.853  15.759  12.492
52383W        W13672  24.624  38.456  13.459
52384W        W13673  27.194  35.999   4.813
52385W        W13674  23.642  37.411   3.640
52386W        W13675  39.824  34.063   1.397
52387W        W13676   3.318  25.124   2.210
52388W        W13677  23.580   3.778   1.382
52389W        W13678   2.850   1.795  13.317
52390W        W13679  30.925  39.455  14.999
52391W        W13680  25.073   5.289   2.805
52392W        W13681   5.778  15.663   2.868
52393W        W13682  23.719  28.650  12.555
52394W        W13683  32.887  44.275   0.399
52395W        W13684  26.156  25.539  10.641
52396W        W13685   8.169  10.681   3.159
52397W        W13686  11.221  35.377   4.229
52398W        W13687  12.275  27.550  13.318
52399W        W13688  36.859  36.455   0.771
52400W        W13689  13.604  35.881   0.388
52401W        W13690  14.202   8.734   4.833
52402W        W13691   5.436  41.529   2.825
52403W        W13692  33.949  31.133   3.171
52404W        W13693  29.020  43.960  12.838
52405W        W13694  13.614   1.939   5.209
52406W        W13695  42.992   3.440   4.258
52407W        W13696  32.420  29.118  11.859
52408W        W13697  13.620  39.986  13.981
52409W        W13698  13.282   1.780  13.929
52410W        W13699   3.418   9.183   2.260
52411W        W13700  23.690  23.157  10.459
52412W        W13701  29.997  39.894  13.036
52413W        W13702  38.843   4.351  11.606
52414W        W13703   6.877  43.464  11.889
52415W        W13704  40.995  16.787   5.281
52416W        W13705  36.572  15.794   0.340
52417W        W13706  19.050  17.680   1.447
52418W        W13707  33.026  23.217  13.356
52419W        W13708   0.450  21.153   4.708
52420W        W13709  13.145  27.086   1.241
52421W        W13710  34.507  17.267  10.596
52422W        W13711  33.068   0.838  14.905
52423W        W13712   7.830  24.029  14.317
52424W        W13713  40.312  43.362  11.426
52425W        W13714   1.344  11.645  11.389
52426W        W13715  39.550  37.399   2.321
52427W        W13716  10.752  12.653  11.563
52428W        W13717   8.161   0.276  12.986
52429W        W13718  20.710  14.764  13.513
52430W        W13719  41.895  22.106  12.931
52431W        W13720  42.024  16.152   3.312
52432W        W13721  19.152  26.494   4.692
52433W        W13722  23.120  40.839  13.323
52434W        W13723   5.314  25.109   3.165
52435W        W13724  12.187   4.741   0.910
52436W        W13725  17.083   9.313   2.851
52437W        W13726  23.501   5.733   4.202
52438W        W13727  38.424  25.701   1.361
52439W        W13728  27.595  33.898   4.235
52440W        W13729  10.637   7.741   0.320
52441W        W13730  22.141  19.250  14.950
52442W        W13731  17.154  31.642  11.892
52443W        W13732  21.534  36.445   0.351
52444W        W13733  42.448  30.642  14.346
52445W        W13734  31.428  14.746  12.023
52446W        W13735  30.450   5.743  13.535
52447W        W13736  12.814  38.488  11.076
52448W        W13737  30.418   6.350  13.018
52449W        W13738  12.793  32.476  14.317
52450W        W13739  21.734  35.875   3.379
52451W        W13740  22.094  36.888  14.895
52452W        W13741  29.065  24.219   0.248
52453W        W13742  11.157   6.383  11.558
52454W        W13743  18.150  17.247  14.007
52455W        W13744   3.785  36.913  13.033
52456W        W13745  44.007  13.162  10.472
52457W        W13746  10.259  17.615   3.860
52458W        W13747  31.493  15.680   0.310
52459W        W13748   5.918  21.575   0.291
52460W        W13749  26.680  19.196   4.597
52461W        W13750  17.748   5.300   1.234
52462W        W13751  15.804  10.875  14.404
52463W        W13752   0.959   0.780   4.682
52464W        W13753  39.949  13.141   3.719
52465W        W13754  10.141  25.602   0.896
52466W        W13755  24.088   1.966  14.828
52467W        W13756  43.935  31.976  13.367
52468W        W13757  43.767  28.600  13.359
52469W        W13758  13.730  22.591  12.378
52470W        W13759   6.394  42.883  13.445
52471W        W13760  15.599   6.260   0.878
52472W        W13761   5.351  26.063   4.802
52473W        W13762   1.895  43.014   3.189
52474W        W13763  31.089  44.438   2.850
52475W        W13764  28.497  43.986  12.843
52476W        W13765  17.618  36.499  10.565
52477W        W13766   9.177   6.844  12.048
52478W        W13767   0.951  23.175  10.494
52479W        W13768  22.230  34.961   3.672
52480W        W13769  44.405   3.902   4.764
52481W        W13770   7.665  19.553   4.145
52482W        W13771   6.762  13.269  11.956
52483W        W13772  28.507  15.715   0.390
52484W        W13773  23.010  40.322  11.577
52485W        W13774   0.278  41.966   0.283
52486W        W13775   7.180  14.756  14.322
52487W        W13776   0.902   7.827  11.867
52488W        W13777  15.670  31.140   5.319
52489W        W13778  43.952  13.226  10.114
52490W        W13779  25.674  33.921  14.898
52491W        W13780  18.767  26.542   0.899
52492W        W13781  24.170  36.941   3.253
52493W        W13782  34.563   6.424  11.483
52494W        W13783  14.315  29.562   2.828
52495W        W13784  36.940  43.301  11.059
52496W        W13785  34.015  12.768   4.152
52497W        W13786  12.284   6.268   3.636
52498W        W13787   3.454  15.317  12.959
52499W        W13788  10.359  19.734   5.184
52500W        W13789   8.781  26.654   4.185
52501W        W13790  33.115  42.490   4.643
52502W        W13791  42.407  42.353   1.734
52503W        W13792  38.041   4.443   0.855
52504W        W13793  15.598  16.084  14.403
52505W        W13794  15.609  17.260   5.132
52506W        W13795  35.863   4.819  14.810
52507W        W13796  40.333  16.302   0.348
52508W        W13797  18.597   2.731   1.403
52509W        W13798  12.207  29.979   3.743
52510W        W13799  29.590  34.445   1.226
52511W        W13800  44.985   2.427   4.160
52512W        W13801   9.253  21.642   1.248
52513W        W13802   6.829   7.382  13.838
52514W        W13803  30.994  12.851   2.718
52515W        W13804  24.603  44.849   4.275
52516W        W13805  16.723  44.808  10.973
52517W        W13806  44.907  43.272  14.405
52518W        W13807   7.375  34.411  12.571
52519W        W13808  18.101  25.684   1.930
52520W        W13809  40.916  15.716   0.351
52521W        W13810  37.448  34.107   1.905
52522W        W13811   8.660  42.876   2.747
52523W        W13812  13.342  40.538  14.434
52524W        W13813  12.716  25.216  11.019
52525W        W13814  39.542  41.857   0.863
52526W        W13815  37.902  12.148   4.633
52527W        W13816  44.483  37.885   4.689
52528W        W13817  38.531  26.053   4.837
52529W        W13818  42.327  39.380   2.201
52530W        W13819   1.428  44.476   1.294
52531W        W13820   2.883   0.491   4.797
52532W        W13821  28.011  42.802   4.751
52533W        W13822  44.272  31.596  13.944
52534W        W13823  36.349  26.990  10.492
52535W        W13824  31.514  27.549   4.709
52536W        W13825   5.767   3.267  13.490
52537W        W13826  40.534   9.329  12.973
52538W        W13827  44.972   1.262  12.453
52539W        W13828  21.126   3.409  10.445
52540W        W13829  16.680  19.740   0.846
52541W        W13830  27.544  35.397   3.217
52542W        W13831   4.282  44.467  14.858
52543W        W13832   7.669   6.827  11.917
52544W        W13833   8.324  29.022  13.881
52545W        W13834  31.126  14.216   4.838
52546W        W13835  12.821  42.446  14.454
52547W        W13836  19.195  23.060  13.324
52548W        W13837  27.002  31.550  14.513
52549W        W13838  35.087  38.022  13.361
52550W        W13839  29.973  19.698  11.384
52551W        W13840   9.251  27.061   2.785
52552W        W13841  13.344  30.449  13.811
52553W        W13842  22.743  44.322  12.579
52554W        W13843  29.970  33.875  14.344
52555W        W13844   3.798  41.792   0.476
52556W        W13845  19.261   0.492   3.206
52557W        W13846  18.287  36.569  13.519
52558W        W13847  41.422  13.155   4.772
52559W        W13848  15.703  26.028   1.410
52560W        W13849  17.154  25.178   4.717
52561W        W13850   2.244  16.283  11.426
52562W        W13851   0.776  29.016   3.220
52563W        W13852  44.323   0.441  14.305
52564W        W13853  16.653  20.676   1.694
52565W        W13854  24.102   7.252  14.428
52566W        W13855  16.100  35.405   4.706
52567W        W13856  29.521  29.630   1.414
52568W        W13857  16.626  33.910  12.861
52569W        W13858  24.673   1.938  11.991
52570W        W13859  31.468  16.705   0.811
52571W        W13860   5.315  20.683   1.809
52572W        W13861   8.378  37.981  14.350
52573W        W13862  36.489  36.569   1.724
52574W        W13863   6.317  23.030   5.179
52575W        W13864  23.709   8.816   0.294
52576W        W13865  17.281  41.412  13.862
52577W        W13866  25.691  14.255   1.694
52578W        W13867  14.187  42.521  10.946
52579W        W13868   9.778   5.907  11.126
52580W        W13869   1.448   4.742  10.113
52581W        W13870  28.523  21.160   2.307
52582W        W13871  25.585  29.988   0.811
52583W        W13872  43.819  15.771   3.174
52584W        W13873   3.763   0.905  10.476
52585W        W13874   6.294  26.516  12.444
52586W        W13875   8.211   1.917   3.288
52587W        W13876   4.334  27.125   4.129
52588W        W13877  34.103  27.950  11.098
52589W        W13878  27.021  32.020   2.778
52590W        W13879  28.180  41.979  11.581
52591W        W13880  19.667   4.813  11.037
52592W        W13881  38.836  11.258   2.235
52593W        W13882  44.362  37.551  11.918
52594W        W13883  28.536  25.634   4.650
52595W        W13884   0.284   4.887   4.827
52596W        W13885  24.189   3.810  12.342
52597W        W13886  20.264   4.435   4.164
52598W        W13887  23.652  42.388   1.817
52599W        W13888  35.495  26.516  10.426
52600W        W13889   3.306   7.757   0.479
52601W        W13890   6.274  11.273   2.397
52602W        W13891   5.231  26.538   4.116
52603W        W13892  28.477   8.736   0.924
52604W        W13893  10.193  22.213  10.037
52605W        W13894  33.960   2.431   2.707
52606W        W13895  28.940  14.115   0.849
52607W        W13896  15.707  22.545   2.349
52608W        W13897  40.016  42.397  13.508
52609W        W13898  44.376   5.355   2.411
52610W        W13899   9.881  36.527  11.928
52611W        W13900  36.862  28.510  14.411
52612W        W13901  35.923   1.972   2.762
52613W        W13902  31.597  35.922   4.237
52614W        W13903   3.896  37.405   1.238
52615W        W13904  22.135   8.703   3.183
52616W        W13905   8.278  22.196  14.300
52617W        W13906  12.264  40.452  12.348
52618W        W13907  17.593  21.097  10.469
52619W        W13908  25.008   5.841  11.936
52620W        W13909   4.322  16.749  13.467
52621W        W13910   2.776   0.889   2.370
52622W        W13911   0.867  32.994  14.862
52623W        W13912  14.197  27.628  10.444
52624W        W13913   6.743   5.732  10.517
52625W        W13914  30.636  33.070  11.534
52626W        W13915  41.448  26.621   3.666
52627W        W13916  41.456   6.917  10.475
52628W        W13917  41.881   7.310  14.488
52629W        W13918  44.445  17.231  13.850
52630W        W13919  21.711  21.078  12.028
52631W        W13920  27.491  24.023   1.399
52632W        W13921   7.852  22.069  10.550
52633W        W13922  17.752  10.292   1.821
52634W        W13923  25.963   0.288   4.835
52635W        W13924  37.413  29.070  12.882
52636W        W13925  32.923  36.896  12.853
52637W        W13926   3.432  38.831  11.524
52638W        W13927  42.514  33.078   1.369
52639W        W13928   7.230  28.981   4.127
52640W        W13929  38.920  22.536   5.117
52641W        W13930  17.675  30.076   1.286
52642W        W13931  19.088  40.537   3.157
52643W        W13932  32.630   0.833   3.651
52644W        W13933  32.123  33.469  14.814
52645W        W13934  27.160  43.977   4.828
52646W        W13935  31.586  10.314  12.559
52647W        W13936  38.462  12.660   0.343
52648W        W13937  28.665  15.669   3.155
52649W        W13938  44.407  26.045  10.939
52650W        W13939  35.894  19.278   4.189
52651W        W13940  31.425  13.684   4.732
52652W        W13941  11.132  20.562  13.995
52653W        W13942  30.484   1.377   2.862
52654W        W13943  30.124  17.201   1.802
52655W        W13944  17.667   0.466  12.009
52656W        W13945  12.637  16.220  13.896
52657W        W13946   0.778  32.504  13.963
52658W        W13947  20.265  33.598  12.512
52659W        W13948  10.759  30.135  11.399
52660W        W13949   1.843  33.622  11.385
52661W        W13950  23.645  32.484  14.477
52662W        W13951  23.489   0.798   0.930
52663W        W13952  30.147  18.587  12.094
52664W        W13953  10.838  30.071   2.185
52665W        W13954  38.067  37.502  14.461
52666W        W13955  24.222   0.274   3.272
52667W        W13956  35.488  43.408  11.430
52668W        W13957  44.789  29.506  12.511
52669W        W13958  13.221  24.590  10.898
52670W        W13959  40.317   5.728  14.510
52671W        W13960  28.957  22.208   2.829
52672W        W13961  23.150  15.316  14.852
52673W        W13962   6.275  26.206   0.427
52674W        W13963  23.993  39.052  14.008
52675W        W13964  22.717  15.661   0.352
52676W        W13965  41.928  10.152  13.469
52677W        W13966  11.683   9.705  11.978
52678W        W13967  12.734  14.679  11.923
52679W        W13968  41.822  22.201  11.059
52680W        W13969   3.326  22.704  13.972
52681W        W13970   1.907  43.442  12.004
52682W        W13971   9.394   2.939  12.931
52683W        W13972   6.264  28.642   0.352
52684W        W13973  10.760   4.917  14.953
52685W        W13974  44.857  12.743  12.469
52686W        W13975  43.378   2.307  11.875
52687W        W13976   9.212   5.430   1.227
52688W        W13977  19.758  26.153  11.052
52689W        W13978  32.079  39.370   3.733
52690W        W13979   9.225  30.033   3.815
52691W        W13980   4.320   1.253   2.661
52692W        W13981   6.334  22.585   3.322
52693W        W13982  36.007  22.167   1.816
52694W        W13983   4.391  34.589  14.349
52695W        W13984   7.896  34.388  13.985
52696W        W13985  42.367  41.822   1.841
52697W        W13986  44.945  10.351   4.745
52698W        W13987  39.438   7.341   0.896
52699W        W13988  44.355  11.815  13.027
52700W        W13989  28.936  23.074  12.943
52701W        W13990  12.698  37.875  14.320
52702W        W13991  23.687  28.509   4.623
52703W        W13992  22.621  36.066   4.721
52704W        W13993  20.047  12.857   5.224
52705W        W13994   6.226  28.571  14.366
52706W        W13995  34.056  20.597   1.833
52707W        W13996  37.914  39.503   0.295
52708W        W13997  21.577  17.199  13.314
52709W        W13998  15.154  26.107   2.845
52710W        W13999   9.222   6.354  13.840
52711W        W14000  19.141  24.484  13.457
52712W        W14001  31.135  24.552   0.770
52713W        W14002  17.241   4.859  14.934
52714W        W14003  29.146  27.126   2.419
52715W        W14004  29.647  36.385  10.470
52716W        W14005  11.226  37.420  13.409
52717W        W14006  36.065  35.885  11.072
52718W        W14007  22.580  34.472   3.846
52719W        W14008  23.711  31.069  13.841
52720W        W14009   6.741  21.020   4.657
52721W        W14010  38.356   7.793  12.066
52722W        W14011   3.258  26.661  10.502
52723W        W14012   0.262  26.605   0.411
52724W        W14013   6.426  11.631   2.814
52725W        W14014  32.976  22.126  12.505
52726W        W14015   1.806   8.767  10.433
52727W        W14016  12.310  20.661  14.445
52728W        W14017  44.939  28.476   4.750
52729W        W14018   4.269  16.643  13.888
52730W        W14019  20.117  15.154  11.568
52731W        W14020  14.152  39.017   3.753
52732W        W14021   0.382   6.776   0.762
52733W        W14022  11.175   4.318   2.727
52734W        W14023  12.849  27.169   2.675
52735W        W14024  31.422  21.111   1.398
52736W        W14025  13.153  13.129   1.402
52737W        W14026   5.234  13.843   2.830
52738W        W14027  17.199   4.707   5.117
52739W        W14028  11.859  10.236  10.035
52740W        W14029  32.109  24.596  10.975
52741W        W14030  18.188  20.529  11.500
52742W        W14031  16.230  14.626  13.039
52743W        W14032  27.089  16.809   1.307
52744W        W14033  26.460  26.530   4.179
52745W        W14034  23.116  12.317  10.473
52746W        W14035  37.450  42.783  13.463
52747W        W14036  15.275  26.199   0.304
52748W        W14037  24.645   0.790  12.470
52749W        W14038  35.972  16.145   3.721
52750W        W14039  12.817  26.641  14.396
52751W        W14040  24.682   5.845  10.554
52752W        W14041  34.092  25.544  11.433
52753W        W14042   3.742  38.886   0.746
52754W        W14043  26.158   8.772   0.469
52755W        W14044  22.161  33.125  11.551
52756W        W14045  11.765  42.315  10.410
52757W        W14046   2.876  24.068   0.283
52758W        W14047   3.227  38.517  13.941
52759W        W14048  22.554  43.807  11.981
52760W        W14049  32.037   9.390  11.084
52761W        W14050  30.956  23.634   9.930
52762W        W14051  37.914   8.882   2.393
52763W        W14052  33.477  33.604  14.977
52764W        W14053   1.348  19.162   0.362
52765W        W14054  11.258  37.963   3.160
52766W        W14055  23.229  25.547  10.973
52767W        W14056  12.302  25.525  14.818
52768W        W14057  19.607  15.699   2.862
52769W        W14058  22.561   6.241  13.885
52770W        W14059   7.406   7.379  14.286
52771W        W14060  13.154  26.567  12.430
52772W        W14061  35.014  20.274   1.760
52773W        W14062  34.912  32.494   4.236
52774W        W14063  20.551   7.776   1.320
52775W        W14064  15.590  25.041  11.992
52776W        W14065   4.708  26.194  13.866
52777W        W14066  43.419  13.738  14.977
52778W        W14067  30.618   3.900  10.961
52779W        W14068  21.748  40.821   3.329
52780W        W14069  41.851  25.157   4.343
52781W        W14070  28.459  21.548   3.836
52782W        W14071   4.242  38.566   1.821
52783W        W14072  11.229  26.966  13.012
52784W        W14073   3.429  28.553   2.874
52785W        W14074  22.190   2.777   4.669
52786W        W14075  38.832  22.052   3.151
52787W        W14076  30.484  11.818  10.887
52788W        W14077  18.791  28.962   0.343
52789W        W14078  24.714  26.639   2.409
52790W        W14079  12.119  29.477  11.456
52791W        W14080  15.604   2.895  12.502
52792W        W14081  13.259  21.535   9.939
52793W        W14082  19.228   2.888  14.805
52794W        W14083  35.431  31.554   4.695
52795W        W14084  15.749  13.232   1.863
52796W        W14085   5.269  39.344   3.811
52797W        W14086   1.321  15.587  14.885
52798W        W14087  18.128  19.072   4.721
52799W        W14088  18.611   4.409   1.806
52800W        W14089  15.584  21.123  12.880
52801W        W14090  35.925  22.073  13.316
52802W        W14091  38.868  33.072  14.028
52803W        W14092  13.721  38.410  12.562
52804W        W14093  16.692   7.747   1.244
52805W        W14094  21.194  19.155  13.864
52806W        W14095  40.906  21.224   1.401
52807W        W14096   1.772  42.779   3.719
52808W        W14097   1.915  13.203   2.259
52809W        W14098   0.922  37.967   1.730
52810W        W14099  27.952   4.820   1.803
52811W        W14100  19.242  40.465  10.505
52812W        W14101  20.752  24.200  14.505
52813W        W14102  14.734   6.375   0.775
52814W        W14103  33.504  39.554   3.774
52815W        W14104  27.668   0.342   2.862
52816W        W14105   8.735  27.521   0.957
52817W        W14106  29.949  22.156  13.903
52818W        W14107  30.032  22.059   0.887
52819W        W14108  43.836  13.636   4.679
52820W        W14109  41.912  42.990   4.647
52821W        W14110  34.533  34.935  11.484
52822W        W14111  16.607   7.300   3.261
52823W        W14112   6.839   3.252  11.468
52824W        W14113  27.135  22.111   2.855
52825W        W14114  33.405  30.038  13.522
52826W        W14115   0.279  29.499  11.982
52827W        W14116  37.582  29.148  13.947
52828W        W14117  35.072  32.012  13.332
52829W        W14118  17.139  32.981  10.901
52830W        W14119  42.853  20.144  12.879
52831W        W14120  29.424  18.086   1.353
52832W        W14121  29.465  30.538  12.540
52833W        W14122   7.846   6.193  12.457
52834W        W14123  16.072  43.943   1.289
52835W        W14124  10.733   4.372  13.888
52836W        W14125  31.120  42.985  13.976
52837W        W14126  42.330  42.289   0.356
52838W        W14127  16.680  20.620  14.971
52839W        W14128   9.262  23.085   3.796
52840W        W14129  22.620  15.599  11.594
52841W        W14130  26.959  15.665  14.279
52842W        W14131   1.757  38.402   3.761
52843W        W14132  24.542  32.041  12.439
52844W        W14133  36.970  31.121   1.330
52845W        W14134  40.354  32.136   2.856
52846W        W14135  11.848  25.483  11.023
52847W        W14136  11.799  32.918   0.771
52848W        W14137  27.091  18.728  14.297
52849W        W14138   7.259  44.287  11.386
52850W        W14139   9.887  44.847   4.731
52851W        W14140  37.939  44.855  13.429
52852W        W14141  29.970  14.209   3.838
52853W        W14142  41.010  18.087   3.272
52854W        W14143  25.152  44.920   1.410
52855W        W14144  38.522  26.036  13.333
52856W        W14145   2.273  32.504   4.325
52857W        W14146  39.889  10.700  10.946
52858W        W14147  10.253   9.862  10.136
52859W        W14148  30.417  22.055   3.846
52860W        W14149  11.265   5.729   0.808
52861W        W14150  13.301  26.147   2.375
52862W        W14151  28.959  33.914  12.364
52863W        W14152  36.355  23.521  14.461
52864W        W14153  36.485  38.466   1.426
52865W        W14154  21.547  37.910   0.263
52866W        W14155  25.696  42.778   3.216
52867W        W14156  29.108  22.171  14.948
52868W        W14157  25.469  41.318  14.922
52869W        W14158   5.218   8.257  11.572
52870W        W14159  43.453  33.401   1.711
52871W        W14160  28.068  12.118  10.612
52872W        W14161  14.310  10.668  13.453
52873W        W14162  31.083  32.055   2.776
52874W        W14163  30.468  38.431   0.799
52875W        W14164   6.341  22.737   3.777
52876W        W14165  40.526  22.673  14.411
52877W        W14166  22.596  16.803   4.257
52878W        W14167   3.746  32.468  11.022
52879W        W14168   2.466  10.814   4.159
52880W        W14169  21.673  40.884  10.964
52881W        W14170  31.422  43.316  11.532
52882W        W14171  42.517  31.926   1.217
52883W        W14172   0.773  28.106   1.318
52884W        W14173  41.870  26.689   3.346
52885W        W14174   9.326   6.241   3.854
52886W        W14175  34.923  23.196  11.389
52887W        W14176  20.249   5.837   2.670
52888W        W14177  32.578  24.556   2.802
52889W        W14178   8.829  21.123  12.491
52890W        W14179  15.193   6.679  14.764
52891W        W14180  33.455  40.462  12.493
52892W        W14181  12.756  38.956  12.398
52893W        W14182  18.284  25.977  13.811
52894W        W14183  31.068  38.896  10.035
52895W        W14184   1.464  32.399  14.789
52896W        W14185  30.644  33.590   0.737
52897W        W14186   5.836  41.468  13.442
52898W        W14187  43.911  25.699  11.066
52899W        W14188  27.129  34.980   1.843
52900W        W14189  25.081  38.884   5.310
52901W        W14190  35.495   8.792  11.950
52902W        W14191  31.603  25.575   2.372
52903W        W14192  32.988  25.031  14.863
52904W        W14193  25.157   8.346   3.717
52905W        W14194   6.865   7.267   1.889
52906W        W14195  11.713  30.650   1.789
52907W        W14196  23.630  11.686  13.020
52908W        W14197   5.309   6.347  11.955
52909W        W14198  24.598  26.585  12.342
52910W        W14199  38.963  27.990   0.256
52911W        W14200  17.125   3.272  14.426
52912W        W14201  19.135  23.734  12.920
52913W        W14202  40.815  32.082   4.809
52914W        W14203   0.303  27.162   1.908
52915W        W14204  42.987   3.221   2.799
52916W        W14205  44.384   6.233   1.805
52917W        W14206   3.938  10.656   0.400
52918W        W14207  29.601  42.282   3.327
52919W        W14208  14.783  18.610  11.871
52920W        W14209  27.567  22.087  12.927
52921W        W14210  16.207   4.903  11.967
52922W        W14211  12.856  25.648  14.393
52923W        W14212  37.535  35.525  12.958
52924W        W14213  24.158  27.609   3.378
52925W        W14214   9.709  22.719   1.348
52926W        W14215  24.612  32.599  14.947
52927W        W14216   8.738  18.132  13.995
52928W        W14217   5.226  40.972  12.993
52929W        W14218   7.197   2.416   4.774
52930W        W14219  10.707  17.262  11.452
52931W        W14220  38.938  10.694  13.511
52932W        W14221  11.136  13.767   3.673
52933W        W14222   0.266  40.310  12.364
52934W        W14223  38.915  42.001  10.603
52935W        W14224  35.039  35.979   0.248
52936W        W14225  11.803  19.044   1.784
52937W        W14226  40.432   7.831   2.218
52938W        W14227  17.196  27.069   2.683
52939W        W14228  41.793  34.953   2.397
52940W        W14229  11.696  28.499   2.845
52941W        W14230  22.516  38.483  13.987
52942W        W14231  28.125  41.509  14.387
52943W        W14232  39.814   7.837   1.432
52944W        W14233  44.780  22.730   1.789
52945W        W14234  41.387   1.440  13.370
52946W        W14235  11.715  44.471   9.968
52947W        W14236  36.352  16.782   0.363
52948W        W14237  39.324   4.722   4.268
52949W        W14238  27.498   2.736  12.947
52950W        W14239  12.803  31.522   2.856
52951W        W14240  35.596   2.792  14.356
52952W        W14241  38.373  43.511  14.850
52953W        W14242  20.722  43.315   4.682
52954W        W14243  37.422  38.340   3.250
52955W        W14244  24.566  15.753  13.967
52956W        W14245   6.712   5.862   4.220
52957W        W14246  33.049   6.210   3.359
52958W        W14247  35.491  17.700  13.041
52959W        W14248  25.113  24.164  12.854
52960W        W14249  28.566  34.609   4.772
52961W        W14250  32.129   3.740   2.194
52962W        W14251  23.217   2.891   2.724
52963W        W14252   9.368   5.194   0.878
52964W        W14253   1.857   1.265   1.718
52965W        W14254  30.003  42.364  14.957
52966W        W14255   2.964  43.877   4.122
52967W        W14256   4.247  38.941  14.420
52968W        W14257  23.192  32.142   9.976
52969W        W14258  15.636  31.474   0.319
52970W        W14259  22.157  20.582  13.918
52971W        W14260  34.099  34.077  13.318
52972W        W14261  38.350  28.074   1.361
52973W        W14262  29.489   5.237   2.374
52974W        W14263  27.566  33.458  14.298
52975W        W14264  38.515   6.817   0.472
52976W        W14265  33.017  19.259   2.719
52977W        W14266  12.735  23.717   0.754
52978W        W14267  32.922   5.389   5.095
52979W        W14268  28.935  14.674  14.862
52980W        W14269  22.243   2.378   0.361
52981W        W14270  23.571  23.666   3.807
52982W        W14271  44.799  40.830   3.636
52983W        W14272  41.995  11.358  10.406
52984W        W14273  39.367  12.817  11.984
52985W        W14274  40.947  10.719   0.444
52986W        W14275  43.834  38.887   2.825
52987W        W14276  33.046  31.605  11.558
52988W        W14277  44.940  14.161   3.256
52989W        W14278  31.897  34.585  10.427
52990W        W14279   5.408  18.615   2.285
52991W        W14280   6.328  14.745   4.664
52992W        W14281  28.049   4.437   3.210
52993W        W14282  44.977  11.182   3.243
52994W        W14283  30.025  17.157  14.405
52995W        W14284  16.576   6.373   4.662
52996W        W14285  41.891   3.335  10.978
52997W        W14286  39.389  39.371  10.988
52998W        W14287  16.228  26.666   0.953
52999W        W14288   2.768  29.109  14.473
53000W        W14289   2.244  19.734  11.046
53001W        W14290   9.356   4.269  10.953
53002W        W14291   4.779  12.649   1.411
53003W        W14292  28.148  31.093   4.837
53004W        W14293  10.166   8.883  10.420
53005W        W14294  17.141   5.390   4.134
53006W        W14295  31.647  42.509  13.392
53007W        W14296  41.985  10.326   4.811
53008W        W14297   8.313   3.830  13.365
53009W        W14298  24.722  44.908  13.977
53010W        W14299  21.603   5.301  12.441
53011W        W14300  37.006  32.419  11.898
53012W        W14301  31.509  21.604   3.248
53013W        W14302  11.333  38.433  14.459
53014W        W14303  37.358  38.011   1.218
53015W        W14304  16.579  22.134   5.099
53016W        W14305  34.964  33.419  14.291
53017W        W14306   7.904  44.425   2.253
53018W        W14307  38.937  36.469  10.515
53019W        W14308  12.837  32.613  13.804
53020W        W14309  40.455  27.594  14.984
53021W        W14310   9.803  16.103   0.895
53022W        W14311  35.586  22.201  14.899
53023W        W14312  12.360  15.822   1.730
53024W        W14313   2.856  36.922   1.347
53025W        W14314   9.834   0.420  10.602
53026W        W14315  34.382   5.314   1.877
53027W        W14316   8.382  25.533   1.829
53028W        W14317  23.025  15.194   1.375
53029W        W14318   7.697   5.861   1.245
53030W        W14319  20.617  18.642   0.378
53031W        W14320  21.173  10.255  10.019
53032W        W14321   7.358  22.183   4.768
53033W        W14322   7.836  37.058  12.581
53034W        W14323  41.485   6.414  13.351
53035W        W14324  21.747   6.405  11.889
53036W        W14325  16.740  43.438  11.885
53037W        W14326  35.057  20.531  12.491
53038W        W14327  40.529  11.368  12.381
53039W        W14328  13.195   8.318   0.290
53040W        W14329   0.381  13.613  14.013
53041W        W14330  23.099   1.823  13.432
53042W        W14331  14.184  41.372   3.636
53043W        W14332  25.046  15.702   1.274
53044W        W14333  44.389  27.610   2.769
53045W        W14334  27.034  44.446  10.016
53046W        W14335  36.893  16.747  11.395
53047W        W14336   7.883   8.340  13.030
53048W        W14337  18.687   0.974  11.603
53049W        W14338  37.394   3.932   4.759
53050W        W14339  16.290  40.868  14.951
53051W        W14340   6.853  39.409   2.352
53052W        W14341  35.416  20.630  13.996
53053W        W14342   1.833  43.833   3.663
53054W        W14343   7.278  29.641   3.779
53055W        W14344  30.485  31.104   0.469
53056W        W14345  10.734  28.146   0.911
53057W        W14346  41.968  40.485  13.907
53058W        W14347  38.398   4.445   0.373
53059W        W14348  40.909  14.678  11.928
53060W        W14349  11.790  27.967  11.936
53061W        W14350  13.125  10.163  10.534
53062W        W14351  15.649  13.712   4.604
53063W        W14352  16.607  23.077   3.258
53064W        W14353  15.180  34.552  11.979
53065W        W14354  30.459  20.271   2.187
53066W        W14355  34.578   0.956  12.971
53067W        W14356  44.296  25.070  14.842
53068W        W14357  13.732  35.067  13.342
53069W        W14358  23.190   4.769  11.910
53070W        W14359  39.996   1.800   3.292
53071W        W14360  30.952   6.371   2.714
53072W        W14361  37.046  30.456  10.457
53073W        W14362  41.797  26.606  12.386
53074W        W14363   7.797  39.007  11.117
53075W        W14364  36.882  26.675   1.781
53076W        W14365  15.264  11.186  12.864
53077W        W14366  33.021  31.117  13.945
53078W        W14367  27.112  27.575  12.881
53079W        W14368  16.141  24.610  12.404
53080W        W14369  37.528  21.076   4.723
53081W        W14370  22.628   6.195   9.991
53082W        W14371   1.817  32.618  14.401
53083W        W14372  14.702  42.403  14.423
53084W        W14373  12.152  34.512   4.624
53085W        W14374  28.131  19.223   1.326
53086W        W14375  18.248  43.976  11.109
53087W        W14376  30.952  31.135  10.949
53088W        W14377   4.789  12.748  11.559
53089W        W14378  43.387  13.646   3.210
53090W        W14379  32.984  17.130  13.858
53091W        W14380  36.463  28.512  11.533
53092W        W14381  16.697  38.329  14.965
53093W        W14382  17.227  21.611   0.320
53094W        W14383  11.185  43.934  13.872
53095W        W14384  39.992   2.429  13.963
53096W        W14385  23.019  33.557   1.235
53097W        W14386   8.889  27.646   4.727
53098W        W14387  28.532  43.877   3.249
53099W        W14388  34.536   3.778   0.759
53100W        W14389  15.181  18.683  11.558
53101W        W14390  42.926  43.906  11.512
53102W        W14391  31.551  28.662  14.831
53103W        W14392  36.053  25.036   0.736
53104W        W14393  32.091  35.368   1.367
53105W        W14394  40.045   4.204   1.709
53106W        W14395  14.786  33.582   9.954
53107W        W14396  30.923  27.570   2.250
53108W        W14397  24.673  22.195   0.751
53109W        W14398  19.547  19.707   4.163
53110W        W14399  36.555   1.280  11.413
53111W        W14400  38.561  30.559   3.189
53112W        W14401  19.043  15.583  14.332
53113W        W14402   6.692  39.531  12.013
53114W        W14403  16.671  40.799  14.012
53115W        W14404  21.148  43.928   0.843
53116W        W14405  30.120  21.052  13.943
53117W        W14406  31.964  18.295   4.213
53118W        W14407  29.948  13.628   2.742
53119W        W14408  20.078  29.059   1.430
53120W        W14409   3.298  27.502  10.972
53121W        W14410  36.978  11.170   1.819
53122W        W14411   6.423   2.883  12.458
53123W        W14412  25.566   4.317   0.738
53124W        W14413  43.914  15.739  10.480
53125W        W14414   2.461   6.798  11.976
53126W        W14415  21.639  26.206   0.886
53127W        W14416  17.265  42.338   4.740
53128W        W14417   4.836  36.030   0.289
53129W        W14418  33.911  39.976  12.053
53130W        W14419  29.489  44.439   0.391
53131W        W14420  40.994  32.142  14.982
53132W        W14421  37.473  22.584   0.469
53133W        W14422  14.146  19.731   1.774
53134W        W14423  12.124  16.097  12.883
53135W        W14424  43.798  35.975   1.722
53136W        W14425  16.316   3.806  14.454
53137W        W14426   0.345  24.165   4.258
53138W        W14427  33.551   6.839   0.834
53139W        W14428   4.400  16.086  14.450
53140W        W14429  10.695  35.094   1.858
53141W        W14430   3.955  13.301   3.757
53142W        W14431  21.140  40.407  14.406
53143W        W14432  37.522  33.389  11.602
53144W        W14433  39.870  39.538  13.908
53145W        W14434  38.384  28.675  11.994
53146W        W14435  13.280  16.173  12.971
53147W        W14436   6.699  34.563  12.870
53148W        W14437  34.967   6.742   4.228
53149W        W14438  33.969  13.629   1.751
53150W        W14439  33.425   0.453   0.467
53151W        W14440  17.712  28.159   2.359
53152W        W14441  43.311  22.538   4.191
53153W        W14442   5.881  39.510  14.460
53154W        W14443  42.369  28.086  10.943
53155W        W14444  27.562  20.059   2.242
53156W        W14445   7.188   4.859  11.975
53157W        W14446   2.374   0.810   3.782
53158W        W14447  16.717  17.236   2.773
53159W        W14448  30.087  19.574  12.870
53160W        W14449   5.273  21.212  10.978
53161W        W14450   1.290  21.167   4.152
53162W        W14451  23.506   8.895   2.386
53163W        W14452   3.409  20.666  12.961
53164W        W14453  15.634   7.171  12.903
53165W        W14454  26.169  25.537   5.245
53166W        W14455   4.809   5.380  13.447
53167W        W14456   7.716   9.384  14.992
53168W        W14457   8.285  30.076  12.035
53169W        W14458  22.246   8.293   1.357
53170W        W14459  11.696  30.538   4.638
53171W        W14460  42.351  39.009  11.902
53172W        W14461  35.473  17.582   1.822
53173W        W14462  34.581  35.058  10.521
53174W        W14463  44.776  27.452  11.572
53175W        W14464  22.150  40.455   2.749
53176W        W14465   6.348   2.360  13.538
53177W        W14466  18.215  26.694   0.326
53178W        W14467  26.479   3.258  14.940
53179W        W14468  28.503  17.130   2.198
53180W        W14469  23.220  23.202   1.235
53181W        W14470  27.116  12.343  12.852
53182W        W14471   0.958  29.442   2.854
53183W        W14472  15.294  36.020   4.241
53184W        W14473   0.376   4.760  14.004
53185W        W14474  21.571  22.540  13.049
53186W        W14475  42.806  38.473  10.485
53187W        W14476  31.145  37.387   0.335
53188W        W14477  21.582  17.795  10.619
53189W        W14478  42.828  30.464  14.458
53190W        W14479   1.328  42.849   3.157
53191W        W14480  16.597  31.928  12.027
53192W        W14481  24.167  12.258  14.399
53193W        W14482   4.832  11.753  10.453
53194W        W14483  42.806   5.278  14.983
53195W        W14484   5.716  41.962   3.187
53196W        W14485   8.762  38.976   4.341
53197W        W14486  13.761   6.207  11.861
53198W        W14487  39.441  40.052  12.089
53199W        W14488  37.931   6.221   1.868
53200W        W14489  37.864  21.632  13.546
53201W        W14490  32.443   2.397   3.212
53202W        W14491  36.535  40.331  13.491
53203W        W14492  21.633  23.002   1.225
53204W        W14493   7.782   6.248   2.186
53205W        W14494  27.604  24.080  13.966
53206W        W14495  37.870  15.134  14.925
53207W        W14496  13.303  10.836  12.015
53208W        W14497  36.519  14.644  12.404
53209W        W14498  31.528  12.215  10.446
53210W        W14499   3.399  17.149   2.317
53211W        W14500  20.581  37.073   3.221
53212W        W14501   9.275  24.603  12.400
53213W        W14502   6.282  18.118   4.642
53214W        W14503  39.558   9.757  13.402
53215W        W14504  20.769  26.503  14.929
53216W        W14505   9.727  44.829   1.807
53217W        W14506  39.330  31.038  14.000
53218W        W14507  15.815  31.040   3.861
53219W        W14508  18.107  26.951   0.779
53220W        W14509   4.300  42.967   4.641
53221W        W14510  20.262  28.681  11.389
53222W        W14511  43.432  41.418  14.031
53223W        W14512  19.657  15.724   4.250
53224W        W14513  14.659   3.397   4.173
53225W        W14514  42.806  11.859   9.638
53226W        W14515   4.872  17.167   2.689
53227W        W14516  36.430  12.829  11.573
53228W        W14517  24.205  40.824  13.036
53229W        W14518  11.350  28.931   1.876
53230W        W14519  37.831  18.053   9.641
53231W        W14520  14.746  37.512  12.960
53232W        W14521  33.048  24.064  14.440
53233W        W14522   0.425  41.450   0.278
53234W        W14523  17.558  10.776   0.427
53235W        W14524  25.178  30.943  12.057
53236W        W14525   0.762  37.462   4.339
53237W        W14526  15.217  36.004   9.562
53238W        W14527  34.943  30.160  11.870
53239W        W14528  29.022   9.726   0.878
53240W        W14529  28.057  10.706   9.580
53241W        W14530  33.126  42.957   4.225
53242W        W14531  11.675  31.433  14.291
53243W        W14532  13.600  19.119  11.013
53244W        W14533  25.199  24.653   1.704
53245W        W14534  28.526  10.744  14.870
53246W        W14535   8.231  28.530  13.051
53247W        W14536  17.072  23.083   1.840
53248W        W14537  39.371  19.120   4.334
53249W        W14538  27.571   1.409   2.194
53250W        W14539   3.841  18.226   1.924
53251W        W14540   0.797  37.045  13.003
53252W        W14541  21.249  35.905  13.982
53253W        W14542   2.353  27.533   4.198
53254W        W14543  36.591   6.801   3.385
53255W        W14544   4.333   3.418   4.209
53256W        W14545  14.283  16.774   4.249
53257W        W14546  35.096  10.781   4.677
53258W        W14547  25.701  35.928   2.848
53259W        W14548  19.089   9.344   3.839
53260W        W14549  35.066   8.223   1.264
53261W        W14550  36.921  30.567   1.324
53262W        W14551  21.175  32.984  12.037
53263W        W14552  35.577   0.318   1.763
53264W        W14553  39.372  38.526   2.214
53265W        W14554  21.582  26.663  11.379
53266W        W14555  32.488  31.076   0.259
53267W        W14556  26.038   3.268   0.955
53268W        W14557   1.964  30.562  14.789
53269W        W14558  22.652   0.355  12.989
53270W        W14559  20.661  26.507  14.352
53271W        W14560  17.684  16.754  10.954
53272W        W14561  22.121  11.705  11.950
53273W        W14562  22.608  43.922  10.545
53274W        W14563  44.908   2.882   0.892
53275W        W14564  36.415  25.604  10.938
53276W        W14565   3.752  18.104   0.796
53277W        W14566  39.382  29.581   2.218
53278W        W14567  14.096  29.113   0.341
53279W        W14568  14.830   6.288  13.049
53280W        W14569  26.578   1.884  11.392
53281W        W14570   9.255  12.236  14.944
53282W        W14571  40.956   1.272   2.391
53283W        W14572   7.864  14.699  11.986
53284W        W14573  26.534  29.046  11.501
53285W        W14574  39.967  33.125   1.215
53286W        W14575  34.978  14.820  10.626
53287W        W14576   3.888  15.235  14.403
53288W        W14577   1.311  31.640  11.917
53289W        W14578  24.597  35.492   2.727
53290W        W14579  14.645  27.014  14.366
53291W        W14580  33.974  11.178  13.968
53292W        W14581  24.978  15.663  13.437
53293W        W14582  33.556   0.901  12.943
53294W        W14583  35.856   5.372   3.374
53295W        W14584  32.008  29.045  13.799
53296W        W14585  26.650  15.122   0.743
53297W        W14586  14.134  14.175   0.253
53298W        W14587  36.085  40.307   3.660
53299W        W14588  39.478  19.639  13.946
53300W        W14589  16.599   6.363  12.919
53301W        W14590  33.535  21.625  10.546
53302W        W14591  22.532  28.177  14.341
53303W        W14592   7.185  12.806  13.017
53304W        W14593  26.593   1.378   2.806
53305W        W14594   2.374  25.169  11.883
53306W        W14595  31.565  38.047  12.089
53307W        W14596   0.490   5.359  13.052
53308W        W14597   1.333  10.760   2.754
53309W        W14598  38.968  16.671   3.757
53310W        W14599  21.227   8.301   2.314
53311W        W14600  23.614  11.858   1.261
53312W        W14601  12.297   3.825   4.725
53313W        W14602  15.132  19.694   9.931
53314W        W14603  44.492  19.154   1.731
53315W        W14604  23.011  17.217  11.084
53316W        W14605  15.607  37.853   3.785
53317W        W14606  16.592  40.799  11.520
53318W        W14607   2.279  31.076  10.597
53319W        W14608  13.107   4.908   3.696
53320W        W14609  29.159  14.329   4.614
53321W        W14610   0.347   7.194  11.576
53322W        W14611  24.570   7.712   0.389
53323W        W14612  26.617  16.144  14.476
53324W        W14613   3.899  16.178   1.905
53325W        W14614  37.910   9.317  11.990
53326W        W14615  39.351   5.200  14.845
53327W        W14616  34.093  42.347   4.621
53328W        W14617  31.897  21.131  14.373
53329W        W14618  22.683  18.264  11.549
53330W        W14619   0.979  31.029   2.307
53331W        W14620  24.983  14.605   4.239
53332W        W14621  14.810   3.449  11.959
53333W        W14622  23.645  12.202  11.438
53334W        W14623   4.935  14.247  10.485
53335W        W14624  15.761  39.320   5.228
53336W        W14625  22.689  33.883   3.216
53337W        W14626  14.656  28.973   0.842
53338W        W14627  23.495  41.022  13.043
53339W        W14628  29.462   9.770  12.012
53340W        W14629   4.447  28.066   0.456
53341W        W14630  43.454  17.707  12.491
53342W        W14631  35.948  22.241   0.318
53343W        W14632   3.377  43.454   3.849
53344W        W14633  27.067  23.034   0.361
53345W        W14634  26.098   4.406   0.901
53346W        W14635   4.714   4.942  11.902
53347W        W14636  40.510   5.258   3.149
53348W        W14637   1.805  12.270  13.374
53349W        W14638  43.896  44.500   1.784
53350W        W14639  32.636  37.016   3.765
53351W        W14640   2.380  14.105   5.225
53352W        W14641  11.642  18.641  12.962
53353W        W14642   8.328  32.411   3.313
53354W        W14643  24.604  18.611   1.431
53355W        W14644   0.888  14.109  11.598
53356W        W14645  23.219  10.684   4.676
53357W        W14646  11.366  30.029   3.821
53358W        W14647  33.396  34.545   0.259
53359W        W14648  28.521  27.119   4.277
53360W        W14649  34.868   2.310  14.019
53361W        W14650  13.167  42.447  12.470
53362W        W14651  18.257   8.802   0.267
53363W        W14652  32.519  35.085   0.432
53364W        W14653  38.962   3.279  13.492
53365W        W14654  25.470  30.549  11.023
53366W        W14655  30.534  17.781  11.414
53367W        W14656  38.391   0.443   0.898
53368W        W14657  32.557  11.780   2.700
53369W        W14658  10.334  11.329  12.025
53370W        W14659  32.941   9.328  14.511
53371W        W14660  33.532   5.853  11.087
53372W        W14661  11.371  44.480   3.862
53373W        W14662  29.010   6.362  12.919
53374W        W14663   1.461   5.791  12.843
53375W        W14664  37.935  14.816  11.068
53376W        W14665  37.357  37.472   4.781
53377W        W14666   0.253  43.986   2.239
53378W        W14667  32.531  21.757   1.280
53379W        W14668  18.581  43.348   4.306
53380W        W14669  35.520  37.955  14.789
53381W        W14670   9.350  25.496   2.820
53382W        W14671   4.274  25.682  14.764
53383W        W14672   1.838   7.396  14.962
53384W        W14673  24.668  43.867   4.169
53385W        W14674  31.064   7.311  10.412
53386W        W14675  31.553  16.742  11.467
53387W        W14676  22.693   5.405  12.942
53388W        W14677  16.122  40.979  13.335
53389W        W14678  22.734   4.928   2.850
53390W        W14679  40.319  24.030  10.891
53391W        W14680  25.661  28.940  12.904
53392W        W14681  20.135  38.543   3.301
53393W        W14682  26.057   5.853  10.598
53394W        W14683   8.351  27.968  12.423
53395W        W14684  22.580   9.861  10.536
53396W        W14685  12.676  25.122   3.297
53397W        W14686   9.288   2.446   4.668
53398W        W14687  35.373   1.482   0.262
53399W        W14688  41.816  22.235  10.429
53400W        W14689  15.220  19.186   1.331
53401W        W14690   2.756   6.184   2.410
53402W        W14691  17.584  31.110  14.980
53403W        W14692   7.773  13.623   1.213
53404W        W14693  15.819  24.527   2.376
53405W        W14694  12.771  18.733  14.772
53406W        W14695  28.527  23.567   4.786
53407W        W14696  36.349  29.145  10.994
53408W        W14697  16.578  30.475   1.355
53409W        W14698  14.631   4.348  11.462
53410W        W14699   0.478  30.996   4.285
53411W        W14700  36.031  39.917  13.885
53412W        W14701  33.121  25.171  12.388
53413W        W14702  23.057  38.525   4.788
53414W        W14703  12.247  39.492   3.246
53415W        W14704  19.079  31.094  14.981
53416W        W14705  15.197  17.146  10.552
53417W        W14706  26.469  33.980  11.062
53418W        W14707  42.964  37.890  13.853
53419W        W14708  22.062  32.059  12.943
53420W        W14709  14.722  39.978   1.831
53421W        W14710  37.963  27.169   4.800
53422W        W14711  18.571  34.951   0.243
53423W        W14712   9.379   8.689   3.333
53424W        W14713  30.595  24.679   0.418
53425W        W14714  40.946  41.806   3.868
53426W        W14715  10.262   9.744  10.916
53427W        W14716  27.491  24.226  10.576
53428W        W14717  17.580  24.540  11.372
53429W        W14718  14.691   9.711   3.800
53430W        W14719  34.891  19.644   0.872
53431W        W14720  36.983   8.893  11.911
53432W        W14721  26.007   1.862  11.922
53433W        W14722  27.626  13.319   1.357
53434W        W14723  44.868  36.580   3.647
53435W        W14724  36.077  40.999  13.506
53436W        W14725  17.125  24.133  14.914
53437W        W14726  42.435   2.916  14.918
53438W        W14727   9.676  36.418   5.279
53439W        W14728   9.238  11.631  10.051
53440W        W14729  39.945  35.095   0.341
53441W        W14730  21.260  35.575  10.967
53442W        W14731   3.380  41.535  10.592
53443W        W14732   2.943  20.683   3.252
53444W        W14733  27.674  23.232  13.033
53445W        W14734   6.753  38.823  12.372
53446W        W14735  39.818  37.449  12.548
53447W        W14736  25.059  27.102   1.750
53448W        W14737  38.028  13.706   1.245
53449W        W14738  30.529  25.544   1.339
53450W        W14739  26.630   5.352   1.253
53451W        W14740  34.907  29.941  14.005
53452W        W14741   4.789  16.687   4.732
53453W        W14742  26.509  21.044  10.027
53454W        W14743   3.736  15.160  14.823
53455W        W14744  17.599  16.641  12.563
53456W        W14745  14.315  15.600  13.455
53457W        W14746  17.566  44.890   0.743
53458W        W14747  17.129   3.819  12.897
53459W        W14748   3.259  18.238  10.602
53460W        W14749  32.986  40.878  13.846
53461W        W14750  43.016  36.068  10.617
53462W        W14751  22.244  16.208   2.865
53463W        W14752   7.749  15.669   5.133
53464W        W14753  26.580  41.418   3.797
53465W        W14754  42.509  35.594  13.865
53466W        W14755  30.423  37.451   4.719
53467W        W14756  17.701   9.777  11.512
53468W        W14757  44.439  11.248   3.802
53469W        W14758  38.847  12.127  14.436
53470W        W14759  19.635  29.568   2.748
53471W        W14760  19.690   3.831   0.797
53472W        W14761  23.113   8.342  14.877
53473W        W14762  44.282  30.935  11.102
53474W        W14763   4.401  17.207  13.353
53475W        W14764  35.441  43.019  11.473
53476W        W14765   5.888  11.283   1.789
53477W        W14766  11.641  18.231   3.707
53478W        W14767  32.519  37.839  10.541
53479W        W14768  35.410  28.156   0.956
53480W        W14769  17.747  15.779   0.336
53481W        W14770  31.529  29.058   3.755
53482W        W14771  25.103   4.737   0.385
53483W        W14772   7.279  31.964   1.356
53484W        W14773  43.794  22.638  10.448
53485W        W14774  14.736  28.037   3.296
53486W        W14775  23.235  19.213  11.056
53487W        W14776  40.474  34.460   4.350
53488W        W14777  42.832  26.552  11.129
53489W        W14778  34.386  39.943   3.351
53490W        W14779  25.625  32.583  12.092
53491W        W14780  22.073   4.772   4.353
53492W        W14781  36.070  19.641  12.068
53493W        W14782  30.091  34.572   3.851
53494W        W14783  26.522  35.866  11.058
53495W        W14784  36.040  23.178  12.985
53496W        W14785   7.252  22.213  12.004
53497W        W14786   9.777  35.453   2.859
53498W        W14787  32.045  41.016   4.772
53499W        W14788  44.800  20.205   0.371
53500W        W14789  23.615  30.514  12.906
53501W        W14790  24.569  13.640   1.732
53502W        W14791  21.195  20.616  11.870
53503W        W14792  29.495  42.931  11.425
53504W        W14793  43.318  37.925   4.743
53505W        W14794  44.437  43.279  14.361
53506W        W14795  40.343   6.359   0.403
53507W        W14796  25.559  36.449   2.312
53508W        W14797  38.331  33.451  10.557
53509W        W14798   3.923   0.916  12.514
53510W        W14799  25.043  21.638   1.703
53511W        W14800  29.664  42.016  12.503
53512W        W14801  16.741   4.827   3.209
53513W        W14802  26.019  26.519   5.239
53514W        W14803  35.599  15.698  13.908
53515W        W14804  12.221  33.446  12.089
53516W        W14805  30.479  19.236  13.458
53517W        W14806  27.129   6.294   1.228
53518W        W14807  35.928   2.333  11.471
53519W        W14808  39.493  31.442   0.830
53520W        W14809   8.187  34.517   1.235
53521W        W14810  25.064  37.051   3.835
53522W        W14811   2.455  13.156  12.915
53523W        W14812  32.931  18.732   3.341
53524W        W14813  27.632  34.511  10.633
53525W        W14814  23.507  43.409  14.468
53526W        W14815  19.039   1.893  10.637
53527W        W14816  14.167  40.908  14.918
53528W        W14817  33.054  41.911  11.011
53529W        W14818   3.403   3.744   1.744
53530W        W14819  25.060  25.071   5.254
53531W        W14820  16.645  42.788  12.930
53532W        W14821  25.029  44.262  14.497
53533W        W14822  22.624  15.329   2.247
53534W        W14823  14.283   1.908  14.994
53535W        W14824  43.784  31.633  14.447
53536W        W14825   3.424  14.194   3.822
53537W        W14826  15.754   5.912   1.275
53538W        W14827  14.733  16.250   1.378
53539W        W14828  41.853  28.675  14.463
53540W        W14829  15.194  25.993  11.013
53541W        W14830   6.396  18.768   1.216
53542W        W14831  31.072  29.092  11.577
53543W        W14832   3.275  31.059  11.087
53544W        W14833  28.595  20.028   2.385
53545W        W14834   1.396  35.447  14.954
53546W        W14835  31.623  30.502  12.970
53547W        W14836  27.564  43.930  13.477
53548W        W14837  26.501  35.358   4.301
53549W        W14838  38.868  31.929  11.965
53550W        W14839  43.017   1.353  13.324
53551W        W14840  44.835  10.320   5.311
53552W        W14841  34.901  15.596  10.576
53553W        W14842   4.813  13.317   0.910
53554W        W14843  12.324  18.114  12.000
53555W        W14844   4.322  15.726   1.345
53556W        W14845  24.647  16.601   3.732
53557W        W14846  40.050  19.101  12.886
53558W        W14847  44.769   1.363   0.264
53559W        W14848  24.591  34.523   3.841
53560W        W14849   3.775  40.047  10.637
53561W        W14850  28.005  39.377  10.154
53562W        W14851  19.646  34.975  11.925
53563W        W14852  21.114  31.535   0.301
53564W        W14853  28.435  33.036  12.877
53565W        W14854  33.434  20.216  11.053
53566W        W14855  22.704  26.665   5.120
53567W        W14856  31.459  23.213   2.736
53568W        W14857  17.741  34.522  12.992
53569W        W14858  14.833  14.744  13.033
53570W        W14859  14.255   2.916  10.423
53571W        W14860  42.436  35.986  14.368
53572W        W14861  33.617  33.398  14.459
53573W        W14862  39.521   8.660   0.349
53574W        W14863   3.954   8.884  12.565
53575W        W14864  25.107   9.658  12.949
53576W        W14865   0.359  12.356  10.052
53577W        W14866  27.593  38.563   2.332
53578W        W14867  23.146  41.477   1.931
53579W        W14868  39.835  30.527  13.512
53580W        W14869  33.114  32.458  14.398
53581W        W14870  39.850  43.010  10.580
53582W        W14871  29.450  38.044   1.382
53583W        W14872  32.023   1.378   3.682
53584W        W14873   1.838  32.886  14.875
53585W        W14874  35.011  38.356  13.807
53586W        W14875  17.558  26.650   1.896
53587W        W14876   5.871  39.809   4.692
53588W        W14877  30.596  13.768  11.558
53589W        W14878  27.575  34.409  11.091
53590W        W14879  33.561  30.515   2.798
53591W        W14880  21.642  32.443  10.621
53592W        W14881  32.108   3.885   1.237
53593W        W14882  20.230  43.329   4.783
53594W        W14883   3.946  35.994   0.871
53595W        W14884   1.968   9.393   2.873
53596W        W14885  15.101  34.931   4.264
53597W        W14886  36.425  15.772  14.347
53598W        W14887   0.924  14.102   1.715
53599W        W14888  24.133   9.745   3.856
53600W        W14889  36.894  19.737  12.472
53601W        W14890  34.096  37.460   4.146
53602W        W14891  26.120  22.719  11.881
53603W        W14892  30.106   6.761   4.650
53604W        W14893  42.947   3.367   0.805
53605W        W14894  36.567  37.420  14.897
53606W        W14895  32.126  20.145  10.572
53607W        W14896  24.483   1.741   3.695
53608W        W14897   2.773  44.360  13.398
53609W        W14898  13.144   4.446   1.933
53610W        W14899  14.599  43.312   0.394
53611W        W14900  35.072   5.363  13.325
53612W        W14901  17.147  24.687  14.860
53613W        W14902  22.667   8.763  12.510
53614W        W14903  20.710  34.424   2.178
53615W        W14904  33.439   5.834   0.405
53616W        W14905  26.990  14.743   0.802
53617W        W14906  36.092  28.046  14.936
53618W        W14907  38.964  23.032  11.593
53619W        W14908  18.733  31.039   3.362
53620W        W14909  19.134  18.689   4.350
53621W        W14910  35.977  42.926  11.030
53622W        W14911  17.800   3.408  10.616
53623W        W14912  13.227  42.868   3.182
53624W        W14913  12.708  35.095   3.186
53625W        W14914  25.500  34.089  13.963
53626W        W14915  12.651  24.062   3.258
53627W        W14916   0.386  42.469  13.548
53628W        W14917  30.917  39.319  12.376
53629W        W14918   9.241  38.031  10.642
53630W        W14919  37.961   9.846  12.418
53631W        W14920  10.683  38.825  14.937
53632W        W14921  23.008  27.554  14.858
53633W        W14922  44.382  12.213   0.792
53634W        W14923  19.044  25.609   3.675
53635W        W14924  30.934  16.122  12.351
53636W        W14925  18.125  43.878   3.753
53637W        W14926   2.351  25.036  10.407
53638W        W14927  24.104   7.209   1.774
53639W        W14928  32.543   1.827  14.504
53640W        W14929  31.574  32.395   1.240
53641W        W14930   6.392  11.775  10.628
53642W        W14931   5.717   8.741   1.270
53643W        W14932   7.838   2.869   4.162
53644W        W14933  19.772  19.247  14.836
53645W        W14934   1.801  35.970  14.836
53646W        W14935   2.293  33.573   1.711
53647W        W14936  32.517  23.058   3.286
53648W        W14937  15.760  43.360  12.515
53649W        W14938   0.403  21.616  12.396
53650W        W14939   2.424  37.473   0.465
53651W        W14940   5.439   7.333   4.694
53652W        W14941  44.918  42.029  11.959
53653W        W14942  22.560  11.822  14.317
53654W        W14943  18.633  21.230  14.016
53655W        W14944   1.351  33.108  13.399
53656W        W14945  43.372  29.106  14.832
53657W        W14946   7.741  21.562   1.821
53658W        W14947   8.352  15.787   2.249
53659W        W14948  16.683  39.435  11.517
53660W        W14949  24.071   6.404   0.884
53661W        W14950  12.855  40.383   2.386
53662W        W14951  11.660  34.546  14.479
53663W        W14952  22.121  30.435   1.302
53664W        W14953   1.881  30.561   0.890
53665W        W14954   3.280  41.905   1.848
53666W        W14955   8.391  42.878   2.747
53667W        W14956   4.345   1.795  13.980
53668W        W14957  25.469  35.944   2.289
53669W        W14958  30.611  35.880  12.072
53670W        W14959  10.159  35.087  10.448
53671W        W14960  34.000  44.356  10.515
53672W        W14961  40.347   3.339  10.904
53673W        W14962   5.285  39.526  12.476
53674W        W14963  37.056   6.366   4.168
53675W        W14964  30.053  41.970  13.320
53676W        W14965  26.539   7.326   1.328
53677W        W14966  17.173  18.571  12.048
53678W        W14967  32.487  41.461  13.847
53679W        W14968  19.134   9.794  13.963
53680W        W14969  39.837  14.666   2.327
53681W        W14970  44.889  33.525  11.063
53682W        W14971   7.378  18.585  10.404
53683W        W14972   0.428  26.557  12.965
53684W        W14973   5.199  15.310  10.408
53685W        W14974  22.586  29.503  11.417
53686W        W14975  17.214  22.079   3.744
53687W        W14976  23.163  33.460  14.434
53688W        W14977  38.975  28.993   1.237
53689W        W14978   7.679   9.865   1.906
53690W        W14979   7.805   6.764  10.611
53691W        W14980  34.864  14.676   3.213
53692W        W14981  38.035  29.514  14.313
53693W        W14982   2.899   2.356   4.332
53694W        W14983  24.196  14.274   1.362
53695W        W14984  30.506  37.920  11.126
53696W        W14985   2.880  23.140  11.946
53697W        W14986   9.888  12.295   2.189
53698W        W14987  15.254  12.812  13.374
53699W        W14988  27.980  25.048  11.581
53700W        W14989  44.269  35.944   1.437
53701W        W14990  33.439  15.125  13.906
53702W        W14991  39.532  19.264   3.841
53703W        W14992  13.257  42.786  10.908
53704W        W14993   8.807  33.935   5.219
53705W        W14994  27.065  28.124  10.043
53706W        W14995   0.362  21.621  14.330
53707W        W14996   4.346   4.772   1.924
53708W        W14997   5.296  25.980  10.499
53709W        W14998  13.763  16.677   0.419
53710W        W14999  25.543  34.046  11.445
53711W        W15000  28.081  27.523   1.336
53712W        W15001  40.443  41.514   3.706
53713W        W15002  13.121  31.997  11.535
53714W        W15003  25.551  41.912  14.430
53715W        W15004  15.115  36.372   5.114
53716W        W15005  20.193  35.475   1.444
53717W        W15006   7.785  44.971   4.694
53718W        W15007  16.314  25.666  12.475
53719W        W15008   1.934  27.638  14.474
53720W        W15009  16.703  24.036  11.558
53721W        W15010  29.599   9.851  12.903
53722W        W15011  21.069   7.411   1.829
53723W        W15012  40.490  44.984  14.329
53724W        W15013  26.973   0.410  13.813
53725W        W15014  17.576   2.402  11.457
53726W        W15015  11.736  23.695  11.047
53727W        W15016   9.312   3.928   0.408
53728W        W15017   1.435  22.166   2.339
53729W        W15018  32.069   9.772   4.333
53730W        W15019  42.885  15.618   4.156
53731W        W15020  29.585   2.880   5.748
53732W        W15021   4.878   2.392   5.098
53733W        W15022  20.091  25.059   5.289
53734W        W15023  35.932  30.440  10.983
53735W        W15024  42.995  13.323  14.020
53736W        W15025  17.596  11.779   3.749
53737W        W15026   2.267  19.279   2.673
53738W        W15027  29.965  41.527   3.742
53739W        W15028  18.552   5.703  10.154
53740W        W15029  31.408   5.852  14.507
53741W        W15030  16.314  28.488   4.684
53742W        W15031  43.320  23.206  13.989
53743W        W15032  25.601  44.010   0.429
53744W        W15033  42.445   3.881  12.923
53745W        W15034  40.321   4.422  10.896
53746W        W15035  23.228  35.512  14.994
53747W        W15036  19.137  43.949   2.208
53748W        W15037   1.925  36.570   2.253
53749W        W15038  26.115  24.615  13.423
53750W        W15039  14.118  42.002   4.769
53751W        W15040  21.541  38.830   3.632
53752W        W15041  38.538  41.952   0.453
53753W        W15042   2.960  22.715   2.700
53754W        W15043  27.946  11.145  10.955
53755W        W15044  38.820  28.992  13.397
53756W        W15045  16.630  39.557   0.738
53757W        W15046  27.498  43.295   1.422
53758W        W15047  32.081  43.354  14.300
53759W        W15048  27.007   8.708   1.396
53760W        W15049   2.443  30.025  13.386
53761W        W15050  12.780   5.261  11.915
53762W        W15051  22.628  44.432   2.404
53763W        W15052   3.948   0.286  10.623
53764W        W15053  33.100   5.805   1.879
53765W        W15054  42.510  19.188  12.411
53766W        W15055   1.881   5.403  12.082
53767W        W15056  18.662  23.041   0.408
53768W        W15057   2.437  28.627  12.340
53769W        W15058  12.272  14.196  10.898
53770W        W15059  17.572  36.098   0.300
53771W        W15060   2.392  11.175  11.999
53772W        W15061  28.971  29.492   1.905
53773W        W15062   5.254  25.973   2.393
53774W        W15063  38.460   5.785  13.816
53775W        W15064  37.485  26.110  12.026
53776W        W15065  11.651  35.430   1.246
53777W        W15066  37.371  36.564  12.522
53778W        W15067  30.083  13.223  11.071
53779W        W15068  14.595  11.650  11.917
53780W        W15069   2.737   0.983   3.363
53781W        W15070  41.993  27.150  14.308
53782W        W15071  15.258  39.998  11.941
53783W        W15072   4.787  32.139  13.913
53784W        W15073  21.258  12.668  12.504
53785W        W15074  27.665  23.626  13.420
53786W        W15075   8.181  10.349   4.760
53787W        W15076   8.871  22.536   2.696
53788W        W15077  38.339  40.546  10.446
53789W        W15078  12.841  38.891  11.010
53790W        W15079  22.725  16.183   1.224
53791W        W15080  33.066  29.972  14.427
53792W        W15081   8.367  27.604   3.354
53793W        W15082  20.160  28.632  10.892
53794W        W15083  41.829  10.653   1.826
53795W        W15084  40.968  32.478   4.605
53796W        W15085  17.110  12.187  11.988
53797W        W15086  31.633  43.957  11.884
53798W        W15087  20.595   1.403   3.650
53799W        W15088  21.212  33.929  12.418
53800W        W15089  30.418   3.217   3.836
53801W        W15090  32.900  20.534  14.953
53802W        W15091  26.515  25.683   3.214
53803W        W15092  15.796  26.611  11.602
53804W        W15093  30.657  37.458   2.321
53805W        W15094  14.786  34.960  14.444
53806W        W15095   6.871  27.690  13.380
53807W        W15096   5.348  21.043   1.849
53808W        W15097  32.458  26.030   4.116
53809W        W15098  37.415  19.589  11.975
53810W        W15099  22.224  25.181  11.982
53811W        W15100  31.047  11.786  10.616
53812W        W15101   2.306  20.071   4.282
53813W        W15102   3.416   4.360   3.730
53814W        W15103  23.041  42.968   4.639
53815W        W15104   4.772  25.667  10.423
53816W        W15105  42.327  10.193   1.808
53817W        W15106  42.865  20.717   0.336
53818W        W15107  36.392  26.075   3.634
53819W        W15108  27.978  36.450  10.542
53820W        W15109  13.280  26.183   0.386
53821W        W15110  40.909  12.664  12.354
53822W        W15111  22.617  27.587  13.419
53823W        W15112  29.592   4.207   4.261
53824W        W15113  36.992  22.710  13.997
53825W        W15114  39.048  17.156   9.920
53826W        W15115   7.306  39.444   4.629
53827W        W15116  22.577  33.968  10.608
53828W        W15117  14.129  43.281   1.243
53829W        W15118  20.145  37.575   1.390
53830W        W15119  20.557  30.081  11.107
53831W        W15120  31.457  36.894  13.514
53832W        W15121  23.200  42.338  13.328
53833W        W15122   3.926  38.917   3.670
53834W        W15123  40.037  25.623   4.248
53835W        W15124  22.233  27.486  14.473
53836W        W15125  34.573  38.487  14.938
53837W        W15126  44.846   6.366  14.511
53838W        W15127   1.300  37.993   1.819
53839W        W15128  37.972  22.196   4.317
53840W        W15129  16.803  28.589   3.698
53841W        W15130   6.691  25.469  12.363
53842W        W15131  35.399   6.364   2.704
53843W        W15132  19.645  23.014   2.811
53844W        W15133  20.146  20.212  10.568
53845W        W15134  23.500  38.433   0.308
53846W        W15135  40.509  32.467   1.350
53847W        W15136  10.731  15.710   1.244
53848W        W15137  14.678  34.941  12.833
53849W        W15138  18.198   5.844   0.469
53850W        W15139  42.807  15.629  13.922
53851W        W15140   4.915  14.713   2.293
53852W        W15141  42.413  41.864   2.774
53853W        W15142  38.377  17.082  13.937
53854W        W15143  24.139   9.798  12.866
53855W        W15144  33.072  21.563  14.863
53856W        W15145  13.138  11.231  12.030
53857W        W15146  33.472  42.915  11.569
53858W        W15147  31.034  26.003   4.176
53859W        W15148  19.056  21.650  13.475
53860W        W15149  32.533  44.423  14.879
53861W        W15150  12.344  16.739   4.806
53862W        W15151  38.387   5.386  10.595
53863W        W15152   0.965   9.229  12.849
53864W        W15153  33.577  15.157   1.447
53865W        W15154   6.207  13.271  10.996
53866W        W15155   7.373  38.966   1.373
53867W        W15156   7.792  20.583   3.385
53868W        W15157   6.291  33.001   3.801
53869W        W15158  31.049   9.858  10.451
53870W        W15159  42.501  43.479  11.456
53871W        W15160  10.750  43.933  14.788
53872W        W15161  31.419   9.219  13.360
53873W        W15162  21.060  26.141   2.306
53874W        W15163   5.312  13.610  14.015
53875W        W15164  29.571  24.571   3.298
53876W        W15165  28.010  35.594  10.499
53877W        W15166  23.528  38.943   2.232
53878W        W15167  19.132   4.864  10.422
53879W        W15168   0.441  18.749  11.980
53880W        W15169  12.652   0.916  14.417
53881W        W15170  13.820  36.064   3.364
53882W        W15171  26.070  43.387  11.562
53883W        W15172   7.725  15.749  12.831
53884W        W15173  20.715  19.715  12.541
53885W        W15174  24.073  29.633   0.304
53886W        W15175  23.492  35.866  11.090
53887W        W15176  31.529  14.769   4.605
53888W        W15177  14.300  25.563   3.265
53889W        W15178  11.130  16.169   3.297
53890W        W15179  14.640  27.584   0.308
53891W        W15180  34.929  18.588  13.896
53892W        W15181  41.301  14.703   1.856
53893W        W15182  20.749  22.218  12.055
53894W        W15183  20.548  40.828  12.423
53895W        W15184  32.572  37.859   4.680
53896W        W15185   1.289  35.103   0.306
53897W        W15186  40.381  32.030  10.143
53898W        W15187  12.120  14.791  12.089
53899W        W15188  36.519   7.404  13.950
53900W        W15189  38.395   8.187  11.913
53901W        W15190  29.425  14.788  14.475
53902W        W15191  32.940   5.735   0.331
53903W        W15192   8.767  22.637  12.453
53904W        W15193   9.192  19.071   4.271
53905W        W15194  11.155  42.022   1.797
53906W        W15195   4.892   3.820   3.793
53907W        W15196  42.290   0.383   2.235
53908W        W15197  28.453  22.548   0.909
53909W        W15198  32.592  27.138  11.576
53910W        W15199  31.144  17.239   2.298
53911W        W15200   9.209  30.055   9.924
53912W        W15201   7.221   4.883   0.278
53913W        W15202   9.216  34.415   4.725
53914W        W15203  24.175  36.413  12.829
53915W        W15204   4.424  26.960   2.178
53916W        W15205   0.900   9.847   0.897
53917W        W15206   3.281   6.761  13.028
53918W        W15207  23.553  43.314  11.031
53919W        W15208   2.411  14.230  11.415
53920W        W15209  12.724  10.755   4.729
53921W        W15210  38.017   3.242  12.546
53922W        W15211  14.671  36.522   9.539
53923W        W15212  23.108  24.661   0.478
53924W        W15213  10.686  29.109   1.747
53925W        W15214   2.269  42.805   5.151
53926W        W15215  17.133  43.418   2.786
53927W        W15216  23.715  26.060  14.366
53928W        W15217  10.830  10.146   3.636
53929W        W15218  25.467  27.522   0.929
53930W        W15219  36.021  28.069  10.461
53931W        W15220   6.769   0.824  14.966
53932W        W15221  22.076   2.841  13.317
53933W        W15222   7.868   9.260  12.824
53934W        W15223  39.871  29.540   4.756
53935W        W15224  32.555  17.763   4.339
53936W        W15225  30.980  25.562   0.415
53937W        W15226  16.648  34.958  13.824
53938W        W15227   8.713   5.851   0.870
53939W        W15228  32.957   4.717  11.120
53940W        W15229  37.355  35.514  14.944
53941W        W15230  44.286  42.407  10.146
53942W        W15231  32.537  27.529   4.617
53943W        W15232  42.979  28.504  11.481
53944W        W15233  25.159  44.460   0.849
53945W        W15234   9.339  40.367  11.443
53946W        W15235  13.600  42.438  12.015
53947W        W15236  12.116  23.596  13.919
53948W        W15237  14.707  10.341  10.991
53949W        W15238  20.232  13.128   3.827
53950W        W15239  20.256  27.167   3.694
53951W        W15240   1.413  27.669  12.827
53952W        W15241  28.528   3.280  10.597
53953W        W15242  43.919  23.100  12.037
53954W        W15243  42.285  24.496  12.981
53955W        W15244  37.444  42.942   0.801
53956W        W15245  40.529  22.613  11.934
53957W        W15246   0.923  39.451  12.985
53958W        W15247  41.378   1.441   4.711
53959W        W15248  16.662  43.830   2.234
53960W        W15249  20.130  18.650   2.180
53961W        W15250  21.148  28.106  11.980
53962W        W15251  29.576  35.561   2.754
53963W        W15252  36.401  19.196   0.396
53964W        W15253   6.870  10.829  12.069
53965W        W15254  15.586  42.423   0.262
53966W        W15255  26.582  23.620   1.424
53967W        W15256   6.768   1.314  10.519
53968W        W15257  39.973  27.143  12.559
53969W        W15258  14.611  16.120  10.565
53970W        W15259  28.099   1.796  12.943
53971W        W15260  16.700  42.866   2.360
53972W        W15261   2.957  11.302  12.409
53973W        W15262  14.765  21.199  14.901
53974W        W15263   6.801  13.655  10.500
53975W        W15264  27.632  43.376  14.339
53976W        W15265  33.486  23.724   4.220
53977W        W15266  12.247  31.907   4.327
53978W        W15267  21.129   9.383   4.252
53979W        W15268  22.711  24.617  14.432
53980W        W15269  43.389   2.325   3.309
53981W        W15270  25.587   4.806   2.727
53982W        W15271  29.516  37.037   1.701
53983W        W15272  35.549  11.748  11.122
53984W        W15273  27.089  40.028  10.424
53985W        W15274  41.949  30.445   3.826
53986W        W15275  33.433   2.300  14.995
53987W        W15276  36.853   0.773   4.715
53988W        W15277  43.827  12.313   0.476
53989W        W15278  24.545  20.641   3.789
53990W        W15279  42.910   0.485  12.848
53991W        W15280  44.269  22.061   3.674
53992W        W15281   3.834  34.987  13.933
53993W        W15282  43.918   3.943   4.611
53994W        W15283  42.513  38.539   1.238
53995W        W15284  20.679  28.552  12.997
53996W        W15285  18.630  11.712   2.410
53997W        W15286  26.978   3.916   2.797
53998W        W15287   4.892  13.647   2.797
53999W        W15288  42.817  12.843   3.809
54000W        W15289   8.771  21.739  11.430
54001W        W15290  27.098  17.605  12.046
54002W        W15291   4.447   9.704   0.784
54003W        W15292  12.214  14.171   3.669
54004W        W15293  13.193   4.814   2.230
54005W        W15294   1.896   8.710  11.404
54006W        W15295  15.637  20.238  14.426
54007W        W15296  38.826  14.116   4.754
54008W        W15297  37.071  17.565   3.233
54009W        W15298  22.504   7.220   5.248
54010W        W15299  38.350  12.845  10.916
54011W        W15300   5.267  30.579  12.961
54012W        W15301  27.168   4.920   3.743
54013W        W15302  36.525  17.162  10.622
54014W        W15303  41.499  34.604   4.168
54015W        W15304  27.056  24.582   4.156
54016W        W15305  35.472  29.440   1.241
54017W        W15306  29.934  15.693  11.050
54018W        W15307  16.268  15.713   0.923
54019W        W15308  25.596  12.797  10.550
54020W        W15309  13.727   3.370   1.447
54021W        W15310  29.444   9.683  13.452
54022W        W15311  17.669  41.787   2.384
54023W        W15312  24.062  33.938   3.165
54024W        W15313  22.508  20.616  14.900
54025W        W15314  26.575  13.153   4.705
54026W        W15315  29.936   6.795   2.803
54027W        W15316   4.831  25.050   2.209
54028W        W15317  35.367  37.570  14.359
54029W        W15318  18.668  32.606  13.344
54030W        W15319  28.572  10.249   2.871
54031W        W15320  15.670   1.266  10.438
54032W        W15321  15.752  40.988  11.426
54033W        W15322  42.402  34.439  13.358
54034W        W15323  44.909  14.124   0.890
54035W        W15324  39.460  19.143  12.024
54036W        W15325  15.193  34.593   0.372
54037W        W15326  39.415  34.496  13.532
54038W        W15327  13.164  12.698   2.186
54039W        W15328  25.571  32.900  13.435
54040W        W15329  24.166   4.840   1.859
54041W        W15330  19.543   5.271  12.440
54042W        W15331  13.224   3.948   1.350
54043W        W15332  14.730   0.966   2.770
54044W        W15333  39.879   9.160   4.225
54045W        W15334  35.061  12.322   3.270
54046W        W15335  25.128  15.667   4.290
54047W        W15336  28.536  22.509  10.892
54048W        W15337   8.776  32.999   3.755
54049W        W15338  42.355  38.824   1.219
54050W        W15339  31.024  36.041  11.932
54051W        W15340  36.025  33.431   1.215
54052W        W15341  26.583  42.001   2.788
54053W        W15342  16.273   5.861   2.703
54054W        W15343  23.115  23.497   1.257
54055W        W15344  26.022   5.835   0.742
54056W        W15345   1.741   1.809   0.262
54057W        W15346  25.006   5.427   3.330
54058W        W15347  13.638  10.308   3.296
54059W        W15348  29.611  10.781   4.731
54060W        W15349  38.564  42.968   0.953
54061W        W15350  43.299  17.091   1.287
54062W        W15351  17.635  15.642   2.305
54063W        W15352   8.667  24.045   2.318
54064W        W15353  32.630  16.139  13.414
54065W        W15354  11.235  13.254  12.974
54066W        W15355   6.920  20.611   4.785
54067W        W15356   9.307  16.666  10.999
54068W        W15357  24.497   8.856   4.278
54069W        W15358   3.769  24.041   9.922
54070W        W15359  36.565   9.361  14.437
54071W        W15360  23.078  30.937   1.340
54072W        W15361  43.333  43.392   4.331
54073W        W15362  33.985  41.351   2.902
54074W        W15363  34.007  18.601   3.280
54075W        W15364   8.709   6.683  11.004
54076W        W15365   8.398   8.841   4.629
54077W        W15366  28.030  43.389   2.888
54078W        W15367   8.202  21.581   1.895
54079W        W15368   9.392  39.915   4.332
54080W        W15369  43.364  28.551   2.708
54081W        W15370  10.149  38.495   9.977
54082W        W15371  41.898  28.038  10.444
54083W        W15372   5.933  30.947   0.257
54084W        W15373  35.090  44.856  13.465
54085W        W15374  20.263  33.383   4.717
54086W        W15375  25.140  13.127   1.267
54087W        W15376  39.338  25.098   2.337
54088W        W15377   0.248  37.076  13.380
54089W        W15378  22.516   1.761  10.043
54090W        W15379   0.293  32.528  13.360
54091W        W15380   7.880  14.199  14.998
54092W        W15381   5.704  12.115   3.378
54093W        W15382  41.964  43.821  11.914
54094W        W15383  36.082  23.049  13.842
54095W        W15384   3.759  30.603  14.360
54096W        W15385  25.581   9.243   1.809
54097W        W15386   6.876   2.760   3.200
54098W        W15387  12.658  24.642  11.890
54099W        W15388  44.973   6.182   3.780
54100W        W15389  33.920  23.028  13.418
54101W        W15390   6.402  27.964   1.305
54102W        W15391  20.237  12.116   4.622
54103W        W15392  30.619  13.306  10.501
54104W        W15393   9.720   2.755  12.021
54105W        W15394  15.222  37.388  14.800
54106W        W15395  31.458  38.851  10.584
54107W        W15396  14.157  28.071   2.719
54108W        W15397  12.785  26.696   3.729
54109W        W15398  16.263  16.089   2.719
54110W        W15399  25.035   3.348   0.960
54111W        W15400  21.221  24.060  14.359
54112W        W15401   0.343  42.916   4.247
54113W        W15402  40.939  16.162  12.368
54114W        W15403  28.181  32.432   4.824
54115W        W15404  10.286  39.479  13.378
54116W        W15405  37.517  22.518  12.339
54117W        W15406  16.177  27.112  13.395
54118W        W15407  24.635  37.374  12.837
54119W        W15408  17.173  24.498   1.760
54120W        W15409  15.277   9.338  14.812
54121W        W15410  35.516   6.356  13.010
54122W        W15411  42.883  17.187   2.234
54123W        W15412  44.374  23.718  13.925
54124W        W15413  31.049   5.271  14.406
54125W        W15414  33.389  19.098   2.189
54126W        W15415  21.246  36.076   0.449
54127W        W15416  21.141  44.386  10.488
54128W        W15417  31.600  17.190   4.146
54129W        W15418  28.540  31.531   3.352
54130W        W15419   5.872   6.395   3.269
54131W        W15420  10.234   0.980   3.189
54132W        W15421  29.617  30.074  14.870
54133W        W15422  20.739  33.056   3.332
54134W        W15423  10.269   3.796  10.578
54135W        W15424  30.480  34.610  13.922
54136W        W15425  13.769  12.780   2.723
54137W        W15426  42.346  29.169   3.735
54138W        W15427   4.923  31.016  14.447
54139W        W15428  11.341  17.174  10.554
54140W        W15429   3.387  12.278   3.663
54141W        W15430   5.724  38.057  14.479
54142W        W15431  33.396  40.971   2.367
54143W        W15432  25.188  25.057  14.788
54144W        W15433  23.990  26.547   4.642
54145W        W15434  19.550  41.912   4.284
54146W        W15435   5.323   8.802  12.457
54147W        W15436   4.425   5.748  12.854
54148W        W15437  27.959  16.116   3.385
54149W        W15438  28.618  38.466  12.091
54150W        W15439   2.237   0.436  10.919
54151W        W15440  23.548   0.471  12.524
54152W        W15441   8.360  12.641   2.869
54153W        W15442  38.915  14.151  12.894
54154W        W15443  28.138   7.698  14.781
54155W        W15444  12.267  11.650  10.934
54156W        W15445  38.009   2.758   1.701
54157W        W15446  24.999  12.663   1.384
54158W        W15447  25.589   0.276  12.486
54159W        W15448  40.868  17.658  14.377
54160W        W15449  26.024  16.304  14.513
54161W        W15450  30.517  39.531   1.718
54162W        W15451  34.974  24.658   3.747
54163W        W15452  18.070  17.558  10.584
54164W        W15453  29.102  43.513   2.332
54165W        W15454   4.862  18.176   3.850
54166W        W15455  36.977  43.773  14.885
54167W        W15456  21.565  24.604   0.279
54168W        W15457  18.265  23.616   2.858
54169W        W15458  34.569   0.984   2.356
54170W        W15459  26.646  26.208  14.783
54171W        W15460   9.776   6.384   4.806
54172W        W15461  10.878   4.242   3.194
54173W        W15462  21.673  42.463   2.280
54174W        W15463   3.442   5.700   4.630
54175W        W15464  23.038  25.157   2.180
54176W        W15465  16.641  29.467  13.416
54177W        W15466  18.205  43.820  14.396
54178W        W15467   3.460  22.120   4.601
54179W        W15468   7.846  21.641  12.826
54180W        W15469  16.781   6.720  11.463
54181W        W15470   3.412  32.114   2.726
54182W        W15471   0.793  31.438  10.590
54183W        W15472  41.810  29.566   2.829
54184W        W15473  21.517  28.147  14.769
54185W        W15474  21.043  40.387  12.010
54186W        W15475  12.116  33.881   3.652
54187W        W15476  18.173  22.170   4.682
54188W        W15477  16.204  43.455  10.907
54189W        W15478   4.374  38.972   0.280
54190W        W15479  11.150  35.966  14.909
54191W        W15480  25.123  12.828  14.869
54192W        W15481  30.578  43.968   2.220
54193W        W15482  30.564  18.729   3.780
54194W        W15483  12.332  28.647   4.788
54195W        W15484  25.560  12.729   2.823
54196W        W15485   0.955   4.351   0.325
54197W        W15486  13.708   0.423  14.333
54198W        W15487   4.742  14.111   3.235
54199W        W15488  15.180  14.834   1.719
54200W        W15489  39.533   1.240   4.284
54201W        W15490   8.347  35.090   1.388
54202W        W15491  41.367  31.939   0.947
54203W        W15492  26.108  43.446  11.124
54204W        W15493   8.877  24.122  14.838
54205W        W15494  38.848   5.431  12.018
54206W        W15495  32.618  17.065  13.955
54207W        W15496  28.654  22.674   2.188
54208W        W15497  32.998  30.531  12.403
54209W        W15498  40.869  19.644  13.427
54210W        W15499  24.582  28.975   3.792
54211W        W15500  11.797  42.423  13.059
54212W        W15501  43.907  37.852   1.752
54213W        W15502  10.780  25.574  14.981
54214W        W15503  25.653  14.312   0.308
54215W        W15504  21.721  31.511   0.248
54216W        W15505  21.744   3.238   3.789
54217W        W15506  11.337  24.108  12.390
54218W        W15507   0.899  19.617   1.745
54219W        W15508  15.783  21.652   0.944
54220W        W15509  39.957   8.376   1.912
54221W        W15510  37.838   3.416   2.898
54222W        W15511  17.711  26.173  13.320
54223W        W15512  32.625  20.127   1.272
54224W        W15513  10.215  22.644  10.588
54225W        W15514  12.356  28.932   2.369
54226W        W15515  33.091  33.526  14.993
54227W        W15516  39.956  30.609  12.464
54228W        W15517  34.416  12.776   1.708
54229W        W15518  13.739  32.621   3.856
54230W        W15519  43.977  28.631   2.250
54231W        W15520  10.788  24.126  14.371
54232W        W15521  44.844  33.487  14.327
54233W        W15522  32.514  42.835   1.715
54234W        W15523  44.349  38.542   9.988
54235W        W15524  24.979  10.236   1.808
54236W        W15525   4.903  19.046  11.985
54237W        W15526  16.209   2.289  13.439
54238W        W15527  25.513  30.517  12.083
54239W        W15528  12.162   6.899   1.787
54240W        W15529  12.715   1.968   3.239
54241W        W15530  42.324  35.441   1.426
54242W        W15531  19.214  25.644   1.911
54243W        W15532  22.725  12.710  11.597
54244W        W15533  29.954   9.360   5.100
54245W        W15534  15.737  14.303   0.373
54246W        W15535  24.686  18.124  14.316
54247W        W15536  21.124  34.494   2.397
54248W        W15537   4.235  38.983  13.307
54249W        W15538  18.129  18.225   3.311
54250W        W15539   3.897  38.016  10.432
54251W        W15540  28.460  33.595  14.404
54252W        W15541  25.195   5.802   1.261
54253W        W15542   1.895  26.551   2.185
54254W        W15543  39.878  19.178   3.737
54255W        W15544  44.299  12.229   3.234
54256W        W15545  28.521  40.371  14.870
54257W        W15546   4.449  44.891  14.469
54258W        W15547   2.836  28.934  10.522
54259W        W15548   0.944  14.775   0.798
54260W        W15549   1.807  40.860  12.399
54261W        W15550   8.316  35.509  12.882
54262W        W15551  25.025  33.111  12.523
54263W        W15552  24.695  31.042  12.561
54264W        W15553  33.053  43.782   4.180
54265W        W15554  35.091  27.028   0.958
54266W        W15555  38.336  27.071   3.694
54267W        W15556  36.010  44.386  11.542
54268W        W15557  18.545   5.776   2.741
54269W        W15558  29.960  35.362   2.798
54270W        W15559  22.641  22.693   3.637
54271W        W15560  39.487   1.919  13.537
54272W        W15561   4.411  15.194  14.957
54273W        W15562  28.148  37.050   4.259
54274W        W15563  13.325  38.411  11.113
54275W        W15564   8.171  31.020   1.312
54276W        W15565  27.170  11.680  11.462
54277W        W15566  17.217  36.936   1.849
54278W        W15567  11.323  33.010  14.845
54279W        W15568  38.869  41.812  11.404
54280W        W15569  19.270  27.690   4.767
54281W        W15570   1.251   7.235   3.263
54282W        W15571  42.410   0.419  13.870
54283W        W15572  19.635  22.603   1.358
54284W        W15573  17.717  20.728  12.087
54285W        W15574  11.218  35.387   1.304
54286W        W15575  40.364  10.221  12.934
54287W        W15576   2.736  17.164   3.303
54288W        W15577  36.022   8.659  11.452
54289W        W15578   8.189  13.152  13.821
54290W        W15579  30.921  10.756   4.674
54291W        W15580  42.007  11.829   4.308
54292W        W15581  37.068  27.117   4.805
54293W        W15582   5.410  15.106   2.318
54294W        W15583  19.135  36.085   3.375
54295W        W15584  22.166  23.554   1.930
54296W        W15585   4.702  20.085   1.401
54297W        W15586  16.681   6.807  14.301
54298W        W15587   3.743   7.224  10.488
54299W        W15588  27.650  36.074   0.751
54300W        W15589  36.059  31.956   3.147
54301W        W15590   5.801  26.073   2.262
54302W        W15591  32.497   7.295   0.798
54303W        W15592  39.548  34.507   2.408
54304W        W15593  33.990  25.527  12.070
54305W        W15594  21.693  14.679   2.880
54306W        W15595  31.609  44.795  14.029
54307W        W15596   2.912  21.199  12.837
54308W        W15597  38.420  24.102  12.882
54309W        W15598  24.481   6.205  10.606
54310W        W15599   9.746  39.937  14.411
54311W        W15600   8.745  11.286   3.788
54312W        W15601  22.725  19.718  13.524
54313W        W15602  23.172  30.584  12.567
54314W        W15603  17.652  21.163   5.272
54315W        W15604   8.690  42.821  14.430
54316W        W15605   2.386  39.522   2.774
54317W        W15606  31.994   5.797  14.809
54318W        W15607  27.648  22.101  10.602
54319W        W15608  12.670  32.105  10.983
54320W        W15609  23.087  37.340  13.436
54321W        W15610   9.723  28.443   3.729
54322W        W15611  44.355  39.819  13.926
54323W        W15612   0.284   9.706   3.298
54324W        W15613  25.577   2.942  13.819
54325W        W15614  20.739  34.474   1.900
54326W        W15615  11.792  12.350   1.894
54327W        W15616   2.442  14.668   3.847
54328W        W15617  22.061  23.180  12.515
54329W        W15618   0.879  39.332  10.530
54330W        W15619  38.075  41.407   2.866
54331W        W15620  38.496  12.771   4.159
54332W        W15621  42.980  35.921  14.325
54333W        W15622  38.822  33.474  14.508
54334W        W15623  37.572  25.009  12.360
54335W        W15624  35.359  18.168   2.276
54336W        W15625   4.404   4.928   4.677
54337W        W15626   8.805   0.790   1.739
54338W        W15627  43.494  19.185   2.867
54339W        W15628  34.454  15.638   1.790
54340W        W15629  41.015   0.825   0.880
54341W        W15630  13.237  24.210  10.131
54342W        W15631   2.879  34.023   3.315
54343W        W15632  41.884  32.427   2.368
54344W        W15633  11.221  17.788   3.824
54345W        W15634  37.833  27.997  11.483
54346W        W15635  19.578  41.993  12.473
54347W        W15636  23.184   6.754   0.444
54348W        W15637  12.648  28.107   2.344
54349W        W15638  22.111   2.406  14.296
54350W        W15639   6.417  38.566   3.186
54351W        W15640   2.352   7.227  13.993
54352W        W15641   5.860  10.347   4.265
54353W        W15642  19.120  15.707  13.892
54354W        W15643  36.982  20.196   3.288
54355W        W15644   2.837   6.266   0.881
54356W        W15645   1.340  27.185   2.367
54357W        W15646  40.519  20.720   4.122
54358W        W15647  12.363  44.900   0.856
54359W        W15648  42.897  28.575   3.695
54360W        W15649  42.841  36.843  10.894
54361W        W15650   3.881  36.942  14.403
54362W        W15651  18.258   1.845  11.467
54363W        W15652  30.958  23.180   2.254
54364W        W15653  28.582  16.766   0.873
54365W        W15654  35.092  39.959   3.821
54366W        W15655  17.307  29.097  11.021
54367W        W15656  37.902  21.616   4.170
54368W        W15657  18.703  23.562   3.185
54369W        W15658  29.547  33.386  14.340
54370W        W15659  29.533   7.368   3.792
54371W        W15660  38.945  37.025   1.437
54372W        W15661  33.405  14.110   1.752
54373W        W15662  22.614  22.725  10.139
54374W        W15663  21.092  20.229  13.359
54375W        W15664  19.639  11.309  10.907
54376W        W15665  14.646   9.652   3.386
54377W        W15666  28.677   1.409  12.573
54378W        W15667   2.321  20.573   0.947
54379W        W15668  15.127  33.098   1.824
54380W        W15669  25.533   2.435   3.215
54381W        W15670  21.256  29.621  12.571
54382W        W15671  30.558  24.138   4.647
54383W        W15672   0.349  40.993   4.278
54384W        W15673  24.500  44.445   4.669
54385W        W15674  26.174   6.251  14.867
54386W        W15675   2.881  16.638   0.428
54387W        W15676  19.744  31.500   1.230
54388W        W15677  20.546  32.433   2.828
54389W        W15678  30.630  31.960  14.868
54390W        W15679  30.047   0.868   3.298
54391W        W15680  44.438  21.702   2.758
54392W        W15681  34.940  17.659   1.907
54393W        W15682  40.397  41.868  13.844
54394W        W15683  13.200  18.229  10.150
54395W        W15684  20.249  34.918   2.794
54396W        W15685  21.215  21.059   0.473
54397W        W15686  42.472  40.906  13.413
54398W        W15687  14.332   8.803  14.949
54399W        W15688  31.637  25.107  13.947
54400W        W15689  30.991  17.095  14.433
54401W        W15690  40.020  35.077   3.268
54402W        W15691  39.860  27.983   3.819
54403W        W15692  11.704  14.761   3.250
54404W        W15693  11.809  19.162   1.357
54405W        W15694  22.568  39.473   2.768
54406W        W15695  11.259  37.492   3.633
54407W        W15696  44.871  12.126   3.226
54408W        W15697  38.429  15.153   4.159
54409W        W15698  44.338  43.358  10.613
54410W        W15699  41.472  27.009   0.941
54411W        W15700  14.200  33.034   1.409
54412W        W15701  16.597  35.536   2.272
54413W        W15702  38.008  12.652   3.730
54414W        W15703   5.299   6.415   3.863
54415W        W15704  30.651  24.641  11.372
54416W        W15705  42.464  25.151  12.019
54417W        W15706  29.646  24.027  12.024
54418W        W15707  31.081  13.842  14.375
54419W        W15708  26.629  12.797   1.305
54420W        W15709  10.732   7.360   1.373
54421W        W15710  18.103  35.451   4.271
54422W        W15711  41.379  23.046   4.274
54423W        W15712  14.770  13.628  12.905
54424W        W15713  11.753  11.690   4.267
54425W        W15714  43.883  19.073   1.882
54426W        W15715  17.685   7.674  11.937
54427W        W15716  40.821  22.125  14.803
54428W        W15717  19.063  31.962   2.801
54429W        W15718  42.298  38.514   4.180
54430W        W15719  18.740  24.131   1.811
54431W        W15720  19.766  24.174  13.888
54432W        W15721  12.127  41.840   4.234
54433W        W15722  28.086  24.092   1.908
54434W        W15723  24.556  39.385   0.953
54435W        W15724  13.735  32.067   1.707
54436W        W15725   6.761  26.526   1.713
54437W        W15726   9.874  25.520   9.450
54438W        W15727   2.956  37.582  12.055
54439W        W15728   6.787  23.550  10.432
54440W        W15729  19.718   2.413   0.281
54441W        W15730  41.861   7.898  10.895
54442W        W15731  11.846  14.818  11.888
54443W        W15732  28.176  15.319  12.568
54444W        W15733   4.399  20.561  13.492
54445W        W15734  26.604  28.155   3.338
54446W        W15735  42.932  22.020  14.277
54447W        W15736  30.100  36.937   2.220
54448W        W15737  26.176  16.705  12.509
54449W        W15738  27.659   4.239   1.801
54450W        W15739   1.973   3.351  12.551
54451W        W15740   5.709  11.740  11.044
54452W        W15741  25.623  36.948   0.302
54453W        W15742  33.527  15.760  10.143
54454W        W15743  24.042  42.912  13.452
54455W        W15744   6.197  14.699   3.279
54456W        W15745  21.120  15.664  13.397
54457W        W15746  24.160  37.362  11.027
54458W        W15747   8.309  10.207  10.949
54459W        W15748  34.939   6.196  10.420
54460W        W15749  11.664   6.854  10.901
54461W        W15750   4.287   4.396   0.347
54462W        W15751  11.660  31.018   3.665
54463W        W15752   3.396  27.669   1.250
54464W        W15753  12.200   3.743   2.724
54465W        W15754  20.753   0.917  10.507
54466W        W15755  38.054  42.779  12.023
54467W        W15756  38.876  29.163  12.344
54468W        W15757  10.226  14.251  11.549
54469W        W15758  30.000  40.805   4.220
54470W        W15759  43.900  40.372   4.702
54471W        W15760  28.964  22.720   2.754
54472W        W15761  26.510   7.186   5.140
54473W        W15762  18.092   3.325  14.312
54474W        W15763  42.322  23.086   1.248
54475W        W15764  32.596  29.979   2.866
54476W        W15765  15.291   5.372   1.716
54477W        W15766  21.521  35.516   3.863
54478W        W15767  40.003  40.472   2.247
54479W        W15768  26.169  36.591   0.796
54480W        W15769   5.399  24.720   3.666
54481W        W15770  36.473  37.356   0.866
54482W        W15771   9.742  29.963   3.333
54483W        W15772  23.998  13.787  10.591
54484W        W15773   7.872  17.639  13.801
54485W        W15774  25.112  44.997   3.195
54486W        W15775  35.099  17.780  10.974
54487W        W15776  38.468  28.168  13.846
54488W        W15777   2.390   4.238  12.561
54489W        W15778  42.914  43.291  13.535
54490W        W15779   5.762  24.600  13.532
54491W        W15780  33.417  27.536  14.944
54492W        W15781  32.952  10.309  10.126
54493W        W15782  20.116  20.256  14.293
54494W        W15783  42.948  20.763   3.734
54495W        W15784  25.196   3.710  13.450
54496W        W15785  25.142  14.338  12.437
54497W        W15786  20.566  43.814   4.225
54498W        W15787  17.558   2.957   2.858
54499W        W15788  17.183  37.042   1.392
54500W        W15789  35.554  22.526  14.286
54501W        W15790   6.346  16.802  11.049
54502W        W15791   2.873   8.381   4.743
54503W        W15792   2.762   4.397  11.114
54504W        W15793   7.307  22.138   2.797
54505W        W15794  29.625  37.444  11.577
54506W        W15795  23.708  17.613   2.767
54507W        W15796  27.644  29.030  13.500
54508W        W15797  44.263  27.687   1.796
54509W        W15798  40.476   0.837   3.277
54510W        W15799   9.314  12.743   4.791
54511W        W15800  38.830  42.413   3.727
54512W        W15801  18.091  41.878   4.599
54513W        W15802  16.631  34.081   0.408
54514W        W15803   4.937  17.114   3.381
54515W        W15804   1.972  15.781   2.901
54516W        W15805  39.408  27.975  13.927
54517W        W15806  17.083  34.505   1.932
54518W        W15807  23.066  27.679   1.872
54519W        W15808  11.359  21.625  14.032
54520W        W15809  29.524  33.126  14.514
54521W        W15810  44.839  14.625  12.409
54522W        W15811  22.687  31.922  10.522
54523W        W15812  26.171  15.240  11.857
54524W        W15813   3.723  31.083  12.481
54525W        W15814  11.182  34.613   0.394
54526W        W15815  26.091  12.355   4.240
54527W        W15816  41.904  14.803  13.851
54528W        W15817  18.599   8.290  11.877
54529W        W15818  30.153  37.447  11.027
54530W        W15819  26.594  25.208  11.897
54531W        W15820   5.796  27.158   1.930
54532W        W15821  38.881   1.262   4.201
54533W        W15822   2.374  25.082  13.448
54534W        W15823  30.032  36.513   0.384
54535W        W15824  31.010  16.128  11.107
54536W        W15825  37.527  20.746  13.543
54537W        W15826  13.627  11.320   3.793
54538W        W15827   3.450  32.023   3.669
54539W        W15828  21.703  43.286   3.769
54540W        W15829  34.000  36.582  13.437
54541W        W15830  23.122  13.725   3.863
54542W        W15831  40.533  19.168  14.768
54543W        W15832  30.537  25.975  10.923
54544W        W15833  11.323  43.988  12.362
54545W        W15834   1.866   4.862  12.992
54546W        W15835   9.760  23.671  13.991
54547W        W15836  28.447   1.812   0.243
54548W        W15837  27.982  18.252   0.351
54549W        W15838  27.999   6.273   4.147
54550W        W15839  17.114  40.815   1.811
54551W        W15840  29.524  38.851   1.232
54552W        W15841  11.665  14.238   5.086
54553W        W15842   8.727  16.292   4.750
54554W        W15843   0.885  30.915   3.675
54555W        W15844   2.264   4.819   2.803
54556W        W15845  20.158  22.174  14.823
54557W        W15846   9.693  31.560   9.946
54558W        W15847   2.417   6.773   2.234
54559W        W15848   6.884  43.281   3.181
54560W        W15849  22.033  34.558  14.848
54561W        W15850  19.696  26.554   0.966
54562W        W15851  34.415  42.449   0.483
54563W        W15852  38.363  28.645  12.993
54564W        W15853   5.811  41.335  11.869
54565W        W15854  26.161  28.130   2.738
54566W        W15855   4.267  22.593   4.742
54567W        W15856  13.177  14.162   5.299
54568W        W15857  13.761  20.736  14.951
54569W        W15858  43.793   2.276   1.890
54570W        W15859  17.689  40.426   0.257
54571W        W15860  17.586  21.215   9.485
54572W        W15861   7.824   3.824   4.648
54573W        W15862  29.573  43.013  12.847
54574W        W15863   0.942  10.699   2.890
54575W        W15864  29.509  29.582  13.058
54576W        W15865  41.409  21.101  11.528
54577W        W15866  21.225  17.802   0.276
54578W        W15867  17.783  14.673   4.242
54579W        W15868  14.688  10.710  13.923
54580W        W15869   5.694  31.577  13.460
54581W        W15870  13.726   0.317  10.459
54582W        W15871   5.217  20.560  10.489
54583W        W15872   9.247   7.222   4.176
54584W        W15873   7.291  17.700   4.286
54585W        W15874  28.040   7.390  12.949
54586W        W15875  10.710  19.098   0.892
54587W        W15876  18.270  22.069   5.099
54588W        W15877  11.172  14.646   4.787
54589W        W15878  29.924   9.852  13.532
54590W        W15879   9.349  35.084  14.903
54591W        W15880  27.945  26.058   0.921
54592W        W15881  24.044  37.562  11.926
54593W        W15882  30.163   7.303  11.127
54594W        W15883   5.731   5.235   2.827
54595W        W15884  13.216  13.633   0.335
54596W        W15885  12.779  17.231  11.547
54597W        W15886  22.511  22.580  12.824
54598W        W15887  22.590  37.376   0.804
54599W        W15888  33.946  17.795  14.890
54600W        W15889  42.458  12.822  12.496
54601W        W15890  33.081   8.339  14.346
54602W        W15891   9.646  43.374  13.439
54603W        W15892  43.509   0.819   3.797
54604W        W15893  16.167   2.751  14.468
54605W        W15894  21.253  28.144   0.923
54606W        W15895  41.912  44.275  10.494
54607W        W15896  34.973  39.357   3.691
54608W        W15897  24.537  39.494   2.899
54609W        W15898  42.524  42.361   3.300
54610W        W15899   2.944   2.820   4.337
54611W        W15900  29.117  32.101  10.419
54612W        W15901  11.733  15.182  14.463
54613W        W15902   0.834  29.030   1.718
54614W        W15903  25.008  36.024  11.962
54615W        W15904  21.177   4.914  13.333
54616W        W15905  10.152   9.218  12.857
54617W        W15906  43.483  17.690   3.228
54618W        W15907  21.522  44.328   0.917
54619W        W15908  31.536  36.926   3.257
54620W        W15909  33.426  38.940  11.105
54621W        W15910  20.224   9.841  13.326
54622W        W15911  43.938  17.113   4.748
54623W        W15912   2.860  19.137   1.808
54624W        W15913  26.072  43.278   3.201
54625W        W15914  43.893  12.163  11.475
54626W        W15915  27.462   4.723  10.152
54627W        W15916  31.136  25.630  11.525
54628W        W15917  32.403  39.974  12.021
54629W        W15918  25.066  29.615   2.809
54630W        W15919  43.817   2.236   2.765
54631W        W15920  42.311  39.006   3.698
54632W        W15921  38.011  11.632  13.030
54633W        W15922  33.436  38.867  11.880
54634W        W15923  38.912  15.156   1.380
54635W        W15924  43.960  27.483  14.881
54636W        W15925  26.619  39.536   2.297
54637W        W15926  40.848  15.640   3.189
54638W        W15927  38.413  27.556  13.355
54639W        W15928  18.555  24.549   4.642
54640W        W15929   3.750  29.579   4.821
54641W        W15930  40.804  25.546  11.584
54642W        W15931  26.965   4.857  12.950
54643W        W15932  11.354  32.584   2.310
54644W        W15933   5.284  16.285   3.678
54645W        W15934  38.846  38.380   0.371
54646W        W15935   3.215  36.978   2.376
54647W        W15936  26.104   5.764   2.212
54648W        W15937  12.132  33.442   1.863
54649W        W15938  35.935   1.384   1.396
54650W        W15939   8.296  19.573   3.314
54651W        W15940  42.895  11.252   4.117
54652W        W15941  22.554  25.467  14.953
54653W        W15942  31.993   5.268  12.516
54654W        W15943  13.130  43.904   1.769
54655W        W15944   6.880   7.264   1.432
54656W        W15945   6.712  36.926   1.429
54657W        W15946  29.645  13.613   4.825
54658W        W15947  24.619   4.235   3.791
54659W        W15948  12.245  13.107   3.248
54660W        W15949  27.614  40.947  11.868
54661W        W15950  33.914  38.556   2.191
54662W        W15951  43.894  12.239  10.574
54663W        W15952  33.572  39.501   1.715
54664W        W15953  27.642   4.742  13.003
54665W        W15954  23.567  42.289  12.882
54666W        W15955  39.329   1.765  11.582
54667W        W15956   1.345  37.525   2.700
54668W        W15957  15.231   8.763   4.606
54669W        W15958  26.534  20.059  14.983
54670W        W15959  21.224  31.137   2.771
54671W        W15960  39.852   7.228  13.437
54672W        W15961  36.941   0.768   2.342
54673W        W15962  10.375  15.750  12.534
54674W        W15963  31.100  27.687   3.360
54675W        W15964  15.618   4.710  11.425
54676W        W15965  30.040  11.353   4.615
54677W        W15966  21.136  21.097  10.467
54678W        W15967   3.272  35.052   3.304
54679W        W15968  43.468  18.632   1.227
54680W        W15969  32.928  16.268   0.752
54681W        W15970  26.628  12.837  13.935
54682W        W15971  14.739   3.792  13.945
54683W        W15972  19.700  25.123  13.426
54684W        W15973  26.513   0.486  12.565
54685W        W15974   2.823  12.196  14.991
54686W        W15975  17.788  35.582  11.929
54687W        W15976  16.255  38.963   1.924
54688W        W15977  13.670  10.261   2.746
54689W        W15978   1.408  25.983  12.087
54690W        W15979  17.134   9.758  11.005
54691W        W15980  28.101  14.626  12.067
54692W        W15981   2.817  34.959  10.546
54693W        W15982   8.824   3.368   3.282
54694W        W15983  43.413  17.693  11.539
54695W        W15984  31.961  19.614   2.800
54696W        W15985  11.277  13.106   3.191
54697W        W15986  20.615   2.407  13.931
54698W        W15987  43.772  30.079  11.070
54699W        W15988  11.678  43.901  12.405
54700W        W15989   6.752  28.550   1.349
54701W        W15990  30.164  26.098   1.772
54702W        W15991  43.429  12.249  11.975
54703W        W15992   8.786  12.754  12.403
54704W        W15993   2.297  21.068   3.711
54705W        W15994  31.900  15.680   4.749
54706W        W15995  25.996  22.678  12.945
54707W        W15996   4.304  27.670   3.717
54708W        W15997   7.705  39.049   2.211
54709W        W15998  18.640  25.673   3.153
54710W        W15999  11.202  38.894   1.225
54711W        W16000  20.621  25.539  14.296
54712W        W16001  38.518  40.437  14.415
54713W        W16002  43.467   5.731  10.467
54714W        W16003   5.214  32.078   1.796
54715W        W16004  31.441  28.600   3.158
54716W        W16005  32.920   6.349  10.038
54717W        W16006  41.028  22.040   4.301
54718W        W16007  28.069  14.735  11.609
54719W        W16008  42.387  37.078   1.445
54720W        W16009  26.564  30.116  12.439
54721W        W16010  12.218  29.553   0.851
54722W        W16011  14.304  42.364   2.733
54723W        W16012  42.393  42.502  13.486
54724W        W16013  33.916  30.081  13.329
54725W        W16014  25.183  26.506   4.230
54726W        W16015   3.393  23.189   4.346
54727W        W16016  11.357  30.571   0.389
54728W        W16017   9.646   8.834   0.347
54729W        W16018  23.608  12.751   3.232
54730W        W16019   2.760  26.113  11.904
54731W        W16020   7.799  22.238  11.122
54732W        W16021   4.704  36.015   3.226
54733W        W16022  32.629  25.173   4.344
54734W        W16023   6.316  28.017   5.185
54735W        W16024   6.319  17.631  13.504
54736W        W16025  41.916   3.243   4.733
54737W        W16026   3.736  23.074   1.733
54738W        W16027   1.360   3.461  11.419
54739W        W16028  26.473  20.217   3.362
54740W        W16029  44.864   3.846   4.662
54741W        W16030  44.907  42.296  14.282
54742W        W16031  14.631   3.838   0.409
54743W        W16032  43.301  33.948   4.762
54744W        W16033  19.666  30.940  14.362
54745W        W16034   9.685  29.120  12.473
54746W        W16035   2.465  40.544   1.270
54747W        W16036  11.170  44.483   5.214
54748W        W16037  17.694  14.175   2.351
54749W        W16038  30.585  44.909  11.383
54750W        W16039  11.205  42.344   0.902
54751W        W16040  13.267  37.890   3.719
54752W        W16041  14.252   4.823   0.913
54753W        W16042  35.553   1.799  14.504
54754W        W16043  33.486   3.242   2.198
54755W        W16044  33.039  43.399   0.379
54756W        W16045  41.801  21.595  14.514
54757W        W16046  32.438  26.991  10.612
54758W        W16047  37.960  23.984  10.987
54759W        W16048  10.312   4.759   4.156
54760W        W16049   1.815  38.048   1.829
54761W        W16050   4.840  19.713   1.737
54762W        W16051  18.182  29.461  11.445
54763W        W16052  22.704  25.552  13.462
54764W        W16053  28.474  41.000  10.499
54765W        W16054  24.529  27.951   3.292
54766W        W16055   5.227  35.950  10.495
54767W        W16056  39.550   8.298   2.287
54768W        W16057  13.318  13.718   1.761
54769W        W16058  35.892  40.504  10.954
54770W        W16059  22.144  17.155   2.777
54771W        W16060  37.881  11.129   2.885
54772W        W16061  39.376  44.811  14.405
54773W        W16062  19.541  21.263   0.272
54774W        W16063  31.901  10.744  13.041
54775W        W16064  37.845  35.420  12.996
54776W        W16065  13.206  19.042   1.333
54777W        W16066  41.512  42.439   4.344
54778W        W16067  32.606   0.901   2.808
54779W        W16068  25.569  43.925   1.285
54780W        W16069  20.606   6.381   1.218
54781W        W16070  14.260   7.810  10.600
54782W        W16071  36.040  34.539  12.055
54783W        W16072  24.021   7.395  11.521
54784W        W16073   9.798  27.105  10.416
54785W        W16074  34.584  39.985   1.785
54786W        W16075  28.017  37.027  14.948
54787W        W16076  15.090  35.443  12.000
54788W        W16077   8.728  31.118  11.864
54789W        W16078  24.526  19.127   2.238
54790W        W16079  35.379  32.626   1.867
54791W        W16080   8.870  12.268  14.906
54792W        W16081   8.785  42.457   4.620
54793W        W16082  14.337  29.952  11.523
54794W        W16083  43.465  33.501   4.658
54795W        W16084   6.903  16.126  11.481
54796W        W16085  39.916  20.645  14.295
54797W        W16086  19.614  20.522  13.333
54798W        W16087  16.587   2.453  10.575
54799W        W16088   7.874   7.263  14.971
54800W        W16089  28.440  38.380   2.327
54801W        W16090  26.098   7.174  14.376
54802W        W16091  30.424  11.240   2.805
54803W        W16092  22.655  35.099  14.333
54804W        W16093  39.492   6.361   0.835
54805W        W16094  20.098  43.834   2.373
54806W        W16095  28.446  33.608  14.937
54807W        W16096  29.475  23.107  13.863
54808W        W16097  17.175  26.169   4.254
54809W        W16098  42.783  37.520   4.829
54810W        W16099  43.782  41.038  12.027
54811W        W16100  20.675  12.219   1.278
54812W        W16101  19.167  21.050  10.644
54813W        W16102  20.094   1.377  14.951
54814W        W16103  21.540  26.698  10.440
54815W        W16104  19.250  42.993  12.911
54816W        W16105  28.013  13.609   1.898
54817W        W16106  13.708  13.177  14.948
54818W        W16107  25.705   8.399   5.255
54819W        W16108   0.377  10.269   0.369
54820W        W16109   5.387  23.705  11.090
54821W        W16110  25.986  29.494  12.078
54822W        W16111  29.468  16.137   3.276
54823W        W16112  16.165  40.492   2.676
54824W        W16113  30.991   6.777  12.390
54825W        W16114  31.490  30.094   4.331
54826W        W16115  32.567  18.565   1.221
54827W        W16116  35.108  34.550  13.449
54828W        W16117  17.292  13.774   3.330
54829W        W16118  19.212  25.088   2.325
54830W        W16119  37.455  40.861  11.460
54831W        W16120  18.561   9.305   3.737
54832W        W16121   3.949  20.104   0.415
54833W        W16122  18.563   3.908  12.920
54834W        W16123   3.786  35.453  12.424
54835W        W16124  20.671  40.023   1.443
54836W        W16125  41.858  28.114   5.245
54837W        W16126  22.024  43.348  11.912
54838W        W16127   4.839  43.503  14.315
54839W        W16128  43.340   8.205   3.639
54840W        W16129   8.844  28.955  13.491
54841W        W16130  17.688  15.796  14.948
54842W        W16131   5.845  37.006  14.515
54843W        W16132  39.984  40.305  11.044
54844W        W16133   6.325  13.185   3.201
54845W        W16134   6.876  42.888   0.914
54846W        W16135  38.849  44.435  12.578
54847W        W16136   3.937   1.282  12.919
54848W        W16137  21.039   2.878  13.501
54849W        W16138  31.581  33.917   0.864
54850W        W16139   4.285  11.187  12.466
54851W        W16140  44.305  40.839   4.133
54852W        W16141  43.496  13.330   4.643
54853W        W16142  22.531  25.105   2.881
54854W        W16143  25.576  15.702  14.802
54855W        W16144  10.872  21.039   2.272
54856W        W16145  35.372  14.700   0.385
54857W        W16146  38.503   8.784   1.787
54858W        W16147   7.262  11.626  13.441
54859W        W16148   1.930  35.949   3.791
54860W        W16149  24.697  22.519   2.888
54861W        W16150  28.096  25.116   2.753
54862W        W16151  11.815  37.040  14.898
54863W        W16152  39.994  43.384  12.006
54864W        W16153   7.862  32.439  14.423
54865W        W16154  33.509  16.288  12.836
54866W        W16155  12.235  21.245  10.887
54867W        W16156  32.122  20.073   3.340
54868W        W16157  25.171  22.039   3.782
54869W        W16158  29.437  43.489  11.567
54870W        W16159  15.716  11.256  13.474
54871W        W16160  24.007  26.127  12.465
54872W        W16161  19.269   4.236  14.913
54873W        W16162  30.420  22.743  13.462
54874W        W16163  10.168   4.273  12.371
54875W        W16164  30.088   6.182   4.297
54876W        W16165   0.436  39.016  10.576
54877W        W16166  11.352  31.897   0.299
54878W        W16167  17.172  32.610  12.043
54879W        W16168  40.024   1.947   4.724
54880W        W16169   2.244  12.695   1.423
54881W        W16170  11.654  22.138  13.374
54882W        W16171  43.766  35.529   0.388
54883W        W16172  27.110  44.496   2.386
54884W        W16173   6.254  39.044  12.903
54885W        W16174   6.234  18.182  13.844
54886W        W16175   9.671  16.116  11.020
54887W        W16176   6.764  13.649  12.042
54888W        W16177   3.317  11.800   0.903
54889W        W16178  28.166   3.402  13.498
54890W        W16179  10.207  12.206   1.356
54891W        W16180  43.457   3.337   0.905
54892W        W16181  35.931   6.706  12.446
54893W        W16182  39.903   9.884   3.312
54894W        W16183  10.299  33.021   1.308
54895W        W16184  11.291  20.234   4.701
54896W        W16185  43.373  30.571   9.957
54897W        W16186  22.171  40.410   3.315
54898W        W16187  29.537   8.391   0.773
54899W        W16188  22.161  19.165  10.469
54900W        W16189   4.406  11.330  10.952
54901W        W16190   8.659  21.238  13.387
54902W        W16191   2.383  21.098  12.515
54903W        W16192  14.701  15.752  11.986
54904W        W16193   5.220  13.267   0.275
54905W        W16194  38.935  29.075   4.692
54906W        W16195  25.123  35.044   2.318
54907W        W16196   8.345  10.656  11.396
54908W        W16197  21.746  32.983  12.456
54909W        W16198  37.470   9.852  12.920
54910W        W16199  41.410  40.502   0.265
54911W        W16200  32.116   8.314  11.611
54912W        W16201  30.418  10.269  14.852
54913W        W16202  28.954  38.451   3.818
54914W        W16203   0.458  27.049  13.309
54915W        W16204   8.271  30.016   3.157
54916W        W16205   3.360   1.818  12.411
54917W        W16206  20.728  30.416  11.907
54918W        W16207   6.383  29.973  10.535
54919W        W16208  20.601  13.736   2.716
54920W        W16209  32.910  25.202  13.360
54921W        W16210  13.662  35.591  10.903
54922W        W16211   5.888  24.071   1.255
54923W        W16212  14.759  43.459   3.752
54924W        W16213  38.418  16.156   1.904
54925W        W16214   9.867  29.131  11.056
54926W        W16215  21.165   8.865  10.029
54927W        W16216  12.762  22.231   4.121
54928W        W16217  10.300   2.737  12.922
54929W        W16218  19.649   1.822  13.915
54930W        W16219  26.182  17.115   1.323
54931W        W16220   5.199  18.076   3.340
54932W        W16221   0.883  33.488  11.426
54933W        W16222  28.544  18.756   4.829
54934W        W16223  30.062   8.237  14.851
54935W        W16224  12.121  42.422   4.781
54936W        W16225  28.002  23.213   2.836
54937W        W16226  19.225  17.562   3.160
54938W        W16227  40.433  13.127   3.714
54939W        W16228  21.079   3.899   3.741
54940W        W16229  42.842  18.140  10.041
54941W        W16230  44.855  43.883   0.345
54942W        W16231  12.358   7.855   1.921
54943W        W16232  21.230  14.651   3.686
54944W        W16233  25.681  31.607   4.290
54945W        W16234  39.058  21.668   4.127
54946W        W16235  22.147  34.515   0.375
54947W        W16236  12.346   6.853  14.305
54948W        W16237  20.746   4.304  14.781
54949W        W16238  29.032  41.531  13.875
54950W        W16239  39.880  24.157  13.544
54951W        W16240  19.536  42.849  13.424
54952W        W16241  43.849  23.193   0.822
54953W        W16242   0.748  23.009  11.919
54954W        W16243  40.993  28.048  13.829
54955W        W16244  39.837  13.305  10.603
54956W        W16245  28.464  24.521  12.478
54957W        W16246  32.937   0.772  12.489
54958W        W16247  36.960  24.166  14.501
54959W        W16248  31.406  36.555  14.878
54960W        W16249  13.816  27.172  11.887
54961W        W16250  22.072   3.930   4.139
54962W        W16251  16.811  10.146  10.446
54963W        W16252  42.453  26.206   2.344
54964W        W16253  14.127  22.652   3.263
54965W        W16254  15.784  25.180  13.478
54966W        W16255  16.718   1.875  11.032
54967W        W16256   1.335  40.844  12.909
54968W        W16257  17.775  42.929  10.916
54969W        W16258  13.691  22.523   2.837
54970W        W16259  30.126  14.687   2.692
54971W        W16260  38.840  26.681   4.213
54972W        W16261   2.436   7.175   0.858
54973W        W16262  16.233  28.041  11.502
54974W        W16263   2.356  22.145  14.377
54975W        W16264   2.780  18.741   3.753
54976W        W16265  28.650  43.311   4.695
54977W        W16266  23.107  19.574  13.347
54978W        W16267  26.099   8.897  12.068
54979W        W16268   1.404  12.119  12.858
54980W        W16269  10.865  34.001   2.302
54981W        W16270  17.568   7.274   3.817
54982W        W16271  26.692  29.668   0.781
54983W        W16272  33.104  38.985  12.986
54984W        W16273  27.558   4.842   1.700
54985W        W16274   5.332  14.793   0.406
54986W        W16275   3.242  35.429   2.385
54987W        W16276  36.525  25.606  13.030
54988W        W16277  25.020  36.862  11.585
54989W        W16278  39.036   4.911   5.166
54990W        W16279   7.413  25.540   0.936
54991W        W16280  38.856   7.729  13.309
54992W        W16281  10.824  18.748   2.386
54993W        W16282  15.740   2.780   0.749
54994W        W16283   4.449  23.231  10.435
54995W        W16284   9.735  31.898   2.799
54996W        W16285  17.703  37.464  11.402
54997W        W16286  17.281  39.966  11.411
54998W        W16287  12.176  15.659   3.726
54999W        W16288  43.982   6.382   2.816
55000W        W16289   0.791   8.806  13.926
55001W        W16290  14.187   8.401   1.427
55002W        W16291  14.175   4.320   3.763
55003W        W16292  35.482  19.241   4.820
55004W        W16293   3.285  29.521   3.794
55005W        W16294   1.247  11.365  14.410
55006W        W16295   6.210  27.172   1.338
55007W        W16296  25.698   4.340   4.795
55008W        W16297  38.563   3.906   3.194
55009W        W16298  14.728  44.956   3.370
55010W        W16299  14.818  35.911   1.433
55011W        W16300  30.470  40.386  13.394
55012W        W16301  43.822  17.167   0.871
55013W        W16302   1.306  10.848   1.233
55014W        W16303  11.830  18.260   0.447
55015W        W16304   0.359  33.561   3.815
55016W        W16305  18.057  36.058   4.761
55017W        W16306   9.765   8.263   4.141
55018W        W16307  29.057  24.491   4.244
55019W        W16308  24.013  11.856   4.214
55020W        W16309  39.351  14.209  13.026
55021W        W16310  17.282  14.123   4.678
55022W        W16311  16.110  26.589  11.474
55023W        W16312  43.891   6.426  12.954
55024W        W16313  35.396  28.068  12.520
55025W        W16314  13.271  27.108  10.644
55026W        W16315   4.779  37.954   0.372
55027W        W16316  29.509  35.548   3.335
55028W        W16317  29.173   2.850  14.784
55029W        W16318  33.130   3.282  13.971
55030W        W16319  30.041   7.324   3.219
55031W        W16320  34.569  12.290  14.017
55032W        W16321   1.772  28.037   2.217
55033W        W16322  31.543   7.861   2.345
55034W        W16323  20.750   3.388   2.676
55035W        W16324   0.444  43.333  10.584
55036W        W16325  10.758   4.248   2.205
55037W        W16326   2.276  19.041   0.301
55038W        W16327  11.351  34.402  14.492
55039W        W16328  15.113  37.345  14.451
55040W        W16329  13.667  29.603   0.406
55041W        W16330   5.304  42.010  11.485
55042W        W16331  12.671   2.898   3.746
55043W        W16332  12.246  40.882   2.891
55044W        W16333  35.006  17.760   0.912
55045W        W16334  28.634   1.767  12.012
55046W        W16335  13.258  24.505  13.534
55047W        W16336  40.850  29.661  10.986
55048W        W16337   6.267   1.787   0.848
55049W        W16338  36.888   4.700  14.383
55050W        W16339  42.952  33.916  14.326
55051W        W16340  43.825  44.850  10.558
55052W        W16341  31.113  16.200  13.877
55053W        W16342  31.486  38.049   1.308
55054W        W16343  12.297  20.029   1.913
55055W        W16344  42.379   5.305   2.415
55056W        W16345  12.639  13.675  14.489
55057W        W16346  12.651  33.571   0.823
55058W        W16347  10.666  37.891  13.513
55059W        W16348  20.541   6.750   2.677
55060W        W16349  41.474  18.079   0.904
55061W        W16350  17.747  31.495   2.232
55062W        W16351   5.795  31.412  12.554
55063W        W16352  40.477  23.699  12.058
55064W        W16353  14.207   0.384  11.034
55065W        W16354   6.400  33.390   0.248
55066W        W16355  41.447  34.996  10.418
55067W        W16356  25.187  17.766   2.758
55068W        W16357  24.058  25.150   3.386
55069W        W16358  43.343  38.425   4.634
55070W        W16359  29.038  39.411   4.769
55071W        W16360   6.805  32.626   5.119
55072W        W16361   2.378  14.329   4.602
55073W        W16362  18.281  23.637  12.944
55074W        W16363  35.935  30.051   1.351
55075W        W16364  16.698   2.821  14.932
55076W        W16365  33.451  16.777   1.426
55077W        W16366  24.505  30.422  13.799
55078W        W16367  41.431  27.578  11.904
55079W        W16368  36.351   1.469  13.400
55080W        W16369  20.573  21.261   2.689
55081W        W16370  33.063  33.103  12.359
55082W        W16371  17.624  35.510  13.397
55083W        W16372   3.952  14.716   1.314
55084W        W16373  10.810  23.677   2.329
55085W        W16374  19.067   0.761  12.436
55086W        W16375  19.068  44.367  14.023
55087W        W16376  20.050  37.478  12.410
55088W        W16377   2.883  30.560  14.394
55089W        W16378  16.775   3.825  13.389
55090W        W16379  39.412  26.616   4.826
55091W        W16380  29.461  12.130  11.562
55092W        W16381  24.080  42.319   1.795
55093W        W16382  17.247  25.003  11.093
55094W        W16383  16.732   4.919   1.929
55095W        W16384  19.065  17.686  14.802
55096W        W16385   8.332  31.015   4.242
55097W        W16386  31.431  32.965   2.360
55098W        W16387  34.554   8.877  14.432
55099W        W16388  19.192  24.613   3.314
55100W        W16389  28.055   3.430  11.462
55101W        W16390   8.777  25.522   2.273
55102W        W16391   0.264  11.345   1.717
55103W        W16392  17.254   9.875   0.847
55104W        W16393  38.871  40.468   3.154
55105W        W16394  26.649  29.015   4.821
55106W        W16395  38.561  19.628   0.807
55107W        W16396  22.179  22.539  13.864
55108W        W16397  24.594  44.272   1.826
55109W        W16398  41.986  40.805  13.802
55110W        W16399  13.694  31.969  14.427
55111W        W16400  18.289  44.501  14.017
55112W        W16401  34.472  11.630   4.190
55113W        W16402  30.989  25.702  12.575
55114W        W16403  39.351   3.310   0.886
55115W        W16404  37.011  27.592   4.267
55116W        W16405  32.938  19.053   0.264
55117W        W16406  11.722   0.890   4.341
55118W        W16407  15.180   3.821  11.423
55119W        W16408  21.129   1.893   0.939
55120W        W16409   8.184  19.263   2.306
55121W        W16410  18.086  24.043  12.403
55122W        W16411  29.097  36.515   1.359
55123W        W16412  32.633  39.519  12.990
55124W        W16413  17.236  17.561   2.803
55125W        W16414  28.125  36.392  14.385
55126W        W16415   9.266  38.391  10.410
55127W        W16416  28.660  15.784  10.479
55128W        W16417   9.157  28.184   2.189
55129W        W16418   6.896  28.119   2.260
55130W        W16419  24.993  25.996   2.746
55131W        W16420  12.214  24.173   3.232
55132W        W16421  34.944   1.955   1.907
55133W        W16422  24.510   7.379  11.051
55134W        W16423  20.534  19.569  12.074
55135W        W16424  43.963  39.943  13.016
55136W        W16425  14.330   2.443   0.470
55137W        W16426  42.329  33.006  12.864
55138W        W16427   5.906  31.631   0.927
55139W        W16428  12.261  17.593   0.275
55140W        W16429  35.019  39.463  10.618
55141W        W16430  39.315  14.698   3.699
55142W        W16431  15.171   6.400   0.751
55143W        W16432   7.183  39.346  10.561
55144W        W16433  20.184  32.506   4.164
55145W        W16434  31.947  13.791  13.389
55146W        W16435   2.740  18.194   2.886
55147W        W16436  44.432  38.018  10.987
55148W        W16437  34.881  25.007   1.881
55149W        W16438   5.730   5.204   1.858
55150W        W16439  21.159  18.125  10.940
55151W        W16440   8.209  13.293   2.675
55152W        W16441  44.449  34.594   2.327
55153W        W16442  33.921   9.230  11.446
55154W        W16443   0.765  42.912  11.106
55155W        W16444  42.922   0.932  10.593
55156W        W16445  39.977  31.119  12.860
55157W        W16446  28.167  32.973  11.923
55158W        W16447   3.807   7.288  10.148
55159W        W16448  38.431  14.199   5.100
55160W        W16449  17.116   5.294   0.406
55161W        W16450   6.856   3.710   4.343
55162W        W16451  19.193   3.797  13.397
55163W        W16452  41.319  19.544   0.397
55164W        W16453  15.816   1.878  13.050
55165W        W16454  18.115  31.034   2.709
55166W        W16455   1.763  42.980  12.557
55167W        W16456   3.734  43.950   1.881
55168W        W16457   7.364  13.193  10.966
55169W        W16458  29.425   0.889   1.241
55170W        W16459  18.050   9.805   3.382
55171W        W16460  35.929   4.819   4.189
55172W        W16461  13.231   9.753  12.419
55173W        W16462  22.564  13.189   1.232
55174W        W16463  20.671  12.692  11.478
55175W        W16464  44.419  18.149  11.570
55176W        W16465  36.049  14.242   0.406
55177W        W16466   9.783   1.864   5.160
55178W        W16467  38.863  43.318   2.663
55179W        W16468  28.475  39.978  13.404
55180W        W16469  39.517   9.362   3.780
55181W        W16470  15.254  14.709  10.422
55182W        W16471  38.861   0.906   4.599
55183W        W16472  38.337   0.791   3.201
55184W        W16473   8.193   9.784  11.946
55185W        W16474  15.140   8.291   2.243
55186W        W16475  35.359   5.406  10.103
55187W        W16476  39.061  23.672  10.092
55188W        W16477  20.195  30.070  10.578
55189W        W16478   1.263  40.422   4.219
55190W        W16479   2.948  33.429  10.497
55191W        W16480  12.174  44.301  10.133
55192W        W16481  34.586  41.486   3.312
55193W        W16482  40.019  16.652  13.886
55194W        W16483  32.530  25.145   0.837
55195W        W16484  19.210  21.255  12.477
55196W        W16485  35.598  10.236   1.395
55197W        W16486  31.909  29.949  13.525
55198W        W16487  34.577  42.290  11.455
55199W        W16488  36.924  40.303  14.479
55200W        W16489  28.625  37.078   4.175
55201W        W16490   5.353  18.241  10.891
55202W        W16491  27.960  37.884   3.772
55203W        W16492  39.055  21.582   0.913
55204W        W16493  26.182  41.531  14.022
55205W        W16494  25.526  44.398   3.158
55206W        W16495  25.177  11.311   0.896
55207W        W16496   7.192  32.109   1.807
55208W        W16497   4.834   7.856  11.915
55209W        W16498  37.008  43.841  13.407
55210W        W16499  35.960  35.891  14.964
55211W        W16500   9.752  27.188   4.683
55212W        W16501  13.804  40.505   3.373
55213W        W16502   5.819   5.339   2.256
55214W        W16503  29.504  39.548   0.890
55215W        W16504   4.280  36.520   1.918
55216W        W16505  32.904  19.281  10.474
55217W        W16506   1.420  35.512   3.150
55218W        W16507  44.348   0.857   1.908
55219W        W16508  33.982   9.768  13.474
55220W        W16509   3.261  44.861   1.894
55221W        W16510  23.052  32.081   4.314
55222W        W16511   1.265  27.579   0.853
55223W        W16512  31.413  15.164   1.344
55224W        W16513   4.281  21.241   5.217
55225W        W16514   4.789  30.063  13.363
55226W        W16515  31.533  21.056  13.048
55227W        W16516  35.071  24.615   0.349
55228W        W16517   7.911   2.964  14.880
55229W        W16518  43.405  12.173  10.496
55230W        W16519  27.090  21.517  13.363
55231W        W16520  14.813  16.308   2.415
55232W        W16521  17.269  18.646  13.865
55233W        W16522  31.977   5.392   0.938
55234W        W16523  32.134   0.757   4.284
55235W        W16524  40.947  39.541   2.199
55236W        W16525  39.977   2.798  13.858
55237W        W16526  31.032  39.846  12.078
55238W        W16527  26.187  20.111  12.518
55239W        W16528  40.884   0.966  14.905
55240W        W16529  23.031  29.043  10.496
55241W        W16530  18.763  20.577  12.083
55242W        W16531   4.391  44.287  14.013
55243W        W16532  13.725   2.832  14.867
55244W        W16533  37.346   7.275   3.715
55245W        W16534  27.125  23.628  12.893
55246W        W16535   3.333  35.528  12.352
55247W        W16536  21.262  29.071  14.375
55248W        W16537   8.802  18.658  12.472
55249W        W16538  19.572  18.634   3.794
55250W        W16539  29.424  24.225  12.871
55251W        W16540  17.238  21.121  14.324
55252W        W16541   6.711  22.198  11.021
55253W        W16542   8.316  34.925   2.223
55254W        W16543  13.659  13.741  10.926
55255W        W16544  13.747   6.315  14.363
55256W        W16545  22.733  31.579  13.525
55257W        W16546  43.479  19.689  13.032
55258W        W16547   5.701  21.564  13.792
55259W        W16548   7.746  41.349   0.889
55260W        W16549  38.928  33.477  12.574
55261W        W16550  43.965   0.448  13.840
55262W        W16551  10.286  41.893  13.003
55263W        W16552   6.866   2.900   2.793
55264W        W16553  28.455  29.021   4.829
55265W        W16554  27.458   4.377  11.374
55266W        W16555   9.720  10.276   4.268
55267W        W16556   6.919  26.958  12.352
55268W        W16557   3.739  37.482   3.268
55269W        W16558  41.329  27.057   2.777
55270W        W16559  22.098  38.847  12.579
55271W        W16560  23.704  34.423  11.569
55272W        W16561  29.557  11.665  14.776
55273W        W16562  14.205  33.116   4.343
55274W        W16563   4.864  18.089  11.527
55275W        W16564  16.634  32.995   4.765
55276W        W16565   1.817  10.354   1.384
55277W        W16566  35.427  41.460  14.504
55278W        W16567   0.293  40.821   0.257
55279W        W16568  10.659  27.462  11.859
55280W        W16569  24.170  37.985   1.761
55281W        W16570   1.277  13.170   2.882
55282W        W16571  14.677   8.725  13.410
55283W        W16572  19.133   3.368  11.612
55284W        W16573  17.653  39.526   4.666
55285W        W16574  32.957  16.132  11.052
55286W        W16575   3.792  12.611   4.743
55287W        W16576  10.277  17.304  12.999
55288W        W16577  31.101  38.913   0.731
55289W        W16578   9.670   2.471   1.434
55290W        W16579  28.016   4.263   0.256
55291W        W16580  42.413  38.496  13.812
55292W        W16581  11.136  33.403  12.442
55293W        W16582  12.659   7.755   0.774
55294W        W16583  22.091  20.608  14.312
55295W        W16584  42.845  40.366   2.719
55296W        W16585  42.970  24.063   0.328
55297W        W16586  18.555  23.079   3.240
55298W        W16587  20.165  19.258   4.657
55299W        W16588   8.284  39.394  11.868
55300W        W16589  11.283   3.216  13.548
55301W        W16590   9.237   5.900   4.251
55302W        W16591   8.395  19.141   3.821
55303W        W16592   4.795  27.682  13.412
55304W        W16593  27.681   3.725  13.444
55305W        W16594  26.174   3.405   4.222
55306W        W16595  13.700  27.523  14.934
55307W        W16596  32.551  18.145  14.872
55308W        W16597  36.556  29.940   3.250
55309W        W16598   7.688  33.559   3.158
55310W        W16599  33.017  31.645   0.463
55311W        W16600  12.843  26.070   3.648
55312W        W16601   9.654  30.517   2.670
55313W        W16602   8.832  35.531  13.402
55314W        W16603  16.655  30.610  13.823
55315W        W16604   8.353  20.745   3.381
55316W        W16605  13.726  30.653   1.792
55317W        W16606   3.891  25.151  11.055
55318W        W16607  29.594  39.854  13.371
55319W        W16608  26.521  19.282   1.719
55320W        W16609   2.472  22.518   3.266
55321W        W16610  18.272  22.735   3.382
55322W        W16611  41.355  27.020   4.741
55323W        W16612  31.646  29.015   0.479
55324W        W16613   1.745  13.168   0.358
55325W        W16614  36.427   9.719  14.983
55326W        W16615  44.935  20.732   4.812
55327W        W16616   1.442  33.441   2.353
55328W        W16617  15.625   7.885  13.484
55329W        W16618   9.205  27.019   0.300
55330W        W16619   6.308  12.771  14.451
55331W        W16620  24.171  11.145  11.587
55332W        W16621  21.742   9.277   3.303
55333W        W16622  32.542  31.009   3.645
55334W        W16623   3.241  23.621   0.814
55335W        W16624  20.590  33.017   3.824
55336W        W16625  18.638  36.981   4.288
55337W        W16626  17.694  20.700   4.119
55338W        W16627  25.075   9.871   5.264
55339W        W16628  36.553  27.508  14.962
55340W        W16629   2.866  27.136  14.789
55341W        W16630   2.366  39.998   3.168
55342W        W16631  44.930  29.507  12.029
55343W        W16632  10.788  21.563  14.448
55344W        W16633  22.660  26.603  14.971
55345W        W16634  10.672  14.171  14.285
55346W        W16635   0.482  34.096   0.482
55347W        W16636  16.782  19.691  11.914
55348W        W16637   0.754  18.180   3.849
55349W        W16638  24.493   1.745  12.933
55350W        W16639  42.845  10.667   0.381
55351W        W16640  19.608  25.591   0.391
55352W        W16641  25.494  37.424   1.703
55353W        W16642  38.364  31.026  10.931
55354W        W16643   1.974   6.354   3.675
55355W        W16644  37.582  24.542  14.887
55356W        W16645  26.673   5.275  12.513
55357W        W16646  32.588  12.689  11.914
55358W        W16647  18.153  22.697   4.197
55359W        W16648  44.311  24.533   2.752
55360W        W16649  37.938  33.575  14.836
55361W        W16650  28.576  29.053   1.894
55362W        W16651  35.415  39.501   2.418
55363W        W16652  34.942  39.519   1.731
55364W        W16653  11.184  35.926  13.488
55365W        W16654  24.618  15.128  12.038
55366W        W16655  38.897  42.518   3.157
55367W        W16656  24.215  15.741  14.960
55368W        W16657  18.660  19.746   0.880
55369W        W16658  29.139   8.695  11.895
55370W        W16659  42.799  31.026  14.484
55371W        W16660  26.628  33.935  11.587
55372W        W16661  25.069  13.629   0.385
55373W        W16662  24.526   7.903   3.187
55374W        W16663  12.673  40.316   4.125
55375W        W16664   9.377  17.687   1.717
55376W        W16665   4.865  16.125  12.058
55377W        W16666   3.917  44.400   9.975
55378W        W16667  33.876  11.289  14.328
55379W        W16668  22.170  29.160   3.181
55380W        W16669  25.486   3.224   2.344
55381W        W16670  34.582  13.711   3.834
55382W        W16671  11.245  10.352  14.780
55383W        W16672  11.831  37.365  12.824
55384W        W16673  32.926  32.522  13.046
55385W        W16674  22.085  11.360   2.830
55386W        W16675  22.013   9.183   2.403
55387W        W16676  44.299  31.620  13.517
55388W        W16677   3.949   9.318  13.012
55389W        W16678  31.011   2.242  12.404
55390W        W16679  29.080  29.648  10.453
55391W        W16680  20.139  22.144  11.596
55392W        W16681  18.773  19.710   0.268
55393W        W16682  41.428   2.372  10.471
55394W        W16683  44.457  12.213  14.511
55395W        W16684  31.424  27.118  11.508
55396W        W16685  43.423   4.939  12.370
55397W        W16686   7.193   5.708   1.794
55398W        W16687  16.115  35.573   4.166
55399W        W16688  17.122  17.784  10.519
55400W        W16689   7.708  17.063   1.719
55401W        W16690  37.932   9.213   2.734
55402W        W16691  35.568  28.048   2.273
55403W        W16692   1.409  41.948  11.899
55404W        W16693  18.771   0.930   3.161
55405W        W16694   6.244  23.704  11.507
55406W        W16695  43.399  37.558  14.775
55407W        W16696  35.098   8.252  11.443
55408W        W16697   5.253  38.935   4.600
55409W        W16698  33.121  30.971   4.695
55410W        W16699   2.377  18.070  10.510
55411W        W16700   5.290  31.910   4.833
55412W        W16701  19.710  37.425  14.986
55413W        W16702   6.852  21.532  14.352
55414W        W16703  32.022  24.524   1.356
55415W        W16704  37.553  28.477   1.886
55416W        W16705  33.541  16.599   0.860
55417W        W16706  33.906  43.460   3.216
55418W        W16707  30.495  20.209   5.201
55419W        W16708  12.243  21.217   1.765
55420W        W16709  32.544  19.658   2.206
55421W        W16710   4.449  21.565   2.843
55422W        W16711  10.301  24.020   0.302
55423W        W16712   8.257  11.275  14.005
55424W        W16713   2.747   0.461   3.828
55425W        W16714  33.609  29.634  13.481
55426W        W16715  26.513  28.563   3.708
55427W        W16716  18.712  30.474  10.472
55428W        W16717  20.552   3.239  11.001
55429W        W16718  33.574  29.012  13.877
55430W        W16719   3.805  16.086   2.867
55431W        W16720  30.544   0.366  12.898
55432W        W16721   3.400  28.517  12.064
55433W        W16722  28.629  36.393  11.996
55434W        W16723  33.411  23.171  14.884
55435W        W16724  20.221  41.296   2.405
55436W        W16725  40.504  13.329  12.936
55437W        W16726  33.077  29.101  13.893
55438W        W16727  19.281   2.465  13.903
55439W        W16728  21.245  31.053  14.923
55440W        W16729   3.784  11.674   5.132
55441W        W16730   1.755  31.441  13.485
55442W        W16731  19.705  33.437  10.498
55443W        W16732  19.120   9.869   3.284
55444W        W16733  25.020  13.192  14.766
55445W        W16734  23.654  10.331  13.473
55446W        W16735  17.233   3.408  14.820
55447W        W16736  17.296  27.148  14.974
55448W        W16737  14.316  34.490   9.957
55449W        W16738  28.445  43.886   2.876
55450W        W16739  17.607  20.222   0.764
55451W        W16740  24.027  30.656   3.800
55452W        W16741  30.951   7.186   3.710
55453W        W16742   4.419  42.902   2.765
55454W        W16743  13.791  18.712   4.789
55455W        W16744   7.871   4.387   4.830
55456W        W16745  31.545  44.808   1.291
55457W        W16746  35.494   9.370  13.382
55458W        W16747  27.977  21.547  14.285
55459W        W16748  30.447  29.981   3.848
55460W        W16749  34.090  14.132   2.726
55461W        W16750  37.474   9.688  11.997
55462W        W16751   8.800  38.517  13.492
55463W        W16752   5.834  39.516  11.472
55464W        W16753  36.481   7.288  13.394
55465W        W16754  33.032  30.980   0.849
55466W        W16755  43.775  17.763   1.901
55467W        W16756   8.160  27.448   1.439
55468W        W16757  11.329  25.076   2.274
55469W        W16758   1.874  40.009   1.889
55470W        W16759  15.214  35.452   4.323
55471W        W16760   6.230  43.993   3.794
55472W        W16761  38.032  34.513   0.792
55473W        W16762   1.375  32.563  11.548
55474W        W16763  25.982  11.709   4.187
55475W        W16764   0.353  11.264   1.289
55476W        W16765   9.866  16.077  11.951
55477W        W16766  35.939  44.492  12.411
55478W        W16767  38.839  42.000   3.353
55479W        W16768   2.838   0.764   1.343
55480W        W16769  16.299   1.411  11.573
55481W        W16770   7.331   5.281  14.919
55482W        W16771  10.751  32.109  14.873
55483W        W16772  39.429  14.296  12.378
55484W        W16773  23.239  39.539  12.855
55485W        W16774  29.670  15.786   0.330
55486W        W16775  33.879  25.163   2.755
55487W        W16776  12.851  20.618   3.741
55488W        W16777  38.068  40.814   3.856
55489W        W16778   1.336  41.921   4.179
55490W        W16779  24.200  10.367  12.088
55491W        W16780  20.125  15.314   4.346
55492W        W16781  11.729  23.685   2.400
55493W        W16782  21.106   8.401  14.483
55494W        W16783   2.870  32.944   1.341
55495W        W16784  44.477  26.598  13.528
55496W        W16785  12.356  32.932   3.776
55497W        W16786  26.585  19.065  11.418
55498W        W16787  21.233  17.225   4.711
55499W        W16788   7.707  37.864   2.744
55500W        W16789   2.442  30.458  10.080
55501W        W16790  40.049  35.461   1.788
55502W        W16791  43.448   3.429  13.504
55503W        W16792  13.307   9.314   0.332
55504W        W16793  34.932  21.589   1.217
55505W        W16794  24.489   9.278  11.060
55506W        W16795  43.286  37.969   4.184
55507W        W16796   4.847  11.163  10.149
55508W        W16797  24.680   3.850   4.242
55509W        W16798  35.103  12.809   2.835
55510W        W16799   5.750   4.350  12.077
55511W        W16800   8.211   5.310   0.764
55512W        W16801  42.500  41.018   4.673
55513W        W16802  29.144   6.764   1.751
55514W        W16803  31.543  17.584   0.277
55515W        W16804  15.220  25.966  10.587
55516W        W16805  44.760   8.399   2.298
55517W        W16806   5.343  37.431   2.756
55518W        W16807  29.064   4.423  14.016
55519W        W16808  18.638   2.792  11.380
55520W        W16809  20.157  35.931   4.303
55521W        W16810  28.009  30.445   0.770
55522W        W16811   1.476  21.114   1.935
55523W        W16812  29.551   8.174  10.601
55524W        W16813  12.345  23.522  11.416
55525W        W16814  32.903  11.664  10.437
55526W        W16815  31.548   1.916  10.452
55527W        W16816  43.393  14.096  10.431
55528W        W16817   9.688  29.992  11.535
55529W        W16818   4.897  17.654   1.361
55530W        W16819  29.517  17.626  12.010
55531W        W16820   1.419  33.091  13.021
55532W        W16821  12.686  20.093  14.442
55533W        W16822  26.188  43.319   3.764
55534W        W16823  37.835  41.842   2.372
55535W        W16824   5.753  18.210  11.041
55536W        W16825  16.636  23.643   0.446
55537W        W16826  41.826  23.152  10.572
55538W        W16827  42.829  19.155  14.440
55539W        W16828  14.173  42.799  12.411
55540W        W16829  42.016   2.307   1.238
55541W        W16830  36.075  12.618  12.358
55542W        W16831   2.961  14.604   4.115
55543W        W16832  29.981  29.532  13.488
55544W        W16833   4.299  25.081   5.185
55545W        W16834  37.379   9.351  14.461
55546W        W16835  35.042  36.042  10.538
55547W        W16836  14.633   8.173  12.834
55548W        W16837  20.630  43.966  14.012
55549W        W16838   6.417   5.710   0.824
55550W        W16839  17.238  38.448  14.473
55551W        W16840  22.603  40.406  13.514
55552W        W16841  16.307   5.195  10.630
55553W        W16842  21.255   8.288   1.836
55554W        W16843  41.035   6.382   1.777
55555W        W16844  18.666  38.990   0.429
55556W        W16845  26.958  16.650  13.519
55557W        W16846  18.085  11.241   4.707
55558W        W16847   9.697  28.005   3.336
55559W        W16848  30.442   3.863  14.391
55560W        W16849   7.266   8.707  14.374
55561W        W16850   8.331  32.998  13.354
55562W        W16851  12.300  35.044  10.506
55563W        W16852   8.717   1.826   0.873
55564W        W16853  25.531  30.491   3.300
55565W        W16854  31.045  44.838   1.426
55566W        W16855  21.750   5.777  12.395
55567W        W16856  27.987  39.957   4.151
55568W        W16857  29.550  28.078   2.704
55569W        W16858  33.885  26.648  13.899
55570W        W16859  33.062  39.964   2.731
55571W        W16860   9.233  30.478   9.659
55572W        W16861  27.129   1.784   4.799
55573W        W16862  31.120  13.708  10.540
55574W        W16863  41.523  12.634   1.926
55575W        W16864   9.843  11.637  12.467
55576W        W16865  39.463  23.202  13.319
55577W        W16866  21.187  10.141   3.632
55578W        W16867  12.360  33.589  11.076
55579W        W16868   8.872  41.823  12.859
55580W        W16869   4.762  23.659  14.896
55581W        W16870  27.538  16.288   2.665
55582W        W16871  15.628  33.543  13.949
55583W        W16872   2.831  23.013  11.055
55584W        W16873  44.261  16.672   1.274
55585W        W16874  12.187  33.402  14.508
55586W        W16875   0.270  35.487   2.790
55587W        W16876   3.422  12.787   1.216
55588W        W16877  43.860  38.876   4.178
55589W        W16878  35.940  38.525   4.740
55590W        W16879   5.931  15.186  11.941
55591W        W16880  31.120  11.690   0.901
55592W        W16881   3.334   8.313   0.873
55593W        W16882  37.555   6.728  10.433
55594W        W16883   8.381  10.852  14.960
55595W        W16884  16.767  20.152   0.820
55596W        W16885  39.348   3.406   4.603
55597W        W16886  37.016  35.511  13.909
55598W        W16887  39.893   6.898  14.989
55599W        W16888  39.401  17.164   0.761
55600W        W16889  14.149  15.281  12.022
55601W        W16890  11.716  38.824  13.993
55602W        W16891  23.026  21.257  14.509
55603W        W16892  18.179  29.494  11.000
55604W        W16893  10.307  18.236   2.794
55605W        W16894  41.814  31.458  14.306
55606W        W16895   2.436  40.346   2.761
55607W        W16896  10.215  15.669  11.407
55608W        W16897  12.663  14.657   2.677
55609W        W16898  14.151  19.710   3.149
55610W        W16899  19.608  40.892   1.445
55611W        W16900  36.422  30.979  12.022
55612W        W16901  44.309  12.777  14.446
55613W        W16902  21.195  19.220   3.778
55614W        W16903  29.423   7.297  12.391
55615W        W16904  14.703  43.932  11.431
55616W        W16905  20.749  44.779   1.708
55617W        W16906   7.336  14.614   1.296
55618W        W16907   4.364  13.689   3.238
55619W        W16908  44.864  19.234   4.747
55620W        W16909  20.596   5.764  13.325
55621W        W16910  32.134  21.126   0.777
55622W        W16911  16.589  22.677   1.837
55623W        W16912   1.422   3.859  14.383
55624W        W16913  28.088   5.910   3.643
55625W        W16914   5.280   1.889   2.750
55626W        W16915  44.388  12.834  12.948
55627W        W16916  37.985   0.444  12.861
55628W        W16917  33.087   9.259  12.879
55629W        W16918  28.558   3.741  14.019
55630W        W16919  43.387   4.281  12.853
55631W        W16920  37.944  24.676  10.943
55632W        W16921   5.393   9.682  12.512
55633W        W16922  35.076  21.598  12.439
55634W        W16923  22.734  23.702   1.777
55635W        W16924   9.308  24.631  11.399
55636W        W16925  13.105  14.703   3.641
55637W        W16926  14.252  41.813  12.349
55638W        W16927  21.707  36.406   4.283
55639W        W16928   8.294   0.850  11.592
55640W        W16929  32.585  16.788  12.352
55641W        W16930  12.621  44.775   0.927
55642W        W16931   7.402  41.468  11.058
55643W        W16932  19.270  26.457  13.941
55644W        W16933  16.087   1.757   2.854
55645W        W16934   8.237  30.528   3.735
55646W        W16935  16.589   9.826   4.246
55647W        W16936  34.400  23.222   2.684
55648W        W16937  22.714   8.746   1.852
55649W        W16938  11.712   9.762  11.555
55650W        W16939  42.856  35.902  10.912
55651W        W16940   6.744   8.229  13.811
55652W        W16941  11.714  43.349  14.503
55653W        W16942   1.361   3.454  12.948
55654W        W16943  24.046  23.048   0.822
55655W        W16944  31.438  39.396   3.815
55656W        W16945  38.012  19.545   2.870
55657W        W16946  21.657  36.953  14.821
55658W        W16947  44.380  32.052  14.836
55659W        W16948  44.835   2.353   0.883
55660W        W16949  13.166  20.262   2.758
55661W        W16950  21.081  40.933  13.044
55662W        W16951  17.063  27.558  11.951
55663W        W16952  34.408  13.688   4.823
55664W        W16953   8.832  14.721   1.798
55665W        W16954  29.577  10.649  11.890
55666W        W16955  25.691  20.201  13.049
55667W        W16956  41.877  28.059  11.488
55668W        W16957  28.141   9.200   3.683
55669W        W16958  24.036   1.974   4.229
55670W        W16959  16.165  26.506  14.464
55671W        W16960  33.026   9.222   3.729
55672W        W16961  27.087   3.328  13.840
55673W        W16962  31.061  25.107   4.820
55674W        W16963  27.448  42.947   4.783
55675W        W16964  41.333   1.341   2.871
55676W        W16965  14.819   7.668   4.333
55677W        W16966  40.390  17.108   0.413
55678W        W16967  22.034  20.715   1.247
55679W        W16968   9.867  26.168  12.478
55680W        W16969  12.628  21.618  13.883
55681W        W16970  14.183  37.969  14.798
55682W        W16971   5.285  14.656  12.443
55683W        W16972  24.558  12.837   3.820
55684W        W16973  32.603  41.483   3.168
55685W        W16974   1.425  23.094  13.307
55686W        W16975   8.675  13.261  13.483
55687W        W16976  14.646  22.182   0.438
55688W        W16977  38.020  31.543  12.880
55689W        W16978   0.282  11.636  13.060
55690W        W16979   5.383  27.594  12.488
55691W        W16980  16.778  35.518  11.085
55692W        W16981   2.745  12.627  12.899
55693W        W16982   8.367  10.252   3.754
55694W        W16983  27.581  30.499   3.326
55695W        W16984   3.415  26.664  12.884
55696W        W16985  37.479  19.584   0.806
55697W        W16986  33.428  32.060  12.417
55698W        W16987  29.134  11.145   3.348
55699W        W16988   6.388  35.475  10.416
55700W        W16989   5.214  15.304   1.403
55701W        W16990   1.463   6.721   2.242
55702W        W16991  16.657  41.916  13.507
55703W        W16992  15.254  42.359   2.714
55704W        W16993  35.950  25.544   2.882
55705W        W16994  40.956   3.809   4.117
55706W        W16995   9.653  34.414   0.930
55707W        W16996   4.272  21.112  11.566
55708W        W16997  25.184  14.198   1.752
55709W        W16998   7.741  41.476  12.095
55710W        W16999  30.453  40.019  11.099
55711W        W17000  39.870  17.791   3.859
55712W        W17001  37.564  19.625   3.680
55713W        W17002  37.375  21.694  11.053
55714W        W17003  36.444  31.514  10.542
55715W        W17004  22.217  43.782   1.926
55716W        W17005  31.519  15.595   2.753
55717W        W17006   0.257  33.436   4.822
55718W        W17007  12.849  22.112  14.419
55719W        W17008  27.067   1.328   0.742
55720W        W17009   9.710   6.798  12.063
55721W        W17010  39.341  16.772  12.967
55722W        W17011  32.631  14.680  11.959
55723W        W17012  11.781   3.783   0.730
55724W        W17013  30.909  27.179  13.428
55725W        W17014  38.472  22.650   1.418
55726W        W17015   6.192   1.251   1.407
55727W        W17016   0.976  31.550  11.506
55728W        W17017  11.854  40.842   2.254
55729W        W17018  12.753  43.015  11.466
55730W        W17019  44.775  18.642   0.810
55731W        W17020   9.237   1.842  14.474
55732W        W17021  41.860  13.792   4.212
55733W        W17022   4.892   6.400   3.333
55734W        W17023  36.412  43.271  12.826
55735W        W17024   9.235  14.264   0.349
55736W        W17025  16.211   6.404  13.515
55737W        W17026  37.932  28.681   1.923
55738W        W17027  16.310  31.403   0.299
55739W        W17028  32.101  11.321   0.778
55740W        W17029  23.561   7.692  11.574
55741W        W17030  18.647  18.557   1.863
55742W        W17031  42.351  13.331  11.481
55743W        W17032  29.132  23.235  10.488
55744W        W17033  11.794  40.898  12.001
55745W        W17034  11.297   7.816   0.409
55746W        W17035  18.628   4.430  12.060
55747W        W17036  34.372  10.292   2.365
55748W        W17037   4.811  44.320   0.276
55749W        W17038  14.620  34.496  10.500
55750W        W17039  42.851   8.718  11.012
55751W        W17040  26.179  10.745  12.831
55752W        W17041  41.408   7.229   4.206
55753W        W17042  22.691   4.444  11.447
55754W        W17043  31.477   5.222   2.664
55755W        W17044  15.251   4.937   2.272
55756W        W17045   0.840  44.813  11.552
55757W        W17046  27.682  34.381  13.055
55758W        W17047  31.031   8.762   0.283
55759W        W17048  43.936  25.000   3.376
55760W        W17049  34.954  41.350   0.324
55761W        W17050  24.059  33.546   4.208
55762W        W17051  41.032   4.752  11.459
55763W        W17052   3.834  34.962   4.679
55764W        W17053  37.530  36.583  14.941
55765W        W17054  33.471   1.303  14.455
55766W        W17055  35.028   8.711   4.240
55767W        W17056  30.446  33.485  11.085
55768W        W17057  34.459   9.236  13.461
55769W        W17058  33.601  39.992   2.724
55770W        W17059   1.809  28.506  12.519
55771W        W17060  40.968  25.137   3.167
55772W        W17061  43.275  15.246   1.858
55773W        W17062  38.541  39.383  12.525
55774W        W17063  10.646  30.015  10.421
55775W        W17064  25.610   7.386  10.905
55776W        W17065   2.377  41.887   4.683
55777W        W17066  21.119   8.849  11.075
55778W        W17067  17.615  10.326  11.944
55779W        W17068  11.847   1.930   3.794
55780W        W17069  32.088  30.555  10.561
55781W        W17070  37.892  20.231   5.605
55782W        W17071  19.777  35.957   2.675
55783W        W17072  26.099   4.866   0.310
55784W        W17073  22.622  29.610  11.045
55785W        W17074  29.042   5.402  13.979
55786W        W17075  27.635  37.360   2.681
55787W        W17076  25.479  17.585  13.892
55788W        W17077   9.854  15.731  13.921
55789W        W17078  25.486  30.094   4.735
55790W        W17079   5.247  11.303  14.851
55791W        W17080  16.076  43.941   4.174
55792W        W17081  43.412   5.302  13.910
55793W        W17082   9.165  29.477  10.919
55794W        W17083  22.075  28.064   2.297
55795W        W17084  10.644  21.651   1.386
55796W        W17085   7.382  19.582   0.290
55797W        W17086  35.898  29.501   4.130
55798W        W17087  20.532  38.861   3.352
55799W        W17088  23.593   0.433  10.569
55800W        W17089  12.791  39.832   4.335
55801W        W17090  33.012  11.710   0.924
55802W        W17091  15.121  18.218  13.860
55803W        W17092  37.383  16.638  12.883
55804W        W17093  43.504   2.253   1.842
55805W        W17094  26.698  31.002  14.425
55806W        W17095  30.913   9.657   0.853
55807W        W17096  15.717  43.294  13.491
55808W        W17097  40.951  42.496   3.175
55809W        W17098  43.388   5.342  14.908
55810W        W17099  22.547  29.109   1.290
55811W        W17100  29.469  17.082  13.409
55812W        W17101   4.939  33.094   2.189
55813W        W17102  42.364  13.189  10.630
55814W        W17103  20.207   7.408   3.846
55815W        W17104  38.937  40.317   1.869
55816W        W17105  30.942  12.830   1.725
55817W        W17106  19.627  28.177   2.838
55818W        W17107  28.046  14.334  10.460
55819W        W17108   0.987   0.302  14.362
55820W        W17109  38.827  12.619  13.340
55821W        W17110   9.740  17.122  13.336
55822W        W17111  28.176   7.712   3.241
55823W        W17112  40.377  19.758  10.990
55824W        W17113  43.281  11.132   1.793
55825W        W17114   1.745  29.035   2.316
55826W        W17115  14.203   7.394  10.905
55827W        W17116  41.937  14.138  13.435
55828W        W17117   1.346  13.700   1.899
55829W        W17118  16.661   6.744   2.335
55830W        W17119  24.616   2.374   0.834
55831W        W17120  37.083  15.700   0.401
55832W        W17121  21.107   0.833   3.202
55833W        W17122   0.364   1.440  12.978
55834W        W17123  42.796  19.768  13.823
55835W        W17124  12.683  18.133   1.886
55836W        W17125  37.021  32.893   2.705
55837W        W17126  29.440  30.909   4.117
55838W        W17127  26.493   3.315   0.768
55839W        W17128  42.985  13.199  10.091
55840W        W17129   6.220   2.889   3.843
55841W        W17130  20.572  37.946  10.919
55842W        W17131  12.853  29.625  14.820
55843W        W17132  14.807  18.218   1.872
55844W        W17133  41.906  23.095  11.583
55845W        W17134  36.853  28.118   1.872
55846W        W17135  11.859   6.266   5.318
55847W        W17136   7.384  15.707   0.874
55848W        W17137  16.753  17.223  14.802
55849W        W17138  35.502  24.015  11.533
55850W        W17139  43.016  32.527   0.942
55851W        W17140  33.897  21.194  12.938
55852W        W17141  27.959  31.916   1.218
55853W        W17142  31.906  12.138   3.859
55854W        W17143   7.770  43.872   3.837
55855W        W17144  42.781  37.382   9.940
55856W        W17145  25.131  40.874  14.784
55857W        W17146   0.366  24.093  12.346
55858W        W17147  26.478  15.796   4.757
55859W        W17148  35.360  20.200   2.378
55860W        W17149  27.146  39.918   3.209
55861W        W17150  28.443  19.767  12.061
55862W        W17151  11.311  27.148   0.404
55863W        W17152   5.289  20.107  12.875
55864W        W17153  28.665  11.309   3.663
55865W        W17154   2.919  39.945   2.849
55866W        W17155  23.169  44.010  12.031
55867W        W17156  44.423  26.563  12.438
55868W        W17157  26.023  33.905   2.779
55869W        W17158  26.132  27.953  14.474
55870W        W17159   3.927  15.657   3.198
55871W        W17160  14.707  22.052   2.346
55872W        W17161  41.484  30.002  10.593
55873W        W17162   4.805  29.065   0.762
55874W        W17163  32.011  25.497   2.209
55875W        W17164  33.090  43.436  13.837
55876W        W17165  10.800  15.725   4.149
55877W        W17166  14.734  19.074   0.853
55878W        W17167  11.172  29.630   1.783
55879W        W17168  27.953   2.427   2.397
55880W        W17169  33.079   7.690  12.381
55881W        W17170  14.222   5.360   1.784
55882W        W17171  30.606  24.687   4.623
55883W        W17172   2.793  28.560   3.706
55884W        W17173  42.907   6.768  12.889
55885W        W17174  42.488  17.644  13.880
55886W        W17175  44.861  16.774   1.870
55887W        W17176  33.390  17.792  11.601
55888W        W17177  40.303  16.613   4.687
55889W        W17178   6.315  16.810   4.709
55890W        W17179  35.893  31.988   2.224
55891W        W17180   0.341  32.493  14.888
55892W        W17181   8.248   7.750  13.318
55893W        W17182  36.032  19.567   1.415
55894W        W17183  38.555   6.415   4.611
55895W        W17184   5.197  33.542   2.362
55896W        W17185  35.475  44.355  13.821
55897W        W17186  32.934  10.155   3.259
55898W        W17187  35.089  27.110  10.928
55899W        W17188  13.660  29.074  11.455
55900W        W17189   9.853   4.309  12.528
55901W        W17190  34.486  25.557  11.962
55902W        W17191   3.760  28.023   2.315
55903W        W17192   7.372  28.561   4.665
55904W        W17193  10.777  43.792   1.847
55905W        W17194  15.328  42.880  11.592
55906W        W17195  43.779  13.239   2.215
55907W        W17196  43.346  28.980   3.264
55908W        W17197  32.519   0.279   3.784
55909W        W17198   3.341  18.209   3.687
55910W        W17199  18.598  25.702   1.704
55911W        W17200  21.150  41.020   0.789
55912W        W17201  34.421   8.704   1.714
55913W        W17202  32.132  20.077   4.815
55914W        W17203  35.056  25.471   2.333
55915W        W17204   6.227   8.186   1.890
55916W        W17205   4.354   6.840  13.501
55917W        W17206  24.590  30.421   2.299
55918W        W17207  23.546  43.898   4.765
55919W        W17208  42.777  18.563   4.206
55920W        W17209  44.835  41.445   4.728
55921W        W17210  11.718  21.579   4.294
55922W        W17211   8.320   3.229  12.554
55923W        W17212  19.757  10.794   3.184
55924W        W17213   7.192   6.898   2.779
55925W        W17214  14.110  29.654   2.212
55926W        W17215  20.157   7.739  12.553
55927W        W17216  18.145  10.856   2.849
55928W        W17217  16.130  33.915  10.449
55929W        W17218  11.658  30.024  10.922
55930W        W17219  11.744  15.702   4.674
55931W        W17220  19.556  40.948   3.823
55932W        W17221  42.430  11.138   1.287
55933W        W17222   8.806   4.920   0.273
55934W        W17223  38.518  40.484   3.236
55935W        W17224  43.898   9.747   2.334
55936W        W17225  23.537   4.430  13.489
55937W        W17226  32.947  20.083   3.724
55938W        W17227  44.994  41.845   0.769
55939W        W17228   4.421  42.359   2.699
55940W        W17229  33.534   7.173   4.213
55941W        W17230  38.470  15.669  14.337
55942W        W17231  21.106  33.568  12.549
55943W        W17232  40.873  44.383   2.743
55944W        W17233  13.696  41.011  14.333
55945W        W17234  22.575  17.224   2.351
55946W        W17235   9.227  16.202   2.877
55947W        W17236  14.620  40.800   3.756
55948W        W17237   0.910   3.735   3.148
55949W        W17238  40.865  16.293  14.277
55950W        W17239  41.538  41.517  13.832
55951W        W17240   7.410  37.440   2.236
55952W        W17241  25.088  29.583   0.810
55953W        W17242  37.965  30.627  10.487
55954W        W17243  38.030   5.349   3.364
55955W        W17244  13.288  20.178  11.488
55956W        W17245  29.623  44.849   0.850
55957W        W17246   4.745  44.835   3.722
55958W        W17247  37.524   5.830   1.330
55959W        W17248  29.426  41.825  11.909
55960W        W17249   2.924  29.931  14.456
55961W        W17250  25.042  32.019   0.469
55962W        W17251  26.525   3.283   2.792
55963W        W17252  42.778  11.793   5.320
55964W        W17253  16.110   6.243  11.484
55965W        W17254  33.909  25.996  11.512
55966W        W17255  14.158  42.397  11.436
55967W        W17256   7.760   5.932  13.324
55968W        W17257   0.863  43.984   2.669
55969W        W17258  33.929  25.039  11.541
55970W        W17259  27.035  25.492  14.381
55971W        W17260  40.493  20.046  12.497
55972W        W17261  30.068  38.428  12.370
55973W        W17262  34.110   5.794  13.536
55974W        W17263  36.030  31.623  11.960
55975W        W17264  22.242  38.946  11.395
55976W        W17265  13.754  29.646   4.162
55977W        W17266  28.981  12.760   0.841
55978W        W17267  40.929   8.674   0.319
55979W        W17268  40.533  12.774  11.971
55980W        W17269  38.387  17.267  11.507
55981W        W17270   7.338  43.475   1.331
55982W        W17271  15.670  23.044   4.631
55983W        W17272  19.644  20.084  11.055
55984W        W17273  44.384   6.342  13.459
55985W        W17274  40.823   4.358   2.786
55986W        W17275   9.659  40.521  14.351
55987W        W17276  40.388  13.637   4.122
55988W        W17277  35.452  14.678  11.426
55989W        W17278  29.156  22.596   3.375
55990W        W17279  17.609  38.439   5.249
55991W        W17280  27.171  33.612   4.790
55992W        W17281  25.495   2.935   0.927
55993W        W17282   9.372  20.635  12.473
55994W        W17283  25.075  32.012   2.209
55995W        W17284  19.094   9.816  14.851
55996W        W17285  38.367  14.249   4.701
55997W        W17286  19.698  17.300  10.610
55998W        W17287  24.610  19.656   3.324
55999W        W17288  10.358  32.935  13.815
56000W        W17289   7.898  34.497  11.447
56001W        W17290   5.732  37.908   0.953
56002W        W17291   2.446  13.770  10.966
56003W        W17292  30.999  30.951   0.330
56004W        W17293   3.437  44.815   1.216
56005W        W17294  38.337  41.984   1.875
56006W        W17295  16.141  25.648   3.710
56007W        W17296  29.424  41.398  11.966
56008W        W17297  30.564  16.211  14.287
56009W        W17298  32.421  33.902  10.892
56010W        W17299  26.209  12.164   2.832
56011W        W17300   1.403  21.571   4.207
56012W        W17301  30.529  33.617  12.383
56013W        W17302   2.822  31.635   0.340
56014W        W17303   8.164   7.747   0.903
56015W        W17304   7.382  37.431   1.421
56016W        W17305  22.128  25.649   3.149
56017W        W17306   7.882  32.975   2.848
56018W        W17307  11.184  37.061   3.659
56019W        W17308  19.740  18.788  14.482
56020W        W17309   8.766  37.401  13.017
56021W        W17310  44.995  40.315   3.263
56022W        W17311   1.837  43.954  12.343
56023W        W17312  44.492  34.505  12.460
56024W        W17313  14.616   7.774  12.499
56025W        W17314  30.522  18.590  13.369
56026W        W17315   6.920   3.723  10.549
56027W        W17316   4.698  32.506   0.830
56028W        W17317  12.240  30.618   0.741
56029W        W17318  43.482  40.029   2.747
56030W        W17319  12.167  14.142   0.435
56031W        W17320  16.076  16.181   3.326
56032W        W17321  23.612  36.405  11.961
56033W        W17322  36.421  14.824   3.211
56034W        W17323  24.482  18.270  11.407
56035W        W17324  10.693  42.965  10.415
56036W        W17325  29.553   1.405   1.286
56037W        W17326  27.043  39.502  12.444
56038W        W17327  44.356  42.300   3.261
56039W        W17328  33.413  11.348   0.854
56040W        W17329  11.640  26.592  12.035
56041W        W17330  44.842  10.700   0.481
56042W        W17331  26.511   6.334   2.187
56043W        W17332  43.908  30.114   4.209
56044W        W17333  14.315  33.490   1.912
56045W        W17334  15.710  25.215   4.246
56046W        W17335  23.512   1.805   0.311
56047W        W17336  17.668  40.868   2.326
56048W        W17337   0.266  34.044  12.909
56049W        W17338  44.264  19.165   1.440
56050W        W17339   8.681  32.074  12.066
56051W        W17340   6.704   9.350   4.206
56052W        W17341  15.787  33.383   3.797
56053W        W17342  25.562  27.945   0.892
56054W        W17343  41.935   6.857   4.715
56055W        W17344  24.213  12.792   2.303
56056W        W17345  24.558  40.411   4.803
56057W        W17346   9.824  12.186   1.332
56058W        W17347  41.517   3.385  10.612
56059W        W17348  25.080  41.311  11.044
56060W        W17349  33.458  18.250   0.432
56061W        W17350   2.867  10.671   3.270
56062W        W17351   8.386  26.620   4.154
56063W        W17352  24.714  21.233   1.886
56064W        W17353  29.470  13.776  14.867
56065W        W17354  39.374  35.509   4.284
56066W        W17355  38.474  20.531   5.185
56067W        W17356  33.039  40.536   2.706
56068W        W17357  37.997   6.911  12.495
56069W        W17358  26.997  21.585  12.419
56070W        W17359  27.576  43.321   3.238
56071W        W17360  12.670  34.964   4.350
56072W        W17361  10.366   6.212   4.698
56073W        W17362  29.624   3.373  10.107
56074W        W17363  41.409  25.629   2.213
56075W        W17364  35.105  31.632   2.289
56076W        W17365  29.455  16.213  12.883
56077W        W17366  24.719  32.118  13.816
56078W        W17367  27.134  14.600  11.073
56079W        W17368   7.336   8.266  12.445
56080W        W17369  30.059  19.611   1.741
56081W        W17370  41.326  10.864  11.127
56082W        W17371  23.702  24.502   2.848
56083W        W17372  37.934  21.747   1.326
56084W        W17373  24.593  24.179   2.713
56085W        W17374  26.123  32.130  12.886
56086W        W17375  29.463  17.786   1.918
56087W        W17376  13.128  37.503  12.407
56088W        W17377  34.446  10.287  11.034
56089W        W17378  41.038  42.486   0.465
56090W        W17379  27.058  12.855  12.353
56091W        W17380  20.098   2.356  13.315
56092W        W17381  43.992   8.361   0.965
56093W        W17382  11.846  25.039   4.204
56094W        W17383  26.203  40.326   2.207
56095W        W17384  33.538  15.217   2.689
56096W        W17385  22.201   5.332   4.716
56097W        W17386  36.029  40.868  10.999
56098W        W17387  13.269   4.874   0.478
56099W        W17388  14.107  18.228  13.308
56100W        W17389  42.358   5.425   0.344
56101W        W17390  17.304   6.184  11.037
56102W        W17391   2.280  28.942   5.213
56103W        W17392  10.859   5.767  14.480
56104W        W17393   4.270  33.609   0.962
56105W        W17394  17.294  18.243  14.770
56106W        W17395   3.354   7.705  13.940
56107W        W17396   6.745  16.099   4.330
56108W        W17397  35.956  33.396   2.758
56109W        W17398  28.991  23.696   0.746
56110W        W17399  36.561  29.149   4.690
56111W        W17400   8.248  15.610  13.826
56112W        W17401  13.758  11.194   1.835
56113W        W17402  36.046  26.618  13.418
56114W        W17403  36.849  12.815   3.789
56115W        W17404   0.472   5.232  14.912
56116W        W17405  32.027  26.971   1.900
56117W        W17406  29.604  44.297   4.765
56118W        W17407  28.637  26.954  12.092
56119W        W17408  43.014  41.849  11.587
56120W        W17409   2.400  37.441   2.863
56121W        W17410  34.866  39.420   1.292
56122W        W17411  40.407  16.266  13.360
56123W        W17412  19.152  43.002   1.900
56124W        W17413  18.253  25.512   2.696
56125W        W17414  26.039   0.803   4.783
56126W        W17415   7.825   2.785  12.432
56127W        W17416  13.777  17.087  12.824
56128W        W17417  32.569  41.387  10.516
56129W        W17418  10.380  44.276  13.389
56130W        W17419   3.927  21.071   1.702
56131W        W17420  44.467  15.255   0.759
56132W        W17421  12.360  31.635  10.906
56133W        W17422  43.005  37.039  13.517
56134W        W17423   7.777   7.209  10.492
56135W        W17424  35.921  11.240   4.312
56136W        W17425  31.483   1.340  13.984
56137W        W17426  24.612  31.965   4.251
56138W        W17427   7.728   7.376   3.152
56139W        W17428  37.882  34.446   5.284
56140W        W17429  12.361   7.847  13.358
56141W        W17430   7.239  41.416   0.762
56142W        W17431  33.435  30.112  14.776
56143W        W17432  38.518  42.806   0.438
56144W        W17433   6.733  24.087  10.580
56145W        W17434   7.186  17.168  11.856
56146W        W17435  42.323  25.022  14.370
56147W        W17436   0.762  37.550   3.199
56148W        W17437  24.703  23.636  14.822
56149W        W17438  40.500  12.650  11.613
56150W        W17439  24.057   9.355   0.775
56151W        W17440  19.170  34.475   2.773
56152W        W17441  10.370  38.948   3.734
56153W        W17442  10.705  29.965  14.830
56154W        W17443  16.187   9.684   3.378
56155W        W17444  13.108  35.545  13.039
56156W        W17445  23.067  22.688   0.910
56157W        W17446  15.267  36.401  12.578
56158W        W17447  39.837  31.951   2.842
56159W        W17448  24.189   7.259  10.057
56160W        W17449  11.664   0.281  14.417
56161W        W17450   4.216   6.698  14.976
56162W        W17451  42.443   2.374   0.471
56163W        W17452  44.893  26.960  14.404
56164W        W17453  15.625  23.174  14.765
56165W        W17454  39.475   6.908  14.994
56166W        W17455  17.767  44.990   4.223
56167W        W17456  39.453  24.091   4.738
56168W        W17457  21.580   0.389  13.307
56169W        W17458  30.484   7.325  14.002
56170W        W17459   1.300   4.395   3.867
56171W        W17460  16.121  11.181   3.328
56172W        W17461   4.700  17.795  13.869
56173W        W17462   9.649  10.306   1.712
56174W        W17463  17.667   8.735  10.434
56175W        W17464  23.544  30.117  14.852
56176W        W17465  40.869   4.749  13.059
56177W        W17466   3.244  35.397   4.629
56178W        W17467  33.572   6.201   4.796
56179W        W17468  20.136  34.944   4.331
56180W        W17469  32.510  39.437   1.855
56181W        W17470   9.840  41.473  14.805
56182W        W17471  37.912  31.920  13.365
56183W        W17472  19.089  39.028  11.114
56184W        W17473  22.166  16.749   2.713
56185W        W17474  15.282  17.799  11.424
56186W        W17475  29.463   3.450   2.225
56187W        W17476  28.076  14.797  14.858
56188W        W17477  13.151  14.218  13.933
56189W        W17478  13.164  25.687   2.364
56190W        W17479  10.324  24.538  13.945
56191W        W17480  40.868  23.123  11.498
56192W        W17481   7.904  29.504   5.093
56193W        W17482   8.770  40.354   1.388
56194W        W17483  16.216  38.328   0.734
56195W        W17484  32.572   8.854   0.892
56196W        W17485  10.643  15.197   2.185
56197W        W17486  43.346   9.340  13.532
56198W        W17487  20.532   7.794   3.632
56199W        W17488  19.051  39.317  12.919
56200W        W17489  23.706  42.831  12.861
56201W        W17490  25.094   5.700  11.503
56202W        W17491  43.345  28.093  11.006
56203W        W17492  27.492  28.981   3.694
56204W        W17493  29.482  35.101   1.342
56205W        W17494  38.468  13.706  11.028
56206W        W17495  42.970  15.737   1.328
56207W        W17496  19.715  19.699  12.942
56208W        W17497   5.368  24.053  13.793
56209W        W17498  29.467   9.707   4.814
56210W        W17499  24.546  36.053   4.813
56211W        W17500  43.937  41.472  11.450
56212W        W17501  16.115  28.469   2.200
56213W        W17502  12.208  21.261   4.738
56214W        W17503  37.459   6.915  13.928
56215W        W17504  15.099  36.066  12.005
56216W        W17505  22.642   2.922  12.935
56217W        W17506  43.510   3.384   1.343
56218W        W17507  30.049   8.403   4.182
56219W        W17508  32.895   1.818   0.739
56220W        W17509  27.622   3.367  10.932
56221W        W17510  22.584   7.739  10.491
56222W        W17511  13.273  11.249   2.880
56223W        W17512  12.328  30.439   1.881
56224W        W17513   4.909   9.848  10.476
56225W        W17514  30.472   3.886   0.908
56226W        W17515  37.430  23.131  10.611
56227W        W17516  44.475  21.205   0.799
56228W        W17517  12.163  18.785   2.336
56229W        W17518  11.354  13.166   1.301
56230W        W17519   7.213  17.616  11.437
56231W        W17520  37.410  10.733   2.182
56232W        W17521   6.243  37.497   0.745
56233W        W17522  39.341  43.480  12.050
56234W        W17523  32.036  38.570  11.897
56235W        W17524  27.646  42.473   0.731
56236W        W17525  37.860  29.515  11.990
56237W        W17526   1.267  33.082   3.197
56238W        W17527  20.226  39.970   0.453
56239W        W17528  26.129  38.565   0.481
56240W        W17529  21.711   1.874  11.128
56241W        W17530  11.686  34.945  12.360
56242W        W17531  13.114  13.832  12.503
56243W        W17532  35.058  13.743  11.389
56244W        W17533  32.069  12.268   4.229
56245W        W17534  39.388  31.913  11.572
56246W        W17535  32.527  40.302  11.013
56247W        W17536  15.695  31.404  11.605
56248W        W17537   3.346  24.566  11.940
56249W        W17538  16.633  21.645   0.735
56250W        W17539   7.412  26.525   4.317
56251W        W17540  44.383  22.628   5.226
56252W        W17541  39.409  13.342   2.400
56253W        W17542  28.445  22.641   4.610
56254W        W17543  40.380  35.099  12.560
56255W        W17544  36.869  21.657  14.405
56256W        W17545  33.920  34.949   1.827
56257W        W17546  32.013  14.689  13.321
56258W        W17547  16.608  39.993   1.337
56259W        W17548  19.658   4.712   3.730
56260W        W17549  20.233  23.182  13.962
56261W        W17550  12.312  31.111  11.042
56262W        W17551  38.913  37.469  11.941
56263W        W17552  40.927  30.576  11.391
56264W        W17553  36.938  18.064  12.091
56265W        W17554   5.300  30.620  11.541
56266W        W17555  26.120  32.014   3.853
56267W        W17556   5.744   2.837  14.448
56268W        W17557  12.613   8.660   4.716
56269W        W17558  18.694  21.651   4.749
56270W        W17559  25.553  20.644  13.990
56271W        W17560   6.830  39.992   4.782
56272W        W17561  32.470  20.758   0.343
56273W        W17562  34.610  39.486  12.539
56274W        W17563  20.619  35.004  12.830
56275W        W17564  35.439  33.117   4.821
56276W        W17565  18.567   9.785   2.826
56277W        W17566   2.228  31.461   1.336
56278W        W17567  30.141  40.047  11.104
56279W        W17568  39.323  39.996   2.895
56280W        W17569  10.170  24.612   4.705
56281W        W17570  31.571   5.696   4.638
56282W        W17571  25.016  15.192  11.911
56283W        W17572   1.358  43.820   2.387
56284W        W17573  11.158  31.148   1.430
56285W        W17574  37.022  12.323   4.335
56286W        W17575   1.362   8.161   1.844
56287W        W17576  40.847   1.389   1.835
56288W        W17577  16.312  33.107   3.792
56289W        W17578  24.144   9.688   4.812
56290W        W17579  13.776  28.048  11.027
56291W        W17580  21.264  15.708  11.861
56292W        W17581  16.650  31.980  14.947
56293W        W17582   4.879   4.869  10.626
56294W        W17583  15.173  38.568  10.568
56295W        W17584   8.845  33.441  12.361
56296W        W17585  28.059   8.253  11.452
56297W        W17586  23.563   0.490   0.831
56298W        W17587  27.071  21.263  11.407
56299W        W17588  34.022  33.935  14.908
56300W        W17589  27.685  30.427  10.930
56301W        W17590  33.022   4.401  13.843
56302W        W17591  18.167   2.795   2.791
56303W        W17592  18.126   4.855  14.372
56304W        W17593  40.507   2.797  12.857
56305W        W17594  21.148  23.691   3.196
56306W        W17595  15.627  20.671   4.132
56307W        W17596  11.296  39.429   1.934
56308W        W17597   1.975   4.840   1.834
56309W        W17598   5.781  43.431  13.508
56310W        W17599  30.942  38.532   2.280
56311W        W17600  14.324  21.692   0.942
56312W        W17601  22.579   6.893  11.557
56313W        W17602  39.325  21.642   3.343
56314W        W17603  14.606  38.995   2.258
56315W        W17604   4.902  26.571   0.419
56316W        W17605  32.985  23.225   1.394
56317W        W17606   2.843  38.988  13.825
56318W        W17607  21.058   6.882  11.599
56319W        W17608  37.380   7.705   0.396
56320W        W17609  42.463  15.679  13.372
56321W        W17610  44.294  31.030   4.685
56322W        W17611  31.122  43.283  11.109
56323W        W17612  29.665  15.247  11.500
56324W        W17613  17.232  44.852  14.503
56325W        W17614   9.883  38.567   2.834
56326W        W17615  44.925  26.031  12.907
56327W        W17616  28.491  33.874  11.444
56328W        W17617  16.683   1.345  11.529
56329W        W17618  32.099  36.044   1.362
56330W        W17619  40.379   1.867   1.856
56331W        W17620  10.139   6.357  13.992
56332W        W17621  36.978   7.911   0.965
56333W        W17622  16.718   3.911   2.742
56334W        W17623   9.199  33.108   3.356
56335W        W17624  34.939   0.416  13.345
56336W        W17625  18.172  30.493   3.814
56337W        W17626  30.451  33.030   3.829
56338W        W17627  36.468  30.520  12.461
56339W        W17628  20.101  33.472   5.129
56340W        W17629  21.580   7.298  13.987
56341W        W17630  11.368  24.978   5.235
56342W        W17631  18.730  35.925   3.267
56343W        W17632   9.785   5.807   3.376
56344W        W17633  38.513  10.341  13.937
56345W        W17634  24.047   8.843   4.695
56346W        W17635  33.945  18.098  13.958
56347W        W17636   0.451  10.843  10.892
56348W        W17637  21.604  27.587   2.711
56349W        W17638   9.217  20.675  14.776
56350W        W17639  29.982   0.961   2.225
56351W        W17640  21.676  26.092   1.849
56352W        W17641   9.386  17.061  13.440
56353W        W17642  17.596  31.507  12.934
56354W        W17643   6.891  33.501  14.780
56355W        W17644  44.460  24.066   2.745
56356W        W17645  25.612  14.270  11.971
56357W        W17646  10.287  42.894   1.273
56358W        W17647  42.832   3.382  13.424
56359W        W17648  17.692  10.723  13.507
56360W        W17649  31.044   3.221   0.951
56361W        W17650  10.329  43.930  12.393
56362W        W17651  28.506  39.446  11.016
56363W        W17652   8.658   9.737   3.645
56364W        W17653  21.101   2.790  12.933
56365W        W17654  34.394  24.024   3.734
56366W        W17655  15.085  35.384   5.173
56367W        W17656  39.969  13.790  14.428
56368W        W17657  34.476  34.873   3.329
56369W        W17658  20.093  28.491  12.470
56370W        W17659   7.754  21.752  10.537
56371W        W17660  39.860   6.677  12.462
56372W        W17661  24.191   1.919   2.693
56373W        W17662  20.087  23.537   4.278
56374W        W17663  31.909  32.108  11.989
56375W        W17664  31.975   7.298  10.454
56376W        W17665  38.537  42.424   1.825
56377W        W17666  20.673   4.303  12.454
56378W        W17667  16.650   9.383   4.795
56379W        W17668  34.007  33.405   4.269
56380W        W17669  42.872   7.219   0.447
56381W        W17670  41.442  39.395  12.042
56382W        W17671  13.114  36.911   2.419
56383W        W17672  22.239  12.714  14.951
56384W        W17673  42.516   0.861   0.482
56385W        W17674   0.434  17.783  10.907
56386W        W17675   0.899   6.329  11.460
56387W        W17676  34.061  35.068   0.376
56388W        W17677  26.527   2.256  10.434
56389W        W17678  17.718  26.055   1.307
56390W        W17679   4.328  21.060  13.798
56391W        W17680  15.745  16.758  11.438
56392W        W17681   5.242  14.304  11.541
56393W        W17682  29.162   1.879   0.359
56394W        W17683  27.011   7.209  10.089
56395W        W17684  13.641   5.695   3.811
56396W        W17685  11.790  32.587   3.305
56397W        W17686   6.320  30.478  11.973
56398W        W17687  27.079  16.740   3.770
56399W        W17688  26.977  23.219  14.025
56400W        W17689  18.640  33.030  13.408
56401W        W17690  21.141  25.199  13.537
56402W        W17691  16.254  18.567   3.729
56403W        W17692  26.632  34.865   1.832
56404W        W17693  40.302   2.284   0.346
56405W        W17694  42.811  12.616   1.416
56406W        W17695  33.893  31.581  14.028
56407W        W17696  27.642   5.766   4.780
56408W        W17697   0.320   8.838  13.475
56409W        W17698  31.124   8.272  14.898
56410W        W17699  33.570  31.592  10.473
56411W        W17700  36.527  28.447   4.720
56412W        W17701  40.424  28.108  11.043
56413W        W17702  40.027  27.164   2.313
56414W        W17703  13.743  18.243  14.024
56415W        W17704  33.429  24.047   2.180
56416W        W17705   4.254  11.327  11.985
56417W        W17706  29.576  14.798  12.933
56418W        W17707  20.603  16.176   1.757
56419W        W17708   4.300  44.915   2.182
56420W        W17709  33.883   5.201  11.389
56421W        W17710  16.627  20.214   3.215
56422W        W17711  16.207  36.365   0.760
56423W        W17712  31.994  16.711   0.804
56424W        W17713   2.467  32.633   3.182
56425W        W17714  24.187   8.184  13.905
56426W        W17715  43.006  22.226  12.876
56427W        W17716  16.588   5.295  12.342
56428W        W17717  23.004  21.117   1.396
56429W        W17718  10.181  27.146  11.508
56430W        W17719  42.853  34.956  12.945
56431W        W17720  40.345  42.786   2.726
56432W        W17721   8.347  19.541  11.532
56433W        W17722  25.057   2.427  11.122
56434W        W17723   4.938  35.085   4.324
56435W        W17724  29.087   3.327   4.778
56436W        W17725  12.122  37.853   9.945
56437W        W17726   3.336  16.783  14.836
56438W        W17727  21.545  23.710   4.648
56439W        W17728   7.775   7.716  14.817
56440W        W17729  21.233   7.897   0.453
56441W        W17730  19.641  43.324  12.827
56442W        W17731  22.565   3.824  14.484
56443W        W17732  23.670  35.451  10.614
56444W        W17733   9.817  30.560  10.007
56445W        W17734  14.210  44.458  12.859
56446W        W17735  40.471  28.637   0.479
56447W        W17736  36.560   4.818   3.340
56448W        W17737   4.314  35.918  13.902
56449W        W17738  24.006  17.607   3.816
56450W        W17739  22.182  41.967   0.792
56451W        W17740  26.649   5.843  11.984
56452W        W17741  20.528   8.340  13.891
56453W        W17742  13.269  24.226  13.811
56454W        W17743   2.378  12.776  14.881
56455W        W17744  29.980  18.555   4.800
56456W        W17745  39.021   6.299  13.382
56457W        W17746  26.048  20.525   1.765
56458W        W17747  24.116  41.464   2.805
56459W        W17748  43.289  40.042   0.263
56460W        W17749   4.886  39.884   3.261
56461W        W17750  29.968  20.661  13.308
56462W        W17751   5.751  14.257   1.820
56463W        W17752   2.405  16.735   2.391
56464W        W17753   2.749  36.991   3.195
56465W        W17754   6.234  23.217   2.347
56466W        W17755  38.993  34.576   4.733
56467W        W17756  19.094  10.817  11.612
56468W        W17757  12.706  20.244  11.476
56469W        W17758  19.566  18.207  10.602
56470W        W17759   2.455  36.494   1.922
56471W        W17760   3.341  26.519  14.768
56472W        W17761  23.003  39.846   1.311
56473W        W17762  18.238  17.616  13.942
56474W        W17763  14.167   3.363  10.468
56475W        W17764  22.548  19.604   2.263
56476W        W17765  23.211   6.333   1.423
56477W        W17766  23.609  27.110   1.343
56478W        W17767  23.538  23.001  14.831
56479W        W17768  15.734  23.701   2.758
56480W        W17769  39.457  15.325  14.498
56481W        W17770   1.418   0.937   2.373
56482W        W17771  20.111   9.358  12.402
56483W        W17772  42.475  31.956  13.798
56484W        W17773  14.743  10.774  14.482
56485W        W17774  19.095  42.406   3.698
56486W        W17775  28.931   9.857   2.199
56487W        W17776  44.983  24.586   0.433
56488W        W17777  20.698  16.197  14.448
56489W        W17778  40.908   0.335   2.692
56490W        W17779  21.592  29.985  11.123
56491W        W17780   8.382  44.445  11.599
56492W        W17781   7.179   6.890   3.741
56493W        W17782   6.403  31.617  14.866
56494W        W17783  30.565  10.840   2.889
56495W        W17784  26.679  24.149  14.832
56496W        W17785  44.322  20.706   2.836
56497W        W17786  18.235  41.881   1.356
56498W        W17787  28.492  32.077   4.772
56499W        W17788  42.799  37.386  11.925
56500W        W17789  24.630  40.381  14.978
56501W        W17790   2.388   9.740  12.824
56502W        W17791  32.551  14.663   2.866
56503W        W17792  35.071   0.913  12.552
56504W        W17793  27.542  26.690   2.190
56505W        W17794   5.436   8.735   2.814
56506W        W17795  18.621  42.466   1.362
56507W        W17796  31.481  36.988   0.258
56508W        W17797  36.545  13.684  14.912
56509W        W17798  16.793  17.229   3.780
56510W        W17799  11.809  37.832  10.914
56511W        W17800   8.778  11.789   1.291
56512W        W17801  22.624  16.113  11.487
56513W        W17802  27.174  42.849   4.169
56514W        W17803  34.537  29.622  11.960
56515W        W17804  22.600   2.821  14.771
56516W        W17805  22.136  20.181   4.667
56517W        W17806  31.507  11.775   0.436
56518W        W17807  25.493  14.591  13.798
56519W        W17808  15.105  16.162   3.386
56520W        W17809  15.731  19.662   3.830
56521W        W17810  29.430  34.889  10.460
56522W        W17811   3.855  24.057  10.444
56523W        W17812  25.125  44.842  10.459
56524W        W17813  10.821  13.630   1.345
56525W        W17814  43.865  22.187  10.519
56526W        W17815   2.283   0.869   3.296
56527W        W17816  22.590  36.561  12.825
56528W        W17817  41.469  19.233   1.796
56529W        W17818   3.452  10.301   2.398
56530W        W17819  18.581   9.823  14.353
56531W        W17820   7.898  12.342   4.826
56532W        W17821  36.936  38.039   3.700
56533W        W17822  31.620   4.236  12.497
56534W        W17823  21.017  36.977   4.199
56535W        W17824  42.333  43.274  10.422
56536W        W17825  11.306  37.869  12.379
56537W        W17826  33.610  13.203   1.331
56538W        W17827  39.409   1.861  11.056
56539W        W17828   0.873  16.575  11.399
56540W        W17829   3.947  40.909  14.792
56541W        W17830   9.783  16.310   2.670
56542W        W17831  12.735  19.596   0.390
56543W        W17832  14.136  15.326   3.842
56544W        W17833  37.967  41.462  14.328
56545W        W17834  26.136  18.206   4.836
56546W        W17835  13.327  22.018   2.393
56547W        W17836  16.258  34.466  11.440
56548W        W17837   1.274   7.901   0.257
56549W        W17838  18.598  14.156  13.543
56550W        W17839  13.636  24.710  12.077
56551W        W17840  19.214  14.163  13.504
56552W        W17841  29.991  33.550  14.346
56553W        W17842  11.637   6.279  13.316
56554W        W17843   7.773  34.410   3.842
56555W        W17844  39.967   8.192   3.250
56556W        W17845  28.631  30.596  14.954
56557W        W17846  42.877  44.837   0.743
56558W        W17847  39.876  24.537  13.031
56559W        W17848  11.853  22.570  12.847
56560W        W17849  41.351   8.847  10.073
56561W        W17850  44.864  15.242  11.502
56562W        W17851   0.855  20.140  14.512
56563W        W17852  17.756  19.246  12.883
56564W        W17853  41.326  22.537   3.151
56565W        W17854  24.124  39.388  13.896
56566W        W17855  22.239  41.463   4.205
56567W        W17856  33.096   6.385   0.785
56568W        W17857  20.162   5.218  11.480
56569W        W17858  25.002  31.423   2.238
56570W        W17859  27.649  18.741  11.968
56571W        W17860  22.543  31.403   3.733
56572W        W17861  13.813  10.804   1.232
56573W        W17862  42.016  29.522  12.962
56574W        W17863  42.970  27.166  11.373
56575W        W17864  35.495  14.200  13.941
56576W        W17865  16.083  22.691   4.747
56577W        W17866  28.160  34.481   3.149
56578W        W17867   8.275  36.891  12.578
56579W        W17868  11.700   2.433  13.455
56580W        W17869  12.282  44.400  11.056
56581W        W17870  26.646  35.989  14.894
56582W        W17871  34.996   9.162   4.822
56583W        W17872   3.402  15.585  13.374
56584W        W17873  35.546  27.652   2.681
56585W        W17874  30.422  37.459  11.497
56586W        W17875  36.583   6.396   4.774
56587W        W17876  35.387   7.231  12.089
56588W        W17877  18.618   5.239   3.287
56589W        W17878  43.405  31.631  10.440
56590W        W17879  42.950   6.878  10.564
56591W        W17880  43.964  33.050  13.399
56592W        W17881  38.546   4.743  12.473
56593W        W17882  31.962  16.283   0.300
56594W        W17883  34.475  26.516  10.992
56595W        W17884  40.344  29.646  13.964
56596W        W17885   5.870   5.241   4.179
56597W        W17886  30.518   2.266   1.734
56598W        W17887  27.021  25.091  13.531
56599W        W17888   5.343  36.364   1.295
56600W        W17889   1.773  44.916   1.275
56601W        W17890   0.818  13.603  13.928
56602W        W17891  34.468  23.707   4.326
56603W        W17892  21.756  12.181   0.850
56604W        W17893  44.893  32.468   4.211
56605W        W17894  17.241  41.994   0.249
56606W        W17895  37.441  15.090  13.957
56607W        W17896  39.996  35.865   0.411
56608W        W17897  16.105   7.308  12.507
56609W        W17898  17.668  18.760   4.180
56610W        W17899  37.002  16.190  10.984
56611W        W17900  24.701  10.206   3.168
56612W        W17901  12.301  17.599  12.451
56613W        W17902   5.305   9.839   2.674
56614W        W17903   7.785  42.283   4.213
56615W        W17904   3.857  23.024   2.764
56616W        W17905  34.103   1.404  11.028
56617W        W17906  39.832  22.603   1.282
56618W        W17907  25.993  44.763  14.325
56619W        W17908  39.418   0.383   1.710
56620W        W17909   9.689   1.768  11.123
56621W        W17910  32.116  35.068  10.925
56622W        W17911  28.656  17.093   3.298
56623W        W17912  18.692  43.309   0.260
56624W        W17913  43.957  27.503   0.797
56625W        W17914  43.915  15.590   4.245
56626W        W17915  34.451  44.262   0.810
56627W        W17916  23.216  23.147   2.393
56628W        W17917   6.363  19.093  13.347
56629W        W17918  28.953  21.613   3.373
56630W        W17919   1.261  17.656  11.985
56631W        W17920   0.940  37.004  11.862
56632W        W17921  44.918  29.585   3.371
56633W        W17922   4.280  33.429   0.413
56634W        W17923  29.509  39.527  12.957
56635W        W17924  26.149   3.809   1.244
56636W        W17925  40.998   0.772  10.950
56637W        W17926  18.790  44.371   4.665
56638W        W17927  17.764   7.794   2.204
56639W        W17928  27.615  34.888  14.026
56640W        W17929  43.311  37.900  14.292
56641W        W17930  17.573  27.075  10.512
56642W        W17931  16.670  41.807  14.932
56643W        W17932  39.516  20.130   1.769
56644W        W17933  33.090  38.857   1.377
56645W        W17934  13.154   8.399  14.940
56646W        W17935  27.013  36.944  10.487
56647W        W17936  22.016  41.335   4.765
56648W        W17937   0.942  10.650   4.775
56649W        W17938  16.622  16.205   1.696
56650W        W17939   8.765  19.069   2.680
56651W        W17940   4.411  36.435   2.261
56652W        W17941  17.668  36.915  12.972
56653W        W17942  17.161  10.795  10.639
56654W        W17943   9.678  15.695   4.323
56655W        W17944  39.417  43.432  10.428
56656W        W17945   4.446   3.380  13.403
56657W        W17946  20.584  41.426  13.425
56658W        W17947  29.544  15.132   1.391
56659W        W17948   5.394   0.258  11.937
56660W        W17949   4.724  16.087   3.255
56661W        W17950  27.629  31.463  12.450
56662W        W17951  29.064   1.470  12.424
56663W        W17952  30.622   0.881  14.379
56664W        W17953  24.987   6.187   0.851
56665W        W17954   5.760   5.227   3.652
56666W        W17955  13.343   0.936  12.357
56667W        W17956  20.074  31.637  13.448
56668W        W17957   8.320   3.372  14.480
56669W        W17958  25.692   4.256  14.875
56670W        W17959  14.621  17.213   3.153
56671W        W17960   2.398  40.442  13.879
56672W        W17961  28.984  35.964   0.454
56673W        W17962  11.632  37.910  14.410
56674W        W17963  32.074   3.241  14.856
56675W        W17964  41.413   5.757   4.222
56676W        W17965   8.366   6.800  12.391
56677W        W17966  29.615  29.002  14.022
56678W        W17967  32.429  21.212  14.893
56679W        W17968  35.391  42.373   3.754
56680W        W17969  43.930  27.462  11.938
56681W        W17970  26.626  24.219  11.551
56682W        W17971  17.647  42.821  12.893
56683W        W17972  27.469  42.303  13.864
56684W        W17973  42.833  33.406   1.240
56685W        W17974  38.940  35.579  14.322
56686W        W17975  35.088  40.901  12.428
56687W        W17976  35.062  42.332   0.439
56688W        W17977  44.830  11.179  14.302
56689W        W17978  22.680   9.278   1.448
56690W        W17979  24.507  17.294   0.951
56691W        W17980  33.502  42.959   3.179
56692W        W17981   8.276  32.141   3.702
56693W        W17982  37.506  36.579  13.054
56694W        W17983   3.364  22.674   3.864
56695W        W17984  31.527  21.695  12.436
56696W        W17985  41.437  21.720   0.467
56697W        W17986  41.803  32.635  14.801
56698W        W17987  13.796  23.736   3.648
56699W        W17988  20.036  13.833  10.442
56700W        W17989  33.001  40.880  12.955
56701W        W17990  12.768   0.843   0.260
56702W        W17991  22.062   7.717  14.899
56703W        W17992  38.484  11.850   1.306
56704W        W17993  37.345   5.870  11.978
56705W        W17994  13.196  36.469  13.977
56706W        W17995  17.693  27.157   3.291
56707W        W17996  19.561  12.781   3.799
56708W        W17997  41.805  23.008   4.604
56709W        W17998  41.004   9.656  12.472
56710W        W17999  26.058  21.655   1.328
56711W        W18000  30.946  34.426   1.358
56712W        W18001  28.597  20.572   2.812
56713W        W18002  43.016  18.676   0.325
56714W        W18003   7.374  25.576  12.051
56715W        W18004  26.521  15.821   0.255
56716W        W18005  19.072  38.902   2.357
56717W        W18006  41.371  19.577   2.768
56718W        W18007  43.314  40.862   4.309
56719W        W18008  22.074  41.520  11.590
56720W        W18009  35.910  41.820   4.808
56721W        W18010   4.267  32.540  12.389
56722W        W18011   7.798   9.223   3.737
56723W        W18012   4.940   8.173  13.888
56724W        W18013   0.277  44.436   1.310
56725W        W18014  41.006  30.129   0.795
56726W        W18015   3.214   7.894  11.898
56727W        W18016  41.014  28.516   0.461
56728W        W18017  24.979  39.559  12.340
56729W        W18018   4.231  44.978   1.890
56730W        W18019  38.955   9.304  12.005
56731W        W18020  28.054  43.994   3.704
56732W        W18021   0.856   8.324  13.491
56733W        W18022  30.019  28.563   4.713
56734W        W18023   3.838  27.173   3.300
56735W        W18024  40.864  35.861  14.480
56736W        W18025  10.681  10.660  13.887
56737W        W18026  42.288  30.945   0.424
56738W        W18027  42.320  20.028  12.451
56739W        W18028  29.569  33.919   4.240
56740W        W18029  10.840  31.002  11.978
56741W        W18030  27.011  19.674   1.392
56742W        W18031   6.734  43.864  11.001
56743W        W18032  14.611  23.502  11.105
56744W        W18033  29.134  10.827   2.402
56745W        W18034  18.589  14.276  14.277
56746W        W18035  40.469   8.864   2.682
56747W        W18036  20.054  20.613   3.818
56748W        W18037  15.170  27.654  14.865
56749W        W18038  28.145  44.273  10.061
56750W        W18039  26.526  21.251  10.635
56751W        W18040  30.944  20.073   3.859
56752W        W18041  33.526   8.747   4.666
56753W        W18042  26.957  18.640   0.359
56754W        W18043  31.452  15.309   0.333
56755W        W18044   5.310  12.265   3.370
56756W        W18045   5.705  14.594   4.190
56757W        W18046  10.653  31.076  10.519
56758W        W18047  31.084  40.305   2.844
56759W        W18048  15.271  30.035   3.665
56760W        W18049   6.420  15.290  14.763
56761W        W18050  30.159  35.094   3.772
56762W        W18051  33.987  16.312   3.736
56763W        W18052  37.503  19.771  13.372
56764W        W18053   4.820   4.257   2.686
56765W        W18054  11.166  18.126   4.827
56766W        W18055  23.634  19.119   1.829
56767W        W18056  14.306  33.995   1.395
56768W        W18057  19.186  27.010   0.781
56769W        W18058  24.140  15.751   3.192
56770W        W18059  15.700   6.790  12.952
56771W        W18060   6.335  31.629   0.303
56772W        W18061  29.520  31.482  11.470
56773W        W18062  35.924  17.626   2.807
56774W        W18063  40.799   7.848   0.314
56775W        W18064  39.874  37.577  11.408
56776W        W18065   2.467   3.869   3.720
56777W        W18066  16.095   4.780  12.450
56778W        W18067  15.751  24.564   3.342
56779W        W18068  22.062  42.786   3.250
56780W        W18069   7.732  11.266  13.482
56781W        W18070  24.646  21.163   3.762
56782W        W18071  18.691   7.374  10.511
56783W        W18072  25.061  43.361   0.351
56784W        W18073   3.867   0.804  12.971
56785W        W18074  22.096  18.162  12.884
56786W        W18075   2.240  21.041   4.603
56787W        W18076  28.050  19.587   4.669
56788W        W18077  17.201  24.193  12.361
56789W        W18078   9.375  19.166  12.993
56790W        W18079  41.039  30.986  11.424
56791W        W18080  34.428  44.297  12.547
56792W        W18081  15.618  24.667   1.391
56793W        W18082  10.718  32.122   0.762
56794W        W18083  21.103  44.976  13.909
56795W        W18084  21.531  41.365   1.905
56796W        W18085  10.178  18.062  10.094
56797W        W18086  33.608  27.063   3.676
56798W        W18087  28.498  17.157  12.521
56799W        W18088  40.354  43.297  12.428
56800W        W18089  43.845  19.179  10.603
56801W        W18090  10.146  32.553  13.998
56802W        W18091  25.685  38.472  13.510
56803W        W18092  25.654  11.693   2.363
56804W        W18093   0.907  26.108   1.249
56805W        W18094  24.210   6.297   4.206
56806W        W18095  23.073   9.684   1.406
56807W        W18096  40.500   5.896   4.775
56808W        W18097  37.857   1.758   4.820
56809W        W18098  28.643  26.192   4.693
56810W        W18099   6.876   6.853  13.408
56811W        W18100  42.479  21.596  11.422
56812W        W18101   0.262  36.429   4.126
56813W        W18102  40.011  44.490   3.672
56814W        W18103  27.642  36.042  11.129
56815W        W18104   7.189  23.155   3.724
56816W        W18105  33.012  33.459   3.234
56817W        W18106   6.199  22.177   4.614
56818W        W18107   0.384  12.288   2.717
56819W        W18108   5.835  21.583  11.383
56820W        W18109  23.170   3.248  13.388
56821W        W18110  33.952  24.584   4.139
56822W        W18111   7.360  27.505   0.726
56823W        W18112   9.765  34.064   5.307
56824W        W18113  12.326  25.977   4.145
56825W        W18114  44.773  13.691   1.365
56826W        W18115  30.916  20.180   0.769
56827W        W18116  33.419  30.125  13.817
56828W        W18117  23.173  35.526   2.814
56829W        W18118   8.306  44.483   2.882
56830W        W18119  36.869  37.426  10.100
56831W        W18120  15.603  11.132   0.446
56832W        W18121  39.045   2.336  10.963
56833W        W18122  14.632  20.072   1.714
56834W        W18123   7.338   3.388  13.471
56835W        W18124  14.292  13.264   5.246
56836W        W18125  33.394  11.633   1.700
56837W        W18126  34.950  44.311   4.662
56838W        W18127  27.998  21.612  11.482
56839W        W18128  30.627  42.796  14.959
56840W        W18129  38.879  16.779   0.245
56841W        W18130  41.438  40.893  12.852
56842W        W18131  19.257   7.356  13.833
56843W        W18132  44.817  16.302  13.889
56844W        W18133  35.526  41.421  13.497
56845W        W18134  22.157  14.712   4.620
56846W        W18135  15.128  21.667   4.214
56847W        W18136  12.756  19.760  12.474
56848W        W18137  22.555  28.609   3.733
56849W        W18138  36.363  12.733   0.297
56850W        W18139  28.650  25.114   2.291
56851W        W18140  10.839   3.901   2.731
56852W        W18141  44.276   3.453   0.450
56853W        W18142  44.903  38.517   4.670
56854W        W18143  28.974  28.628   3.811
56855W        W18144  40.045  35.396  13.862
56856W        W18145  22.618  30.512  14.906
56857W        W18146  26.132  14.727   0.873
56858W        W18147  27.654  43.787   3.148
56859W        W18148   0.794  25.062  13.363
56860W        W18149  28.074  41.825   2.862
56861W        W18150  18.790   9.371   4.766
56862W        W18151  18.597  38.052   3.700
56863W        W18152  11.299  12.207  10.581
56864W        W18153  43.854   6.731   1.249
56865W        W18154  35.067  24.150  13.511
56866W        W18155  37.992  41.343  10.980
56867W        W18156   3.277  42.802  11.927
56868W        W18157   8.784  13.676  12.926
56869W        W18158  21.187  32.066   2.294
56870W        W18159  26.004  42.790  14.016
56871W        W18160  14.614  27.993   2.308
56872W        W18161  42.427   9.879  13.901
56873W        W18162  32.900  31.505  10.938
56874W        W18163  11.754  15.267  13.058
56875W        W18164  22.051  36.973   4.348
56876W        W18165  12.314  29.967  12.030
56877W        W18166  23.581  33.506  14.801
56878W        W18167   2.798  33.595   3.185
56879W        W18168  44.503  24.508  13.468
56880W        W18169  33.512  35.602  13.349
56881W        W18170  37.456   0.779  11.982
56882W        W18171   1.866  42.909   2.304
56883W        W18172  42.487  22.744  10.491
56884W        W18173  10.777  20.040  11.467
56885W        W18174  18.083  19.059  12.499
56886W        W18175  44.398  31.041   2.861
56887W        W18176  21.175  15.652   5.154
56888W        W18177  16.174  27.111  14.445
56889W        W18178  18.170   1.469  11.021
56890W        W18179   1.300  32.527   1.789
56891W        W18180  42.956  13.790   1.235
56892W        W18181  21.084  25.064  10.606
56893W        W18182   3.353  28.179  11.590
56894W        W18183  27.577  43.474  13.808
56895W        W18184  37.449   2.764   1.833
56896W        W18185  34.016   1.923  11.045
56897W        W18186  26.669  33.033  14.788
56898W        W18187  24.159  36.462   3.676
56899W        W18188  36.499  16.650   2.381
56900W        W18189  17.643   0.444   4.832
56901W        W18190   4.914  25.509   2.270
56902W        W18191  28.664  33.121   4.668
56903W        W18192  32.468  13.702  14.888
56904W        W18193  22.995  35.569  12.480
56905W        W18194  10.355  23.208  10.423
56906W        W18195  41.406  32.499  13.881
56907W        W18196  21.729  13.333   4.611
56908W        W18197  12.125  12.698   4.314
56909W        W18198  16.698  28.497   1.391
56910W        W18199  20.051  41.433  10.914
56911W        W18200  27.456   1.410  11.535
56912W        W18201  18.156  37.472   2.285
56913W        W18202   8.766   0.271  11.883
56914W        W18203  19.221  44.321  13.430
56915W        W18204  24.138  14.230  10.454
56916W        W18205   9.395  19.679   4.203
56917W        W18206  42.908  25.014  13.356
56918W        W18207   0.755  32.899   3.281
56919W        W18208   9.388  26.586  14.435
56920W        W18209   3.916  21.656   2.749
56921W        W18210   5.381  22.741  10.518
56922W        W18211  16.608  21.514  10.926
56923W        W18212  42.790  13.601  11.600
56924W        W18213  35.419  12.798   0.735
56925W        W18214  23.001  24.131  12.550
56926W        W18215  40.941   7.741   9.995
56927W        W18216  28.670  21.548   4.331
56928W        W18217  28.022   6.349  13.542
56929W        W18218  24.061  17.245  12.045
56930W        W18219  15.230  22.608  10.555
56931W        W18220   1.742   1.245  11.559
56932W        W18221  25.661  32.439  13.383
56933W        W18222   4.770  16.275  11.582
56934W        W18223  26.147  17.073   1.880
56935W        W18224  25.497  29.112   0.800
56936W        W18225  44.965  20.058  14.837
56937W        W18226  37.905   9.282  11.068
56938W        W18227   2.946  29.599  14.936
56939W        W18228  38.839  18.701   4.225
56940W        W18229  26.101  41.844   0.355
56941W        W18230  10.325  14.328  13.924
56942W        W18231   4.729  22.252  13.934
56943W        W18232  19.708  20.557   3.727
56944W        W18233   1.955   4.774  14.376
56945W        W18234  38.889  23.529   1.770
56946W        W18235  41.861   0.474   1.926
56947W        W18236  42.394  31.582   1.726
56948W        W18237  17.124  44.964   1.783
56949W        W18238  19.134   5.221   1.333
56950W        W18239  36.498  37.357  14.005
56951W        W18240  28.488  37.022  10.988
56952W        W18241  36.995  20.766   1.837
56953W        W18242  15.099  37.940   2.284
56954W        W18243   5.864  12.644   4.352
56955W        W18244  24.120  41.856  11.105
56956W        W18245  41.414  35.017  12.339
56957W        W18246  43.810  11.703   4.140
56958W        W18247  41.524  23.051   3.238
56959W        W18248   8.751  31.110  11.066
56960W        W18249  19.590  23.558  12.834
56961W        W18250   8.870   1.470  14.403
56962W        W18251  29.451  28.157  12.433
56963W        W18252  34.505  31.465   4.129
56964W        W18253  26.461  15.749  10.046
56965W        W18254  31.104  18.548   4.165
56966W        W18255  29.484  16.637  11.522
56967W        W18256  18.628  32.402   1.307
56968W        W18257  17.294  35.928  13.949
56969W        W18258  37.877  18.213   0.335
56970W        W18259   2.316  18.256  11.915
56971W        W18260  16.621   1.363  12.406
56972W        W18261  23.143  44.493  10.483
56973W        W18262  36.083  30.997   1.763
56974W        W18263  20.237   2.966   0.424
56975W        W18264   5.271  38.010  12.964
56976W        W18265   5.825  43.316  11.446
56977W        W18266  42.029  15.311   1.275
56978W        W18267  33.485  37.355  13.391
56979W        W18268  20.743   0.916   0.738
56980W        W18269  12.714   2.820  11.934
56981W        W18270  10.140  25.099  12.415
56982W        W18271  33.880   7.872   4.150
56983W        W18272  18.161   3.341   5.243
56984W        W18273  30.930   9.736  10.147
56985W        W18274  17.117  34.531   0.931
56986W        W18275  31.927  43.408   4.779
56987W        W18276   4.923  37.914  10.138
56988W        W18277  20.177  24.207   1.305
56989W        W18278  28.940  37.508   1.396
56990W        W18279  41.960  28.505  14.883
56991W        W18280  10.379  32.131   2.373
56992W        W18281   0.385  13.278   0.935
56993W        W18282  42.464  13.340  14.848
56994W        W18283  19.587   8.292   0.875
56995W        W18284  28.489   2.831  12.911
56996W        W18285  27.463  24.606  12.414
56997W        W18286  20.608  18.199   1.436
56998W        W18287  24.705  42.477  10.997
56999W        W18288  11.300  17.801   1.792
57000W        W18289  33.913  18.185  14.395
57001W        W18290  13.812   7.879  12.086
57002W        W18291   9.720   1.245  12.092
57003W        W18292  13.331   1.884   1.225
57004W        W18293  42.024  13.667   3.325
57005W        W18294  43.376   1.808  14.838
57006W        W18295  38.828   9.809   4.762
57007W        W18296   1.886   3.374   4.696
57008W        W18297  14.210  36.869   0.410
57009W        W18298  41.458   8.307  13.980
57010W        W18299   8.693  12.324   4.155
57011W        W18300   9.864   5.280  14.516
57012W        W18301  17.687  25.580  14.851
57013W        W18302  21.125   9.696   2.878
57014W        W18303  42.359  43.396  14.436
57015W        W18304   5.744  31.930  14.438
57016W        W18305  44.856   4.274  11.933
57017W        W18306  26.970   2.807   3.378
57018W        W18307  41.802  10.227  14.959
57019W        W18308  36.008  30.480   0.257
57020W        W18309  38.399  41.835   4.740
57021W        W18310  43.323  14.199   2.814
57022W        W18311  25.710  31.524  13.307
57023W        W18312  37.374  11.681  10.419
57024W        W18313  35.378  33.391   1.312
57025W        W18314  27.456  37.423  13.349
57026W        W18315  28.117   9.279  14.491
57027W        W18316  34.507  18.050  13.465
57028W        W18317  35.984  40.907   2.303
57029W        W18318   0.397   6.817  11.868
57030W        W18319   4.721  31.119  14.030
57031W        W18320  26.631  16.087   2.802
57032W        W18321  13.789  30.636  11.045
57033W        W18322  31.627   1.426  10.056
57034W        W18323  15.208  10.700  12.548
57035W        W18324  31.140  36.476  12.551
57036W        W18325  26.610   3.315   5.195
57037W        W18326  13.615  16.567   2.245
57038W        W18327   3.245   7.848  12.923
57039W        W18328  20.184  11.792   2.285
57040W        W18329  23.220  40.860  10.581
57041W        W18330   3.903   6.714  12.008
57042W        W18331  13.228  13.705  13.953
57043W        W18332  40.390  17.243  13.824
57044W        W18333  28.132  28.184   3.638
57045W        W18334  31.124  39.397  11.024
57046W        W18335  38.885  39.322  13.854
57047W        W18336  22.112  28.452   0.779
57048W        W18337  14.313  34.383  10.429
57049W        W18338   5.373  22.100  11.900
57050W        W18339  33.043  27.071   1.345
57051W        W18340  19.254  14.804   2.383
57052W        W18341   5.331  36.439   1.931
57053W        W18342  27.964  41.949   3.769
57054W        W18343  20.740  39.986  13.856
57055W        W18344  18.670  18.193   3.319
57056W        W18345   6.341  14.142  14.856
57057W        W18346  31.121  27.066   0.845
57058W        W18347   6.922  24.637  12.895
57059W        W18348  40.935  25.492   4.266
57060W        W18349   5.227  17.791   0.355
57061W        W18350  11.370  38.325  12.563
57062W        W18351  17.066  18.682  10.441
57063W        W18352  43.454   4.281   1.296
57064W        W18353  30.438  38.016  10.563
57065W        W18354  39.484  16.663  12.038
57066W        W18355  37.416   6.253  12.513
57067W        W18356  12.262   1.318   2.364
57068W        W18357  31.959  41.304  14.353
57069W        W18358   4.814  14.165   0.874
57070W        W18359  44.825  17.634  14.011
57071W        W18360  24.006  38.071   3.230
57072W        W18361   8.726  16.578   1.323
57073W        W18362  43.897   8.804   2.863
57074W        W18363  17.190  21.223   0.259
57075W        W18364  35.491  28.564   2.419
57076W        W18365  12.831   0.755  12.407
57077W        W18366  42.303  14.160   4.296
57078W        W18367  13.738  17.299   0.469
57079W        W18368  27.940  22.233   0.832
57080W        W18369  41.470  29.041   0.276
57081W        W18370  34.891  29.160  13.847
57082W        W18371   5.767   6.297  13.891
57083W        W18372  12.640  28.522  12.573
57084W        W18373  43.780  38.011   0.439
57085W        W18374   8.319  32.095  13.465
57086W        W18375  28.504  32.052  13.863
57087W        W18376  39.915  33.576  13.452
57088W        W18377  20.726  24.674  10.513
57089W        W18378  23.112   7.795  11.111
57090W        W18379  26.555   5.816  10.448
57091W        W18380  27.651   7.892  13.545
57092W        W18381   5.383  18.145   1.412
57093W        W18382  36.014  42.452  11.079
57094W        W18383  32.431  19.673   0.315
57095W        W18384   0.876  31.476  14.300
57096W        W18385  36.460  44.372  12.080
57097W        W18386  10.655  10.671   1.827
57098W        W18387  20.525  25.572  10.590
57099W        W18388  17.732   8.784  13.377
57100W        W18389  36.364  39.008  11.969
57101W        W18390   4.434  42.481  11.453
57102W        W18391  20.243  10.664   3.331
57103W        W18392  38.371  10.181   3.353
57104W        W18393   5.220  11.156  12.090
57105W        W18394   4.944   1.854   4.178
57106W        W18395   2.426  35.452   4.747
57107W        W18396   2.807  31.603  13.029
57108W        W18397  10.345   7.287  14.768
57109W        W18398  13.316  17.204  10.890
57110W        W18399  18.259  19.152   2.678
57111W        W18400  40.350  20.715   0.825
57112W        W18401  10.660  30.058  12.014
57113W        W18402  17.650   6.729  13.935
57114W        W18403  20.060  43.453   1.918
57115W        W18404  12.711  13.283   3.293
57116W        W18405   4.429  41.993   1.259
57117W        W18406  39.881  44.481   0.376
57118W        W18407  35.445  18.214  10.635
57119W        W18408  31.489  16.147  14.352
57120W        W18409  22.580  22.719  14.316
57121W        W18410  33.883   4.762   0.248
57122W        W18411  11.211  35.040   2.773
57123W        W18412  22.724  39.881   1.253
57124W        W18413  30.069  14.744   3.323
57125W        W18414   4.307  31.946  12.976
57126W        W18415  41.331   1.870   0.281
57127W        W18416  27.648   7.280   5.166
57128W        W18417  34.502  33.912  14.503
57129W        W18418  18.164  24.719   4.269
57130W        W18419   0.817   9.226   9.442
57131W        W18420  42.796  35.410  12.403
57132W        W18421  24.045  40.325  13.061
57133W        W18422  42.421  39.045  10.926
57134W        W18423  33.424   0.493   9.920
57135W        W18424  27.506  30.583   4.313
57136W        W18425   9.244  29.577  13.425
57137W        W18426  23.683  39.385  12.913
57138W        W18427  28.976   6.221   3.696
57139W        W18428  25.516   0.308  11.609
57140W        W18429  34.508  38.844   3.177
57141W        W18430  12.806   6.740   4.209
57142W        W18431  20.706  23.594   4.597
57143W        W18432  22.048   1.947   3.808
57144W        W18433   0.946  41.355  14.426
57145W        W18434   4.204   5.714  12.440
57146W        W18435  27.537  15.253  13.922
57147W        W18436   9.182  44.777   2.222
57148W        W18437  40.341  38.501  13.415
57149W        W18438  31.618  21.226   1.834
57150W        W18439  10.328   9.794   3.677
57151W        W18440   3.857  43.775  14.319
57152W        W18441   5.284   3.291  12.951
57153W        W18442  39.515   0.878  12.363
57154W        W18443  38.363  13.715  14.428
57155W        W18444  29.165  35.002  11.068
57156W        W18445   0.387  25.192  11.036
57157W        W18446  14.194   1.463  11.105
57158W        W18447  26.473  27.663  14.372
57159W        W18448  26.995  40.310  11.427
57160W        W18449  34.566  40.454  11.896
57161W        W18450  31.143  28.943   3.377
57162W        W18451  43.325  30.981  11.865
57163W        W18452  42.944  23.613  14.327
57164W        W18453  27.138  42.367   3.855
57165W        W18454  20.624  33.877   0.473
57166W        W18455  31.520  18.701   0.395
57167W        W18456   5.438   2.292  14.381
57168W        W18457  14.121  39.481  14.789
57169W        W18458  18.594   4.844   1.877
57170W        W18459  38.410  42.818   3.735
57171W        W18460  23.047  40.444   0.463
57172W        W18461  35.508  10.334  12.893
57173W        W18462  26.514  43.437   3.368
57174W        W18463  32.027  13.188  14.307
57175W        W18464  31.925  42.917   2.269
57176W        W18465   7.712  17.686  11.400
57177W        W18466  38.458   6.900  11.952
57178W        W18467  31.402  31.957  11.047
57179W        W18468  13.701   8.855  10.507
57180W        W18469  22.168   5.863  11.948
57181W        W18470  16.584  18.189   1.732
57182W        W18471  22.506  24.510  12.075
57183W        W18472  19.688   8.817  10.587
57184W        W18473   2.878  19.177   3.640
57185W        W18474   8.888   7.318   2.189
57186W        W18475  44.852   6.687  11.897
57187W        W18476  14.223  30.968  11.388
57188W        W18477  29.639  43.274  13.930
57189W        W18478   0.841  33.889   0.375
57190W        W18479   8.202  29.611  11.469
57191W        W18480  31.945  27.498   0.951
57192W        W18481   0.457  37.926  11.591
57193W        W18482  18.244  43.915   1.857
57194W        W18483  24.111  20.562  14.924
57195W        W18484   8.772  32.027  12.367
57196W        W18485  11.708  33.523  12.877
57197W        W18486  23.019  40.438  10.546
57198W        W18487  39.324  19.558   5.715
57199W        W18488  31.555  35.538   1.320
57200W        W18489  12.812  10.177   1.879
57201W        W18490   2.351  17.714  11.927
57202W        W18491   9.812  34.547  12.036
57203W        W18492  40.447   0.385   4.353
57204W        W18493   3.919   0.464  11.101
57205W        W18494  12.174  17.681   4.657
57206W        W18495  37.418  43.778  13.332
57207W        W18496  13.830  23.232   0.917
57208W        W18497  21.206   2.345  13.988
57209W        W18498  37.030   2.235   0.924
57210W        W18499  36.498   1.815   4.317
57211W        W18500   7.229  29.607  11.441
57212W        W18501  37.490  44.952   1.386
57213W        W18502  22.617  26.533  14.362
57214W        W18503  40.414  35.927  11.032
57215W        W18504  10.204  32.586   4.156
57216W        W18505  25.966  12.654   4.800
57217W        W18506  13.177   5.754   0.770
57218W        W18507   5.762  40.892  13.921
57219W        W18508  38.419  26.985   0.405
57220W        W18509   1.895  16.122  11.543
57221W        W18510  27.054  39.887   0.799
57222W        W18511   6.380  35.869  11.459
57223W        W18512  24.142  29.564  11.519
57224W        W18513  38.484  31.965  12.384
57225W        W18514  10.261  13.297   0.395
57226W        W18515  41.405   6.306  10.411
57227W        W18516   8.687  19.699  11.515
57228W        W18517  10.779   4.254  12.903
57229W        W18518  26.991  18.187   2.306
57230W        W18519   6.705  24.207  12.040
57231W        W18520  12.756  27.553   3.323
57232W        W18521  37.025  34.929  14.991
57233W        W18522  25.970  19.146   2.249
57234W        W18523   2.767  18.741  12.824
57235W        W18524  19.733  12.715  14.811
57236W        W18525  13.230  33.960  14.771
57237W        W18526  22.688  10.347  10.919
57238W        W18527  38.387  28.627   2.203
57239W        W18528  44.808  31.588  11.021
57240W        W18529  20.189  35.006   2.309
57241W        W18530  32.607  31.908  12.920
57242W        W18531  17.179  41.528  12.483
57243W        W18532  18.701  21.551   0.897
57244W        W18533   3.721  36.480   0.290
57245W        W18534  41.876  34.529  13.371
57246W        W18535   7.272   8.711   2.770
57247W        W18536  17.739  17.130   2.875
57248W        W18537  30.507   4.940  13.939
57249W        W18538  25.660  43.912   2.850
57250W        W18539  19.236  23.177  12.389
57251W        W18540   9.760   3.355  13.888
57252W        W18541  39.557  13.614   2.340
57253W        W18542   5.689  18.635  13.477
57254W        W18543   1.734  38.516  12.945
57255W        W18544  39.933  11.650  11.042
57256W        W18545  31.898  33.439   3.222
57257W        W18546  20.563  40.419   2.842
57258W        W18547  13.811  30.088   0.297
57259W        W18548  10.800  20.150   2.717
57260W        W18549  42.391  17.740  14.795
57261W        W18550  32.532   6.763   2.222
57262W        W18551  37.847  37.494  10.917
57263W        W18552  11.209   3.453  11.431
57264W        W18553  41.388  37.862  14.338
57265W        W18554   5.807  44.468   4.225
57266W        W18555   0.846  23.167   4.243
57267W        W18556  37.465  19.085  12.934
57268W        W18557  16.271  23.548  12.538
57269W        W18558  22.096  43.463   3.721
57270W        W18559  23.235  17.254   0.832
57271W        W18560  43.955  36.437  11.522
57272W        W18561  25.502  19.750   0.436
57273W        W18562  37.475  26.162  12.570
57274W        W18563  28.609  16.716  14.999
57275W        W18564  21.696   8.217  12.938
57276W        W18565  44.406  23.205   2.811
57277W        W18566  27.940  29.556   5.256
57278W        W18567  20.678  44.852  11.068
57279W        W18568  35.489   8.327   4.174
57280W        W18569  13.771  44.344  10.408
57281W        W18570  14.636  24.643   3.294
57282W        W18571  14.107  17.636   1.753
57283W        W18572   1.321  21.222   1.410
57284W        W18573   7.220   3.826   2.817
57285W        W18574  30.128  13.819   0.472
57286W        W18575  29.164   7.846   0.448
57287W        W18576  17.197  11.693  12.494
57288W        W18577  24.075  10.691  12.947
57289W        W18578   4.731   5.311   1.873
57290W        W18579  20.194   9.789  11.456
57291W        W18580  27.145  42.396  12.503
57292W        W18581  20.143   0.889  12.502
57293W        W18582  13.136  31.116  12.901
57294W        W18583  32.007  26.488  14.913
57295W        W18584   4.938  41.022   2.283
57296W        W18585  24.698   6.761  11.071
57297W        W18586   0.323  21.180   3.194
57298W        W18587  36.996   8.675  13.958
57299W        W18588   4.223  23.185   3.698
57300W        W18589   5.264  15.583  10.518
57301W        W18590  18.688  35.915  12.404
57302W        W18591  12.696  33.577   4.147
57303W        W18592  23.027  39.523   1.328
57304W        W18593  22.192   7.198   1.842
57305W        W18594  19.666  18.071  10.996
57306W        W18595  16.766  44.803   2.355
57307W        W18596  29.530  13.834   2.336
57308W        W18597  44.299  34.992   3.148
57309W        W18598   2.877   9.162   0.367
57310W        W18599   1.338   2.301   1.392
57311W        W18600  15.717  27.076   2.187
57312W        W18601  36.874  12.736   2.816
57313W        W18602  34.893  42.286   4.659
57314W        W18603  18.646  24.028  12.062
57315W        W18604  40.530   2.336  12.862
57316W        W18605  34.001  27.610  14.014
57317W        W18606  29.120  42.943  14.843
57318W        W18607  11.773  37.515   4.271
57319W        W18608  15.114  13.808  14.848
57320W        W18609  28.677  37.411   2.236
57321W        W18610  19.602  22.129   3.698
57322W        W18611  44.500  34.593   3.853
57323W        W18612  20.217  27.448   2.276
57324W        W18613  23.589  15.227   4.652
57325W        W18614  36.402  13.761   1.442
57326W        W18615  25.187  23.031   1.394
57327W        W18616  31.010  34.961   0.329
57328W        W18617  43.491  13.730  12.004
57329W        W18618  14.783  38.548  12.545
57330W        W18619  32.488  25.584   3.655
57331W        W18620   6.712  13.121  11.006
57332W        W18621  33.515  38.547  13.417
57333W        W18622  43.297   5.765   0.739
57334W        W18623  16.123  18.632  12.371
57335W        W18624  28.644   0.282   4.278
57336W        W18625   1.344  19.112   1.308
57337W        W18626  15.808  34.064   1.816
57338W        W18627  30.573  19.750  14.830
57339W        W18628  25.086  24.105  13.495
57340W        W18629  41.969  25.665   0.481
57341W        W18630  33.115  22.581  14.786
57342W        W18631  26.004   2.453  10.475
57343W        W18632  11.750  25.209   0.770
57344W        W18633   5.241  25.693  12.901
57345W        W18634  20.264   6.349   3.234
57346W        W18635  44.265   8.731  14.787
57347W        W18636   3.747  30.961  10.437
57348W        W18637  18.174  28.499   3.671
57349W        W18638  20.066  38.860   2.289
57350W        W18639   8.866  38.898   3.864
57351W        W18640  37.955  20.266  14.330
57352W        W18641  39.041  12.680   3.709
57353W        W18642   8.202  13.141  11.549
57354W        W18643  11.283  10.152   2.184
57355W        W18644   9.314  23.166   0.946
57356W        W18645   8.196  11.285  10.491
57357W        W18646  21.149  26.621   4.741
57358W        W18647  16.648  36.028  10.941
57359W        W18648  13.107  21.023   3.288
57360W        W18649   6.321   1.440   4.622
57361W        W18650  11.348  14.610   3.243
57362W        W18651  42.433  14.791  12.550
57363W        W18652  14.340  14.806   2.752
57364W        W18653  12.703  21.026   3.176
57365W        W18654  43.936  21.600  13.982
57366W        W18655  22.077  23.709   4.328
57367W        W18656  37.422  22.198   0.368
57368W        W18657  12.189  16.689   0.777
57369W        W18658  18.238  12.680   2.826
57370W        W18659  38.902  16.148   1.745
57371W        W18660   2.917  33.546   4.777
57372W        W18661  21.703  23.543   3.252
57373W        W18662  30.114  11.774   4.726
57374W        W18663  23.704  39.062  12.375
57375W        W18664  35.399   8.396  11.382
57376W        W18665  15.639  28.673  11.465
57377W        W18666  40.939  29.454   1.315
57378W        W18667   0.313  23.621  14.985
57379W        W18668  10.273  42.385  10.644
57380W        W18669   8.183  35.089   0.833
57381W        W18670  34.607  23.701  11.476
57382W        W18671  40.842  24.505   2.866
57383W        W18672  14.592   5.722  10.994
57384W        W18673   5.741  37.578  14.013
57385W        W18674  40.461   4.338   4.254
57386W        W18675  33.609  44.503  14.777
57387W        W18676  15.638  25.551   1.416
57388W        W18677  29.969   7.214   2.664
57389W        W18678  28.100   9.153  12.541
57390W        W18679  42.480  17.157   3.253
57391W        W18680  37.374   5.829   0.253
57392W        W18681  44.945  33.102   4.305
57393W        W18682  17.299  32.511   2.690
57394W        W18683  41.358   2.765  14.442
57395W        W18684  33.510  12.693  13.961
57396W        W18685  14.764   4.364   3.686
57397W        W18686  28.605   3.318   0.412
57398W        W18687  20.097   4.397   2.186
57399W        W18688   3.344   4.755   4.781
57400W        W18689  19.659  30.124   2.794
57401W        W18690   9.293  14.191  13.458
57402W        W18691  19.245   2.410  13.029
57403W        W18692  23.117  17.082   4.612
57404W        W18693  18.175   7.413  13.528
57405W        W18694  38.393  34.905  11.027
57406W        W18695  24.228  18.751  14.463
57407W        W18696  41.891  23.105   3.173
57408W        W18697  31.068   3.712   3.163
57409W        W18698  35.941  17.157  10.452
57410W        W18699  32.467  11.350  10.922
57411W        W18700  12.828  19.110   1.803
57412W        W18701  25.172   2.374   2.882
57413W        W18702   1.947  23.093   1.696
57414W        W18703  35.976  31.930  10.573
57415W        W18704   9.721  34.039   3.321
57416W        W18705  13.321  17.579   4.143
57417W        W18706  14.307  39.355   2.859
57418W        W18707  19.603  35.485   2.805
57419W        W18708  42.303  26.161   4.728
57420W        W18709  37.562  26.200   2.718
57421W        W18710  30.998  38.408  14.310
57422W        W18711  39.993  34.029   0.749
57423W        W18712  20.634  41.448   0.802
57424W        W18713  16.645  40.806   1.403
57425W        W18714   2.809  13.125   1.298
57426W        W18715  23.113  42.448  11.907
57427W        W18716  37.571  13.335   0.313
57428W        W18717   7.270  13.232   3.822
57429W        W18718  10.202  27.678  10.152
57430W        W18719  19.757  36.556   3.852
57431W        W18720  36.971  30.997  10.605
57432W        W18721  36.372  31.516   4.635
57433W        W18722  30.501   1.895   0.463
57434W        W18723  20.729   4.933   0.951
57435W        W18724   4.878   7.754  11.474
57436W        W18725  16.728  21.580  13.358
57437W        W18726  23.054  27.492  14.324
57438W        W18727  27.027  15.284  12.373
57439W        W18728  18.164   0.477   0.385
57440W        W18729   6.909  18.729   2.826
57441W        W18730   3.877  39.529  10.912
57442W        W18731   7.249   2.313  12.566
57443W        W18732  36.567  30.600  10.633
57444W        W18733  13.255  29.021  13.921
57445W        W18734  15.723  14.723   1.448
57446W        W18735  10.228  20.127  13.879
57447W        W18736  34.878  31.502   0.903
57448W        W18737  15.613  35.101   0.946
57449W        W18738  20.173  16.577  13.870
57450W        W18739  14.324  39.332   3.732
57451W        W18740  21.093  36.063  14.337
57452W        W18741  31.583   8.752   4.310
57453W        W18742  43.937  33.991  12.370
57454W        W18743  30.562  36.427   3.682
57455W        W18744  33.943   9.211  10.943
57456W        W18745  31.926  18.091  10.574
57457W        W18746  15.746  12.620  11.502
57458W        W18747   5.821  27.961  13.833
57459W        W18748  12.116  21.642  12.398
57460W        W18749  16.672  31.635  14.453
57461W        W18750  14.680  35.018  10.055
57462W        W18751  38.955   7.223  10.004
57463W        W18752  16.213  12.848   5.219
57464W        W18753   0.887  44.964  14.439
57465W        W18754  41.508  27.022   2.333
57466W        W18755  11.792  33.102   2.819
57467W        W18756  15.804  38.868  12.829
57468W        W18757  25.643   0.270   1.729
57469W        W18758  17.074  10.813   3.183
57470W        W18759  22.183  23.621  13.881
57471W        W18760  20.107  27.670  11.433
57472W        W18761   9.356  30.120   4.742
57473W        W18762   7.239  15.608  10.601
57474W        W18763  40.983  42.492  10.925
57475W        W18764   8.762  27.671  12.090
57476W        W18765  27.979  17.267   0.838
57477W        W18766   4.808  29.542   0.888
57478W        W18767  33.052  38.346   4.237
57479W        W18768   6.297  43.289  13.849
57480W        W18769  44.307  41.357  10.609
57481W        W18770  15.695  43.505  10.924
57482W        W18771  40.308  38.003  13.895
57483W        W18772   7.880  39.036   5.216
57484W        W18773  39.552   7.318  11.525
57485W        W18774   3.225  14.613   3.149
57486W        W18775   7.829  23.497   1.347
57487W        W18776   1.826  30.101   2.851
57488W        W18777  36.081  30.041   0.245
57489W        W18778  25.132  21.706  12.506
57490W        W18779  16.202  20.218  12.369
57491W        W18780  38.414   7.901  13.983
57492W        W18781  25.599  35.046  10.517
57493W        W18782  24.113  27.558   3.701
57494W        W18783  35.901  23.992   1.261
57495W        W18784  44.466  10.314  14.768
57496W        W18785  26.562  30.132   1.867
57497W        W18786  42.873   2.251   0.399
57498W        W18787  42.923  29.597   0.432
57499W        W18788  14.812  35.077   3.194
57500W        W18789  38.054  21.535   2.778
57501W        W18790   1.347  27.110   1.425
57502W        W18791  12.756  38.493  11.431
57503W        W18792   6.920  43.922  10.562
57504W        W18793   7.381  10.840   0.453
57505W        W18794   9.738  43.885   0.448
57506W        W18795   2.226  19.615   2.334
57507W        W18796  39.350   2.387  12.896
57508W        W18797  24.491  18.056   3.806
57509W        W18798   8.390  20.533   1.767
57510W        W18799  14.607   4.394  12.916
57511W        W18800  15.812  42.002  10.116
57512W        W18801   8.303  33.077   5.583
57513W        W18802   5.353  25.209  13.375
57514W        W18803  33.971  29.925  11.047
57515W        W18804  16.753  43.854  13.877
57516W        W18805  30.028  21.036   1.887
57517W        W18806  11.765  36.076   2.303
57518W        W18807  38.539  20.672   0.840
57519W        W18808   0.360  20.637   0.887
57520W        W18809  19.264  36.929  13.900
57521W        W18810  35.109  19.136  10.584
57522W        W18811  20.538  30.469   2.817
57523W        W18812  27.185  37.578   2.850
57524W        W18813  34.377  39.333  11.017
57525W        W18814   6.273  35.015   4.731
57526W        W18815  11.249  27.589  14.480
57527W        W18816  23.503   5.221  10.476
57528W        W18817  17.708  11.730  13.420
57529W        W18818  28.487  44.379   1.304
57530W        W18819  22.682   1.450   4.675
57531W        W18820  23.600  44.318   2.820
57532W        W18821  15.803  21.552  14.848
57533W        W18822  33.906   5.865   1.770
57534W        W18823  39.897  13.185  10.914
57535W        W18824  11.144   1.878  13.897
57536W        W18825  28.468  30.934   4.698
57537W        W18826  12.163  44.957  12.465
57538W        W18827  28.160  17.076  10.135
57539W        W18828  44.453   6.399  14.994
57540W        W18829  18.256  16.573  12.918
57541W        W18830  38.921  11.319   0.278
57542W        W18831  16.099  17.243  13.057
57543W        W18832  37.404  18.078  10.952
57544W        W18833   3.910   0.313   2.364
57545W        W18834  24.064   1.932   0.957
57546W        W18835  36.842   9.779   4.141
57547W        W18836  18.589  23.732  10.159
57548W        W18837  24.990   5.773   4.692
57549W        W18838  27.661  30.072   3.680
57550W        W18839  34.448  21.206  13.323
57551W        W18840   9.180   2.261   3.173
57552W        W18841  24.070  29.514   4.765
57553W        W18842   6.298   7.345   1.735
57554W        W18843  31.014  18.216  11.868
57555W        W18844  23.034   4.892   1.245
57556W        W18845   7.363  28.588  13.344
57557W        W18846  13.777  30.148  14.872
57558W        W18847  35.359  12.665  12.362
57559W        W18848  25.642  28.560  14.974
57560W        W18849  24.009  24.642   2.365
57561W        W18850   4.258  10.159   1.742
57562W        W18851  43.805   3.875   2.358
57563W        W18852   8.161  14.772   3.338
57564W        W18853   3.781  11.209  12.012
57565W        W18854   4.232  12.269   1.313
57566W        W18855  22.558  25.218  10.900
57567W        W18856  12.158  21.034  11.970
57568W        W18857  44.425   5.246   0.475
57569W        W18858   1.767  40.969  14.427
57570W        W18859   9.806  13.129  13.934
57571W        W18860  30.546  23.122  12.036
57572W        W18861  42.304  18.762   0.327
57573W        W18862  28.069  36.054   1.783
57574W        W18863  19.121  13.211   2.191
57575W        W18864  17.072   7.792   1.414
57576W        W18865  41.526  44.434  12.824
57577W        W18866  32.582   2.390  10.465
57578W        W18867  41.917  37.950  14.942
57579W        W18868  20.638  29.451   3.742
57580W        W18869   1.420   4.721   4.116
57581W        W18870   6.867  35.109  13.378
57582W        W18871  29.427  21.551   1.800
57583W        W18872  37.372   9.672   0.860
57584W        W18873  33.036  38.830  13.454
57585W        W18874  16.568   1.473   4.185
57586W        W18875  30.656  28.661  12.087
57587W        W18876   0.925  25.657   0.362
57588W        W18877  34.557  24.088   0.820
57589W        W18878  24.572  17.675  12.874
57590W        W18879  14.796  34.411   9.515
57591W        W18880   9.740  22.624  12.847
57592W        W18881  23.180  21.087  12.002
57593W        W18882  42.408  39.549  13.890
57594W        W18883  20.265  44.285  14.473
57595W        W18884   6.251  17.134  14.885
57596W        W18885   8.401   1.784   4.134
57597W        W18886  11.640  14.157   1.869
57598W        W18887  40.444   6.695   0.757
57599W        W18888   9.279  40.309   2.300
57600W        W18889  12.206  41.385   1.914
57601W        W18890  16.170  17.646  12.475
57602W        W18891  36.425  37.050   1.331
57603W        W18892  42.330  10.827  11.424
57604W        W18893  32.627  17.589   3.175
57605W        W18894  19.776  41.972  11.081
57606W        W18895   6.378  20.667   0.962
57607W        W18896  20.621   8.688   1.254
57608W        W18897  33.081  28.988   0.259
57609W        W18898  33.519   6.235  14.385
57610W        W18899  12.237  18.275   3.669
57611W        W18900  23.160  12.297   2.718
57612W        W18901  32.060  27.647   4.295
57613W        W18902  37.444  41.320  14.491
57614W        W18903  11.784  16.082   3.836
57615W        W18904  42.364  20.044   4.826
57616W        W18905  41.434  41.995   2.902
57617W        W18906   2.729  16.102  13.810
57618W        W18907  42.829  15.185   1.706
57619W        W18908  39.499  20.247  12.001
57620W        W18909  12.648  13.149   0.306
57621W        W18910   8.207   1.463   0.291
57622W        W18911   1.877  14.224  12.883
57623W        W18912  13.692  16.085   4.253
57624W        W18913  43.859  11.183  10.985
57625W        W18914  23.077  20.116  10.508
57626W        W18915  19.578   2.268  12.545
57627W        W18916  39.318   7.373  10.417
57628W        W18917   7.179  42.336   3.365
57629W        W18918  31.483   6.406   1.934
57630W        W18919  18.199  25.130  12.511
57631W        W18920  26.549   3.913  13.033
57632W        W18921   2.402  41.339  12.073
57633W        W18922  31.919  23.638  10.995
57634W        W18923   6.378  38.915   3.701
57635W        W18924   6.336  40.510  13.030
57636W        W18925  15.727  27.181  14.937
57637W        W18926  18.739  10.200   1.736
57638W        W18927  28.509  13.266   3.850
57639W        W18928   7.403  44.858  13.441
57640W        W18929   7.728  35.890   3.156
57641W        W18930  17.752  23.183  12.894
57642W        W18931  37.016  15.242  10.487
57643W        W18932  18.783  33.045  12.558
57644W        W18933  14.813  28.068  11.517
57645W        W18934  33.571  16.153  13.505
57646W        W18935  33.945  28.047  10.435
57647W        W18936   2.759   3.833   2.893
57648W        W18937   5.256   7.296  13.060
57649W        W18938  34.589  36.381  14.313
57650W        W18939  18.066   6.215   3.368
57651W        W18940  38.436  35.072  14.939
57652W        W18941   4.719  11.679  10.949
57653W        W18942  15.752   5.360  13.013
57654W        W18943  23.624  28.131   2.673
57655W        W18944  17.678  13.609   4.673
57656W        W18945  28.514  15.201   4.645
57657W        W18946   0.986  27.979   2.876
57658W        W18947  21.070   0.440  10.943
57659W        W18948  37.874   7.335  14.381
57660W        W18949  17.199  34.959   5.108
57661W        W18950  22.106  41.804   3.165
57662W        W18951   0.343   9.173   9.483
57663W        W18952  18.582  15.587  11.105
57664W        W18953  40.333  14.286  14.436
57665W        W18954  28.464  40.524   1.879
57666W        W18955  34.074  23.719  14.923
57667W        W18956   6.324  23.716   5.611
57668W        W18957  17.728  12.218  12.010
57669W        W18958  29.547   4.775   1.927
57670W        W18959  31.952  40.927  13.962
57671W        W18960  35.580  32.435   2.795
57672W        W18961  19.070  19.122  11.577
57673W        W18962  37.400  27.192  10.499
57674W        W18963  41.950   5.793   1.276
57675W        W18964  13.605  38.417   5.310
57676W        W18965  41.340  41.856   0.879
57677W        W18966  22.216  15.215  10.551
57678W        W18967  18.228   9.790   2.205
57679W        W18968   7.196  26.559  10.154
57680W        W18969  43.008  15.250  14.022
57681W        W18970  33.029  11.673  12.824
57682W        W18971  29.103  36.415  11.413
57683W        W18972  12.789  18.246   1.418
57684W        W18973   2.794  41.964  14.326
57685W        W18974  26.625  32.625  12.357
57686W        W18975  18.590  20.196   9.988
57687W        W18976  22.609  25.712  10.454
57688W        W18977  28.106  12.171  11.547
57689W        W18978   3.404   6.858   4.144
57690W        W18979  41.018   3.301   2.383
57691W        W18980  21.259  41.034   3.869
57692W        W18981  27.962  14.133   1.317
57693W        W18982  30.535  43.428   3.669
57694W        W18983  37.575  27.550  11.544
57695W        W18984  33.455  27.601   1.810
57696W        W18985   8.232  33.060   2.192
57697W        W18986  17.694  11.646   3.187
57698W        W18987  29.476   3.449  14.503
57699W        W18988  32.979   8.757   1.911
57700W        W18989  25.125  27.026   2.702
57701W        W18990  44.783  39.555  10.980
57702W        W18991   9.371  42.881  11.462
57703W        W18992  15.791   0.881   1.289
57704W        W18993  25.038  44.787  14.955
57705W        W18994   5.869   1.851   4.145
57706W        W18995  41.936  11.277   0.948
57707W        W18996  29.490  34.579  10.028
57708W        W18997   9.179   3.253  11.939
57709W        W18998   7.903  35.587   4.670
57710W        W18999   6.701  13.688   0.781
57711W        W19000  27.945  39.002  10.156
57712W        W19001   5.709  42.016   3.742
57713W        W19002  33.554  26.166  14.934
57714W        W19003  13.697  26.021  10.991
57715W        W19004  42.401   6.680  10.083
57716W        W19005  32.958  27.173  14.346
57717W        W19006  15.636  31.040  14.359
57718W        W19007  34.554  27.450  10.503
57719W        W19008  18.052  16.111   0.467
57720W        W19009   2.418   4.815   3.752
57721W        W19010  27.550  24.553   1.911
57722W        W19011  42.876   0.325  11.563
57723W        W19012  27.079  44.943   3.728
57724W        W19013   7.193  34.874   4.308
57725W        W19014  37.495  13.313   4.341
57726W        W19015   2.429   3.345  13.433
57727W        W19016  20.764  12.166   3.745
57728W        W19017  24.138   1.407   3.352
57729W        W19018   7.742  26.464  13.063
57730W        W19019  43.474   1.384  13.888
57731W        W19020  20.736  32.392  11.446
57732W        W19021  41.478  36.912   1.880
57733W        W19022  14.260  14.201   3.146
57734W        W19023   2.457   8.804   3.338
57735W        W19024  38.389  41.908  13.474
57736W        W19025  37.922  31.576  14.419
57737W        W19026   4.851  13.270   1.838
57738W        W19027  43.925  39.334  10.989
57739W        W19028   1.790  29.629   4.797
57740W        W19029  25.626  42.948   4.336
57741W        W19030   9.828  44.348   5.265
57742W        W19031  44.455  33.914  13.046
57743W        W19032  17.279  23.529  14.960
57744W        W19033  26.617  13.241   5.321
57745W        W19034   9.744  25.068   1.258
57746W        W19035  43.502  32.514  12.543
57747W        W19036  23.065  43.427   1.215
57748W        W19037  40.406  13.819  12.012
57749W        W19038  44.348  40.810   1.705
57750W        W19039  35.564  30.157   3.313
57751W        W19040  30.049  11.629  11.042
57752W        W19041  14.815   1.376   9.529
57753W        W19042  17.562   9.670   1.283
57754W        W19043  26.011   6.808   1.448
57755W        W19044  25.556  22.128   0.270
57756W        W19045  29.493  20.059  11.431
57757W        W19046  35.380  26.040   3.382
57758W        W19047  27.107   5.768  11.480
57759W        W19048  34.451  37.391   4.217
57760W        W19049  34.600   3.891  13.031
57761W        W19050  32.428   9.188  10.443
57762W        W19051  24.500  26.080  11.479
57763W        W19052   1.264  23.660  12.968
57764W        W19053   2.320  43.328  12.832
57765W        W19054  12.134  18.142   4.192
57766W        W19055  32.597   3.804  12.352
57767W        W19056  42.316  33.878   0.396
57768W        W19057  15.133  15.256  13.330
57769W        W19058  20.741  18.570  11.046
57770W        W19059  35.961  37.914  11.432
57771W        W19060  27.634  43.476  12.011
57772W        W19061   0.852   8.240  10.946
57773W        W19062   9.826  26.660   1.814
57774W        W19063  27.457  26.496   0.809
57775W        W19064   8.859  10.799   4.638
57776W        W19065  19.636   3.218   0.363
57777W        W19066  42.924  26.671   2.761
57778W        W19067  25.048  21.053   5.735
57779W        W19068  36.463   8.283   3.356
57780W        W19069  14.809  35.080  14.951
57781W        W19070  16.678   2.781  12.836
57782W        W19071  43.450  24.072   0.780
57783W        W19072  13.647  13.227   3.727
57784W        W19073  11.762  44.764   1.368
57785W        W19074  11.666  13.726  14.415
57786W        W19075  34.525  33.012  13.986
57787W        W19076  42.014   7.790  14.448
57788W        W19077  29.006  35.407  13.506
57789W        W19078  38.402  29.429   0.749
57790W        W19079  33.929   7.342   1.875
57791W        W19080  42.513  12.290  11.964
57792W        W19081  35.966  22.626  14.342
57793W        W19082  15.788  26.699  13.351
57794W        W19083   8.380  28.439  13.839
57795W        W19084  31.981   5.929  12.957
57796W        W19085  26.193  34.408   0.727
57797W        W19086  19.269  11.317  11.002
57798W        W19087  23.722  36.071  14.396
57799W        W19088   0.373   7.299  11.101
57800W        W19089  13.160  31.916   2.687
57801W        W19090  29.068  29.083  13.307
57802W        W19091   0.766  27.668   4.815
57803W        W19092  39.913  20.762  13.891
57804W        W19093  34.943   2.416   3.855
57805W        W19094  27.066  22.516   3.781
57806W        W19095  27.978  37.464  12.382
57807W        W19096  26.198   9.377  14.965
57808W        W19097   6.755   1.260   0.262
57809W        W19098  36.369  20.253  14.995
57810W        W19099  16.076  39.556  14.810
57811W        W19100  28.977  13.659   1.376
57812W        W19101  42.947  18.565   3.634
57813W        W19102  31.532  17.200  13.045
57814W        W19103   1.768  32.929   2.780
57815W        W19104  31.105   5.908   2.338
57816W        W19105  18.704  14.256  12.964
57817W        W19106  32.484   5.439   3.254
57818W        W19107  22.601  10.305   4.676
57819W        W19108  36.565  24.094  12.093
57820W        W19109  23.705  15.288  11.389
57821W        W19110   2.884  34.448  10.615
57822W        W19111  44.322  30.467  11.890
57823W        W19112  17.185  19.745  14.368
57824W        W19113   3.851  30.427  12.902
57825W        W19114   2.861  14.222  14.483
57826W        W19115  30.569  32.996   3.330
57827W        W19116   8.891  23.703  11.968
57828W        W19117  18.180   3.325  13.974
57829W        W19118  41.535  41.952   3.766
57830W        W19119  18.191  36.945   3.224
57831W        W19120  33.561  29.960   4.299
57832W        W19121   4.272  23.582   4.138
57833W        W19122   6.292  11.185  13.058
57834W        W19123  19.068   7.297   1.448
57835W        W19124   6.198   4.255  13.915
57836W        W19125  27.085  37.546   3.278
57837W        W19126  40.502   4.283   3.287
57838W        W19127   7.823  31.038   2.860
57839W        W19128   5.239  32.485   3.204
57840W        W19129   7.759   9.220   0.426
57841W        W19130  13.755  41.832  10.446
57842W        W19131  35.063  22.066  13.820
57843W        W19132  26.155   4.297  11.119
57844W        W19133   5.792  37.838  11.108
57845W        W19134  19.152  13.714  11.965
57846W        W19135  25.536   6.386   1.256
57847W        W19136   9.838  44.301   3.203
57848W        W19137  14.209  32.117  10.514
57849W        W19138  20.043  14.109  10.508
57850W        W19139  13.747  14.825   0.307
57851W        W19140  33.472  10.275  14.791
57852W        W19141  15.291  35.016   3.852
57853W        W19142   3.399   3.340   3.302
57854W        W19143  34.090   6.727   2.217
57855W        W19144  12.181  19.109  11.517
57856W        W19145  10.186   6.785  10.476
57857W        W19146  44.855  27.055   4.298
57858W        W19147   9.656  12.122  11.063
57859W        W19148  13.335  40.863  13.522
57860W        W19149  29.580  17.187  10.421
57861W        W19150  35.045  37.078   3.203
57862W        W19151  17.780  39.450  14.765
57863W        W19152  16.762  39.060   4.654
57864W        W19153  40.820  14.231  13.501
57865W        W19154  32.588  23.655   1.242
57866W        W19155   7.861  30.035   4.340
57867W        W19156   5.280  14.786  10.427
57868W        W19157   2.850  25.202   0.961
57869W        W19158  34.110  40.472  11.438
57870W        W19159  41.536  36.509   1.328
57871W        W19160   4.809  24.104  12.953
57872W        W19161  24.586   0.767  10.946
57873W        W19162  22.533  25.980   1.704
57874W        W19163  37.436  44.989  13.991
57875W        W19164   0.470  24.600  14.016
57876W        W19165  28.469   2.890  12.424
57877W        W19166   4.278  37.545  11.953
57878W        W19167  11.305  37.535  14.411
57879W        W19168  38.844  43.349   1.274
57880W        W19169  11.808  15.189   3.179
57881W        W19170  28.167  34.867  10.535
57882W        W19171  38.328  37.838   0.459
57883W        W19172  37.954   7.830   2.749
57884W        W19173  39.515  36.894  12.541
57885W        W19174  38.522  20.691  13.365
57886W        W19175  31.519  44.269   0.361
57887W        W19176   6.681  41.296   2.411
57888W        W19177  24.681  24.106  12.987
57889W        W19178  15.811   2.411   0.740
57890W        W19179  39.339  22.146  12.380
57891W        W19180  24.517  31.027   1.823
57892W        W19181  26.497  43.295   0.422
57893W        W19182  24.606  22.191   2.838
57894W        W19183   9.707  27.000   2.793
57895W        W19184  11.313  28.003   1.928
57896W        W19185   6.750   3.330   4.172
57897W        W19186  31.463   0.391   1.280
57898W        W19187  20.548  18.118  14.429
57899W        W19188  10.796  33.992  13.858
57900W        W19189  14.798  41.409   1.225
57901W        W19190  39.867  31.002  14.978
57902W        W19191  35.516  27.033  11.926
57903W        W19192   8.673  12.760   0.347
57904W        W19193  18.128  36.415  12.912
57905W        W19194   2.353  11.724  12.899
57906W        W19195  34.085  26.120   0.442
57907W        W19196   6.410  41.920  13.797
57908W        W19197  37.962  10.159  14.982
57909W        W19198  20.182   0.417   9.973
57910W        W19199  42.288  14.610   1.212
57911W        W19200  33.460  19.283   2.761
57912W        W19201  43.511  32.132   1.425
57913W        W19202   6.212   2.388   4.777
57914W        W19203  19.552  41.884  14.973
57915W        W19204  43.902   8.356  13.507
57916W        W19205  29.068  19.266   0.777
57917W        W19206  20.768  17.114   2.771
57918W        W19207  31.433  34.056   4.162
57919W        W19208  15.805   9.713   0.446
57920W        W19209  12.628  35.569   0.480
57921W        W19210  14.684  20.067   1.298
57922W        W19211  24.101   3.873   0.939
57923W        W19212  44.834  17.259  14.412
57924W        W19213  35.045  38.996   1.341
57925W        W19214  24.577  29.167   2.334
57926W        W19215  12.674   8.273   2.833
57927W        W19216   5.208  24.060  11.862
57928W        W19217  31.592  10.656  13.803
57929W        W19218  21.703  27.975  14.376
57930W        W19219   0.417  21.712   3.775
57931W        W19220  12.228  16.718   4.177
57932W        W19221   5.237  43.939  11.513
57933W        W19222  32.900   7.723   0.300
57934W        W19223  42.350  41.518  14.795
57935W        W19224  21.030  26.986   0.402
57936W        W19225  33.114  12.739   4.805
57937W        W19226  19.599   2.305   3.747
57938W        W19227   6.223   7.839  13.821
57939W        W19228   0.316  17.161  14.914
57940W        W19229  26.551   9.737   1.242
57941W        W19230  26.631   9.242   2.777
57942W        W19231  29.958  32.538   2.664
57943W        W19232  32.424  37.028   0.276
57944W        W19233  35.559  34.403   0.810
57945W        W19234   0.252  25.606  10.437
57946W        W19235  23.117  35.403   0.419
57947W        W19236  35.549   1.434  12.889
57948W        W19237  11.813  16.753  13.437
57949W        W19238  25.478  36.589  14.991
57950W        W19239  40.845   7.413  10.119
57951W        W19240  23.048  44.267  14.277
57952W        W19241  16.609  27.957  12.021
57953W        W19242  18.232  23.596  11.109
57954W        W19243   2.745  23.679  12.947
57955W        W19244  41.426  14.192  14.761
57956W        W19245  38.455  37.520   4.723
57957W        W19246  34.470   3.761   2.184
57958W        W19247  11.226  12.698   2.292
57959W        W19248   5.337  14.330  11.064
57960W        W19249  36.435   0.407   2.248
57961W        W19250  24.156   5.431   1.716
57962W        W19251  23.237  41.798  12.857
57963W        W19252  21.711  11.350  12.413
57964W        W19253  27.575  34.587  11.592
57965W        W19254   0.760  42.293  11.044
57966W        W19255  23.192  13.224  13.451
57967W        W19256  35.403   5.855   3.740
57968W        W19257   8.752  36.474   3.810
57969W        W19258   0.385  10.359  12.838
57970W        W19259  32.456   9.667   3.788
57971W        W19260  37.992  28.596   2.794
57972W        W19261  37.029   7.757  12.408
57973W        W19262  31.042   1.328  14.295
57974W        W19263   7.747  10.247  10.618
57975W        W19264  21.655  43.787  11.012
57976W        W19265  15.683   8.693  14.972
57977W        W19266  20.585   2.743  14.879
57978W        W19267   0.970  27.574   4.301
57979W        W19268   2.318  28.126   2.704
57980W        W19269   7.230  12.242   3.182
57981W        W19270  31.910  23.165   2.686
57982W        W19271  26.076  15.614   1.383
57983W        W19272   1.419  40.943  14.939
57984W        W19273  21.231  36.561   0.335
57985W        W19274  23.608   1.921   0.949
57986W        W19275  27.101   8.249   4.141
57987W        W19276  18.653  22.058   4.658
57988W        W19277  27.512  16.597   0.256
57989W        W19278  17.727   2.813  10.595
57990W        W19279  29.479  24.045  13.398
57991W        W19280  20.138  22.246   1.730
57992W        W19281  20.102  21.692   4.277
57993W        W19282  23.177  27.113  10.561
57994W        W19283  31.068   9.736  10.959
57995W        W19284   2.446  31.514  12.932
57996W        W19285  30.151  29.619  12.993
57997W        W19286  18.750  44.372   4.292
57998W        W19287  37.996   4.250  13.913
57999W        W19288   4.716  12.818   4.266
58000W        W19289  26.668  23.683  13.049
58001W        W19290  44.386  23.671   2.837
58002W        W19291  38.886  36.083   1.433
58003W        W19292  15.189  18.058  10.605
58004W        W19293   7.700  17.273   2.855
58005W        W19294  39.500  18.622   2.349
58006W        W19295  24.085  27.072  13.837
58007W        W19296  38.408  15.163  14.892
58008W        W19297  37.890  19.176   0.783
58009W        W19298  16.274  25.963  12.944
58010W        W19299  30.637  19.057  11.573
58011W        W19300  24.655  28.163   1.837
58012W        W19301  36.082  13.686   4.661
58013W        W19302   1.732  20.751  12.499
58014W        W19303  29.981  23.078  13.866
58015W        W19304  30.506  15.150   3.316
58016W        W19305  25.133  25.002  13.440
58017W        W19306  22.086  39.530   3.794
58018W        W19307  23.990  22.553  11.914
58019W        W19308  37.563  44.973  12.830
58020W        W19309  10.300  14.215   2.232
58021W        W19310  13.114  16.123  14.908
58022W        W19311  32.462  10.857   3.729
58023W        W19312  31.085  35.426   4.639
58024W        W19313  23.624  26.076  10.410
58025W        W19314  23.004  18.753  10.638
58026W        W19315   5.372  44.432  12.873
58027W        W19316   9.269  24.575   3.312
58028W        W19317  29.119  13.816  12.844
58029W        W19318   8.660   1.420   2.832
58030W        W19319  12.327  40.309   4.234
58031W        W19320  13.790  19.693   1.368
58032W        W19321  10.637   4.734   1.282
58033W        W19322   4.275  11.641   1.932
58034W        W19323   5.822  31.119   0.957
58035W        W19324  14.735   3.849  12.511
58036W        W19325  24.539  16.238  12.974
58037W        W19326  13.235  18.276  13.418
58038W        W19327   1.347  10.284  14.023
58039W        W19328  16.662  25.218   4.251
58040W        W19329  19.558   0.774  14.982
58041W        W19330  37.510  33.899   3.673
58042W        W19331  12.805  24.524   3.810
58043W        W19332  44.466  10.707   1.297
58044W        W19333  29.443  33.561   3.680
58045W        W19334  35.086  19.087   3.199
58046W        W19335   9.863  38.336   1.767
58047W        W19336   0.421   2.760   4.619
58048W        W19337  12.824  10.805   4.322
58049W        W19338  34.047  37.023   0.437
58050W        W19339  31.604   2.957  13.972
58051W        W19340  43.770  21.647   0.937
58052W        W19341  14.736   0.402   9.676
58053W        W19342   1.856   2.828   1.744
58054W        W19343  41.878  24.159   2.802
58055W        W19344  23.115  18.774   1.785
58056W        W19345   5.408  30.651  14.374
58057W        W19346  17.281   5.888   0.440
58058W        W19347  36.890  11.138  10.927
58059W        W19348  25.201  26.063  11.447
58060W        W19349  19.097  40.977   4.354
58061W        W19350   4.320  40.446   0.265
58062W        W19351  41.351  40.380   4.151
58063W        W19352  25.193  16.764  12.922
58064W        W19353  28.491   8.241  12.522
58065W        W19354  28.051  14.704   3.223
58066W        W19355  21.737  25.179  12.096
58067W        W19356  44.355  26.664  11.891
58068W        W19357  19.720  26.483  13.409
58069W        W19358   4.814  24.199   1.402
58070W        W19359  31.410  36.525  11.874
58071W        W19360  14.773  18.086   0.257
58072W        W19361  32.494  37.070   1.719
58073W        W19362  26.669  30.427  14.920
58074W        W19363  31.468  20.671   4.691
58075W        W19364  36.393  34.515   0.423
58076W        W19365  42.963  23.573   0.827
58077W        W19366  27.587  23.167   0.801
58078W        W19367  12.833  24.029   1.389
58079W        W19368   5.862   9.678   2.694
58080W        W19369  16.606  41.825   2.840
58081W        W19370  39.529  22.068  10.907
58082W        W19371  32.072  32.517   2.394
58083W        W19372   7.414  41.419  11.963
58084W        W19373  39.437  41.872   3.365
58085W        W19374  33.114  30.659   2.401
58086W        W19375  42.870  19.560  14.993
58087W        W19376  29.521   2.835  11.400
58088W        W19377  19.749  24.591  13.933
58089W        W19378  32.415  20.701  11.609
58090W        W19379  30.938  33.567   1.426
58091W        W19380   3.386   4.349  14.312
58092W        W19381  15.174  14.717  14.372
58093W        W19382  20.586  26.083   1.345
58094W        W19383  27.619  22.540  11.435
58095W        W19384  18.751   6.912   4.165
58096W        W19385   2.860  32.982  10.939
58097W        W19386  26.476  26.205  10.612
58098W        W19387  13.713  35.404   1.358
58099W        W19388  12.649   2.761   1.438
58100W        W19389  39.412  33.008   3.383
58101W        W19390  30.434  33.945  14.830
58102W        W19391   4.221  21.568  13.805
58103W        W19392  31.044   0.777  11.426
58104W        W19393  16.154   7.904   0.342
58105W        W19394  38.952   8.739  14.366
58106W        W19395  44.419   1.868   0.280
58107W        W19396  37.444  20.187   0.925
58108W        W19397   5.212  13.309  13.004
58109W        W19398  11.178  17.631  13.372
58110W        W19399  32.448  24.587  14.031
58111W        W19400  16.152  42.936   1.289
58112W        W19401  43.470   5.226  11.868
58113W        W19402   1.329  20.051   0.477
58114W        W19403  20.612  28.986  12.401
58115W        W19404  25.583  21.703   0.359
58116W        W19405  16.124  42.968   5.171
58117W        W19406  44.878  16.249  12.407
58118W        W19407  20.159  41.895   0.395
58119W        W19408  31.502  24.627   3.209
58120W        W19409  41.992   4.249  12.059
58121W        W19410  30.636   7.830  11.932
58122W        W19411  38.465  43.492  12.876
58123W        W19412  11.746  11.176  12.444
58124W        W19413  39.343  38.867   0.781
58125W        W19414  14.302  34.390  13.358
58126W        W19415  21.234   8.191  12.485
58127W        W19416  16.188   5.330   3.863
58128W        W19417   1.460  16.645  13.418
58129W        W19418  37.992   8.209  14.485
58130W        W19419   4.775   4.419  13.948
58131W        W19420   8.700  14.674   2.249
58132W        W19421  20.045  15.731  12.469
58133W        W19422  42.384  18.562  12.451
58134W        W19423   7.346  32.626  11.106
58135W        W19424  31.039  35.931   4.779
58136W        W19425  41.323  12.728  12.543
58137W        W19426  20.256  17.138   1.263
58138W        W19427  15.185  20.028  13.520
58139W        W19428  33.403  15.105  11.541
58140W        W19429  23.999  38.823  12.859
58141W        W19430  32.915  30.549   1.414
58142W        W19431  31.471  19.061   0.402
58143W        W19432  29.132   0.375  11.448
58144W        W19433  33.619  34.912  12.508
58145W        W19434   5.352  32.903   1.269
58146W        W19435  10.635  38.851   2.779
58147W        W19436  11.686  14.220  12.430
58148W        W19437   4.364  15.084   2.867
58149W        W19438  40.505  11.157   1.272
58150W        W19439  32.075  12.720  14.795
58151W        W19440  22.085  36.054   0.244
58152W        W19441   0.927  11.133  12.518
58153W        W19442  31.961  14.313  11.875
58154W        W19443  23.998  13.743   3.856
58155W        W19444  24.670  11.332   9.445
58156W        W19445  31.979  16.573  11.554
58157W        W19446  24.118  37.442  14.451
58158W        W19447  17.084  12.767  14.775
58159W        W19448  42.325   8.404   1.299
58160W        W19449  10.338  15.640   3.378
58161W        W19450  24.006   0.475  14.446
58162W        W19451  25.139  36.943  14.986
58163W        W19452   0.807  12.230   0.380
58164W        W19453   7.815  42.952   0.277
58165W        W19454   7.334   4.857  14.969
58166W        W19455  42.368   8.233  10.481
58167W        W19456  36.587  29.973  10.597
58168W        W19457   2.407  44.347   2.245
58169W        W19458   6.892  14.638  11.494
58170W        W19459  16.772  24.709   3.824
58171W        W19460  38.053  40.954   1.357
58172W        W19461   8.337  14.716   4.639
58173W        W19462  37.032  40.915  11.886
58174W        W19463   9.719  29.660   2.848
58175W        W19464  26.173  33.505  11.610
58176W        W19465  27.048  34.504  10.442
58177W        W19466   1.850  25.606  11.993
58178W        W19467   7.371  29.020  11.129
58179W        W19468  36.501  42.863  10.641
58180W        W19469  12.220  36.020  11.001
58181W        W19470  19.047  33.408   3.861
58182W        W19471  17.779  19.163  12.400
58183W        W19472  42.368  31.627  11.080
58184W        W19473  13.175  35.592   0.290
58185W        W19474   8.335   8.381   1.320
58186W        W19475  11.235   7.247  14.388
58187W        W19476  22.114  15.814  13.973
58188W        W19477   0.444  40.870  13.359
58189W        W19478  24.701  41.388   3.653
58190W        W19479  27.542   3.262   4.702
58191W        W19480  27.162   0.303   2.187
58192W        W19481  24.179   2.852  13.371
58193W        W19482  17.156  28.971   3.812
58194W        W19483  42.007  35.077  14.471
58195W        W19484  14.625  27.981  13.045
58196W        W19485  34.877  44.827  11.537
58197W        W19486  31.523   7.398  14.980
58198W        W19487   9.312  33.621   0.289
58199W        W19488  34.015  26.586   1.276
58200W        W19489  44.283  21.062  13.419
58201W        W19490  33.482  11.726   1.219
58202W        W19491  26.510   1.752  13.397
58203W        W19492   1.264  39.023  14.463
58204W        W19493  17.270   0.816   4.225
58205W        W19494  18.170  21.596   2.812
58206W        W19495   3.230  24.076  11.396
58207W        W19496  35.560  16.183   2.740
58208W        W19497  19.068   3.930   0.322
58209W        W19498  21.198   7.761   4.736
58210W        W19499   3.759  14.815  13.545
58211W        W19500  23.590  37.523   1.709
58212W        W19501  39.039  44.920   3.203
58213W        W19502  39.377   7.752   4.813
58214W        W19503  31.474  32.615  11.098
58215W        W19504  22.544  18.590   2.316
58216W        W19505  12.333   3.410   1.438
58217W        W19506  34.105  16.303  12.095
58218W        W19507  39.537  21.113  12.992
58219W        W19508  15.752  35.914   5.251
58220W        W19509  31.640   6.339   0.739
58221W        W19510  43.976   5.386   1.771
58222W        W19511  34.593  40.913   1.233
58223W        W19512  41.864  32.944  12.907
58224W        W19513  26.499   1.408   0.731
58225W        W19514  42.393  40.322   3.281
58226W        W19515  31.546  37.070   1.761
58227W        W19516  41.469  36.354  12.898
58228W        W19517  33.004  42.362  14.872
58229W        W19518  25.675   2.767   3.774
58230W        W19519   3.757   3.739   2.240
58231W        W19520  37.943  31.105  13.866
58232W        W19521   6.375  41.381   4.194
58233W        W19522   0.463  31.511  13.934
58234W        W19523   3.279   2.241  14.275
58235W        W19524  26.511  18.736   3.279
58236W        W19525  11.129  27.092   1.805
58237W        W19526   2.895  38.354   4.115
58238W        W19527  27.972   2.416   4.627
58239W        W19528  27.022  39.922  13.499
58240W        W19529  19.695  29.589  14.820
58241W        W19530   4.737  28.062   0.396
58242W        W19531  22.031  13.656   3.755
58243W        W19532  24.151  18.629   4.267
58244W        W19533   4.344  12.773   4.137
58245W        W19534  16.213  40.975   4.675
58246W        W19535  36.518  20.523  10.511
58247W        W19536  42.501   5.789   0.381
58248W        W19537   9.741  29.007   3.247
58249W        W19538   1.751  26.567   3.320
58250W        W19539  37.990  25.210  14.916
58251W        W19540  14.641   6.917  14.789
58252W        W19541  36.034  16.158   9.959
58253W        W19542  13.127   6.377   2.859
58254W        W19543  24.523   6.792   2.717
58255W        W19544   4.767   8.345   3.312
58256W        W19545  20.199   6.843   2.418
58257W        W19546   3.444  36.358  10.558
58258W        W19547  10.769  29.510  11.070
58259W        W19548  39.333  36.512   2.253
58260W        W19549   6.354   4.784  14.827
58261W        W19550  23.734   6.692   2.334
58262W        W19551  18.576  41.858   2.392
58263W        W19552   4.229  17.160  11.418
58264W        W19553   4.774  32.001   1.934
58265W        W19554  40.006  20.092   0.474
58266W        W19555   4.840   0.764   1.801
58267W        W19556   0.909  37.966  12.823
58268W        W19557  10.736   7.908  13.499
58269W        W19558  30.485  26.961  12.082
58270W        W19559  21.722  25.566   1.222
58271W        W19560  28.623   1.744  12.391
58272W        W19561  32.626   9.223  11.556
58273W        W19562  12.150   2.959  10.907
58274W        W19563  25.147  40.366   2.212
58275W        W19564  30.003   8.689  14.347
58276W        W19565  43.384  10.869   2.678
58277W        W19566   1.382  35.004  10.593
58278W        W19567   6.206  24.564  11.546
58279W        W19568  34.588  13.624  12.361
58280W        W19569  44.956  15.200   1.910
58281W        W19570  40.947   6.330   3.341
58282W        W19571  33.041  22.200   1.312
58283W        W19572  34.400   3.834   0.375
58284W        W19573  15.109  15.696   3.724
58285W        W19574  43.399  14.769   2.884
58286W        W19575  11.798   2.729   5.179
58287W        W19576  44.816  22.152  13.032
58288W        W19577  29.505   2.883   9.570
58289W        W19578   9.331  34.500  14.806
58290W        W19579  18.254  10.776  13.865
58291W        W19580   3.939   3.416  11.001
58292W        W19581  31.518   1.735  14.437
58293W        W19582  16.777   5.339   4.804
58294W        W19583   8.676  20.267  10.466
58295W        W19584   3.437   5.756   4.226
58296W        W19585  20.184   0.448  13.412
58297W        W19586   9.277   1.819  11.875
58298W        W19587   8.330   9.775   0.903
58299W        W19588   8.364  39.808  13.338
58300W        W19589  23.578  18.204  11.428
58301W        W19590  39.422   9.733  14.350
58302W        W19591  18.251  41.790   3.655
58303W        W19592  20.044   8.875  13.458
58304W        W19593  29.973  28.445  12.013
58305W        W19594  43.372  31.005  12.944
58306W        W19595   6.902  40.857   2.400
58307W        W19596  38.500  41.993  13.888
58308W        W19597  16.162   1.241   4.731
58309W        W19598  33.099  33.550  14.382
58310W        W19599  22.732  19.542   4.616
58311W        W19600  13.201   8.405   3.744
58312W        W19601  40.323  13.186   1.763
58313W        W19602  18.128  14.139   1.407
58314W        W19603  38.904  13.690  14.963
58315W        W19604  25.490  39.936   1.338
58316W        W19605  18.571  21.095  13.508
58317W        W19606  26.688  17.093  10.919
58318W        W19607  16.146  22.644  11.443
58319W        W19608  14.306   0.746  13.523
58320W        W19609  26.979  29.665   1.763
58321W        W19610  27.447   2.345  14.966
58322W        W19611  10.658  44.340  11.447
58323W        W19612   6.232  14.190   5.276
58324W        W19613  35.042  22.175   0.271
58325W        W19614  11.689  28.641  12.397
58326W        W19615  28.664  10.183  13.010
58327W        W19616  14.258  20.134  14.816
58328W        W19617  31.423  19.684   2.812
58329W        W19618  35.867  44.928  14.926
58330W        W19619  16.572  28.641  12.868
58331W        W19620  29.630  30.659   2.244
58332W        W19621  34.096  40.311  13.827
58333W        W19622  34.056   8.166   2.885
58334W        W19623   8.675  42.505  12.870
58335W        W19624  38.820  38.073   0.289
58336W        W19625  35.370   2.931   1.824
58337W        W19626  33.591  39.029   1.899
58338W        W19627  19.727  39.820  14.811
58339W        W19628  32.014  29.918   2.270
58340W        W19629  39.513  11.328  13.490
58341W        W19630  17.210   7.365  14.506
58342W        W19631  16.673   0.745   3.867
58343W        W19632   2.815  11.331   1.400
58344W        W19633  41.337   5.357   3.361
58345W        W19634   3.735  29.151   2.218
58346W        W19635  40.538   0.386  12.507
58347W        W19636  44.802  33.480   0.309
58348W        W19637  41.343  40.461  11.509
58349W        W19638   2.248  25.688   2.184
58350W        W19639  14.238   1.738   4.723
58351W        W19640   1.290  41.488  10.623
58352W        W19641   4.256  44.872   4.264
58353W        W19642  44.304  38.898  13.048
58354W        W19643  18.641  40.539  13.875
58355W        W19644   1.898   9.263   3.793
58356W        W19645  12.182  23.169   3.843
58357W        W19646  29.037  27.562  14.330
58358W        W19647   4.447  18.728  13.369
58359W        W19648  20.227   7.674   1.830
58360W        W19649  37.444  40.893  12.409
58361W        W19650  11.274  27.981  14.760
58362W        W19651  26.124  31.977   2.252
58363W        W19652  33.916   4.308   3.726
58364W        W19653  14.145  21.732  13.420
58365W        W19654  40.511  23.172   2.248
58366W        W19655  43.982  38.347  12.547
58367W        W19656  10.237  37.473   4.722
58368W        W19657  37.557   0.872   1.216
58369W        W19658  10.364  20.605   1.378
58370W        W19659  11.656   2.340  14.005
58371W        W19660  33.048   4.305   0.817
58372W        W19661  34.613  41.904  11.403
58373W        W19662   0.815  28.514   3.222
58374W        W19663   2.340  43.269   1.734
58375W        W19664   9.311   4.890   4.255
58376W        W19665   4.741   2.768   0.265
58377W        W19666  43.945   3.900   3.678
58378W        W19667   2.804  37.923   3.671
58379W        W19668  38.886  22.576  12.510
58380W        W19669  15.655  38.066  14.464
58381W        W19670  14.118  26.592   2.894
58382W        W19671  24.540  32.542  11.028
58383W        W19672  27.476  43.896  11.500
58384W        W19673   3.813  38.893  10.520
58385W        W19674  39.865   0.405   1.704
58386W        W19675  25.187   1.821   3.170
58387W        W19676  29.610  42.826   5.129
58388W        W19677  35.031   6.397  14.846
58389W        W19678   2.392  18.074  10.147
58390W        W19679   7.792  16.263   1.236
58391W        W19680   4.387  14.231   0.409
58392W        W19681  33.041  34.014   1.714
58393W        W19682  38.414  25.997   2.712
58394W        W19683  43.011  32.969   3.687
58395W        W19684  28.554  20.637  11.419
58396W        W19685   6.922  33.442  10.456
58397W        W19686   7.233  21.730   0.739
58398W        W19687   9.262   5.917   4.664
58399W        W19688  38.357  20.245   1.909
58400W        W19689   1.467   4.297   4.791
58401W        W19690  32.534  29.480  12.880
58402W        W19691  31.601  15.755   1.722
58403W        W19692  41.001  26.473   2.397
58404W        W19693  30.149  10.793  10.931
58405W        W19694  42.864  25.571   3.735
58406W        W19695   4.370  14.094  13.008
58407W        W19696  38.398   3.768   0.729
58408W        W19697   1.884   8.769  14.306
58409W        W19698  23.677  15.216  13.971
58410W        W19699  44.420   1.890  10.973
58411W        W19700  44.889  43.359   1.779
58412W        W19701  26.660   0.807   4.673
58413W        W19702  10.729  14.172  12.354
58414W        W19703  35.924  27.581  11.419
58415W        W19704  17.689   5.423  14.938
58416W        W19705  16.589  21.142  14.772
58417W        W19706  25.644  19.158  12.949
58418W        W19707  25.553  29.124   0.406
58419W        W19708  12.622  39.361  14.509
58420W        W19709  18.679  44.424  13.805
58421W        W19710   1.859  10.298   2.213
58422W        W19711  18.782   2.468  12.386
58423W        W19712  24.626   5.917   0.247
58424W        W19713  15.820  25.156   0.439
58425W        W19714   8.208  34.919   0.449
58426W        W19715  20.747  13.715  11.072
58427W        W19716  23.529  15.181   0.420
58428W        W19717  20.542  37.395  11.427
58429W        W19718  44.324  34.488  13.332
58430W        W19719  10.165  41.303   4.758
58431W        W19720  27.634  44.342  14.024
58432W        W19721  20.757  21.638   3.283
58433W        W19722  43.984   1.441   0.811
58434W        W19723  19.775  44.866   2.279
58435W        W19724  41.450  36.928   4.809
58436W        W19725  39.852  37.851   2.697
58437W        W19726  39.017  41.302  14.021
58438W        W19727  37.375   7.321  10.921
58439W        W19728  39.447  10.177   2.179
58440W        W19729  19.607  33.891  10.642
58441W        W19730  35.976  13.696   3.352
58442W        W19731  25.162   4.796  13.401
58443W        W19732  11.153   8.777   0.837
58444W        W19733   4.447  42.439  10.459
58445W        W19734  29.609  23.179  13.346
58446W        W19735  37.445   0.408   1.821
58447W        W19736  12.360  14.772  14.494
58448W        W19737  32.994   8.404   0.287
58449W        W19738   2.725  42.360   3.711
58450W        W19739   5.275  30.579  10.511
58451W        W19740   7.891  16.158   4.619
58452W        W19741  28.105  44.449  12.018
58453W        W19742  13.769  19.609   2.252
58454W        W19743  20.181  38.852   0.900
58455W        W19744  29.069   9.354   9.541
58456W        W19745  17.718   5.203   3.749
58457W        W19746  25.171  10.785  12.493
58458W        W19747   0.449  30.465   2.845
58459W        W19748  35.975  19.617  12.893
58460W        W19749  25.195   6.428  10.471
58461W        W19750  35.948  25.168   0.426
58462W        W19751  27.058  27.019  11.991
58463W        W19752  16.127   1.353   3.733
58464W        W19753  27.570  42.339   0.274
58465W        W19754  22.650  22.078   9.920
58466W        W19755   1.861   6.803  12.072
58467W        W19756  20.727  10.756   2.413
58468W        W19757  38.515  38.957  11.569
58469W        W19758  29.601  14.105  14.760
58470W        W19759  26.532  34.967  12.076
58471W        W19760  19.714   7.754   3.335
58472W        W19761  32.391   4.332  14.288
58473W        W19762  39.451  31.430  12.432
58474W        W19763  16.697   8.790   0.956
58475W        W19764  35.925  22.045  13.907
58476W        W19765   8.355   1.954  13.484
58477W        W19766   9.346   8.711  10.956
58478W        W19767  17.673  24.114   4.746
58479W        W19768   5.222  26.083  12.086
58480W        W19769  26.083  15.588  10.997
58481W        W19770   1.802   3.785  12.034
58482W        W19771   5.335  24.501  12.909
58483W        W19772  37.570  16.079   2.221
58484W        W19773  34.542   4.777  13.869
58485W        W19774  37.523  21.615  14.926
58486W        W19775  24.016  34.913   4.670
58487W        W19776  37.567  34.870   3.320
58488W        W19777  21.645   1.774  11.974
58489W        W19778  16.704  18.681  13.455
58490W        W19779  27.114   1.949  14.891
58491W        W19780  17.260  14.338  11.864
58492W        W19781  16.763  15.265  14.965
58493W        W19782  16.152   9.210   3.662
58494W        W19783  22.101  38.500   4.321
58495W        W19784  11.313  31.124   2.270
58496W        W19785  37.060   0.464   2.300
58497W        W19786  15.194  15.812  13.348
58498W        W19787  21.140  38.390   1.835
58499W        W19788   6.341  16.606   1.728
58500W        W19789  33.874   2.436   9.482
58501W        W19790  36.371  16.103  11.070
58502W        W19791   4.762  42.812   1.297
58503W        W19792   0.780  16.666  10.539
58504W        W19793  22.060  43.347  11.514
58505W        W19794  44.002  44.802  14.389
58506W        W19795  25.668  33.123   1.925
58507W        W19796  22.656  14.594  11.606
58508W        W19797  39.501  16.708   0.403
58509W        W19798  36.410  37.022  11.881
58510W        W19799  15.656  44.895   3.778
58511W        W19800  13.642  22.597  11.398
58512W        W19801  25.202   3.736   2.276
58513W        W19802  18.683   1.361  14.431
58514W        W19803  14.678  44.375   3.818
58515W        W19804  11.689  42.439  13.929
58516W        W19805  10.235   8.341  13.978
58517W        W19806   4.362  43.299  12.563
58518W        W19807  11.673   4.441  12.966
58519W        W19808  27.079   4.228   1.782
58520W        W19809  22.731   3.885  14.855
58521W        W19810   1.243  29.074  10.508
58522W        W19811   2.456  24.576   0.790
58523W        W19812   3.913  27.032   1.296
58524W        W19813  12.695  42.945  13.473
58525W        W19814  41.942  38.835   0.760
58526W        W19815  35.965  26.962   3.733
58527W        W19816   9.238   3.804  13.958
58528W        W19817  36.973   4.735   3.313
58529W        W19818  27.961  20.686   0.272
58530W        W19819  20.633  18.295  11.046
58531W        W19820  40.432  16.219   1.351
58532W        W19821   3.777  23.702  14.024
58533W        W19822  31.645  23.571  13.505
58534W        W19823  26.505  40.038   2.402
58535W        W19824  31.588  39.351  14.974
58536W        W19825  38.435  34.910  10.606
58537W        W19826  32.961  36.925   1.787
58538W        W19827   5.355  16.749   1.826
58539W        W19828  36.511  26.661   4.265
58540W        W19829  25.079  24.173   1.286
58541W        W19830  38.509  39.449  14.945
58542W        W19831  13.160  28.671   3.751
58543W        W19832   1.371  23.157   1.319
58544W        W19833  25.169   5.324  12.552
58545W        W19834   6.403   2.753   1.234
58546W        W19835  42.984  29.935   1.249
58547W        W19836  30.911  35.540   1.440
58548W        W19837  25.597  22.132   2.672
58549W        W19838  24.027  42.829   2.180
58550W        W19839  30.636  40.472   1.416
58551W        W19840  21.081  14.262   3.658
58552W        W19841   5.232  34.067   3.229
58553W        W19842  34.089  42.022  10.605
58554W        W19843   1.454   4.892  14.956
58555W        W19844   2.892  38.357   0.269
58556W        W19845  20.755  44.988  11.375
58557W        W19846   6.299  14.195  10.006
58558W        W19847  35.991   7.763   2.257
58559W        W19848  25.690   3.853  13.949
58560W        W19849  43.902  15.148   1.238
58561W        W19850  14.714  11.306  14.397
58562W        W19851  19.162  35.027   3.356
58563W        W19852  43.274   6.257   3.307
58564W        W19853  23.128  30.047  11.115
58565W        W19854   5.295  31.490  13.994
58566W        W19855   7.412   1.280  10.521
58567W        W19856  28.127  15.804  12.501
58568W        W19857   6.220  19.239  13.975
58569W        W19858  14.690  23.045  10.952
58570W        W19859   1.738  21.205  10.043
58571W        W19860   6.223   4.918  13.054
58572W        W19861  34.981  34.409  11.940
58573W        W19862  23.037  24.175   4.795
58574W        W19863  32.906  38.535   4.750
58575W        W19864  37.911  19.197   4.315
58576W        W19865  42.821  22.087  10.599
58577W        W19866  12.639  19.091   3.364
58578W        W19867   6.313  18.727   1.833
58579W        W19868  15.231   6.704   0.449
58580W        W19869   8.268  31.621   1.772
58581W        W19870  25.564  19.713  14.918
58582W        W19871  41.351  37.052   3.229
58583W        W19872   2.344  10.735   1.868
58584W        W19873  19.227  24.709   4.674
58585W        W19874   7.889  20.175   3.350
58586W        W19875  21.253   5.312   4.822
58587W        W19876  29.086  34.470   1.857
58588W        W19877  20.556  39.862   3.781
58589W        W19878   7.264   5.340   2.872
58590W        W19879  27.033  20.102   1.379
58591W        W19880  31.039  32.475  11.432
58592W        W19881  40.930  15.739   0.915
58593W        W19882  28.567   4.394  13.459
58594W        W19883  15.700  44.363   4.173
58595W        W19884  41.500  30.084  14.769
58596W        W19885  11.631   3.918  12.422
58597W        W19886  11.752  25.183   2.228
58598W        W19887  42.943  16.580   1.713
58599W        W19888  44.389  42.905  13.527
58600W        W19889  24.986  31.930  12.063
58601W        W19890  37.448  11.774   3.231
58602W        W19891  28.114  44.345   4.203
58603W        W19892  17.279  40.360   2.733
58604W        W19893  19.590  14.819  13.361
58605W        W19894  43.806  17.560  13.979
58606W        W19895  30.655  20.181   0.398
58607W        W19896   9.808   7.873   0.738
58608W        W19897  36.550  24.017   2.670
58609W        W19898  44.496  24.087  14.859
58610W        W19899  43.822  37.435  11.971
58611W        W19900  44.776  31.485  13.923
58612W        W19901  40.331  23.610   2.681
58613W        W19902   0.288  42.307  13.911
58614W        W19903  30.522   0.284  11.507
58615W        W19904   6.759   2.353  13.943
58616W        W19905  41.361  34.068   4.757
58617W        W19906  10.365  35.385  11.391
58618W        W19907  33.895  34.012   1.312
58619W        W19908  36.879  11.174   2.317
58620W        W19909  13.738  28.523  12.375
58621W        W19910  38.972  41.041  12.984
58622W        W19911  25.468  33.494   1.930
58623W        W19912  22.699  17.135  14.384
58624W        W19913   7.272   7.877   2.692
58625W        W19914  37.358  22.151   2.201
58626W        W19915  19.248  19.046   4.160
58627W        W19916  31.060  25.654   0.885
58628W        W19917   9.881   3.381  14.865
58629W        W19918   8.228  43.272  14.498
58630W        W19919   3.339  31.101   1.313
58631W        W19920  11.159   6.793  14.332
58632W        W19921  33.948  38.459   1.792
58633W        W19922  24.020  35.911  14.360
58634W        W19923   9.757  20.637   1.327
58635W        W19924  19.650  17.214   2.771
58636W        W19925  11.848  10.827  10.510
58637W        W19926  13.762  17.289  14.347
58638W        W19927  30.584  36.023   2.245
58639W        W19928  18.226  12.218  14.979
58640W        W19929  30.923  13.122   0.380
58641W        W19930  10.229  10.216  11.491
58642W        W19931  38.326  44.351   1.257
58643W        W19932  24.058  28.496   0.451
58644W        W19933  22.229   3.406  12.378
58645W        W19934   7.670  13.142   3.870
58646W        W19935  42.525   8.186   2.750
58647W        W19936  29.508  22.212  14.003
58648W        W19937  17.781  12.259  10.501
58649W        W19938  25.526  41.030   4.809
58650W        W19939   0.285  35.451   0.322
58651W        W19940  23.541  27.532   0.333
58652W        W19941  14.150  14.245  13.462
58653W        W19942  15.789  17.720   0.281
58654W        W19943  15.229  13.622   4.634
58655W        W19944   1.844  36.988  14.001
58656W        W19945   6.404  36.865  14.819
58657W        W19946  10.835  34.894  13.423
58658W        W19947  29.577  13.779  12.507
58659W        W19948   5.281  35.530   3.825
58660W        W19949  11.349  41.345   4.821
58661W        W19950  11.221  25.136   4.118
58662W        W19951   3.267  14.725   3.806
58663W        W19952  22.712  36.949   2.189
58664W        W19953  11.142  13.348  13.349
58665W        W19954  22.668  10.695   0.895
58666W        W19955   5.378  42.948   1.433
58667W        W19956   2.238  18.660   1.431
58668W        W19957  37.465   5.262   3.788
58669W        W19958  44.817  27.558  10.499
58670W        W19959  24.201  32.886   4.696
58671W        W19960  32.107  16.314  11.950
58672W        W19961  38.539  37.574   2.837
58673W        W19962  18.695  22.079   5.096
58674W        W19963  21.550  27.080   4.768
58675W        W19964  14.204  18.167  11.885
58676W        W19965   7.782  40.988   2.260
58677W        W19966   7.682  32.904  14.026
58678W        W19967  12.783   2.355  11.383
58679W        W19968  15.199   9.361  11.062
58680W        W19969  42.312  41.970  12.399
58681W        W19970  42.993  35.904  10.122
58682W        W19971   6.265  25.710  14.395
58683W        W19972  31.634  28.088   4.118
58684W        W19973   4.282  13.778   2.352
58685W        W19974  35.535  23.000   1.816
58686W        W19975  15.194  17.180   1.253
58687W        W19976  21.628  27.516  11.082
58688W        W19977   1.967  42.446   0.769
58689W        W19978  16.708  33.576   4.760
58690W        W19979  29.605   4.879  10.434
58691W        W19980  16.191  40.358   3.215
58692W        W19981  35.496   3.856   1.355
58693W        W19982  24.672  25.541   5.087
58694W        W19983  29.653  11.671  11.981
58695W        W19984  31.510  19.545  14.481
58696W        W19985   1.328  33.384   4.757
58697W        W19986  14.816  13.135   1.702
58698W        W19987  36.072  41.352  12.003
58699W        W19988   0.459  40.811   3.347
58700W        W19989  25.542  25.701   3.237
58701W        W19990  20.185  22.701  12.449
58702W        W19991  34.534  43.974   1.264
58703W        W19992   3.727  42.947  12.900
58704W        W19993   0.791  38.360   4.755
58705W        W19994  30.956  37.355  14.407
58706W        W19995  11.647  25.641   2.807
58707W        W19996  13.725  20.577  11.378
58708W        W19997   6.316  40.811   0.859
58709W        W19998  33.019  39.490  12.878
58710W        W19999  17.251  44.984  14.768
58711W        W20000   9.660   6.259   2.775
58712W        W20001   0.955  22.607   4.316
58713W        W20002   0.412  39.389  11.447
58714W        W20003  16.706  37.564  11.463
58715W        W20004   4.720  27.136  14.425
58716W        W20005  27.493  33.382  13.393
58717W        W20006  36.967   3.340   1.771
58718W        W20007   9.257  41.362   0.245
58719W        W20008   5.761  38.367   3.192
58720W        W20009  40.838  11.702  13.796
58721W        W20010  40.499   0.272  10.038
58722W        W20011  15.749   0.794  11.484
58723W        W20012  32.543   9.747   2.743
58724W        W20013   1.831  41.854   5.133
58725W        W20014   1.755   3.737  14.385
58726W        W20015  38.849  40.861  10.444
58727W        W20016  35.991  21.688   2.213
58728W        W20017  36.425  12.795  12.343
58729W        W20018  39.494   2.856   2.901
58730W        W20019  10.230   5.384  14.318
58731W        W20020  37.958  19.151  11.858
58732W        W20021  15.116  24.075  13.053
58733W        W20022  13.618   4.393  13.347
58734W        W20023  12.215   0.918  11.460
58735W        W20024  31.425  31.010  12.044
58736W        W20025  34.895  17.207  14.830
58737W        W20026  38.402   8.753  13.055
58738W        W20027   5.701  23.020   1.774
58739W        W20028  26.151   4.235  13.812
58740W        W20029  44.304  40.545  12.557
58741W        W20030  43.942  12.644  12.057
58742W        W20031  22.217   7.687  11.914
58743W        W20032  20.596   8.272   2.810
58744W        W20033  28.504   5.717  13.506
58745W        W20034   4.904  40.890   4.748
58746W        W20035  32.033  22.543   2.192
58747W        W20036  31.405  20.689  12.884
58748W        W20037   9.258   2.278  13.342
58749W        W20038   4.870   5.342  12.379
58750W        W20039  22.566  43.876  12.515
58751W        W20040  28.477  10.379   2.277
58752W        W20041  13.650  38.348  12.830
58753W        W20042  31.120  35.061   3.343
58754W        W20043  32.496  40.363   9.929
58755W        W20044   3.918  29.151   4.190
58756W        W20045  44.794  42.355  13.972
58757W        W20046  36.347  31.421   3.854
58758W        W20047  18.638  39.977  13.864
58759W        W20048  42.009   6.234  12.036
58760W        W20049  41.035   8.874   4.194
58761W        W20050  29.553  24.035   4.290
58762W        W20051  32.452   2.427   0.889
58763W        W20052  20.689  12.824   2.774
58764W        W20053  43.335  12.148  13.341
58765W        W20054  19.101  22.163  12.033
58766W        W20055   0.450  43.897  11.586
58767W        W20056  25.205  14.729  12.405
58768W        W20057  15.662  28.941   2.298
58769W        W20058   3.382  33.907   3.852
58770W        W20059  17.711  12.819   0.783
58771W        W20060  18.071   3.920   0.307
58772W        W20061   7.272  31.962   4.730
58773W        W20062  36.986   7.172  13.542
58774W        W20063  23.210  35.942   2.270
58775W        W20064  13.795   4.794  11.468
58776W        W20065  11.290  22.721  13.922
58777W        W20066  26.690  21.680  14.846
58778W        W20067  43.301  41.955  12.552
58779W        W20068  44.844  29.090  12.376
58780W        W20069  16.247  16.798  13.346
58781W        W20070  18.124  38.874   3.845
58782W        W20071   3.456  28.950   3.785
58783W        W20072   4.284  44.258  11.552
58784W        W20073   9.375  15.760   2.861
58785W        W20074  24.004  16.211   4.216
58786W        W20075   9.805  32.487   1.301
58787W        W20076  41.525   3.393  12.842
58788W        W20077  20.103  38.481   1.796
58789W        W20078  14.751  12.825   1.818
58790W        W20079  19.580   2.266  14.951
58791W        W20080  14.294   1.459   0.297
58792W        W20081  37.967  14.323   1.425
58793W        W20082  43.512  40.449  14.880
58794W        W20083  10.804  35.926   4.724
58795W        W20084  14.829  39.046   4.761
58796W        W20085  28.065  43.383   3.641
58797W        W20086  33.989  24.218  11.939
58798W        W20087   3.342   8.695  14.916
58799W        W20088  43.376  42.837   1.855
58800W        W20089   3.380  34.406   2.374
58801W        W20090  11.814  36.442   3.685
58802W        W20091  15.295  10.817   3.187
58803W        W20092   6.814  29.560  13.483
58804W        W20093   5.396  20.185  12.532
58805W        W20094  10.861  38.840   0.438
58806W        W20095   9.178  26.145   4.807
58807W        W20096  37.432  12.208   4.832
58808W        W20097  20.184  17.243  12.939
58809W        W20098  24.998  36.870  12.970
58810W        W20099  36.981  12.753   0.759
58811W        W20100  32.564   9.838   0.911
58812W        W20101  18.635  21.201   1.924
58813W        W20102  24.070  14.139   2.873
58814W        W20103  41.980  16.580   3.769
58815W        W20104  14.717  24.124  10.088
58816W        W20105  15.656  33.568   4.328
58817W        W20106  36.026   7.722   1.877
58818W        W20107  28.535  40.865   1.784
58819W        W20108  11.768  27.144   2.247
58820W        W20109  36.867  11.141  13.422
58821W        W20110  29.465  11.724  14.022
58822W        W20111  11.789  28.970   3.796
58823W        W20112   7.247  39.931   0.399
58824W        W20113  31.468  34.499  12.471
58825W        W20114   6.253  17.713   4.727
58826W        W20115  33.070  29.158  14.764
58827W        W20116  36.478  29.441   0.842
58828W        W20117   6.263  22.712   2.681
58829W        W20118  41.379  19.566  13.483
58830W        W20119  36.042  26.194  13.952
58831W        W20120  43.788  15.631   9.937
58832W        W20121   8.236  39.401   0.780
58833W        W20122  29.981  37.354   3.870
58834W        W20123  29.011   7.211  12.568
58835W        W20124  17.304  31.427   2.671
58836W        W20125  14.174  32.505   0.957
58837W        W20126  19.053  28.057  11.924
58838W        W20127   3.799   6.383  10.476
58839W        W20128  12.826  29.632  12.050
58840W        W20129  17.073   4.775   0.382
58841W        W20130  27.676   3.383  13.801
58842W        W20131   6.289  28.095  13.866
58843W        W20132  38.856   4.769   1.848
58844W        W20133   0.761   6.793  13.418
58845W        W20134  10.314   1.263  13.817
58846W        W20135  34.090  16.776  13.498
58847W        W20136  40.962  41.024  13.913
58848W        W20137  11.147  14.193   1.709
58849W        W20138   0.446  44.270   2.680
58850W        W20139  37.580  30.973  10.591
58851W        W20140  21.688  19.197   0.956
58852W        W20141  14.734  39.962  12.896
58853W        W20142  16.194  31.074   3.748
58854W        W20143   7.776  21.158  10.550
58855W        W20144  29.977  33.478  11.605
58856W        W20145  12.823  39.950  10.932
58857W        W20146  18.557  39.971  11.502
58858W        W20147  43.287   5.415  14.426
58859W        W20148  14.621  29.515   1.838
58860W        W20149   7.240  20.170  14.465
58861W        W20150  41.870  17.096   0.374
58862W        W20151  35.869  31.098   2.754
58863W        W20152  25.646  21.190   4.301
58864W        W20153  11.146  44.369   1.363
58865W        W20154  35.091  37.014   0.473
58866W        W20155  27.041  28.081   1.323
58867W        W20156  39.998  27.692   1.382
58868W        W20157  27.687  30.963   2.374
58869W        W20158  11.735  17.727   3.288
58870W        W20159  32.472  14.315   2.382
58871W        W20160  31.466   0.483   3.251
58872W        W20161  12.317  41.314  14.868
58873W        W20162   3.441  35.576  11.469
58874W        W20163  44.951   6.224   2.739
58875W        W20164  15.288  10.200   3.844
58876W        W20165  23.641  28.988  14.464
58877W        W20166  30.439  19.146  11.903
58878W        W20167  44.378  38.033   4.210
58879W        W20168   9.197   0.745   4.744
58880W        W20169  12.838   5.859   0.438
58881W        W20170   8.294  29.432   0.955
58882W        W20171   6.255  39.381   2.242
58883W        W20172  36.456   8.381  12.347
58884W        W20173  31.121  12.244  14.363
58885W        W20174   7.403   0.444  14.903
58886W        W20175   2.366  39.059   0.285
58887W        W20176  14.659  26.532  13.847
58888W        W20177  30.148  41.034  13.818
58889W        W20178  14.723  35.977   9.996
58890W        W20179  31.525  12.127  14.871
58891W        W20180   7.725  20.077   0.384
58892W        W20181  25.556  37.524   3.234
58893W        W20182  27.690  13.605   4.715
58894W        W20183   4.860  34.073   1.790
58895W        W20184  24.102  14.095  13.547
58896W        W20185  39.349  32.445  11.051
58897W        W20186  32.529  44.828  12.418
58898W        W20187  19.139  36.971   0.369
58899W        W20188  27.075  20.058  14.510
58900W        W20189  14.723  41.921  12.839
58901W        W20190  19.627  19.224   3.720
58902W        W20191  15.131  39.424  14.916
58903W        W20192  33.419  12.670   4.293
58904W        W20193  11.783  15.779  12.084
58905W        W20194  34.969  42.345   3.817
58906W        W20195  44.804   6.716  13.382
58907W        W20196  24.626   2.358   4.707
58908W        W20197  42.402   7.789   2.674
58909W        W20198  29.505  26.703  12.408
58910W        W20199  35.856  35.042   2.379
58911W        W20200  37.951  39.439  12.520
58912W        W20201  18.616  41.305   2.830
58913W        W20202  34.116  31.070  10.889
58914W        W20203  23.527  32.471  14.001
58915W        W20204  24.538  44.867   0.323
58916W        W20205  17.214  14.172   5.308
58917W        W20206  25.468   1.952   0.321
58918W        W20207  26.621   2.319  11.057
58919W        W20208  33.556  41.979   1.830
58920W        W20209  35.473  18.659   2.729
58921W        W20210   5.929  27.462  13.357
58922W        W20211   7.406  18.694   3.642
58923W        W20212  14.094  21.218  13.414
58924W        W20213  25.653  41.337   0.740
58925W        W20214  18.555  15.136   4.211
58926W        W20215  38.979   8.382   4.763
58927W        W20216  35.958  19.108  10.474
58928W        W20217  12.174  35.583  12.357
58929W        W20218  39.509  32.110  14.787
58930W        W20219  18.090   9.254   2.233
58931W        W20220  16.179  20.569   3.819
58932W        W20221   5.433   9.859   4.135
58933W        W20222  36.908  25.488  12.496
58934W        W20223  39.456  18.546   4.814
58935W        W20224   0.332  19.542  14.923
58936W        W20225   6.300   9.690  12.967
58937W        W20226  36.091  38.826   4.768
58938W        W20227  40.923  22.251  14.434
58939W        W20228   0.437  20.679  13.397
58940W        W20229  36.508   3.453   5.117
58941W        W20230   9.212  12.223  14.371
58942W        W20231  19.096  27.545  14.908
58943W        W20232  37.530  33.587   4.350
58944W        W20233   6.806   3.854  12.928
58945W        W20234  36.897  42.477  14.280
58946W        W20235  15.719   9.688  11.471
58947W        W20236  43.502  11.706  12.086
58948W        W20237  28.546  15.641  14.470
58949W        W20238  42.985  31.992   2.408
58950W        W20239  19.661   7.230   0.442
58951W        W20240   3.719   9.383   1.879
58952W        W20241  11.190  33.052   1.430
58953W        W20242  14.783  13.350   3.683
58954W        W20243  22.517   4.218   3.675
58955W        W20244  42.884  31.024  12.506
58956W        W20245  17.582  38.065  14.771
58957W        W20246  23.166  19.066  11.425
58958W        W20247  31.908   0.965   3.857
58959W        W20248  18.153  25.090  12.889
58960W        W20249  39.394   6.766   3.381
58961W        W20250   4.878  31.976  10.411
58962W        W20251  36.588   9.300  10.570
58963W        W20252  35.400  11.252   1.883
58964W        W20253   2.252  36.924   0.456
58965W        W20254   0.387  18.634   2.821
58966W        W20255   4.747  11.345   2.419
58967W        W20256  20.653  33.416   4.226
58968W        W20257  25.488  20.608  14.275
58969W        W20258   9.732   6.770   0.251
58970W        W20259  20.702  27.990  13.370
58971W        W20260  11.234  35.991  12.002
58972W        W20261  36.475   4.726  11.967
58973W        W20262  27.673   1.370   1.771
58974W        W20263  29.011  26.544   1.354
58975W        W20264  27.545  29.175   1.850
58976W        W20265  15.760  17.282   3.630
58977W        W20266  43.455  23.680  12.384
58978W        W20267   1.789  43.869   2.290
58979W        W20268  21.258  12.719   2.327
58980W        W20269  18.289  40.050  12.055
58981W        W20270   1.858  15.193  13.534
58982W        W20271  33.970  40.496   1.763
58983W        W20272  30.620  10.234   2.249
58984W        W20273  33.477  20.270  12.871
58985W        W20274  26.205  27.943   0.393
58986W        W20275  12.826  32.920   0.264
58987W        W20276   8.190  32.570  13.409
58988W        W20277  22.212  37.378  11.044
58989W        W20278  41.337  22.046   0.748
58990W        W20279   3.260  35.903   2.181
58991W        W20280  39.374   8.796   2.895
58992W        W20281  22.019  22.114  12.441
58993W        W20282   0.486   9.674   3.750
58994W        W20283  44.291  25.091  11.977
58995W        W20284  32.594   3.743  10.928
58996W        W20285   3.314  27.130   1.767
58997W        W20286   4.338  13.603  12.029
58998W        W20287  32.087  18.623   1.871
58999W        W20288  41.900  42.778  13.864
59000W        W20289  38.905  14.258   1.925
59001W        W20290   8.835  25.594  11.030
59002W        W20291  34.909  40.362  12.078
59003W        W20292  29.668  37.836  12.912
59004W        W20293  33.983  38.551   3.842
59005W        W20294  20.076  10.313   2.803
59006W        W20295  17.583  16.733   3.171
59007W        W20296  25.064  43.455  12.923
59008W        W20297  39.335  44.332   2.391
59009W        W20298  22.242  32.091  13.484
59010W        W20299   2.905  33.094   1.856
59011W        W20300  26.114  12.361  12.869
59012W        W20301  10.766  19.180   3.360
59013W        W20302   6.376  26.458   2.792
59014W        W20303  28.551  15.761   2.265
59015W        W20304   9.379  27.980   5.186
59016W        W20305   4.735   5.762   1.711
59017W        W20306  27.189   3.424  11.086
59018W        W20307  36.429  10.656   2.732
59019W        W20308  24.692  25.629  12.417
59020W        W20309   5.856  30.985  14.408
59021W        W20310   0.477   5.718   4.353
59022W        W20311  25.207  31.531  10.914
59023W        W20312  21.110  34.885  11.891
59024W        W20313   7.679  10.833   1.423
59025W        W20314   3.757  20.685  12.496
59026W        W20315  41.494  32.889   0.390
59027W        W20316  44.371  34.966  13.887
59028W        W20317  26.633   4.869   2.365
59029W        W20318  11.763  44.978  13.906
59030W        W20319  42.919  33.426   0.451
59031W        W20320  22.233  35.367  14.375
59032W        W20321  41.858  38.028   1.395
59033W        W20322  24.166  31.008   1.847
59034W        W20323  10.743  42.414   2.839
59035W        W20324  18.171   3.850   4.612
59036W        W20325  32.555  44.008  13.027
59037W        W20326  44.894  24.022  13.042
59038W        W20327  11.330  40.950   4.832
59039W        W20328  31.101  18.152   3.788
59040W        W20329  37.470  41.940  11.949
59041W        W20330   2.319  14.683  11.104
59042W        W20331  23.729  12.204  11.061
59043W        W20332  18.237   3.219   4.759
59044W        W20333  42.350  14.637   2.704
59045W        W20334  39.001  12.265  11.020
59046W        W20335  17.632   5.282  11.425
59047W        W20336   3.360  38.885   1.423
59048W        W20337  21.043  33.035  12.526
59049W        W20338   6.393  36.030   3.150
59050W        W20339   3.386  15.675   3.804
59051W        W20340  42.840  10.213   1.874
59052W        W20341   8.749  37.501   2.676
59053W        W20342  15.810  44.864   1.339
59054W        W20343  15.295  22.637  14.283
59055W        W20344  23.677  16.615   0.762
59056W        W20345  36.073  14.239   3.364
59057W        W20346  31.059  35.881  12.932
59058W        W20347  13.328  26.685   2.355
59059W        W20348  15.123   7.668   2.264
59060W        W20349  11.791   4.699   2.844
59061W        W20350   1.474  15.603   4.140
59062W        W20351  17.555  42.874   0.904
59063W        W20352   4.831   8.259  10.621
59064W        W20353   3.819  35.998   1.790
59065W        W20354  40.849  41.388  10.404
59066W        W20355  21.183  28.546   2.835
59067W        W20356   4.899  32.559   2.704
59068W        W20357  22.627  37.484  11.036
59069W        W20358  28.022  13.828   4.829
59070W        W20359  40.829  14.269   1.742
59071W        W20360   5.261   8.848  11.892
59072W        W20361  15.106  39.486   4.343
59073W        W20362  44.860  19.646  11.889
59074W        W20363  44.871   9.187   3.704
59075W        W20364  37.540   7.250   2.765
59076W        W20365  13.244  29.918   1.293
59077W        W20366  23.716  26.000  11.865
59078W        W20367  19.258  38.970   4.141
59079W        W20368  29.922  14.202   1.914
59080W        W20369  19.711  32.131  10.431
59081W        W20370  19.139  41.343   2.256
59082W        W20371  38.943  31.947  14.813
59083W        W20372  41.816   7.785   4.354
59084W        W20373  29.093   9.372   2.318
59085W        W20374  22.158  37.956  13.877
59086W        W20375  27.662   2.779   1.311
59087W        W20376   1.349  18.587   0.314
59088W        W20377   6.852  37.565  14.364
59089W        W20378  24.527   2.770  11.120
59090W        W20379  27.116  42.953  13.996
59091W        W20380   6.294  15.793   1.219
59092W        W20381  29.939   0.944  14.972
59093W        W20382  30.525  26.695  12.074
59094W        W20383  39.821  14.259   1.904
59095W        W20384   8.708  11.254   2.188
59096W        W20385  17.608  16.721  10.560
59097W        W20386  27.956  30.916   2.198
59098W        W20387  16.623  34.555  13.459
59099W        W20388  43.880   8.341   2.839
59100W        W20389  25.645  26.118   2.819
59101W        W20390  17.615  20.236  13.403
59102W        W20391  31.543  34.863   4.142
59103W        W20392  31.987  18.586   0.457
59104W        W20393  33.597  34.038   0.957
59105W        W20394  34.527  24.622  11.927
59106W        W20395  19.227  32.964  13.458
59107W        W20396  43.470   9.301  14.020
59108W        W20397  10.664  35.490   0.434
59109W        W20398  37.852  44.832   0.423
59110W        W20399  23.592  42.032   4.834
59111W        W20400  17.709   5.397   2.674
59112W        W20401  43.467  30.034   0.408
59113W        W20402  18.566  21.207  14.828
59114W        W20403  43.423  17.290   1.909
59115W        W20404  13.344  10.815  10.906
59116W        W20405  33.590   8.406   3.353
59117W        W20406  44.463  24.516   4.129
59118W        W20407   5.814  36.392  13.027
59119W        W20408  33.430  10.347  14.343
59120W        W20409  21.608  44.415  10.456
59121W        W20410   8.325   1.264  12.512
59122W        W20411  26.651  15.760   0.787
59123W        W20412  44.487   0.772   5.126
59124W        W20413  20.614  32.096   3.300
59125W        W20414  34.576  14.156  12.557
59126W        W20415  18.258  34.077  11.910
59127W        W20416  10.738  22.146   3.733
59128W        W20417  30.125  42.435  10.593
59129W        W20418  35.461  20.220  14.326
59130W        W20419  25.002   5.822  13.371
59131W        W20420  36.957  23.515  10.501
59132W        W20421  32.456  35.367  12.901
59133W        W20422  33.091   2.356   0.764
59134W        W20423  34.457  19.157   0.270
59135W        W20424   0.482  26.661   0.791
59136W        W20425   6.245  23.114   4.599
59137W        W20426  18.165  26.188  14.463
59138W        W20427  37.414  27.632   2.349
59139W        W20428  15.683  28.119   4.676
59140W        W20429   0.832  31.553   1.722
59141W        W20430  38.895  37.839   1.876
59142W        W20431  26.154  17.668   4.168
59143W        W20432  14.251  26.131   1.883
59144W        W20433  27.049  41.867   1.224
59145W        W20434   4.877  40.392   0.412
59146W        W20435  25.533  14.272  14.490
59147W        W20436  13.254  31.021  14.837
59148W        W20437  36.074  30.156  14.473
59149W        W20438   1.775  35.853  11.906
59150W        W20439  34.913  38.496   4.764
59151W        W20440  42.905  23.490  14.897
59152W        W20441  26.054  24.199   1.742
59153W        W20442  38.912  41.510  12.862
59154W        W20443   3.283  11.127   2.309
59155W        W20444  32.588  31.063  12.826
59156W        W20445  19.696   8.355  12.535
59157W        W20446  29.456   9.332   2.881
59158W        W20447  23.161   1.272   0.441
59159W        W20448   0.485  24.599   4.628
59160W        W20449   5.858  39.435  13.529
59161W        W20450  16.576  17.284  10.567
59162W        W20451  12.735  16.657   2.808
59163W        W20452   7.801  10.355   4.723
59164W        W20453   6.856   0.302   1.340
59165W        W20454   7.734  33.000   0.310
59166W        W20455  26.124  19.549   4.706
59167W        W20456   4.831  22.128  14.439
59168W        W20457  13.123   6.319  13.480
59169W        W20458  21.750  27.161   4.181
59170W        W20459  26.542  11.843   5.262
59171W        W20460  21.204  25.178  12.023
59172W        W20461  13.123  13.108  14.893
59173W        W20462  33.537  34.989  13.391
59174W        W20463  12.159   4.305   0.444
59175W        W20464  31.903  36.436  14.819
59176W        W20465  17.619  37.851  10.489
59177W        W20466   9.707   0.978   2.210
59178W        W20467  28.125  36.476  13.029
59179W        W20468  16.699  23.221   4.695
59180W        W20469  36.419  39.949  10.897
59181W        W20470  36.974  32.532   3.633
59182W        W20471  40.811  25.040   1.718
59183W        W20472  28.512  14.176   1.826
59184W        W20473  12.772  26.000  12.901
59185W        W20474  39.322  40.984   1.258
59186W        W20475   7.856  10.735   3.162
59187W        W20476   9.728  36.582  11.053
59188W        W20477   5.289  41.408   5.304
59189W        W20478   7.676  15.130  12.393
59190W        W20479  18.738   7.912  13.409
59191W        W20480   4.721   9.672  12.391
59192W        W20481  15.770  43.850   2.389
59193W        W20482  30.932  10.640   4.131
59194W        W20483  16.073  19.702   2.238
59195W        W20484   8.873  32.427   2.227
59196W        W20485  39.456  10.728   0.928
59197W        W20486  38.009  31.490   4.322
59198W        W20487  14.628  13.340  14.464
59199W        W20488  21.255  28.024  11.516
59200W        W20489  28.607  32.507  11.066
59201W        W20490  20.055  41.310  12.063
59202W        W20491  31.144  19.069   1.749
59203W        W20492  34.388  31.014   2.355
59204W        W20493  20.621  34.477  12.899
59205W        W20494  43.407  24.033   1.438
59206W        W20495  30.124  13.802  11.573
59207W        W20496  22.066  27.670  11.414
59208W        W20497  14.820   0.412  14.021
59209W        W20498  18.209  44.449   4.711
59210W        W20499  18.196  34.987  11.879
59211W        W20500  34.942   2.353   3.226
59212W        W20501  22.051  22.135   5.627
59213W        W20502  17.072  28.576  11.391
59214W        W20503  34.506  18.073  14.956
59215W        W20504  12.326   1.855   4.690
59216W        W20505  39.438  14.104  10.904
59217W        W20506   2.357  42.370  11.011
59218W        W20507   4.295  14.127  14.008
59219W        W20508   3.767   0.312  11.419
59220W        W20509  41.496  17.659   0.445
59221W        W20510  25.711  31.521  14.925
59222W        W20511  31.013   6.248  14.894
59223W        W20512  21.551  43.325  13.335
59224W        W20513   8.230   4.930  11.997
59225W        W20514  44.396   5.720  12.472
59226W        W20515  41.311  30.423  12.025
59227W        W20516  39.896  35.022   0.801
59228W        W20517   0.797  12.129  14.401
59229W        W20518   9.757  36.554   3.235
59230W        W20519  37.022  32.528   1.330
59231W        W20520  31.938  33.026  10.108
59232W        W20521  19.079  18.162   0.305
59233W        W20522  13.716  11.754  14.333
59234W        W20523   4.859  36.358  12.827
59235W        W20524  12.334   8.359   0.771
59236W        W20525   4.276  41.839  13.371
59237W        W20526  41.928  33.474  13.382
59238W        W20527  21.212  15.318  11.008
59239W        W20528  39.550  44.831   1.827
59240W        W20529  25.615  42.916  12.484
59241W        W20530  12.269  22.038  11.395
59242W        W20531  41.800  15.617   1.698
59243W        W20532  22.076  38.057  13.473
59244W        W20533  38.826  39.914   3.747
59245W        W20534  32.036  42.397  10.545
59246W        W20535  20.583   7.326  11.994
59247W        W20536   7.298  15.763  12.949
59248W        W20537  27.515  37.551  14.853
59249W        W20538  33.449  20.569   4.272
59250W        W20539  26.110  15.641   3.848
59251W        W20540   4.286  35.022  11.999
59252W        W20541  27.500  26.181   2.727
59253W        W20542  29.448  27.094   4.175
59254W        W20543  11.367  33.986  13.382
59255W        W20544  28.184   0.256   9.929
59256W        W20545  35.015  15.122   4.647
59257W        W20546  11.656  40.831  13.424
59258W        W20547  10.181  44.854   3.165
59259W        W20548  24.524   4.854   1.813
59260W        W20549  13.339  21.203   0.331
59261W        W20550  31.404  35.430   0.918
59262W        W20551  34.974  32.977  14.005
59263W        W20552  31.445   6.769  14.763
59264W        W20553  35.031   8.659  10.412
59265W        W20554  41.950   4.773   1.442
59266W        W20555   7.796   1.390   1.747
59267W        W20556  34.525   0.933  12.390
59268W        W20557  22.741  20.642   4.814
59269W        W20558  37.016  37.919  11.473
59270W        W20559  44.405  43.006  11.129
59271W        W20560   8.403  22.716  14.771
59272W        W20561  43.979  36.420  13.463
59273W        W20562  26.203  31.911   4.677
59274W        W20563   5.805  16.205   0.287
59275W        W20564  33.090   4.702   5.211
59276W        W20565   0.481  17.295   4.806
59277W        W20566  43.014   8.224   1.424
59278W        W20567  32.003  39.435   4.726
59279W        W20568  12.342  34.964  13.413
59280W        W20569  43.932  16.188   4.312
59281W        W20570  19.052  35.527   1.219
59282W        W20571  11.671  17.127  10.042
59283W        W20572   4.826  41.504   1.349
59284W        W20573  16.723   2.943  14.369
59285W        W20574   2.270  31.000   1.295
59286W        W20575  27.671   3.388   5.238
59287W        W20576  13.278  17.790  13.973
59288W        W20577  33.092  26.651  14.907
59289W        W20578  42.324   7.849  11.508
59290W        W20579  17.300  42.301   2.266
59291W        W20580  10.786  17.263   3.221
59292W        W20581  44.835  44.978   3.797
59293W        W20582   8.391   7.700  11.906
59294W        W20583   0.291  25.653  13.011
59295W        W20584   9.171  32.105   0.355
59296W        W20585  34.930   4.281   1.738
59297W        W20586  15.706  40.822   0.306
59298W        W20587  30.955  35.474  13.816
59299W        W20588   7.846  20.050  12.012
59300W        W20589  24.654  18.236   3.330
59301W        W20590  40.357   1.813   1.238
59302W        W20591  38.030  12.837   1.849
59303W        W20592  23.655  24.166   0.440
59304W        W20593  15.193  18.666  13.025
59305W        W20594   7.729  29.138   0.285
59306W        W20595   7.757  10.151   3.207
59307W        W20596   5.300  32.615  10.569
59308W        W20597  38.861   4.852   1.376
59309W        W20598   1.430   2.817   4.762
59310W        W20599  15.602  19.283   3.336
59311W        W20600   9.690  11.161   1.812
59312W        W20601  40.478   4.899   1.834
59313W        W20602  20.226  35.898   2.866
59314W        W20603  28.604  36.886   3.847
59315W        W20604   9.363  41.857  13.024
59316W        W20605   1.798  21.105   1.250
59317W        W20606  29.510  26.473   2.418
59318W        W20607  26.478   5.408   3.298
59319W        W20608  37.016  38.493  11.544
59320W        W20609  32.444  18.663   3.765
59321W        W20610  20.539  44.486  11.918
59322W        W20611  19.662  36.911   3.669
59323W        W20612   1.944   8.185   3.213
59324W        W20613   3.899   4.799   1.773
59325W        W20614  31.008  28.133   4.728
59326W        W20615  16.592  16.183   3.264
59327W        W20616  16.680  13.661   1.827
59328W        W20617   3.239  22.739  13.307
59329W        W20618  26.018  42.506  13.010
59330W        W20619  14.645  15.258   3.172
59331W        W20620  30.507  16.307   2.725
59332W        W20621   6.226  41.292   0.353
59333W        W20622  18.107  35.910   3.787
59334W        W20623  20.731   5.781   4.602
59335W        W20624  33.543  43.967  12.517
59336W        W20625  43.939   6.188   4.713
59337W        W20626  27.655  10.678   3.674
59338W        W20627  37.832  35.502   3.760
59339W        W20628  39.412   6.684   1.748
59340W        W20629  15.304  33.939   1.718
59341W        W20630  10.376   6.397   1.426
59342W        W20631  18.164  18.067  11.998
59343W        W20632  27.976   4.209  11.526
59344W        W20633   2.365  44.974   2.887
59345W        W20634  15.619   5.259   3.803
59346W        W20635  36.990  14.647   1.778
59347W        W20636  32.908   1.272  14.866
59348W        W20637  35.443  24.500  13.824
59349W        W20638  13.136  15.183   3.844
59350W        W20639  13.690   2.232  12.571
59351W        W20640  37.447  23.000  13.488
59352W        W20641  32.498   8.280   3.369
59353W        W20642  20.054   9.874  14.843
59354W        W20643  12.151  14.250   4.605
59355W        W20644  32.606  31.151  12.357
59356W        W20645  31.919   4.246  11.925
59357W        W20646   3.348  34.601   4.639
59358W        W20647  41.430  32.493  14.783
59359W        W20648  39.446   9.223  12.052
59360W        W20649   4.726  25.041   1.786
59361W        W20650  20.695  22.105  10.449
59362W        W20651  36.369   3.460   1.845
59363W        W20652  27.150  29.660   3.216
59364W        W20653   7.366  41.990  12.526
59365W        W20654  16.151  30.007   4.606
59366W        W20655  21.024  39.405  14.450
59367W        W20656   3.954  15.702  11.109
59368W        W20657  35.585   7.887   3.385
59369W        W20658  15.612  42.408   2.727
59370W        W20659   1.746   9.366  14.482
59371W        W20660  22.036  10.153   2.680
59372W        W20661  11.254   9.157  13.850
59373W        W20662  20.178  37.995   2.289
59374W        W20663   9.705  21.630   4.788
59375W        W20664  34.486  43.777  10.525
59376W        W20665   3.716   9.827   3.754
59377W        W20666  24.043  12.272  11.501
59378W        W20667  14.804  39.036  14.799
59379W        W20668  28.521  18.201  14.910
59380W        W20669  22.698  17.266   1.719
59381W        W20670   5.700  17.245   4.340
59382W        W20671  10.718  21.113  11.027
59383W        W20672  31.089  43.331   1.440
59384W        W20673  10.238  13.701   3.283
59385W        W20674   4.713  41.337  13.444
59386W        W20675   5.243  43.484   4.232
59387W        W20676  21.582  23.216   2.215
59388W        W20677   0.795  26.080  10.942
59389W        W20678   1.273   4.223   0.379
59390W        W20679   7.249  42.368  12.987
59391W        W20680  16.652  15.216  13.964
59392W        W20681  35.501  10.812  11.909
59393W        W20682  10.762  41.385   4.727
59394W        W20683  38.546   7.341   1.220
59395W        W20684  15.182  43.281   3.256
59396W        W20685  31.122  21.244   1.885
59397W        W20686  36.567  13.222   3.740
59398W        W20687   0.309  18.566   1.438
59399W        W20688  38.942  29.603   0.735
59400W        W20689  30.993  30.940  11.998
59401W        W20690  11.268   4.935  10.557
59402W        W20691  11.628  38.951   4.816
59403W        W20692  10.375  19.650  11.468
59404W        W20693  43.282  10.852   3.304
59405W        W20694  24.597  39.900  14.850
59406W        W20695  10.373  22.606  13.799
59407W        W20696  42.972  18.645  13.364
59408W        W20697  32.412  23.577   3.149
59409W        W20698  23.625   5.815   1.899
59410W        W20699  24.563  17.645  10.939
59411W        W20700  24.639  27.685  11.426
59412W        W20701  38.038   0.858  13.502
59413W        W20702  20.046  10.180   2.268
59414W        W20703  32.995   9.172   1.813
59415W        W20704  44.792  30.997   2.816
59416W        W20705  13.242  22.199   4.282
59417W        W20706  30.424   2.923   9.664
59418W        W20707  32.530  40.802   0.368
59419W        W20708   2.429  26.537  10.144
59420W        W20709  36.554   1.914   0.255
59421W        W20710  23.205  23.037  12.093
59422W        W20711  31.503  34.415   1.244
59423W        W20712  39.971  37.522   2.866
59424W        W20713  16.191  34.492   2.410
59425W        W20714  24.542   6.318   2.767
59426W        W20715  37.908   7.694   0.956
59427W        W20716  17.748   5.285  11.956
59428W        W20717   4.749  19.057  13.315
59429W        W20718  32.085   1.816   5.234
59430W        W20719   0.254  20.669   2.729
59431W        W20720  12.258   7.703   1.298
59432W        W20721   4.769  12.629  14.775
59433W        W20722   0.827   9.300  13.371
59434W        W20723  23.162  36.557   1.861
59435W        W20724  22.561  16.626  13.424
59436W        W20725  35.375  33.573   2.373
59437W        W20726  30.524  36.512   0.255
59438W        W20727  42.784  27.579   3.659
59439W        W20728  36.417  41.968  12.868
59440W        W20729  11.747  17.198  10.642
59441W        W20730  24.092   9.188   3.213
59442W        W20731  27.018  18.277   0.285
59443W        W20732   9.267  18.785  12.087
59444W        W20733  32.487  26.484   4.169
59445W        W20734  31.955  44.463   3.682
59446W        W20735  12.786  14.095  12.906
59447W        W20736  44.861   8.658   1.812
59448W        W20737  13.677  13.275   1.895
59449W        W20738  40.316  15.224   1.387
59450W        W20739  42.300  31.973  10.898
59451W        W20740  21.727  18.112   1.275
59452W        W20741   7.903  25.687  13.836
59453W        W20742  30.057  19.617   0.247
59454W        W20743  36.438  25.644   1.316
59455W        W20744  35.398   4.873   3.798
59456W        W20745  18.790  22.093   0.843
59457W        W20746  26.488   3.343  13.931
59458W        W20747  32.123  27.638  13.838
59459W        W20748  29.073  23.724  11.460
59460W        W20749  40.919  25.680  13.923
59461W        W20750  17.652  40.357  10.937
59462W        W20751  40.501  33.406  13.859
59463W        W20752  10.374  37.553  10.929
59464W        W20753   7.709  28.507   1.713
59465W        W20754   5.236  37.436  13.318
59466W        W20755  41.806  17.726   3.172
59467W        W20756   7.331  33.427   4.798
59468W        W20757   5.865  40.954   1.329
59469W        W20758  39.396  20.610  13.481
59470W        W20759  13.844  39.032  10.513
59471W        W20760  25.119  43.779   2.777
59472W        W20761  26.122  30.478   2.711
59473W        W20762  39.365  35.439   2.362
59474W        W20763  34.049  15.151  12.882
59475W        W20764   7.408  26.123  11.376
59476W        W20765  10.272  34.384   2.899
59477W        W20766   9.793   3.732   1.245
59478W        W20767  35.509  42.505   2.340
59479W        W20768  31.966  22.564   0.966
59480W        W20769   4.905  30.620   4.290
59481W        W20770  18.289  13.344   4.230
59482W        W20771  20.168  41.358   3.217
59483W        W20772  30.952  21.121   0.772
59484W        W20773  29.927   9.257  12.554
59485W        W20774  23.577  18.199   4.649
59486W        W20775  43.780  10.802   4.267
59487W        W20776   0.385  10.813   4.785
59488W        W20777  27.620  11.165  13.471
59489W        W20778  34.967  12.839  11.101
59490W        W20779  33.479  11.701  10.060
59491W        W20780  25.569   9.354   5.635
59492W        W20781   0.474  17.558  14.997
59493W        W20782  30.634  34.378   2.235
59494W        W20783  10.771  44.846  11.494
59495W        W20784   0.933  40.047   3.637
59496W        W20785  10.255  29.433   4.223
59497W        W20786  30.959  31.581   1.398
59498W        W20787  44.436  34.036   3.782
59499W        W20788  43.410  25.554  14.905
59500W        W20789  36.371  42.999   2.831
59501W        W20790  35.028   2.921  14.931
59502W        W20791   9.856  25.039   0.357
59503W        W20792  41.451  34.055   1.726
59504W        W20793   0.892  21.535  10.518
59505W        W20794   6.902  27.102  10.489
59506W        W20795  43.943  36.504  12.989
59507W        W20796  43.447  33.962  10.918
59508W        W20797  44.870  12.208  12.527
59509W        W20798  32.011  40.042  12.451
59510W        W20799  11.804  11.738  14.290
59511W        W20800   6.833  17.226   3.246
59512W        W20801  10.184  13.350  12.987
59513W        W20802   7.361  13.700   2.244
59514W        W20803  31.014  12.625  13.047
59515W        W20804  20.541  26.526  12.845
59516W        W20805  34.984  18.149   1.932
59517W        W20806   9.882  21.537   2.686
59518W        W20807  22.183  14.831  14.365
59519W        W20808  11.173  14.809   2.826
59520W        W20809  35.889  17.771  11.582
59521W        W20810   2.728  23.170  10.420
59522W        W20811  40.824  28.510  11.505
59523W        W20812  12.851  13.246  13.316
59524W        W20813  41.939  14.100  13.980
59525W        W20814  36.525  30.471   0.428
59526W        W20815  17.272  29.497   1.744
59527W        W20816  33.409  33.387   4.237
59528W        W20817  20.752  18.289   4.304
59529W        W20818  30.061   1.966   4.701
59530W        W20819  24.105   9.746   3.260
59531W        W20820  21.734   0.484  11.436
59532W        W20821   7.242   9.663   1.772
59533W        W20822  39.388  14.780  10.032
59534W        W20823   6.195   3.869   3.305
59535W        W20824  36.864   1.292   4.165
59536W        W20825  38.022  22.250  11.935
59537W        W20826  43.991  25.057   2.671
59538W        W20827  15.676   5.721   3.168
59539W        W20828  26.590  44.365   3.374
59540W        W20829  20.077  21.627  11.564
59541W        W20830   2.285   8.395   2.253
59542W        W20831  35.999  31.085  13.975
59543W        W20832  12.156   9.779  10.921
59544W        W20833  24.575  39.473   1.382
59545W        W20834  26.985  10.371  11.008
59546W        W20835   0.247  29.027   1.448
59547W        W20836  35.087   6.292   4.162
59548W        W20837  10.776  31.440   1.918
59549W        W20838   0.411  15.260  10.929
59550W        W20839   5.791  44.842  10.630
59551W        W20840  22.241  19.613   4.648
59552W        W20841  38.387  38.975  12.027
59553W        W20842   8.738  10.711  13.541
59554W        W20843  20.182   5.731  13.997
59555W        W20844   6.683  24.634   2.725
59556W        W20845  27.514  26.464   2.742
59557W        W20846  11.355  36.934   5.589
59558W        W20847  25.571  25.565  12.024
59559W        W20848  40.801  16.250  13.935
59560W        W20849  25.657  32.541  12.351
59561W        W20850  43.440  36.984  11.563
59562W        W20851   9.254  27.953   1.279
59563W        W20852  10.220  42.799   5.133
59564W        W20853  24.040  10.235   5.162
59565W        W20854  24.101  13.824   3.316
59566W        W20855  27.196   0.872   0.476
59567W        W20856  39.024  39.859  12.515
59568W        W20857  21.536  39.060   0.458
59569W        W20858   9.824  37.071   0.379
59570W        W20859  30.433  27.084   4.205
59571W        W20860  10.843  32.473  12.555
59572W        W20861   9.785  43.948   2.744
59573W        W20862  40.494  30.596  13.040
59574W        W20863  11.643   1.264  11.473
59575W        W20864  17.139   6.216   3.655
59576W        W20865   3.873  11.176  13.481
59577W        W20866  36.016  34.079   4.341
59578W        W20867  26.147  35.452   2.833
59579W        W20868  36.530   8.841   3.725
59580W        W20869   1.799   5.370  12.392
59581W        W20870  20.273  26.503  12.974
59582W        W20871   0.269  30.988  13.944
59583W        W20872  43.963  40.932  14.887
59584W        W20873   1.775   9.245   1.353
59585W        W20874  18.268  42.291  12.903
59586W        W20875  20.736  40.499  14.006
59587W        W20876  39.025   1.841  14.440
59588W        W20877  20.670  27.594   3.764
59589W        W20878  28.579  29.536  12.043
59590W        W20879  24.215  16.267  12.497
59591W        W20880  39.900   2.942  13.391
59592W        W20881  16.799  15.634   3.200
59593W        W20882  15.129  25.492   0.867
59594W        W20883  19.081  14.683   2.696
59595W        W20884  39.061  41.992  12.529
59596W        W20885  33.119  33.542  10.641
59597W        W20886  34.091  24.698  13.985
59598W        W20887  40.812  25.061  13.879
59599W        W20888  39.385  38.449   1.388
59600W        W20889  21.616  22.624   2.263
59601W        W20890  27.945  28.098  14.846
59602W        W20891  25.044   0.750  10.578
59603W        W20892   1.923  38.467  13.883
59604W        W20893  30.532  30.908   4.314
59605W        W20894  25.637  44.339  13.467
59606W        W20895  28.550  30.000  10.974
59607W        W20896  10.322  37.021  10.570
59608W        W20897  18.616  30.476   5.312
59609W        W20898  17.151  36.352  13.865
59610W        W20899  18.287  26.086  14.930
59611W        W20900   5.211  35.050  12.577
59612W        W20901  18.096  38.928   1.394
59613W        W20902  32.394  31.447   2.664
59614W        W20903  39.940  38.339   0.410
59615W        W20904  22.128  11.170  14.309
59616W        W20905  28.942  40.012   3.692
59617W        W20906  34.589  40.428  10.521
59618W        W20907  13.236   4.443   0.263
59619W        W20908   6.814  27.505   3.354
59620W        W20909  44.982  44.452  10.097
59621W        W20910  14.147  27.967  13.833
59622W        W20911  19.197  38.074   4.769
59623W        W20912   7.898  28.978   2.293
59624W        W20913  32.129  23.735  14.849
59625W        W20914  31.645   0.799  10.541
59626W        W20915  13.835  44.490   1.212
59627W        W20916  10.328  25.173   5.110
59628W        W20917   3.235  30.436   2.794
59629W        W20918  11.225  20.147   3.807
59630W        W20919  36.946  33.111  13.476
59631W        W20920  38.503  34.999  14.404
59632W        W20921  39.927   2.440   2.291
59633W        W20922  21.620  29.047   3.684
59634W        W20923  44.926  35.598  12.988
59635W        W20924  12.148  23.051  10.032
59636W        W20925   4.934  33.424   0.466
59637W        W20926  38.968   3.214  11.451
59638W        W20927  24.001  26.515  11.035
59639W        W20928  35.521  11.186  10.434
59640W        W20929   9.684  21.247  14.867
59641W        W20930  16.260   5.803  12.398
59642W        W20931   0.250  13.298   2.899
59643W        W20932   1.314  13.707  13.451
59644W        W20933  20.230  29.985  11.981
59645W        W20934  12.334  30.093  11.568
59646W        W20935   9.192  14.678  13.492
59647W        W20936   2.872  44.383  13.851
59648W        W20937  40.035   8.700   5.141
59649W        W20938   4.393   1.467  10.444
59650W        W20939   1.760  18.147   1.286
59651W        W20940   5.229  24.491   2.711
59652W        W20941  32.511   3.254  11.955
59653W        W20942   7.894  16.755   2.334
59654W        W20943  25.167  16.239   0.254
59655W        W20944   3.717  12.321  11.042
59656W        W20945  11.718  25.017   4.793
59657W        W20946  13.693  16.792  11.080
59658W        W20947  26.033   8.738   1.760
59659W        W20948  25.477  18.073   0.803
59660W        W20949  10.848  22.745   3.229
59661W        W20950  15.811  19.533  13.055
59662W        W20951   6.401   1.824   3.676
59663W        W20952  41.812   1.899  10.566
59664W        W20953  30.908   7.359   2.287
59665W        W20954  22.997  25.686   0.916
59666W        W20955  33.063  42.828  10.627
59667W        W20956   4.732  40.528  13.526
59668W        W20957  39.406  12.168  11.590
59669W        W20958  30.469  28.113  14.325
59670W        W20959  15.285   9.379   0.438
59671W        W20960  43.282  24.652  10.512
59672W        W20961  21.089  32.424  14.837
59673W        W20962  17.720  16.773   0.728
59674W        W20963  42.426  13.648   3.202
59675W        W20964  33.524  23.719   0.855
59676W        W20965  41.385  19.199  14.335
59677W        W20966  14.118  32.401   2.387
59678W        W20967  32.475  26.116   0.752
59679W        W20968  35.087  24.654  14.791
59680W        W20969  42.899  38.884  11.944
59681W        W20970  35.438  42.017  11.121
59682W        W20971  19.130  39.365  14.282
59683W        W20972  22.501  28.031  10.584
59684W        W20973  23.232  32.626   4.618
59685W        W20974   4.880  32.958   0.907
59686W        W20975  35.532  26.985   3.268
59687W        W20976  29.991   4.280  11.887
59688W        W20977  20.605  26.477   1.832
59689W        W20978   4.904  42.354  14.307
59690W        W20979  10.755  36.989   2.310
59691W        W20980  40.833  39.034   4.693
59692W        W20981  15.222  41.799   1.927
59693W        W20982  14.766  41.865   1.916
59694W        W20983  42.809  43.353   4.257
59695W        W20984  16.622  14.238  11.926
59696W        W20985  21.687  20.153  11.070
59697W        W20986  17.555  17.141  13.466
59698W        W20987  14.273  44.444   2.886
59699W        W20988  27.147   2.306   2.257
59700W        W20989  38.943  31.008   3.735
59701W        W20990  31.954  14.305   3.813
59702W        W20991  43.798  28.568  12.914
59703W        W20992  19.580  32.040  12.375
59704W        W20993  18.163  19.543  13.505
59705W        W20994  37.871  43.817  14.471
59706W        W20995  41.391  12.623   2.195
59707W        W20996  41.015  34.932   2.385
59708W        W20997   8.354  11.825   1.252
59709W        W20998  11.635  38.520   4.642
59710W        W20999   5.780  35.604  14.361
59711W        W21000  35.471  14.741   4.257
59712W        W21001   1.739  10.724  13.426
59713W        W21002  34.608  14.258   2.875
59714W        W21003   1.391  32.418  13.489
59715W        W21004  31.070   0.761   0.768
59716W        W21005   9.750   7.337   3.804
59717W        W21006  13.803  26.979   3.322
59718W        W21007  41.302  32.973  14.340
59719W        W21008  35.968  34.015   2.209
59720W        W21009  39.350  29.942   1.349
59721W        W21010  29.552  43.969  13.985
59722W        W21011  44.468  11.283  12.563
59723W        W21012  39.401   7.701   0.319
59724W        W21013  22.146  36.036  14.876
59725W        W21014  10.757  33.999   3.683
59726W        W21015  11.128  33.538  13.967
59727W        W21016  25.597  23.503   3.684
59728W        W21017   8.171  33.985  11.054
59729W        W21018  13.169  14.167   0.891
59730W        W21019  11.147  40.350   2.309
59731W        W21020   6.288   0.307   4.320
59732W        W21021  20.637  44.392  13.967
59733W        W21022  16.197  43.857  13.373
59734W        W21023   4.793  31.982  14.400
59735W        W21024  30.503  10.153   0.868
59736W        W21025  12.297  10.691   0.350
59737W        W21026  15.172  40.054   5.212
59738W        W21027  34.995  13.680   3.843
59739W        W21028  17.720   4.738   3.759
59740W        W21029   0.475  29.107   2.838
59741W        W21030   7.737   1.913  10.921
59742W        W21031  24.651  27.031   3.687
59743W        W21032  10.320  39.535  10.613
59744W        W21033   5.717  41.508  11.505
59745W        W21034  30.007   2.801   0.425
59746W        W21035   6.384   1.455   1.746
59747W        W21036  20.142  38.359  12.439
59748W        W21037  25.022  23.673   1.904
59749W        W21038  32.916  15.664   2.377
59750W        W21039  11.754  17.247  12.941
59751W        W21040  41.795  32.127   2.312
59752W        W21041   7.817  43.281  11.380
59753W        W21042  25.709  13.172   3.858
59754W        W21043  15.653  23.024  11.036
59755W        W21044  13.198  12.754  13.425
59756W        W21045   1.365  17.745   1.802
59757W        W21046   7.198  41.534   2.794
59758W        W21047  17.200  30.544  12.910
59759W        W21048  27.666  37.897  12.400
59760W        W21049  24.068  35.507   4.679
59761W        W21050  44.901  10.701  12.067
59762W        W21051  24.986  10.336   4.211
59763W        W21052  36.563   3.784  11.007
59764W        W21053  10.680  38.855   1.351
59765W        W21054  35.910  44.455   0.319
59766W        W21055  11.216   0.972  11.938
59767W        W21056   9.367  24.577  11.041
59768W        W21057  27.951  17.219   2.398
59769W        W21058  15.667  25.584   0.960
59770W        W21059  43.403  26.565   4.194
59771W        W21060  34.454  18.618  10.933
59772W        W21061   2.908  12.711  11.482
59773W        W21062  23.585  19.562  14.462
59774W        W21063  14.795  35.529  12.506
59775W        W21064  18.203   4.888  12.898
59776W        W21065  40.478  19.258  12.034
59777W        W21066  11.825   6.228   3.365
59778W        W21067  44.811  24.035   3.374
59779W        W21068   7.817  40.303  13.914
59780W        W21069  44.841  12.230  10.606
59781W        W21070  35.557   5.242  11.004
59782W        W21071  41.365  27.046   3.236
59783W        W21072  36.357  26.200  10.904
59784W        W21073  37.499  24.000  10.643
59785W        W21074  23.129  38.498   3.667
59786W        W21075  32.964  35.938  14.318
59787W        W21076   9.773   8.798   1.267
59788W        W21077  41.931  25.503  12.095
59789W        W21078  12.258  12.212   1.384
59790W        W21079   8.793  15.642  12.002
59791W        W21080  41.898  40.001   2.756
59792W        W21081  10.163  42.924   4.747
59793W        W21082  23.138  36.052  13.911
59794W        W21083  41.966  30.994   3.820
59795W        W21084  33.389   3.766  11.520
59796W        W21085   8.854  10.227  12.379
59797W        W21086  15.680   2.409  11.877
59798W        W21087  16.709  43.370  11.482
59799W        W21088  24.015  16.709   2.786
59800W        W21089  44.924  22.140   0.442
59801W        W21090  10.265   4.406   1.768
59802W        W21091  27.446   2.466  13.920
59803W        W21092  33.515  29.449  11.090
59804W        W21093  16.648   6.729  12.501
59805W        W21094  27.091  26.521   1.712
59806W        W21095  14.233  33.524   1.384
59807W        W21096  42.923  44.754   1.315
59808W        W21097   9.887  10.271   4.692
59809W        W21098  16.084   8.244  13.393
59810W        W21099   7.313  12.829   4.241
59811W        W21100   6.727   5.705   3.232
59812W        W21101  32.123  35.930  11.004
59813W        W21102  23.089   4.780  11.104
59814W        W21103   4.824  44.447  11.909
59815W        W21104   7.238  20.715   2.830
59816W        W21105  33.405  36.943  14.404
59817W        W21106  15.256   9.854  10.518
59818W        W21107  29.925  37.073  11.987
59819W        W21108  19.131  29.515   1.890
59820W        W21109   6.208  14.329  13.382
59821W        W21110  25.518   2.335  12.441
59822W        W21111  11.840  39.379   2.738
59823W        W21112  18.547  35.448  14.933
59824W        W21113  33.470   0.926   3.354
59825W        W21114  35.880  21.729   4.325
59826W        W21115  32.141  13.791   4.664
59827W        W21116  32.933  37.364  10.508
59828W        W21117   8.861  23.048  12.986
59829W        W21118  33.584  33.477   1.706
59830W        W21119   1.967  24.144  12.450
59831W        W21120   6.904  26.088  10.472
59832W        W21121   2.463   8.809  13.382
59833W        W21122  19.593  21.753  14.898
59834W        W21123  29.163  36.923  12.069
59835W        W21124   9.182  18.283  12.378
59836W        W21125  32.137  21.641  11.077
59837W        W21126  21.231  44.887   2.332
59838W        W21127  22.052  26.956   0.445
59839W        W21128  29.636  35.069  14.962
59840W        W21129  12.713   2.825   5.118
59841W        W21130   4.220  41.817  13.945
59842W        W21131  22.082  16.698  14.401
59843W        W21132  28.563  24.002   0.864
59844W        W21133  22.232  25.509   2.896
59845W        W21134  20.670  10.242   4.726
59846W        W21135   9.889   1.334  14.831
59847W        W21136  25.626  12.162   0.295
59848W        W21137   4.932  42.286  13.979
59849W        W21138   6.783  37.447   2.193
59850W        W21139  35.967   3.281  13.956
59851W        W21140  21.552  16.270  13.333
59852W        W21141   8.882  30.564   3.635
59853W        W21142  12.739  40.962   0.793
59854W        W21143   2.751  39.818  14.493
59855W        W21144   8.716  38.914  12.928
59856W        W21145   2.355  43.015   0.873
59857W        W21146  23.539   6.914   0.964
59858W        W21147  33.444   3.782   2.682
59859W        W21148  34.425  17.297   0.811
59860W        W21149  38.482  26.523  11.526
59861W        W21150  28.025   0.284   4.710
59862W        W21151   3.844   8.725  14.993
59863W        W21152  36.591  38.010  10.440
59864W        W21153  42.479  33.594   4.271
59865W        W21154   2.878  25.143  11.519
59866W        W21155  26.648  38.915   9.936
59867W        W21156   1.741  31.556   4.305
59868W        W21157   5.233   1.332   3.777
59869W        W21158  36.560  12.341  13.349
59870W        W21159   3.942  17.598  12.412
59871W        W21160   9.275  36.394   2.316
59872W        W21161   7.323  24.200   3.211
59873W        W21162  24.135   3.228   3.839
59874W        W21163  32.117  29.615  11.909
59875W        W21164   1.475  25.643   3.250
59876W        W21165   3.361  27.507  12.934
59877W        W21166  36.000  17.792   1.773
59878W        W21167  37.077  41.974   3.858
59879W        W21168  11.163   2.868   0.760
59880W        W21169  11.359  39.862   3.778
59881W        W21170  33.515  41.848   0.331
59882W        W21171  38.555  39.410   0.272
59883W        W21172  28.006  44.867   4.183
59884W        W21173  13.720  31.461   4.237
59885W        W21174  29.074  24.560  12.382
59886W        W21175  42.974  41.841  13.902
59887W        W21176  41.399  25.027  11.931
59888W        W21177  40.846   3.436   2.756
59889W        W21178  29.524  38.865  14.920
59890W        W21179  25.025  30.078   4.175
59891W        W21180   8.754  29.161   4.338
59892W        W21181  21.701  22.706   4.341
59893W        W21182  30.107  23.993   2.388
59894W        W21183  14.246  11.667   0.379
59895W        W21184   8.382  12.832  12.375
59896W        W21185  33.504   6.298   0.444
59897W        W21186  30.553  41.419  10.414
59898W        W21187  25.099  26.495  14.906
59899W        W21188  43.907  28.019   4.623
59900W        W21189   4.879   4.341   0.869
59901W        W21190  11.646  26.547   4.827
59902W        W21191  27.682   5.725  10.515
59903W        W21192  41.518  26.136  12.536
59904W        W21193  23.695   7.345   3.332
59905W        W21194   3.876  37.456   0.253
59906W        W21195  13.334  22.218   9.662
59907W        W21196  39.967  27.560  10.592
59908W        W21197   9.157  30.960  13.516
59909W        W21198  15.669  23.021  10.596
59910W        W21199  20.229  28.003   0.967
59911W        W21200  39.429  44.967  13.006
59912W        W21201  19.143  17.693   4.602
59913W        W21202   9.315  22.572   3.387
59914W        W21203  19.072  23.608   2.816
59915W        W21204  33.460  40.352  13.858
59916W        W21205  32.103  35.947   4.719
59917W        W21206  20.583  28.483   0.425
59918W        W21207   2.773   3.938  13.470
59919W        W21208   5.838  30.948  12.351
59920W        W21209  16.669  10.247   3.275
59921W        W21210   8.802  10.181   0.928
59922W        W21211  21.587  26.621  13.887
59923W        W21212   2.305  41.022   4.134
59924W        W21213  43.832  43.292  11.576
59925W        W21214  30.067  32.995   4.833
59926W        W21215   1.977  20.121   1.809
59927W        W21216  39.967  19.283   3.175
59928W        W21217  23.659  30.112   3.275
59929W        W21218   2.915  26.122   4.282
59930W        W21219  11.653   3.909  13.976
59931W        W21220  41.956  44.343  12.535
59932W        W21221  34.942   3.288   2.720
59933W        W21222  20.181  33.408  10.006
59934W        W21223  21.168  42.349  13.848
59935W        W21224  15.813  14.209  11.064
59936W        W21225  32.905  34.391   0.935
59937W        W21226  37.068  20.613  14.403
59938W        W21227  28.591  23.544  13.884
59939W        W21228  19.700  17.558   3.716
59940W        W21229  12.677  19.547   2.332
59941W        W21230  43.304   3.892  11.025
59942W        W21231   3.414  30.631   4.220
59943W        W21232  13.156  24.014   0.356
59944W        W21233  27.076  41.795  14.022
59945W        W21234   1.949  35.081   3.205
59946W        W21235  22.011   7.375  11.397
59947W        W21236  16.072  31.543  10.991
59948W        W21237   8.212  17.583  11.437
59949W        W21238  11.740  22.241  13.016
59950W        W21239  23.100   9.766   3.188
59951W        W21240  44.326  28.552  11.917
59952W        W21241  21.630  36.381   1.751
59953W        W21242  24.195  21.541  12.539
59954W        W21243  15.177  38.989   3.375
59955W        W21244  42.956   1.894  12.381
59956W        W21245  28.581   2.759   1.271
59957W        W21246   5.810  28.458   2.376
59958W        W21247  43.376  26.097   1.433
59959W        W21248   1.326  17.650   0.474
59960W        W21249  11.345  14.107   2.289
59961W        W21250   4.906  36.021   4.274
59962W        W21251  10.288  12.189   3.170
59963W        W21252  28.585  11.251   0.346
59964W        W21253  30.454  28.055   2.897
59965W        W21254  30.529  16.189   1.387
59966W        W21255  24.221  17.081   5.281
59967W        W21256   8.401  22.039   4.243
59968W        W21257  32.021   6.314   2.877
59969W        W21258  23.992  32.597  13.810
59970W        W21259  25.135  37.924   0.315
59971W        W21260  21.516   5.292   4.724
59972W        W21261  14.104   5.325  13.856
59973W        W21262  41.836  11.734  10.928
59974W        W21263   5.893  21.655  11.091
59975W        W21264   9.880  33.954  11.489
59976W        W21265  24.623  22.575   1.781
59977W        W21266  20.240   4.793   4.806
59978W        W21267  12.764  44.776   1.229
59979W        W21268  17.119  33.123   2.217
59980W        W21269  23.580  27.129   1.702
59981W        W21270  42.835   8.859   4.115
59982W        W21271   8.400  17.287  12.832
59983W        W21272   8.317  41.012  13.890
59984W        W21273   0.318  23.186   3.199
59985W        W21274  30.071  24.699   1.339
59986W        W21275  34.443   7.745  14.312
59987W        W21276  44.383  10.682   3.311
59988W        W21277  36.046   9.819   0.257
59989W        W21278  33.475  31.509   4.166
59990W        W21279   2.337   3.853  10.642
59991W        W21280  22.739  29.525  14.964
59992W        W21281   1.745   3.773   3.706
59993W        W21282  32.995  16.126  14.351
59994W        W21283  18.758  30.573   2.856
59995W        W21284  25.119  21.749   2.849
59996W        W21285   8.297  20.212   0.384
59997W        W21286  10.684   7.317   2.237
59998W        W21287  43.892  34.509   4.801
59999W        W21288   8.849  26.630  13.870
60000W        W21289  31.481  12.311   4.131
60001W        W21290   2.911  38.022   0.808
60002W        W21291   1.413  35.379   0.840
60003W        W21292  18.104  23.089   2.305
60004W        W21293  34.578  14.145  11.511
60005W        W21294  40.916  27.578  11.986
60006W        W21295  27.631  27.624   1.745
60007W        W21296  42.003  26.461  11.566
60008W        W21297  27.095  40.307  10.980
60009W        W21298  28.960  14.646  11.525
60010W        W21299  25.038  13.313   2.898
60011W        W21300  32.007  12.181  13.894
60012W        W21301  26.977  44.306   3.860
60013W        W21302  27.613  14.781   4.282
60014W        W21303  37.582  28.123   3.284
60015W        W21304  22.230   8.264  12.093
60016W        W21305  35.540  33.914   1.776
60017W        W21306  30.922   8.404   2.735
60018W        W21307  27.645  14.831  10.490
60019W        W21308  30.431  28.642   3.334
60020W        W21309  41.494  27.989  14.308
60021W        W21310  22.102  18.751  10.591
60022W        W21311  10.272  18.634  13.802
60023W        W21312   1.792  24.645  14.424
60024W        W21313  28.529  15.240   1.414
60025W        W21314   3.267  32.900  13.997
60026W        W21315  26.987  25.120   0.903
60027W        W21316  13.114  18.550   0.408
60028W        W21317  34.610  18.774   0.965
60029W        W21318  38.521   1.385  12.884
60030W        W21319  30.042  23.514  14.301
60031W        W21320  12.307  32.522  11.127
60032W        W21321  42.321   8.326  13.485
60033W        W21322   4.240   8.406  10.469
60034W        W21323  44.817   3.282  12.954
60035W        W21324  40.377  14.641  10.947
60036W        W21325  19.189  19.213   2.226
60037W        W21326  36.872  34.388  11.373
60038W        W21327  33.050   8.363   1.232
60039W        W21328   0.746  14.709   4.319
60040W        W21329   2.240  42.895  12.091
60041W        W21330  20.730  15.320   3.265
60042W        W21331  27.604   7.306  12.389
60043W        W21332  31.062  23.222  14.808
60044W        W21333  29.627  10.370  10.905
60045W        W21334  39.022  17.677  11.919
60046W        W21335  31.471  21.536   4.263
60047W        W21336  44.390   3.905   2.833
60048W        W21337  35.857  41.411   4.690
60049W        W21338  25.030  22.244   3.218
60050W        W21339  23.642   9.791  11.094
60051W        W21340  15.107  11.739  13.974
60052W        W21341   2.885  42.453  12.846
60053W        W21342  15.268  41.812  11.897
60054W        W21343  44.975  13.247   2.363
60055W        W21344  42.911  40.409   1.838
60056W        W21345  43.313   9.747  11.512
60057W        W21346   2.249  37.951   4.616
60058W        W21347  32.398  34.489  12.942
60059W        W21348  39.401  23.596  11.052
60060W        W21349   7.391  11.296   2.334
60061W        W21350  40.012   0.807  11.592
60062W        W21351  14.202  29.918   0.870
60063W        W21352   0.257  38.024   3.199
60064W        W21353  13.678   0.396   4.316
60065W        W21354  37.993  34.922  10.546
60066W        W21355  15.635   8.779  12.450
60067W        W21356  18.762  41.927  14.823
60068W        W21357  18.720   7.751   3.360
60069W        W21358   8.247   2.294   4.790
60070W        W21359  12.613  13.261   4.647
60071W        W21360  42.351  17.181  14.350
60072W        W21361  10.191  22.220   1.320
60073W        W21362  19.542   3.311   1.269
60074W        W21363   8.858  38.393   0.272
60075W        W21364  37.493  21.235  12.049
60076W        W21365   9.240  11.826  14.514
60077W        W21366  32.600   9.391   0.806
60078W        W21367  30.515  22.665   1.236
60079W        W21368  36.505   9.225  11.508
60080W        W21369  12.119   4.244  11.046
60081W        W21370  33.553  33.488   0.384
60082W        W21371  36.843   2.253  14.810
60083W        W21372  17.646   6.245   2.860
60084W        W21373  19.679  26.008   4.232
60085W        W21374  31.923  33.014  13.986
60086W        W21375  38.377  36.870   4.609
60087W        W21376  31.916   7.761   0.427
60088W        W21377  42.844  40.337  14.926
60089W        W21378  16.649  24.645  11.078
60090W        W21379  39.862  25.575   4.688
60091W        W21380  15.704  25.075  14.308
60092W        W21381   5.255  16.643   3.251
60093W        W21382  33.891   1.917  12.480
60094W        W21383   3.841   3.742   3.183
60095W        W21384  29.663  20.768   1.727
60096W        W21385  36.917   4.441  11.530
60097W        W21386  34.428  17.779  13.859
60098W        W21387  38.854  11.321   3.289
60099W        W21388   7.228  11.707   3.334
60100W        W21389   7.751  20.080   4.336
60101W        W21390  20.592  19.080   3.361
60102W        W21391  42.393  42.429  12.940
60103W        W21392  43.300  25.092   3.686
60104W        W21393  37.393  29.071  11.982
60105W        W21394  39.960  15.782   4.787
60106W        W21395   7.768  16.204   3.869
60107W        W21396  40.048  29.029   2.255
60108W        W21397   8.385  43.342   2.227
60109W        W21398  11.833   1.451  13.037
60110W        W21399  29.602  11.746   5.248
60111W        W21400  15.600  32.993   2.806
60112W        W21401   6.402  13.264   4.354
60113W        W21402  28.658  23.686  12.549
60114W        W21403   3.411  43.461  11.588
60115W        W21404  17.145  11.627   4.700
60116W        W21405   5.806  25.585  14.448
60117W        W21406  43.858  29.953   2.754
60118W        W21407  41.533  38.429   4.249
60119W        W21408  14.113  40.043  10.598
60120W        W21409  41.967  24.062  14.874
60121W        W21410   2.771   3.920   0.740
60122W        W21411  25.986  40.436   3.155
60123W        W21412  36.467  11.801   3.807
60124W        W21413   5.338   1.433  11.511
60125W        W21414  26.061  38.447  13.548
60126W        W21415  37.567  37.544  12.401
60127W        W21416   1.734  34.472   3.179
60128W        W21417   6.409  20.726   2.707
60129W        W21418  34.551  43.362   4.333
60130W        W21419  41.902  11.279  14.489
60131W        W21420  12.762   6.763  14.916
60132W        W21421  32.996  44.378   3.181
60133W        W21422  30.137  28.494   0.396
60134W        W21423  33.080  19.550  11.966
60135W        W21424  42.876  25.489  11.104
60136W        W21425   9.674  43.924   3.201
60137W        W21426   9.834  36.429  14.923
60138W        W21427  14.658  39.013  11.061
60139W        W21428  20.247  16.785  10.911
60140W        W21429  32.055  42.462   1.348
60141W        W21430   3.241  38.968  11.981
60142W        W21431  11.715   4.832  14.461
60143W        W21432   2.313  25.169   2.829
60144W        W21433  12.807   5.828   3.770
60145W        W21434  12.157   8.756  13.852
60146W        W21435  39.545  21.624   3.836
60147W        W21436  39.945  19.253  13.835
60148W        W21437  43.462  29.946   2.825
60149W        W21438  43.896  26.659   1.862
60150W        W21439   9.756  37.345   2.328
60151W        W21440  26.979  12.753  10.913
60152W        W21441  19.718   0.832   1.362
60153W        W21442  17.642  30.629   4.342
60154W        W21443   9.244   8.873  12.029
60155W        W21444  18.672  24.029  14.921
60156W        W21445  29.172  29.583   2.390
60157W        W21446   9.220  20.139  13.396
60158W        W21447  19.162   7.308   3.372
60159W        W21448  41.346  26.179  11.015
60160W        W21449  38.383   7.762  13.409
60161W        W21450   9.719  34.077   2.704
60162W        W21451  25.985   4.825  11.576
60163W        W21452  41.889  17.685   1.741
60164W        W21453  40.861   5.352  13.406
60165W        W21454  23.059  33.055  13.058
60166W        W21455  12.711  41.362  11.032
60167W        W21456   7.281  37.365  12.529
60168W        W21457  22.625  23.125   4.208
60169W        W21458  21.651   8.718  13.859
60170W        W21459  20.567  41.491   2.226
60171W        W21460  44.301   0.822   2.766
60172W        W21461  19.082  33.085   1.389
60173W        W21462  29.036  36.383   4.287
60174W        W21463  13.722  36.441   2.388
60175W        W21464  10.139   3.856   0.444
60176W        W21465   3.222  38.874   2.387
60177W        W21466  10.235  30.036  11.530
60178W        W21467   1.777  30.126   3.278
60179W        W21468  28.046  10.648   0.455
60180W        W21469  39.384  15.258   1.900
60181W        W21470   8.664   2.800   1.413
60182W        W21471   0.950  26.519  10.557
60183W        W21472  33.516  10.231   1.729
60184W        W21473  26.154  12.852   1.287
60185W        W21474  34.584   6.915  13.949
60186W        W21475  38.913  44.275  13.973
60187W        W21476  23.081  31.528   1.771
60188W        W21477  41.833  30.633  14.920
60189W        W21478  12.356  22.098  14.981
60190W        W21479  25.624   6.747  10.988
60191W        W21480  43.514  33.083  12.527
60192W        W21481  18.237  20.149  13.401
60193W        W21482   5.323  23.151  11.117
60194W        W21483  21.086  38.521  14.309
60195W        W21484  31.989  13.317  13.028
60196W        W21485   6.237  12.355   4.609
60197W        W21486   5.358  14.294   1.749
60198W        W21487  35.562  17.641  14.331
60199W        W21488  22.604  33.463   3.379
60200W        W21489  42.327  28.505   1.316
60201W        W21490  41.879   7.395   4.733
60202W        W21491  16.073  18.133   4.334
60203W        W21492  44.804  34.474  12.898
60204W        W21493  34.070  27.558  13.384
60205W        W21494  28.153  40.958   4.744
60206W        W21495  20.218   7.726  14.487
60207W        W21496  10.204  17.122  10.410
60208W        W21497  23.108   1.767   0.762
60209W        W21498   1.376   4.758   1.838
60210W        W21499  18.609  38.462   4.599
60211W        W21500   1.472  23.508  10.470
60212W        W21501   7.906  36.095   1.399
60213W        W21502   5.427   7.340   0.857
60214W        W21503  33.604  28.109  11.101
60215W        W21504   3.713  23.550   0.778
60216W        W21505  15.192  16.787  10.573
60217W        W21506  28.105   3.436   5.276
60218W        W21507  20.653  23.034   3.770
60219W        W21508  44.934  29.552  11.401
60220W        W21509  21.563  20.723  14.364
60221W        W21510   3.741  41.920   3.322
60222W        W21511  22.740   7.701   2.418
60223W        W21512   9.679  27.064   9.470
60224W        W21513  23.498  17.245   3.245
60225W        W21514  19.582  22.008  11.405
60226W        W21515  34.515  13.774   1.367
60227W        W21516  28.066  40.544   4.194
60228W        W21517  35.017  27.481  14.371
60229W        W21518   2.874  39.965   0.779
60230W        W21519   9.264  24.100   2.374
60231W        W21520  29.615  17.080  12.912
60232W        W21521  35.037   4.877  12.097
60233W        W21522  18.552  29.648  12.939
60234W        W21523  40.478   4.787   2.694
60235W        W21524  26.668  38.936   3.152
60236W        W21525  23.169   3.429   3.233
60237W        W21526  22.192  24.607  10.042
60238W        W21527  39.827  15.621   4.117
60239W        W21528  13.839  38.047   0.742
60240W        W21529  40.803  40.378   2.277
60241W        W21530   2.257  38.932   2.754
60242W        W21531   3.241  42.352   3.385
60243W        W21532  33.400  26.520   9.968
60244W        W21533  41.855   6.340  10.129
60245W        W21534   5.201  31.597   4.154
60246W        W21535  25.074  11.672  12.062
60247W        W21536  18.700  18.057   2.377
60248W        W21537   7.280  38.932   3.681
60249W        W21538  11.193  16.627  14.396
60250W        W21539  15.642  40.330   0.263
60251W        W21540  25.219  30.427  14.399
60252W        W21541  11.750  42.283   4.128
60253W        W21542  11.663  11.239  11.075
60254W        W21543  39.832  16.269   1.335
60255W        W21544  28.119  31.999  13.986
60256W        W21545  24.022  43.885   1.381
60257W        W21546  23.120  10.836   1.372
60258W        W21547  15.150  32.092  11.574
60259W        W21548   7.681  14.299   0.441
60260W        W21549  35.039  28.544  11.121
60261W        W21550  20.739  31.471   0.853
60262W        W21551  12.247   9.174  12.501
60263W        W21552  38.393  23.220  14.789
60264W        W21553  27.473   1.799   1.386
60265W        W21554   9.693  17.590   3.648
60266W        W21555  38.381   6.745   0.896
60267W        W21556  15.113  28.531   2.669
60268W        W21557  34.438  38.507   0.360
60269W        W21558   3.379   4.414   0.426
60270W        W21559  19.539  10.752   1.369
60271W        W21560   7.680  16.598   1.259
60272W        W21561   8.349  17.165   4.147
60273W        W21562  40.505  35.517   3.316
60274W        W21563  31.939  20.247  13.916
60275W        W21564  40.397  12.691   2.719
60276W        W21565  43.438  27.650   3.305
60277W        W21566   3.714  26.669   1.427
60278W        W21567   4.730  37.397  13.012
60279W        W21568  27.674   3.215  10.419
60280W        W21569  32.400   2.894   1.420
60281W        W21570  18.282  26.670   4.257
60282W        W21571  23.721   1.790  11.910
60283W        W21572  22.680  41.950   4.673
60284W        W21573  14.730  23.995  14.979
60285W        W21574  17.679  38.494   0.301
60286W        W21575  14.320   0.855   9.637
60287W        W21576  25.218  33.889  11.549
60288W        W21577  10.238  19.586  11.951
60289W        W21578  22.534  35.525  14.286
60290W        W21579  25.190  23.625  13.875
60291W        W21580  17.748  32.131   0.830
60292W        W21581   6.231  42.286   3.299
60293W        W21582  33.947   6.840   0.343
60294W        W21583  27.516   8.337  13.959
60295W        W21584  43.798  21.205   4.270
60296W        W21585  24.047  27.632  11.604
60297W        W21586  24.094  38.983   1.903
60298W        W21587  17.128  15.605  12.372
60299W        W21588  29.036  29.985  12.943
60300W        W21589  11.137  23.184   4.826
60301W        W21590  43.980  43.778   4.258
60302W        W21591  10.671   6.378   2.790
60303W        W21592  23.092  39.858  13.883
60304W        W21593   0.434  27.096  12.539
60305W        W21594  24.050  15.684  14.433
60306W        W21595  43.817  33.931   3.385
60307W        W21596  31.633  14.146  13.319
60308W        W21597  38.938  43.423  11.058
60309W        W21598  15.585  43.297  10.576
60310W        W21599  36.093  17.653  13.942
60311W        W21600  34.431  24.027   2.666
60312W        W21601  42.398  29.438  12.375
60313W        W21602  11.841  12.168  14.969
60314W        W21603  14.230  34.906  12.871
60315W        W21604  13.800  34.604  13.470
60316W        W21605   5.413  36.003  11.592
60317W        W21606  32.483   0.261   4.750
60318W        W21607  25.025  27.592   0.945
60319W        W21608  19.235  15.824  10.925
60320W        W21609  21.131  29.669   2.763
60321W        W21610  33.999  35.998   0.847
60322W        W21611   7.667  41.991   1.362
60323W        W21612   1.262  37.939  13.331
60324W        W21613  21.109   0.326  10.562
60325W        W21614  35.065  11.776  10.567
60326W        W21615  35.077  12.830  10.500
60327W        W21616   3.431  39.039  13.947
60328W        W21617  33.570  33.616  12.498
60329W        W21618  29.547  16.265   1.243
60330W        W21619  15.752  15.274   0.283
60331W        W21620  29.016  19.702  11.915
60332W        W21621  24.049  36.429  10.433
60333W        W21622   5.788  30.930   1.767
60334W        W21623  29.065  43.366  12.390
60335W        W21624  21.581  37.911   3.824
60336W        W21625  29.163  12.134   4.194
60337W        W21626   9.840  35.475   4.323
60338W        W21627   3.906  30.479   1.300
60339W        W21628  30.955   5.335  12.006
60340W        W21629  24.548  29.504   0.271
60341W        W21630  35.045  41.942   2.794
60342W        W21631  25.648  23.990   5.717
60343W        W21632  30.144   5.930   2.771
60344W        W21633  44.447  29.569   3.290
60345W        W21634   3.253  43.446   5.109
60346W        W21635   3.218  10.229  11.057
60347W        W21636  15.654  18.682   3.172
60348W        W21637  32.959   4.798   0.405
60349W        W21638  44.941  18.245  11.040
60350W        W21639  39.989   0.382  12.367
60351W        W21640  31.012  11.297   1.805
60352W        W21641  40.012  29.073  11.962
60353W        W21642  26.985  37.890  12.479
60354W        W21643  11.281  44.903  11.099
60355W        W21644  21.136  25.496  14.370
60356W        W21645  19.262  29.996  13.924
60357W        W21646  29.588  27.018   0.844
60358W        W21647  14.714  17.081  10.977
60359W        W21648  13.294  44.775  14.792
60360W        W21649  12.181  15.117  14.406
60361W        W21650   7.826   8.339  13.528
60362W        W21651  21.170  21.711   3.321
60363W        W21652  22.160  15.220  13.935
60364W        W21653  39.473  20.225  14.846
60365W        W21654  16.112  32.414   0.806
60366W        W21655  33.062   0.335  14.020
60367W        W21656  26.509  37.883   0.955
60368W        W21657  38.339   1.802   0.952
60369W        W21658   4.915  29.930  13.936
60370W        W21659  30.632  19.175   0.359
60371W        W21660  16.621  16.168   4.738
60372W        W21661  14.127  34.926   0.889
60373W        W21662  19.756  14.690  10.510
60374W        W21663  43.274   0.251  12.420
60375W        W21664  37.034  18.067  14.935
60376W        W21665  34.435  37.448  14.995
60377W        W21666  40.480  27.485  11.396
60378W        W21667  28.165  14.324  13.039
60379W        W21668  19.610   2.355  14.500
60380W        W21669  44.813   0.948  11.879
60381W        W21670  33.965  17.725  14.008
60382W        W21671  34.077  39.839   0.473
60383W        W21672  23.235  25.608   1.418
60384W        W21673  41.421  44.285  12.455
60385W        W21674   1.352   5.275  14.305
60386W        W21675  28.562  21.234  14.413
60387W        W21676  41.787  33.497  12.500
60388W        W21677  42.003  38.460   0.743
60389W        W21678  38.976  35.582  14.918
60390W        W21679  31.937   4.768  11.417
60391W        W21680   6.412  15.203  13.945
60392W        W21681  34.546   0.888  13.873
60393W        W21682   2.763  28.570   0.334
60394W        W21683  24.222  19.124   2.743
60395W        W21684  40.359   4.868   3.311
60396W        W21685  21.254  30.642   0.925
60397W        W21686  15.747  11.172   0.788
60398W        W21687   4.872   2.819   1.814
60399W        W21688   7.814  13.654  14.911
60400W        W21689  16.737  13.755  12.064
60401W        W21690  40.443  27.952  12.871
60402W        W21691   8.274  44.331  13.322
60403W        W21692   6.832   0.278   1.931
60404W        W21693  35.561   3.722   1.915
60405W        W21694  21.214   5.795  14.814
60406W        W21695  36.514   8.775   9.940
60407W        W21696   2.337  31.430  14.320
60408W        W21697   7.820  35.598  11.595
60409W        W21698  34.937  17.681   3.660
60410W        W21699  37.361   1.354   3.209
60411W        W21700  36.912  20.583   0.373
60412W        W21701  25.146  35.889  14.416
60413W        W21702  15.657   0.816  10.409
60414W        W21703  36.524   5.742  12.888
60415W        W21704  19.741   7.182  14.441
60416W        W21705  40.455  36.047  12.386
60417W        W21706  31.434  38.945  14.499
60418W        W21707   2.382  44.977  14.392
60419W        W21708  31.003   4.439  10.969
60420W        W21709  24.672   9.396  11.415
60421W        W21710  17.153  29.645   1.447
60422W        W21711  27.957   2.356   1.408
60423W        W21712  11.692  13.684  13.886
60424W        W21713   9.338  10.176   5.275
60425W        W21714  25.067  15.680  11.410
60426W        W21715  34.062   1.932   2.307
60427W        W21716   9.795  43.352  11.524
60428W        W21717   3.752  34.412   0.733
60429W        W21718  26.638  37.420  10.014
60430W        W21719  29.026  42.429   4.636
60431W        W21720  41.929  14.163   4.723
60432W        W21721  26.997   3.295   1.849
60433W        W21722   2.328  35.580   0.740
60434W        W21723  20.245  20.617   2.212
60435W        W21724  13.215  34.377   0.300
60436W        W21725  36.369  34.935   4.617
60437W        W21726  40.501  10.719  11.093
60438W        W21727  13.651   5.406  12.489
60439W        W21728  13.820  20.212  14.468
60440W        W21729  41.872  42.385  13.512
60441W        W21730  23.080  34.105  10.501
60442W        W21731  15.197   8.299   0.730
60443W        W21732  35.409  15.769   2.846
60444W        W21733   4.897  43.281  11.089
60445W        W21734  13.763  15.808  13.993
60446W        W21735  14.764  38.561   1.848
60447W        W21736   2.920  18.247   1.227
60448W        W21737  44.007  36.085   2.766
60449W        W21738  37.058  13.196  11.544
60450W        W21739  24.210   5.244   4.171
60451W        W21740  10.145   9.671   2.336
60452W        W21741  31.075  21.173  11.072
60453W        W21742   3.227  19.207   1.803
60454W        W21743  38.035  28.552   4.636
60455W        W21744  29.519  21.534  13.371
60456W        W21745  40.955  34.400   1.923
60457W        W21746  30.146   0.300   4.724
60458W        W21747  13.228  38.388  14.822
60459W        W21748  37.075  42.408   1.763
60460W        W21749  43.446   5.918  12.531
60461W        W21750  39.376  31.617  14.299
60462W        W21751  28.613  20.114  11.860
60463W        W21752  38.336   8.251   1.912
60464W        W21753  10.839  21.051  11.430
60465W        W21754   4.911  39.443   2.692
60466W        W21755  15.174  37.435   0.795
60467W        W21756  41.039  34.903  14.850
60468W        W21757   5.827   1.811   1.904
60469W        W21758  22.238  18.107  11.108
60470W        W21759   8.337   1.419  12.003
60471W        W21760   6.246  24.532  10.990
60472W        W21761   8.668  33.974  14.345
60473W        W21762   2.764  26.181  11.540
60474W        W21763  28.511  31.911   0.832
60475W        W21764  30.136  25.701  11.027
60476W        W21765  29.669   1.443   4.666
60477W        W21766  14.715  43.838   3.204
60478W        W21767  32.517   0.970   0.303
60479W        W21768  43.003  31.616  10.492
60480W        W21769  33.587  12.737   2.761
60481W        W21770   3.924  42.492  13.361
60482W        W21771  27.490  37.463   5.081
60483W        W21772  34.409   4.813  11.011
60484W        W21773   0.870  17.083  14.378
60485W        W21774  34.560  17.127  14.933
60486W        W21775  30.447  10.644   4.268
60487W        W21776  42.498  12.356  13.389
60488W        W21777  11.202  34.937  13.026
60489W        W21778  10.745   4.885   0.813
60490W        W21779   5.839  27.991  10.483
60491W        W21780   9.890  22.173   1.276
60492W        W21781  35.069  41.903   2.182
60493W        W21782   5.225   7.352  14.512
60494W        W21783   1.360  15.185  14.326
60495W        W21784  19.044  35.018   1.446
60496W        W21785  29.074   1.280   1.441
60497W        W21786  35.982  30.623   0.797
60498W        W21787   4.790   4.295   3.384
60499W        W21788   4.267  25.646  13.511
60500W        W21789  13.825  11.313   4.731
60501W        W21790   3.805  36.936   1.372
60502W        W21791  16.613  43.389  10.517
60503W        W21792   4.929  11.743   1.434
60504W        W21793  34.546  29.568  10.471
60505W        W21794   8.663  42.371   3.823
60506W        W21795  28.085  28.494  12.066
60507W        W21796  37.970  22.999  10.447
60508W        W21797  18.175  10.715  13.330
60509W        W21798   9.252  32.556  13.935
60510W        W21799  14.248   0.279  13.312
60511W        W21800   8.761   9.230   4.821
60512W        W21801  34.914   0.797  13.920
60513W        W21802  23.715   7.679  14.890
60514W        W21803   6.791  15.678   3.158
60515W        W21804   9.743   7.197  11.021
60516W        W21805   0.979   4.717  13.485
60517W        W21806  17.606  37.360   2.811
60518W        W21807  12.200   6.251  14.430
60519W        W21808  13.689  28.011   4.212
60520W        W21809  11.183   9.206  13.364
60521W        W21810  43.333  14.663  14.290
60522W        W21811   1.817  44.443  12.825
60523W        W21812  38.859  31.487  12.920
60524W        W21813  29.159   4.387   0.920
60525W        W21814  33.399  38.566   4.657
60526W        W21815  15.695  21.517  12.938
60527W        W21816  33.621   8.394   2.301
60528W        W21817   0.458  37.958  11.120
60529W        W21818  41.368  36.055  10.889
60530W        W21819  43.459  16.700   3.351
60531W        W21820  37.864  11.765  13.880
60532W        W21821  20.662  40.347  12.041
60533W        W21822  42.923  28.633   4.333
60534W        W21823  44.906  38.360   1.429
60535W        W21824  24.159  10.148   4.213
60536W        W21825  27.469  24.660   4.347
60537W        W21826  16.164  41.299   3.650
60538W        W21827   6.201  16.589  14.418
60539W        W21828   2.429  34.866   5.264
60540W        W21829  13.813   2.806  10.422
60541W        W21830   6.898  41.916   0.271
60542W        W21831  43.488  15.617  10.919
60543W        W21832   9.150   7.704   1.244
60544W        W21833  11.855  23.203  12.970
60545W        W21834   0.253  25.625  13.811
60546W        W21835  44.369  31.577   4.150
60547W        W21836  43.491  14.306  12.936
60548W        W21837  40.355   2.877   4.747
60549W        W21838  29.515  34.111  14.813
60550W        W21839  31.609  23.572   0.812
60551W        W21840  17.682  31.963   1.339
60552W        W21841   7.294  16.274   2.770
60553W        W21842  40.451  10.835   5.584
60554W        W21843  37.455  11.715  11.888
60555W        W21844  15.676  37.380   3.265
60556W        W21845  26.000  30.525   4.332
60557W        W21846  41.323  21.575  11.022
60558W        W21847  36.420   3.415  10.562
60559W        W21848  11.739  10.641  12.406
60560W        W21849   5.227  32.992   4.318
60561W        W21850  31.455  43.951  10.969
60562W        W21851  16.605  24.529   1.747
60563W        W21852  33.409  29.455   1.339
60564W        W21853  22.142  41.523  11.884
60565W        W21854  41.462  35.430   4.245
60566W        W21855  21.633   7.727  11.435
60567W        W21856  10.330  22.717   3.161
60568W        W21857  11.304  17.094   4.299
60569W        W21858  13.741  37.351  11.472
60570W        W21859   7.311  40.895   2.865
60571W        W21860  12.210  32.071   3.796
60572W        W21861  14.215  36.592   4.323
60573W        W21862  24.173  41.888   1.710
60574W        W21863  27.538  37.506  11.962
60575W        W21864  20.119   8.792  11.432
60576W        W21865  33.101   6.884  13.436
60577W        W21866   8.324  43.462  13.529
60578W        W21867  43.295   7.753   1.368
60579W        W21868  35.384  33.513   1.735
60580W        W21869  40.902  26.189  13.490
60581W        W21870   7.180  28.992  13.992
60582W        W21871  28.995   5.769   1.269
60583W        W21872  23.495  27.625  12.059
60584W        W21873  12.340  21.584  13.477
60585W        W21874   5.905   2.911   4.236
60586W        W21875  12.268  32.036   0.957
60587W        W21876   4.722  42.406   1.394
60588W        W21877  36.351  44.327   9.968
60589W        W21878  38.543  36.085  11.930
60590W        W21879  40.899  26.563   0.770
60591W        W21880  30.416  17.299  10.507
60592W        W21881  28.098  35.895  13.034
60593W        W21882  33.949  41.859  14.016
60594W        W21883  26.207  34.102   0.317
60595W        W21884  15.790   4.265  10.492
60596W        W21885  11.658  28.442   4.612
60597W        W21886  15.328   8.885  14.901
60598W        W21887  16.634  22.700   5.303
60599W        W21888  19.571  28.944  10.966
60600W        W21889  24.227   5.840   3.734
60601W        W21890  44.263   8.294   0.764
60602W        W21891  28.664  31.112   0.757
60603W        W21892  33.402  41.800   2.367
60604W        W21893  36.587   5.387  11.059
60605W        W21894  14.096  39.416  12.061
60606W        W21895  22.721   4.751   4.701
60607W        W21896  28.438   6.273  11.864
60608W        W21897  21.132  19.565   4.825
60609W        W21898   7.236  25.514  14.332
60610W        W21899  17.802  15.635  10.045
60611W        W21900  21.567  29.159  11.515
60612W        W21901  20.671  16.132   3.673
60613W        W21902  28.454  20.661   3.670
60614W        W21903  23.025  29.139  11.520
60615W        W21904   3.784  10.764  12.983
60616W        W21905   7.414  14.661  11.421
60617W        W21906   6.679  19.660  12.084
60618W        W21907  35.971  11.696  11.604
60619W        W21908  21.592   9.358  11.515
60620W        W21909   5.352  33.115   0.909
60621W        W21910  12.353   2.307  11.471
60622W        W21911  14.696  14.220   0.259
60623W        W21912  29.065   9.845  14.425
60624W        W21913  42.421  16.730  10.567
60625W        W21914  44.969   4.356   2.718
60626W        W21915  29.038  39.016  11.450
60627W        W21916  30.125  43.343  13.361
60628W        W21917  23.173  18.103  11.472
60629W        W21918  35.017   9.174   4.268
60630W        W21919  24.581  22.998  12.482
60631W        W21920  38.360  39.877  13.812
60632W        W21921  29.600  21.122   2.359
60633W        W21922  19.714  35.431   4.830
60634W        W21923  15.651   8.221  12.427
60635W        W21924  28.478  38.847   3.267
60636W        W21925  28.632   4.219  12.987
60637W        W21926  23.181  41.896   4.714
60638W        W21927  41.325  17.770  12.993
60639W        W21928  41.372   6.406   4.661
60640W        W21929  21.077  21.674  12.931
60641W        W21930   4.935  32.020   0.395
60642W        W21931   4.720  23.153   3.275
60643W        W21932  17.195  26.121  11.967
60644W        W21933  13.604   0.896   3.280
60645W        W21934  12.742  36.972  10.155
60646W        W21935  31.066  12.333  13.904
60647W        W21936  11.325  40.829  10.557
60648W        W21937  19.687  42.488   0.382
60649W        W21938  12.176  24.013  14.838
60650W        W21939  19.701  15.133  10.927
60651W        W21940  18.154  13.745  12.363
60652W        W21941   1.953  27.563   4.243
60653W        W21942  20.641  29.551  14.359
60654W        W21943   9.691  37.477   4.122
60655W        W21944   2.305   3.932  12.512
60656W        W21945  23.121  34.989   4.302
60657W        W21946   7.857  40.381  10.532
60658W        W21947  29.547  24.527   2.208
60659W        W21948  37.397  23.722   3.663
60660W        W21949  13.320  26.978  12.071
60661W        W21950  14.763   5.771  11.887
60662W        W21951  12.856   7.287  11.895
60663W        W21952  37.073  10.769  14.820
60664W        W21953  31.436  44.000  13.803
60665W        W21954   2.324  34.510  14.938
60666W        W21955  38.946  30.015  14.005
60667W        W21956  30.011  11.681  13.963
60668W        W21957  20.702  23.684  13.050
60669W        W21958  40.867   9.288   1.246
60670W        W21959   1.356   3.219   4.726
60671W        W21960  36.386   6.379  10.530
60672W        W21961  23.099  32.407  14.821
60673W        W21962  38.375  27.598  10.474
60674W        W21963  19.770  37.533  11.488
60675W        W21964  16.653   0.257  10.988
60676W        W21965   0.331  26.122   0.452
60677W        W21966  15.231   0.769  12.833
60678W        W21967  14.714  13.322   4.623
60679W        W21968  19.615  23.613   4.614
60680W        W21969  21.103  41.498   0.770
60681W        W21970   2.290  22.575  13.038
60682W        W21971  29.082  11.856  14.460
60683W        W21972  35.603  23.490   1.831
60684W        W21973   5.829   0.821  10.997
60685W        W21974  43.949  32.045   0.333
60686W        W21975  10.287   7.674   1.363
60687W        W21976  38.417  32.945   1.875
60688W        W21977  31.002  23.677  11.577
60689W        W21978  39.981  25.966   1.731
60690W        W21979  10.150  37.490  13.055
60691W        W21980  42.854   9.317  14.482
60692W        W21981   6.249  41.463   0.932
60693W        W21982  14.114  44.831   1.342
60694W        W21983  21.019  12.659  13.987
60695W        W21984   8.361   6.231   2.202
60696W        W21985  35.083  29.582   1.907
60697W        W21986   1.840  14.773  10.473
60698W        W21987  32.476   1.405   3.351
60699W        W21988  12.350   8.271   1.864
60700W        W21989  31.459  14.668   1.741
60701W        W21990   5.352   2.246  10.443
60702W        W21991  18.180  22.534  13.520
60703W        W21992  35.512  36.961   4.770
60704W        W21993  12.652  36.920   0.840
60705W        W21994  34.484   2.298  12.403
60706W        W21995  20.177  42.478  14.311
60707W        W21996   7.245  40.922   3.339
60708W        W21997   2.762  44.845   3.358
60709W        W21998   5.734  10.693   0.436
60710W        W21999   3.821  27.196   1.917
60711W        W22000  14.239  22.631   1.312
60712W        W22001  35.902   1.432   0.780
60713W        W22002  18.269  18.768  13.867
60714W        W22003   0.492  30.089   4.208
60715W        W22004  36.860  10.329  12.577
60716W        W22005  11.632  16.307   4.325
60717W        W22006   2.350  17.098   1.365
60718W        W22007  30.627  40.968   1.230
60719W        W22008  21.668  26.584   4.657
60720W        W22009   0.837  12.615  14.373
60721W        W22010  26.470   5.870  11.605
60722W        W22011  28.527   6.417   4.739
60723W        W22012  32.415  39.044  10.589
60724W        W22013  12.727   2.805  14.919
60725W        W22014  39.917  21.577   4.627
60726W        W22015   2.367   4.846  11.968
60727W        W22016  10.353  31.564   4.623
60728W        W22017   7.298  36.096   0.462
60729W        W22018  12.726  20.081  12.517
60730W        W22019  31.462  44.490  12.987
60731W        W22020   6.384  39.344  13.435
60732W        W22021  26.481  22.095  12.825
60733W        W22022  32.482   2.804  13.972
60734W        W22023   6.417  25.980   4.632
60735W        W22024  41.487   6.286  14.937
60736W        W22025  35.999  26.182   4.760
60737W        W22026   1.852  17.690  12.830
60738W        W22027   6.398  44.822  13.875
60739W        W22028  43.847   6.209  14.418
60740W        W22029   1.458   6.275   4.295
60741W        W22030   5.319  37.397   1.875
60742W        W22031  25.043  16.750  10.477
60743W        W22032  10.860  20.057   3.310
60744W        W22033  27.000  22.685  13.352
60745W        W22034  13.293  40.899   2.398
60746W        W22035  25.086   5.891   1.915
60747W        W22036  25.499  42.944   2.409
60748W        W22037  42.930  18.244  13.876
60749W        W22038  34.926  43.375   2.343
60750W        W22039  36.055   6.193   1.303
60751W        W22040   3.954  40.970   2.730
60752W        W22041  32.436  40.450   1.307
60753W        W22042  42.896  16.282  13.429
60754W        W22043   3.815  18.692   4.633
60755W        W22044  43.019   4.699   5.152
60756W        W22045  30.997  12.739   0.926
60757W        W22046   6.386  35.007  13.033
60758W        W22047  15.245  20.079   2.231
60759W        W22048  13.121   3.427  14.377
60760W        W22049  37.893  32.984  10.607
60761W        W22050  31.621  14.229   1.851
60762W        W22051   2.288   8.257   1.212
60763W        W22052  34.010  41.368  13.979
60764W        W22053  34.113  16.135   0.370
60765W        W22054  17.084  35.387   2.184
60766W        W22055  36.874   0.850  12.413
60767W        W22056  34.527  24.135  11.993
60768W        W22057  22.043   4.763  13.318
60769W        W22058  25.484  14.239   2.296
60770W        W22059  38.048  32.536  11.958
60771W        W22060  29.432  10.249  12.926
60772W        W22061  31.041  30.056   1.403
60773W        W22062  18.573   5.193  11.960
60774W        W22063  15.823  18.108   0.894
60775W        W22064  28.945  17.700   3.262
60776W        W22065  39.478   6.782   2.190
60777W        W22066  31.645  42.916   4.267
60778W        W22067   9.217  41.840   2.671
60779W        W22068   9.357  18.700   4.269
60780W        W22069  27.550  18.772   2.365
60781W        W22070   5.927  44.845   0.829
60782W        W22071  35.410   0.452  11.881
60783W        W22072  22.090  15.122   0.352
60784W        W22073  36.945  14.709  10.938
60785W        W22074   8.169  14.820   2.247
60786W        W22075   7.244  12.739  13.881
60787W        W22076  13.175  30.034  13.926
60788W        W22077  35.469  34.995  13.330
60789W        W22078  32.506  23.157  12.397
60790W        W22079   7.904  26.008   2.873
60791W        W22080  33.576  40.436   0.799
60792W        W22081  31.056  14.609   4.334
60793W        W22082   5.764  31.437  13.814
60794W        W22083  44.480   3.451  13.327
60795W        W22084  42.856  36.056   2.694
60796W        W22085   2.757  38.430   3.351
60797W        W22086   8.263  11.217  13.460
60798W        W22087  36.439  24.992  10.461
60799W        W22088  41.302   3.748   3.363
60800W        W22089  40.329  31.479  11.971
60801W        W22090  16.710  34.611   2.406
60802W        W22091  42.351   2.924   4.176
60803W        W22092   9.769  32.029   4.725
60804W        W22093  38.528  15.608   1.911
60805W        W22094  23.034  36.976  11.593
60806W        W22095  11.246  24.096   2.278
60807W        W22096  27.066  17.564   1.363
60808W        W22097  17.648  26.095   0.809
60809W        W22098  35.033  37.897  14.813
60810W        W22099  31.521  30.611   0.952
60811W        W22100  21.640  26.060   2.784
60812W        W22101   8.338  42.009   3.190
60813W        W22102  39.494  29.977  13.890
60814W        W22103   0.451  32.422  11.537
60815W        W22104  21.041  27.073   0.874
60816W        W22105   9.291  21.141   3.349
60817W        W22106   5.365  31.555  11.522
60818W        W22107  21.110   0.459   1.366
60819W        W22108  35.529  12.224   3.715
60820W        W22109  36.540  38.848   0.941
60821W        W22110   9.174  25.639   9.945
60822W        W22111   4.292  37.982   4.709
60823W        W22112  36.402  33.427   2.417
60824W        W22113  37.564  33.910   4.657
60825W        W22114  28.620  31.588  12.932
60826W        W22115  36.507  23.654  11.567
60827W        W22116   1.320  41.352  11.398
60828W        W22117  42.369  39.051  14.488
60829W        W22118  24.706  41.883  11.557
60830W        W22119  22.542   6.898   1.919
60831W        W22120  39.917   8.760  11.089
60832W        W22121  26.017  44.268  13.861
60833W        W22122  10.700  31.412   3.222
60834W        W22123  16.280  26.640   5.168
60835W        W22124  40.870  30.529  10.921
60836W        W22125  23.662  41.970   1.405
60837W        W22126  16.727  15.092  12.052
60838W        W22127  41.450  12.280   2.668
60839W        W22128  37.405  22.243   2.879
60840W        W22129  36.352  11.750   2.398
60841W        W22130  33.036  19.657  13.452
60842W        W22131  13.837  36.402  13.523
60843W        W22132  37.454  22.527   1.323
60844W        W22133   2.783  32.086  14.023
60845W        W22134  16.761  11.221  14.834
60846W        W22135  12.726   3.234   1.809
60847W        W22136  39.436  36.982   1.726
60848W        W22137  44.989  22.517  13.052
60849W        W22138  41.388  30.910  13.043
60850W        W22139   8.878  41.401   1.793
60851W        W22140  10.161  34.552  12.486
60852W        W22141  29.430  23.116  14.915
60853W        W22142  39.837  32.947  13.901
60854W        W22143   7.213  30.564  11.904
60855W        W22144  10.799   5.820   1.229
60856W        W22145  44.473  18.124   4.346
60857W        W22146  26.497  11.302  12.534
60858W        W22147  24.706   3.731   1.769
60859W        W22148  23.525  37.345  13.042
60860W        W22149   0.945   5.787   1.711
60861W        W22150  44.268  42.849   2.833
60862W        W22151  12.795  16.194  11.036
60863W        W22152  12.350  28.057   3.167
60864W        W22153  20.736  42.833  11.120
60865W        W22154  20.079  16.716   2.396
60866W        W22155  10.281   4.828  12.844
60867W        W22156  39.994  15.292   4.726
60868W        W22157  10.814  36.393   9.927
60869W        W22158  28.988  34.055   3.734
60870W        W22159  43.853  33.434  10.640
60871W        W22160  23.565  16.698   3.772
60872W        W22161   5.888  37.339  13.327
60873W        W22162   7.318  10.352   4.316
60874W        W22163  39.813   9.689   0.390
60875W        W22164  13.825  24.067   3.363
60876W        W22165  21.571  35.104   1.701
60877W        W22166   2.236  26.021  11.108
60878W        W22167  35.855  21.190   2.227
60879W        W22168  31.008  39.491   0.882
60880W        W22169   6.401  32.091  12.404
60881W        W22170   1.844  30.531   1.344
60882W        W22171  18.137  18.748  12.030
60883W        W22172   7.243  27.600   2.700
60884W        W22173   2.248  29.549  10.456
60885W        W22174  35.874  36.028  13.488
60886W        W22175   1.889  24.138   0.404
60887W        W22176  24.701  16.812  13.346
60888W        W22177  17.203  43.895  12.502
60889W        W22178   4.735  13.722  11.429
60890W        W22179  35.059   2.316  13.034
60891W        W22180  32.009  43.984  13.913
60892W        W22181  18.653  42.477   0.739
60893W        W22182  28.509  44.923   3.780
60894W        W22183  27.569  19.644  12.519
60895W        W22184  13.658  36.846  13.308
60896W        W22185  44.461  28.587   3.270
60897W        W22186  43.281   9.773   4.673
60898W        W22187  13.189  11.768   1.768
60899W        W22188   5.404  44.474   4.134
60900W        W22189  38.330   6.776  14.794
60901W        W22190  14.618  15.167   4.272
60902W        W22191  15.158  35.418  12.359
60903W        W22192  40.466  37.863  10.612
60904W        W22193  44.268  22.205  12.414
60905W        W22194  32.485  43.956   0.332
60906W        W22195  38.340  27.620  14.460
60907W        W22196  31.124   3.832   2.407
60908W        W22197  25.601   6.185  12.564
60909W        W22198   3.781  30.127  11.953
60910W        W22199  29.998  19.684   3.823
60911W        W22200  28.964  32.124  12.001
60912W        W22201  16.274  37.979  14.511
60913W        W22202  24.721  26.656   3.281
60914W        W22203  34.060  34.909   4.308
60915W        W22204  39.812   9.288  11.093
60916W        W22205  30.418  41.953  14.768
60917W        W22206  35.430   7.344  12.364
60918W        W22207  24.636   1.752  10.622
60919W        W22208   5.918  28.095   2.665
60920W        W22209  17.109   2.793   2.717
60921W        W22210  42.949  39.444   1.364
60922W        W22211  15.660  27.546   4.641
60923W        W22212  37.918  14.767   1.214
60924W        W22213  23.207  28.541  12.442
60925W        W22214  15.228  28.082  10.067
60926W        W22215  33.083  27.519  10.893
60927W        W22216  38.547   2.762  12.404
60928W        W22217  24.022  17.687  10.632
60929W        W22218  41.391  20.724  14.387
60930W        W22219   9.241  31.956  11.991
60931W        W22220  43.327  24.649  11.005
60932W        W22221  39.908  27.562   4.803
60933W        W22222  11.683  10.267  13.798
60934W        W22223  38.889  21.543  11.096
60935W        W22224  38.416  36.459  13.540
60936W        W22225  24.619  24.097   4.272
60937W        W22226  12.208  43.332   2.199
60938W        W22227  42.008  41.376   4.779
60939W        W22228  10.310  39.036  10.483
60940W        W22229  40.926  40.528  14.424
60941W        W22230  16.687   5.434  11.949
60942W        W22231  10.840  20.111   3.761
60943W        W22232  42.448  33.911  14.933
60944W        W22233  30.535   3.216   2.266
60945W        W22234  15.198  37.853  10.928
60946W        W22235  38.453  33.488   2.721
60947W        W22236  23.214  40.341   3.635
60948W        W22237  36.414   9.747  12.850
60949W        W22238  36.852  37.033   4.751
60950W        W22239   0.771   0.977   2.307
60951W        W22240  10.238  23.065   4.755
60952W        W22241   1.438   1.946   4.327
60953W        W22242  11.715  26.634  13.956
60954W        W22243  21.233  38.849  13.470
60955W        W22244  39.403  17.652   3.723
60956W        W22245  10.709   0.459  14.295
60957W        W22246  38.992   3.902  12.546
60958W        W22247   2.894  17.772  11.878
60959W        W22248  34.431  34.566   4.129
60960W        W22249  35.378  37.387   3.854
60961W        W22250   9.790  19.172   4.771
60962W        W22251  44.775  17.630   3.287
60963W        W22252  44.430   2.772  10.002
60964W        W22253  10.712  39.365   1.905
60965W        W22254  15.664  34.904   4.275
60966W        W22255   7.406  15.593   3.709
60967W        W22256  14.115  28.648   4.805
60968W        W22257  21.252   9.759  12.568
60969W        W22258  11.719  22.113   3.777
60970W        W22259  26.674   7.202   2.318
60971W        W22260  42.815   9.221  10.937
60972W        W22261   9.711  11.761   1.879
60973W        W22262  27.041  23.704  11.009
60974W        W22263  34.993  23.493  11.028
60975W        W22264   3.804  10.201  13.395
60976W        W22265  12.753  28.568  11.016
60977W        W22266  43.335  40.015   0.806
60978W        W22267   0.480  44.907  14.458
60979W        W22268  31.149  39.326   1.798
60980W        W22269   9.366  25.141   2.691
60981W        W22270   8.359  19.267  12.369
60982W        W22271  37.079  11.744  10.537
60983W        W22272  13.697   8.238  14.905
60984W        W22273  33.384  17.245  13.357
60985W        W22274  30.122  41.360  11.054
60986W        W22275  12.327   1.899  14.770
60987W        W22276  42.988  11.195   2.878
60988W        W22277  28.615   4.301  11.880
60989W        W22278  22.657  34.579   0.876
60990W        W22279  29.004   4.339   9.923
60991W        W22280  37.484  42.999  13.806
60992W        W22281  37.524  41.521  10.464
60993W        W22282   4.307   9.271   1.915
60994W        W22283  21.602   9.743   2.337
60995W        W22284   0.248  19.199  14.026
60996W        W22285  28.622  19.646  11.567
60997W        W22286  32.583   1.368  10.033
60998W        W22287  33.584  40.040  12.825
60999W        W22288  34.930  13.343  14.826
61000W        W22289  29.539   9.827  14.348
61001W        W22290   5.767  21.548   2.316
61002W        W22291   5.361  29.068  13.440
61003W        W22292  36.928  18.158   0.359
61004W        W22293  41.936  29.929  14.391
61005W        W22294  13.730  27.043  11.438
61006W        W22295  15.272  24.995   1.358
61007W        W22296  10.879   9.356  13.966
61008W        W22297   4.749  27.614  11.374
61009W        W22298  21.082   3.321  12.361
61010W        W22299  25.639  32.436   2.727
61011W        W22300  18.219  34.074   3.187
61012W        W22301  31.098  29.622  10.645
61013W        W22302  18.762   0.821  12.422
61014W        W22303  32.082  36.908  11.960
61015W        W22304  30.954  26.148  14.951
61016W        W22305  28.185  21.173   0.288
61017W        W22306   0.764  30.043   0.437
61018W        W22307  19.615  29.505  11.913
61019W        W22308   3.448  36.988   1.369
61020W        W22309  25.561  20.221  14.435
61021W        W22310  23.621  31.507  11.990
61022W        W22311  21.713  26.145  14.295
61023W        W22312  44.262  11.682  13.343
61024W        W22313   8.368   9.649   2.849
61025W        W22314  42.984  32.402  12.826
61026W        W22315   8.751  12.714   1.357
61027W        W22316   7.332  23.021  13.396
61028W        W22317   3.298  21.187   2.791
61029W        W22318  44.349  11.183  11.942
61030W        W22319  11.624  17.640  13.404
61031W        W22320  36.853   6.902  10.497
61032W        W22321   2.443  23.562  10.102
61033W        W22322  39.440  12.654  14.984
61034W        W22323  39.001  14.641  14.892
61035W        W22324  21.646  28.582   0.355
61036W        W22325  17.183  29.982  13.946
61037W        W22326  33.052   6.353  12.436
61038W        W22327  33.938   8.231   4.637
61039W        W22328  10.343  21.551   4.260
61040W        W22329  26.553   3.820  13.888
61041W        W22330  35.911  11.696  11.048
61042W        W22331   7.801  25.632   2.754
61043W        W22332  15.263  19.701   1.349
61044W        W22333  44.416  14.794  13.331
61045W        W22334  40.837  28.108   2.731
61046W        W22335   7.290  42.367   3.727
61047W        W22336  19.609  38.340  10.420
61048W        W22337  19.074   5.899   4.793
61049W        W22338  23.563  37.353  12.393
61050W        W22339   9.772  12.692  11.023
61051W        W22340  12.179  38.053  11.535
61052W        W22341  36.989  40.868  14.954
61053W        W22342  15.248  19.646  11.972
61054W        W22343   0.372  23.147  11.950
61055W        W22344   9.215  18.641  12.542
61056W        W22345  10.741   1.734   3.691
61057W        W22346   0.425  15.728   3.732
61058W        W22347  13.116  24.012  11.500
61059W        W22348  19.146  31.962  11.940
61060W        W22349   9.698   7.797   3.355
61061W        W22350  27.610  32.555  12.075
61062W        W22351  17.287   6.813   2.181
61063W        W22352  37.847  44.378   2.337
61064W        W22353  22.546  31.442   3.360
61065W        W22354   7.232  14.195  13.906
61066W        W22355  14.800  24.154   0.250
61067W        W22356  13.654   5.270  14.016
61068W        W22357  21.036   3.457  13.044
61069W        W22358   7.399  33.487   1.239
61070W        W22359   5.928  22.029  14.000
61071W        W22360  11.177  28.167   2.899
61072W        W22361  37.393   9.155   0.344
61073W        W22362  34.390   9.837   3.246
61074W        W22363  44.357   1.246   3.338
61075W        W22364  35.468  20.161   3.304
61076W        W22365  36.454  12.171   3.744
61077W        W22366  40.378  12.782  11.111
61078W        W22367  36.425   2.386   0.347
61079W        W22368  19.245  28.537  13.046
61080W        W22369  38.888  11.668  10.609
61081W        W22370   2.376  11.839   4.800
61082W        W22371  36.884  19.675  13.362
61083W        W22372  39.037  37.561   1.748
61084W        W22373  30.914  15.121  10.497
61085W        W22374  29.566  42.354  12.972
61086W        W22375  25.660  11.694   0.844
61087W        W22376  23.091   9.233   2.308
61088W        W22377  44.280  23.715   0.326
61089W        W22378   0.987  42.408  12.572
61090W        W22379   2.862  36.439   2.356
61091W        W22380  21.566  23.132   0.459
61092W        W22381   3.864  38.840  13.854
61093W        W22382  42.323   9.232   2.380
61094W        W22383  20.125  29.514  11.952
61095W        W22384  17.606   7.683   2.785
61096W        W22385  20.066  18.215  13.915
61097W        W22386   6.203  10.380   3.299
61098W        W22387  27.610  26.625   3.754
61099W        W22388  27.097  19.156   4.146
61100W        W22389  21.697  19.069  14.448
61101W        W22390  33.017  27.035   4.154
61102W        W22391  23.135  32.613   2.700
61103W        W22392  16.701   6.387   2.872
61104W        W22393  36.893  35.867  13.816
61105W        W22394  24.026  18.724   2.889
61106W        W22395  30.018  44.003  14.424
61107W        W22396  25.059  21.252  10.426
61108W        W22397   2.916  23.612   2.332
61109W        W22398  14.170  30.528   0.891
61110W        W22399  24.062  41.337   1.781
61111W        W22400   8.673   3.280  10.994
61112W        W22401  43.889  27.155  13.388
61113W        W22402  31.585  10.214  13.523
61114W        W22403  36.073  39.954   2.830
61115W        W22404  36.585  39.547  12.578
61116W        W22405   6.716   4.289  13.827
61117W        W22406  34.403  37.501  11.923
61118W        W22407  37.527  17.206  13.000
61119W        W22408  37.867  32.053  12.531
61120W        W22409  31.607  21.600  13.533
61121W        W22410   3.434  32.078   4.769
61122W        W22411   5.363   6.428  11.491
61123W        W22412  30.642  18.209  13.952
61124W        W22413  34.003  25.583   2.198
61125W        W22414   3.405  41.299   2.830
61126W        W22415   2.828  32.600  10.919
61127W        W22416  30.538  42.963  12.945
61128W        W22417  19.553   8.248  13.520
61129W        W22418  41.525  42.433   4.768
61130W        W22419  26.103  35.860   0.384
61131W        W22420  24.013  12.232   3.849
61132W        W22421   7.385   7.179   2.696
61133W        W22422  38.904  22.210   1.898
61134W        W22423  29.146   0.851   4.291
61135W        W22424   4.305   3.937   2.691
61136W        W22425   9.376  26.502  10.440
61137W        W22426  38.068   3.788  13.354
61138W        W22427  37.508  17.581  12.970
61139W        W22428  31.104   5.371   2.890
61140W        W22429   8.869  20.030   2.857
61141W        W22430  44.929  40.994   0.453
61142W        W22431  24.518  20.618   0.886
61143W        W22432  33.604   0.750   1.733
61144W        W22433  42.495  35.473  11.571
61145W        W22434  21.664  37.831  13.824
61146W        W22435   1.386  19.116   1.909
61147W        W22436  25.585   5.702   4.274
61148W        W22437  17.297  28.611  12.465
61149W        W22438   7.767  39.011  12.021
61150W        W22439   8.871   5.359  14.837
61151W        W22440   9.174  15.184   2.891
61152W        W22441  21.573  27.970  13.535
61153W        W22442   7.764  21.541  10.892
61154W        W22443  21.703   8.278  11.942
61155W        W22444   1.852  33.408  13.965
61156W        W22445  43.490   0.412   4.136
61157W        W22446  18.121  11.835  12.897
61158W        W22447  15.255  30.536   4.253
61159W        W22448  39.914  22.726   3.203
61160W        W22449   4.780  13.694   2.362
61161W        W22450  37.563  29.155   2.670
61162W        W22451  40.803   5.795  12.571
61163W        W22452  13.293  23.505   1.823
61164W        W22453  11.277  42.403  10.947
61165W        W22454  36.867   0.822   3.371
61166W        W22455  16.296   5.349  14.804
61167W        W22456   0.896   0.934   0.753
61168W        W22457  35.931  36.878  13.517
61169W        W22458   5.272  42.811   4.264
61170W        W22459   4.918  31.968   4.753
61171W        W22460  18.246  41.436   0.853
61172W        W22461  19.641  15.120   3.634
61173W        W22462  29.605  42.370   1.337
61174W        W22463  31.956  38.484  13.868
61175W        W22464  43.909  14.740  12.498
61176W        W22465  11.684  29.044   2.414
61177W        W22466  28.980  35.961   2.675
61178W        W22467  10.339  30.103   1.265
61179W        W22468   2.727  26.534   2.661
61180W        W22469  37.989  31.564   3.653
61181W        W22470  24.973  18.054  11.126
61182W        W22471  10.683  33.942  14.808
61183W        W22472   2.386  37.960  11.096
61184W        W22473  44.904  24.627  10.493
61185W        W22474  23.515  38.447   2.667
61186W        W22475  32.089  28.642   1.738
61187W        W22476  34.392  20.698   1.922
61188W        W22477  16.305  21.104  14.916
61189W        W22478  38.468  29.593   3.696
61190W        W22479  24.499   3.811   1.323
61191W        W22480   3.880   5.876  11.575
61192W        W22481  34.042  27.155  13.515
61193W        W22482  15.189  37.503  11.060
61194W        W22483  20.201  30.949  14.456
61195W        W22484  16.112   8.196   1.214
61196W        W22485  14.237  21.656  11.467
61197W        W22486  27.547  21.039  11.500
61198W        W22487   7.378   9.366  12.501
61199W        W22488   8.243  23.009  14.773
61200W        W22489  28.128   8.273   2.272
61201W        W22490   0.781  34.065  13.811
61202W        W22491  41.394   1.795   4.165
61203W        W22492  27.483  38.836  12.018
61204W        W22493  10.374   4.407  11.559
61205W        W22494  11.860  44.862  14.336
61206W        W22495   1.454  41.910  14.283
61207W        W22496   4.276  15.107  13.814
61208W        W22497  14.119   1.308  12.892
61209W        W22498  12.340   5.324  10.629
61210W        W22499   9.842  33.017  13.479
61211W        W22500  31.407   1.872   4.339
61212W        W22501   0.851  27.631  10.920
61213W        W22502   4.223  20.162   0.960
61214W        W22503  11.769   4.763   0.459
61215W        W22504  12.798  14.712   0.730
61216W        W22505  27.576  11.315   3.345
61217W        W22506  38.991  39.005  11.932
61218W        W22507  24.977  23.548   2.314
61219W        W22508  26.075   5.927  11.415
61220W        W22509   6.378  34.419   3.719
61221W        W22510   8.185  37.428  12.902
61222W        W22511  16.074  44.317   0.773
61223W        W22512   6.240   8.315   0.795
61224W        W22513  37.023  17.258   4.796
61225W        W22514  21.243  10.782   3.784
61226W        W22515  16.743  25.031  14.825
61227W        W22516   1.463  38.826  12.998
61228W        W22517  14.265  20.081  10.065
61229W        W22518  32.601  11.299  13.042
61230W        W22519  23.525   6.182  14.789
61231W        W22520  36.362  30.495   1.836
61232W        W22521  34.035  28.449  13.513
61233W        W22522  17.630   8.227   2.754
61234W        W22523  40.416  26.485   2.743
61235W        W22524   9.362  17.082  12.551
61236W        W22525  39.552  34.606   0.840
61237W        W22526   4.788  12.670  10.583
61238W        W22527  39.543  35.989  14.807
61239W        W22528  34.879  30.574  14.856
61240W        W22529  18.071  44.304  12.472
61241W        W22530  16.286  13.782   1.370
61242W        W22531  24.648  36.947  14.912
61243W        W22532  17.666  37.994  13.481
61244W        W22533  27.115  16.248   3.673
61245W        W22534  32.445  37.407  12.493
61246W        W22535  34.902  36.888  11.453
61247W        W22536  22.580  12.161  14.331
61248W        W22537  20.639  28.086  10.535
61249W        W22538  18.142   3.729   0.758
61250W        W22539   3.744  38.440   4.759
61251W        W22540  15.639   0.327  11.414
61252W        W22541  41.974   3.743  12.409
61253W        W22542   6.337  10.245  10.955
61254W        W22543  42.940  15.170   3.271
61255W        W22544  29.517  35.893   4.729
61256W        W22545  27.610  41.461  11.446
61257W        W22546  25.203  17.102  12.439
61258W        W22547  32.094  44.979   3.318
61259W        W22548  42.288  11.207  13.473
61260W        W22549  10.741  31.430  12.078
61261W        W22550  11.319  43.497   3.351
61262W        W22551  10.238  19.136  12.015
61263W        W22552  10.369  14.123  10.973
61264W        W22553  23.020  28.046  14.297
61265W        W22554  36.488   5.928   1.281
61266W        W22555   9.722  31.085   0.934
61267W        W22556  38.501   7.703   4.744
61268W        W22557  26.078  33.118   2.196
61269W        W22558  22.670  12.773   1.398
61270W        W22559   9.866  43.276  12.910
61271W        W22560  21.639  37.448  10.480
61272W        W22561  21.097  42.925  12.487
61273W        W22562  34.567  40.852  12.525
61274W        W22563  43.443  17.687   1.388
61275W        W22564  24.006  27.499  14.887
61276W        W22565  42.800  35.070   4.345
61277W        W22566  15.125  28.619  12.552
61278W        W22567  26.012   6.829  14.778
61279W        W22568  28.549  13.266   0.311
61280W        W22569   0.378  18.622   3.703
61281W        W22570  30.033   5.314  13.893
61282W        W22571  29.664  36.986   1.411
61283W        W22572  15.611  19.207   2.839
61284W        W22573  41.859   2.728  13.827
61285W        W22574  34.603  18.198  14.442
61286W        W22575  32.139  28.952  12.363
61287W        W22576  30.424  22.246  12.360
61288W        W22577  27.557  22.713   1.901
61289W        W22578  16.302  39.843   3.633
61290W        W22579  41.346  15.181  14.767
61291W        W22580  33.000  40.910  10.951
61292W        W22581  26.983  23.163   1.863
61293W        W22582   4.285  22.047   2.343
61294W        W22583   9.822  26.077  10.583
61295W        W22584   0.365  35.032  14.026
61296W        W22585  17.136  15.247   4.752
61297W        W22586  28.066   6.217  13.797
61298W        W22587  34.943  19.141  13.925
61299W        W22588  24.592   2.425  10.631
61300W        W22589   7.395  20.617   0.752
61301W        W22590  33.971   8.663  14.316
61302W        W22591  34.440  40.459   4.164
61303W        W22592  29.470  34.972   0.852
61304W        W22593  23.145   4.356  10.486
61305W        W22594  34.466  24.014  13.806
61306W        W22595   5.690  26.623   3.362
61307W        W22596   1.371  40.354  13.372
61308W        W22597  26.970   5.298  11.381
61309W        W22598  24.071   9.164  10.496
61310W        W22599   3.735   1.460   2.783
61311W        W22600   8.167  23.659   4.823
61312W        W22601  44.996  33.909  11.524
61313W        W22602  40.483   6.394  10.616
61314W        W22603  23.520  22.035   4.120
61315W        W22604  18.150  25.603   0.302
61316W        W22605  24.063  38.372   3.251
61317W        W22606  32.543  34.476  13.905
61318W        W22607  19.188  13.302  14.453
61319W        W22608  19.649  17.069  12.941
61320W        W22609  33.877   0.468   2.882
61321W        W22610  37.428  35.390  12.457
61322W        W22611  34.868  29.078  11.565
61323W        W22612  22.182   2.961   0.779
61324W        W22613  42.877  14.689   4.181
61325W        W22614   4.786  36.416   2.874
61326W        W22615  44.262  33.482  12.502
61327W        W22616  34.375  10.240   3.162
61328W        W22617  27.082  31.459   3.658
61329W        W22618   5.701  28.970   2.885
61330W        W22619  16.693  14.106  12.984
61331W        W22620  24.502   1.966  12.579
61332W        W22621  24.094  11.769  10.007
61333W        W22622   2.399  30.514   3.658
61334W        W22623   8.797   9.219  10.524
61335W        W22624  20.181  29.056   0.871
61336W        W22625   4.859   0.852   4.599
61337W        W22626   7.825  21.731   2.184
61338W        W22627   7.309  40.984  11.029
61339W        W22628  35.547  44.496  13.342
61340W        W22629  18.059  40.359   3.665
61341W        W22630   6.216  33.125  12.441
61342W        W22631   5.311  12.838  12.079
61343W        W22632  15.691  44.919  11.412
61344W        W22633  36.539  34.116   1.288
61345W        W22634  43.394  39.530  12.361
61346W        W22635  29.627  11.708   1.761
61347W        W22636  30.118  26.067  12.989
61348W        W22637  16.637  42.804   2.695
61349W        W22638   0.318   3.943   3.708
61350W        W22639  39.008  44.277  14.782
61351W        W22640  12.242   4.256   1.269
61352W        W22641  38.906  21.218   1.826
61353W        W22642  44.323  27.066  12.395
61354W        W22643  36.067  12.671   4.627
61355W        W22644   1.747  22.118  10.954
61356W        W22645  40.311  30.034  14.396
61357W        W22646  35.934  13.161   4.762
61358W        W22647  24.229   3.878  14.782
61359W        W22648  11.797   7.312  13.439
61360W        W22649   2.780  26.652  14.458
61361W        W22650  28.110  16.152  10.112
61362W        W22651  31.606  32.524  12.543
61363W        W22652  12.801  15.791  14.281
61364W        W22653  34.431   2.833   0.871
61365W        W22654  36.431  28.562   0.348
61366W        W22655  29.445  43.828   3.288
61367W        W22656  12.128  16.301   1.384
61368W        W22657  16.302  36.500   1.804
61369W        W22658  31.140  21.626   0.734
61370W        W22659   1.347  25.683   4.247
61371W        W22660   2.882  34.418  13.029
61372W        W22661  12.299  17.190  12.461
61373W        W22662  27.670  20.658   4.668
61374W        W22663   1.763  18.275  14.477
61375W        W22664  26.986  32.442  12.005
61376W        W22665   2.269   5.874   4.764
61377W        W22666  32.011   8.697  13.504
61378W        W22667  27.984  19.114   1.724
61379W        W22668  14.267  43.368  14.276
61380W        W22669  25.158  17.108  10.607
61381W        W22670  27.615  20.129   0.401
61382W        W22671  14.748   8.834  11.070
61383W        W22672   9.715  30.554  14.381
61384W        W22673  40.810  14.211   0.477
61385W        W22674  25.605  10.347   3.387
61386W        W22675  39.415   0.400   0.755
61387W        W22676  20.231  14.151   3.748
61388W        W22677  34.529   1.861   4.335
61389W        W22678  31.057  35.508   3.217
61390W        W22679  24.597  33.556  13.058
61391W        W22680  20.550  14.296  14.804
61392W        W22681  25.509  26.594   2.871
61393W        W22682  36.456  11.306   3.273
61394W        W22683  30.098  11.806  14.790
61395W        W22684  11.349  23.492  14.003
61396W        W22685  19.148  26.599   2.178
61397W        W22686  40.429  33.901   3.641
61398W        W22687  31.431  27.973   2.818
61399W        W22688  11.266   6.796   4.709
61400W        W22689  19.745  28.466   2.387
61401W        W22690   4.839   2.756  13.820
61402W        W22691  40.544  11.730  11.531
61403W        W22692  32.954  30.047  14.829
61404W        W22693  37.944   5.747   0.472
61405W        W22694  24.979  44.414   2.365
61406W        W22695  22.667  15.713   5.240
61407W        W22696  28.680  15.203  11.409
61408W        W22697  25.592  36.065  13.347
61409W        W22698   8.201  12.234  12.506
61410W        W22699  30.935  38.374   3.792
61411W        W22700  39.024  25.179   2.735
61412W        W22701   4.881   6.878  14.850
61413W        W22702  32.555  16.712  13.477
61414W        W22703  18.646  33.592  14.317
61415W        W22704  17.093  41.525  13.545
61416W        W22705   0.799  18.132  13.005
61417W        W22706  11.703   1.930   5.268
61418W        W22707  16.304  17.688  11.585
61419W        W22708   6.192   9.356  11.416
61420W        W22709  18.135  25.617  13.806
61421W        W22710  33.388  14.120   0.904
61422W        W22711  14.600   3.222   3.820
61423W        W22712  27.573  16.710   3.787
61424W        W22713  34.593  24.654   0.769
61425W        W22714   4.428   4.882  14.772
61426W        W22715  21.050  16.304   1.863
61427W        W22716  17.092   0.478   2.278
61428W        W22717   2.792  21.051  14.873
61429W        W22718   5.842  44.259  13.034
61430W        W22719  25.559   9.862   3.689
61431W        W22720  40.306  13.288  14.027
61432W        W22721  38.422  42.017  11.429
61433W        W22722   4.217  20.523  10.558
61434W        W22723  20.075  24.094   0.733
61435W        W22724  34.919  10.649   1.865
61436W        W22725  10.247   4.265  10.445
61437W        W22726  15.298  23.216  13.450
61438W        W22727   2.345  11.153  10.510
61439W        W22728  40.539  36.458  11.542
61440W        W22729  24.680  39.961   2.896
61441W        W22730   2.842  42.979   0.389
61442W        W22731  19.280  25.173   5.319
61443W        W22732  39.842   8.371  11.518
61444W        W22733   0.747  40.392  14.279
61445W        W22734  33.971  39.475  12.557
61446W        W22735  34.012   1.257   3.841
61447W        W22736  17.160  16.770   3.774
61448W        W22737   5.211   5.904  11.932
61449W        W22738  36.916   3.745  11.107
61450W        W22739   3.743   7.238  11.957
61451W        W22740  23.199  40.344   4.248
61452W        W22741  32.506   2.406   4.212
61453W        W22742   4.740  37.340  11.387
61454W        W22743  40.949  25.125   3.782
61455W        W22744  19.260  16.608   3.737
61456W        W22745  12.210  43.959   5.145
61457W        W22746  29.645   0.421  11.885
61458W        W22747  28.464  27.490   4.231
61459W        W22748  36.451  11.310   2.717
61460W        W22749  24.697  20.109   5.268
61461W        W22750  44.293  17.157  10.421
61462W        W22751  28.040   5.929  13.061
61463W        W22752   4.740  36.440   1.730
61464W        W22753  29.455  33.006   4.669
61465W        W22754  43.770  29.941   0.311
61466W        W22755  40.333  30.602   0.270
61467W        W22756  26.637  15.601  11.937
61468W        W22757   4.811  24.223  12.567
61469W        W22758  36.562  30.038  12.378
61470W        W22759  31.036   0.977   4.209
61471W        W22760   4.429   8.210   3.246
61472W        W22761  17.692  11.742  12.838
61473W        W22762  26.618  21.613  13.034
61474W        W22763   2.892  17.164   1.381
61475W        W22764  22.651   0.480  13.996
61476W        W22765  16.150  21.616   3.758
61477W        W22766   7.700  31.027   1.349
61478W        W22767  19.706  39.815  13.345
61479W        W22768  23.690   3.877   0.305
61480W        W22769  25.630   2.840   1.902
61481W        W22770   1.480  14.767   2.883
61482W        W22771  10.343  38.338  14.948
61483W        W22772  32.896  19.595   2.709
61484W        W22773   5.209  42.397   0.405
61485W        W22774  28.990  19.229  14.781
61486W        W22775   0.442  11.849   0.800
61487W        W22776  40.458  38.944  13.481
61488W        W22777   5.302   2.454  13.812
61489W        W22778  39.999  25.007   2.882
61490W        W22779  24.600  20.540   2.780
61491W        W22780  18.069  44.808  14.797
61492W        W22781  21.590  12.650   0.931
61493W        W22782  14.830  26.009  10.597
61494W        W22783  37.470   9.330   2.263
61495W        W22784  16.174  27.100   3.711
61496W        W22785  29.112  12.661   0.275
61497W        W22786  31.920  26.534   0.846
61498W        W22787  39.039  21.251   1.273
61499W        W22788  34.493  10.289   2.803
61500W        W22789  23.558  16.728   2.262
61501W        W22790  44.355  34.120   2.240
61502W        W22791   0.375  39.371   2.380
61503W        W22792   6.226   0.807   4.206
61504W        W22793  10.718  39.429   1.395
61505W        W22794   0.856  39.546  14.829
61506W        W22795  22.136  34.595   3.197
61507W        W22796  15.140  41.512   1.295
61508W        W22797  26.703  27.980  12.531
61509W        W22798  38.896  35.066  10.631
61510W        W22799  18.187   5.780  10.921
61511W        W22800  31.576  32.498   1.898
61512W        W22801  34.966   0.983   1.369
61513W        W22802   7.783  33.992  12.563
61514W        W22803  44.822   2.234  11.032
61515W        W22804   3.440  20.527  13.342
61516W        W22805  34.001  11.292   0.419
61517W        W22806   2.895   6.780   2.703
61518W        W22807   3.882  21.096  14.360
61519W        W22808  17.556  14.233   0.827
61520W        W22809   7.240  28.088   4.149
61521W        W22810  10.266   2.822  13.533
61522W        W22811   0.255   5.809   3.175
61523W        W22812  22.602  44.928   2.808
61524W        W22813  10.755  23.125   0.939
61525W        W22814  30.115  32.624  12.526
61526W        W22815  19.659  21.529   3.231
61527W        W22816  13.175   5.858   3.838
61528W        W22817  44.280  36.043  13.398
61529W        W22818  35.988  33.013   4.785
61530W        W22819  37.883  37.465  14.891
61531W        W22820  19.566   4.233  13.843
61532W        W22821  30.493   1.433  13.461
61533W        W22822  18.626  30.656   3.818
61534W        W22823  42.016  27.513  14.404
61535W        W22824   6.401   7.350  14.013
61536W        W22825  10.840  22.691  10.910
61537W        W22826  40.545  16.793   2.677
61538W        W22827  40.500  34.435  11.892
61539W        W22828  18.257  27.493  14.339
61540W        W22829  31.631  17.696   1.892
61541W        W22830  22.212  26.627  12.881
61542W        W22831  41.015   5.254   2.302
61543W        W22832  30.949  18.788  10.514
61544W        W22833  15.750  31.116   2.341
61545W        W22834  31.591  44.392  14.869
61546W        W22835  11.264  39.988   0.950
61547W        W22836  43.430   4.919  13.848
61548W        W22837  10.714  39.981  13.879
61549W        W22838   6.420  37.876  13.444
61550W        W22839  29.595  38.513  13.441
61551W        W22840  40.317   9.367  12.019
61552W        W22841  11.342   4.786  13.997
61553W        W22842  33.896  27.146   2.893
61554W        W22843  33.395  17.260  13.972
61555W        W22844   4.439  40.407   0.964
61556W        W22845   5.897  34.512  11.392
61557W        W22846  13.805   0.783  11.987
61558W        W22847  15.757  34.004   2.200
61559W        W22848  11.340  38.518   1.811
61560W        W22849  43.412   8.693  10.989
61561W        W22850  38.528  10.726   3.385
61562W        W22851  29.488   3.421   1.327
61563W        W22852  19.764   9.846   3.845
61564W        W22853  21.561  21.061   0.966
61565W        W22854  13.325  17.289  12.828
61566W        W22855  29.563   9.373   9.985
61567W        W22856  19.119  34.410  14.422
61568W        W22857  42.346  40.032   1.370
61569W        W22858  22.592  14.686  14.513
61570W        W22859  40.859  30.459   4.183
61571W        W22860   4.707  16.102   5.086
61572W        W22861  27.479  25.553  12.436
61573W        W22862  38.985  24.156  14.287
61574W        W22863  22.023   0.394   3.799
61575W        W22864  37.566  35.533  11.453
61576W        W22865  16.117  23.621   2.363
61577W        W22866   3.765  40.323   1.881
61578W        W22867   7.364  24.539  11.514
61579W        W22868  40.430  20.083   4.192
61580W        W22869  10.185  29.953   3.696
61581W        W22870  30.570  16.220   3.798
61582W        W22871  36.554  21.616  14.492
61583W        W22872  33.948  43.808  12.861
61584W        W22873   4.927  13.130   2.703
61585W        W22874  33.415  44.312  13.360
61586W        W22875  42.016   9.720  12.347
61587W        W22876   0.356  17.222  14.378
61588W        W22877  19.648  27.014  13.063
61589W        W22878  15.095   3.261   1.763
61590W        W22879  44.976  31.481   0.362
61591W        W22880  15.195   4.350  10.982
61592W        W22881  41.413  35.445   0.349
61593W        W22882   6.771  14.598  10.465
61594W        W22883  18.165  37.991  12.530
61595W        W22884   4.822  27.162  13.800
61596W        W22885   9.235  36.998   0.901
61597W        W22886   3.770   4.351  13.357
61598W        W22887  23.984  34.069   4.693
61599W        W22888  16.186  29.462  12.018
61600W        W22889   0.952  39.008  12.023
61601W        W22890  29.522   1.363  10.079
61602W        W22891  14.337  29.512  14.859
61603W        W22892  25.528  25.530   1.362
61604W        W22893  27.602  42.292   3.698
61605W        W22894  35.409  25.608   1.803
61606W        W22895   2.365  20.555   1.431
61607W        W22896  11.143  42.993   3.303
61608W        W22897  35.413  42.508   3.147
61609W        W22898  35.468  36.947  12.579
61610W        W22899   0.400  26.137   4.753
61611W        W22900  19.684  20.121  11.593
61612W        W22901  28.028  29.518   0.483
61613W        W22902  34.099  19.176  13.446
61614W        W22903  36.431  29.080   0.304
61615W        W22904   2.924  32.141   1.242
61616W        W22905  23.990  28.159   1.329
61617W        W22906   3.415  43.422   2.399
61618W        W22907  15.724   2.797   4.692
61619W        W22908  40.385  25.530   0.363
61620W        W22909  21.247  38.940  14.015
61621W        W22910  39.476   8.749  12.908
61622W        W22911  19.702  37.920  12.499
61623W        W22912   1.307  25.531  14.448
61624W        W22913  25.479  43.349  14.008
61625W        W22914  40.539   2.245   0.815
61626W        W22915  43.460  21.035  14.953
61627W        W22916   4.352  32.120   4.678
61628W        W22917  15.123  28.630   3.158
61629W        W22918  39.869   1.903  11.441
61630W        W22919  16.670  18.729   3.704
61631W        W22920  26.977  33.566  14.952
61632W        W22921  25.510  29.021  14.950
61633W        W22922   6.690  43.472   3.698
61634W        W22923  23.079  16.790  13.002
61635W        W22924   4.276  13.188  10.947
61636W        W22925   5.262  34.534  11.926
61637W        W22926   5.733  23.056  14.281
61638W        W22927   6.792  27.080   3.150
61639W        W22928  35.480  28.961  12.967
61640W        W22929  42.855  28.462   3.312
61641W        W22930  14.703  41.799   2.858
61642W        W22931  14.743   0.890  11.432
61643W        W22932  44.323  42.398  14.426
61644W        W22933  11.641  18.081   4.289
61645W        W22934  34.510  41.957   1.254
61646W        W22935   9.676  27.066   1.424
61647W        W22936  44.463  18.725  13.982
61648W        W22937   4.741   0.827   2.851
61649W        W22938  39.980   5.928  11.897
61650W        W22939  20.162  30.051   1.332
61651W        W22940  40.434   8.687  11.523
61652W        W22941  28.165  11.744   4.736
61653W        W22942  34.016   2.906  14.474
61654W        W22943  39.339  25.122   3.645
61655W        W22944  42.512   4.248  14.851
61656W        W22945   9.685  18.130   2.818
61657W        W22946  21.655   6.796   4.763
61658W        W22947  41.366  24.496   3.794
61659W        W22948  10.208  40.940  13.991
61660W        W22949  14.156   9.682   1.232
61661W        W22950  21.571  38.963   2.320
61662W        W22951  41.024  44.275  11.511
61663W        W22952  21.528  29.985   1.284
61664W        W22953   0.855  16.649   4.207
61665W        W22954  29.070  12.205  14.274
61666W        W22955  36.945  39.327   0.412
61667W        W22956   1.420  10.686   4.808
61668W        W22957  41.309  11.373   0.778
61669W        W22958  19.668  32.132   1.306
61670W        W22959  29.663  16.107   0.944
61671W        W22960  27.194  38.330  12.516
61672W        W22961   2.430  37.019  10.568
61673W        W22962  14.673  26.070  14.301
61674W        W22963  38.064  31.635   1.876
61675W        W22964  26.625  34.020   0.879
61676W        W22965   6.830  31.624  11.958
61677W        W22966  13.764   2.866  13.017
61678W        W22967  30.642  13.825   2.774
61679W        W22968  30.998   9.677  11.514
61680W        W22969   6.890  18.719  14.833
61681W        W22970  13.763  22.659  11.102
61682W        W22971  26.681  27.533  10.985
61683W        W22972   6.759  13.747   4.601
61684W        W22973  30.039   3.891  12.402
61685W        W22974  40.814   0.305  11.944
61686W        W22975  30.522  13.602  10.562
61687W        W22976  26.531  38.918   2.411
61688W        W22977   7.401  40.948   2.209
61689W        W22978  31.473  21.550  11.424
61690W        W22979  33.445  18.224  11.888
61691W        W22980  39.835  33.051   3.870
61692W        W22981  25.505  19.680  10.052
61693W        W22982  20.237  40.534  12.859
61694W        W22983  39.047  20.741   4.608
61695W        W22984  41.305  43.288   2.217
61696W        W22985  40.523  23.603   0.804
61697W        W22986  35.518   4.225   3.158
61698W        W22987  38.991   6.899  11.111
61699W        W22988  19.151  25.171  14.315
61700W        W22989  26.551  28.133   1.338
61701W        W22990  41.307  29.528  10.892
61702W        W22991  20.546   4.315  13.007
61703W        W22992  15.189   4.204  12.077
61704W        W22993  26.194  23.672   1.381
61705W        W22994  33.055   4.815   2.709
61706W        W22995  38.012  36.414  13.514
61707W        W22996  40.544  42.326   0.408
61708W        W22997  20.654  30.537   2.269
61709W        W22998   4.381  24.226   5.125
61710W        W22999  12.149  34.085   1.253
61711W        W23000  18.061  15.317   3.744
61712W        W23001  43.420  29.019  11.948
61713W        W23002   7.242  30.500   4.666
61714W        W23003   9.342  21.616  11.875
61715W        W23004  25.157  21.566   3.378
61716W        W23005  29.625  23.559   1.332
61717W        W23006  15.748  14.644  10.053
61718W        W23007  44.819  34.067  11.973
61719W        W23008  17.671  43.838  13.332
61720W        W23009  33.384  11.720  11.440
61721W        W23010  42.402  31.070  14.982
61722W        W23011  34.867  18.279   2.288
61723W        W23012  12.831  33.077  11.517
61724W        W23013  31.104  38.936  14.363
61725W        W23014  12.709  44.408   1.810
61726W        W23015  34.568  41.481  10.917
61727W        W23016  10.797  22.033  14.870
61728W        W23017   8.247  25.963   1.775
61729W        W23018  34.538  18.763  13.480
61730W        W23019  14.284  43.842   3.384
61731W        W23020   6.879  42.934  11.873
61732W        W23021  10.290  27.957  11.012
61733W        W23022  20.568  31.646  11.483
61734W        W23023  27.136  22.708  11.513
61735W        W23024  21.074   2.248   2.281
61736W        W23025   5.195  18.782   0.435
61737W        W23026  32.053   6.765  13.808
61738W        W23027  33.405  12.752   1.895
61739W        W23028   6.801   1.864   0.403
61740W        W23029   5.403  43.955  10.461
61741W        W23030   8.827  22.560   0.379
61742W        W23031   8.371  26.959  12.011
61743W        W23032   6.899  37.457  12.456
61744W        W23033  17.064  35.455   2.877
61745W        W23034  32.471  17.249   2.671
61746W        W23035   1.340  24.193  13.428
61747W        W23036  22.575  12.802  11.875
61748W        W23037   7.713  23.186   1.384
61749W        W23038  42.951   8.777  14.324
61750W        W23039  31.982   9.344   0.745
61751W        W23040  29.077  36.998  12.915
61752W        W23041  37.045  16.293   1.722
61753W        W23042  32.099  20.078  12.959
61754W        W23043  12.852  19.703  13.350
61755W        W23044  31.509   8.782  12.405
61756W        W23045  10.321  25.630   1.791
61757W        W23046  18.698  33.528   4.771
61758W        W23047  38.502  31.493   0.371
61759W        W23048  35.082  13.715   0.822
61760W        W23049  33.464   7.905  12.929
61761W        W23050  23.666  35.996  13.929
61762W        W23051  33.124   5.813  10.445
61763W        W23052  22.036   6.274  14.921
61764W        W23053  12.711  38.894  12.901
61765W        W23054  29.945  42.938   0.388
61766W        W23055  36.420  17.793  13.950
61767W        W23056  44.383   8.834  12.947
61768W        W23057  27.664  38.446   1.768
61769W        W23058  32.420   8.400   0.941
61770W        W23059  36.588  36.948   2.401
61771W        W23060   3.739  42.940  13.503
61772W        W23061   7.204  43.415  13.966
61773W        W23062  34.119  15.148  10.584
61774W        W23063  18.245  15.600   4.678
61775W        W23064  39.892  16.142   4.215
61776W        W23065  35.087  18.134  14.480
61777W        W23066   4.924  29.483  12.888
61778W        W23067  25.208  19.192   4.726
61779W        W23068  40.377  17.574   3.152
61780W        W23069   1.280  10.637   3.266
61781W        W23070   6.260  43.368   3.705
61782W        W23071  30.131  35.570   4.254
61783W        W23072  17.753  33.959   4.194
61784W        W23073   3.755  43.381  11.117
61785W        W23074  39.343  43.866   2.186
61786W        W23075   7.677  37.480  11.550
61787W        W23076  39.391  33.578   3.837
61788W        W23077  35.359  28.935   1.422
61789W        W23078  16.709  39.018   0.853
61790W        W23079  15.292  19.569  13.529
61791W        W23080  39.330  29.477   1.881
61792W        W23081  27.988  24.992   1.341
61793W        W23082  38.852  15.791   9.994
61794W        W23083  39.062  39.000   4.688
61795W        W23084  41.525  44.815   3.282
61796W        W23085  12.686  31.128  13.996
61797W        W23086  30.613  27.518  12.355
61798W        W23087  36.857   5.192  14.379
61799W        W23088  38.842  15.647  12.505
61800W        W23089   3.324  31.474   0.924
61801W        W23090  20.269  26.082  14.777
61802W        W23091  11.835  24.985  10.049
61803W        W23092   5.739  41.024   1.860
61804W        W23093  24.635   9.838  11.582
61805W        W23094  41.975  15.234  10.957
61806W        W23095  18.648  32.598  12.941
61807W        W23096  31.549  29.947  14.768
61808W        W23097  17.226  40.969  11.388
61809W        W23098   1.815  27.660  13.840
61810W        W23099  28.627  13.812   2.287
61811W        W23100  29.119  37.053  11.390
61812W        W23101  44.859  26.081   4.248
61813W        W23102  23.673  41.976   3.257
61814W        W23103   4.729  44.487  14.425
61815W        W23104  15.310  44.432   4.654
61816W        W23105  13.253  13.633   0.800
61817W        W23106  11.300  11.772   3.360
61818W        W23107  34.432  15.325   0.465
61819W        W23108  30.023   4.419   3.770
61820W        W23109  37.337  22.122  13.344
61821W        W23110  28.020  20.134   0.242
61822W        W23111  33.574  28.987  13.393
61823W        W23112  25.599   6.354  13.351
61824W        W23113   7.890  32.603   0.762
61825W        W23114   2.837   8.778  13.806
61826W        W23115  38.004  39.559  13.376
61827W        W23116  29.060  44.962  13.904
61828W        W23117   5.315  34.509   3.335
61829W        W23118  32.442  13.812   1.733
61830W        W23119  43.853  12.827   4.753
61831W        W23120  11.713  10.212  12.381
61832W        W23121   6.835   1.746  14.415
61833W        W23122  29.450  25.061   2.300
61834W        W23123   7.873   2.824  13.877
61835W        W23124  28.596   3.371  13.493
61836W        W23125  32.027  22.208   4.287
61837W        W23126   2.465   7.887   1.212
61838W        W23127  36.474  37.951   3.367
61839W        W23128  23.177  42.523  11.470
61840W        W23129  28.077  34.391  11.520
61841W        W23130  17.685   8.298   0.842
61842W        W23131   1.342   5.195   4.650
61843W        W23132  21.233  24.654  12.411
61844W        W23133   5.778  15.654  14.997
61845W        W23134  12.329   1.956   4.277
61846W        W23135  20.223  41.938   3.864
61847W        W23136  20.768   2.771  13.468
61848W        W23137  22.089  16.124   3.719
61849W        W23138  31.109  38.963   2.862
61850W        W23139  44.343  14.190  13.020
61851W        W23140  41.353  16.185  11.909
61852W        W23141  33.874  25.051  13.816
61853W        W23142  28.158   9.721  11.412
61854W        W23143  41.926  13.735   3.633
61855W        W23144  29.168  31.928  11.509
61856W        W23145  41.851  36.095  12.855
61857W        W23146  15.797  26.173  13.487
61858W        W23147   0.982  32.897   4.343
61859W        W23148  12.230  43.924  11.888
61860W        W23149  31.995  30.154   4.213
61861W        W23150  31.642  13.671  14.498
61862W        W23151  34.585  29.992   4.615
61863W        W23152  41.863  18.064   3.700
61864W        W23153  24.141  12.354   4.667
61865W        W23154  28.497  28.062  12.580
61866W        W23155  39.985  32.553  11.113
61867W        W23156  16.583  38.362  11.907
61868W        W23157  25.675  31.900  12.509
61869W        W23158   9.187  24.054   3.370
61870W        W23159  12.283  41.979  12.996
61871W        W23160   3.405  11.736   4.232
61872W        W23161  40.359  29.103   0.871
61873W        W23162  38.899   8.221   1.265
61874W        W23163   6.352   8.822  14.401
61875W        W23164  17.123  25.514  11.450
61876W        W23165  19.626   6.418   3.779
61877W        W23166  35.404  14.722  12.533
61878W        W23167  29.453  40.487  10.912
61879W        W23168  32.974  42.904   0.817
61880W        W23169  16.749  22.628   4.158
61881W        W23170  26.557  22.178  14.772
61882W        W23171   4.933   3.400  11.001
61883W        W23172  22.685   7.245  14.767
61884W        W23173  16.089  33.431   0.772
61885W        W23174  25.980  14.791   4.803
61886W        W23175  13.119  31.522  13.875
61887W        W23176  16.649  15.165   1.776
61888W        W23177  36.576  41.536  12.918
61889W        W23178   2.418   2.234   1.754
61890W        W23179   2.937   7.799   0.279
61891W        W23180  32.058  27.662   0.420
61892W        W23181  43.281  39.556   4.142
61893W        W23182  39.039   2.892  12.474
61894W        W23183  21.243  27.678  11.557
61895W        W23184   8.667  14.145  13.430
61896W        W23185   1.361  32.053  11.547
61897W        W23186  27.131  10.363   2.742
61898W        W23187   6.808  10.204  10.976
61899W        W23188  33.561  16.318  11.983
61900W        W23189  14.717   5.425   3.850
61901W        W23190   0.765  25.514  13.811
61902W        W23191  16.310  43.451  11.598
61903W        W23192  38.526  25.661  10.539
61904W        W23193  41.424  10.318  14.450
61905W        W23194   7.201  18.588   0.358
61906W        W23195  20.678  20.153   2.890
61907W        W23196  21.725   5.433  10.960
61908W        W23197  30.564  23.543  11.956
61909W        W23198  36.967  33.390  11.518
61910W        W23199   6.727  40.373  11.912
61911W        W23200  30.966   0.891   3.828
61912W        W23201   7.910   1.379  13.968
61913W        W23202   6.796  30.503   4.753
61914W        W23203  25.019  25.090   0.753
61915W        W23204  20.561  30.003  10.474
61916W        W23205  28.678  44.497   4.244
61917W        W23206   2.736  37.477  14.468
61918W        W23207  40.014  24.515   3.266
61919W        W23208  19.068  44.287  10.501
61920W        W23209  31.061  21.086   1.236
61921W        W23210  10.310   0.858  13.848
61922W        W23211  42.814  39.455  12.408
61923W        W23212   3.326   9.876  13.520
61924W        W23213  42.917  42.876  13.330
61925W        W23214  34.590  16.290  11.407
61926W        W23215  18.188  19.602   3.762
61927W        W23216  17.111  38.894  14.847
61928W        W23217  14.636   6.753   3.781
61929W        W23218  21.260  10.855   2.668
61930W        W23219  37.971   3.839   0.961
61931W        W23220  39.047  29.639  11.445
61932W        W23221  33.382  39.847  12.427
61933W        W23222  42.904  33.034  11.592
61934W        W23223  30.440  20.069   1.347
61935W        W23224   6.763  15.740  11.941
61936W        W23225  34.084  17.181  10.471
61937W        W23226  17.756   0.272   0.783
61938W        W23227  25.563  18.697   4.787
61939W        W23228  27.961  41.496  13.048
61940W        W23229  32.624  24.499   1.808
61941W        W23230  19.671  28.003  13.938
61942W        W23231  43.311   5.260  12.523
61943W        W23232  13.304  25.613  14.325
61944W        W23233  36.928   8.255  11.041
61945W        W23234  14.280  20.652   2.190
61946W        W23235  44.960  25.584   0.327
61947W        W23236  38.890  21.541   3.202
61948W        W23237  13.693  38.904   5.188
61949W        W23238  35.388  34.067  12.034
61950W        W23239  34.113  39.033  14.328
61951W        W23240  23.093  37.844   2.399
61952W        W23241  32.083  22.533  12.475
61953W        W23242  15.192  40.998  10.958
61954W        W23243  41.866  12.730  14.774
61955W        W23244   0.967  29.141  10.109
61956W        W23245  34.936   0.404   0.929
61957W        W23246  29.105  27.015   3.812
61958W        W23247  33.625   8.216  10.007
61959W        W23248  37.522  20.580   4.731
61960W        W23249   7.236  33.125   3.267
61961W        W23250   4.913   1.806   2.338
61962W        W23251  24.052  16.184   1.432
61963W        W23252   7.796  29.023   0.943
61964W        W23253  38.480  32.083  12.853
61965W        W23254  17.259  18.158   0.253
61966W        W23255  17.674  22.596  10.643
61967W        W23256  29.544  34.936  11.579
61968W        W23257  22.112  18.177   0.786
61969W        W23258  21.694  30.617  14.807
61970W        W23259  34.940  33.409  13.815
61971W        W23260  44.331   1.850   2.178
61972W        W23261  16.779   2.806  11.907
61973W        W23262  39.351  21.542   2.212
61974W        W23263  44.347  44.925  13.797
61975W        W23264  43.316  30.066   1.359
61976W        W23265  41.026   4.333  11.979
61977W        W23266  42.889  18.114  10.983
61978W        W23267  32.424   6.765  12.014
61979W        W23268  23.652  22.130   0.872
61980W        W23269  18.640   7.708  11.906
61981W        W23270  38.471  44.839  11.469
61982W        W23271  37.339   3.953  12.900
61983W        W23272  20.758  40.937  12.906
61984W        W23273   4.711   9.268  10.048
61985W        W23274  18.101  32.002  14.476
61986W        W23275  35.563  33.040   3.376
61987W        W23276  15.797  44.989   0.271
61988W        W23277  11.680  39.995  12.561
61989W        W23278  40.545  21.188  12.565
61990W        W23279   6.251  42.299   2.414
61991W        W23280  18.667   7.203  12.856
61992W        W23281  21.717  31.115  10.514
61993W        W23282  17.066  21.674  13.501
61994W        W23283   2.261  11.636   2.727
61995W        W23284  42.882  33.407  13.479
61996W        W23285  28.138  39.013   4.185
61997W        W23286   6.759  31.098   4.737
61998W        W23287  33.109  35.994   0.728
61999W        W23288   6.865   7.779   4.197
62000W        W23289  13.185  19.679   4.643
62001W        W23290  35.477  25.572   4.156
62002W        W23291  14.783  44.465  12.377
62003W        W23292  27.497   7.864   0.386
62004W        W23293  19.573   4.726  14.297
62005W        W23294   1.362   3.936  11.518
62006W        W23295   0.834  24.540  13.500
62007W        W23296  41.901  17.189   3.639
62008W        W23297  15.757  36.877   3.234
62009W        W23298  41.001   2.805  13.985
62010W        W23299  18.582  21.258   1.415
62011W        W23300   7.767  22.683   3.643
62012W        W23301  22.018   5.862  13.868
62013W        W23302   0.417   5.839  10.443
62014W        W23303   9.295  35.926  11.466
62015W        W23304  18.266  14.654   3.261
62016W        W23305  31.467   6.317  11.936
62017W        W23306   6.225   4.267   4.652
62018W        W23307  41.392  27.046   1.290
62019W        W23308   2.254  33.553  12.042
62020W        W23309   1.340   4.215  14.795
62021W        W23310  30.982  34.599   3.160
62022W        W23311  22.147  22.087   3.746
62023W        W23312  33.006  10.692  12.516
62024W        W23313  36.463  12.336   4.259
62025W        W23314  29.099  18.668   1.289
62026W        W23315  14.286  14.308  14.764
62027W        W23316  14.319   3.908   3.234
62028W        W23317  14.170  27.991   4.688
62029W        W23318  35.028   4.213   4.677
62030W        W23319  28.081  41.356  12.499
62031W        W23320  32.947   5.870   2.317
62032W        W23321   4.242   1.939   2.874
62033W        W23322  27.194  22.094   3.850
62034W        W23323  25.048   9.290   3.209
62035W        W23324  43.887  39.557   1.324
62036W        W23325  14.710  42.864   3.208
62037W        W23326  20.143   4.732  14.341
62038W        W23327  19.043   2.371   3.187
62039W        W23328  17.217   1.939  11.505
62040W        W23329  40.321   7.789  11.036
62041W        W23330   0.251  42.448   4.246
62042W        W23331  10.738  10.660   0.862
62043W        W23332  17.628   9.705  11.967
62044W        W23333  36.007  14.101   0.819
62045W        W23334  37.060  43.324  13.995
62046W        W23335  10.693  18.118  12.056
62047W        W23336  10.657   4.738   4.737
62048W        W23337   1.762  10.208   0.888
62049W        W23338  39.934  19.050   4.350
62050W        W23339  13.259  39.023  13.529
62051W        W23340   3.794  41.800  12.538
62052W        W23341   2.842  29.105  13.540
62053W        W23342   0.815  20.555  10.435
62054W        W23343  15.089   2.231  10.573
62055W        W23344  13.247   6.818   3.777
62056W        W23345  15.618   0.935   0.866
62057W        W23346  14.605  43.467  13.825
62058W        W23347  15.786  40.352   1.704
62059W        W23348  23.991  42.986  11.477
62060W        W23349   4.706  14.713  11.527
62061W        W23350  34.028   2.385  12.963
62062W        W23351   2.780  44.911  12.847
62063W        W23352  26.490   7.288  13.939
62064W        W23353  20.035  37.449  14.350
62065W        W23354  30.607  10.655  12.896
62066W        W23355  44.295   2.736  13.897
62067W        W23356  26.646  40.329  14.845
62068W        W23357  32.630   6.716  13.833
62069W        W23358   7.218  12.668   2.738
62070W        W23359  36.941  34.084   0.266
62071W        W23360  21.257  16.772  12.067
62072W        W23361  15.820  29.496   3.381
62073W        W23362  15.685  42.799  12.427
62074W        W23363  34.902  27.161   3.370
62075W        W23364  14.710  15.700   0.871
62076W        W23365  28.492  10.299   5.136
62077W        W23366  12.784   3.233  13.869
62078W        W23367  32.907  43.005  13.811
62079W        W23368  18.216  13.659  13.497
62080W        W23369  41.533  26.537  10.417
62081W        W23370  10.148  43.343  11.898
62082W        W23371  36.071  13.808  13.429
62083W        W23372  44.951  39.374   0.292
62084W        W23373  25.523  31.417   3.811
62085W        W23374  26.492  33.523  12.948
62086W        W23375  20.611  38.884   1.322
62087W        W23376  21.090  40.345   3.811
62088W        W23377   9.272  26.035  11.047
62089W        W23378  43.899  13.625   4.203
62090W        W23379  38.002  19.733   0.305
62091W        W23380  17.177  19.152   1.266
62092W        W23381  25.622   0.269   0.769
62093W        W23382   7.219  13.616  12.943
62094W        W23383  12.705   2.287   5.193
62095W        W23384  28.119   9.774   3.186
62096W        W23385  35.081   9.810  11.062
62097W        W23386   2.857  26.026   2.322
62098W        W23387  13.776  41.004   1.247
62099W        W23388  32.549   2.941   3.282
62100W        W23389  34.555  30.117   3.240
62101W        W23390  20.057  33.991  12.890
62102W        W23391  20.713  38.876  14.425
62103W        W23392  32.031  23.197  11.929
62104W        W23393  28.520  30.430  13.042
62105W        W23394  36.394  34.533   2.716
62106W        W23395  13.661   2.810  12.038
62107W        W23396  14.217   2.779   1.253
62108W        W23397   1.422   7.310  13.909
62109W        W23398  44.920   8.288   2.771
62110W        W23399  35.540  11.128   1.364
62111W        W23400  14.719  24.178  11.989
62112W        W23401  44.762  11.347  13.857
62113W        W23402  32.072  44.272   4.315
62114W        W23403  11.761  33.107  14.910
62115W        W23404  28.529  13.150  12.887
62116W        W23405  18.776   0.944   1.270
62117W        W23406  25.662  26.579   4.155
62118W        W23407  44.765   0.280  14.865
62119W        W23408  30.137   2.841  14.895
62120W        W23409  42.001   8.756  14.516
62121W        W23410   1.276  28.482   1.370
62122W        W23411  42.827  15.637   5.286
62123W        W23412  10.770  33.547  11.976
62124W        W23413  26.647  23.722   4.793
62125W        W23414  41.828  35.063   4.221
62126W        W23415  38.949   9.648   3.248
62127W        W23416  35.376  34.019   2.695
62128W        W23417  27.006  19.756  12.935
62129W        W23418  25.688  15.599  11.030
62130W        W23419   1.249  11.263   0.845
62131W        W23420  32.043  41.307   1.788
62132W        W23421  10.848  41.927  14.508
62133W        W23422  13.261  18.753  14.510
62134W        W23423  34.120  36.507   4.186
62135W        W23424  27.489  14.297   4.118
62136W        W23425  26.637  42.858  13.876
62137W        W23426  13.782  27.493  10.598
62138W        W23427   4.746  36.982   1.723
62139W        W23428  36.566  16.288  13.333
62140W        W23429  34.546  29.997   0.755
62141W        W23430  37.846  38.923   0.756
62142W        W23431  35.366  20.085   3.812
62143W        W23432  36.459  29.599   3.792
62144W        W23433  30.494   1.971   5.131
62145W        W23434  26.664  24.601  13.373
62146W        W23435  32.465  10.244  13.911
62147W        W23436   9.246  22.569  12.420
62148W        W23437  27.052   2.318  13.547
62149W        W23438  20.571  17.216  14.335
62150W        W23439  35.899  27.084  11.602
62151W        W23440  41.298  41.925  11.577
62152W        W23441  27.496   8.380  14.414
62153W        W23442  41.844  13.834   2.183
62154W        W23443   9.716   6.216  12.083
62155W        W23444  35.491  35.557   4.121
62156W        W23445  24.098  38.325   1.707
62157W        W23446  36.893  23.520   2.274
62158W        W23447  37.567   6.919   3.333
62159W        W23448  19.708  29.975   2.384
62160W        W23449   6.696  30.649  13.408
62161W        W23450  30.449  27.130  14.432
62162W        W23451  29.656  38.957  13.391
62163W        W23452  33.589  37.019  10.566
62164W        W23453  38.987   3.354  12.063
62165W        W23454  15.600  19.111   1.331
62166W        W23455  27.106  28.128  11.988
62167W        W23456  22.134  14.767   2.848
62168W        W23457  39.014  18.648  13.912
62169W        W23458  15.633  11.244   2.397
62170W        W23459  21.225   9.287  14.873
62171W        W23460   4.855  40.406   0.806
62172W        W23461  38.998   6.403   2.251
62173W        W23462  33.392  28.074   1.281
62174W        W23463   7.757  38.335   1.334
62175W        W23464  24.570  29.148  11.599
62176W        W23465  31.431   1.354   3.655
62177W        W23466  44.367  21.553  14.794
62178W        W23467  12.725   3.367   1.258
62179W        W23468   7.392  21.056   3.291
62180W        W23469  17.177   2.415   1.805
62181W        W23470  34.087  26.127   4.139
62182W        W23471  26.569  36.070  11.423
62183W        W23472  22.153  19.227   4.314
62184W        W23473  37.484   9.374   1.427
62185W        W23474  35.362  19.273   0.308
62186W        W23475  11.341  23.538   0.249
62187W        W23476  25.585  36.090   4.189
62188W        W23477  20.147  21.530   2.733
62189W        W23478   3.778   0.287  13.060
62190W        W23479  34.429  19.665  12.019
62191W        W23480  41.017  27.189   4.343
62192W        W23481  37.477  14.604  12.891
62193W        W23482  36.000  23.648   4.207
62194W        W23483   4.826   1.400  10.545
62195W        W23484  44.346  41.907   5.141
62196W        W23485  22.117   6.735  12.961
62197W        W23486   6.822  44.902   1.291
62198W        W23487   3.821  35.977   5.197
62199W        W23488   9.383   5.419   0.343
62200W        W23489  42.415  32.889  11.911
62201W        W23490  10.276   2.428   4.765
62202W        W23491  23.069  36.862  12.083
62203W        W23492  28.631   1.900   1.933
62204W        W23493  18.154   0.398  13.386
62205W        W23494   5.275   5.318   2.356
62206W        W23495  28.160  43.376   0.898
62207W        W23496  42.857   4.294  14.923
62208W        W23497  28.108  29.003  12.087
62209W        W23498  13.300   8.401  10.908
62210W        W23499  11.142  42.430  14.434
62211W        W23500  18.291  20.222   4.722
62212W        W23501  13.206  16.228  13.360
62213W        W23502  19.762  22.035   4.158
62214W        W23503  17.581   3.342  11.953
62215W        W23504  21.714  30.946   2.903
62216W        W23505  11.760  43.388  12.394
62217W        W23506  31.948  38.350  14.889
62218W        W23507  38.440   0.834  11.860
62219W        W23508  11.642  11.369   2.757
62220W        W23509  19.630   5.247   2.817
62221W        W23510  14.677  32.044  12.491
62222W        W23511  28.161  17.112  10.897
62223W        W23512   4.352  30.990  12.405
62224W        W23513  26.040  19.666  12.561
62225W        W23514  38.854  44.307   9.990
62226W        W23515  28.572   7.393   1.735
62227W        W23516  28.607  42.317   0.915
62228W        W23517  29.433   3.939   1.708
62229W        W23518   9.353  27.686   2.353
62230W        W23519  12.155  13.669  12.525
62231W        W23520  12.229  42.842   1.420
62232W        W23521  12.207  44.488   1.786
62233W        W23522   9.303  13.791   4.737
62234W        W23523  29.119  11.860   1.766
62235W        W23524  15.271   2.857  14.297
62236W        W23525   6.750  19.099   1.356
62237W        W23526  24.052  19.744  14.929
62238W        W23527  38.395   7.757   0.803
62239W        W23528  13.321   6.759  14.463
62240W        W23529  35.952  22.545   1.712
62241W        W23530  20.274  14.301  14.415
62242W        W23531  21.617   6.360   0.890
62243W        W23532  37.561  41.794   2.818
62244W        W23533  19.603  41.311  13.847
62245W        W23534   2.739  19.264   3.372
62246W        W23535   8.706   2.471   0.257
62247W        W23536  27.053  37.488  10.609
62248W        W23537  44.290  34.411   3.249
62249W        W23538   7.219  30.964  13.053
62250W        W23539   2.265  32.116  13.020
62251W        W23540  14.248  35.990   3.861
62252W        W23541   3.815  22.105   1.784
62253W        W23542   1.894   7.672   1.871
62254W        W23543  20.617  35.511   3.756
62255W        W23544  24.988  44.459  12.909
62256W        W23545  10.802  16.304   1.421
62257W        W23546  41.972   0.254   2.238
62258W        W23547  11.754   2.256  11.883
62259W        W23548  35.894   5.203  12.476
62260W        W23549  43.845  25.618   0.958
62261W        W23550  13.283  40.914  12.365
62262W        W23551  26.690   8.699   3.671
62263W        W23552  25.515   9.272  12.857
62264W        W23553  44.414  12.656   1.443
62265W        W23554  20.246  33.605   1.411
62266W        W23555  39.474  11.669  13.368
62267W        W23556  23.535  31.144   3.703
62268W        W23557  26.572  28.037  14.384
62269W        W23558  36.373  35.910  13.979
62270W        W23559  31.937  41.437  11.373
62271W        W23560  11.147  21.085  14.408
62272W        W23561  28.952  23.555   4.131
62273W        W23562  40.368  20.174   3.669
62274W        W23563   4.917  17.774  14.892
62275W        W23564  15.793  12.796   1.734
62276W        W23565  21.705  10.753  14.861
62277W        W23566  32.489  24.567   3.806
62278W        W23567  13.165  27.158  14.912
62279W        W23568   1.926   6.202  11.612
62280W        W23569   5.792  29.982   2.346
62281W        W23570  37.063  29.063  12.968
62282W        W23571  19.230  14.627  13.937
62283W        W23572   3.819   4.919  13.935
62284W        W23573  11.218   4.330  12.346
62285W        W23574   7.854   0.858  11.045
62286W        W23575  33.517   7.690  13.523
62287W        W23576  20.711  10.207   2.254
62288W        W23577  43.274  18.261  14.460
62289W        W23578  13.630  23.217  13.040
62290W        W23579  16.616  11.850  12.088
62291W        W23580  25.056  41.325   3.853
62292W        W23581  11.304  19.274   1.356
62293W        W23582  25.092  38.329   4.275
62294W        W23583  36.066  37.350  13.323
62295W        W23584  17.184  42.987  10.053
62296W        W23585  20.148  23.237   1.275
62297W        W23586  25.657  32.897  13.995
62298W        W23587  37.858   5.381  14.843
62299W        W23588   4.926  23.241   4.692
62300W        W23589  33.462  27.067   3.250
62301W        W23590   1.837  30.044  10.965
62302W        W23591   6.858  31.094  13.801
62303W        W23592  36.046  12.116   0.926
62304W        W23593  21.565   9.287  14.789
62305W        W23594  44.875  37.476   2.778
62306W        W23595  30.083  18.627  13.869
62307W        W23596   6.206  12.200   1.400
62308W        W23597  27.614  13.706   4.179
62309W        W23598  26.570  25.085  13.430
62310W        W23599  16.743   6.334   3.830
62311W        W23600  29.143  34.117  12.957
62312W        W23601  43.873  10.245   3.233
62313W        W23602  28.053  11.854  14.803
62314W        W23603  23.099   0.890   2.271
62315W        W23604  36.853  37.438   3.756
62316W        W23605  32.401  30.443  11.020
62317W        W23606  16.125  22.582   3.387
62318W        W23607  28.109  31.080   1.927
62319W        W23608  21.150   7.302   9.947
62320W        W23609  42.368  16.654  11.989
62321W        W23610  19.563  30.494   3.257
62322W        W23611   3.243  43.825   0.863
62323W        W23612   6.869  11.160   0.357
62324W        W23613  41.906  32.987   1.426
62325W        W23614  17.703  21.131   1.315
62326W        W23615   3.369  37.512   3.168
62327W        W23616  24.135  38.854   4.728
62328W        W23617  30.118   9.284   4.689
62329W        W23618  28.673   6.221   3.826
62330W        W23619   5.311  12.141  14.803
62331W        W23620   5.404   1.776   2.382
62332W        W23621  10.311  30.060   2.790
62333W        W23622  37.022  24.706  12.485
62334W        W23623  36.021  17.205   3.789
62335W        W23624   5.769  30.110  14.499
62336W        W23625  19.079  41.535   4.145
62337W        W23626  29.551  44.502   3.310
62338W        W23627  14.306  44.856   3.373
62339W        W23628  27.679  12.146   1.855
62340W        W23629   5.801   5.409  11.979
62341W        W23630  12.144  18.282  14.002
62342W        W23631  40.900  18.109  14.294
62343W        W23632  42.902  41.330   2.797
62344W        W23633  17.718  14.599  14.369
62345W        W23634  20.614   7.245  14.819
62346W        W23635   9.214  41.401   2.253
62347W        W23636  35.948  12.816   1.411
62348W        W23637  11.821   4.250  11.488
62349W        W23638  31.454  37.860  12.420
62350W        W23639   1.956  16.629  11.485
62351W        W23640  28.676   8.397  11.590
62352W        W23641  22.628  11.701   1.385
62353W        W23642  39.936   0.750  10.490
62354W        W23643  42.522  17.120   2.683
62355W        W23644  22.737  26.117   2.204
62356W        W23645   3.244  37.450  14.449
62357W        W23646  37.358  13.820   3.348
62358W        W23647  41.025   7.825  14.778
62359W        W23648   4.446  15.744  14.416
62360W        W23649  19.067  34.967  12.417
62361W        W23650  35.942  41.457  14.433
62362W        W23651  41.897  13.663   1.375
62363W        W23652  13.286   8.198  11.570
62364W        W23653   0.277  30.529   3.200
62365W        W23654  28.146   1.427  13.545
62366W        W23655   0.852   0.393   4.620
62367W        W23656  32.997  10.839   2.680
62368W        W23657   0.397  36.843  10.973
62369W        W23658  28.602  38.017   4.234
62370W        W23659  11.789  27.601  14.445
62371W        W23660  11.823  30.422  12.536
62372W        W23661  43.467  38.428  10.477
62373W        W23662  31.077  22.721   3.738
62374W        W23663  39.491  35.007   3.822
62375W        W23664  28.531  39.866   2.377
62376W        W23665  40.383  15.277  13.870
62377W        W23666  14.267  39.026   0.737
62378W        W23667   8.864  28.974  13.929
62379W        W23668  21.650  17.625  10.942
62380W        W23669   9.721  42.381   1.432
62381W        W23670  23.106  14.612  13.025
62382W        W23671  42.971  26.970   0.783
62383W        W23672   2.329  34.493  12.397
62384W        W23673  39.899  20.654   3.845
62385W        W23674  25.975  12.711  12.504
62386W        W23675   5.817  43.919   1.916
62387W        W23676   3.756   6.745   1.754
62388W        W23677   9.819  19.190   2.877
62389W        W23678  15.804   7.743  14.822
62390W        W23679  32.041   7.746  13.405
62391W        W23680   4.376  41.945   0.471
62392W        W23681  38.418  14.593   4.652
62393W        W23682  42.515  25.635   0.956
62394W        W23683  12.820  34.535   4.295
62395W        W23684  29.446   8.754  13.968
62396W        W23685  18.605  42.441   2.678
62397W        W23686  20.098  16.707   4.198
62398W        W23687   3.244  19.119   1.418
62399W        W23688   3.348  32.962   3.710
62400W        W23689   9.648  23.106  12.534
62401W        W23690  36.488   3.309  14.340
62402W        W23691  41.395  44.761  10.545
62403W        W23692  10.878  39.313  12.843
62404W        W23693  24.720  25.098  10.148
62405W        W23694  36.501  36.549  11.557
62406W        W23695  24.655  21.583  12.926
62407W        W23696  12.205  38.053   4.233
62408W        W23697  31.021  41.295  11.967
62409W        W23698  34.077  10.728  10.515
62410W        W23699   4.803  42.388  10.050
62411W        W23700   1.245  24.164   2.389
62412W        W23701  27.501  11.806   0.928
62413W        W23702   6.860  11.204   3.741
62414W        W23703  29.642  40.323   2.327
62415W        W23704  42.859  26.951   3.802
62416W        W23705   9.889   4.821  14.935
62417W        W23706  20.549  27.501  13.818
62418W        W23707  11.660  24.127   3.226
62419W        W23708  32.494  31.068   1.347
62420W        W23709  25.064   1.426  12.429
62421W        W23710  41.401  16.231   2.389
62422W        W23711  41.992  25.200  12.371
62423W        W23712  37.977   8.359   2.339
62424W        W23713  22.024  36.937  11.012
62425W        W23714  10.747  36.852   5.634
62426W        W23715  43.484  28.531  12.916
62427W        W23716  34.902   0.914  11.510
62428W        W23717   9.250   4.314  11.981
62429W        W23718  43.002   5.748   2.752
62430W        W23719  31.956  19.166  12.522
62431W        W23720   0.301  28.169  12.868
62432W        W23721  25.216  29.925  13.317
62433W        W23722   3.943   5.387   3.817
62434W        W23723  39.428  18.281  10.471
62435W        W23724  29.670  23.731  12.981
62436W        W23725  41.511  27.949   0.792
62437W        W23726  24.685  22.742   2.384
62438W        W23727  26.517  39.888  14.871
62439W        W23728  11.793  14.301   2.890
62440W        W23729  25.476  40.479  10.487
62441W        W23730   4.919  14.689  11.868
62442W        W23731  15.173  19.552   1.794
62443W        W23732  39.863  30.004  10.456
62444W        W23733  15.789   2.811  11.374
62445W        W23734  32.580   5.727   1.261
62446W        W23735   3.775   4.713  10.967
62447W        W23736   3.908   7.845  13.793
62448W        W23737   0.438  11.773   1.933
62449W        W23738  14.626  12.186   4.172
62450W        W23739  24.057  27.012  12.840
62451W        W23740  11.137   0.308   2.373
62452W        W23741   7.911  24.144   0.742
62453W        W23742  33.027  25.166   2.685
62454W        W23743  30.549  15.715  13.942
62455W        W23744  34.436  44.498  13.020
62456W        W23745  30.117  36.995   4.243
62457W        W23746  31.404  28.486   0.343
62458W        W23747  32.956  25.519   1.376
62459W        W23748  26.176   2.250   1.253
62460W        W23749  35.543  19.767  11.963
62461W        W23750   6.899  30.439   2.681
62462W        W23751   4.314   2.349  10.922
62463W        W23752  18.218  12.206   4.833
62464W        W23753  12.780  14.659  14.379
62465W        W23754  19.721  17.133   0.246
62466W        W23755  22.519  21.616   3.811
62467W        W23756  16.731   6.410  10.461
62468W        W23757  40.968  24.632  12.828
62469W        W23758  19.672  41.342  12.886
62470W        W23759  37.913   1.897  10.946
62471W        W23760  13.229  17.115  10.623
62472W        W23761  37.043  22.184   4.808
62473W        W23762  30.057  21.160  11.982
62474W        W23763  37.051  18.071   9.647
62475W        W23764  22.691   6.835   4.339
62476W        W23765  13.231  19.101  11.590
62477W        W23766  18.228  26.561   2.207
62478W        W23767  26.468  28.937  10.095
62479W        W23768  42.440  13.766  14.508
62480W        W23769   8.763  15.816   1.398
62481W        W23770   8.199  20.125   2.228
62482W        W23771  29.086  16.759  11.952
62483W        W23772  31.606  38.012   4.326
62484W        W23773  38.370  43.424   4.700
62485W        W23774   2.399  23.676  12.035
62486W        W23775  36.355  17.687  10.902
62487W        W23776  21.028  44.961   3.820
62488W        W23777  40.405   7.275  10.896
62489W        W23778  28.550  13.715  12.096
62490W        W23779  11.746   2.741  12.008
62491W        W23780   4.401  18.548  10.525
62492W        W23781  39.854   9.723   1.855
62493W        W23782   6.205  29.520   3.168
62494W        W23783  17.063  34.473   2.397
62495W        W23784  30.451   0.784  14.846
62496W        W23785  16.082  37.932   0.806
62497W        W23786   4.736  23.072   2.730
62498W        W23787  30.642  19.098  11.054
62499W        W23788  23.155   2.944   3.715
62500W        W23789   4.906  24.706   1.371
62501W        W23790  13.627  44.419   2.672
62502W        W23791  22.508  34.024   0.305
62503W        W23792  36.984  44.404   0.243
62504W        W23793  34.425  28.473   1.831
62505W        W23794  29.003  25.037  14.880
62506W        W23795  14.788  31.975   2.752
62507W        W23796  19.274  24.059  12.080
62508W        W23797  43.331  17.258  10.533
62509W        W23798  16.596  27.586   4.273
62510W        W23799  39.941  34.907   1.711
62511W        W23800   5.360  14.188  12.447
62512W        W23801   9.335  34.558  10.537
62513W        W23802  34.876   9.208   2.902
62514W        W23803  16.104  23.137  11.416
62515W        W23804   6.231  16.276  12.435
62516W        W23805  32.587  41.375   2.179
62517W        W23806   0.754  19.248   3.825
62518W        W23807  23.507  38.067   2.687
62519W        W23808  22.239  17.197   0.817
62520W        W23809  31.495  19.690   0.960
62521W        W23810  42.022  38.825  11.379
62522W        W23811  29.990  26.461   0.840
62523W        W23812  24.975  34.911   3.865
62524W        W23813   4.881   8.250  12.409
62525W        W23814  29.060  38.941   3.372
62526W        W23815  44.866  39.876   2.207
62527W        W23816  10.380  39.971   1.330
62528W        W23817  35.000   1.403   4.695
62529W        W23818  36.492   6.224   1.745
62530W        W23819  43.974   6.325   2.209
62531W        W23820  39.840   2.324   1.721
62532W        W23821  15.261  25.518   1.314
62533W        W23822   0.882  41.999   0.964
62534W        W23823   9.231  37.930  12.505
62535W        W23824  30.518   2.307  11.509
62536W        W23825  40.921  40.486  11.082
62537W        W23826   4.244  24.697  11.506
62538W        W23827  42.845  13.127  10.465
62539W        W23828   2.730  26.503  10.516
62540W        W23829  42.945  19.183  11.876
62541W        W23830  14.749   5.351  11.031
62542W        W23831  39.015  17.118   5.181
62543W        W23832  39.983  36.048  14.416
62544W        W23833  44.425  12.770   4.263
62545W        W23834  20.699  23.145   1.769
62546W        W23835  32.899  34.010   0.758
62547W        W23836   4.263   2.331  11.880
62548W        W23837  43.410  42.893  11.483
62549W        W23838  39.465   0.359   1.392
62550W        W23839  28.640  17.155  11.061
62551W        W23840  29.542  10.302   3.181
62552W        W23841  16.668  32.414  13.040
62553W        W23842   8.293  28.044  12.956
62554W        W23843   2.285  26.500   2.203
62555W        W23844   9.746   0.322   1.824
62556W        W23845  31.101  26.506   1.257
62557W        W23846   8.753  18.716   1.212
62558W        W23847  29.478   1.800   0.805
62559W        W23848   0.427  18.250  12.436
62560W        W23849  15.307  32.625   4.313
62561W        W23850  29.583  11.204  10.419
62562W        W23851  28.574  28.107   4.817
62563W        W23852  33.107  28.111   1.365
62564W        W23853  25.087  19.592   0.798
62565W        W23854  14.156  37.346  12.482
62566W        W23855  42.353  27.482   4.230
62567W        W23856  31.045  36.431   4.228
62568W        W23857  44.437  23.603   5.103
62569W        W23858   9.672  39.323   2.781
62570W        W23859  28.488   3.817   2.723
62571W        W23860  32.454   5.241  13.425
62572W        W23861   0.985  34.979  11.439
62573W        W23862  39.318   5.867  11.070
62574W        W23863  31.096  16.591   1.325
62575W        W23864  17.802   0.826   3.800
62576W        W23865  43.322  14.641   1.255
62577W        W23866   0.902   6.228   5.167
62578W        W23867   2.902  17.579   2.366
62579W        W23868  26.147   8.702  14.819
62580W        W23869  32.028  22.166   4.758
62581W        W23870  12.129   9.703   0.806
62582W        W23871  12.667  31.552  13.375
62583W        W23872   4.308  15.225   4.792
62584W        W23873  36.031  13.199   3.747
62585W        W23874  16.135  40.956   4.327
62586W        W23875  21.711  19.615  10.507
62587W        W23876   9.784   8.318  12.991
62588W        W23877  21.142  27.012   2.778
62589W        W23878   0.341  28.143   3.805
62590W        W23879   9.687  20.646  13.992
62591W        W23880   2.369   9.271  13.996
62592W        W23881  17.571  29.027  12.441
62593W        W23882  30.030   4.405   2.376
62594W        W23883  23.705  44.329   1.285
62595W        W23884   0.468  37.463   3.835
62596W        W23885  15.204  39.313  13.919
62597W        W23886  20.050  21.614   3.253
62598W        W23887  20.670   2.935  11.496
62599W        W23888  25.194  31.136   1.816
62600W        W23889  42.902  30.970   0.470
62601W        W23890  23.210   9.182  12.349
62602W        W23891  26.041  35.402   2.188
62603W        W23892  44.399  31.898  10.896
62604W        W23893  16.300  26.083  11.065
62605W        W23894   6.873  27.142   2.876
62606W        W23895  42.446  16.204  12.962
62607W        W23896  23.135  22.723   9.618
62608W        W23897  40.897  24.064  14.016
62609W        W23898  26.194  30.147   1.812
62610W        W23899  37.979   1.282   0.293
62611W        W23900   1.377   5.216  11.548
62612W        W23901  17.073   2.361  14.455
62613W        W23902  26.528  27.951  12.920
62614W        W23903  40.972  33.552   4.310
62615W        W23904  43.342   1.926   9.962
62616W        W23905  12.361  38.041   3.848
62617W        W23906  34.433  28.509   1.254
62618W        W23907  13.133  43.848   3.652
62619W        W23908  40.803   9.876   0.424
62620W        W23909   5.411   9.818   1.811
62621W        W23910  13.164  18.145   1.402
62622W        W23911  27.547  34.448   3.672
62623W        W23912  27.626   2.961  14.932
62624W        W23913  41.909   4.941  13.994
62625W        W23914  31.463  20.199   1.794
62626W        W23915  44.871  42.860  11.544
62627W        W23916   2.891  22.008   4.194
62628W        W23917  30.494  40.494  10.564
62629W        W23918   0.308  37.045  14.424
62630W        W23919  41.473  32.942  14.930
62631W        W23920  19.770   2.900  13.383
62632W        W23921  14.245   6.409  13.529
62633W        W23922  43.281  19.578   0.245
62634W        W23923  36.023   4.911  13.911
62635W        W23924   1.441  35.072   3.694
62636W        W23925  19.762  37.842  14.884
62637W        W23926   3.414   5.916   3.787
62638W        W23927  13.315   8.191  10.500
62639W        W23928  19.675  18.129   3.809
62640W        W23929  31.028  40.876   4.597
62641W        W23930   6.334  36.952  13.799
62642W        W23931   2.882  18.268  11.483
62643W        W23932  40.546  10.698  10.069
62644W        W23933  17.678   1.335  14.809
62645W        W23934  41.896  20.746   4.659
62646W        W23935   0.812   1.821  11.087
62647W        W23936  39.024  26.179  14.810
62648W        W23937   2.343  10.801   1.220
62649W        W23938  42.460  38.454  13.437
62650W        W23939   6.328   2.315  12.490
62651W        W23940  15.670  21.031  12.092
62652W        W23941  34.006   3.342  14.832
62653W        W23942  27.973   4.378  13.342
62654W        W23943  18.585  33.106   0.272
62655W        W23944   5.242  35.980   3.260
62656W        W23945  21.035  44.277   4.210
62657W        W23946   5.429  35.381  14.885
62658W        W23947  22.243  22.136  14.869
62659W        W23948  43.488  34.529   0.769
62660W        W23949  17.120  19.617  10.530
62661W        W23950  15.601   3.392  13.813
62662W        W23951  21.145   8.359   4.202
62663W        W23952  13.253  39.509   2.708
62664W        W23953  30.059  22.042  13.380
62665W        W23954  39.869  42.881   9.954
62666W        W23955  10.364  11.667   0.927
62667W        W23956  10.854  18.256   4.115
62668W        W23957  29.134   5.374   3.705
62669W        W23958   2.952  35.021  13.811
62670W        W23959   2.785  29.955   3.709
62671W        W23960  24.058  33.060  11.447
62672W        W23961  16.200  24.114   2.823
62673W        W23962  33.591  12.338  14.912
62674W        W23963  27.679  40.024   2.219
62675W        W23964  42.370  30.059   4.696
62676W        W23965   3.916  21.621   1.832
62677W        W23966  16.100  20.231  13.938
62678W        W23967  24.016  29.979   1.925
62679W        W23968   7.839  28.087   0.248
62680W        W23969  35.004  40.797   0.438
62681W        W23970  28.623  29.578  11.517
62682W        W23971  21.039  34.922  14.483
62683W        W23972   0.310  29.612   2.387
62684W        W23973  18.068  20.593  13.822
62685W        W23974  37.871  18.625   0.841
62686W        W23975  16.268  33.457   4.815
62687W        W23976  38.452  14.260  12.564
62688W        W23977  39.520  35.481  13.868
62689W        W23978  37.383  40.962  14.913
62690W        W23979  29.995  40.494  13.909
62691W        W23980  24.518  37.337   3.194
62692W        W23981  17.611  22.032   3.199
62693W        W23982  42.821  25.712  13.821
62694W        W23983   0.412  11.353   3.231
62695W        W23984  25.628  16.170   0.871
62696W        W23985   6.863   2.789  11.556
62697W        W23986  24.192   7.189   3.212
62698W        W23987  18.111   2.428  13.394
62699W        W23988  39.546  41.311  14.333
62700W        W23989  27.105  28.601   3.795
62701W        W23990  15.819  26.032   4.687
62702W        W23991  31.495  13.680   2.378
62703W        W23992  19.718  32.444   0.412
62704W        W23993  27.513  37.869   2.684
62705W        W23994   1.944  28.115  11.909
62706W        W23995  42.942  37.501  14.915
62707W        W23996  32.082  11.131  13.009
62708W        W23997  43.906  12.842   0.733
62709W        W23998  28.988  44.414  13.498
62710W        W23999  20.696   5.268   3.839
62711W        W24000  29.570  35.510  11.424
62712W        W24001  16.137  42.819  10.405
62713W        W24002  23.563  38.044  14.941
62714W        W24003  41.929  39.034   1.391
62715W        W24004  23.558   4.775   9.923
62716W        W24005  15.587  15.804   1.313
62717W        W24006  29.533   2.827   2.779
62718W        W24007  30.565  28.594   4.768
62719W        W24008  11.783   8.680  12.527
62720W        W24009  43.917  28.998  12.981
62721W        W24010   3.459  23.045  11.525
62722W        W24011  41.986   0.876   1.873
62723W        W24012  39.023  28.974  10.958
62724W        W24013  24.690  26.161   3.169
62725W        W24014  15.773  11.694  13.507
62726W        W24015  36.392  38.570   2.262
62727W        W24016  16.585   4.409  14.762
62728W        W24017  19.242   1.291   0.475
62729W        W24018  41.499  38.435   4.772
62730W        W24019  17.236  39.388  14.390
62731W        W24020  31.992  30.420   3.310
62732W        W24021  36.540  26.971   2.818
62733W        W24022  26.063  32.038   0.843
62734W        W24023  36.391  10.793  13.363
62735W        W24024   3.304  29.927   2.357
62736W        W24025  13.323  25.505  12.864
62737W        W24026  40.353  30.128   0.359
62738W        W24027  40.947   6.718   2.408
62739W        W24028   2.316  15.660   5.108
62740W        W24029  40.469   4.394   0.359
62741W        W24030  43.943  12.726  13.819
62742W        W24031  31.501  15.209  14.839
62743W        W24032  26.977  35.518   4.667
62744W        W24033  13.771  41.460  13.506
62745W        W24034  27.060  17.268   3.866
62746W        W24035  39.871  13.189  13.888
62747W        W24036  27.075  17.092  12.414
62748W        W24037  13.831  29.496  11.919
62749W        W24038  31.578   4.228   2.258
62750W        W24039  13.777  16.160  14.879
62751W        W24040   7.845   3.315   3.722
62752W        W24041  12.191   2.339   3.791
62753W        W24042  32.484  34.472  12.342
62754W        W24043  25.048  33.912   3.341
62755W        W24044  40.394  33.970  14.929
62756W        W24045   5.809  37.082  13.975
62757W        W24046  33.435  43.304  13.484
62758W        W24047  41.865  18.621   9.957
62759W        W24048  27.146  32.915   2.673
62760W        W24049  37.055   9.154  10.486
62761W        W24050  14.642   0.359  10.415
62762W        W24051  30.102   5.411   1.727
62763W        W24052  41.910  37.863  11.524
62764W        W24053  14.702  39.925  10.000
62765W        W24054  15.262  41.014  12.517
62766W        W24055  11.643  40.323   4.353
62767W        W24056  37.376  20.219   3.312
62768W        W24057   5.709  23.723  13.353
62769W        W24058  17.755  20.547  13.826
62770W        W24059   2.454  23.680   3.157
62771W        W24060  28.508   8.333  13.533
62772W        W24061  16.241  30.446  12.082
62773W        W24062   4.772  41.413   2.822
62774W        W24063   5.851  15.718   3.358
62775W        W24064  27.047  26.164  11.049
62776W        W24065  44.482  25.962  13.363
62777W        W24066   2.918  29.650  10.552
62778W        W24067  41.846  13.165   0.476
62779W        W24068  20.274  19.207   0.253
62780W        W24069  12.740  26.985  12.449
62781W        W24070  43.809  24.001  10.892
62782W        W24071  25.580  42.473   3.167
62783W        W24072  43.888  36.439   2.229
62784W        W24073   1.245   8.876   9.518
62785W        W24074  14.739  30.423  12.509
62786W        W24075  17.728   6.269  13.903
62787W        W24076  21.023  26.561  14.827
62788W        W24077  33.553  14.673   0.285
62789W        W24078  27.113  39.482  14.940
62790W        W24079  34.472  15.632   3.724
62791W        W24080  14.184  20.186  12.551
62792W        W24081  17.096   5.761   2.393
62793W        W24082  24.664   8.397  14.967
62794W        W24083   9.154  25.182  12.870
62795W        W24084  36.542   6.806   4.317
62796W        W24085  26.631  44.965  14.507
62797W        W24086  39.817  39.824  12.918
62798W        W24087   6.766  37.056  11.479
62799W        W24088  18.786  36.430  12.376
62800W        W24089  44.831  35.079   1.870
62801W        W24090  11.654  35.372  10.909
62802W        W24091  28.534   2.463   0.328
62803W        W24092  40.448  10.262   2.749
62804W        W24093   3.252   8.840   0.942
62805W        W24094   9.354  31.450   4.820
62806W        W24095  10.250  40.819  12.393
62807W        W24096  19.685  31.101  10.544
62808W        W24097  41.970  20.143   0.799
62809W        W24098  35.930  40.379   1.245
62810W        W24099  16.808  36.884   5.620
62811W        W24100   7.691  14.157  10.104
62812W        W24101  36.920  20.630   4.617
62813W        W24102  16.772  36.459   2.819
62814W        W24103  16.596   3.835   2.214
62815W        W24104  17.781  36.042  13.876
62816W        W24105  24.174  14.307   3.733
62817W        W24106  31.472  32.885   0.470
62818W        W24107  40.923  15.270  11.032
62819W        W24108   2.818  34.108   3.729
62820W        W24109   3.297   6.369   2.300
62821W        W24110  30.052  24.139  13.470
62822W        W24111  29.552  14.156  13.870
62823W        W24112  29.953  34.577  12.927
62824W        W24113  26.529  26.081  13.445
62825W        W24114  23.114  40.456  10.981
62826W        W24115  24.016  30.930  14.417
62827W        W24116  34.596   6.901   3.635
62828W        W24117  43.491  43.871   0.779
62829W        W24118  21.602  42.298  14.852
62830W        W24119  32.545  42.449   2.224
62831W        W24120  11.852  31.491  11.570
62832W        W24121  11.828  22.746  12.416
62833W        W24122  23.123  25.659  12.450
62834W        W24123  12.331  10.141   3.803
62835W        W24124   0.264  29.429   1.923
62836W        W24125  30.012  21.126  12.430
62837W        W24126  43.965  22.117   1.270
62838W        W24127  22.078  24.578  13.916
62839W        W24128  42.030  24.579   2.357
62840W        W24129  16.616  20.579  11.032
62841W        W24130  31.423  24.023   1.337
62842W        W24131  39.530  19.178   4.824
62843W        W24132  31.022  39.452  10.526
62844W        W24133   0.807  10.154  11.038
62845W        W24134  14.641  33.532  11.518
62846W        W24135  31.014  14.597   0.300
62847W        W24136   6.271  40.379  13.827
62848W        W24137   7.702  11.818  12.496
62849W        W24138  22.182   2.726   0.317
62850W        W24139  41.790  33.084  13.863
62851W        W24140  43.868   2.309   1.354
62852W        W24141  17.703  44.962  14.392
62853W        W24142   3.901   5.744  13.315
62854W        W24143  28.064  38.566  12.979
62855W        W24144   7.396  40.896  12.870
62856W        W24145  16.584  16.614  12.506
62857W        W24146  24.164  30.656  14.019
62858W        W24147  44.826   7.365  14.014
62859W        W24148  37.935  42.830   4.309
62860W        W24149  36.405  38.834  10.899
62861W        W24150   2.964   2.899   0.962
62862W        W24151  31.910  22.197   1.342
62863W        W24152   0.367  40.337  11.099
62864W        W24153  24.503  15.804  13.031
62865W        W24154  38.038  33.573  10.067
62866W        W24155  38.534  19.607  10.917
62867W        W24156  31.126  31.913  14.865
62868W        W24157  25.073  17.596  11.918
62869W        W24158  16.160  36.455   4.248
62870W        W24159  19.737  43.421   3.700
62871W        W24160  12.321  42.461   0.324
62872W        W24161  35.948   3.430  14.871
62873W        W24162   9.372  11.782   0.761
62874W        W24163  32.630  35.090   1.351
62875W        W24164  36.002  23.219   1.257
62876W        W24165  15.799  41.498   5.281
62877W        W24166  43.910  33.963  12.834
62878W        W24167  13.153  22.221  11.941
62879W        W24168  44.935   9.369  14.996
62880W        W24169  31.014  23.611   4.345
62881W        W24170  20.730  28.943   2.837
62882W        W24171  27.490   0.391  13.917
62883W        W24172  28.437   5.716   0.245
62884W        W24173  34.584  17.742  13.048
62885W        W24174  28.174  27.467  14.773
62886W        W24175  10.373  44.753   0.321
62887W        W24176  42.948   7.712  14.842
62888W        W24177  39.519  19.557  14.505
62889W        W24178  27.580   7.354  11.936
62890W        W24179  37.986  31.964  10.967
62891W        W24180  40.050   2.304  11.072
62892W        W24181  12.822  25.176   0.846
62893W        W24182  27.178  32.109  10.524
62894W        W24183   7.363  27.121   2.754
62895W        W24184   2.446  31.486  14.922
62896W        W24185  26.112  35.090  12.511
62897W        W24186   0.464  38.074  12.094
62898W        W24187   0.752  42.460   2.717
62899W        W24188  25.989   8.281   1.363
62900W        W24189   3.909  44.467  11.489
62901W        W24190  30.015  23.051  12.521
62902W        W24191  39.850  22.049  12.061
62903W        W24192  34.947  30.437  11.011
62904W        W24193  14.122  14.121  12.932
62905W        W24194  37.837  11.819   1.323
62906W        W24195  31.624  28.103  12.419
62907W        W24196   5.879  21.178   3.681
62908W        W24197  17.615  15.244  11.857
62909W        W24198  15.780  36.569   9.940
62910W        W24199  21.564  37.526   0.898
62911W        W24200  23.688  42.374   2.387
62912W        W24201  29.435  13.612  10.908
62913W        W24202  29.613  37.899   0.321
62914W        W24203   5.407  23.512   4.317
62915W        W24204  21.025  37.553  13.835
62916W        W24205  16.619  22.727   0.932
62917W        W24206  16.786  19.630  11.556
62918W        W24207   8.802  25.608  12.023
62919W        W24208  17.080   5.306  13.521
62920W        W24209  25.113  34.593  11.042
62921W        W24210  13.631  23.626   1.895
62922W        W24211  24.702   5.297  11.018
62923W        W24212   4.859  14.655   3.217
62924W        W24213   3.808   2.246   0.340
62925W        W24214  33.909  24.180  12.419
62926W        W24215  41.902  13.316  13.793
62927W        W24216  27.082  17.713   4.825
62928W        W24217  38.438  16.187  14.825
62929W        W24218  28.504  27.451   0.780
62930W        W24219  13.805  37.391   1.284
62931W        W24220  32.107  37.040   2.861
62932W        W24221  27.159  14.285  13.518
62933W        W24222   2.954  15.193   1.278
62934W        W24223  36.090  36.910  13.887
62935W        W24224   7.681  33.605   0.836
62936W        W24225  11.857  44.491  12.893
62937W        W24226  13.645  36.932   0.786
62938W        W24227  15.288   1.414   4.693
62939W        W24228  19.654  11.810  10.586
62940W        W24229  42.802  35.542  14.275
62941W        W24230  28.679  30.034   2.295
62942W        W24231  38.351  42.379  11.601
62943W        W24232  38.571  31.106  12.968
62944W        W24233  36.373  14.802   1.832
62945W        W24234  13.836   3.805   1.700
62946W        W24235  32.980  36.919   4.221
62947W        W24236  39.881  41.835   1.878
62948W        W24237  41.871  41.927   4.149
62949W        W24238  11.194  35.471   2.838
62950W        W24239  44.812  10.269  11.936
62951W        W24240  23.716  27.460  12.528
62952W        W24241  27.985  13.243   4.696
62953W        W24242  23.656  21.142   4.328
62954W        W24243  35.876  43.937   2.762
62955W        W24244  35.961  18.754  11.409
62956W        W24245   2.820  31.918   4.144
62957W        W24246  13.735  35.604  12.004
62958W        W24247  15.236  24.515   1.721
62959W        W24248  32.427  37.400  13.808
62960W        W24249  16.316  10.738   0.318
62961W        W24250  29.048  11.824  11.113
62962W        W24251  18.729  14.158   9.983
62963W        W24252  34.510  20.724  14.897
62964W        W24253  25.159  25.970   3.304
62965W        W24254  33.992  42.515  14.509
62966W        W24255  24.126   9.727  14.373
62967W        W24256  42.029  36.952  13.402
62968W        W24257  22.074  19.550  12.070
62969W        W24258  18.601  26.636   0.292
62970W        W24259  34.932  37.473  11.897
62971W        W24260  42.477  44.878  14.955
62972W        W24261  28.605   5.703   1.359
62973W        W24262  44.854  40.326  14.930
62974W        W24263  40.525   0.798   3.728
62975W        W24264  12.772   9.373  13.820
62976W        W24265  43.819  16.272  13.491
62977W        W24266   8.271  26.205   3.782
62978W        W24267  17.224  43.791  13.918
62979W        W24268  13.196  28.088   9.997
62980W        W24269   0.276  39.407  12.576
62981W        W24270  16.729  29.632  11.527
62982W        W24271  30.631  42.826  11.000
62983W        W24272  29.961  16.139  12.027
62984W        W24273  44.278   8.717   2.351
62985W        W24274  22.531  36.942   1.734
62986W        W24275  43.896   0.442  11.444
62987W        W24276  19.581  42.843   1.279
62988W        W24277   4.935  35.401  13.879
62989W        W24278  36.572   7.317  12.856
62990W        W24279  44.436  40.986  12.065
62991W        W24280   2.889  14.289   3.224
62992W        W24281  29.559  18.752   2.305
62993W        W24282   2.334  11.825  10.107
62994W        W24283  37.056  26.156   4.625
62995W        W24284   4.775  25.528  14.416
62996W        W24285  28.504  25.532  12.570
62997W        W24286   3.728  42.829   3.298
62998W        W24287   1.794   7.348   2.876
62999W        W24288   8.324  19.674  12.483
63000W        W24289   4.226  18.618   1.752
63001W        W24290   5.717  39.949  14.858
63002W        W24291  12.142  21.585  12.024
63003W        W24292  35.066  41.028   4.269
63004W        W24293   8.186  15.130  11.441
63005W        W24294  32.898  14.816   4.184
63006W        W24295  38.514  29.971  14.955
63007W        W24296  24.115  18.553   1.436
63008W        W24297   0.313  30.536   3.817
63009W        W24298  25.113  14.624  13.828
63010W        W24299  37.858   3.411  10.995
63011W        W24300  39.861  14.746  12.559
63012W        W24301   9.713  11.774   1.368
63013W        W24302   0.465  33.426  11.063
63014W        W24303  43.002  15.813   3.838
63015W        W24304  11.325  26.644   0.733
63016W        W24305  33.944   8.753  11.488
63017W        W24306  35.571  22.577  13.812
63018W        W24307  15.687  37.473  12.504
63019W        W24308  21.152  23.645   1.356
63020W        W24309   9.802  23.129  11.407
63021W        W24310  19.550  14.738  11.495
63022W        W24311  22.006  23.198   1.890
63023W        W24312  20.165  30.647   4.705
63024W        W24313  14.609   4.798   1.375
63025W        W24314  31.927  20.101   1.291
63026W        W24315  42.371   4.363  13.811
63027W        W24316  38.951  28.122  13.855
63028W        W24317  25.635  13.276   2.797
63029W        W24318  12.728  44.757   3.210
63030W        W24319  42.364  19.097   3.798
63031W        W24320  16.232   1.335   3.270
63032W        W24321  28.982  12.332   1.411
63033W        W24322  23.036  20.152  12.034
63034W        W24323  43.351   2.331  10.453
63035W        W24324  31.508  11.334   1.328
63036W        W24325  15.748   8.191  13.488
63037W        W24326  30.558  20.122   3.781
63038W        W24327  37.994  31.896   1.836
63039W        W24328  40.459  10.834   1.909
63040W        W24329   3.344  13.609   4.166
63041W        W24330  12.779  40.993  12.393
63042W        W24331   2.827  21.134  13.953
63043W        W24332  24.974  24.577   2.264
63044W        W24333  23.731  22.253  11.588
63045W        W24334  21.756  30.492  13.332
63046W        W24335  13.205  43.328  14.438
63047W        W24336  10.230   9.226  12.081
63048W        W24337  27.569  32.965   1.247
63049W        W24338  28.662  34.948  10.056
63050W        W24339  40.806  31.906  11.873
63051W        W24340  32.043  36.885  10.924
63052W        W24341   3.311  35.994   0.937
63053W        W24342  27.648  12.747   2.827
63054W        W24343  10.785  27.088  14.012
63055W        W24344  11.650   1.299   1.317
63056W        W24345   3.451  31.073   4.126
63057W        W24346  25.169   0.924   1.793
63058W        W24347   0.938   0.796  13.323
63059W        W24348  35.010   6.871  11.995
63060W        W24349  11.243   4.431  13.478
63061W        W24350  26.065  16.665  14.918
63062W        W24351  23.012  41.025  11.415
63063W        W24352  44.848  21.549   2.253
63064W        W24353  14.229   2.383  10.982
63065W        W24354  34.045  27.660   4.725
63066W        W24355  40.398  43.835   4.659
63067W        W24356  38.338  27.665  12.563
63068W        W24357  38.372  31.022   0.813
63069W        W24358   2.966  23.513  13.342
63070W        W24359   8.390  22.221  11.577
63071W        W24360  26.515  17.133  12.566
63072W        W24361  23.021  15.654   2.265
63073W        W24362  41.403  16.270  12.393
63074W        W24363  36.498  44.427  13.842
63075W        W24364  44.359  38.871   0.310
63076W        W24365  18.295  34.904   2.379
63077W        W24366   5.703  23.607   0.932
63078W        W24367  25.133  38.506   1.348
63079W        W24368  17.189   0.398   0.270
63080W        W24369  42.508  12.243   0.752
63081W        W24370  13.820  36.015  11.514
63082W        W24371  12.817  20.655  14.340
63083W        W24372  44.923   3.823  13.496
63084W        W24373  25.703  17.774   1.325
63085W        W24374  31.043  16.661  11.006
63086W        W24375  32.521  36.020   1.324
63087W        W24376  25.149  25.493  13.057
63088W        W24377  37.405  24.122  12.501
63089W        W24378  37.499  20.577   2.763
63090W        W24379  13.783   6.351   1.428
63091W        W24380  40.459  31.535   0.800
63092W        W24381   4.215  36.962   4.642
63093W        W24382  30.470   9.322   4.336
63094W        W24383  30.588  25.494   1.786
63095W        W24384  24.562   0.259   2.892
63096W        W24385  19.110   2.325  11.396
63097W        W24386  44.392   1.832   1.397
63098W        W24387  39.405  43.968  12.467
63099W        W24388   4.282  18.185   0.306
63100W        W24389  40.977   4.707   1.233
63101W        W24390  19.753  30.970   0.254
63102W        W24391  23.125  11.301  13.957
63103W        W24392  30.928  10.266  10.469
63104W        W24393   2.442  16.212   1.778
63105W        W24394  16.603   7.839   4.726
63106W        W24395  40.896  13.297   2.395
63107W        W24396  32.525   0.876  12.021
63108W        W24397  17.078   6.893  14.004
63109W        W24398   3.885   9.865   1.723
63110W        W24399  23.149  25.710   9.494
63111W        W24400  35.495   4.760   2.258
63112W        W24401  11.821  43.474   0.395
63113W        W24402  43.912  29.629  10.536
63114W        W24403  16.684  29.042   4.657
63115W        W24404  15.158  26.144   4.706
63116W        W24405  23.632   9.874  14.512
63117W        W24406  33.980  10.836   3.856
63118W        W24407   2.839  10.220   1.912
63119W        W24408   6.784  27.643   0.750
63120W        W24409  12.139  22.177   2.290
63121W        W24410  15.129  35.382   1.324
63122W        W24411  33.620  31.504   1.375
63123W        W24412  21.115  36.025  10.494
63124W        W24413   8.178  13.319   0.260
63125W        W24414  36.921  25.053   1.373
63126W        W24415  43.368  20.176   2.788
63127W        W24416  42.482   4.804  13.329
63128W        W24417  33.452   2.323  12.077
63129W        W24418   6.849  26.102   9.540
63130W        W24419  11.841  35.372  14.020
63131W        W24420  27.085  30.124   2.856
63132W        W24421  26.493  37.419  14.369
63133W        W24422  11.155  25.594   4.334
63134W        W24423  19.646  17.253   1.873
63135W        W24424  24.119   0.832   0.296
63136W        W24425   6.426   9.828   0.845
63137W        W24426  43.785  44.430  11.986
63138W        W24427  18.737  33.394  14.879
63139W        W24428  14.335  27.477  11.910
63140W        W24429  14.245   4.727  13.308
63141W        W24430  32.912  44.261   1.855
63142W        W24431   5.366   9.326  11.391
63143W        W24432  16.300   5.219  13.510
63144W        W24433  36.063  15.093   0.813
63145W        W24434  21.210  35.981   1.736
63146W        W24435  13.189  18.566  12.832
63147W        W24436  40.520  20.094  11.374
63148W        W24437  12.634   5.293   1.888
63149W        W24438   3.281   0.940   0.867
63150W        W24439  43.804  40.530  13.423
63151W        W24440  29.939  24.492  13.006
63152W        W24441  11.344  35.933  12.935
63153W        W24442  19.536  28.560   0.780
63154W        W24443   5.415  18.282  12.469
63155W        W24444  37.352  14.171  13.881
63156W        W24445  35.036  26.974  11.991
63157W        W24446  37.526  32.074   0.848
63158W        W24447   7.665  36.470   4.822
63159W        W24448  13.746  21.642  14.832
63160W        W24449  16.241  21.714   0.960
63161W        W24450  11.289  27.158  12.580
63162W        W24451  44.965  40.986  13.044
63163W        W24452  18.707   2.947  11.092
63164W        W24453  20.167  12.172   0.325
63165W        W24454   5.867  41.459  14.811
63166W        W24455   3.886  34.487   1.239
63167W        W24456  42.782  11.319  13.998
63168W        W24457  15.740  11.807  12.453
63169W        W24458  36.957  12.834  12.857
63170W        W24459  17.686  18.756  11.874
63171W        W24460  10.825  33.977   1.800
63172W        W24461  24.633  43.449   2.896
63173W        W24462  17.646  13.296  12.561
63174W        W24463  26.491  36.974   2.834
63175W        W24464  17.208  15.681   4.616
63176W        W24465   2.462  20.205  13.979
63177W        W24466   8.888  19.754  13.798
63178W        W24467  35.037   7.338  14.837
63179W        W24468   9.851  36.521   4.303
63180W        W24469  12.266  25.009   3.160
63181W        W24470   4.917  35.396   0.361
63182W        W24471   1.396  16.586   4.306
63183W        W24472  39.049  39.491  14.380
63184W        W24473  23.546   9.720  10.444
63185W        W24474  22.250   7.708  12.343
63186W        W24475   2.425  40.538   3.181
63187W        W24476  25.195  17.608  12.864
63188W        W24477  10.329  13.115  10.116
63189W        W24478  29.062  24.973   3.710
63190W        W24479  42.984  12.663   2.734
63191W        W24480  19.579  21.142   2.341
63192W        W24481  40.411  22.687   4.341
63193W        W24482  32.137  39.956   1.449
63194W        W24483  40.343  18.655   1.404
63195W        W24484  23.706  33.924   1.384
63196W        W24485   4.862  23.548  11.874
63197W        W24486  29.042   5.322   4.326
63198W        W24487  10.758   6.343  13.358
63199W        W24488  30.071  42.362   4.620
63200W        W24489  11.643  21.655  11.117
63201W        W24490  29.148  12.722  11.542
63202W        W24491  17.250  22.582  11.991
63203W        W24492  14.176  18.114   1.771
63204W        W24493  10.179   1.939  11.092
63205W        W24494  24.124  35.573  13.811
63206W        W24495  33.097  11.762   1.449
63207W        W24496   8.228   5.204   1.779
63208W        W24497  24.112   0.920   4.787
63209W        W24498  25.495  19.227  14.904
63210W        W24499   9.823  11.323  12.476
63211W        W24500  30.062  14.125  14.969
63212W        W24501  23.646   7.911   4.244
63213W        W24502  30.046   3.218  14.010
63214W        W24503  17.293  22.551  12.855
63215W        W24504  38.880   0.353   1.865
63216W        W24505   6.321  28.547   1.315
63217W        W24506   6.827  16.789   4.287
63218W        W24507  27.525  30.639  11.947
63219W        W24508  24.655  43.490  11.040
63220W        W24509   9.162   5.220   3.301
63221W        W24510  28.023  30.014  13.541
63222W        W24511   4.229  26.960   3.786
63223W        W24512   3.216  18.733   2.319
63224W        W24513  38.884  16.810  11.491
63225W        W24514  26.605  20.716  11.493
63226W        W24515  17.086  24.981   3.791
63227W        W24516  15.235  37.343  11.967
63228W        W24517   0.375  27.046   0.924
63229W        W24518  23.184  20.150   1.361
63230W        W24519  35.915  15.090  13.802
63231W        W24520   4.211   2.868   4.712
63232W        W24521  18.287   1.788  11.086
63233W        W24522  41.493  14.255  10.472
63234W        W24523  19.140  23.526  11.104
63235W        W24524  38.340  14.306   0.302
63236W        W24525  33.568  35.029  13.064
63237W        W24526  18.235   4.884  12.094
63238W        W24527  42.405  34.467   0.360
63239W        W24528   4.778   0.260  12.402
63240W        W24529  14.779   6.342   0.457
63241W        W24530  10.180  29.514  13.393
63242W        W24531  27.638  29.120   1.353
63243W        W24532   3.899  25.094  11.508
63244W        W24533  16.668   0.419  13.040
63245W        W24534  37.011  30.087  13.977
63246W        W24535  31.984   9.187  11.884
63247W        W24536  24.596  34.866  13.005
63248W        W24537  18.078  23.536  13.950
63249W        W24538  17.197   1.791   2.235
63250W        W24539  35.937  13.792   3.634
63251W        W24540   2.415  36.384  13.535
63252W        W24541  22.144   0.395   4.341
63253W        W24542  16.608  13.288  13.400
63254W        W24543  19.612  30.579   1.928
63255W        W24544  25.107  14.113  13.530
63256W        W24545   2.742  26.560  13.007
63257W        W24546  38.901  29.592   2.400
63258W        W24547   7.823   3.949   1.899
63259W        W24548  23.621  38.339  11.406
63260W        W24549  17.639  27.488   4.176
63261W        W24550  22.635  34.095  14.809
63262W        W24551  11.191  44.489  11.884
63263W        W24552  38.430  25.680  14.826
63264W        W24553  41.902   9.841   2.882
63265W        W24554  19.116  12.155  10.433
63266W        W24555  34.993   5.358  10.597
63267W        W24556  37.976  25.528   1.911
63268W        W24557  11.284  39.919   2.754
63269W        W24558  19.535  13.282   1.305
63270W        W24559  12.285  32.064  13.354
63271W        W24560  20.662  23.077   2.208
63272W        W24561  28.587  10.170  14.317
63273W        W24562   6.799  14.824   4.829
63274W        W24563  18.583  43.470   4.759
63275W        W24564  29.090  41.888  14.879
63276W        W24565  12.847   7.761   0.326
63277W        W24566  23.665  27.502   1.756
63278W        W24567  19.129  18.658   4.822
63279W        W24568  24.686   4.815  10.151
63280W        W24569  23.731  20.693   2.877
63281W        W24570  39.820  29.583  13.007
63282W        W24571  13.763  32.467   9.531
63283W        W24572   8.801  15.095  10.444
63284W        W24573   8.290  14.277  10.404
63285W        W24574   4.237  38.404   3.299
63286W        W24575   1.917  12.246   4.805
63287W        W24576  16.812  16.089   0.939
63288W        W24577  15.324  32.953  11.602
63289W        W24578  18.087   4.944   3.242
63290W        W24579  39.866  24.719  10.606
63291W        W24580  33.025  33.516   0.314
63292W        W24581  38.015  22.677  14.287
63293W        W24582  39.369  39.499   4.244
63294W        W24583   3.839  26.015  14.030
63295W        W24584  40.829   9.238  14.281
63296W        W24585  32.602  39.811   2.866
63297W        W24586  39.395  41.477   3.302
63298W        W24587  32.551  20.149   4.284
63299W        W24588  23.161  19.269   0.795
63300W        W24589   2.358  26.161   2.292
63301W        W24590  13.654   8.868  11.100
63302W        W24591   5.422  13.196   2.673
63303W        W24592  33.380   7.209  14.423
63304W        W24593  20.068  39.862   4.183
63305W        W24594   3.724  34.485   2.316
63306W        W24595  19.651  18.607   1.412
63307W        W24596   1.438   9.874  11.943
63308W        W24597  25.681  35.522   1.736
63309W        W24598   4.291  18.285   4.824
63310W        W24599   5.910  18.558   1.254
63311W        W24600  17.777  21.245  12.046
63312W        W24601  40.527  25.468  14.496
63313W        W24602  30.480  19.673   0.256
63314W        W24603  28.933  43.876  11.020
63315W        W24604  33.067  33.923  11.876
63316W        W24605  11.344  33.430  10.551
63317W        W24606  16.782  24.545  10.408
63318W        W24607  15.797  12.624  13.804
63319W        W24608  14.187  23.195  13.540
63320W        W24609  21.150  31.647  11.379
63321W        W24610  16.265  25.020   0.803
63322W        W24611   0.425  17.211  11.485
63323W        W24612  36.908  42.005   3.286
63324W        W24613  22.713  21.532  12.986
63325W        W24614   9.227   8.878   0.477
63326W        W24615  36.486  41.488   1.408
63327W        W24616  44.993  26.174  13.831
63328W        W24617  19.225  32.453   0.369
63329W        W24618  10.795  20.742  11.577
63330W        W24619  42.524  28.099   1.256
63331W        W24620  11.653  28.658  11.397
63332W        W24621  25.485  44.425   4.275
63333W        W24622  33.880  26.107   0.822
63334W        W24623  23.584  40.397  13.878
63335W        W24624  29.512  34.515   5.296
63336W        W24625  44.308  42.395   4.337
63337W        W24626  13.757  19.185  11.446
63338W        W24627  18.680  14.790  13.944
63339W        W24628  42.904  39.887   0.435
63340W        W24629  39.880  10.265   4.604
63341W        W24630  37.378   6.365  10.927
63342W        W24631  32.060  37.535  12.891
63343W        W24632   5.304  13.325   2.201
63344W        W24633  18.703   0.316  14.361
63345W        W24634  38.419  36.529  11.073
63346W        W24635  21.615  35.945  13.527
63347W        W24636  35.600  29.510  11.885
63348W        W24637  21.526   0.466   1.363
63349W        W24638   1.439  43.890  12.420
63350W        W24639  43.406  30.036  10.950
63351W        W24640  17.285  42.844  14.771
63352W        W24641  36.925  21.698  10.466
63353W        W24642  18.187   2.898  13.363
63354W        W24643  44.345  13.637  13.838
63355W        W24644  27.998  39.338   3.841
63356W        W24645  38.986  41.799  11.859
63357W        W24646  30.634  25.654   2.707
63358W        W24647  13.839   6.207   0.415
63359W        W24648  30.098  33.926   1.713
63360W        W24649   2.452  28.969  12.908
63361W        W24650  12.236  34.018  10.105
63362W        W24651  35.932  16.108  12.073
63363W        W24652  40.440  42.973   0.397
63364W        W24653   6.915  30.482  14.976
63365W        W24654   0.477  28.009  11.972
63366W        W24655   7.199  15.300  13.346
63367W        W24656   6.879  37.054  13.984
63368W        W24657   8.320  17.174  12.574
63369W        W24658  33.972  21.083   2.232
63370W        W24659  20.533  37.532  12.354
63371W        W24660  22.671  34.412  10.552
63372W        W24661  31.586  17.290  14.476
63373W        W24662  43.956  13.777  12.509
63374W        W24663  28.546   1.975  13.046
63375W        W24664  43.308   8.317  10.619
63376W        W24665   7.257  43.809   1.280
63377W        W24666  19.168  22.742  13.875
63378W        W24667   9.650   1.274   0.308
63379W        W24668  32.011  25.012   0.759
63380W        W24669  44.917  13.247  10.535
63381W        W24670  30.657  36.431  14.798
63382W        W24671  10.708  42.856  14.403
63383W        W24672  31.586  24.698  13.999
63384W        W24673  26.142   2.952   2.899
63385W        W24674  37.360  36.872  11.988
63386W        W24675  38.981  15.724  11.519
63387W        W24676   5.287  37.945  10.940
63388W        W24677  41.017  24.169   0.267
63389W        W24678   2.419  39.813  12.449
63390W        W24679  41.853  25.017  10.086
63391W        W24680  25.089  20.153   0.906
63392W        W24681  17.765   8.298  11.960
63393W        W24682  31.916   0.379   1.354
63394W        W24683  44.364  15.747   1.225
63395W        W24684  21.131  14.737  14.373
63396W        W24685  42.461  29.573  13.018
63397W        W24686  23.576  31.065   1.720
63398W        W24687   2.374  16.180  10.539
63399W        W24688   3.761  24.661  14.802
63400W        W24689  25.990  14.153  11.974
63401W        W24690   1.379  43.907  13.441
63402W        W24691   0.900  23.113   3.251
63403W        W24692  31.434  37.488  14.502
63404W        W24693  40.354  10.239   5.272
63405W        W24694  36.950  41.419  13.495
63406W        W24695  37.386  21.163   4.130
63407W        W24696  17.145  23.209  11.390
63408W        W24697   7.876  21.144  13.541
63409W        W24698   7.774  23.088  11.563
63410W        W24699  35.019  23.159  13.951
63411W        W24700  16.215  17.716   3.845
63412W        W24701  42.389   7.795   1.263
63413W        W24702  43.362   2.779   3.350
63414W        W24703  27.509  17.162   4.775
63415W        W24704  29.043  27.483  11.595
63416W        W24705  20.633  41.882  13.941
63417W        W24706  10.680   7.759   2.268
63418W        W24707  13.116  15.735  10.055
63419W        W24708  29.500  41.832  10.974
63420W        W24709   6.923  25.548   4.214
63421W        W24710  20.564   8.758  14.406
63422W        W24711   3.871  37.072  14.940
63423W        W24712   0.328  17.173   3.300
63424W        W24713  39.533   5.294   2.226
63425W        W24714  23.006   1.956  14.916
63426W        W24715  43.492  39.951   1.447
63427W        W24716   3.824  19.222   0.853
63428W        W24717  36.475   4.834   4.186
63429W        W24718   0.889  16.701   0.339
63430W        W24719  31.585  32.949   3.791
63431W        W24720  40.432   8.211  14.314
63432W        W24721  29.605   6.189  12.004
63433W        W24722   3.711  19.756   1.853
63434W        W24723  12.172   9.394   1.355
63435W        W24724  29.143   8.187   5.673
63436W        W24725  26.018  25.035  11.113
63437W        W24726  43.488  10.188  11.402
63438W        W24727  10.259  22.720   0.769
63439W        W24728  14.207  34.892  13.811
63440W        W24729  35.479  14.296   0.450
63441W        W24730  39.495  28.577  11.966
63442W        W24731  13.146  14.234  13.045
63443W        W24732  30.072  19.765  12.075
63444W        W24733  11.272  39.960   1.816
63445W        W24734  24.559  32.468  12.976
63446W        W24735  41.002  34.037  10.538
63447W        W24736  37.004   6.208  11.425
63448W        W24737   8.710  43.508   5.166
63449W        W24738  43.476  12.618  13.801
63450W        W24739  30.649  33.889  11.575
63451W        W24740   8.341  21.020   0.751
63452W        W24741  27.123   9.869  13.866
63453W        W24742  37.061  42.804   5.121
63454W        W24743  44.448  23.713   3.286
63455W        W24744  22.572  23.616   1.368
63456W        W24745  11.842  10.355   0.321
63457W        W24746  22.654   5.310   1.281
63458W        W24747  20.715   8.267   4.723
63459W        W24748  20.630  31.491  10.956
63460W        W24749   2.402  36.071   0.754
63461W        W24750  23.651  32.122  11.920
63462W        W24751  41.500   1.307  14.396
63463W        W24752  15.100  39.996  12.884
63464W        W24753  16.806  33.079   0.273
63465W        W24754  38.950  22.008   0.356
63466W        W24755  31.060  38.351   4.132
63467W        W24756  43.501  43.772   2.262
63468W        W24757  33.085  21.024  13.970
63469W        W24758  22.060  21.092   2.250
63470W        W24759  42.309  26.702  12.364
63471W        W24760  21.196  38.395   4.206
63472W        W24761  22.010  10.636  10.444
63473W        W24762  31.915   5.279  11.116
63474W        W24763  42.281  14.759  11.089
63475W        W24764   3.850  10.785  10.641
63476W        W24765  35.879  40.322  14.929
63477W        W24766  41.528  20.674   4.746
63478W        W24767  18.603   8.316   2.280
63479W        W24768  10.310  15.649  14.851
63480W        W24769  28.448  34.502  14.462
63481W        W24770  43.449  32.925  12.021
63482W        W24771  29.464  22.739  11.431
63483W        W24772  17.080  23.018  14.009
63484W        W24773   9.343  28.086  10.011
63485W        W24774  29.588  35.402  12.527
63486W        W24775  35.933  21.164  13.031
63487W        W24776   5.835  27.670   0.929
63488W        W24777  34.537  36.996  13.924
63489W        W24778   4.727   2.438   3.223
63490W        W24779  28.003  36.933  14.407
63491W        W24780  24.976  19.092  12.580
63492W        W24781  42.512  32.556   1.343
63493W        W24782   9.179  21.740  13.518
63494W        W24783  15.262   9.793  13.428
63495W        W24784  12.216  18.717  13.057
63496W        W24785  25.181  39.448  14.509
63497W        W24786  17.195  15.276  14.965
63498W        W24787   1.745  22.625   3.259
63499W        W24788   3.301  20.640  14.936
63500W        W24789   1.368  27.567  12.073
63501W        W24790   2.929  25.632  11.090
63502W        W24791   2.388  24.089   3.849
63503W        W24792   8.662   5.786   1.817
63504W        W24793   0.886  39.922  11.863
63505W        W24794  20.526  30.943  12.956
63506W        W24795  43.928  43.810  14.859
63507W        W24796  33.458  30.914   2.251
63508W        W24797  23.140  30.629   0.932
63509W        W24798  25.500  24.994   3.158
63510W        W24799  11.244   0.292  14.979
63511W        W24800  43.333  29.925  10.565
63512W        W24801  24.547  25.094   2.304
63513W        W24802  44.263  35.966   0.967
63514W        W24803   7.257  20.609  12.366
63515W        W24804  22.576  20.706   2.204
63516W        W24805   1.268   7.797   0.794
63517W        W24806  37.405  24.228  11.086
63518W        W24807  10.173  30.503  10.906
63519W        W24808  43.512  41.943  11.873
63520W        W24809   1.284   9.820   0.309
63521W        W24810  23.548   2.442   3.640
63522W        W24811   3.434  11.787   1.784
63523W        W24812  36.846   0.321   0.445
63524W        W24813  16.640  43.359  10.951
63525W        W24814   6.377  12.717  11.421
63526W        W24815  27.552  16.093  12.410
63527W        W24816  22.045  21.066   3.202
63528W        W24817  15.578  10.666  14.942
63529W        W24818  18.169  42.814  13.388
63530W        W24819  22.689  16.591   4.709
63531W        W24820  15.599   7.879   5.282
63532W        W24821  15.767  12.840   0.268
63533W        W24822  31.095  25.101  13.968
63534W        W24823  37.997   2.792   0.294
63535W        W24824  41.857   6.312   2.270
63536W        W24825  27.610  17.272  10.466
63537W        W24826   5.383   0.830  14.295
63538W        W24827  13.218   2.275   4.169
63539W        W24828  24.695  26.146  14.835
63540W        W24829  12.639   7.173  13.313
63541W        W24830  21.542   7.383  10.432
63542W        W24831  23.027  31.943   3.780
63543W        W24832  40.427  38.507  12.053
63544W        W24833   9.255  39.835   4.599
63545W        W24834  16.076  16.803   0.821
63546W        W24835   8.242  23.065   3.250
63547W        W24836  39.920  15.311  14.508
63548W        W24837  43.902  27.663   2.290
63549W        W24838  37.894  26.081   0.390
63550W        W24839  27.640   2.386  10.928
63551W        W24840   8.759  34.451   2.400
63552W        W24841  26.104  30.565  11.872
63553W        W24842  15.116  16.811   4.789
63554W        W24843  20.220  12.729  11.073
63555W        W24844   7.759   7.679  13.528
63556W        W24845  30.636  13.233   1.362
63557W        W24846  22.617   9.736   0.900
63558W        W24847  14.598  29.439   2.706
63559W        W24848  21.123  18.707  11.582
63560W        W24849  35.106   4.735   0.777
63561W        W24850  29.666  24.146   3.800
63562W        W24851  22.128  37.988  11.449
63563W        W24852   5.208  17.773  11.083
63564W        W24853  18.596   9.188   2.394
63565W        W24854  20.097  21.152   4.136
63566W        W24855  42.939  29.081   2.206
63567W        W24856  25.493  12.143   2.813
63568W        W24857  32.570  34.507   0.394
63569W        W24858  29.977   5.933  12.373
63570W        W24859  29.638  34.906   2.671
63571W        W24860  22.161  35.477   2.783
63572W        W24861  22.545   0.262  14.953
63573W        W24862  33.094  10.864  11.503
63574W        W24863  38.864  12.791   3.306
63575W        W24864  14.236  20.248   4.162
63576W        W24865  21.116   9.314   0.798
63577W        W24866  38.371  35.527  14.394
63578W        W24867  37.833  42.992  14.782
63579W        W24868   7.682  15.600   1.268
63580W        W24869  34.512   5.288  14.939
63581W        W24870   5.822  37.358  11.598
63582W        W24871   6.727  32.120   0.445
63583W        W24872  21.133  35.560   3.773
63584W        W24873  36.070   6.920   0.421
63585W        W24874  42.346  30.480  11.416
63586W        W24875  33.995   4.409  13.822
63587W        W24876  27.646  31.138   1.739
63588W        W24877  30.022  23.064  14.335
63589W        W24878   5.739  37.864   0.417
63590W        W24879   2.941  34.982   2.205
63591W        W24880  13.185   6.901   0.394
63592W        W24881  15.798  34.015  12.977
63593W        W24882  43.433  22.214   3.244
63594W        W24883  33.559  23.669  11.411
63595W        W24884  20.669  12.251  14.356
63596W        W24885   8.320  40.389   2.669
63597W        W24886   9.647  40.982   0.882
63598W        W24887   2.801  11.798   2.703
63599W        W24888   6.778  28.946  13.047
63600W        W24889  38.361  20.688   3.861
63601W        W24890   5.253  39.969  11.995
63602W        W24891  19.162   9.314  14.286
63603W        W24892  35.039  30.159   3.752
63604W        W24893  42.295  22.063   3.316
63605W        W24894  35.093   4.876   2.690
63606W        W24895  11.627  19.176   3.734
63607W        W24896  12.333  36.035   3.739
63608W        W24897  13.203  18.053   0.823
63609W        W24898   3.341  24.623  10.626
63610W        W24899  27.113  34.909   3.723
63611W        W24900  13.704  24.509  14.366
63612W        W24901  30.427  10.188  10.461
63613W        W24902  19.725  31.593   1.770
63614W        W24903  24.538  16.590  14.452
63615W        W24904  42.817  33.998  14.786
63616W        W24905  24.610  27.027  10.505
63617W        W24906  34.088   8.223  13.821
63618W        W24907  22.617  21.121   4.773
63619W        W24908  20.543  38.509   3.667
63620W        W24909  30.423  33.622   0.282
63621W        W24910  37.488  37.032  11.126
63622W        W24911  29.653  34.893   4.354
63623W        W24912  35.386  10.209   0.846
63624W        W24913  36.401  32.475   3.855
63625W        W24914   9.724  36.498   4.705
63626W        W24915  41.826  36.403  11.589
63627W        W24916  13.722  25.649   1.892
63628W        W24917   6.849  31.596  13.512
63629W        W24918  14.166  10.368   1.710
63630W        W24919  19.768  32.467   1.364
63631W        W24920  19.741   6.243  14.499
63632W        W24921  27.600  15.738  10.913
63633W        W24922  34.045  25.483   1.867
63634W        W24923   5.813   6.702  11.954
63635W        W24924  42.435  28.576  14.955
63636W        W24925  25.168  33.963   0.945
63637W        W24926  36.424  25.182   4.713
63638W        W24927  28.124  25.969  13.532
63639W        W24928  12.323   6.899  13.535
63640W        W24929  21.072  28.072   1.745
63641W        W24930  19.214  16.700   1.817
63642W        W24931  13.289  18.566   2.385
63643W        W24932  16.700   2.409  11.380
63644W        W24933  35.408   1.806  14.869
63645W        W24934  39.024  22.675   3.757
63646W        W24935  12.748  21.249   4.285
63647W        W24936  29.542   1.448   2.256
63648W        W24937  22.210   7.783  10.554
63649W        W24938  24.207  35.419   2.740
63650W        W24939  38.994  27.959   1.395
63651W        W24940  40.971  31.445  13.984
63652W        W24941  19.077  15.290   1.389
63653W        W24942  31.043  18.194  13.351
63654W        W24943  36.907  41.928   0.294
63655W        W24944  42.017  18.716  14.804
63656W        W24945  27.570   5.861   0.863
63657W        W24946  16.652  30.653   0.376
63658W        W24947  27.650  15.232  11.881
63659W        W24948  33.891  44.884   0.752
63660W        W24949   2.291  35.408   2.343
63661W        W24950  25.497  33.519  10.515
63662W        W24951  17.796   8.272  11.373
63663W        W24952  17.574   2.385   2.767
63664W        W24953  44.763  34.597  13.856
63665W        W24954  13.738  22.206  12.439
63666W        W24955  18.607  37.557  13.974
63667W        W24956  36.575   7.236   1.353
63668W        W24957  30.507  29.565  12.487
63669W        W24958   1.755  41.484   3.676
63670W        W24959   6.407  24.561   0.838
63671W        W24960   9.206  39.424   2.296
63672W        W24961  19.578  13.628   4.712
63673W        W24962  10.194  27.455  12.396
63674W        W24963  22.692   1.397   4.270
63675W        W24964  19.760  31.097  12.966
63676W        W24965  35.101  41.028  14.826
63677W        W24966  41.390   8.304  14.994
63678W        W24967  32.592   2.922   4.675
63679W        W24968   0.805  30.572  13.473
63680W        W24969  41.344  36.436   0.938
63681W        W24970  44.354  19.214  11.903
63682W        W24971   4.867  31.004  12.059
63683W        W24972  26.079  17.074  14.433
63684W        W24973   3.333  11.214  11.039
63685W        W24974  11.692  18.708  10.948
63686W        W24975  30.088  17.265   0.909
63687W        W24976  21.743  28.488   4.672
63688W        W24977  33.453   1.741   3.334
63689W        W24978  26.588  30.970   2.377
63690W        W24979   8.725  22.731   2.266
63691W        W24980  29.540  37.949  11.080
63692W        W24981  15.156   7.185  12.052
63693W        W24982   8.299  35.065  10.930
63694W        W24983  43.385  19.629   0.911
63695W        W24984   0.427  32.948  12.909
63696W        W24985  18.779  17.298  10.481
63697W        W24986  12.773  34.588  13.519
63698W        W24987   4.863  20.764   3.833
63699W        W24988  23.100  37.849  13.043
63700W        W24989   9.325  32.898  13.943
63701W        W24990  40.038  26.571  14.984
63702W        W24991  15.821  28.599   3.860
63703W        W24992   1.474  12.836  14.405
63704W        W24993  41.305   7.275   0.328
63705W        W24994  21.693  13.807  11.073
63706W        W24995  24.584  25.191  14.766
63707W        W24996  21.582  43.469   2.268
63708W        W24997  41.951  40.435   9.992
63709W        W24998  20.173  27.549  10.987
63710W        W24999  36.007  28.184   0.887
63711W        W25000  34.610   7.855   1.821
63712W        W25001  24.050  39.468  12.936
63713W        W25002  41.324   7.883  13.433
63714W        W25003  25.184  12.168  12.398
63715W        W25004  32.007  38.978   4.275
63716W        W25005  25.106   7.748  12.055
63717W        W25006  31.955   9.737  11.009
63718W        W25007  11.297  24.591   3.176
63719W        W25008   1.841   4.317  14.506
63720W        W25009  41.012  29.611  13.998
63721W        W25010  25.680  35.964   1.449
63722W        W25011  40.452  43.935  14.514
63723W        W25012   5.200   5.370  13.423
63724W        W25013  31.618  10.201   4.274
63725W        W25014  31.607  12.249  13.819
63726W        W25015  16.592  23.552   0.917
63727W        W25016   1.251  22.536   1.699
63728W        W25017  22.572  41.470   0.399
63729W        W25018   4.298  39.457  14.808
63730W        W25019  16.129  10.326   3.853
63731W        W25020  19.280  20.641  13.891
63732W        W25021  20.268  21.203  10.473
63733W        W25022   9.324  29.562  12.936
63734W        W25023  41.856  13.124   1.864
63735W        W25024  44.840  32.460   3.687
63736W        W25025  36.013   9.841  14.917
63737W        W25026  10.764  29.053  12.550
63738W        W25027  44.954  30.086   0.394
63739W        W25028  28.619  40.051  11.404
63740W        W25029  14.100  16.608   4.754
63741W        W25030  37.446   4.246  11.089
63742W        W25031  20.601   2.740  10.535
63743W        W25032  35.505  43.513   4.812
63744W        W25033  13.636  25.029  14.975
63745W        W25034  17.077  38.399  12.518
63746W        W25035   4.763  42.386   4.291
63747W        W25036  25.124  20.669   3.717
63748W        W25037  22.725   8.168   0.732
63749W        W25038  36.592  38.503   3.384
63750W        W25039   4.760  39.500  10.638
63751W        W25040  15.607  24.547  10.487
63752W        W25041  28.035  25.636   1.376
63753W        W25042  43.796  37.040   4.262
63754W        W25043  11.160  26.501  10.923
63755W        W25044   2.952  28.090  12.403
63756W        W25045  23.125   8.804   4.633
63757W        W25046  18.145  27.986  14.850
63758W        W25047   0.441   0.406   4.347
63759W        W25048  43.422   2.898  10.626
63760W        W25049   9.850   2.790   2.381
63761W        W25050  19.549   4.222  10.522
63762W        W25051   7.181  34.090  11.958
63763W        W25052  40.873   6.383  11.929
63764W        W25053  41.336  15.610   3.248
63765W        W25054  38.910  25.000   4.704
63766W        W25055   8.899  35.578   0.747
63767W        W25056   3.785  25.133  10.588
63768W        W25057   8.346  35.878   4.834
63769W        W25058  40.428   1.261  13.417
63770W        W25059  17.111  24.016   1.253
63771W        W25060  16.170   6.691   0.959
63772W        W25061  41.398   8.295   0.956
63773W        W25062   3.389  41.812   1.212
63774W        W25063  35.486  24.176  10.895
63775W        W25064  39.877  21.148   1.396
63776W        W25065   0.791  37.030  14.376
63777W        W25066  28.538  18.256  13.806
63778W        W25067  31.542   8.892   0.867
63779W        W25068  10.270  19.196  10.888
63780W        W25069  21.262  30.585  14.014
63781W        W25070  29.105  26.684  13.381
63782W        W25071  21.095  10.220  12.033
63783W        W25072  20.085  38.416   1.439
63784W        W25073  14.616  40.023   3.302
63785W        W25074   0.328  42.308  10.501
63786W        W25075  20.262  22.156   2.253
63787W        W25076  14.807  31.606   3.200
63788W        W25077   9.304  22.135   1.355
63789W        W25078  26.467  11.234   2.901
63790W        W25079  11.844  40.943   4.706
63791W        W25080  32.540  40.812  13.931
63792W        W25081  17.232   7.259   1.773
63793W        W25082  33.453  41.845  10.489
63794W        W25083  30.134  32.612   0.453
63795W        W25084  24.702   6.676   3.813
63796W        W25085  35.477   9.326   4.762
63797W        W25086  35.080  13.693   1.393
63798W        W25087  34.546  33.062   1.243
63799W        W25088  26.540   6.213  14.011
63800W        W25089   7.189  44.481  10.614
63801W        W25090  23.710  32.472   1.931
63802W        W25091  27.592  12.816  12.411
63803W        W25092  42.521   1.793  13.506
63804W        W25093   1.370   4.881   0.925
63805W        W25094  20.032  37.553  14.810
63806W        W25095  43.816   8.806  12.469
63807W        W25096  13.331  12.690   3.775
63808W        W25097  43.829  40.472  13.816
63809W        W25098  44.789  38.870   1.446
63810W        W25099  26.698  25.043   3.355
63811W        W25100  16.106  41.815  11.022
63812W        W25101   0.441  29.951  14.817
63813W        W25102  40.873  32.537   3.663
63814W        W25103  12.808  18.588   1.407
63815W        W25104  32.912  13.204   3.694
63816W        W25105  25.989  18.265  14.390
63817W        W25106  25.005   0.907  11.914
63818W        W25107  29.440  31.097   2.281
63819W        W25108  38.355   0.459   4.624
63820W        W25109   9.174  44.501  11.916
63821W        W25110   2.881  17.259  11.017
63822W        W25111  27.630  42.951  13.926
63823W        W25112  17.602  30.042   0.356
63824W        W25113  25.487  36.359  12.524
63825W        W25114  37.370   0.329   4.838
63826W        W25115  35.500  30.423   3.756
63827W        W25116  29.997   8.210   1.697
63828W        W25117  27.604  42.807  11.865
63829W        W25118  37.502  41.306  11.934
63830W        W25119   7.408  11.168  14.976
63831W        W25120  28.050  44.301   3.827
63832W        W25121  39.531  39.978   3.695
63833W        W25122  41.447  40.839   0.934
63834W        W25123  36.468  41.015  12.529
63835W        W25124  10.367  13.208  14.001
63836W        W25125  32.592  25.995  14.009
63837W        W25126  33.490  24.192   2.835
63838W        W25127  38.435  31.638  14.925
63839W        W25128  11.719  27.977   4.628
63840W        W25129  41.340  17.208   1.739
63841W        W25130  43.022  41.895  14.876
63842W        W25131   6.212  11.647  11.476
63843W        W25132  32.396   8.690  14.438
63844W        W25133   3.358   1.801  10.541
63845W        W25134  42.473  24.610   1.864
63846W        W25135  33.977  16.606  12.374
63847W        W25136   0.826   6.702  14.933
63848W        W25137  21.112  16.725   4.334
63849W        W25138   6.210  36.089  12.015
63850W        W25139  35.061   7.807  13.857
63851W        W25140  37.355  17.147   3.147
63852W        W25141  31.505  34.067  11.105
63853W        W25142  27.105  21.041   0.931
63854W        W25143   9.785  25.569   4.819
63855W        W25144  16.619  25.542  13.819
63856W        W25145  19.627  38.462  12.442
63857W        W25146  44.980  29.506  13.363
63858W        W25147  35.958  20.204  11.129
63859W        W25148   9.201  41.880   4.814
63860W        W25149  19.698  20.149  14.353
63861W        W25150  20.266  20.667  11.420
63862W        W25151   0.398  12.327   0.273
63863W        W25152   2.856  32.439  10.565
63864W        W25153   6.822  36.085   4.115
63865W        W25154  35.391  17.561   0.377
63866W        W25155   8.720  12.344  10.632
63867W        W25156  35.415  10.864   1.366
63868W        W25157  35.893  35.072   3.844
63869W        W25158  30.031  38.504   3.795
63870W        W25159  25.686  25.019   2.829
63871W        W25160  29.939  35.424   2.409
63872W        W25161  41.368   3.952   4.126
63873W        W25162  37.985  32.935  14.296
63874W        W25163  40.997  24.654   4.665
63875W        W25164  40.921   8.876   2.270
63876W        W25165  33.515  31.140  11.427
63877W        W25166  38.827  11.819   2.226
63878W        W25167  42.419   9.849   0.734
63879W        W25168  30.141   9.859   0.922
63880W        W25169  44.823  24.065  14.430
63881W        W25170   0.969  43.004   1.806
63882W        W25171  43.457  17.709   4.632
63883W        W25172  38.393   3.942   1.262
63884W        W25173   1.398  12.854  14.826
63885W        W25174  25.600   4.440   2.178
63886W        W25175  15.327  24.516   2.260
63887W        W25176  22.079   0.259  11.080
63888W        W25177   4.849  22.672   0.816
63889W        W25178  23.688   1.402   2.389
63890W        W25179  23.692  41.426   4.284
63891W        W25180  29.086  13.332  13.451
63892W        W25181  40.868  41.489   1.422
63893W        W25182  16.105  19.595   3.730
63894W        W25183  14.631   5.255   1.314
63895W        W25184   5.720  15.771  14.439
63896W        W25185  29.522  44.317  13.385
63897W        W25186  25.990   4.726   4.672
63898W        W25187   7.337  19.040   2.262
63899W        W25188  44.905  39.836  14.912
63900W        W25189   7.292  25.133  14.439
63901W        W25190  39.338   6.200  11.525
63902W        W25191  33.617  13.733  11.596
63903W        W25192  19.264   8.267   3.231
63904W        W25193  16.084  27.687  12.347
63905W        W25194  14.275  38.357   0.259
63906W        W25195  39.902  26.461   1.828
63907W        W25196  43.484   6.865  10.643
63908W        W25197  26.008  29.606   4.660
63909W        W25198  24.483  25.206   0.386
63910W        W25199  21.128  12.621  11.090
63911W        W25200  21.223  37.002  13.858
63912W        W25201  43.465  13.794   2.717
63913W        W25202  28.467  29.008  14.890
63914W        W25203  33.571  42.472  12.360
63915W        W25204  38.845  20.725   0.377
63916W        W25205   1.392  22.623   4.145
63917W        W25206  19.601  29.533  14.465
63918W        W25207  27.624  35.569  12.347
63919W        W25208  22.567  28.012  12.973
63920W        W25209  40.459  10.241   0.458
63921W        W25210  10.192   4.326  12.841
63922W        W25211  32.565   9.804  14.021
63923W        W25212   5.254  25.152   0.800
63924W        W25213   3.262  13.838  10.892
63925W        W25214   1.402   8.679   5.088
63926W        W25215   4.916  34.496  13.863
63927W        W25216   4.230  44.458   0.741
63928W        W25217  43.354  12.265  14.278
63929W        W25218  21.257  27.494   1.833
63930W        W25219   1.772  29.521   3.213
63931W        W25220  22.538  26.995   0.862
63932W        W25221  12.222  16.791  13.962
63933W        W25222  21.624  33.497   3.765
63934W        W25223  16.770   6.692   1.379
63935W        W25224   6.716  42.510   2.841
63936W        W25225  44.930   6.701   3.633
63937W        W25226   6.416  19.765  10.028
63938W        W25227  31.106   3.266   1.845
63939W        W25228  34.455  19.596  10.449
63940W        W25229  18.172  36.863   9.601
63941W        W25230  33.433  19.616  10.473
63942W        W25231  36.571  13.729   4.631
63943W        W25232  41.798  28.165  14.989
63944W        W25233  24.625  38.887   4.746
63945W        W25234  22.175  13.800  12.501
63946W        W25235  18.245  16.693   4.257
63947W        W25236  24.525  43.014   4.140
63948W        W25237  31.423  18.140   2.209
63949W        W25238  38.334  20.755   4.799
63950W        W25239  27.003  43.365  11.880
63951W        W25240   9.388  41.016  14.450
63952W        W25241  32.408  19.246   1.377
63953W        W25242  19.156  34.549   0.908
63954W        W25243   9.160  44.280   4.313
63955W        W25244  28.481  39.422  14.954
63956W        W25245  31.124  21.253  12.867
63957W        W25246  39.838  14.325  11.088
63958W        W25247  34.085  39.503  11.426
63959W        W25248  12.719  43.938  10.893
63960W        W25249  12.156  39.552   9.648
63961W        W25250  43.997  36.080   0.397
63962W        W25251  33.416  34.959   3.688
63963W        W25252  36.474   9.237  14.937
63964W        W25253  38.999  19.561  12.011
63965W        W25254  13.779  35.864   0.742
63966W        W25255   9.323  42.816   0.325
63967W        W25256  35.067  43.801   3.162
63968W        W25257  40.856  42.960   2.849
63969W        W25258   0.312  10.683  10.500
63970W        W25259  40.993   3.298  13.330
63971W        W25260  27.168   0.494   0.733
63972W        W25261  12.194  36.853  10.430
63973W        W25262  20.094  22.743   2.771
63974W        W25263  39.401  41.387   2.336
63975W        W25264  37.922  36.090  13.988
63976W        W25265  38.348  12.656   0.859
63977W        W25266  42.963  37.931   1.932
63978W        W25267   9.369  43.385   4.645
63979W        W25268  37.838  32.022  13.060
63980W        W25269  33.087   0.979  14.375
63981W        W25270   2.749   3.341  14.286
63982W        W25271  27.623  20.588   3.244
63983W        W25272  39.343   9.303   2.353
63984W        W25273  44.865  27.502   1.246
63985W        W25274  31.967  24.722  13.867
63986W        W25275   9.389  18.727   2.818
63987W        W25276   9.644  38.516  11.936
63988W        W25277   0.381  16.242  13.860
63989W        W25278  32.554  33.573  13.833
63990W        W25279  11.327   9.165  14.430
63991W        W25280  20.646  28.490   0.748
63992W        W25281  23.628  10.380   0.925
63993W        W25282  29.445   7.183   0.270
63994W        W25283  37.377  29.527   2.824
63995W        W25284  35.957  31.975  13.440
63996W        W25285  41.470  35.008  14.816
63997W        W25286   6.339  43.819  12.003
63998W        W25287  36.568  18.145   0.281
63999W        W25288  11.337  44.779  13.799
64000W        W25289  30.542   1.411  13.916
64001W        W25290  13.238  10.688   1.842
64002W        W25291  17.777   4.419  12.348
64003W        W25292  38.537  38.998  14.410
64004W        W25293   9.798  14.326   2.252
64005W        W25294  17.069  32.896  13.832
64006W        W25295  12.713  26.481   3.283
64007W        W25296  44.939  11.785  12.942
64008W        W25297  16.110  18.627   0.766
64009W        W25298  11.127  31.404   2.788
64010W        W25299   5.869  29.943  12.061
64011W        W25300  25.197   4.809   2.871
64012W        W25301   0.796   3.804  14.927
64013W        W25302   3.838  14.769  10.640
64014W        W25303  23.095  14.674  12.398
64015W        W25304   3.323  27.587   4.738
64016W        W25305  38.398  42.942  14.502
64017W        W25306  21.077  24.130  10.634
64018W        W25307  42.405  40.025  11.531
64019W        W25308  17.165  40.345  10.640
64020W        W25309  16.763  16.295  12.974
64021W        W25310  25.567  22.161   3.222
64022W        W25311  19.677  20.067   3.334
64023W        W25312  31.034  31.913  11.867
64024W        W25313  25.028  30.557   1.275
64025W        W25314  25.608  41.021  10.598
64026W        W25315   2.428   3.914  11.453
64027W        W25316  43.370  17.643  14.306
64028W        W25317  37.914   9.346   0.914
64029W        W25318  44.450   0.911   4.137
64030W        W25319  31.072  30.651   0.349
64031W        W25320   8.381  34.053   3.378
64032W        W25321  26.460  18.601  11.596
64033W        W25322  12.681  33.535  12.343
64034W        W25323  38.474  16.304  11.903
64035W        W25324  43.920  32.077  13.034
64036W        W25325  31.598  11.139  14.942
64037W        W25326   8.187  14.594   0.355
64038W        W25327  37.384  42.504  12.040
64039W        W25328  44.998   5.336  12.960
64040W        W25329   5.926  35.415   2.898
64041W        W25330  31.605  31.913  12.351
64042W        W25331  17.234  10.251   5.107
64043W        W25332   8.211  18.552  12.508
64044W        W25333  33.092   8.885   2.263
64045W        W25334  37.960  23.696  10.592
64046W        W25335   8.755  13.723  13.539
64047W        W25336   5.702  21.542  14.289
64048W        W25337  33.025   7.700  14.857
64049W        W25338  10.368  39.461  13.930
64050W        W25339   1.775  43.423   1.431
64051W        W25340  18.148  20.207  10.566
64052W        W25341  15.296  20.139   0.884
64053W        W25342   5.397   2.241   0.305
64054W        W25343  22.658   2.434   2.826
64055W        W25344  41.364   2.457   1.231
64056W        W25345  18.250  28.550   1.709
64057W        W25346  35.885  24.630   4.754
64058W        W25347  10.330  23.142   3.659
64059W        W25348  19.278   2.929  12.912
64060W        W25349  19.119  41.517  10.614
64061W        W25350  42.336  42.967   1.298
64062W        W25351  40.456  32.469   2.302
64063W        W25352   2.322  13.775   2.193
64064W        W25353  43.501  18.249   2.274
64065W        W25354  34.509   1.367   3.304
64066W        W25355  20.050  24.659  11.458
64067W        W25356  29.623  11.688   9.950
64068W        W25357  16.174  41.359   4.353
64069W        W25358  42.964  22.523   1.313
64070W        W25359  24.681  14.298   3.684
64071W        W25360  16.104  21.679   2.699
64072W        W25361   3.410   5.787  10.571
64073W        W25362   0.926   1.970  13.437
64074W        W25363  22.187  28.177   0.890
64075W        W25364  12.349  15.734   0.776
64076W        W25365  34.978   2.763   0.328
64077W        W25366  18.563  14.102   1.290
64078W        W25367  40.828  26.055  10.913
64079W        W25368  36.983  42.008  10.584
64080W        W25369  21.631  13.843  11.589
64081W        W25370  25.099   1.877  14.946
64082W        W25371  42.463   6.262   3.211
64083W        W25372  37.371  22.594   4.829
64084W        W25373  44.936  22.548   4.798
64085W        W25374   7.250  24.035   1.375
64086W        W25375  25.114  14.738  10.919
64087W        W25376   7.722  29.542   4.273
64088W        W25377  18.784  16.757   0.959
64089W        W25378   9.328  21.544  14.302
64090W        W25379   4.885   0.296   4.142
64091W        W25380  26.668  30.060   0.398
64092W        W25381  25.020  29.589  11.008
64093W        W25382  27.677  33.092   4.684
64094W        W25383  31.998  15.721  12.892
64095W        W25384   8.285  43.380   4.138
64096W        W25385  23.129  26.669   1.909
64097W        W25386  43.783   9.862  12.468
64098W        W25387  11.126  27.044   4.703
64099W        W25388  29.995  37.945  10.472
64100W        W25389   9.750   7.789   4.610
64101W        W25390  40.398  42.018  14.758
64102W        W25391  23.013  15.083  11.586
64103W        W25392  33.597  43.888  10.404
64104W        W25393  26.595   9.862  13.446
64105W        W25394  41.426   3.951  14.922
64106W        W25395  12.343  29.173   2.743
64107W        W25396  43.497  24.176  13.870
64108W        W25397   9.812   9.249   0.398
64109W        W25398  36.562  11.843   0.478
64110W        W25399  20.565   5.319   1.229
64111W        W25400  35.948   2.326   3.267
64112W        W25401  22.606  22.103   1.315
64113W        W25402  25.614   9.709   4.238
64114W        W25403  16.208  37.405  12.577
64115W        W25404  32.599  32.020  13.997
64116W        W25405  25.619  20.641  13.416
64117W        W25406  36.070  11.277   0.787
64118W        W25407  34.966   5.431  13.995
64119W        W25408  41.420  35.874   4.678
64120W        W25409  30.067  25.499   3.749
64121W        W25410  10.209  11.688   1.419
64122W        W25411  24.710  21.031  11.099
64123W        W25412  25.046   4.906  14.957
64124W        W25413  32.085  11.841   5.250
64125W        W25414   1.974  14.235   0.458
64126W        W25415  40.432  13.769   1.808
64127W        W25416   1.475  22.150  11.590
64128W        W25417  25.118  21.141   1.212
64129W        W25418   3.856  42.444   0.877
64130W        W25419  36.359  14.629   0.882
64131W        W25420   7.362   2.796   0.274
64132W        W25421   9.738  20.123   4.301
64133W        W25422  20.214  34.927   3.147
64134W        W25423  18.141  39.334  13.423
64135W        W25424  44.771  41.920   4.340
64136W        W25425   7.230  16.112  10.481
64137W        W25426  12.796  40.537  11.586
64138W        W25427  27.043  24.647   1.848
64139W        W25428  22.710  27.044   2.769
64140W        W25429  28.625  44.885  12.001
64141W        W25430  41.383  41.977  13.352
64142W        W25431  25.468  43.404   1.754
64143W        W25432  17.255   4.844   1.720
64144W        W25433  35.979  37.366   3.217
64145W        W25434  11.659  26.570   4.248
64146W        W25435  31.072  12.736  14.766
64147W        W25436  31.990  27.637   2.283
64148W        W25437  23.499   7.178  11.461
64149W        W25438  20.218  29.564  11.030
64150W        W25439  17.159  39.831   0.821
64151W        W25440  37.061  20.216   1.312
64152W        W25441  43.874   7.248  10.561
64153W        W25442   5.334  28.483   0.438
64154W        W25443  18.057   0.770  13.023
64155W        W25444  27.941  35.380  14.421
64156W        W25445   3.717   6.742   0.465
64157W        W25446  14.609  15.130  12.908
64158W        W25447  38.827  12.666  11.976
64159W        W25448  40.036   1.412  12.424
64160W        W25449  37.397  16.194   3.639
64161W        W25450  12.314  29.943   2.881
64162W        W25451   5.394  12.839   3.145
64163W        W25452  13.205  36.581  12.572
64164W        W25453  29.022  41.364   3.218
64165W        W25454  37.919  28.467   1.341
64166W        W25455  34.460   8.790   0.954
64167W        W25456  28.526   3.303   4.139
64168W        W25457  42.025  34.102  11.857
64169W        W25458   7.773  10.649  14.797
64170W        W25459  33.049  13.655   2.310
64171W        W25460   5.439  34.401  14.339
64172W        W25461  15.734  18.247  11.076
64173W        W25462  42.299  26.654   2.666
64174W        W25463   6.746   8.290   3.249
64175W        W25464   9.176  19.135  10.889
64176W        W25465  39.365  43.019  12.460
64177W        W25466  32.579  26.145   1.697
64178W        W25467  25.987  18.259  13.994
64179W        W25468   0.431   9.658   1.337
64180W        W25469  27.652  44.844  11.127
64181W        W25470  25.538  31.922   1.407
64182W        W25471  29.964  29.550   3.761
64183W        W25472  15.281  31.108   0.891
64184W        W25473   7.701   6.686  13.929
64185W        W25474   2.773   0.430  14.278
64186W        W25475  22.644  12.234   1.717
64187W        W25476   9.286  28.139   3.169
64188W        W25477  19.691  25.097  12.981
64189W        W25478  19.142  26.596   0.261
64190W        W25479   0.424  13.699  14.965
64191W        W25480  33.034  31.959   0.726
64192W        W25481  35.069  27.126   4.819
64193W        W25482  34.370  36.073  14.445
64194W        W25483  37.065  21.200  12.044
64195W        W25484  14.181  12.180   2.784
64196W        W25485  38.443   9.244  11.940
64197W        W25486  38.474  22.713   3.822
64198W        W25487  44.452   9.245  11.426
64199W        W25488   0.953  15.763   1.879
64200W        W25489  31.524  15.681  12.558
64201W        W25490  12.661  28.101   3.206
64202W        W25491  14.698   9.375   3.756
64203W        W25492  20.711  41.942   3.644
64204W        W25493  39.026  11.660   0.796
64205W        W25494   9.219   5.921  11.897
64206W        W25495  33.530  40.840   1.706
64207W        W25496  13.800  15.114   3.247
64208W        W25497  23.207  17.752   4.705
64209W        W25498  40.845  39.419  12.925
64210W        W25499  11.168  22.724  13.391
64211W        W25500  13.616  13.639   0.412
64212W        W25501  22.666  23.590  12.006
64213W        W25502   6.784  16.189   0.436
64214W        W25503   7.797  13.133   4.832
64215W        W25504  44.301  14.677   5.231
64216W        W25505  23.637  41.537  12.510
64217W        W25506  12.800  39.478  12.913
64218W        W25507  33.388  41.813  14.022
64219W        W25508  42.289  12.164   2.877
64220W        W25509  39.388  17.266  14.800
64221W        W25510  29.023  14.788   3.862
64222W        W25511  13.663   8.696  14.845
64223W        W25512  26.999  35.370  11.548
64224W        W25513  25.143  27.623  11.545
64225W        W25514   5.826   3.917   4.329
64226W        W25515  31.953  34.436  12.486
64227W        W25516  20.039  20.731  12.508
64228W        W25517   0.962  14.771  11.575
64229W        W25518   3.291  16.663   2.331
64230W        W25519  34.017   8.405   0.481
64231W        W25520  32.531   5.758  10.602
64232W        W25521   3.936  19.260  10.919
64233W        W25522   5.756  15.692  12.579
64234W        W25523   2.252  11.648  11.043
64235W        W25524  13.137  12.297  13.338
64236W        W25525  28.137  35.101  13.401
64237W        W25526  43.872  38.929  10.611
64238W        W25527  26.606  33.462   4.210
64239W        W25528  33.454   0.265  10.508
64240W        W25529  38.934   8.309  13.325
64241W        W25530   6.269  23.149  13.024
64242W        W25531  30.626  20.272  11.384
64243W        W25532  28.631  21.701  10.092
64244W        W25533  13.203  24.116   1.871
64245W        W25534   6.246  14.339  10.485
64246W        W25535   1.324  27.622  11.078
64247W        W25536  31.441   0.449  12.080
64248W        W25537   2.917  15.216   2.783
64249W        W25538   7.202   0.783   1.881
64250W        W25539  23.219  30.017   4.788
64251W        W25540  29.092  17.667  14.877
64252W        W25541  29.434  36.852  10.523
64253W        W25542  13.820  30.978   4.751
64254W        W25543  31.031  39.388   4.160
64255W        W25544  41.891   8.826   0.890
64256W        W25545  26.161  12.357   3.752
64257W        W25546   5.749  37.550   3.745
64258W        W25547  19.657   8.871  12.352
64259W        W25548  44.918   8.668   3.335
64260W        W25549  24.974  14.735  14.825
64261W        W25550  33.383  41.294   4.226
64262W        W25551  19.643  27.957  14.299
64263W        W25552  13.657  24.061   1.924
64264W        W25553  42.899  40.546  11.011
64265W        W25554  15.167  25.120  14.032
64266W        W25555  24.045   1.452   1.259
64267W        W25556  44.919  24.982   4.608
64268W        W25557  20.668  20.095  13.391
64269W        W25558   8.716   0.382   1.765
64270W        W25559  38.336  32.450   2.677
64271W        W25560  23.522  31.639  12.553
64272W        W25561  40.930  39.379   3.285
64273W        W25562  42.013   5.201  11.951
64274W        W25563  29.525  34.052  12.824
64275W        W25564  27.465  26.024  13.004
64276W        W25565  28.036  29.992  12.858
64277W        W25566  27.104  19.621   1.749
64278W        W25567  44.860  13.327  13.999
64279W        W25568  30.565  33.451   3.236
64280W        W25569   4.436   6.806   0.802
64281W        W25570   6.877  14.169   1.871
64282W        W25571  23.569  27.011  12.435
64283W        W25572  44.369  15.613   4.597
64284W        W25573  36.489   0.873  14.426
64285W        W25574  13.723  43.455   3.717
64286W        W25575  18.676  33.883  14.443
64287W        W25576   7.249  42.379  10.460
64288W        W25577  38.041  21.544  11.483
64289W        W25578  43.832  31.487  11.987
64290W        W25579  16.304   3.366   2.702
64291W        W25580  15.315   8.279  12.059
64292W        W25581  19.629  11.357   1.893
64293W        W25582  20.052  40.031  12.495
64294W        W25583  39.972  38.510   3.818
64295W        W25584  20.272   1.844  11.086
64296W        W25585  20.176   9.712   2.246
64297W        W25586  25.095  16.317  14.870
64298W        W25587  42.480  42.315  14.873
64299W        W25588  42.786  28.042  14.286
64300W        W25589  32.004  34.589   1.894
64301W        W25590   3.834  42.865   2.662
64302W        W25591  15.160   5.435  14.970
64303W        W25592   8.303   7.789   0.354
64304W        W25593  31.930  30.157  14.885
64305W        W25594  44.381  17.208   3.353
64306W        W25595  28.654  14.251  10.542
64307W        W25596  13.708  25.017  12.033
64308W        W25597  12.153  21.715   1.932
64309W        W25598  36.938  14.176  14.858
64310W        W25599  21.672   9.794   3.651
64311W        W25600  14.098  24.626  12.517
64312W        W25601  42.992  30.435  13.935
64313W        W25602  31.925  11.673   3.854
64314W        W25603  11.331  19.274  13.852
64315W        W25604   2.947  15.786  12.493
64316W        W25605  11.704  38.063  13.474
64317W        W25606  42.409  24.179  11.005
64318W        W25607   8.818  16.720  12.035
64319W        W25608  14.615  34.464   4.608
64320W        W25609  40.530   6.920  14.869
64321W        W25610  41.964  33.442   2.769
64322W        W25611  28.594  12.204  12.379
64323W        W25612   1.387   0.285  11.035
64324W        W25613  24.651  37.909  10.521
64325W        W25614  41.962  22.611   3.658
64326W        W25615  41.836   0.815  11.597
64327W        W25616  32.535  39.017  11.941
64328W        W25617   1.747  30.950  14.448
64329W        W25618  41.936  11.338   0.478
64330W        W25619  33.442  33.079   3.275
64331W        W25620  13.783  38.395   0.737
64332W        W25621   4.801   2.825  14.938
64333W        W25622   5.345  38.925  10.993
64334W        W25623  10.370   8.713   5.180
64335W        W25624  31.931  44.903   2.731
64336W        W25625  13.162  22.167   4.650
64337W        W25626  19.611  42.912   3.263
64338W        W25627   4.239  24.119   0.389
64339W        W25628  42.992   5.812  11.974
64340W        W25629  37.425  20.719   2.348
64341W        W25630  23.004  34.575   2.211
64342W        W25631  21.198  11.227   2.328
64343W        W25632  38.869  11.339   3.703
64344W        W25633   5.331  20.199  10.607
64345W        W25634  29.646  24.214   3.356
64346W        W25635  26.629  43.803  11.956
64347W        W25636  34.589  14.173   2.413
64348W        W25637  25.200   8.763  12.356
64349W        W25638  23.061  13.211  11.573
64350W        W25639  43.333  20.631   4.757
64351W        W25640  44.878  19.568  11.503
64352W        W25641  27.582  33.019  12.079
64353W        W25642   2.240  12.251  12.410
64354W        W25643   2.947   7.800  13.827
64355W        W25644  37.483  21.751  13.347
64356W        W25645  41.026  22.193  11.498
64357W        W25646   2.845  29.452   1.916
64358W        W25647  28.944  27.646  10.908
64359W        W25648  31.990   4.429  11.479
64360W        W25649  32.411  40.320   0.774
64361W        W25650  41.444  44.939  13.506
64362W        W25651  18.290  10.696   2.358
64363W        W25652  26.672  33.524   0.331
64364W        W25653   3.229  18.641  10.949
64365W        W25654  29.062  23.696  12.580
64366W        W25655   8.882  15.259   3.353
64367W        W25656  27.038  43.508  11.529
64368W        W25657   6.682  44.787  12.875
64369W        W25658   9.205  12.843  12.555
64370W        W25659  40.490  26.647  11.004
64371W        W25660  38.367  23.228  12.081
64372W        W25661   5.848   0.282   2.832
64373W        W25662  20.619  35.404  14.952
64374W        W25663  41.914  23.501  13.862
64375W        W25664  15.653   7.353   0.897
64376W        W25665   5.276  36.849   1.758
64377W        W25666  21.249  27.644   9.979
64378W        W25667   7.360   7.681  14.384
64379W        W25668  40.853  36.555  10.507
64380W        W25669  30.001   7.722  14.023
64381W        W25670  12.703  22.115   2.323
64382W        W25671   0.293   5.798  13.362
64383W        W25672   0.333   9.179   4.114
64384W        W25673   7.294   4.264  13.504
64385W        W25674  23.611  43.430  13.486
64386W        W25675  41.355  38.348  13.503
64387W        W25676  29.155   2.401   0.887
64388W        W25677   6.705   2.821   4.226
64389W        W25678  38.073  33.454   4.826
64390W        W25679   7.313  15.127  12.854
64391W        W25680   0.822  15.590   0.826
64392W        W25681  41.426  26.969  14.357
64393W        W25682  39.366  32.909   1.756
64394W        W25683   2.235   5.246   2.716
64395W        W25684  20.181  11.755   0.892
64396W        W25685  37.852  21.629  12.519
64397W        W25686  18.232  15.210  14.010
64398W        W25687  27.010  39.863  11.109
64399W        W25688  20.270  28.181  14.381
64400W        W25689  10.144  25.966  14.329
64401W        W25690  29.999  39.493   4.827
64402W        W25691  42.794   3.286   3.848
64403W        W25692  13.219  34.056   9.482
64404W        W25693  11.737  36.963   1.734
64405W        W25694  43.391  25.194   1.327
64406W        W25695   1.791  34.901   2.264
64407W        W25696  17.734  22.680  13.973
64408W        W25697  39.373  39.453   0.387
64409W        W25698  20.060  35.516   0.437
64410W        W25699  26.544  32.055  13.811
64411W        W25700   3.445  32.900  10.520
64412W        W25701   7.879  12.764   3.758
64413W        W25702  38.931   1.347  10.609
64414W        W25703  22.167   5.424  12.399
64415W        W25704   6.279  35.371   0.403
64416W        W25705  43.934  35.438   4.768
64417W        W25706  43.924  44.264   3.242
64418W        W25707  41.460  28.550  11.491
64419W        W25708  22.049  19.680   4.167
64420W        W25709  40.838   0.784   2.867
64421W        W25710  39.387  32.952  14.494
64422W        W25711  42.347  18.280   3.352
64423W        W25712  28.466  24.217   3.709
64424W        W25713   2.759   6.707  12.010
64425W        W25714  35.482  23.728   4.288
64426W        W25715   6.405   6.202   1.882
64427W        W25716  23.108  31.493  12.564
64428W        W25717   3.461  43.324   3.160
64429W        W25718  35.408  35.865  12.898
64430W        W25719  42.344  18.173  14.823
64431W        W25720  43.824  30.011  14.388
64432W        W25721  43.018  33.950   3.800
64433W        W25722  38.337  14.721  13.484
64434W        W25723  26.081   5.694  12.880
64435W        W25724  37.519  39.479  13.473
64436W        W25725  28.021   0.987  11.586
64437W        W25726  26.499   9.784  12.350
64438W        W25727   0.251  23.512   1.841
64439W        W25728   5.374  32.554   1.288
64440W        W25729  13.153   9.285   1.413
64441W        W25730  19.263  29.484   4.248
64442W        W25731  12.801  30.037   1.413
64443W        W25732  35.601  24.112   0.943
64444W        W25733  40.895  22.671  12.060
64445W        W25734  24.125  40.456   5.111
64446W        W25735  35.915  11.754   0.797
64447W        W25736  27.657  23.146   3.790
64448W        W25737  36.438  20.145   2.695
64449W        W25738   8.399  23.583  14.789
64450W        W25739  41.801  41.997   3.808
64451W        W25740  31.949  13.612   0.859
64452W        W25741  31.615   0.986   9.561
64453W        W25742  43.885  43.927   3.247
64454W        W25743   8.302   3.796   1.696
64455W        W25744  25.160  11.356   5.245
64456W        W25745   3.234  25.118  11.113
64457W        W25746  30.646  38.468  12.919
64458W        W25747  17.199  29.616  13.928
64459W        W25748  25.525  43.848  11.046
64460W        W25749   6.691   1.972  13.860
64461W        W25750   9.171  10.673   3.764
64462W        W25751  15.169  39.054  11.976
64463W        W25752  23.999  31.531   4.695
64464W        W25753   9.244  18.223   4.229
64465W        W25754  12.802  20.094   1.854
64466W        W25755   5.931  17.614  14.406
64467W        W25756  29.473   3.240   3.678
64468W        W25757  23.721  35.391   2.812
64469W        W25758  41.831  19.550   2.738
64470W        W25759  38.854   6.736  12.438
64471W        W25760  44.839  21.676  10.595
64472W        W25761  15.620  42.995  13.492
64473W        W25762  41.320   9.181  12.061
64474W        W25763  17.288  33.617   2.191
64475W        W25764  30.642  17.186   1.760
64476W        W25765  15.185  28.659  10.971
64477W        W25766   9.737  34.881   4.162
64478W        W25767   1.898  19.770   4.678
64479W        W25768  32.527  29.454   4.725
64480W        W25769  41.432  40.822  12.470
64481W        W25770   2.362   1.317   0.774
64482W        W25771  29.946  26.087   3.339
64483W        W25772  24.214   4.279  10.511
64484W        W25773  15.141  41.933  10.566
64485W        W25774  14.253  21.030   1.325
64486W        W25775  22.033   0.248  12.564
64487W        W25776   8.260   1.477   2.750
64488W        W25777   6.348  20.221  10.972
64489W        W25778  28.058  37.998  14.987
64490W        W25779  27.515   0.755   1.249
64491W        W25780   9.682  17.665   0.469
64492W        W25781  37.928  14.709   3.171
64493W        W25782  41.915  29.990  11.611
64494W        W25783  37.877  27.039   3.275
64495W        W25784  20.204  38.901   4.289
64496W        W25785  30.141  14.784   4.243
64497W        W25786  14.278   9.651   2.684
64498W        W25787  39.918  31.022  11.478
64499W        W25788  11.197  40.982  14.008
64500W        W25789  15.287  26.550   3.798
64501W        W25790   1.970  27.687  11.048
64502W        W25791  34.939  13.793   2.203
64503W        W25792  40.834  29.963  10.911
64504W        W25793   6.367  10.802  11.070
64505W        W25794  24.029  29.155  14.387
64506W        W25795   5.410  19.613  11.055
64507W        W25796  27.614  14.120  13.347
64508W        W25797  34.561  18.570  12.050
64509W        W25798  35.950   7.270   1.870
64510W        W25799  29.619  28.603   0.255
64511W        W25800   1.920  10.708   4.259
64512W        W25801  23.658  13.282  13.317
64513W        W25802  39.995  26.542  10.502
64514W        W25803  24.590   6.703  10.511
64515W        W25804  26.012  41.022  10.546
64516W        W25805   6.278  29.171   4.837
64517W        W25806  11.826  20.729   1.247
64518W        W25807   2.877  27.985   3.693
64519W        W25808   3.768  42.814   4.180
64520W        W25809  22.660  39.845   1.802
64521W        W25810  28.445   8.873   1.706
64522W        W25811  15.758  25.690   2.408
64523W        W25812  14.176  20.539   5.706
64524W        W25813  23.662  30.525  13.873
64525W        W25814   9.667  29.921  13.330
64526W        W25815   6.805  33.487   1.719
64527W        W25816  33.445   8.693   0.324
64528W        W25817   0.371  37.465  14.421
64529W        W25818   4.831  29.951  11.564
64530W        W25819  35.995   0.377  12.470
64531W        W25820  42.344  25.503   4.143
64532W        W25821   7.721  16.167   1.721
64533W        W25822  39.878  23.984  14.764
64534W        W25823  29.028  34.013  14.455
64535W        W25824  24.228  38.327  14.008
64536W        W25825  24.185   8.821  13.338
64537W        W25826  29.983   7.741   2.688
64538W        W25827   7.387  44.826  13.891
64539W        W25828  22.671  33.944   4.167
64540W        W25829  11.246  12.771   2.847
64541W        W25830  22.079  28.645   1.784
64542W        W25831  33.884  23.716   4.137
64543W        W25832  42.379   5.800  14.895
64544W        W25833  24.073  10.721  11.398
64545W        W25834   7.182  15.216   0.802
64546W        W25835  31.141  28.573   4.677
64547W        W25836  16.672  39.511   0.464
64548W        W25837   2.358  22.234  14.830
64549W        W25838  31.009  39.343  13.395
64550W        W25839  38.537  39.928  12.055
64551W        W25840  32.457  27.575   2.212
64552W        W25841  30.539  43.272  13.860
64553W        W25842  18.565  41.480   0.279
64554W        W25843  35.873   8.270   0.277
64555W        W25844   4.322   5.395   1.386
64556W        W25845   2.931   4.350  14.865
64557W        W25846  37.839  24.712  13.880
64558W        W25847  27.181  29.132  12.991
64559W        W25848  39.496  24.573  11.506
64560W        W25849  28.654  31.141   1.297
64561W        W25850  14.717   7.903  13.044
64562W        W25851  15.158  27.534  12.419
64563W        W25852  25.974  35.014  14.787
64564W        W25853  25.048  35.939   2.307
64565W        W25854  12.753  26.621  11.575
64566W        W25855   7.268   9.379   4.662
64567W        W25856  17.066  38.909  12.505
64568W        W25857   2.268  35.072   2.790
64569W        W25858  25.080  42.517   4.277
64570W        W25859   7.875   1.265  11.920
64571W        W25860   6.699  33.620   4.672
64572W        W25861   6.699  32.608   9.597
64573W        W25862  25.524  24.507  10.992
64574W        W25863  41.354   9.783  14.982
64575W        W25864   3.305  12.223  12.576
64576W        W25865  39.403  19.700   5.096
64577W        W25866  22.729  10.848  14.356
64578W        W25867  43.336  44.273   1.791
64579W        W25868  34.506  23.620  13.536
64580W        W25869  36.080  42.909   2.666
64581W        W25870  25.569  10.862  14.404
64582W        W25871  14.242  26.005   3.787
64583W        W25872   1.869   0.852  11.488
64584W        W25873  36.026  21.535  12.081
64585W        W25874   6.283  25.995  11.383
64586W        W25875  26.509  35.998  13.042
64587W        W25876  28.994  10.724  14.470
64588W        W25877  40.327   9.723   0.967
64589W        W25878   0.345  29.170   0.442
64590W        W25879  34.967  34.901   4.609
64591W        W25880  24.661   5.375  11.473
64592W        W25881  13.258   6.414  10.442
64593W        W25882   0.977   1.241  13.998
64594W        W25883  25.701  24.516   4.143
64595W        W25884  13.803   1.894   4.804
64596W        W25885   6.182  13.172   1.844
64597W        W25886  19.160   4.229   2.350
64598W        W25887  20.093  12.661   3.282
64599W        W25888  16.208  34.931  11.870
64600W        W25889  44.421  18.068   0.256
64601W        W25890  13.721  40.851  12.027
64602W        W25891   7.674  11.227  14.920
64603W        W25892   9.835  34.943  14.366
64604W        W25893  27.566  24.697   4.773
64605W        W25894  34.378  39.037  11.115
64606W        W25895  11.177  21.132   3.287
64607W        W25896  21.086   1.764   4.740
64608W        W25897  13.174  36.020   2.290
64609W        W25898   2.937   5.371   3.783
64610W        W25899  36.870  25.607   2.838
64611W        W25900  11.788   7.729   4.621
64612W        W25901   0.823  43.513   4.200
64613W        W25902   7.905  38.903   4.272
64614W        W25903  40.797  41.417  14.973
64615W        W25904  36.909   1.441  12.053
64616W        W25905  12.319  33.498  12.860
64617W        W25906  17.161   3.230  11.429
64618W        W25907  37.573  23.078   4.789
64619W        W25908  14.240  41.940  11.593
64620W        W25909  23.609   2.907   4.734
64621W        W25910  31.917  15.628   4.243
64622W        W25911  42.816  27.627   1.393
64623W        W25912  16.256   5.347   2.389
64624W        W25913  24.724  44.775   4.649
64625W        W25914   6.275   6.758  14.863
64626W        W25915  23.501  23.612   2.707
64627W        W25916  29.061  28.987  11.987
64628W        W25917  24.641  35.012   1.374
64629W        W25918  23.190  30.463  13.505
64630W        W25919  10.339  14.269  13.351
64631W        W25920  22.576  13.645   4.668
64632W        W25921   1.421  44.948  10.413
64633W        W25922   7.693  25.212  12.981
64634W        W25923  10.814  27.176  13.373
64635W        W25924   7.839  14.596   0.830
64636W        W25925  44.832   7.229   0.413
64637W        W25926  43.898  29.637   0.739
64638W        W25927  16.285  33.015   1.704
64639W        W25928  18.602  30.078   3.703
64640W        W25929  23.735  11.231  12.912
64641W        W25930  16.098  31.600  12.979
64642W        W25931  36.470   8.350   4.303
64643W        W25932  23.026  19.564  11.062
64644W        W25933  12.201  11.699   0.438
64645W        W25934  38.976   3.767   3.670
64646W        W25935   1.315   9.343  11.387
64647W        W25936  30.000  24.647   0.839
64648W        W25937  26.173  29.480   2.714
64649W        W25938  29.116   9.883   4.161
64650W        W25939   6.826   0.857  10.571
64651W        W25940  43.939   6.779   4.166
64652W        W25941  42.897  10.689   4.197
64653W        W25942   3.773  20.532  11.902
64654W        W25943  14.765  19.556  11.062
64655W        W25944  38.895  19.548  11.388
64656W        W25945  26.090   8.783   1.410
64657W        W25946  24.544  38.881  12.493
64658W        W25947  22.061  27.054   2.718
64659W        W25948  40.471   7.402   2.321
64660W        W25949  42.822  16.709   1.227
64661W        W25950  30.911  13.264  14.300
64662W        W25951  35.485  11.796   1.851
64663W        W25952   0.963  32.937   2.365
64664W        W25953  13.655  23.558   0.364
64665W        W25954  21.070  22.669  11.962
64666W        W25955  23.158   8.247   4.772
64667W        W25956   4.230   1.752   4.239
64668W        W25957   1.814  28.445   1.225
64669W        W25958  22.698  36.993   2.673
64670W        W25959   3.295   3.777  10.953
64671W        W25960  15.711  44.285  13.916
64672W        W25961  33.999  10.167   3.155
64673W        W25962   2.855  40.980   2.288
64674W        W25963  39.446  39.825   4.224
64675W        W25964   2.752  39.448  13.436
64676W        W25965   8.219  18.758   1.724
64677W        W25966   1.403   4.283  10.510
64678W        W25967  41.839  20.118   4.354
64679W        W25968  33.382   9.299  14.498
64680W        W25969  38.000   5.293  11.912
64681W        W25970  44.924   1.760  11.568
64682W        W25971  35.415  30.515  11.973
64683W        W25972   8.371   5.201   2.378
64684W        W25973   2.860  13.760  11.416
64685W        W25974  43.373  33.560   0.943
64686W        W25975  22.677   4.862   4.195
64687W        W25976  17.625  15.789  14.513
64688W        W25977  31.930  15.115   0.465
64689W        W25978  13.675  11.672   1.220
64690W        W25979  10.863  25.104   4.249
64691W        W25980  17.267  25.049  13.517
64692W        W25981  16.244  11.632   4.145
64693W        W25982  33.982  29.022  10.934
64694W        W25983  41.417  26.029   1.825
64695W        W25984  16.595  25.622  13.379
64696W        W25985   6.357  19.677  12.509
64697W        W25986  10.633  30.908   1.932
64698W        W25987  10.299   8.225  12.349
64699W        W25988  32.494   6.294  13.883
64700W        W25989  35.887  36.392   2.234
64701W        W25990  17.637   0.473   0.333
64702W        W25991   5.267  40.854   1.386
64703W        W25992  20.603  42.472  10.486
64704W        W25993  33.994  43.994   1.251
64705W        W25994  24.218  20.722   4.300
64706W        W25995  28.588  24.608  14.765
64707W        W25996  20.176   8.353  14.279
64708W        W25997  16.107  40.527  14.947
64709W        W25998  16.171   4.718   0.826
64710W        W25999   1.409  31.936  11.057
64711W        W26000  13.608  21.085   1.227
64712W        W26001   7.187  26.017  11.983
64713W        W26002  35.880   8.775   1.271
64714W        W26003  15.579  20.242  11.599
64715W        W26004  15.725  21.732   9.571
64716W        W26005  14.784   0.963   3.353
64717W        W26006  26.590   7.668  12.399
64718W        W26007  42.487  19.639  11.415
64719W        W26008  37.435  39.497   1.771
64720W        W26009  38.011  18.558  12.518
64721W        W26010   8.839  30.057   4.828
64722W        W26011  40.857  20.057   1.737
64723W        W26012  19.664  31.402  12.486
64724W        W26013  41.796  24.994  12.923
64725W        W26014   8.240   5.934  12.437
64726W        W26015  26.149  43.978  13.953
64727W        W26016   5.197  19.085   2.694
64728W        W26017  35.928   4.358  13.010
64729W        W26018  32.427  15.084   0.396
64730W        W26019   8.196  17.160  11.372
64731W        W26020  33.440   1.835   5.312
64732W        W26021   6.382  38.847  14.906
64733W        W26022   7.759  37.432   5.251
64734W        W26023  25.604  31.052  14.780
64735W        W26024  16.318  18.741   3.243
64736W        W26025  43.448   0.321  14.794
64737W        W26026  16.762  42.411   1.839
64738W        W26027  21.626  24.092  14.846
64739W        W26028  18.631  32.597  11.917
64740W        W26029   0.489  39.056   2.353
64741W        W26030  15.580  37.439   2.324
64742W        W26031  36.490  31.914   3.367
64743W        W26032   2.874  35.055  11.603
64744W        W26033   8.336  43.479   4.809
64745W        W26034  29.665  25.116  11.864
64746W        W26035  37.464  39.889   4.213
64747W        W26036  13.295  37.043  12.576
64748W        W26037  18.077  39.980   4.125
64749W        W26038  36.982  21.066   4.724
64750W        W26039  40.041  35.501   2.848
64751W        W26040   3.739   2.740   1.424
64752W        W26041  37.372  36.991   4.326
64753W        W26042  12.279   4.748   3.288
64754W        W26043   8.294  21.584  14.408
64755W        W26044   6.866   3.772  13.998
64756W        W26045   0.973  34.939  14.461
64757W        W26046  10.765  30.454   5.690
64758W        W26047   1.920  13.121  14.357
64759W        W26048  31.557   5.265   3.850
64760W        W26049  14.119   1.377   9.660
64761W        W26050  44.265  32.956  11.938
64762W        W26051   1.961  42.818  14.780
64763W        W26052  38.347  17.733   3.329
64764W        W26053  43.932   5.331  12.952
64765W        W26054   2.730  23.055  12.985
64766W        W26055  17.642  39.977  11.992
64767W        W26056   2.308  43.805   2.311
64768W        W26057  23.113  23.549  11.576
64769W        W26058  39.470  26.660   2.207
64770W        W26059   1.330  31.586  14.324
64771W        W26060  22.546  39.894   0.850
64772W        W26061  14.809  43.399   2.842
64773W        W26062  33.593  29.156  12.044
64774W        W26063   1.387  15.817   1.756
64775W        W26064  11.691  36.539   3.311
64776W        W26065  27.558  10.293   2.211
64777W        W26066  42.485  18.698  11.889
64778W        W26067  12.764  22.129   5.322
64779W        W26068  23.039  22.087  11.524
64780W        W26069  17.110  15.132  11.104
64781W        W26070  25.053  44.937   1.851
64782W        W26071  24.203  22.604  12.536
64783W        W26072  31.566   8.835  11.913
64784W        W26073   6.410  33.129   2.760
64785W        W26074   8.744  39.971  13.447
64786W        W26075   4.225  12.788  13.012
64787W        W26076   9.710  34.983   4.762
64788W        W26077  19.285  22.248   2.240
64789W        W26078  19.124  35.495  13.941
64790W        W26079  11.855  37.534  10.581
64791W        W26080   9.778  20.752   0.386
64792W        W26081  31.933   0.389  10.012
64793W        W26082   9.350  21.673  11.056
64794W        W26083  10.664  35.029   3.259
64795W        W26084   1.934  33.102  12.841
64796W        W26085  26.649  38.001   4.169
64797W        W26086  20.752   3.283   2.335
64798W        W26087  21.700  23.593   0.395
64799W        W26088   5.795   4.787   0.838
64800W        W26089  17.685  31.072   1.441
64801W        W26090  40.522   9.701   4.719
64802W        W26091  25.118  34.478   4.115
64803W        W26092  35.972  37.561   3.822
64804W        W26093  32.043  25.972   3.646
64805W        W26094  26.636  33.588   2.729
64806W        W26095  24.179  35.852   1.861
64807W        W26096   0.873  19.178   2.299
64808W        W26097  16.192   2.425  12.990
64809W        W26098  11.358  15.205  12.964
64810W        W26099  19.277  43.465  12.536
64811W        W26100  40.457  32.121   2.419
64812W        W26101  30.095   5.847  12.088
64813W        W26102   0.452   5.437   3.315
64814W        W26103   7.232  23.541   0.343
64815W        W26104   6.683  13.758  10.952
64816W        W26105   2.764  23.592  14.782
64817W        W26106   7.182  32.408   4.300
64818W        W26107  40.368   1.810   0.339
64819W        W26108   6.792  21.164  12.957
64820W        W26109  14.730  10.280   3.674
64821W        W26110  36.367  34.534   1.224
64822W        W26111   7.665  27.525  13.430
64823W        W26112  36.449  29.487  11.886
64824W        W26113   4.401   0.850   2.373
64825W        W26114   3.728  24.054   9.477
64826W        W26115  14.716   7.302   0.330
64827W        W26116   7.248  37.974  13.060
64828W        W26117  13.605  32.122  13.940
64829W        W26118  36.968  13.226   0.270
64830W        W26119  40.481  41.393   3.381
64831W        W26120  24.652  18.201  13.425
64832W        W26121   2.961   5.371  14.345
64833W        W26122  18.192  18.251  11.549
64834W        W26123  29.594  13.801   1.746
64835W        W26124  17.143  35.445  13.452
64836W        W26125  40.915  13.761  14.430
64837W        W26126  10.732  27.017  10.950
64838W        W26127  16.209  23.195  12.471
64839W        W26128  28.164   5.197   0.937
64840W        W26129  33.566  44.871   2.705
64841W        W26130  22.667  20.582   2.802
64842W        W26131  31.442  37.000   3.797
64843W        W26132  16.264   8.174   1.908
64844W        W26133  31.641   7.708  14.869
64845W        W26134  25.178  15.141   3.368
64846W        W26135  34.085  39.421   0.456
64847W        W26136  18.212  23.526  10.408
64848W        W26137  30.995   9.700   3.712
64849W        W26138   6.380   4.814  11.887
64850W        W26139  14.256  16.706  10.494
64851W        W26140  25.705   9.248   3.729
64852W        W26141  12.326  15.301   4.316
64853W        W26142   1.872  22.690  14.864
64854W        W26143  42.859  18.179   0.729
64855W        W26144  42.407  32.459   2.837
64856W        W26145  10.818  29.950   3.837
64857W        W26146  23.125  15.235  10.528
64858W        W26147   1.963  15.715  12.345
64859W        W26148   2.284  27.662   3.371
64860W        W26149  18.695  31.095  14.384
64861W        W26150  30.920   5.252  13.383
64862W        W26151  36.865   3.244   2.683
64863W        W26152   6.292  12.139   2.888
64864W        W26153  10.302  35.434   5.162
64865W        W26154  41.463   8.864   5.610
64866W        W26155   0.402  43.500   3.226
64867W        W26156  34.051   6.787   2.694
64868W        W26157  36.409  43.872   1.787
64869W        W26158  14.771  39.358   1.215
64870W        W26159  12.255  17.085  12.942
64871W        W26160  18.785  38.944  14.936
64872W        W26161  10.155  12.630   0.288
64873W        W26162  14.829   5.810   1.859
64874W        W26163  27.566  25.644   3.703
64875W        W26164  36.920   2.370  11.897
64876W        W26165  27.646  13.680  13.908
64877W        W26166  36.047  32.004  14.952
64878W        W26167  14.176  44.880   0.826
64879W        W26168  37.336  40.416  13.461
64880W        W26169  44.301  26.963  11.981
64881W        W26170  19.627  15.586  13.972
64882W        W26171  23.189  15.639   3.298
64883W        W26172  39.374  28.164   0.308
64884W        W26173  44.886  40.038   1.435
64885W        W26174   8.884  17.792   3.726
64886W        W26175  26.602  22.025   0.369
64887W        W26176  23.189  13.291  14.864
64888W        W26177  38.001  42.865  11.590
64889W        W26178  43.463   8.318   9.539
64890W        W26179  29.985  38.438   1.423
64891W        W26180   5.773   5.363  12.477
64892W        W26181  36.540  33.541   1.809
64893W        W26182   4.299   7.395  10.619
64894W        W26183  34.978  40.958  14.027
64895W        W26184  36.477  12.748  14.373
64896W        W26185  43.824   8.721  13.976
64897W        W26186  33.517   4.924  14.850
64898W        W26187  41.857   1.895   2.415
64899W        W26188  14.798  30.158   2.894
64900W        W26189  34.485  27.073  12.068
64901W        W26190  18.598  21.606  11.976
64902W        W26191  36.450  42.367  10.405
64903W        W26192   0.290  23.708   1.237
64904W        W26193  11.199  10.375  12.533
64905W        W26194   6.799  40.857  13.796
64906W        W26195  34.969   2.747  12.471
64907W        W26196  29.665  39.909   4.672
64908W        W26197  42.003   8.383  12.443
64909W        W26198  32.922  40.457  11.077
64910W        W26199  36.060  29.534  14.278
64911W        W26200   3.846  30.150  12.476
64912W        W26201  40.888  28.009  11.572
64913W        W26202  34.546  20.741   3.752
64914W        W26203   8.790   3.338  11.467
64915W        W26204  28.082  10.736   0.893
64916W        W26205  10.753  13.688  13.405
64917W        W26206  40.449  16.614   4.331
64918W        W26207  31.648  34.012  13.318
64919W        W26208  26.638  28.952   3.229
64920W        W26209   6.733  23.650  14.317
64921W        W26210  34.615  32.636  14.964
64922W        W26211  34.084  26.532  13.501
64923W        W26212  20.604   5.730  11.372
64924W        W26213  37.415   3.293  11.437
64925W        W26214   6.305  41.983  11.936
64926W        W26215  12.678   4.746  10.126
64927W        W26216  25.106  13.721  11.123
64928W        W26217  35.401  27.115  11.066
64929W        W26218  10.148   7.857  11.952
64930W        W26219  38.329  28.085   2.675
64931W        W26220   4.397  40.474   3.351
64932W        W26221  30.654  42.791  11.997
64933W        W26222  42.988  32.410  14.008
64934W        W26223  26.195  17.224   0.963
64935W        W26224   9.229  37.369  14.030
64936W        W26225  22.054  14.786  10.953
64937W        W26226  11.662  28.102  12.429
64938W        W26227  16.255  22.529  14.806
64939W        W26228  24.600  40.954   1.779
64940W        W26229  37.055  25.556  13.540
64941W        W26230   5.259  25.664  10.143
64942W        W26231  17.772   2.267  13.460
64943W        W26232  12.762  17.721  10.910
64944W        W26233  11.171   0.493  11.399
64945W        W26234  31.922  20.210   5.215
64946W        W26235  15.089  10.760   2.719
64947W        W26236  30.989  32.493   3.200
64948W        W26237  35.519   8.343  14.864
64949W        W26238  32.615  17.675   4.761
64950W        W26239  23.232  35.930  12.481
64951W        W26240  20.535  30.103   2.283
64952W        W26241  32.980  29.464  12.833
64953W        W26242  32.913  11.289  12.044
64954W        W26243  40.994  34.578  12.384
64955W        W26244  23.101  40.894   2.226
64956W        W26245  10.640   1.376   0.744
64957W        W26246  21.060  18.724  12.013
64958W        W26247  39.333  10.710   4.632
64959W        W26248  22.725  13.625  14.439
64960W        W26249  38.451  10.240  13.329
64961W        W26250  22.531   3.737   0.950
64962W        W26251   0.878   0.934  10.480
64963W        W26252  24.579  19.611   0.838
64964W        W26253  20.100  40.820  11.074
64965W        W26254  13.306  21.620   0.782
64966W        W26255   4.425  42.489  13.884
64967W        W26256  34.457  24.996   3.644
64968W        W26257   0.270  13.158   4.294
64969W        W26258  26.095  21.727  12.571
64970W        W26259  23.065  40.951  11.894
64971W        W26260  15.242  42.888  13.959
64972W        W26261  10.347  32.561  14.329
64973W        W26262  38.368   1.406  13.983
64974W        W26263  41.030   9.309  13.908
64975W        W26264   9.709  43.285   4.686
64976W        W26265  41.955   2.916  14.971
64977W        W26266  21.130  15.818  14.837
64978W        W26267  33.040  22.252  14.965
64979W        W26268  37.424  25.996  12.865
64980W        W26269  44.767   6.731  12.976
64981W        W26270   8.806  15.261  11.114
64982W        W26271  38.070  14.216  12.424
64983W        W26272  21.217  13.773  14.818
64984W        W26273  19.687  36.889  11.079
64985W        W26274  24.581   7.324  12.348
64986W        W26275  26.063   1.301   2.359
64987W        W26276   4.218  16.812  14.311
64988W        W26277  34.451  15.619   2.356
64989W        W26278  27.035  24.079  11.896
64990W        W26279  11.295  17.763  10.889
64991W        W26280  15.225  38.013  10.525
64992W        W26281  29.022  22.666   1.407
64993W        W26282   3.936  26.513  14.492
64994W        W26283  40.862   3.361   1.695
64995W        W26284  25.218  24.168   0.332
64996W        W26285  32.535   6.351   1.343
64997W        W26286  33.998  10.308   0.894
64998W        W26287  40.505  11.763   5.133
64999W        W26288  27.636  20.118   2.716
65000W        W26289   5.902  44.006  12.044
65001W        W26290  32.008  41.833   1.929
65002W        W26291   4.937   0.408   0.466
65003W        W26292  41.368  34.113   2.252
65004W        W26293   7.348   3.724  12.084
65005W        W26294  15.809  19.543   5.127
65006W        W26295   4.228   6.813  14.372
65007W        W26296  10.848  30.006   1.906
65008W        W26297  43.799  34.373  12.849
65009W        W26298  20.153  10.719  14.353
65010W        W26299  36.476  16.680  13.979
65011W        W26300  34.118   3.900   5.219
65012W        W26301  32.104   1.482  14.475
65013W        W26302  23.580   8.308   0.476
65014W        W26303  23.061  21.585  10.976
65015W        W26304  12.174  35.406   3.376
65016W        W26305  42.493  14.321   0.770
65017W        W26306   7.713  23.615  12.081
65018W        W26307  29.964  30.110  11.596
65019W        W26308  32.539  36.017  12.004
65020W        W26309  24.613  39.007   0.288
65021W        W26310   5.210   6.300   0.268
65022W        W26311  24.500  38.060   2.316
65023W        W26312   9.377  40.013  12.920
65024W        W26313  15.284  22.707  13.525
65025W        W26314  44.764  28.003  13.445
65026W        W26315  16.669  34.505  13.022
65027W        W26316  13.349  42.818   2.275
65028W        W26317  32.606  12.348  10.892
65029W        W26318  12.656  12.319  11.107
65030W        W26319  33.495  42.999  12.546
65031W        W26320  25.148   8.256   0.934
65032W        W26321  27.591   7.684   5.581
65033W        W26322  12.668  16.705   2.287
65034W        W26323  31.456  12.260  12.536
65035W        W26324  12.800  36.857  13.840
65036W        W26325  28.996  15.749  11.992
65037W        W26326  29.462  20.641   3.352
65038W        W26327   8.383  19.561  12.958
65039W        W26328  17.091   0.926   2.667
65040W        W26329  29.641  39.010   9.929
65041W        W26330  31.594  21.101  12.371
65042W        W26331  38.972   0.742  14.381
65043W        W26332  28.984  28.136  13.052
65044W        W26333   7.222  43.894   4.647
65045W        W26334  43.898  39.445  10.630
65046W        W26335  15.686  43.011   3.373
65047W        W26336  19.192  42.995  10.641
65048W        W26337  40.403   0.870   4.696
65049W        W26338  11.297  21.095   4.337
65050W        W26339  11.718  21.196  12.915
65051W        W26340  10.221  30.535   1.348
65052W        W26341  35.505   6.746  14.484
65053W        W26342   2.236   5.824  10.550
65054W        W26343  17.196  16.716   4.324
65055W        W26344   7.352  25.702  12.993
65056W        W26345  19.541   8.850   3.273
65057W        W26346   5.904  29.430   3.805
65058W        W26347   0.804  41.318   1.926
65059W        W26348   0.367  34.413   0.790
65060W        W26349  30.566  26.621   2.403
65061W        W26350  36.846   1.786   4.796
65062W        W26351  42.447  14.667   0.447
65063W        W26352   3.387  18.148   1.757
65064W        W26353  30.419   3.955  12.898
65065W        W26354  40.444  24.098   3.869
65066W        W26355  14.159  13.236   0.433
65067W        W26356   5.249  15.810   0.791
65068W        W26357  42.801   5.217   0.952
65069W        W26358   5.805  36.866   2.356
65070W        W26359  17.268   1.868   4.136
65071W        W26360   4.782  18.085  14.378
65072W        W26361   7.239   5.750   2.830
65073W        W26362  26.663  31.462  11.572
65074W        W26363   9.849  21.171  12.841
65075W        W26364   0.248  17.642   1.218
65076W        W26365  15.210  23.498  10.125
65077W        W26366   1.396  28.506  11.591
65078W        W26367  44.298  34.579  11.009
65079W        W26368  44.355   4.848   3.215
65080W        W26369  39.538  16.110  11.581
65081W        W26370  24.209  29.611   3.761
65082W        W26371  13.236   3.859   1.747
65083W        W26372  32.027  30.652  14.398
65084W        W26373  40.491   2.375   4.171
65085W        W26374  11.630  21.511   0.811
65086W        W26375  31.007  41.479   4.166
65087W        W26376  11.683   4.858   5.125
65088W        W26377  44.970  19.773  14.408
65089W        W26378   7.711  27.045  13.859
65090W        W26379  36.444  38.912   3.278
65091W        W26380  22.701  17.177   2.795
65092W        W26381   9.653  18.593  10.629
65093W        W26382  39.868  29.446   0.251
65094W        W26383   9.151  29.919   0.862
65095W        W26384  28.092  41.317  13.871
65096W        W26385  20.768  20.220   1.774
65097W        W26386   7.173  33.382  14.340
65098W        W26387  37.543  43.007   1.219
65099W        W26388   0.829   8.350  11.532
65100W        W26389  24.697  29.446  11.594
65101W        W26390   4.294  16.114   2.283
65102W        W26391  30.998   6.224  11.095
65103W        W26392  26.029  37.402   1.382
65104W        W26393  15.131  31.418  12.006
65105W        W26394  29.512  23.528   0.409
65106W        W26395  35.481  26.121  12.470
65107W        W26396  13.631  24.639   1.835
65108W        W26397   1.964  21.568   3.652
65109W        W26398  16.075  10.152  12.028
65110W        W26399  29.543  25.214   2.707
65111W        W26400  40.436   1.833  10.460
65112W        W26401  21.084   8.338   2.837
65113W        W26402  44.326   8.328  10.906
65114W        W26403  44.426  42.916  14.489
65115W        W26404  23.230  37.553  14.980
65116W        W26405  15.297   2.402   4.744
65117W        W26406  33.597  39.314  12.009
65118W        W26407   3.329  10.760   1.877
65119W        W26408  37.902  42.384  12.472
65120W        W26409  12.253  38.019   3.235
65121W        W26410  29.620   0.768   0.771
65122W        W26411  10.857  10.786  11.553
65123W        W26412  24.513  17.557   2.844
65124W        W26413  19.754  19.655  10.953
65125W        W26414  15.716  18.200  12.983
65126W        W26415  22.195  18.643   4.183
65127W        W26416  36.928  44.954   4.602
65128W        W26417  26.025  19.632  11.996
65129W        W26418  18.170  12.714  10.894
65130W        W26419   1.976   7.182  14.493
65131W        W26420  15.248  43.931  12.864
65132W        W26421   9.698  13.324  14.507
65133W        W26422  18.127  43.450   0.759
65134W        W26423   6.218   3.426  12.013
65135W        W26424  13.162  38.566   2.669
65136W        W26425  28.510  41.909  14.925
65137W        W26426  16.717  28.007  14.377
65138W        W26427  11.147   7.733  14.792
65139W        W26428  41.959  14.803  10.638
65140W        W26429  20.074  14.644   2.397
65141W        W26430  29.641  34.558   2.236
65142W        W26431  42.469  13.279  10.984
65143W        W26432   3.351   0.774   2.233
65144W        W26433  18.609  30.981  10.502
65145W        W26434  18.772  35.919  13.852
65146W        W26435   9.675   5.860   2.710
65147W        W26436   7.771  28.937  11.983
65148W        W26437  37.059  38.911   1.856
65149W        W26438  44.378   9.335   2.697
65150W        W26439   9.839   9.231  11.392
65151W        W26440  12.835  44.874   3.815
65152W        W26441  13.632   3.438   2.380
65153W        W26442  41.933  44.792  13.436
65154W        W26443   3.905  25.517   3.315
65155W        W26444  19.231  31.127  10.907
65156W        W26445  11.242   3.779  13.313
65157W        W26446  28.970   2.873  11.061
65158W        W26447  39.424  42.422   4.148
65159W        W26448  22.998   6.824  11.597
65160W        W26449  42.015  44.432   1.355
65161W        W26450  20.244  10.204  14.911
65162W        W26451  29.134  38.442  12.902
65163W        W26452  20.131  34.949  14.395
65164W        W26453   4.859  16.162  14.401
65165W        W26454  43.388  18.684   0.419
65166W        W26455  25.613  18.716  11.103
65167W        W26456   9.874  18.662   3.860
65168W        W26457  31.531  39.474   3.354
65169W        W26458   8.699  21.184   3.798
65170W        W26459  19.656   9.882   0.739
65171W        W26460  12.742  12.640  14.374
65172W        W26461  34.460  39.018   2.822
65173W        W26462  19.755  19.282  10.920
65174W        W26463  30.537  42.801   2.263
65175W        W26464  21.524  38.873  13.012
65176W        W26465  27.557  44.986  12.039
65177W        W26466  27.523  28.618   2.781
65178W        W26467  38.383  18.135   0.843
65179W        W26468  21.623  33.944  13.836
65180W        W26469   4.822  38.952  12.506
65181W        W26470  15.651  24.649   4.242
65182W        W26471  26.472  29.923   0.872
65183W        W26472  31.921  30.963   4.673
65184W        W26473  36.499  14.288  12.090
65185W        W26474  42.944  25.152   3.662
65186W        W26475  44.477  14.143   4.779
65187W        W26476  32.626  30.025  13.985
65188W        W26477  41.401  37.015   4.243
65189W        W26478  18.600  33.399   0.312
65190W        W26479  29.172  40.896   3.262
65191W        W26480  11.297   8.846   2.229
65192W        W26481  40.999   5.283  13.048
65193W        W26482  29.057  15.245   1.806
65194W        W26483  26.084  14.778  10.959
65195W        W26484   9.780   6.425  14.324
65196W        W26485   5.431  37.865   2.262
65197W        W26486  44.262  32.619   1.915
65198W        W26487   5.801  33.620   3.816
65199W        W26488   2.278  11.317  13.976
65200W        W26489  33.418  41.790   4.784
65201W        W26490  14.769  31.951  14.895
65202W        W26491  30.531  15.147   1.782
65203W        W26492  38.016  32.054   4.745
65204W        W26493  35.981   9.854  11.036
65205W        W26494  18.200  40.444   0.817
65206W        W26495  28.165  27.652   0.295
65207W        W26496  34.974  37.580  13.824
65208W        W26497   6.743  28.078   2.669
65209W        W26498  44.793   5.326   1.723
65210W        W26499  15.105  38.393   4.329
65211W        W26500  32.067  36.866  13.944
65212W        W26501  15.713  33.055  12.465
65213W        W26502   4.765  26.575   3.250
65214W        W26503   3.380  28.128   2.418
65215W        W26504  28.534  34.065  14.925
65216W        W26505  41.821   6.290  11.545
65217W        W26506  33.428   7.813   2.274
65218W        W26507   7.227  32.555  12.360
65219W        W26508  12.170   4.745   1.218
65220W        W26509  36.479   3.839   4.776
65221W        W26510  25.570  36.063  14.342
65222W        W26511  22.617   2.760   3.300
65223W        W26512   3.761   0.493  14.950
65224W        W26513  13.743   7.717   2.863
65225W        W26514  18.696  37.459   0.357
65226W        W26515  40.917  44.813  11.436
65227W        W26516  39.988  34.927  11.119
65228W        W26517  44.414  10.801  11.456
65229W        W26518  39.840  31.150   2.372
65230W        W26519  44.414  39.355   0.412
65231W        W26520  26.582  15.586  12.509
65232W        W26521  30.512  29.531   3.827
65233W        W26522  10.328  22.027  13.460
65234W        W26523  27.638  26.108  10.512
65235W        W26524  18.603  18.266  11.439
65236W        W26525  38.519  31.031   4.651
65237W        W26526   3.935  26.962  12.991
65238W        W26527  32.131  25.182   0.412
65239W        W26528   9.391  10.297   2.834
65240W        W26529  39.990  43.826   1.384
65241W        W26530  40.842  32.925   0.363
65242W        W26531  18.291  37.924  10.617
65243W        W26532  18.770  28.520   0.476
65244W        W26533  12.221   8.195  13.329
65245W        W26534   9.820   6.833  11.383
65246W        W26535  13.108  18.751  12.435
65247W        W26536  34.109  24.131  11.486
65248W        W26537  27.455  13.781  13.033
65249W        W26538  16.143   0.342   3.349
65250W        W26539  33.104  26.951   0.794
65251W        W26540  18.172  30.629  13.851
65252W        W26541  34.895  31.147  10.507
65253W        W26542  17.212   7.302   0.256
65254W        W26543  15.275  38.902  14.000
65255W        W26544   3.446  37.914   3.263
65256W        W26545   0.337  41.389   4.797
65257W        W26546  20.199  36.883  13.347
65258W        W26547  38.544  13.751   3.343
65259W        W26548  21.078  19.706   4.209
65260W        W26549  24.643  15.651  14.986
65261W        W26550  35.468   9.229  12.909
65262W        W26551  35.502  40.501  11.379
65263W        W26552  37.064  34.079  10.638
65264W        W26553  28.969  14.112   0.275
65265W        W26554   6.400  39.386  10.941
65266W        W26555  34.026  22.995   4.297
65267W        W26556  13.681  19.207  12.417
65268W        W26557  25.177  36.363  12.033
65269W        W26558  18.112  36.549   2.201
65270W        W26559  18.123  35.563  13.324
65271W        W26560  36.848  16.165  13.861
65272W        W26561  11.328  12.837  12.435
65273W        W26562   2.961  43.944  12.370
65274W        W26563  19.567  38.992  14.516
65275W        W26564  26.625  41.397  10.566
65276W        W26565  23.680  27.139  11.512
65277W        W26566  40.468  36.865  13.530
65278W        W26567   7.906  10.215  12.888
65279W        W26568  24.983  22.527  11.884
65280W        W26569  30.536  38.885  10.451
65281W        W26570  21.756  22.250   1.718
65282W        W26571  12.778   0.967   1.245
65283W        W26572  36.583  11.163  11.943
65284W        W26573  15.775  30.442  10.961
65285W        W26574  32.590   1.287   0.914
65286W        W26575   5.719  42.355   2.183
65287W        W26576  44.261  17.642  14.929
65288W        W26577   4.785  38.972  10.124
65289W        W26578  35.891   6.825   4.347
65290W        W26579  36.951  33.980   2.835
65291W        W26580  43.387  35.078  11.989
65292W        W26581  28.468   0.762   1.890
65293W        W26582  17.577   6.904   0.270
65294W        W26583  10.138  15.241   0.798
65295W        W26584  16.117  14.327  10.614
65296W        W26585  11.820  19.575  13.317
65297W        W26586  26.479  34.430  13.399
65298W        W26587  23.175  17.710  10.505
65299W        W26588  32.462   2.838  10.072
65300W        W26589  19.664  14.319  13.314
65301W        W26590   9.816   5.244  10.895
65302W        W26591  37.541  11.785   4.687
65303W        W26592  17.673  19.047  10.959
65304W        W26593   1.906  41.456  11.861
65305W        W26594  29.143  28.087   4.330
65306W        W26595  44.420  13.227   5.168
65307W        W26596  23.013  43.374  12.465
65308W        W26597  35.517  39.929   3.180
65309W        W26598   7.853  40.899   3.860
65310W        W26599   5.380   8.252   0.863
65311W        W26600  39.971   9.276   0.347
65312W        W26601  43.459   1.738   3.308
65313W        W26602  32.049  35.454   2.347
65314W        W26603   7.875   2.419  14.930
65315W        W26604  42.425  35.470   0.328
65316W        W26605  20.644  27.492  13.474
65317W        W26606  17.575  28.578  12.350
65318W        W26607  44.346  32.599  10.892
65319W        W26608  23.683   9.666   4.764
65320W        W26609  10.186  27.579   4.765
65321W        W26610   6.919   0.892  13.486
65322W        W26611  19.249  23.071   4.165
65323W        W26612  25.576  36.842  13.957
65324W        W26613  16.748  39.010   4.342
65325W        W26614  31.986  23.102  11.551
65326W        W26615  18.764  11.707   4.752
65327W        W26616  22.551  43.323  10.616
65328W        W26617  12.209  36.908   2.208
65329W        W26618  12.819  19.120  11.891
65330W        W26619  18.114   7.748  12.565
65331W        W26620   7.228  23.002  12.876
65332W        W26621  28.974  40.956   1.415
65333W        W26622  44.886   4.780   3.795
65334W        W26623  36.056  16.216   0.465
65335W        W26624  30.083   2.952  11.603
65336W        W26625   0.267   7.371   3.371
65337W        W26626  20.575  32.489   1.876
65338W        W26627  20.685   3.241  11.871
65339W        W26628  27.661  35.930  14.928
65340W        W26629  20.746  39.956  10.406
65341W        W26630  22.720  13.278  13.980
65342W        W26631   9.313  35.602   0.374
65343W        W26632  36.877  33.615   1.247
65344W        W26633   9.181  20.676   4.224
65345W        W26634   9.391   9.877  12.082
65346W        W26635   7.764  39.813   2.289
65347W        W26636   3.864   2.950  12.474
65348W        W26637   0.416  11.665   1.417
65349W        W26638  28.147  16.215  11.984
65350W        W26639  26.533  18.752  11.992
65351W        W26640  37.367  11.844  11.065
65352W        W26641  44.410   5.688   4.610
65353W        W26642   7.311  17.190   2.812
65354W        W26643  30.465  23.528   1.904
65355W        W26644  43.785  18.165   0.362
65356W        W26645  29.008   2.794   0.959
65357W        W26646  13.626  20.268  11.450
65358W        W26647  39.041  21.699   5.757
65359W        W26648   6.182  21.217  14.783
65360W        W26649  21.031  34.399   3.866
65361W        W26650  12.215  21.157   5.164
65362W        W26651  14.700  33.516   2.217
65363W        W26652  33.989  25.181   4.298
65364W        W26653  37.086  16.115   1.396
65365W        W26654  41.303  34.565  12.021
65366W        W26655  25.714  38.480  11.474
65367W        W26656  24.039  41.920  14.397
65368W        W26657  32.539  43.840  14.790
65369W        W26658  31.472  22.629  13.048
65370W        W26659  13.344  27.136   2.391
65371W        W26660  22.502  12.126   3.687
65372W        W26661  25.156  14.281  14.338
65373W        W26662  11.683   7.380  11.489
65374W        W26663   4.810   7.675   0.298
65375W        W26664  13.112  15.598   4.325
65376W        W26665   0.427  15.235   0.290
65377W        W26666   9.149  13.702  11.015
65378W        W26667  27.473  31.961   1.923
65379W        W26668  35.088  27.140   3.745
65380W        W26669  27.510  13.244  10.451
65381W        W26670  15.702  38.515  13.341
65382W        W26671   8.303  30.624   9.932
65383W        W26672  21.135  23.987  10.092
65384W        W26673  15.210  39.922   1.302
65385W        W26674  33.933  36.964   4.750
65386W        W26675  31.426  42.987  10.064
65387W        W26676   6.266  44.275   0.400
65388W        W26677  15.602  29.113   4.250
65389W        W26678  25.703  21.682   3.324
65390W        W26679  36.399  23.571  12.545
65391W        W26680   9.274  21.730   3.722
65392W        W26681  22.123  13.135  11.504
65393W        W26682   8.310  35.488   3.234
65394W        W26683  39.877  35.982   2.774
65395W        W26684   1.898   4.399   0.371
65396W        W26685  15.822  28.555   1.934
65397W        W26686  37.575   2.880  11.430
65398W        W26687  38.072   2.831  13.308
65399W        W26688  33.928   0.330  12.503
65400W        W26689   4.784  13.804  10.120
65401W        W26690  13.203  43.797   1.318
65402W        W26691  35.551   7.324   0.429
65403W        W26692  21.130   0.445   2.867
65404W        W26693  25.568  26.608  10.531
65405W        W26694  32.012  42.020   2.326
65406W        W26695  27.602  29.633  13.817
65407W        W26696  42.946  15.085  11.586
65408W        W26697  37.861  32.938  12.077
65409W        W26698  37.075  27.506   3.200
65410W        W26699  44.392  14.148   0.859
65411W        W26700  15.299  13.697  13.412
65412W        W26701   2.795  35.109  14.814
65413W        W26702   6.676  35.928   0.276
65414W        W26703  34.368  25.970  10.466
65415W        W26704  23.001  33.976   3.847
65416W        W26705  38.842  36.970   0.366
65417W        W26706  26.012  13.825  11.563
65418W        W26707  10.362  37.538  10.597
65419W        W26708  27.962   5.255  11.606
65420W        W26709   8.863  35.391  12.913
65421W        W26710   2.316  40.483   4.712
65422W        W26711   6.851   2.310   3.655
65423W        W26712  40.027  11.146  13.500
65424W        W26713  32.522   5.717  12.931
65425W        W26714   8.845  42.887   4.662
65426W        W26715  16.666  18.602  11.122
65427W        W26716  36.924   7.197   4.654
65428W        W26717  33.002   0.490  14.897
65429W        W26718   4.211   7.902  10.634
65430W        W26719   6.377   8.281   3.784
65431W        W26720  21.113  25.484  11.570
65432W        W26721  11.289  28.447   4.738
65433W        W26722  36.065  30.046  12.967
65434W        W26723  28.105   0.325  11.008
65435W        W26724  31.437   9.877  11.036
65436W        W26725  10.241  27.980  12.504
65437W        W26726  18.561  10.871   3.681
65438W        W26727  12.832  13.129  10.514
65439W        W26728  23.670   8.370   4.300
65440W        W26729  15.203  11.650  14.430
65441W        W26730   2.904   4.329   1.912
65442W        W26731   0.307   8.689   5.613
65443W        W26732  21.066  28.019  10.608
65444W        W26733  26.632  23.227  12.065
65445W        W26734  17.754  10.378   4.307
65446W        W26735  42.319  30.932  11.515
65447W        W26736  42.848  21.132   4.277
65448W        W26737  37.415   4.385   0.480
65449W        W26738   9.855  23.998  10.467
65450W        W26739  44.299  38.562  11.548
65451W        W26740  26.125  17.098  13.466
65452W        W26741  24.106  33.082   2.678
65453W        W26742  29.426  44.431  11.609
65454W        W26743  25.085  15.707  10.897
65455W        W26744  18.163   9.765  11.014
65456W        W26745  12.319  42.907  10.438
65457W        W26746  21.637  24.518  12.893
65458W        W26747  20.687  17.674  11.037
65459W        W26748  22.613  29.536  12.383
65460W        W26749  36.952   5.721   0.808
65461W        W26750  23.064  43.484  12.060
65462W        W26751  28.951   1.930   0.841
65463W        W26752  27.671  27.584  13.823
65464W        W26753  38.393   9.219   3.841
65465W        W26754   5.390  34.020   2.901
65466W        W26755  23.503  43.870  13.792
65467W        W26756  18.645  35.085  14.812
65468W        W26757  40.321   9.324  14.844
65469W        W26758  31.057   8.736  10.953
65470W        W26759  29.585  34.878   3.149
65471W        W26760  36.842  24.019  13.402
65472W        W26761   2.829  22.995   4.345
65473W        W26762  25.501   0.272   3.735
65474W        W26763  28.051  20.754  13.353
65475W        W26764  43.447   4.810   0.363
65476W        W26765  19.565  31.149  14.929
65477W        W26766   7.202  22.078   0.762
65478W        W26767  28.026  12.836  11.979
65479W        W26768  10.743  42.450   2.283
65480W        W26769  24.138  40.893  12.447
65481W        W26770   5.309  34.614   0.856
65482W        W26771  19.725  38.939   5.155
65483W        W26772  34.026  41.870  11.093
65484W        W26773   1.925  27.945   3.239
65485W        W26774  18.278  19.760   3.273
65486W        W26775  26.193  17.705   2.407
65487W        W26776  12.795  22.719  10.640
65488W        W26777  37.466  36.887  13.524
65489W        W26778  34.386   6.782  11.510
65490W        W26779  34.006   9.150  12.994
65491W        W26780  29.149  22.178   4.304
65492W        W26781   7.758  14.120   5.104
65493W        W26782  33.109   6.910   0.391
65494W        W26783  19.631  19.711  12.400
65495W        W26784  10.360  38.412   2.761
65496W        W26785  12.776   2.425   0.357
65497W        W26786  12.851  23.532   1.766
65498W        W26787  38.907  44.979  11.464
65499W        W26788  38.483  33.115   0.248
65500W        W26789   9.743  26.637   0.450
65501W        W26790  39.833  27.054   3.344
65502W        W26791  23.067  39.952   3.638
65503W        W26792  26.047  30.969  10.478
65504W        W26793  14.666  23.134   3.155
65505W        W26794  22.724  19.136  12.454
65506W        W26795  16.764  21.653   0.351
65507W        W26796   5.374  34.492   1.722
65508W        W26797  35.923  12.195   0.415
65509W        W26798  30.012  34.449  14.819
65510W        W26799  40.467  31.066   0.816
65511W        W26800  12.851  32.437  10.926
65512W        W26801  26.206   0.265  10.425
65513W        W26802  13.791  29.015  10.579
65514W        W26803   5.291  35.901  13.416
65515W        W26804   2.437  24.573   4.209
65516W        W26805  13.262  20.570  14.784
65517W        W26806  22.006  39.427   1.935
65518W        W26807   5.755   0.762   3.299
65519W        W26808  35.562  18.748   3.374
65520W        W26809   4.433  33.957  11.879
65521W        W26810   2.466  31.526   0.835
65522W        W26811   2.925  17.695   4.628
65523W        W26812  39.483  32.525  12.494
65524W        W26813  13.727   5.871  12.355
65525W        W26814  22.679   7.183   0.259
65526W        W26815  14.255   3.859  11.996
65527W        W26816   6.842  44.428   4.249
65528W        W26817  44.294  20.163   0.808
65529W        W26818   9.676  44.963  12.984
65530W        W26819  29.511  33.509  13.793
65531W        W26820  25.705   4.389  13.391
65532W        W26821  39.393  23.729  11.514
65533W        W26822  33.939  41.372  14.287
65534W        W26823  20.537  35.363   2.774
65535W        W26824  41.321  14.737   0.445
65536W        W26825  23.551  39.911  12.842
65537W        W26826  16.607  24.041   4.204
65538W        W26827  37.573  35.949  14.970
65539W        W26828  10.355  11.274   2.210
65540W        W26829  18.063  34.874  12.573
65541W        W26830   9.831  10.854  13.034
65542W        W26831  28.544  32.437  14.922
65543W        W26832  38.839  21.021  13.810
65544W        W26833  44.461   6.368   1.238
65545W        W26834  34.991   6.865  13.525
65546W        W26835  21.219  15.595   1.712
65547W        W26836  10.672   5.223  11.426
65548W        W26837  22.098  18.077  13.362
65549W        W26838  41.412   8.171   5.257
65550W        W26839  28.094   5.193  12.999
65551W        W26840  15.221  22.161  14.420
65552W        W26841  42.803  35.031   0.736
65553W        W26842  16.683  27.058   0.953
65554W        W26843  27.061  27.540  13.480
65555W        W26844  17.718   5.852   3.715
65556W        W26845   0.438  12.122  13.827
65557W        W26846  33.525  23.121   4.240
65558W        W26847  20.649  34.380   1.249
65559W        W26848  30.494   0.457  11.917
65560W        W26849  28.181  18.669   3.700
65561W        W26850  21.140  41.903  14.369
65562W        W26851  29.563  30.038   1.409
65563W        W26852  39.522  19.182   0.967
65564W        W26853  39.876  27.563  13.395
65565W        W26854   9.344  15.750  12.054
65566W        W26855  34.437  31.583  11.036
65567W        W26856   9.243  41.972   1.731
65568W        W26857  38.553  30.456  13.484
65569W        W26858  43.481   9.829   0.865
65570W        W26859  24.519  33.881  11.936
65571W        W26860  31.100  30.907   4.634
65572W        W26861  25.003  38.889  14.504
65573W        W26862  15.210  24.224   2.799
65574W        W26863  33.538  37.521   3.871
65575W        W26864  11.819  25.035  13.491
65576W        W26865  14.327  43.910   1.791
65577W        W26866  31.120  43.799   0.851
65578W        W26867  29.668  17.650   0.403
65579W        W26868  18.584  25.209  10.077
65580W        W26869  38.421  22.098  11.519
65581W        W26870   8.364  25.186   1.840
65582W        W26871  11.701  24.035  14.374
65583W        W26872  12.842  11.355   1.309
65584W        W26873   6.198   5.345   2.890
65585W        W26874  29.589  37.039  11.493
65586W        W26875  19.233  27.127   3.300
65587W        W26876  31.645  15.162  11.417
65588W        W26877   7.823   3.749   2.281
65589W        W26878   4.843  38.869   0.457
65590W        W26879  39.916  13.658  12.067
65591W        W26880  12.679   2.789   9.585
65592W        W26881  37.074  15.804  11.916
65593W        W26882  32.616   6.801  14.951
65594W        W26883  40.444   7.876  14.889
65595W        W26884  32.467   0.426  11.875
65596W        W26885  36.485   2.457  12.392
65597W        W26886  44.388  40.834   0.275
65598W        W26887  20.218  19.745   0.274
65599W        W26888  37.528  25.629  12.831
65600W        W26889  23.640  18.072  10.504
65601W        W26890  33.054  29.980   0.741
65602W        W26891  38.417  22.621   4.281
65603W        W26892   3.793  22.154  10.999
65604W        W26893  44.420  13.755  12.893
65605W        W26894  10.700  26.683  14.465
65606W        W26895  42.016  34.424   3.683
65607W        W26896  42.003   0.408   1.295
65608W        W26897  24.595  31.529  11.933
65609W        W26898  12.638   5.761   3.241
65610W        W26899  20.688  18.157  13.365
65611W        W26900  33.072  34.996  10.505
65612W        W26901   0.906  38.557   0.350
65613W        W26902  25.649  25.106  10.469
65614W        W26903  23.044   5.712   1.292
65615W        W26904  43.478  25.979  14.862
65616W        W26905  44.405  41.478   5.187
65617W        W26906  44.374  23.240   0.421
65618W        W26907  30.922  32.124  10.506
65619W        W26908  13.700   3.248   2.822
65620W        W26909   8.369  11.857   3.159
65621W        W26910  23.506  41.816   3.826
65622W        W26911   8.743  26.638  12.347
65623W        W26912  30.421   1.432  10.637
65624W        W26913  41.828  36.852  13.801
65625W        W26914  31.643   1.967  10.159
65626W        W26915  35.936   8.232   2.770
65627W        W26916  16.726  32.994  13.318
65628W        W26917   8.870  26.525   3.266
65629W        W26918  34.872  41.014   0.930
65630W        W26919  33.040  24.652  12.513
65631W        W26920  29.123  21.748   1.244
65632W        W26921  18.544  43.938  11.544
65633W        W26922  28.966  38.347   3.228
65634W        W26923  26.102  14.296   0.469
65635W        W26924   8.286  44.819  14.491
65636W        W26925  21.607  34.519   0.314
65637W        W26926  29.610  37.367   3.651
65638W        W26927   3.227  32.109  12.943
65639W        W26928  28.553   1.788   4.698
65640W        W26929   6.901  19.701  12.871
65641W        W26930  28.002  22.146  10.128
65642W        W26931  31.406  34.028  12.568
65643W        W26932  25.090  27.989  12.921
65644W        W26933  39.886  12.814   3.675
65645W        W26934  24.185  28.533   4.647
65646W        W26935   4.925   9.842   0.418
65647W        W26936  41.476   2.251  13.492
65648W        W26937  28.507   1.476  11.983
65649W        W26938  36.504  31.897   1.242
65650W        W26939  16.309  35.884   2.344
65651W        W26940  38.045  37.368   2.718
65652W        W26941  17.733  31.607  14.884
65653W        W26942  14.264  12.768  12.927
65654W        W26943   6.787  34.597  10.474
65655W        W26944  29.605   7.911  14.997
65656W        W26945  35.443  36.929  11.890
65657W        W26946  27.027  14.681  11.486
65658W        W26947  28.105  18.657   3.187
65659W        W26948  37.512  16.118  13.508
65660W        W26949  40.842  25.554  12.084
65661W        W26950  14.337  35.534  13.390
65662W        W26951  29.996   3.826  14.845
65663W        W26952   3.445   3.843   1.344
65664W        W26953  14.310  18.612   4.724
65665W        W26954  14.819  39.525  14.892
65666W        W26955  32.619  41.317  10.149
65667W        W26956  36.869  39.482  12.389
65668W        W26957  25.072   9.196  12.033
65669W        W26958  31.964  36.944  13.064
65670W        W26959   1.411   1.941   3.779
65671W        W26960  36.411  19.557  11.924
65672W        W26961  41.317   9.212   1.894
65673W        W26962  27.600  35.558   1.240
65674W        W26963  28.098  22.585  12.420
65675W        W26964  21.753   4.215  11.890
65676W        W26965  16.142  25.091   9.618
65677W        W26966   0.493  24.225   3.797
65678W        W26967  19.200  43.906  13.534
65679W        W26968  27.581   4.807   4.746
65680W        W26969  15.304  24.028   3.253
65681W        W26970   4.326  18.654   3.289
65682W        W26971  23.224   6.306  10.931
65683W        W26972   1.868  38.360  12.012
65684W        W26973  43.443  24.513   4.689
65685W        W26974  16.783  25.586   2.405
65686W        W26975  10.266   2.371  11.036
65687W        W26976  37.026  33.917   4.153
65688W        W26977  18.135  37.846   3.268
65689W        W26978  40.899  25.985   4.727
65690W        W26979  37.434   1.238   1.889
65691W        W26980  36.398  42.520  12.051
65692W        W26981  41.464  39.502  13.443
65693W        W26982  28.457  16.224   0.292
65694W        W26983  28.070  28.087   2.788
65695W        W26984  14.782   1.776   1.294
65696W        W26985   0.742  34.951  11.930
65697W        W26986  17.190   4.789  11.501
65698W        W26987  19.226   5.700  13.397
65699W        W26988  31.407  28.063  11.926
65700W        W26989  39.994   1.481  11.399
65701W        W26990   8.262  41.969  12.426
65702W        W26991  32.414  29.472  11.909
65703W        W26992  24.619  30.414  10.420
65704W        W26993  40.895   8.695  10.483
65705W        W26994  42.506  43.514   1.876
65706W        W26995  31.114  33.100  13.386
65707W        W26996  37.435   8.681  11.514
65708W        W26997  20.647  43.400   2.263
65709W        W26998  22.175  24.511   4.283
65710W        W26999  10.170  44.844  11.405
65711W        W27000  37.392   4.725   1.347
65712W        W27001  35.881   3.804  14.451
65713W        W27002  28.014  17.693  11.929
65714W        W27003   9.661  38.545   0.797
65715W        W27004  12.855  41.909  12.881
65716W        W27005   1.732  19.548   2.707
65717W        W27006  27.618  25.618   4.792
65718W        W27007  23.560  27.162  13.367
65719W        W27008  34.470   3.928   1.324
65720W        W27009  36.052   1.404  12.986
65721W        W27010  30.919  42.370   3.194
65722W        W27011  36.910  25.703  11.045
65723W        W27012   5.849   5.275   3.256
65724W        W27013  11.143  31.560   1.738
65725W        W27014   9.357  41.906   0.449
65726W        W27015   3.759  15.605   0.455
65727W        W27016  42.021   4.816  10.083
65728W        W27017  12.354   9.366  11.445
65729W        W27018  43.449   7.301   9.580
65730W        W27019  34.407  15.246   3.271
65731W        W27020  19.591   6.363  11.110
65732W        W27021  12.810  38.993   3.182
65733W        W27022   1.940   7.193   4.674
65734W        W27023  11.634  43.839  11.972
65735W        W27024   5.298  36.867   0.247
65736W        W27025  41.902  38.502  10.465
65737W        W27026  44.989  42.374   3.203
65738W        W27027  20.191  23.991  10.504
65739W        W27028   3.887  10.655  12.352
65740W        W27029  12.665  24.137  13.465
65741W        W27030   3.721   8.218   3.183
65742W        W27031  30.053  21.038  14.948
65743W        W27032  40.013  39.384  10.926
65744W        W27033   4.439   6.281  14.380
65745W        W27034  37.415  44.399   3.296
65746W        W27035  21.075  40.522   1.382
65747W        W27036  38.920   7.263  12.991
65748W        W27037  17.794  31.134  13.804
65749W        W27038  30.567  18.546   4.836
65750W        W27039  41.341  24.161  12.438
65751W        W27040  26.983  34.121  13.852
65752W        W27041  21.218   1.902   4.203
65753W        W27042  20.050  32.611   3.651
65754W        W27043  43.338  12.667   2.322
65755W        W27044  16.280  26.691   4.658
65756W        W27045  22.561  33.467  12.356
65757W        W27046   3.310  15.317  14.901
65758W        W27047  10.652  23.638   4.704
65759W        W27048   0.777  20.620  14.904
65760W        W27049   5.871  39.985  13.405
65761W        W27050  17.148   3.725   1.828
65762W        W27051  18.112  12.271   3.359
65763W        W27052  33.119   8.785  10.487
65764W        W27053  20.236  26.056   3.822
65765W        W27054   3.829  38.506   0.806
65766W        W27055  26.149  13.300   0.813
65767W        W27056  21.746  43.302   4.354
65768W        W27057  16.570  34.041   1.380
65769W        W27058   3.219  24.055  10.913
65770W        W27059  25.545  27.565   3.754
65771W        W27060  44.852  44.504   0.303
65772W        W27061  39.816  44.366  12.386
65773W        W27062  10.312   5.742  12.937
65774W        W27063  11.245  24.678   3.707
65775W        W27064  13.257   3.937  10.888
65776W        W27065   7.380   0.475   0.474
65777W        W27066  41.513  14.781  13.940
65778W        W27067  30.497  30.999  11.435
65779W        W27068  24.535  29.986   3.859
65780W        W27069  12.677  26.568   0.307
65781W        W27070  29.029  17.277   3.363
65782W        W27071  40.418  37.501  12.964
65783W        W27072  35.875   4.914   3.231
65784W        W27073  14.330  26.685   3.756
65785W        W27074  38.539  33.077   1.215
65786W        W27075  33.035  21.650  14.389
65787W        W27076  30.521  40.311  14.959
65788W        W27077  29.595  10.751  13.801
65789W        W27078  44.896  20.055   2.854
65790W        W27079   3.322  41.493  11.066
65791W        W27080  41.960  19.183   1.212
65792W        W27081  33.423  24.668  11.032
65793W        W27082  12.735  25.658   0.891
65794W        W27083  17.163  42.455   3.373
65795W        W27084  41.475  20.239   2.418
65796W        W27085  12.618  41.452   4.762
65797W        W27086  43.302  36.428  12.022
65798W        W27087  30.080  18.559  12.914
65799W        W27088  35.369   1.478  11.437
65800W        W27089  39.948  44.898   4.335
65801W        W27090   5.394  13.701  11.053
65802W        W27091   3.432  22.614  11.021
65803W        W27092  27.565  15.671   4.268
65804W        W27093  30.556  44.847   4.240
65805W        W27094  39.878  34.566  12.899
65806W        W27095  41.327  11.331  13.492
65807W        W27096  32.140  39.047  10.920
65808W        W27097   1.808  10.203  12.883
65809W        W27098  24.043  24.086   3.237
65810W        W27099  29.506  15.690   0.946
65811W        W27100  19.238  17.790  10.596
65812W        W27101   1.459  41.969  14.763
65813W        W27102  24.219  33.115  14.458
65814W        W27103  36.047  15.779  12.404
65815W        W27104   3.800  34.053   2.892
65816W        W27105  39.851  31.124  12.352
65817W        W27106  14.300  30.463   3.833
65818W        W27107  14.731  20.599  12.342
65819W        W27108   4.346   9.797   1.934
65820W        W27109  36.539  32.637  10.933
65821W        W27110  29.961  26.070  10.597
65822W        W27111  16.661  38.871   2.848
65823W        W27112  12.330  19.695   2.255
65824W        W27113  17.744   2.872   1.864
65825W        W27114  28.142  25.635   0.264
65826W        W27115   6.328  24.073  14.807
65827W        W27116  44.316  34.935   1.731
65828W        W27117   9.739   2.434   2.856
65829W        W27118  14.215  27.513  14.871
65830W        W27119  23.165  24.702  10.979
65831W        W27120  14.713  12.220  13.050
65832W        W27121  19.056  31.439   1.220
65833W        W27122  15.820  18.752  10.976
65834W        W27123   6.262   4.334   4.208
65835W        W27124   2.444  36.024  12.946
65836W        W27125  17.598  32.558   2.700
65837W        W27126  31.461  18.215   0.457
65838W        W27127  31.581  36.887   4.648
65839W        W27128  43.390  17.299  11.033
65840W        W27129  22.572   9.725  14.293
65841W        W27130   0.368  39.441  10.926
65842W        W27131   6.694  29.491   3.211
65843W        W27132   0.403  25.059  14.851
65844W        W27133  41.866  34.546   2.671
65845W        W27134  39.856  10.374   0.871
65846W        W27135  18.124  37.858  13.380
65847W        W27136  28.569  11.646  12.912
65848W        W27137   9.682  37.456   3.704
65849W        W27138   3.403   6.396  14.904
65850W        W27139   5.388   8.210   2.867
65851W        W27140   0.897  19.135  10.915
65852W        W27141  20.734  17.643   2.186
65853W        W27142  25.699  13.692   1.724
65854W        W27143  32.126  26.656   0.415
65855W        W27144  26.654  20.543  14.325
65856W        W27145   7.305  23.126  11.934
65857W        W27146  17.773   4.764   3.194
65858W        W27147  29.552  44.922  13.013
65859W        W27148  15.823  43.818  12.493
65860W        W27149  35.550  17.650   3.238
65861W        W27150  16.294  24.131  12.838
65862W        W27151   8.826   7.911  10.470
65863W        W27152  10.656  33.016  13.948
65864W        W27153   9.707  31.419  10.592
65865W        W27154  38.985  31.965   4.707
65866W        W27155  34.095   8.214  12.938
65867W        W27156  40.918  16.733   3.636
65868W        W27157   3.371  21.123   1.928
65869W        W27158  16.751   9.886   2.729
65870W        W27159  17.251  44.422   1.706
65871W        W27160  15.800  30.936   0.727
65872W        W27161  16.311  24.118   2.300
65873W        W27162  15.775  27.530   0.763
65874W        W27163  27.554  40.490  10.604
65875W        W27164   9.775   5.428  12.550
65876W        W27165  21.205  29.454  10.412
65877W        W27166  35.962  37.534  10.571
65878W        W27167  27.116   0.786   1.281
65879W        W27168  23.496  40.961  12.367
65880W        W27169  29.466  29.136   2.883
65881W        W27170   9.875  23.628  10.426
65882W        W27171  11.268  41.309   1.292
65883W        W27172  22.108  39.324  12.073
65884W        W27173  15.222  36.073   5.275
65885W        W27174  18.775  42.904   3.819
65886W        W27175  15.668  36.881  12.004
65887W        W27176  15.278  39.445   2.721
65888W        W27177  38.863  32.399   2.251
65889W        W27178  20.545  40.402   1.841
65890W        W27179  38.502  42.798   3.382
65891W        W27180  36.554  25.700  14.780
65892W        W27181  36.971  36.383   3.652
65893W        W27182  28.476  31.478  14.508
65894W        W27183  28.005   3.710   3.348
65895W        W27184  30.969  43.821   0.316
65896W        W27185   5.932  38.949   0.385
65897W        W27186  22.074  28.644   0.439
65898W        W27187  27.049   8.175   0.444
65899W        W27188  29.141  30.126  10.922
65900W        W27189  15.658  27.075  11.374
65901W        W27190  42.308  43.790  10.918
65902W        W27191   9.217  18.791  11.539
65903W        W27192  37.079  44.291   1.400
65904W        W27193  20.089  28.113  14.882
65905W        W27194  16.735  34.514  10.506
65906W        W27195  11.820  36.385  10.482
65907W        W27196  12.856  22.643  10.967
65908W        W27197  32.047  11.237   9.995
65909W        W27198  43.418  27.028  14.321
65910W        W27199  16.168  19.058  13.507
65911W        W27200  44.372  11.807  14.474
65912W        W27201   2.410  17.586  12.830
65913W        W27202  14.333  43.464  13.905
65914W        W27203  26.514  21.678   4.807
65915W        W27204  37.422  23.120  11.460
65916W        W27205  40.514   5.756   2.728
65917W        W27206  31.598  38.001   2.320
65918W        W27207  43.443   0.283  13.866
65919W        W27208   6.320   5.796  12.533
65920W        W27209   2.441  35.941   4.657
65921W        W27210  23.107  41.409   1.393
65922W        W27211  42.936   9.849  14.786
65923W        W27212  43.780  27.993  14.344
65924W        W27213   9.796  11.742   2.214
65925W        W27214  21.220   8.830   5.198
65926W        W27215  11.157  15.721  12.374
65927W        W27216   1.471   4.359   1.827
65928W        W27217  29.638  33.885   4.671
65929W        W27218  10.726  18.169   2.780
65930W        W27219  41.375  30.143   2.216
65931W        W27220  25.972   8.327  13.051
65932W        W27221  41.336   6.846  14.406
65933W        W27222   0.918   4.411  13.907
65934W        W27223   8.338  13.811   0.440
65935W        W27224  20.651  25.045  14.810
65936W        W27225   7.339  25.675  13.329
65937W        W27226  29.479  29.425   2.835
65938W        W27227  10.653  43.358   1.361
65939W        W27228  18.674  17.072  11.495
65940W        W27229   8.701  22.630  14.434
65941W        W27230   4.730  10.864   2.879
65942W        W27231  41.806  31.446   1.212
65943W        W27232  12.809  44.865   5.221
65944W        W27233  36.535  13.220  14.929
65945W        W27234  14.601   0.268   4.654
65946W        W27235  18.699  31.453   2.808
65947W        W27236  10.261  18.103   0.766
65948W        W27237  20.569  20.220  14.306
65949W        W27238  40.350   4.739   4.773
65950W        W27239  32.951  10.651   3.693
65951W        W27240  21.652  30.415  14.318
65952W        W27241  18.613  23.506   2.804
65953W        W27242  20.199  18.290  10.491
65954W        W27243  26.051  38.373  14.513
65955W        W27244   4.902  36.959   0.474
65956W        W27245  14.319  28.652   1.417
65957W        W27246  35.491  21.687   2.726
65958W        W27247  36.587  12.187  12.906
65959W        W27248  11.173  15.600   0.915
65960W        W27249   4.838  18.142  11.885
65961W        W27250  11.133  15.157   3.277
65962W        W27251  15.223  17.285   2.413
65963W        W27252  11.338  28.930  11.529
65964W        W27253  41.445  21.062   3.812
65965W        W27254  40.940  43.873  11.422
65966W        W27255  38.001  31.086   4.346
65967W        W27256  43.312  36.920  13.535
65968W        W27257  40.478  26.124   3.700
65969W        W27258  32.022  17.690  10.644
65970W        W27259   8.226   7.371  14.406
65971W        W27260  12.137  40.447  14.887
65972W        W27261  14.710  28.104   2.798
65973W        W27262   5.265  20.648  11.600
65974W        W27263  35.528  42.839  10.511
65975W        W27264  26.065  23.221   0.785
65976W        W27265  28.674  24.199   2.222
65977W        W27266  42.393  21.694  10.460
65978W        W27267  32.065  18.140   2.698
65979W        W27268  15.281   2.265   3.240
65980W        W27269  17.278   6.357   0.248
65981W        W27270  11.703  29.644   1.840
65982W        W27271  15.823  31.925   2.733
65983W        W27272  28.087  15.694   5.214
65984W        W27273  32.963  23.004  11.100
65985W        W27274  25.039  14.781   1.887
65986W        W27275  39.869   4.303  12.418
65987W        W27276  24.069  35.478   0.789
65988W        W27277  41.522  29.474   3.751
65989W        W27278   6.736  30.940  14.445
65990W        W27279  15.270  40.809  11.583
65991W        W27280  43.782  24.146  12.540
65992W        W27281  15.216  40.409  11.871
65993W        W27282   7.804  43.838   0.864
65994W        W27283  17.585  25.173   5.268
65995W        W27284   5.834  38.405  13.063
65996W        W27285  30.465  39.518   4.151
65997W        W27286  22.733  36.974   4.656
65998W        W27287   2.469  22.100   0.305
65999W        W27288  42.487  14.233  12.496
66000W        W27289  40.803  43.299   2.378
66001W        W27290  19.155  10.789   0.481
66002W        W27291  18.696   9.269   1.795
66003W        W27292  15.133  42.290  12.473
66004W        W27293  10.653  24.532  14.909
66005W        W27294  33.465  17.666  14.351
66006W        W27295  13.643   6.724  13.948
66007W        W27296   7.715  26.649  13.469
66008W        W27297   2.763  30.051   0.412
66009W        W27298  34.880  25.978   1.724
66010W        W27299  11.628  32.043  12.067
66011W        W27300  31.475  32.943  14.386
66012W        W27301  17.613  29.101  14.855
66013W        W27302  42.373   9.243  13.967
66014W        W27303  14.130  28.559  12.391
66015W        W27304  21.037  27.482  14.918
66016W        W27305  14.157   7.803   2.856
66017W        W27306  32.526  34.046  11.914
66018W        W27307   2.468  27.093   4.652
66019W        W27308  42.438  20.552  11.384
66020W        W27309  14.185   0.389  11.535
66021W        W27310   7.252  38.546   2.826
66022W        W27311  43.843   1.807  11.914
66023W        W27312   0.415  20.190  10.891
66024W        W27313  29.448  20.047  14.787
66025W        W27314  20.649  32.898   4.751
66026W        W27315  31.016  20.248   3.356
66027W        W27316  23.084  35.420   4.734
66028W        W27317  13.797  19.178  13.340
66029W        W27318  38.875  18.754   5.099
66030W        W27319   1.807  15.182   2.272
66031W        W27320  15.740   1.352   1.773
66032W        W27321  27.126  38.858  13.817
66033W        W27322  29.072  31.063  14.983
66034W        W27323   2.229  10.347   1.715
66035W        W27324   7.715  40.367   3.751
66036W        W27325  21.133  37.942   0.850
66037W        W27326  12.770  30.647  13.885
66038W        W27327   6.394  43.389   2.699
66039W        W27328  41.817  21.648   3.257
66040W        W27329  27.102  16.630  14.475
66041W        W27330  29.057   7.849   3.705
66042W        W27331  38.019  25.494   3.779
66043W        W27332  39.001   6.872   1.766
66044W        W27333  40.836  32.034  12.509
66045W        W27334   5.786   7.862  13.891
66046W        W27335  22.137  42.010  10.608
66047W        W27336  36.537  20.096  10.922
66048W        W27337   0.928  30.922   1.898
66049W        W27338  33.096  21.566   1.333
66050W        W27339  23.710  26.565   0.364
66051W        W27340  22.610  25.513  11.049
66052W        W27341  37.974  44.969   3.230
66053W        W27342  24.668  29.643   1.210
66054W        W27343  32.580   4.744   0.761
66055W        W27344  25.206   0.309   4.325
66056W        W27345  24.667  19.120  13.408
66057W        W27346  12.725  42.442  12.930
66058W        W27347  14.733  29.047   1.360
66059W        W27348  11.759  37.074   9.504
66060W        W27349  38.341  11.300   1.237
66061W        W27350  10.288  30.574  12.995
66062W        W27351  41.030   4.787  14.301
66063W        W27352  22.173  16.259  12.471
66064W        W27353  10.840  16.287   1.771
66065W        W27354  15.187   1.387  10.912
66066W        W27355  36.519  26.978  11.536
66067W        W27356  29.023   1.384   2.844
66068W        W27357  36.908  17.124  12.558
66069W        W27358  34.107  16.761   2.232
66070W        W27359   8.191   2.729  14.490
66071W        W27360  13.674  40.920  13.882
66072W        W27361  41.846  39.524  13.059
66073W        W27362   0.912  37.390   5.204
66074W        W27363  23.172  26.151  12.502
66075W        W27364   0.780  17.276  13.335
66076W        W27365  24.678  41.944  10.628
66077W        W27366   9.164  40.836  14.992
66078W        W27367  40.406  29.562   3.748
66079W        W27368  38.347  20.666   0.390
66080W        W27369   2.440  40.330   1.769
66081W        W27370  40.437   4.786   2.285
66082W        W27371  21.102  16.773  14.304
66083W        W27372  29.959  44.275  10.508
66084W        W27373  33.441  32.493   0.337
66085W        W27374  28.155  19.705  13.373
66086W        W27375  18.774   4.397   0.298
66087W        W27376  23.736  12.167   4.646
66088W        W27377   4.862   1.962  11.866
66089W        W27378   8.374   5.727   4.702
66090W        W27379  25.151  13.642   0.947
66091W        W27380   5.276  43.497   0.946
66092W        W27381  30.550  39.025   4.309
66093W        W27382  33.528  26.666   4.299
66094W        W27383  22.100  42.972  14.004
66095W        W27384  39.531  36.409   1.247
66096W        W27385   1.974  23.149  12.360
66097W        W27386  18.760   8.655  12.419
66098W        W27387  10.734  30.659  14.489
66099W        W27388  31.591   1.914  11.461
66100W        W27389   0.252  19.222   3.351
66101W        W27390  26.018  21.647   1.876
66102W        W27391  36.069  35.544   3.160
66103W        W27392   8.893  44.415   3.367
66104W        W27393  23.001  10.762  12.387
66105W        W27394   8.831  33.515  13.312
66106W        W27395  12.162   0.457  14.347
66107W        W27396  31.541  36.913   2.399
66108W        W27397   9.234  20.147  10.959
66109W        W27398  11.764  31.111  11.598
66110W        W27399  10.643  23.534   3.334
66111W        W27400  32.957  12.701  10.501
66112W        W27401  15.780  19.757   1.871
66113W        W27402  11.265   2.946   1.392
66114W        W27403  36.966  17.192   1.842
66115W        W27404  20.092  19.724   3.222
66116W        W27405  12.818  18.560   4.823
66117W        W27406   4.311  30.640   4.213
66118W        W27407  13.198  16.679  12.432
66119W        W27408   2.825  20.254   1.772
66120W        W27409  20.656  32.893  14.963
66121W        W27410  42.385  33.497  11.899
66122W        W27411  19.118   0.338  10.582
66123W        W27412  37.377  15.255  13.481
66124W        W27413  39.430  34.498   0.318
66125W        W27414  23.696   2.350   4.608
66126W        W27415  16.772   8.656  14.283
66127W        W27416  15.672  24.547  14.854
66128W        W27417  22.670   8.393  10.484
66129W        W27418  33.884  40.505  10.149
66130W        W27419  28.639   3.346  14.334
66131W        W27420  26.659  35.004  14.864
66132W        W27421  30.062  42.900   4.260
66133W        W27422  26.596   9.307  13.525
66134W        W27423  17.217   4.277  12.383
66135W        W27424  17.573   2.846  14.285
66136W        W27425  12.161  17.110  10.479
66137W        W27426  35.873  11.729  14.305
66138W        W27427  20.039  28.449  13.846
66139W        W27428  36.034   8.211   1.253
66140W        W27429   3.942   9.249  10.615
66141W        W27430  29.125  40.847  12.019
66142W        W27431  38.934  38.564  11.485
66143W        W27432  44.314  11.794   2.839
66144W        W27433  15.235  10.867   0.937
66145W        W27434  31.988   9.787  13.417
66146W        W27435  24.173  25.685  14.816
66147W        W27436  29.932  10.243   0.735
66148W        W27437  42.784  33.527  12.397
66149W        W27438  15.683  39.557  11.544
66150W        W27439  17.066   2.318  14.781
66151W        W27440  16.675  35.394  14.970
66152W        W27441  35.449  14.151   2.374
66153W        W27442  26.579  21.634   1.876
66154W        W27443  44.399   0.772  10.535
66155W        W27444  27.007  19.191  10.604
66156W        W27445  28.158  44.867   2.233
66157W        W27446  19.765  27.143   2.665
66158W        W27447  11.638  37.568  13.829
66159W        W27448  35.570  31.492   1.716
66160W        W27449   2.940  15.667   5.176
66161W        W27450  31.482  12.248   4.644
66162W        W27451  31.020  34.917   2.804
66163W        W27452  33.448  33.046   0.876
66164W        W27453   5.426  36.880   4.290
66165W        W27454  28.116   3.342  10.135
66166W        W27455   5.880  15.689   4.171
66167W        W27456  26.125  34.941   1.364
66168W        W27457  36.961  29.030  10.563
66169W        W27458  14.181  32.911  11.601
66170W        W27459  39.066  39.365   1.753
66171W        W27460  12.672  18.144  14.774
66172W        W27461  21.669  20.114  12.974
66173W        W27462  14.109  25.679   1.701
66174W        W27463  38.922  10.182   4.700
66175W        W27464  13.151  33.942   2.196
66176W        W27465  12.193  19.199   3.296
66177W        W27466  42.370  28.608  13.401
66178W        W27467  33.062  43.981   2.228
66179W        W27468   3.747  41.935   2.416
66180W        W27469  39.045   8.170  11.928
66181W        W27470   1.923  12.798   4.265
66182W        W27471  24.561  43.443   3.145
66183W        W27472  19.230   3.332   4.728
66184W        W27473  11.662  23.058  13.943
66185W        W27474  30.456  38.412   4.828
66186W        W27475  11.736  15.799  14.455
66187W        W27476  20.105   5.278  14.957
66188W        W27477   3.875  21.746  14.014
66189W        W27478   1.391   0.482   4.256
66190W        W27479  11.252  35.483  13.829
66191W        W27480  14.314  11.714   3.169
66192W        W27481   9.205  13.620   2.897
66193W        W27482  36.377  27.585   1.788
66194W        W27483  16.731  38.503   3.686
66195W        W27484  17.261  28.669  12.030
66196W        W27485  23.572  39.975   1.718
66197W        W27486  12.665  31.017  10.595
66198W        W27487  27.530   8.343   2.850
66199W        W27488   1.832   4.942   4.300
66200W        W27489  15.777  24.587  12.052
66201W        W27490   6.816  34.110  13.509
66202W        W27491  14.287  29.126   2.783
66203W        W27492  17.720  19.621   0.402
66204W        W27493  10.301  14.251  14.967
66205W        W27494  13.258  36.909  13.992
66206W        W27495  21.646  39.432  14.778
66207W        W27496  35.913  31.621  13.329
66208W        W27497  30.923  34.389   1.730
66209W        W27498  22.132   3.239   4.838
66210W        W27499  28.532  17.126  10.546
66211W        W27500  35.466  14.616  14.493
66212W        W27501   7.795   2.247   3.363
66213W        W27502   3.409  41.023   3.286
66214W        W27503  37.390  31.585   2.237
66215W        W27504  28.102  31.018  14.017
66216W        W27505  18.715  15.242  12.966
66217W        W27506  36.969  35.075   0.937
66218W        W27507  27.016  18.660   2.863
66219W        W27508   5.728  30.512  13.481
66220W        W27509  24.200  31.435   2.308
66221W        W27510  30.492   3.215   3.303
66222W        W27511  43.294  21.035   2.728
66223W        W27512  20.609  35.920  14.433
66224W        W27513  41.442   3.750   4.634
66225W        W27514  34.383   7.245  12.831
66226W        W27515  29.577  10.759  13.316
66227W        W27516  37.502  37.077  14.323
66228W        W27517  22.226  42.940  10.981
66229W        W27518  42.014  32.486  14.404
66230W        W27519  22.065  19.553  10.485
66231W        W27520  31.607  37.895  13.449
66232W        W27521  33.109  25.993   1.382
66233W        W27522  30.561  29.967  12.855
66234W        W27523   3.286  34.035  12.554
66235W        W27524  35.999  18.271   2.320
66236W        W27525  15.770  13.663   1.307
66237W        W27526  20.705  43.515  10.503
66238W        W27527  16.273  26.611   1.895
66239W        W27528  36.892  25.194   0.423
66240W        W27529  26.575  12.226  10.034
66241W        W27530  23.650  20.270   3.261
66242W        W27531  29.163  29.995   3.179
66243W        W27532   5.365  22.197  10.530
66244W        W27533   2.387  27.585  12.039
66245W        W27534  19.254  20.157   0.246
66246W        W27535  30.469  28.159  13.544
66247W        W27536  10.289  21.034   2.236
66248W        W27537   7.760  44.388  14.000
66249W        W27538  36.073  10.361  11.500
66250W        W27539  32.423  31.458   4.271
66251W        W27540  43.796  40.959   0.758
66252W        W27541  22.661  43.901   0.345
66253W        W27542  30.096  27.473  14.465
66254W        W27543  38.476  28.940  14.515
66255W        W27544  23.072  39.415  12.047
66256W        W27545  44.362  22.110  11.468
66257W        W27546  37.548  15.247   0.265
66258W        W27547  22.015  33.880  12.884
66259W        W27548  38.364  34.866  12.826
66260W        W27549  43.883  38.442  12.930
66261W        W27550  14.690  20.221   9.619
66262W        W27551  24.679  31.153   2.843
66263W        W27552   7.681  30.984  14.280
66264W        W27553  24.126   2.239   2.304
66265W        W27554   9.371  28.646  10.936
66266W        W27555   0.872  10.865   1.322
66267W        W27556  44.893  22.707   3.340
66268W        W27557  43.992  36.464   3.359
66269W        W27558  32.628  17.063  11.462
66270W        W27559  35.368   1.905  13.384
66271W        W27560  43.464  21.168  11.923
66272W        W27561  25.077  24.693  10.513
66273W        W27562  42.470   7.748   0.913
66274W        W27563   9.242  24.164  11.484
66275W        W27564  36.496  27.034  10.919
66276W        W27565  43.356  41.031   3.314
66277W        W27566  17.271   4.217   9.966
66278W        W27567  14.755   6.807  10.896
66279W        W27568  32.605  15.631  14.477
66280W        W27569  44.267  44.321   4.264
66281W        W27570  19.118   3.307  10.598
66282W        W27571  41.356  10.166   2.901
66283W        W27572  19.221  28.031  12.982
66284W        W27573  33.103  32.557  14.869
66285W        W27574  38.876   3.441   2.211
66286W        W27575  39.971  10.762  10.103
66287W        W27576  22.653  40.324  11.575
66288W        W27577   9.193  44.966  14.506
66289W        W27578   3.873  16.618   2.241
66290W        W27579  18.189  18.610   4.783
66291W        W27580  11.786  12.638   2.220
66292W        W27581  13.207   9.711   1.233
66293W        W27582  14.804  28.136   0.731
66294W        W27583  41.032   4.399  11.609
66295W        W27584  43.495  30.558  10.536
66296W        W27585  17.243  34.471  11.056
66297W        W27586  43.851  36.951  11.929
66298W        W27587  38.377   1.314  14.442
66299W        W27588  40.822  18.758   0.891
66300W        W27589  39.830  37.892   1.310
66301W        W27590   0.763  14.242  11.899
66302W        W27591  39.424  25.668   0.857
66303W        W27592  40.022  20.639   3.268
66304W        W27593  30.629   8.224  14.426
66305W        W27594  21.688  14.220  11.066
66306W        W27595  27.447  31.000   4.153
66307W        W27596  22.665  29.101  13.906
66308W        W27597  31.982  12.764  13.020
66309W        W27598   9.365  36.454   1.355
66310W        W27599  32.945   5.244   1.779
66311W        W27600  40.844  37.903   1.337
66312W        W27601  14.287   3.332   0.462
66313W        W27602   6.891  25.544  10.635
66314W        W27603   2.899  39.388   1.863
66315W        W27604  33.121  44.775  12.010
66316W        W27605  27.988  20.577   5.279
66317W        W27606  28.496  42.821  13.893
66318W        W27607   6.393   8.846  11.432
66319W        W27608  31.998  28.641  10.955
66320W        W27609  18.733   5.849   1.760
66321W        W27610  38.479  20.057   2.767
66322W        W27611  24.498   4.830  13.810
66323W        W27612   5.345  27.544   1.754
66324W        W27613  22.075  11.176  11.014
66325W        W27614  34.882  44.007  13.977
66326W        W27615  34.051  31.120   3.658
66327W        W27616  36.061  20.185   2.677
66328W        W27617   7.681  16.571   3.806
66329W        W27618  31.095  27.671  14.493
66330W        W27619   4.911   6.249   2.719
66331W        W27620  28.507  20.554  13.986
66332W        W27621   1.869  36.070  12.914
66333W        W27622   6.255  40.420   5.244
66334W        W27623  43.472  13.249   0.954
66335W        W27624  37.009  25.638   0.402
66336W        W27625  43.922  30.655  14.894
66337W        W27626  12.681  40.414  12.846
66338W        W27627   9.214  11.228  11.484
66339W        W27628  17.619   7.869  12.516
66340W        W27629  27.019  11.247   0.421
66341W        W27630  29.996  18.080  11.371
66342W        W27631  25.638  19.737   5.720
66343W        W27632   0.768  29.440  14.510
66344W        W27633  21.661  10.670   2.759
66345W        W27634  40.437  36.047   3.233
66346W        W27635  41.906   4.909   1.732
66347W        W27636  17.800  35.880   4.607
66348W        W27637  22.584  33.035   4.773
66349W        W27638  36.042  16.703  12.032
66350W        W27639  42.331  14.274  13.001
66351W        W27640  29.632  33.946  14.371
66352W        W27641  29.660  44.965   0.387
66353W        W27642   2.388  10.263   2.803
66354W        W27643  14.242  25.570  12.013
66355W        W27644   6.837  22.518  13.848
66356W        W27645  18.237  29.936  12.853
66357W        W27646   1.905   4.886   4.680
66358W        W27647  40.435   5.723   0.286
66359W        W27648  36.911   1.462  11.115
66360W        W27649   9.355  35.362  14.437
66361W        W27650  35.426  11.632  14.323
66362W        W27651  36.499  21.568  10.618
66363W        W27652  13.349  28.658  10.507
66364W        W27653   8.694  43.453   0.321
66365W        W27654   0.480  25.993  14.800
66366W        W27655  26.646  22.142  10.889
66367W        W27656  17.641  12.272  14.280
66368W        W27657  43.787  24.538   3.693
66369W        W27658   0.421   7.399  13.462
66370W        W27659  13.823  19.228   2.814
66371W        W27660   5.209  22.196   3.310
66372W        W27661  15.600  14.170   3.195
66373W        W27662  25.470  23.528  13.985
66374W        W27663   4.234  16.284   3.156
66375W        W27664  20.229  20.161   2.276
66376W        W27665  32.496  12.683   4.253
66377W        W27666  44.823  29.012  13.434
66378W        W27667  31.644   8.893  10.471
66379W        W27668  42.900  20.200  10.443
66380W        W27669  42.903   4.764   3.206
66381W        W27670   0.868  22.693   3.274
66382W        W27671  31.119  29.437   0.425
66383W        W27672  32.945  36.848   2.363
66384W        W27673  34.974  27.640  11.514
66385W        W27674   0.481  43.968   3.359
66386W        W27675   1.450  30.933  11.555
66387W        W27676  40.855  11.261   4.282
66388W        W27677  26.973  11.154   2.275
66389W        W27678  44.927  25.538  12.083
66390W        W27679  40.409   4.307  12.540
66391W        W27680   3.236  33.063  11.390
66392W        W27681  23.045   1.782  11.872
66393W        W27682  37.845  38.426   3.793
66394W        W27683  37.473  27.469   3.706
66395W        W27684  37.970  17.173  12.542
66396W        W27685  18.674  15.809   2.867
66397W        W27686  30.965   7.411   3.385
66398W        W27687   8.888  15.813  12.985
66399W        W27688  29.031   6.371  13.892
66400W        W27689  29.162  39.833   4.656
66401W        W27690  26.045   5.815   4.832
66402W        W27691  42.295   7.738   4.771
66403W        W27692  24.161  17.756   1.234
66404W        W27693  20.541  26.524   0.378
66405W        W27694  16.774  33.443   1.722
66406W        W27695  24.582   3.790  11.393
66407W        W27696  26.606  24.174   1.266
66408W        W27697  22.224  34.421   1.851
66409W        W27698   8.367   1.257  14.025
66410W        W27699  26.127  44.850   0.428
66411W        W27700   0.443  17.687  13.990
66412W        W27701  26.197   4.232   4.773
66413W        W27702  18.243  31.116   1.812
66414W        W27703  17.113   1.758  14.411
66415W        W27704   2.247  26.165  10.585
66416W        W27705  29.960  28.967   4.234
66417W        W27706   3.761  44.968  11.107
66418W        W27707  14.102  26.085  13.356
66419W        W27708  13.229  44.857  10.897
66420W        W27709   6.269  31.450  13.461
66421W        W27710  37.384   6.740  12.074
66422W        W27711  19.768  11.154  11.464
66423W        W27712  39.013  42.519   1.703
66424W        W27713  15.706  24.500  11.106
66425W        W27714  39.428  43.995   1.895
66426W        W27715  41.961   6.240   4.661
66427W        W27716  41.837  28.486  12.886
66428W        W27717   0.316  38.991  13.324
66429W        W27718  24.122  16.637   0.958
66430W        W27719   9.320  30.570   1.749
66431W        W27720  29.138  32.049  14.947
66432W        W27721  14.279  43.395   4.278
66433W        W27722   7.752  31.133  12.953
66434W        W27723   5.276  35.502  10.642
66435W        W27724  43.902  41.911  14.853
66436W        W27725  32.904  15.800   1.934
66437W        W27726  40.421  11.219  11.867
66438W        W27727   9.360  37.954  13.532
66439W        W27728  17.691   3.335   2.206
66440W        W27729  41.933  21.109   2.879
66441W        W27730  10.210  23.997   2.755
66442W        W27731  17.134   0.261   3.727
66443W        W27732  35.506  42.880  14.512
66444W        W27733  36.902  38.023  10.905
66445W        W27734  29.081  31.447   0.935
66446W        W27735   7.853  14.792   0.408
66447W        W27736  33.489  31.508  11.031
66448W        W27737  31.538  33.478   2.205
66449W        W27738  37.375   1.759  12.997
66450W        W27739  36.553   5.912   0.858
66451W        W27740  28.071  33.875   0.858
66452W        W27741  43.982  39.891   2.753
66453W        W27742   0.958  15.325  12.954
66454W        W27743  41.428  22.691   4.196
66455W        W27744  25.109  43.867  13.050
66456W        W27745  44.497  44.915   1.763
66457W        W27746   8.177  37.080  13.329
66458W        W27747  28.035  13.770   2.194
66459W        W27748  41.818  26.065  13.470
66460W        W27749  30.627  18.276  12.424
66461W        W27750  11.867  22.603  11.443
66462W        W27751  23.660  40.844   1.731
66463W        W27752   6.378  17.293   1.282
66464W        W27753  15.812  23.547  14.507
66465W        W27754  35.991  26.049  10.466
66466W        W27755   0.335  37.510  12.066
66467W        W27756  40.966   3.954   4.762
66468W        W27757   9.149  40.028   3.722
66469W        W27758   1.397  12.219  11.501
66470W        W27759  33.983  21.254  11.543
66471W        W27760  20.627   6.911   4.782
66472W        W27761  31.127  44.897   0.943
66473W        W27762  33.115  16.780  10.497
66474W        W27763  29.669  13.347  10.624
66475W        W27764  32.930  19.661   3.319
66476W        W27765  18.596   2.291  14.854
66477W        W27766  17.131  29.467   2.267
66478W        W27767  26.636   2.898  12.531
66479W        W27768  14.667  26.980   2.882
66480W        W27769  14.204  12.268   0.283
66481W        W27770  28.040  19.165  12.441
66482W        W27771   1.284  26.998   4.153
66483W        W27772  33.940   2.318  13.509
66484W        W27773  32.482  33.572   4.309
66485W        W27774  41.918  23.677   5.127
66486W        W27775  10.173  39.350  14.807
66487W        W27776  40.001  20.658   2.254
66488W        W27777  13.213  38.382  11.409
66489W        W27778  20.167   5.319   3.714
66490W        W27779  17.712   6.686   0.765
66491W        W27780   3.459   9.266  12.901
66492W        W27781  21.120  35.884   4.657
66493W        W27782  32.527  39.450   4.146
66494W        W27783   2.227  32.555   1.851
66495W        W27784  10.718  11.199   1.423
66496W        W27785  15.747  13.267   1.427
66497W        W27786  38.065   6.842  13.836
66498W        W27787  30.584  27.603  14.977
66499W        W27788   8.260  34.593   4.279
66500W        W27789  44.351   6.684   1.903
66501W        W27790  20.109  24.501  10.512
66502W        W27791   3.872   6.303   0.286
66503W        W27792   9.748  15.163   0.290
66504W        W27793  14.180   7.321   3.636
66505W        W27794   4.327  13.645   0.839
66506W        W27795   1.244  10.234  14.879
66507W        W27796   6.770  25.161   3.220
66508W        W27797  31.147  23.672   3.365
66509W        W27798   9.201  36.589  12.521
66510W        W27799  27.183  20.543   0.403
66511W        W27800  27.946   1.968   0.902
66512W        W27801  20.710  26.696   4.801
66513W        W27802  25.113  15.581  12.429
66514W        W27803   6.788  26.044   2.866
66515W        W27804  27.104   2.400   3.349
66516W        W27805  39.012  31.628   4.159
66517W        W27806  13.152  35.951  12.461
66518W        W27807  27.975  23.091  12.018
66519W        W27808  22.518  26.561  10.080
66520W        W27809   3.437  11.241  13.915
66521W        W27810  16.687   8.308  11.076
66522W        W27811  20.612  32.420  14.344
66523W        W27812  14.179  23.499  11.982
66524W        W27813   0.299   0.425   3.740
66525W        W27814  26.100  10.699  13.355
66526W        W27815  44.417   0.443  12.405
66527W        W27816   4.280  24.090   2.887
66528W        W27817   7.257   2.426  10.626
66529W        W27818  35.020   9.683  12.486
66530W        W27819  31.010  39.013  14.835
66531W        W27820  38.395  35.017   3.640
66532W        W27821  33.925  18.176   3.175
66533W        W27822   1.808  38.423  12.376
66534W        W27823  25.006   9.840  10.439
66535W        W27824  12.208  14.626   1.245
66536W        W27825  10.672  28.650  13.038
66537W        W27826  39.360  43.952   3.153
66538W        W27827  15.751   1.966  14.839
66539W        W27828   0.338   2.957  14.805
66540W        W27829  18.715  26.612  11.087
66541W        W27830  11.779   0.776  10.472
66542W        W27831  25.514  21.155   2.182
66543W        W27832   4.382  38.868   1.374
66544W        W27833  39.349   8.328   0.325
66545W        W27834  30.981   4.834   1.248
66546W        W27835   8.842  19.053  11.543
66547W        W27836  11.792  19.577   0.308
66548W        W27837  43.343  35.370   0.921
66549W        W27838  12.265  25.672  13.886
66550W        W27839  22.152  22.099  12.959
66551W        W27840  33.524  27.587   2.850
66552W        W27841  14.275  41.979  10.996
66553W        W27842  42.974  39.848  13.039
66554W        W27843  38.059  31.544   3.198
66555W        W27844  17.238  26.192   2.779
66556W        W27845  44.798  37.939   3.295
66557W        W27846  42.800   4.729  13.061
66558W        W27847  43.984  25.115   0.340
66559W        W27848  34.076   6.372  12.395
66560W        W27849   7.813  43.276  12.939
66561W        W27850  21.655  11.284  10.909
66562W        W27851  41.988   3.429   2.663
66563W        W27852  24.526  20.263   9.506
66564W        W27853  10.776  30.540  10.427
66565W        W27854  23.706  38.465   3.261
66566W        W27855  30.013  18.643  14.964
66567W        W27856   0.751  38.567  10.442
66568W        W27857  33.891  22.587  11.561
66569W        W27858  43.022  12.838   2.209
66570W        W27859  24.562   5.370  14.880
66571W        W27860  42.368  40.926   2.370
66572W        W27861  29.964  41.945   1.842
66573W        W27862   6.253  22.706  10.071
66574W        W27863  34.583  24.640  10.644
66575W        W27864   4.282   8.298   1.420
66576W        W27865  22.244  30.572   1.701
66577W        W27866  41.506  30.929   4.707
66578W        W27867  34.573  40.994   4.312
66579W        W27868  22.144  36.436   3.259
66580W        W27869  24.708  25.090  12.563
66581W        W27870  14.639  27.145  13.861
66582W        W27871   5.800  20.238   0.826
66583W        W27872   4.895  44.756   0.959
66584W        W27873  23.099  42.879   2.371
66585W        W27874   9.151  13.214  14.473
66586W        W27875  44.329  25.598  14.368
66587W        W27876   8.691  11.680  13.839
66588W        W27877  35.038  21.190   0.403
66589W        W27878  43.941  18.257  11.461
66590W        W27879  33.504  30.144  12.378
66591W        W27880  29.117  24.029   0.959
66592W        W27881  32.972  15.658   3.242
66593W        W27882  38.547  44.456   2.746
66594W        W27883  31.028  43.894   3.321
66595W        W27884  12.699   7.334  11.493
66596W        W27885  17.106  18.696  11.488
66597W        W27886   5.864  22.544   5.685
66598W        W27887  41.307  44.859   0.285
66599W        W27888  22.656   2.844   2.731
66600W        W27889  16.134   4.437   2.750
66601W        W27890  28.528  35.412   3.826
66602W        W27891  11.787  13.218   3.293
66603W        W27892  36.015  18.592   3.181
66604W        W27893  32.068  22.036  13.035
66605W        W27894  34.453  39.491   0.897
66606W        W27895  13.754  15.230  10.508
66607W        W27896   4.233  27.537   4.313
66608W        W27897  19.220  25.530  13.854
66609W        W27898   8.252  41.917  11.923
66610W        W27899   1.879   6.352  13.321
66611W        W27900  21.065  41.305   2.880
66612W        W27901  28.162  25.117  12.865
66613W        W27902   0.339  25.181   1.332
66614W        W27903  11.156  34.495   5.279
66615W        W27904  33.060  29.611   0.405
66616W        W27905   3.718  24.575  11.075
66617W        W27906   8.181  18.145  10.422
66618W        W27907  19.116  17.272  12.064
66619W        W27908   1.907  39.501  12.523
66620W        W27909  43.374  29.092   2.724
66621W        W27910  27.008  27.150   1.825
66622W        W27911  12.342  13.331   1.361
66623W        W27912  25.657  16.267   2.319
66624W        W27913   6.332  28.509   4.202
66625W        W27914  26.159  24.672   1.276
66626W        W27915  24.660  22.232  12.094
66627W        W27916   3.736   5.433   0.958
66628W        W27917  15.092  38.049  14.362
66629W        W27918  11.313  37.485   3.345
66630W        W27919  23.090   5.888  14.461
66631W        W27920   8.237  12.315   0.427
66632W        W27921  11.647   2.427  12.435
66633W        W27922   1.738  21.529   4.605
66634W        W27923  36.419  41.335  10.414
66635W        W27924  28.953   4.407   3.288
66636W        W27925   8.819  11.791   3.851
66637W        W27926  15.115   5.831  12.448
66638W        W27927  18.175   2.822  11.970
66639W        W27928  15.317   8.184  11.012
66640W        W27929  25.490   7.349  14.417
66641W        W27930  38.505  26.981  14.855
66642W        W27931  28.047   0.881  10.545
66643W        W27932  21.538  44.338  10.142
66644W        W27933  39.426  15.165   9.677
66645W        W27934   2.952  26.191   3.329
66646W        W27935  25.713  42.378  14.945
66647W        W27936  16.236  32.986   4.145
66648W        W27937  36.364  39.333   4.224
66649W        W27938  14.667  43.888   4.177
66650W        W27939  27.154  34.942   2.869
66651W        W27940  29.528  16.616  11.942
66652W        W27941  14.286  43.991   4.236
66653W        W27942  31.897  29.475  12.868
66654W        W27943   4.355  42.952  14.818
66655W        W27944   3.423  43.911  12.929
66656W        W27945  38.965  29.483   1.410
66657W        W27946  30.590  30.509   2.845
66658W        W27947  40.526   3.235   4.230
66659W        W27948  23.146  23.628  12.542
66660W        W27949   7.182   8.189   2.779
66661W        W27950   7.267  16.233   3.689
66662W        W27951  31.950  19.079   0.424
66663W        W27952  18.591  11.146   4.729
66664W        W27953  36.049  17.708  12.865
66665W        W27954  32.954  26.022  13.372
66666W        W27955   9.756   1.830   0.309
66667W        W27956   9.362  15.295  12.962
66668W        W27957  11.731  24.688  11.474
66669W        W27958  25.663  24.181  10.404
66670W        W27959   1.366  34.885   2.757
66671W        W27960  17.637  32.143   9.993
66672W        W27961  24.138  30.066   4.224
66673W        W27962  20.747  30.008  12.087
66674W        W27963  33.417   8.397   4.336
66675W        W27964  32.479  24.507   0.298
66676W        W27965   2.967   0.284   4.174
66677W        W27966  37.578  44.389  12.995
66678W        W27967  21.125  20.594  14.819
66679W        W27968  23.066  11.315  11.870
66680W        W27969  22.127  27.055   1.226
66681W        W27970   0.765  16.127  12.909
66682W        W27971  43.280  40.984  11.548
66683W        W27972  26.119  19.579   2.278
66684W        W27973  36.980  22.094  11.596
66685W        W27974  36.046  38.865  13.937
66686W        W27975  22.237  43.825   4.125
66687W        W27976  41.499  35.474  11.566
66688W        W27977  17.159  22.110  13.387
66689W        W27978  17.187  35.883   2.377
66690W        W27979  20.181  21.748  11.917
66691W        W27980  42.852  12.303   5.110
66692W        W27981  16.300   6.875   4.309
66693W        W27982   4.825   4.744   2.201
66694W        W27983  36.355  44.944   1.298
66695W        W27984   4.757   4.338   0.456
66696W        W27985  37.842  29.149  11.005
66697W        W27986  35.412  30.445  13.548
66698W        W27987   2.906  14.680   4.821
66699W        W27988   9.236  30.619   9.937
66700W        W27989  21.225   6.204  11.898
66701W        W27990  11.162   7.748  12.945
66702W        W27991  11.644  44.289   0.780
66703W        W27992  37.337  27.686   2.811
66704W        W27993  23.077  16.314  10.944
66705W        W27994  32.436  39.032   4.684
66706W        W27995  13.236   4.846  14.440
66707W        W27996  29.622  19.161  11.061
66708W        W27997  19.608  35.037   2.682
66709W        W27998  27.687  23.664  11.890
66710W        W27999  42.286  31.050   2.367
66711W        W28000  21.206  32.941   1.931
66712W        W28001  33.110   1.903  12.094
66713W        W28002  18.192  11.176   4.232
66714W        W28003  17.142  37.398  14.471
66715W        W28004  38.359  11.697   2.295
66716W        W28005  20.665   6.727  11.932
66717W        W28006  37.396  31.451   0.402
66718W        W28007  43.402  35.491  12.921
66719W        W28008  15.740  36.525  14.006
66720W        W28009   3.290  36.405  13.888
66721W        W28010  24.135  36.445  14.858
66722W        W28011  43.315   9.737  10.467
66723W        W28012  15.144  22.192   2.686
66724W        W28013   4.933  38.538   4.353
66725W        W28014  10.708  16.572   0.330
66726W        W28015  39.047  13.699   4.158
66727W        W28016   4.292   7.728   1.373
66728W        W28017  41.023  13.787  11.501
66729W        W28018   3.386   5.701  12.384
66730W        W28019  13.707  23.055   1.823
66731W        W28020   4.429  20.742  14.788
66732W        W28021   0.844  25.022   3.652
66733W        W28022   6.862  36.491  12.923
66734W        W28023   8.854   1.888   2.750
66735W        W28024  17.708  23.172   2.792
66736W        W28025  42.341  44.259   3.225
66737W        W28026  10.255  21.185   0.782
66738W        W28027   8.227  27.508   4.282
66739W        W28028  30.514  13.324   3.276
66740W        W28029  18.746  30.628  13.926
66741W        W28030  20.160   8.725   9.974
66742W        W28031  20.643   7.899  13.407
66743W        W28032   0.842  29.627   1.261
66744W        W28033  43.796   5.915   0.331
66745W        W28034  17.798   3.404   4.627
66746W        W28035  33.021  24.220  11.045
66747W        W28036  29.520  22.611  14.919
66748W        W28037   9.849  16.802  10.415
66749W        W28038  32.515  33.412   3.316
66750W        W28039  11.140  15.724   1.324
66751W        W28040   9.275  27.992   2.870
66752W        W28041  16.103   4.791   4.168
66753W        W28042  29.027  21.050   2.866
66754W        W28043  14.254  31.900   5.173
66755W        W28044  42.987  41.336  14.485
66756W        W28045  25.596  37.835  14.916
66757W        W28046   4.273  32.975   3.193
66758W        W28047  41.337   1.810   3.192
66759W        W28048  34.483  41.535  12.359
66760W        W28049   6.703  22.633  14.788
66761W        W28050   6.427  40.388   3.649
66762W        W28051  23.097  20.209   3.176
66763W        W28052  42.003  37.021   2.263
66764W        W28053  39.491  27.506  11.865
66765W        W28054   8.375  41.315   0.864
66766W        W28055  40.344  37.931   4.753
66767W        W28056  36.497  12.795   3.355
66768W        W28057  18.137  29.171   1.699
66769W        W28058  14.712  28.133  10.517
66770W        W28059   3.862  31.916   2.300
66771W        W28060  16.652  22.708  11.863
66772W        W28061  24.131  13.310   1.380
66773W        W28062  44.912  43.806   0.950
66774W        W28063  12.818  28.548  12.854
66775W        W28064  12.614  10.774  12.044
66776W        W28065  19.224   5.925  13.001
66777W        W28066  28.450  30.491   4.734
66778W        W28067   7.798  32.038  13.362
66779W        W28068  32.032  17.763  13.518
66780W        W28069  17.743  32.457  13.996
66781W        W28070  22.514  42.940   5.153
66782W        W28071  32.012   9.697   2.729
66783W        W28072  29.074  19.179   1.373
66784W        W28073  23.711  16.252  12.479
66785W        W28074  41.874  12.835  11.860
66786W        W28075  40.864  35.514  10.894
66787W        W28076  31.413  11.216  13.988
66788W        W28077  27.985  20.185   1.377
66789W        W28078  37.026   2.421   2.357
66790W        W28079  23.604  37.082  10.948
66791W        W28080  27.179  22.506   0.810
66792W        W28081   6.303  41.472  10.592
66793W        W28082  41.359  17.664  13.449
66794W        W28083  38.000  41.920  11.034
66795W        W28084  14.814   8.399  13.336
66796W        W28085  37.498  31.913   3.689
66797W        W28086  25.540  42.447  12.861
66798W        W28087  27.965  14.830   0.923
66799W        W28088   5.823  22.207  11.062
66800W        W28089  16.300  38.038   3.838
66801W        W28090  28.497  29.149  10.576
66802W        W28091  31.002   8.806  12.427
66803W        W28092  30.649  44.399  11.077
66804W        W28093  32.392  27.982   1.288
66805W        W28094  18.136  44.272  13.063
66806W        W28095  40.479  26.176   2.370
66807W        W28096  18.758  32.590  12.413
66808W        W28097  37.404  26.104  10.496
66809W        W28098   1.854  39.833  14.493
66810W        W28099  16.157  16.103   2.264
66811W        W28100   3.737  14.785  11.872
66812W        W28101  20.154  40.989  14.455
66813W        W28102  36.867  10.209   3.357
66814W        W28103  22.218  43.391  11.111
66815W        W28104  28.605  18.236   1.403
66816W        W28105   7.329   4.737  13.503
66817W        W28106  20.646  41.891  13.000
66818W        W28107  28.065  15.297  12.087
66819W        W28108   4.789  25.127   0.257
66820W        W28109  40.508  39.840   3.723
66821W        W28110   5.428  29.944   3.728
66822W        W28111   8.686  24.629  14.412
66823W        W28112  34.496  28.570  14.362
66824W        W28113  33.501  44.455   5.245
66825W        W28114  31.095  39.521  12.062
66826W        W28115   3.308   7.408  12.000
66827W        W28116  38.393  36.425  11.486
66828W        W28117  33.500  16.115   3.784
66829W        W28118  10.338  20.233  14.925
66830W        W28119   7.890   8.289  14.450
66831W        W28120  38.039  35.936   5.319
66832W        W28121  43.352  31.956  14.921
66833W        W28122  14.749  44.298   0.288
66834W        W28123   9.643  16.804  13.880
66835W        W28124  41.444   5.688  12.420
66836W        W28125   1.901  26.054  14.374
66837W        W28126  38.447  19.261   2.883
66838W        W28127  42.779  31.140   0.907
66839W        W28128  38.850  18.263   5.207
66840W        W28129   0.266  16.305  14.788
66841W        W28130  15.821  14.750  12.922
66842W        W28131  40.508  11.627   3.760
66843W        W28132  30.439  23.152  13.343
66844W        W28133  28.056  26.659   3.818
66845W        W28134  18.145  11.211   1.738
66846W        W28135   0.964  22.115   2.708
66847W        W28136   4.942  28.171  10.487
66848W        W28137   0.788  21.615  13.810
66849W        W28138   6.422   6.279   4.761
66850W        W28139  13.640  20.136  12.379
66851W        W28140   9.211  30.646  12.061
66852W        W28141  26.125  21.066  11.955
66853W        W28142  34.433   9.265   3.357
66854W        W28143  40.414   6.352  10.035
66855W        W28144  43.019  30.514   3.230
66856W        W28145  13.790  18.783  14.513
66857W        W28146  42.427  31.405   1.396
66858W        W28147  38.493  21.568   3.733
66859W        W28148  13.685  15.131   1.300
66860W        W28149  32.528  30.958   2.246
66861W        W28150  21.169   0.409   1.740
66862W        W28151   0.493  27.524   3.179
66863W        W28152   2.377   4.767  14.484
66864W        W28153  39.017  23.499  13.833
66865W        W28154   0.896   6.357  14.275
66866W        W28155  29.165   2.820   3.236
66867W        W28156   2.855  30.927  11.000
66868W        W28157  17.154  22.517   0.777
66869W        W28158  11.825  43.959  10.496
66870W        W28159   5.796  22.122   5.306
66871W        W28160   5.928  12.185  14.480
66872W        W28161  39.546  10.840  14.806
66873W        W28162  10.814  22.528  14.922
66874W        W28163  31.991   7.284   0.790
66875W        W28164  29.483  12.141  10.416
66876W        W28165  37.951  42.978   0.345
66877W        W28166  39.364  42.902   0.409
66878W        W28167  32.977  33.113  10.446
66879W        W28168   7.221  17.619  14.981
66880W        W28169  38.433   3.843   2.722
66881W        W28170  41.531  30.608  13.966
66882W        W28171  32.982   9.794  13.827
66883W        W28172  23.995  25.215   2.334
66884W        W28173  22.178  19.148  11.431
66885W        W28174   1.281  21.649  14.388
66886W        W28175  19.097  13.825   0.335
66887W        W28176   2.905  30.095  14.861
66888W        W28177  27.185   5.784  12.418
66889W        W28178   2.868  27.952  10.575
66890W        W28179  35.554  29.528  13.020
66891W        W28180  20.199  28.461   0.299
66892W        W28181  11.667   5.854  14.884
66893W        W28182  28.458  32.965   1.730
66894W        W28183  26.677   6.747   1.814
66895W        W28184  12.822  26.122   2.242
66896W        W28185  33.015  14.294   0.749
66897W        W28186  43.944  20.661  11.967
66898W        W28187  14.310  41.390   1.376
66899W        W28188  20.707  28.030  14.957
66900W        W28189  35.496  13.163  10.512
66901W        W28190  40.510  28.438  12.550
66902W        W28191  18.187  31.421   2.787
66903W        W28192  38.982  44.310   5.084
66904W        W28193   0.285  31.094  14.470
66905W        W28194  34.433  35.931   4.261
66906W        W28195   6.910  19.720  13.406
66907W        W28196  29.927  17.577  11.529
66908W        W28197   3.362  22.226  14.027
66909W        W28198  23.497  26.542   4.293
66910W        W28199  16.772  37.872  14.421
66911W        W28200  25.985  20.682   2.772
66912W        W28201  36.036   6.868   0.943
66913W        W28202  16.074  41.389  13.059
66914W        W28203   9.382  43.954  13.910
66915W        W28204  42.939   2.389   5.305
66916W        W28205  22.667  38.967   4.261
66917W        W28206  43.404  12.117   4.204
66918W        W28207  39.912  30.459  14.837
66919W        W28208  24.681  37.413  11.947
66920W        W28209  22.105  39.948   1.222
66921W        W28210   7.410  38.038  13.440
66922W        W28211  28.562  41.522  12.085
66923W        W28212  11.137  43.302   2.365
66924W        W28213   8.215  31.076   0.937
66925W        W28214  32.004  10.720   0.965
66926W        W28215  23.721  35.536  14.503
66927W        W28216   1.466  14.161   2.894
66928W        W28217  24.039   2.277   4.660
66929W        W28218  30.918  24.165  11.987
66930W        W28219  16.166  10.285   4.609
66931W        W28220  20.158  19.727  14.983
66932W        W28221  12.662  11.132  14.982
66933W        W28222  31.946   7.302  11.024
66934W        W28223  25.129  33.988   4.643
66935W        W28224  28.542  36.455  14.948
66936W        W28225   9.835  43.929  10.538
66937W        W28226  15.308   2.960  10.129
66938W        W28227   5.764   6.876  10.608
66939W        W28228   6.284  15.768   4.706
66940W        W28229   9.792  22.093   3.205
66941W        W28230  26.531  40.431  13.009
66942W        W28231  35.588  12.845   1.805
66943W        W28232  33.038  36.575   3.313
66944W        W28233  19.260  36.510  14.827
66945W        W28234  12.617   5.700  14.770
66946W        W28235  30.111  36.510   2.778
66947W        W28236   9.328   1.283  13.879
66948W        W28237  40.860  27.498  12.553
66949W        W28238  20.274  27.034  11.514
66950W        W28239  18.600  21.512   3.211
66951W        W28240   2.338   3.786  13.499
66952W        W28241  21.126  21.098  12.931
66953W        W28242  29.435  36.077   3.700
66954W        W28243  28.486  23.195  10.407
66955W        W28244  27.141  34.410  12.938
66956W        W28245  42.355  23.120  14.319
66957W        W28246   3.938  31.125  13.526
66958W        W28247  23.672  16.176  14.476
66959W        W28248  24.540  23.139  12.003
66960W        W28249  20.554  12.700   0.450
66961W        W28250  32.001  32.070  11.093
66962W        W28251  21.710  12.694   5.267
66963W        W28252   3.308   4.822  14.370
66964W        W28253  30.937  10.363   1.231
66965W        W28254  30.537  22.709   4.312
66966W        W28255  36.084  17.230   5.142
66967W        W28256  44.937  26.531   3.275
66968W        W28257  44.336  41.887   4.337
66969W        W28258  12.783  43.511  14.436
66970W        W28259   1.385  26.610  11.994
66971W        W28260   8.370  26.116  11.538
66972W        W28261   7.197   7.706   3.170
66973W        W28262   9.204  22.167  12.854
66974W        W28263  23.508  33.107   2.373
66975W        W28264   9.824  41.813  10.458
66976W        W28265  23.194   9.849   2.742
66977W        W28266  33.391  17.722  10.910
66978W        W28267  18.721  39.814  12.504
66979W        W28268  13.338  21.041   4.247
66980W        W28269  43.999  30.990   1.823
66981W        W28270  40.839  14.693   4.713
66982W        W28271  38.984   4.833  11.009
66983W        W28272  30.911   1.945  13.411
66984W        W28273  37.929   4.273   0.258
66985W        W28274  25.986  34.598   2.782
66986W        W28275  18.212  18.785  12.514
66987W        W28276  23.034  39.972   4.162
66988W        W28277  27.643  41.810  13.857
66989W        W28278   6.289  11.266  10.956
66990W        W28279  27.628  13.203   3.735
66991W        W28280  11.279  35.865   3.155
66992W        W28281  11.819  43.348   4.686
66993W        W28282   1.393  19.580   0.771
66994W        W28283  32.048  28.139  13.062
66995W        W28284  44.947   6.823   2.189
66996W        W28285  34.599  38.445  10.526
66997W        W28286  44.985  21.735   3.701
66998W        W28287   3.788  37.523  10.026
66999W        W28288  35.490  18.070   0.435
67000W        W28289  22.541  42.021   3.760
67001W        W28290   0.765   1.926   1.885
67002W        W28291  13.716   5.219   0.855
67003W        W28292  32.053  27.046  14.899
67004W        W28293   7.850  17.621   0.251
67005W        W28294  42.403  20.066  13.832
67006W        W28295  12.294   8.379  10.543
67007W        W28296  12.246  32.023  12.839
67008W        W28297  11.817  10.324   5.147
67009W        W28298   0.344  20.753  11.461
67010W        W28299   9.168  27.139   1.293
67011W        W28300  28.982  31.414  14.507
67012W        W28301  11.811  40.995  13.979
67013W        W28302   8.772  22.202   2.386
67014W        W28303  15.302   5.322   3.852
67015W        W28304  12.307  27.044  12.905
67016W        W28305  36.846  33.028  10.564
67017W        W28306  33.002  23.087  12.064
67018W        W28307  36.510  20.680   2.800
67019W        W28308  13.336  19.640  13.958
67020W        W28309  22.034   8.660   1.301
67021W        W28310   6.347  21.698   0.851
67022W        W28311  40.915   8.254   4.679
67023W        W28312  29.975  16.299  11.570
67024W        W28313  37.044  35.362  14.908
67025W        W28314   5.908  33.102  11.420
67026W        W28315  27.603  39.539  14.308
67027W        W28316   1.883   7.300  12.493
67028W        W28317  12.347   1.757   1.883
67029W        W28318  35.923  43.404  14.846
67030W        W28319  39.318  27.957  11.542
67031W        W28320  35.533   0.333   2.890
67032W        W28321  44.279  25.140   4.619
67033W        W28322  20.739  16.118  13.013
67034W        W28323  18.267  21.755   0.867
67035W        W28324  24.491  17.784   3.385
67036W        W28325  38.959  19.660  10.529
67037W        W28326  21.202  15.275   1.292
67038W        W28327   3.246  22.019  13.445
67039W        W28328  43.877  13.765  12.904
67040W        W28329  14.165  17.693  10.488
67041W        W28330  38.418  13.319   4.802
67042W        W28331  11.132  15.762  13.816
67043W        W28332   5.842  36.496   1.723
67044W        W28333   4.942  34.016   9.922
67045W        W28334  17.750   3.941   4.655
67046W        W28335   8.226  20.096   4.151
67047W        W28336  29.575  39.422   3.360
67048W        W28337   3.368   3.889  10.414
67049W        W28338  35.464   5.697  10.614
67050W        W28339   9.825  32.033   9.550
67051W        W28340  38.897   6.870  11.609
67052W        W28341  13.340   6.909  14.919
67053W        W28342   1.352  18.158  12.062
67054W        W28343  11.227   5.437   1.804
67055W        W28344  39.956  34.865  13.513
67056W        W28345  28.669  39.066  13.801
67057W        W28346  39.444  22.249   0.464
67058W        W28347  24.091  23.572   2.891
67059W        W28348   3.840  17.124   2.226
67060W        W28349  14.655  25.080   3.852
67061W        W28350   3.788  44.841  12.410
67062W        W28351  32.924  44.846   4.193
67063W        W28352  35.998   9.880   4.679
67064W        W28353  35.561  29.991  13.451
67065W        W28354  20.561  18.084   3.800
67066W        W28355  16.805  32.035  11.584
67067W        W28356  44.384  44.970   4.686
67068W        W28357  12.188  12.158   2.396
67069W        W28358  36.954   6.840  12.469
67070W        W28359  25.191  29.593  11.555
67071W        W28360   0.805  22.236  12.474
67072W        W28361   8.326  19.748  13.444
67073W        W28362  36.352  44.907  13.431
67074W        W28363  12.145  34.461   1.748
67075W        W28364  43.463  31.955   0.760
67076W        W28365  36.385  41.492   0.758
67077W        W28366  12.288  44.324  11.939
67078W        W28367  24.554  15.132  14.930
67079W        W28368  26.589  19.153   4.332
67080W        W28369  34.909  20.078   4.271
67081W        W28370  35.037  30.595  10.547
67082W        W28371  25.157   1.391   2.738
67083W        W28372  17.570   2.927   3.239
67084W        W28373   5.274  36.529   4.121
67085W        W28374   9.163  35.560   1.441
67086W        W28375   8.221  18.591   3.805
67087W        W28376  24.658  28.081   2.714
67088W        W28377  36.991  28.454   1.316
67089W        W28378  32.459  26.094  13.042
67090W        W28379  18.053  22.706  12.083
67091W        W28380  18.122  42.914   3.149
67092W        W28381  27.517  16.727   4.621
67093W        W28382  28.536   0.822   1.286
67094W        W28383  21.183  43.298  13.850
67095W        W28384  42.462  37.530  14.926
67096W        W28385   6.356   5.701   1.397
67097W        W28386   8.350  41.521  13.953
67098W        W28387   8.664  31.137   1.292
67099W        W28388   4.206  25.167   0.322
67100W        W28389  44.007  25.007   1.836
67101W        W28390  22.238  22.075  13.809
67102W        W28391  44.873  33.069   1.376
67103W        W28392  15.113  44.390  12.345
67104W        W28393  41.486  32.103  11.003
67105W        W28394  26.607  21.102   3.323
67106W        W28395  25.623  34.572  14.975
67107W        W28396   5.801  14.109  10.604
67108W        W28397  10.867  17.098  12.570
67109W        W28398  18.663   8.181   3.335
67110W        W28399  24.608   2.426   3.199
67111W        W28400   0.358  25.691   3.300
67112W        W28401  23.574  13.743   4.312
67113W        W28402  10.238   8.657  11.573
67114W        W28403   1.286  16.799  14.309
67115W        W28404  40.491  41.858   0.415
67116W        W28405  10.204  19.204   4.701
67117W        W28406  44.295   7.807  13.035
67118W        W28407  34.032   8.835   3.337
67119W        W28408  36.882  40.419   4.799
67120W        W28409  32.061  10.272   4.158
67121W        W28410  29.126  32.886   3.701
67122W        W28411  34.924   7.825   1.831
67123W        W28412   7.383  14.277   2.776
67124W        W28413  36.396  18.599  12.417
67125W        W28414  10.217  11.167  11.515
67126W        W28415  19.642   2.760  14.959
67127W        W28416   4.321  44.841   3.241
67128W        W28417  42.453   4.273   4.694
67129W        W28418  29.927   4.866  11.862
67130W        W28419  30.585  12.274  10.494
67131W        W28420   4.890  28.098   5.273
67132W        W28421  25.982  28.639  10.994
67133W        W28422  27.529   0.957  11.935
67134W        W28423  28.015   8.887  14.803
67135W        W28424  38.915   4.206   4.276
67136W        W28425   6.775   3.433   3.217
67137W        W28426  19.655  30.044   4.659
67138W        W28427  35.924  13.820   2.211
67139W        W28428  10.212  37.532   2.271
67140W        W28429   5.316  19.705   1.286
67141W        W28430  44.987  14.114  11.870
67142W        W28431  30.468  24.010  12.996
67143W        W28432  15.095   8.392  14.316
67144W        W28433  25.071  35.600   3.804
67145W        W28434  38.859  31.007  11.512
67146W        W28435  40.351  16.220  12.388
67147W        W28436   2.446  33.075  14.457
67148W        W28437   1.869  36.959   1.273
67149W        W28438  27.186  23.532  10.483
67150W        W28439   4.366  23.690   2.730
67151W        W28440   7.707  42.521   3.669
67152W        W28441   2.453  45.000   3.749
67153W        W28442  22.509   3.750   1.839
67154W        W28443   0.349  21.711   0.831
67155W        W28444   0.965  13.674   0.315
67156W        W28445  29.153  34.872   3.335
67157W        W28446   3.879  26.202  12.973
67158W        W28447  33.432  35.421   4.327
67159W        W28448   0.942  42.990   4.149
67160W        W28449  34.926  16.314  11.090
67161W        W28450  38.430  27.483   3.232
67162W        W28451   2.325  24.613   3.663
67163W        W28452   1.869  24.207   2.178
67164W        W28453  32.498  10.733   2.392
67165W        W28454  27.014  34.968   0.274
67166W        W28455  40.356  14.693  12.008
67167W        W28456  32.905  12.709   2.884
67168W        W28457  26.032  35.893  13.908
67169W        W28458   4.812  16.270  10.965
67170W        W28459   3.929  33.075   4.670
67171W        W28460  22.065  22.625  10.444
67172W        W28461  19.717  11.762   0.264
67173W        W28462   4.234  39.996  11.920
67174W        W28463  10.650  43.824   0.850
67175W        W28464  24.050  18.770  11.534
67176W        W28465   4.712  39.355  12.853
67177W        W28466  18.569  36.532  11.418
67178W        W28467  11.728  39.924   3.185
67179W        W28468   2.370  27.940  13.355
67180W        W28469  42.869  15.323   4.634
67181W        W28470  18.544   2.793  13.423
67182W        W28471  22.080   3.861   1.443
67183W        W28472   8.824  28.572  11.466
67184W        W28473  41.035  24.162   3.246
67185W        W28474   0.423   8.677   9.642
67186W        W28475   3.330  29.657   2.178
67187W        W28476  18.583   4.377   2.901
67188W        W28477  34.590  38.915   0.299
67189W        W28478   5.384  34.493   3.701
67190W        W28479  23.078  25.185   0.901
67191W        W28480   5.897  19.652   2.398
67192W        W28481   3.754   2.753   4.308
67193W        W28482  37.504  23.705   3.234
67194W        W28483   8.266  44.818   2.395
67195W        W28484  12.768   7.392   2.799
67196W        W28485   5.847  26.623   4.258
67197W        W28486  24.520  36.442   3.762
67198W        W28487  28.660  14.803   4.709
67199W        W28488  42.782  12.653  10.618
67200W        W28489   0.974  11.703  12.096
67201W        W28490  37.426  38.511  11.919
67202W        W28491   9.784  32.116  13.984
67203W        W28492  24.110  32.106   4.253
67204W        W28493   9.294  20.744  10.629
67205W        W28494  23.612   9.748   9.970
67206W        W28495  16.693  40.499   4.699
67207W        W28496   6.240  32.636   3.340
67208W        W28497  33.951  14.278  11.478
67209W        W28498   5.858  40.377   0.297
67210W        W28499   5.795  22.043   0.282
67211W        W28500   8.662  13.114   3.277
67212W        W28501  21.545   4.794   9.999
67213W        W28502  21.061  42.927  10.001
67214W        W28503   0.253  30.000   2.368
67215W        W28504   7.192  31.107   0.405
67216W        W28505  43.808   2.326  13.514
67217W        W28506  24.198  41.460   3.688
67218W        W28507   3.857  11.790  10.562
67219W        W28508  29.143  44.808   4.627
67220W        W28509   3.307  31.467  14.964
67221W        W28510  38.841  30.584  14.513
67222W        W28511  17.569  14.230  10.432
67223W        W28512  43.880  21.567   3.180
67224W        W28513  43.882  23.142  12.349
67225W        W28514  18.265   7.366   2.382
67226W        W28515   4.938  24.112   4.149
67227W        W28516  44.813  16.699  10.443
67228W        W28517  26.969  10.199  14.472
67229W        W28518  33.607  29.462   2.245
67230W        W28519  30.414  20.682  12.915
67231W        W28520  11.811  17.257   3.734
67232W        W28521  19.260  23.229  12.074
67233W        W28522   3.403   1.921   4.623
67234W        W28523  27.510   2.819  11.863
67235W        W28524  36.948  10.288  11.902
67236W        W28525   0.809  21.159   0.946
67237W        W28526  44.378   7.195  10.504
67238W        W28527  35.529  12.188  11.873
67239W        W28528  19.138  15.745  11.397
67240W        W28529  42.940  12.620  13.346
67241W        W28530  30.578  34.014  10.565
67242W        W28531   7.256  36.068  13.038
67243W        W28532  19.758  29.073  11.541
67244W        W28533  20.262  18.678   3.811
67245W        W28534  19.567  20.150   2.721
67246W        W28535  34.395  28.026   0.730
67247W        W28536   2.912  20.652   0.900
67248W        W28537  36.919  13.710  11.123
67249W        W28538  23.533  41.414   3.188
67250W        W28539  41.362  23.102   0.267
67251W        W28540  23.606  17.270  14.465
67252W        W28541  11.713   4.721   1.732
67253W        W28542  31.626  39.883  10.476
67254W        W28543  40.347  42.406   2.805
67255W        W28544  13.639   0.801   2.264
67256W        W28545   4.935  30.134   0.301
67257W        W28546  41.012  36.412   2.375
67258W        W28547   4.715  43.452  14.866
67259W        W28548   2.296  15.752  11.920
67260W        W28549  13.206  11.174   1.223
67261W        W28550  12.761  44.425  10.532
67262W        W28551  17.589  42.337  11.481
67263W        W28552   7.884   3.261  12.935
67264W        W28553  38.351  44.757   1.798
67265W        W28554  15.264  15.219   4.222
67266W        W28555  18.272  36.080  14.947
67267W        W28556   6.686  36.867  12.541
67268W        W28557  33.538  34.942   2.692
67269W        W28558  34.560  24.208  14.804
67270W        W28559  34.470  30.602   4.211
67271W        W28560  15.180  19.252   4.217
67272W        W28561   7.707  40.337   4.686
67273W        W28562  38.044  21.121   0.439
67274W        W28563  13.185  42.839   4.646
67275W        W28564  18.672   5.273   1.699
67276W        W28565   2.260   4.912   2.402
67277W        W28566  37.394  30.907  11.523
67278W        W28567  12.176  23.601   3.842
67279W        W28568   8.737   8.859  10.414
67280W        W28569  33.947  22.205   0.301
67281W        W28570  31.918  41.310  14.791
67282W        W28571  22.173   1.875  13.908
67283W        W28572  36.562  20.223  12.401
67284W        W28573  14.134  19.611  11.901
67285W        W28574  13.113  43.282   2.390
67286W        W28575  28.162  11.344   1.754
67287W        W28576  32.980   7.803  11.924
67288W        W28577  17.801  20.699   5.650
67289W        W28578  33.042  30.956  12.454
67290W        W28579  41.966  25.616   1.402
67291W        W28580  32.974  12.307   2.256
67292W        W28581  42.999  31.618  13.460
67293W        W28582  12.824  25.660  13.370
67294W        W28583  28.625  30.051   4.168
67295W        W28584   1.426  33.052   0.835
67296W        W28585   2.890  38.833   1.286
67297W        W28586  23.497  37.397  12.036
67298W        W28587  18.154   4.443   4.208
67299W        W28588  39.831  21.684  14.490
67300W        W28589  41.312   6.217   0.325
67301W        W28590  23.102  33.484   4.346
67302W        W28591  24.575  29.081  14.874
67303W        W28592  32.442  13.719   1.212
67304W        W28593   5.197  37.387   5.156
67305W        W28594  18.563  34.113  12.520
67306W        W28595   3.403  20.767  11.460
67307W        W28596  12.626  40.522  13.975
67308W        W28597  14.655   0.354   5.204
67309W        W28598  38.073  21.643  12.842
67310W        W28599  41.010  14.115  14.815
67311W        W28600  25.548  28.067   1.266
67312W        W28601  42.470  27.973  10.548
67313W        W28602  11.233  35.863   0.734
67314W        W28603  10.218  13.627   4.119
67315W        W28604  38.942  21.710  10.133
67316W        W28605  32.494  32.027  12.341
67317W        W28606  40.490  39.871  12.994
67318W        W28607  23.566  41.335   1.908
67319W        W28608  17.712  33.960   1.885
67320W        W28609  34.551  18.251  10.635
67321W        W28610  38.365  19.722  14.315
67322W        W28611  12.179  18.661  13.458
67323W        W28612  41.473  30.961  14.918
67324W        W28613  17.284  18.244   4.239
67325W        W28614  14.590  33.914  14.296
67326W        W28615  23.589  23.008  11.415
67327W        W28616  11.671  40.463  13.447
67328W        W28617  23.223   3.856   3.219
67329W        W28618   5.799  12.165  11.403
67330W        W28619  43.508  25.693  14.457
67331W        W28620  41.948  25.141   2.805
67332W        W28621  38.036   4.922  10.640
67333W        W28622  10.682  23.199  14.797
67334W        W28623  38.509   4.838  13.528
67335W        W28624  23.604  12.769  10.994
67336W        W28625  10.864   9.392  12.964
67337W        W28626  23.628  20.039  14.277
67338W        W28627  26.973  18.100   1.306
67339W        W28628   8.363   5.857  11.385
67340W        W28629  34.038  40.347   2.676
67341W        W28630  23.655  24.210   2.817
67342W        W28631  13.292  27.595  11.474
67343W        W28632   4.724  29.008  10.479
67344W        W28633  43.873  22.632  13.338
67345W        W28634   3.931  20.563   0.347
67346W        W28635   0.925  16.190   1.247
67347W        W28636  35.052  40.963  10.406
67348W        W28637   8.348  38.405  11.921
67349W        W28638  18.277   2.369  12.454
67350W        W28639   7.798  36.931  11.896
67351W        W28640  10.282  17.579   0.960
67352W        W28641  41.855  12.704  11.036
67353W        W28642  18.112  20.263  11.606
67354W        W28643   4.336  32.931  10.408
67355W        W28644  12.834  33.535   3.335
67356W        W28645   1.787  41.881   4.298
67357W        W28646  40.857  31.001   3.292
67358W        W28647  21.097   2.317   4.202
67359W        W28648  35.053  28.992   0.756
67360W        W28649  22.668  11.256  13.430
67361W        W28650  16.258   6.794  12.888
67362W        W28651  44.295  11.809   3.303
67363W        W28652  14.290  44.321   0.476
67364W        W28653  30.150  22.598   1.366
67365W        W28654   1.835   3.392   0.473
67366W        W28655   3.784  26.672  11.498
67367W        W28656  35.449  20.066  11.448
67368W        W28657  32.098  35.508   3.804
67369W        W28658   7.886  19.230  13.048
67370W        W28659  19.131  38.832   3.339
67371W        W28660  38.070  19.125   0.480
67372W        W28661   0.921   5.350  13.896
67373W        W28662  33.588  12.260  12.955
67374W        W28663  14.828   2.241   1.896
67375W        W28664  10.251  33.052  10.587
67376W        W28665  27.955  39.344  11.471
67377W        W28666  37.554  33.070   4.646
67378W        W28667  33.437  16.206  10.511
67379W        W28668   5.870  28.529   5.087
67380W        W28669   9.703  37.495   5.219
67381W        W28670  43.333  13.781  12.376
67382W        W28671   0.824  22.087  14.378
67383W        W28672  43.342  38.488   1.320
67384W        W28673  24.977  25.684  11.417
67385W        W28674  33.057   6.325  13.540
67386W        W28675  25.080  29.434  12.430
67387W        W28676   9.741  44.928  10.969
67388W        W28677  38.955   9.362   3.697
67389W        W28678  30.419  15.277  12.382
67390W        W28679  31.403  27.133  13.994
67391W        W28680  21.121  24.626   2.372
67392W        W28681   1.374  37.500   0.929
67393W        W28682   2.306  40.904   3.673
67394W        W28683  26.177  12.173  13.975
67395W        W28684  38.871  43.991   3.381
67396W        W28685  21.565  13.183   4.216
67397W        W28686   1.240  40.316   0.785
67398W        W28687  10.234   5.403   1.815
67399W        W28688  28.001  30.444  14.420
67400W        W28689  18.583  23.220  12.853
67401W        W28690  43.311  12.170   3.293
67402W        W28691   2.314  20.571   4.615
67403W        W28692  23.198  43.456  14.342
67404W        W28693  33.481  27.162   4.268
67405W        W28694  25.476  36.559   3.245
67406W        W28695   6.405   2.265  11.960
67407W        W28696  17.752  24.131  14.496
67408W        W28697  31.985  43.351   0.815
67409W        W28698  32.547  11.204  14.872
67410W        W28699   9.785  29.579   1.259
67411W        W28700   0.287  13.143  14.473
67412W        W28701  33.982   9.198  12.355
67413W        W28702   8.752  23.598  10.458
67414W        W28703  34.013  12.851  12.498
67415W        W28704  44.421   3.807  14.776
67416W        W28705  36.930  16.731   0.744
67417W        W28706   2.257  24.057   4.160
67418W        W28707  10.789  36.886  11.540
67419W        W28708   7.701   4.850   1.725
67420W        W28709  25.018  33.914   3.781
67421W        W28710  20.715  13.835   4.623
67422W        W28711   3.738  17.153   1.448
67423W        W28712   0.766  33.529  14.511
67424W        W28713   0.777   4.861  14.968
67425W        W28714  17.667   0.421   1.377
67426W        W28715  13.637  34.977   1.273
67427W        W28716  16.673   2.242  14.031
67428W        W28717  14.829   6.767  12.471
67429W        W28718  15.258  43.925   0.405
67430W        W28719   3.255   1.253  14.769
67431W        W28720  35.018  14.221   1.249
67432W        W28721  31.596  17.145   3.678
67433W        W28722   5.287  44.873   0.285
67434W        W28723   5.236   4.208  11.040
67435W        W28724   1.397  29.649  12.521
67436W        W28725  31.988  13.812  12.572
67437W        W28726  36.447  29.057   2.187
67438W        W28727  37.394   5.909  14.773
67439W        W28728  33.429  37.970  10.894
67440W        W28729  35.534  38.991   2.848
67441W        W28730  13.710   7.902  13.547
67442W        W28731  38.984  38.451   2.314
67443W        W28732   2.368   3.749   0.474
67444W        W28733   2.426  25.201   5.194
67445W        W28734  12.758  38.834  13.846
67446W        W28735  25.676  31.020   3.199
67447W        W28736  34.113  41.428  13.537
67448W        W28737  41.454  27.120   3.763
67449W        W28738  24.205  25.139   0.913
67450W        W28739  19.702   9.261  14.958
67451W        W28740  41.360  34.939   2.901
67452W        W28741  20.578  36.081   0.471
67453W        W28742  14.127  37.032  13.390
67454W        W28743  12.305  43.001  10.053
67455W        W28744  10.281  40.829  14.968
67456W        W28745  35.967   9.243   0.367
67457W        W28746   4.734  44.486  10.538
67458W        W28747  18.203  14.182   1.697
67459W        W28748  25.680   1.244   4.175
67460W        W28749  18.120  19.137  13.538
67461W        W28750  27.059  23.717   3.640
67462W        W28751  29.577  17.133   4.656
67463W        W28752  44.443  27.487  10.992
67464W        W28753  17.650  29.162   0.730
67465W        W28754  33.421  34.396   4.695
67466W        W28755  17.617  28.526  14.493
67467W        W28756  20.761  17.653   0.821
67468W        W28757  43.873  14.177  14.378
67469W        W28758  24.651   2.960  14.424
67470W        W28759  41.459  13.808   4.275
67471W        W28760  13.271  33.048   4.659
67472W        W28761  22.627  14.303   9.975
67473W        W28762  38.462  15.082   4.757
67474W        W28763  29.576  37.480   4.802
67475W        W28764  27.948  43.411   2.349
67476W        W28765  10.751  33.018  14.844
67477W        W28766  32.486  39.813   2.386
67478W        W28767   7.324  39.402   4.161
67479W        W28768   4.828   3.887  13.321
67480W        W28769   2.306  39.454   2.406
67481W        W28770   6.720  31.087   3.756
67482W        W28771  22.516  38.354  13.325
67483W        W28772  11.252  28.019  11.910
67484W        W28773  36.073   2.825   3.347
67485W        W28774  22.183  14.767  13.860
67486W        W28775   7.669  14.595  12.849
67487W        W28776  30.521  25.557  14.005
67488W        W28777  13.115  30.969   1.759
67489W        W28778  29.961  10.232  12.825
67490W        W28779  27.582  43.850  14.939
67491W        W28780   8.228  22.062  12.426
67492W        W28781  27.653   8.703   0.866
67493W        W28782  41.996   4.266  12.831
67494W        W28783   8.864  41.999   2.256
67495W        W28784  42.901  11.142   5.189
67496W        W28785  20.224  33.528   3.652
67497W        W28786  12.214  42.922   2.221
67498W        W28787  10.273  32.960   4.754
67499W        W28788  16.738   7.205   1.291
67500W        W28789  15.660  21.201  11.468
67501W        W28790  29.579  16.116   0.262
67502W        W28791  18.293   0.463  10.610
67503W        W28792   1.886  19.620  14.415
67504W        W28793  38.380  38.470  12.403
67505W        W28794  15.782  21.139   3.850
67506W        W28795   0.370  30.064   0.366
67507W        W28796  25.041  31.962   2.799
67508W        W28797  14.798  38.026   1.294
67509W        W28798  33.039  15.194  11.997
67510W        W28799  22.605  23.056   0.302
67511W        W28800   0.859  17.557  13.991
67512W        W28801  37.077  25.172  13.473
67513W        W28802   3.919   7.276   3.852
67514W        W28803  15.699  12.167   1.822
67515W        W28804   4.820  34.437   1.739
67516W        W28805  21.756  17.629   2.187
67517W        W28806  14.223  38.857   1.765
67518W        W28807  15.190  38.444   4.713
67519W        W28808  32.404  42.921  11.595
67520W        W28809  32.053  33.448   1.241
67521W        W28810  24.493  34.108   2.772
67522W        W28811  44.871   3.870   4.351
67523W        W28812  26.201  28.450  13.401
67524W        W28813  21.550  10.633   3.312
67525W        W28814  27.979  10.271  11.939
67526W        W28815  22.595  35.887   3.275
67527W        W28816  38.889  20.170  12.936
67528W        W28817  35.537  35.428  13.019
67529W        W28818  21.257  34.015  14.016
67530W        W28819  33.623  22.124  11.119
67531W        W28820  28.039   7.183   0.888
67532W        W28821  44.398   5.228   2.730
67533W        W28822  41.868  11.175   3.828
67534W        W28823  35.097  40.872  14.337
67535W        W28824  38.064  19.092   2.773
67536W        W28825   4.284  25.186  12.006
67537W        W28826  15.247  38.435  13.321
67538W        W28827   2.357  25.212   4.776
67539W        W28828   3.720  39.334   1.912
67540W        W28829   8.683   9.683   2.680
67541W        W28830   7.220  29.944  13.027
67542W        W28831  26.563  21.708  13.521
67543W        W28832  10.284  17.061   0.915
67544W        W28833  19.187  39.965  14.869
67545W        W28834   9.710  10.140  12.944
67546W        W28835  39.051  15.762   5.268
67547W        W28836  31.440  44.345  13.355
67548W        W28837  27.521  18.065  13.866
67549W        W28838  10.782  30.502  10.898
67550W        W28839  16.239  15.602   4.290
67551W        W28840   8.379  43.921   2.781
67552W        W28841   5.202  15.697   1.895
67553W        W28842  42.917  31.983  12.050
67554W        W28843  25.608  30.481  11.456
67555W        W28844  13.131   8.295   2.750
67556W        W28845  30.997  14.143   0.870
67557W        W28846  42.286  21.107   3.799
67558W        W28847  37.899  31.145  10.901
67559W        W28848  40.816   3.780   3.259
67560W        W28849  19.612   8.716  14.280
67561W        W28850  28.527  34.396   3.782
67562W        W28851  20.657  16.644   1.249
67563W        W28852   2.464   5.932   4.225
67564W        W28853  20.198  15.227  12.826
67565W        W28854  14.168  31.572   2.698
67566W        W28855  17.216  15.820   5.304
67567W        W28856   7.865  17.241  13.485
67568W        W28857  38.386  29.444  13.931
67569W        W28858  44.999   8.293   3.797
67570W        W28859  13.257   8.798  14.350
67571W        W28860  23.511  19.153   1.344
67572W        W28861   2.419  42.963  11.493
67573W        W28862  17.217  12.771  10.953
67574W        W28863   3.844  39.975   1.929
67575W        W28864   8.786  41.298   4.259
67576W        W28865   8.798  20.238  11.907
67577W        W28866  27.114  27.542   3.774
67578W        W28867  20.593  29.645   1.907
67579W        W28868  20.577   1.461  14.966
67580W        W28869   8.401   3.865   1.234
67581W        W28870   9.352  14.647   3.858
67582W        W28871  13.241  31.412   4.243
67583W        W28872  38.855  13.250   1.237
67584W        W28873   5.710  20.132  14.786
67585W        W28874   9.846  42.821  14.948
67586W        W28875  24.005  25.523  12.039
67587W        W28876  23.537  25.637  13.358
67588W        W28877   5.801   7.738   2.256
67589W        W28878  23.188  40.951  14.359
67590W        W28879   8.238  16.215  12.082
67591W        W28880  44.914  16.213   3.721
67592W        W28881   2.824  37.951  11.124
67593W        W28882  37.023  26.977  13.345
67594W        W28883  18.684  19.198   4.191
67595W        W28884  24.551  11.350  12.997
67596W        W28885  11.130   9.350   1.806
67597W        W28886   1.465  36.461  14.935
67598W        W28887  17.230  18.146   3.355
67599W        W28888  19.125  30.136  12.905
67600W        W28889  25.696  39.912   4.735
67601W        W28890  11.224  38.535   2.232
67602W        W28891  40.518  35.009   1.777
67603W        W28892  18.552  22.533   3.775
67604W        W28893  34.503  23.680  12.923
67605W        W28894  16.213  17.707   2.381
67606W        W28895  13.278  19.151  14.902
67607W        W28896   8.226   9.248   0.750
67608W        W28897  29.154  20.597  14.932
67609W        W28898  33.998  23.084   3.665
67610W        W28899   2.375   9.764   4.312
67611W        W28900  34.970  42.450  13.364
67612W        W28901   4.365  37.912  12.552
67613W        W28902  20.631  19.255   0.338
67614W        W28903  10.230  44.923  12.480
67615W        W28904  18.734  34.545  10.129
67616W        W28905   3.375   1.757   0.838
67617W        W28906  31.642  42.973  11.571
67618W        W28907  39.455   2.389   0.432
67619W        W28908  19.633  25.070  12.458
67620W        W28909   3.857  17.141  14.768
67621W        W28910   3.380  14.833  11.563
67622W        W28911  43.291  17.739   0.826
67623W        W28912  38.023  34.505  10.463
67624W        W28913  20.723   1.420  10.501
67625W        W28914  34.429  39.383   4.636
67626W        W28915  31.138   9.876   4.606
67627W        W28916   3.417  24.036   4.116
67628W        W28917  43.380  12.291  14.965
67629W        W28918  40.893  44.760   4.736
67630W        W28919  12.245  18.605   3.732
67631W        W28920   4.367  28.645  12.458
67632W        W28921   4.729  42.933  10.440
67633W        W28922  43.774  27.143   0.361
67634W        W28923  37.913  26.488   3.370
67635W        W28924  12.811  10.199  13.058
67636W        W28925  21.204  36.843   1.296
67637W        W28926   9.699  42.471  14.288
67638W        W28927  13.830  28.667  14.279
67639W        W28928   8.278   9.818   1.346
67640W        W28929  28.962  18.612   3.220
67641W        W28930  23.192   3.719  11.450
67642W        W28931   9.304   1.340   4.132
67643W        W28932  31.028  23.125  11.062
67644W        W28933  19.062  11.760   3.862
67645W        W28934  13.665  20.556   0.272
67646W        W28935  35.420  34.502   4.711
67647W        W28936  35.071  20.149   3.683
67648W        W28937  23.080  24.698  11.911
67649W        W28938  12.814  30.006   1.847
67650W        W28939   3.430  23.148  13.369
67651W        W28940  34.093   4.247   3.331
67652W        W28941  12.155  15.289  12.416
67653W        W28942  17.198  13.835  12.891
67654W        W28943  22.667  42.925  14.838
67655W        W28944  17.647  23.187   3.286
67656W        W28945  15.231  16.806   1.695
67657W        W28946  18.151  41.458  12.955
67658W        W28947  25.017  19.195  14.951
67659W        W28948  29.452   4.814   2.363
67660W        W28949   2.243  38.523   1.222
67661W        W28950  36.514  19.231   4.653
67662W        W28951  33.427  18.089   2.196
67663W        W28952   1.831  30.423   5.263
67664W        W28953  22.633  35.376   1.811
67665W        W28954  25.674  35.401   3.770
67666W        W28955  37.502  14.283   3.349
67667W        W28956   6.330  18.273   0.949
67668W        W28957  18.724  39.376   0.286
67669W        W28958  41.862  22.729   3.304
67670W        W28959   6.782   9.192  10.543
67671W        W28960   4.280  33.623  11.910
67672W        W28961  18.283  28.160  10.946
67673W        W28962  44.863  17.165   3.663
67674W        W28963  22.200   1.445  13.458
67675W        W28964  32.434  19.228  12.528
67676W        W28965  21.641  10.359   0.455
67677W        W28966  33.393   6.275  11.578
67678W        W28967   5.262  10.235  10.988
67679W        W28968  26.961  21.608   9.533
67680W        W28969   4.270  10.724  14.894
67681W        W28970  41.497  19.104  11.045
67682W        W28971  39.998  17.588  12.477
67683W        W28972   2.248   4.362   4.182
67684W        W28973  32.039  20.765   2.755
67685W        W28974  44.913   0.403  13.031
67686W        W28975  19.232  28.606   3.684
67687W        W28976  18.730  25.504  14.002
67688W        W28977  36.911  24.543  11.514
67689W        W28978  14.623  14.290  13.900
67690W        W28979  39.001   6.835  13.348
67691W        W28980  15.795  38.960  12.538
67692W        W28981  14.792  13.150   1.282
67693W        W28982  42.802  30.531  12.042
67694W        W28983  15.701  24.054   3.310
67695W        W28984  25.691  15.750  10.483
67696W        W28985   5.200  43.494  13.533
67697W        W28986   1.337  22.137   4.651
67698W        W28987  38.886  27.993  14.486
67699W        W28988  28.000  39.556   2.814
67700W        W28989  28.098   5.386   3.303
67701W        W28990  22.509  34.066  11.549
67702W        W28991  24.588  17.166  13.399
67703W        W28992   4.227  44.464  10.573
67704W        W28993  21.220  17.606  14.438
67705W        W28994  27.125  43.917  13.835
67706W        W28995  44.417  21.179  12.564
67707W        W28996  19.638  32.466  12.413
67708W        W28997   2.408  30.494  10.425
67709W        W28998  11.844  19.258  14.501
67710W        W28999   0.456  25.591  12.487
67711W        W29000  17.691  17.118   0.418
67712W        W29001  24.997  13.316   3.350
67713W        W29002  26.497  14.618  12.877
67714W        W29003  28.657  39.358  12.514
67715W        W29004  23.607  27.190  13.975
67716W        W29005  29.074  18.147   1.736
67717W        W29006  36.356   2.821   1.425
67718W        W29007  12.743  15.171   0.458
67719W        W29008  30.510  14.136  14.960
67720W        W29009  20.536  34.428   2.845
67721W        W29010  15.656  26.634   1.738
67722W        W29011  15.327   4.435  10.474
67723W        W29012   3.460  41.340  10.132
67724W        W29013  18.197   8.673  12.570
67725W        W29014  30.481   7.736  11.399
67726W        W29015  17.755  31.997   3.335
67727W        W29016  16.725  31.029   0.784
67728W        W29017  23.642   9.292  13.501
67729W        W29018  30.573  44.362  12.500
67730W        W29019   1.390  21.203   4.787
67731W        W29020   2.768  21.545   1.308
67732W        W29021  20.591  39.453  14.292
67733W        W29022  28.000  42.886   1.254
67734W        W29023  37.430   8.717  10.161
67735W        W29024  23.619  37.424  13.316
67736W        W29025  40.413  26.580   1.219
67737W        W29026   0.493  26.098   3.274
67738W        W29027  35.879  29.164  14.887
67739W        W29028  12.217  43.840  12.563
67740W        W29029  44.447  22.173  14.011
67741W        W29030  37.349  36.866   2.324
67742W        W29031  35.583  19.629   3.358
67743W        W29032  32.093  40.908  14.843
67744W        W29033  21.054  39.884   1.807
67745W        W29034  10.279  31.996   4.757
67746W        W29035  26.982  10.365  10.020
67747W        W29036  37.065  27.969   0.253
67748W        W29037  43.322  15.610  11.459
67749W        W29038  42.963  16.623   0.746
67750W        W29039  24.222  41.508   4.622
67751W        W29040  24.092  29.052   3.200
67752W        W29041  10.353  14.668  12.431
67753W        W29042  26.467   0.272  13.451
67754W        W29043  19.123  44.329  11.043
67755W        W29044  26.633   2.243  13.811
67756W        W29045  42.808   8.387   4.202
67757W        W29046  31.637  12.719   0.960
67758W        W29047  33.110  42.970   3.674
67759W        W29048  26.630  43.894  11.449
67760W        W29049  27.965  39.355   3.353
67761W        W29050   8.811  24.030   0.257
67762W        W29051   6.421   4.307   1.806
67763W        W29052  16.299  36.381  13.881
67764W        W29053  27.114  41.819  13.487
67765W        W29054   5.926  37.409   4.685
67766W        W29055  21.539   0.821  12.030
67767W        W29056  35.963  15.595   0.855
67768W        W29057   0.251  24.163  14.829
67769W        W29058  18.232  38.460   5.783
67770W        W29059  27.569   5.435   4.141
67771W        W29060  28.655   2.362   0.955
67772W        W29061   4.285  24.015  10.464
67773W        W29062  36.014   8.758   4.212
67774W        W29063  35.043   2.366   2.706
67775W        W29064  13.759  28.171   2.756
67776W        W29065   7.911  18.656  11.900
67777W        W29066  14.656  11.209  11.531
67778W        W29067  36.083  10.334   2.775
67779W        W29068  16.724  44.263   1.266
67780W        W29069  38.532  32.895  11.457
67781W        W29070  40.438  34.387  13.407
67782W        W29071  38.547  25.211  13.857
67783W        W29072  38.956  41.505  13.489
67784W        W29073  27.108  35.504   3.861
67785W        W29074  21.582   8.798  13.415
67786W        W29075  13.204  15.788  10.907
67787W        W29076  24.180  20.166  12.533
67788W        W29077  13.187  24.555   1.399
67789W        W29078  26.688  35.879   2.773
67790W        W29079  33.983  29.985   3.808
67791W        W29080  38.435  39.886   4.285
67792W        W29081  24.975  37.465   0.801
67793W        W29082   4.210  36.442  13.035
67794W        W29083   7.305  32.549   0.443
67795W        W29084  20.644  44.785   2.246
67796W        W29085  26.536  19.608  14.973
67797W        W29086   9.321  11.282  14.784
67798W        W29087   4.823   7.336  14.416
67799W        W29088  38.936  20.703   2.878
67800W        W29089  34.453  27.975   2.316
67801W        W29090  42.818   0.919  14.426
67802W        W29091  39.046  10.173   1.235
67803W        W29092  38.504  21.725  12.972
67804W        W29093  38.567   2.843  10.465
67805W        W29094  41.948   5.784  13.392
67806W        W29095  32.048   8.744  12.342
67807W        W29096  34.006  32.621  14.330
67808W        W29097  13.163  34.387   3.268
67809W        W29098  13.316  26.118  12.425
67810W        W29099  17.605  21.189   3.837
67811W        W29100  25.059  35.909  12.902
67812W        W29101  10.818  39.373   0.844
67813W        W29102  17.582  12.679   1.224
67814W        W29103  20.187  16.294   0.754
67815W        W29104  40.842  34.931   4.788
67816W        W29105  31.535  41.315  13.864
67817W        W29106  32.100  10.211   0.768
67818W        W29107  21.224  29.602   3.309
67819W        W29108  35.886   4.305  11.563
67820W        W29109  22.508   9.651  11.500
67821W        W29110  35.095   8.692   2.874
67822W        W29111   8.204   3.895  13.910
67823W        W29112  22.234   4.784   0.957
67824W        W29113   5.253  35.026   1.772
67825W        W29114  19.739  13.225   2.344
67826W        W29115  44.393   5.245  13.538
67827W        W29116  13.648   1.810  10.531
67828W        W29117  26.038   2.833  14.447
67829W        W29118  34.049  32.400   4.223
67830W        W29119  30.039  35.089  14.948
67831W        W29120   6.722  22.115   1.372
67832W        W29121   4.919  32.132  11.486
67833W        W29122  35.999  37.911  10.929
67834W        W29123  11.753  28.659   1.215
67835W        W29124  30.991  38.931   4.795
67836W        W29125  43.471  22.162  11.014
67837W        W29126  32.568   3.945  14.425
67838W        W29127  35.018  26.514   5.284
67839W        W29128   8.665  17.220  12.063
67840W        W29129  42.471  31.410   2.677
67841W        W29130   8.325  11.664  11.603
67842W        W29131  30.101  20.633  12.030
67843W        W29132   4.750   4.832  11.565
67844W        W29133   2.376  37.038   2.410
67845W        W29134  25.468  44.926   2.712
67846W        W29135   5.381   3.402  11.923
67847W        W29136   4.888   9.667   0.917
67848W        W29137  36.069  14.820   4.187
67849W        W29138  13.329  41.023   3.731
67850W        W29139  30.130  11.699  13.471
67851W        W29140  36.350  44.482   0.252
67852W        W29141  17.630   0.969   3.167
67853W        W29142  18.123  36.974  12.497
67854W        W29143  10.261  25.137   4.122
67855W        W29144  21.078  23.068   2.756
67856W        W29145  16.656  15.100   0.862
67857W        W29146  23.572  36.970   4.325
67858W        W29147  12.854  26.533  11.909
67859W        W29148   5.926  33.907  11.044
67860W        W29149  44.756   3.306  13.377
67861W        W29150   7.858  12.722   2.315
67862W        W29151   8.288   1.378  10.557
67863W        W29152  26.625  17.620   4.222
67864W        W29153  36.886   8.892  11.012
67865W        W29154   9.301  44.334  14.285
67866W        W29155  10.702   5.824  11.910
67867W        W29156  30.080  30.525  14.793
67868W        W29157   9.816  28.480   0.920
67869W        W29158   3.395  14.820  12.349
67870W        W29159   2.911   3.311   1.383
67871W        W29160  22.103  14.734  12.568
67872W        W29161  44.841  15.100   0.888
67873W        W29162  38.383  20.732   4.175
67874W        W29163   6.247   7.181   1.289
67875W        W29164  42.869  42.990  13.799
67876W        W29165  28.471  12.736   4.743
67877W        W29166  16.311   3.225  11.437
67878W        W29167  28.668   2.342  14.965
67879W        W29168   3.752  34.964  11.040
67880W        W29169  39.892   0.963   2.357
67881W        W29170   2.828  34.970   1.920
67882W        W29171  13.793  42.966   1.304
67883W        W29172   9.652  31.098   1.756
67884W        W29173  13.846  44.835   3.747
67885W        W29174   3.409  42.911   0.856
67886W        W29175   8.212  44.483   1.237
67887W        W29176  24.712  26.019  13.373
67888W        W29177   2.241  18.183  11.565
67889W        W29178  12.266  34.034  10.437
67890W        W29179  26.495  25.488   5.228
67891W        W29180  18.087  25.049   0.302
67892W        W29181  31.553  25.185   0.858
67893W        W29182  34.372  25.600   4.324
67894W        W29183  18.253  44.895  12.360
67895W        W29184  24.516  40.428  11.952
67896W        W29185  16.176  10.700  12.412
67897W        W29186  40.474  26.703   0.753
67898W        W29187  24.505  28.078  13.860
67899W        W29188  34.965  24.144   3.679
67900W        W29189   6.333   8.835   1.375
67901W        W29190  15.669  19.277   4.178
67902W        W29191  26.994  32.588   0.883
67903W        W29192  19.219  23.020   4.707
67904W        W29193  14.256  27.448   1.263
67905W        W29194  39.037  22.619  10.482
67906W        W29195  27.062   2.241   4.666
67907W        W29196  10.716  12.353  12.829
67908W        W29197   2.256   4.928  11.023
67909W        W29198   3.363  29.541  14.434
67910W        W29199  13.661  11.328   4.186
67911W        W29200  39.975   7.793  12.556
67912W        W29201  14.333   1.758   2.771
67913W        W29202  20.591  44.312  11.507
67914W        W29203  12.626  23.567  12.369
67915W        W29204   1.852  35.982   0.934
67916W        W29205  30.940  38.860   0.377
67917W        W29206  21.650   3.870  12.451
67918W        W29207  41.962  27.529  14.858
67919W        W29208  40.502   0.814   2.891
67920W        W29209  40.394  24.977  12.085
67921W        W29210  39.520  11.794   2.346
67922W        W29211  13.803  32.600  14.989
67923W        W29212  39.053  16.611  13.486
67924W        W29213  22.501   2.229  12.020
67925W        W29214  22.229   8.841   3.731
67926W        W29215  30.621   1.900   4.231
67927W        W29216  36.841  12.322  14.915
67928W        W29217  32.964  12.654  11.509
67929W        W29218  31.151  11.850   2.694
67930W        W29219  40.051  10.777   4.265
67931W        W29220  41.901  35.992   1.442
67932W        W29221  30.615  33.914   3.688
67933W        W29222  18.140   9.743  14.393
67934W        W29223   8.402  10.163  11.966
67935W        W29224   8.870   9.725  10.901
67936W        W29225   1.480  30.484  14.347
67937W        W29226  25.135   2.267  12.905
67938W        W29227  26.695   1.930   2.679
67939W        W29228  16.155   1.746  14.367
67940W        W29229  32.893  40.997  14.840
67941W        W29230  24.017   3.331   0.942
67942W        W29231   3.431  35.912   0.254
67943W        W29232  20.551   1.362   1.876
67944W        W29233  37.338  24.550  11.410
67945W        W29234  15.644  18.279   5.791
67946W        W29235   4.804  10.660  10.967
67947W        W29236   4.742  25.176   0.941
67948W        W29237   3.872  11.343  12.997
67949W        W29238  41.423  26.575   2.829
67950W        W29239   2.408  27.689  12.445
67951W        W29240   1.861   5.301  10.610
67952W        W29241   8.801  42.325   4.159
67953W        W29242   9.678  15.115  13.826
67954W        W29243   5.820   7.398   3.171
67955W        W29244  36.970  12.795   1.226
67956W        W29245  38.976  24.659   1.297
67957W        W29246  34.912  16.180  13.496
67958W        W29247  31.087  35.887   2.229
67959W        W29248  17.638   6.741  14.472
67960W        W29249  16.211  20.600  11.502
67961W        W29250  18.274   3.933  11.421
67962W        W29251  10.206   9.277   1.704
67963W        W29252   1.329   8.226  11.433
67964W        W29253  19.600  28.500  13.534
67965W        W29254   7.797  17.582   4.272
67966W        W29255  19.580  37.078  12.853
67967W        W29256  26.006   7.677   2.861
67968W        W29257  19.260  14.708  12.828
67969W        W29258  13.335   2.424   2.850
67970W        W29259  40.474  34.035  12.544
67971W        W29260  39.556  44.260  11.453
67972W        W29261  23.653  10.846  10.495
67973W        W29262   2.828   1.360  11.373
67974W        W29263  26.466  22.603   0.324
67975W        W29264  23.543  31.950  10.579
67976W        W29265  43.898  20.103   0.431
67977W        W29266  21.139   7.259   3.726
67978W        W29267  36.502  21.648   3.183
67979W        W29268  21.048  38.872  11.483
67980W        W29269  21.697   8.271   2.724
67981W        W29270  13.136  44.757  12.009
67982W        W29271  37.966  32.920   0.320
67983W        W29272  30.967  16.645   0.882
67984W        W29273  12.361  34.396  11.486
67985W        W29274  29.637   5.407   3.719
67986W        W29275  12.362  34.992  12.574
67987W        W29276  28.174  13.192  11.878
67988W        W29277  15.220  10.755   4.671
67989W        W29278  13.723  43.832  14.463
67990W        W29279  14.146  24.008   1.425
67991W        W29280  28.130  28.481  11.556
67992W        W29281   2.367  43.314  13.894
67993W        W29282  32.552  33.061  13.519
67994W        W29283   8.783   5.248   0.304
67995W        W29284  18.723  34.926  12.069
67996W        W29285  17.214  25.070  10.097
67997W        W29286  21.700  16.087  14.381
67998W        W29287  33.952   5.417  12.564
67999W        W29288   3.330   6.358   1.888
68000W        W29289  11.757  12.274  12.486
68001W        W29290  26.134  23.655   1.710
68002W        W29291  19.633  40.545   1.708
68003W        W29292   4.339   0.890   3.221
68004W        W29293   4.785   4.850   3.263
68005W        W29294  31.027  19.719   2.750
68006W        W29295  18.094  44.494   1.356
68007W        W29296  37.567  33.951  14.788
68008W        W29297  42.494   1.394  12.885
68009W        W29298  18.758  32.457  11.041
68010W        W29299   9.264  22.671  10.924
68011W        W29300   8.403  38.404  12.921
68012W        W29301  41.517  30.556  13.442
68013W        W29302  29.568  21.720  10.562
68014W        W29303  18.245  16.609  14.459
68015W        W29304   1.366  39.003  14.853
68016W        W29305  31.925   7.868  14.942
68017W        W29306  11.221  28.660   3.322
68018W        W29307  14.115   7.373   4.133
68019W        W29308  43.446   8.242  10.923
68020W        W29309   7.851  35.429   2.263
68021W        W29310  13.831  13.151  14.392
68022W        W29311  39.412  23.178   3.803
68023W        W29312  18.206  41.445  12.439
68024W        W29313  22.055   8.253  12.402
68025W        W29314   8.828  44.301   1.908
68026W        W29315   0.892  17.243  13.852
68027W        W29316  40.366  29.457   4.295
68028W        W29317  10.139  20.561  10.970
68029W        W29318  29.630  32.913  13.800
68030W        W29319  36.869  35.018  12.421
68031W        W29320  24.037  10.375   3.187
68032W        W29321   7.242   4.403  14.967
68033W        W29322  12.338  21.185  11.429
68034W        W29323   5.320  20.241   4.134
68035W        W29324  16.285  31.567   0.957
68036W        W29325  25.067  37.414   1.754
68037W        W29326  42.308  27.136  11.609
68038W        W29327  28.974  16.688   3.728
68039W        W29328  12.359   5.242   4.139
68040W        W29329  26.650   5.819   5.273
68041W        W29330  36.024   9.289   3.161
68042W        W29331  14.267  42.832   0.277
68043W        W29332  34.588  23.014  10.482
68044W        W29333  29.130  40.895  11.449
68045W        W29334   3.429  43.956   4.247
68046W        W29335  33.932  17.146   4.344
68047W        W29336  34.955  20.592  12.835
68048W        W29337   1.442  11.848  12.431
68049W        W29338  28.034  30.545   3.184
68050W        W29339   0.257  38.569  12.849
68051W        W29340   2.324  13.669   3.323
68052W        W29341  33.924  29.437  14.434
68053W        W29342   0.754  33.111  12.983
68054W        W29343   8.672  32.531   1.825
68055W        W29344  41.431  16.677   0.331
68056W        W29345  36.088  19.218  14.888
68057W        W29346   7.818   0.328   3.793
68058W        W29347  12.259  20.740  10.481
68059W        W29348   0.252  40.408   3.230
68060W        W29349  28.676  20.605  12.435
68061W        W29350  44.970  17.187   9.983
68062W        W29351  15.263  40.894   3.148
68063W        W29352  17.796  37.057   5.225
68064W        W29353   4.781  10.761  11.970
68065W        W29354   9.348  32.042   3.383
68066W        W29355  44.294   1.259   4.684
68067W        W29356  15.742  22.038  14.848
68068W        W29357   4.892  12.656   2.881
68069W        W29358   7.276   6.729  13.525
68070W        W29359  10.854  43.338  12.407
68071W        W29360  19.543  40.322  12.448
68072W        W29361   4.844  29.622  11.046
68073W        W29362   9.291  20.567   4.807
68074W        W29363  20.101  25.113  13.028
68075W        W29364  17.759  26.513   0.855
68076W        W29365  44.442  25.124   0.852
68077W        W29366  22.038  28.522   2.188
68078W        W29367  15.760   2.295  13.335
68079W        W29368  38.953   9.695  13.347
68080W        W29369  32.992  41.505   2.383
68081W        W29370  36.011  36.351  13.503
68082W        W29371  13.823  33.084   3.305
68083W        W29372  10.252  44.981   0.811
68084W        W29373  20.578   8.264   0.814
68085W        W29374  32.576  40.458   4.203
68086W        W29375  27.967  16.171  10.638
68087W        W29376  37.402  37.515   1.247
68088W        W29377  44.910  21.658   0.845
68089W        W29378  16.809  38.934  12.856
68090W        W29379  38.977  10.214   0.805
68091W        W29380  12.293  29.479  13.866
68092W        W29381  35.391   2.468   2.743
68093W        W29382  10.795  10.798  12.384
68094W        W29383  35.966   3.777  13.842
68095W        W29384  25.189  26.521  13.474
68096W        W29385  25.641  43.779   2.366
68097W        W29386  17.738  21.744   5.291
68098W        W29387  13.686  34.532   1.420
68099W        W29388   3.380  19.066  11.413
68100W        W29389   6.913   0.359  11.909
68101W        W29390  43.432  39.444  11.950
68102W        W29391  29.004  20.247   0.281
68103W        W29392  25.019  33.960  14.413
68104W        W29393  20.221  43.347   0.382
68105W        W29394  28.507  17.293   1.304
68106W        W29395  33.914  10.701   1.854
68107W        W29396  33.510  26.690   1.287
68108W        W29397  37.982  34.051   0.764
68109W        W29398  17.801  33.956   0.304
68110W        W29399  38.836  40.973   3.770
68111W        W29400  13.740  11.792   1.791
68112W        W29401  36.024  18.278   0.735
68113W        W29402  34.988  41.882   4.308
68114W        W29403  10.813  17.067  10.602
68115W        W29404   6.747  32.100  11.034
68116W        W29405  33.410  22.603   2.735
68117W        W29406  39.351  38.038  11.533
68118W        W29407  11.841  15.246  11.875
68119W        W29408  31.574   9.337  11.579
68120W        W29409  23.994   7.233  13.425
68121W        W29410  34.119  16.658   0.778
68122W        W29411  29.099   4.897   2.188
68123W        W29412  35.456  20.765   3.153
68124W        W29413  30.977  39.314   3.721
68125W        W29414  19.130  42.342  13.871
68126W        W29415  31.524  12.243   3.283
68127W        W29416  36.043  13.312  13.859
68128W        W29417  27.622  10.710  10.156
68129W        W29418  11.748  33.994   3.233
68130W        W29419  14.758   2.953  13.019
68131W        W29420  41.415  34.967  14.016
68132W        W29421   1.933  28.123  14.369
68133W        W29422   8.388  10.646   4.717
68134W        W29423  27.156   6.425   5.170
68135W        W29424  29.648  39.890   3.382
68136W        W29425   9.344   9.167   4.787
68137W        W29426  10.843  22.050   1.768
68138W        W29427  10.812  12.131   0.459
68139W        W29428  31.483  43.878   4.738
68140W        W29429  28.136  38.494  14.969
68141W        W29430  41.480  29.611  10.526
68142W        W29431   6.696   3.925   2.419
68143W        W29432  25.530   5.694  13.879
68144W        W29433  18.210  23.676  14.415
68145W        W29434  36.932   9.222   4.199
68146W        W29435  14.667   6.703  12.906
68147W        W29436  40.315  44.858   3.809
68148W        W29437  23.064  43.428   3.256
68149W        W29438   1.817  32.913  10.995
68150W        W29439  16.308  30.158  11.085
68151W        W29440   9.298  16.628   2.180
68152W        W29441   1.738  21.069  12.941
68153W        W29442  17.247  38.846  10.550
68154W        W29443  40.973  36.554   0.369
68155W        W29444  41.954  27.664   2.264
68156W        W29445  22.180  44.835   2.711
68157W        W29446  25.146  39.903  14.840
68158W        W29447  20.264  40.049  10.919
68159W        W29448  15.603  16.226  13.015
68160W        W29449   6.289  22.127  12.490
68161W        W29450   8.311  25.015   9.540
68162W        W29451   9.827  36.021   1.361
68163W        W29452  21.644  33.522   2.246
68164W        W29453  44.822  13.295  12.922
68165W        W29454  17.214  22.548   9.941
68166W        W29455  15.318   2.298  14.474
68167W        W29456  21.225  30.450   1.426
68168W        W29457  27.469  17.597   4.260
68169W        W29458  19.632  12.306   3.240
68170W        W29459   2.233  40.909  11.895
68171W        W29460  43.898  36.901  13.440
68172W        W29461   4.246  42.372   4.114
68173W        W29462  23.986  27.053   3.832
68174W        W29463  32.141  16.185  12.514
68175W        W29464  11.225  15.239   0.288
68176W        W29465  28.033   8.768  13.884
68177W        W29466  24.605  19.572   1.859
68178W        W29467  34.458  17.203  12.945
68179W        W29468  26.192  19.762  12.951
68180W        W29469  35.535  17.161  11.529
68181W        W29470  29.516  30.467  12.031
68182W        W29471  21.527  26.510   2.350
68183W        W29472  28.134  39.884   2.869
68184W        W29473  30.990  42.354   4.330
68185W        W29474  20.650  18.222   0.284
68186W        W29475  20.045  30.549   3.248
68187W        W29476   0.904  14.782   0.279
68188W        W29477  40.390  22.233   4.748
68189W        W29478   3.422  30.969  12.053
68190W        W29479  20.105  15.685   0.788
68191W        W29480  30.126  38.931   0.406
68192W        W29481  21.688  44.000   0.882
68193W        W29482   2.230  19.206  10.935
68194W        W29483  22.178  32.432  12.957
68195W        W29484  32.038  32.472  13.481
68196W        W29485  11.345   8.794  11.006
68197W        W29486  25.101  13.139   5.285
68198W        W29487   5.691  44.303   2.701
68199W        W29488   2.417   9.853   3.754
68200W        W29489  14.321  42.885   4.337
68201W        W29490   6.687   4.729   4.805
68202W        W29491  35.899  36.447   1.775
68203W        W29492  24.677  20.041  12.499
68204W        W29493  44.963   1.462   1.364
68205W        W29494   3.866   2.849   3.746
68206W        W29495  44.761  12.687   0.922
68207W        W29496  24.023  25.520  12.521
68208W        W29497  39.403  24.138   0.268
68209W        W29498  36.088   5.386  14.344
68210W        W29499  39.046  19.725   3.703
68211W        W29500   1.453  21.614  10.543
68212W        W29501  41.884  30.517   0.291
68213W        W29502  28.505  43.770  13.963
68214W        W29503  32.950   4.790   0.934
68215W        W29504  37.582  33.107  10.424
68216W        W29505  30.152  17.306  11.090
68217W        W29506  36.092  33.380  10.606
68218W        W29507  12.348  26.701   1.281
68219W        W29508  26.553   5.235  11.568
68220W        W29509  16.078  28.518   1.264
68221W        W29510  16.154   4.855   2.182
68222W        W29511  36.450   7.280  10.991
68223W        W29512  17.774  13.311   3.290
68224W        W29513  26.137  40.424  11.113
68225W        W29514  37.382   9.201  11.862
68226W        W29515  41.435  14.734   3.667
68227W        W29516  22.027   7.697   3.314
68228W        W29517  40.895   6.861  10.555
68229W        W29518  31.960  28.947   3.179
68230W        W29519  33.031   6.783  13.978
68231W        W29520  34.962   5.263   1.303
68232W        W29521  43.005  29.923  14.469
68233W        W29522   4.731  38.405   4.598
68234W        W29523   9.755  26.703   1.330
68235W        W29524  10.208  37.370  13.367
68236W        W29525  43.932   0.802   4.649
68237W        W29526  10.339  11.319  14.942
68238W        W29527  16.197   4.934  12.922
68239W        W29528  35.933  25.657   1.338
68240W        W29529   1.935   6.763   4.295
68241W        W29530  23.599  12.245   1.724
68242W        W29531  15.699   2.838   3.725
68243W        W29532  11.705  11.238  10.485
68244W        W29533  13.762  20.108  11.067
68245W        W29534   3.799  11.302  13.873
68246W        W29535  25.141  36.440   1.790
68247W        W29536  16.271   4.420   2.181
68248W        W29537  34.954  31.477   0.318
68249W        W29538  10.684  18.548   1.365
68250W        W29539  41.937  30.096   4.318
68251W        W29540  27.554  20.235  10.518
68252W        W29541  27.509  25.073   1.329
68253W        W29542  36.571  33.893  11.874
68254W        W29543   5.859   3.417  14.286
68255W        W29544  16.573   9.837   2.256
68256W        W29545  11.640  32.951  12.567
68257W        W29546  14.731  10.669  13.453
68258W        W29547  38.402  26.669  13.802
68259W        W29548  23.079  26.642   2.200
68260W        W29549   6.707  19.772   2.728
68261W        W29550  13.733  33.054  10.477
68262W        W29551  13.231   4.323   4.709
68263W        W29552  14.707   1.954  14.813
68264W        W29553  31.935   6.898  11.462
68265W        W29554  15.154  13.332  11.108
68266W        W29555  21.746  19.713  12.397
68267W        W29556   2.781  23.572   0.332
68268W        W29557  10.868  33.925  11.459
68269W        W29558   2.247  14.165   0.458
68270W        W29559  24.540  37.552  11.016
68271W        W29560  17.682  41.503  14.786
68272W        W29561   5.856   1.823   4.680
68273W        W29562  35.490  33.563  14.513
68274W        W29563  35.582   5.728  12.933
68275W        W29564  38.570  25.052   1.901
68276W        W29565  16.699   3.377   1.771
68277W        W29566  28.090  20.098   4.637
68278W        W29567   1.964   3.717  11.511
68279W        W29568  34.989   6.298  14.340
68280W        W29569  37.033  39.466  14.400
68281W        W29570  44.359  15.663  13.962
68282W        W29571  42.886  42.873   2.902
68283W        W29572  42.789   2.419   3.354
68284W        W29573  29.083   8.775  14.496
68285W        W29574   6.800  37.548   1.337
68286W        W29575   0.810  10.232   2.182
68287W        W29576  25.711  31.085   2.391
68288W        W29577   9.715  25.008   3.748
68289W        W29578  23.626  12.612   3.755
68290W        W29579  14.629  43.493  11.885
68291W        W29580  20.151  31.908  12.059
68292W        W29581  37.881  21.036   3.307
68293W        W29582   9.712   7.323  11.464
68294W        W29583  15.216  29.615  12.513
68295W        W29584  20.591   7.835   0.820
68296W        W29585  17.081  37.852   3.820
68297W        W29586   4.873   9.719  12.048
68298W        W29587  10.840  32.393   0.846
68299W        W29588  31.462  27.475   4.347
68300W        W29589  36.974  36.984  13.475
68301W        W29590   2.938  38.996  10.550
68302W        W29591   0.400  31.904   4.206
68303W        W29592   8.356  29.429  10.580
68304W        W29593  14.209  39.991   1.393
68305W        W29594   5.435  31.467   0.451
68306W        W29595   9.790  25.472  14.344
68307W        W29596  42.316  38.325   3.847
68308W        W29597  17.743  42.295  11.057
68309W        W29598  16.571   8.793   5.129
68310W        W29599  34.933   1.317  12.498
68311W        W29600  24.199  10.240   0.875
68312W        W29601  43.409  25.120  11.464
68313W        W29602   6.707  44.317  10.421
68314W        W29603   8.825  30.617   5.800
68315W        W29604   6.301  41.006  14.767
68316W        W29605  29.536  13.727   3.805
68317W        W29606  26.114  27.038   0.923
68318W        W29607   5.412   5.389  14.477
68319W        W29608  31.640  41.031   1.925
68320W        W29609   7.349   3.320  14.404
68321W        W29610  30.045  22.194   3.195
68322W        W29611  42.900  33.971  12.382
68323W        W29612  41.951   1.888   4.246
68324W        W29613  17.245  13.292  11.553
68325W        W29614  29.492  39.428  10.435
68326W        W29615   3.256  35.001  13.512
68327W        W29616  35.517  17.558  13.382
68328W        W29617  40.435  11.856  10.063
68329W        W29618  19.102   8.732  14.279
68330W        W29619   4.915  27.492   3.643
68331W        W29620  28.659  35.965   0.398
68332W        W29621  38.955   0.362   2.411
68333W        W29622  11.725  17.676  14.277
68334W        W29623  36.390  20.230  12.906
68335W        W29624  30.556   5.738   4.236
68336W        W29625  44.870  16.128  11.993
68337W        W29626  40.825  27.445   0.949
68338W        W29627   4.255  25.517  11.087
68339W        W29628  40.406  35.885   1.211
68340W        W29629  44.760  39.347   1.265
68341W        W29630  11.817   0.938  13.500
68342W        W29631  10.178  34.534  14.931
68343W        W29632   4.914  22.736   1.719
68344W        W29633   0.861  14.597  12.013
68345W        W29634   4.210  37.478   3.197
68346W        W29635   6.267  42.471   1.272
68347W        W29636  33.101  29.972   2.779
68348W        W29637  22.155   8.776  13.326
68349W        W29638  34.096  24.116   4.815
68350W        W29639  19.054   3.910   1.925
68351W        W29640  43.974   0.846   3.799
68352W        W29641   2.349   4.363  13.544
68353W        W29642   8.287  34.103   1.415
68354W        W29643  18.095  31.931  11.902
68355W        W29644  42.815  38.541   1.696
68356W        W29645  39.464   8.811  11.443
68357W        W29646  18.660  12.846   4.625
68358W        W29647  11.856  40.352   2.213
68359W        W29648   9.828  28.628  14.958
68360W        W29649  28.089  44.273  12.432
68361W        W29650  18.627  31.425   1.297
68362W        W29651  39.549  17.649  13.464
68363W        W29652  35.432  22.220  10.641
68364W        W29653  14.619   8.682   0.454
68365W        W29654   8.334  36.560   4.832
68366W        W29655  20.539  37.023   4.118
68367W        W29656  10.810   3.439  13.823
68368W        W29657   1.955  39.982  12.095
68369W        W29658  25.543  39.822  10.415
68370W        W29659  33.922  30.611   4.348
68371W        W29660  18.618  43.832   2.239
68372W        W29661  11.738  37.935  10.490
68373W        W29662  24.188  17.671   2.901
68374W        W29663  37.550  23.141   1.367
68375W        W29664   5.296   1.863  12.475
68376W        W29665  10.861  36.032  14.872
68377W        W29666  27.538  19.762  13.971
68378W        W29667  31.945  36.362  13.509
68379W        W29668   6.209  38.406  13.518
68380W        W29669  12.709  36.539   2.782
68381W        W29670  42.329  24.092  12.546
68382W        W29671  17.279  16.166   4.256
68383W        W29672  11.787   8.165   0.818
68384W        W29673  16.675  18.209   2.301
68385W        W29674  11.730  26.010   0.790
68386W        W29675  11.839  36.521  10.037
68387W        W29676  41.020  18.700  10.034
68388W        W29677  29.974  42.001   0.448
68389W        W29678  32.546  26.461  11.969
68390W        W29679  42.397  40.385   4.149
68391W        W29680  43.420  41.818   1.802
68392W        W29681  38.393  18.621   2.310
68393W        W29682   8.225  24.666   2.203
68394W        W29683  14.179  26.970  10.418
68395W        W29684  32.602   0.943   2.279
68396W        W29685  10.270  38.344   3.325
68397W        W29686   5.415   3.924   3.254
68398W        W29687  35.890  33.572  11.590
68399W        W29688  21.741  42.987  12.939
68400W        W29689  27.533   4.747  13.409
68401W        W29690  25.082  34.486   0.782
68402W        W29691  18.745  41.424   4.267
68403W        W29692   3.884  14.235   3.185
68404W        W29693  12.700   5.869   0.851
68405W        W29694  39.387  10.634  13.827
68406W        W29695   6.292  11.821  10.091
68407W        W29696  17.800  12.242   3.735
68408W        W29697  23.058  34.881  11.097
68409W        W29698  11.647  30.619   0.728
68410W        W29699  27.557  36.963   2.881
68411W        W29700  24.126  30.605  11.433
68412W        W29701   7.359  35.367   3.838
68413W        W29702   9.786  31.597   9.639
68414W        W29703  11.709   9.717  10.539
68415W        W29704  27.104   5.425   1.423
68416W        W29705  22.564  23.560   0.313
68417W        W29706  14.154  13.172   2.352
68418W        W29707  37.377  39.495   0.451
68419W        W29708  42.010   7.784  11.932
68420W        W29709   3.299  13.845  14.386
68421W        W29710  33.099   0.369   3.196
68422W        W29711  32.556  14.797   4.809
68423W        W29712  36.349   4.400  11.025
68424W        W29713  19.775  26.005   3.754
68425W        W29714  43.470  35.511   1.450
68426W        W29715  26.978  20.554   1.802
68427W        W29716  18.092  22.028  13.865
68428W        W29717  10.321  20.531   2.897
68429W        W29718  36.921  11.760  10.992
68430W        W29719  19.256  14.211   2.369
68431W        W29720  37.006  28.150  13.820
68432W        W29721  25.130  33.456  13.048
68433W        W29722  43.402  11.184   4.321
68434W        W29723  31.430  15.734   3.297
68435W        W29724  41.520  29.033  14.501
68436W        W29725  36.097   9.159   2.230
68437W        W29726  35.913  30.010   4.715
68438W        W29727  41.386   5.821   0.391
68439W        W29728  13.701  10.377  11.541
68440W        W29729   4.205  36.534  13.857
68441W        W29730  11.786  17.123   1.227
68442W        W29731  41.873  30.585  10.438
68443W        W29732  20.764  25.644  13.792
68444W        W29733  44.797  35.032  11.090
68445W        W29734  31.091   2.724   3.819
68446W        W29735  44.947  10.363  14.879
68447W        W29736  34.866  17.790   4.818
68448W        W29737  17.699   3.370   3.232
68449W        W29738  18.247  41.926   0.811
68450W        W29739  41.520  40.511   1.376
68451W        W29740  31.518  34.002  11.922
68452W        W29741  27.095  20.614  12.416
68453W        W29742  23.614  26.683   2.263
68454W        W29743   9.883  32.615  12.530
68455W        W29744   7.333  19.100   3.858
68456W        W29745  41.389  35.877   2.207
68457W        W29746  27.484  11.162   3.798
68458W        W29747  26.040  40.011   0.263
68459W        W29748  14.097  11.700  13.880
68460W        W29749  35.060   2.312   1.788
68461W        W29750  29.609  33.469   2.234
68462W        W29751  29.491   6.199   0.331
68463W        W29752  21.607  39.039   4.815
68464W        W29753  32.622  15.208  12.362
68465W        W29754   5.268  15.698   2.412
68466W        W29755  34.100  30.929   0.789
68467W        W29756  21.102  33.949  11.120
68468W        W29757  17.668   4.854  13.879
68469W        W29758   7.842  26.088   0.819
68470W        W29759  37.871  22.552   4.667
68471W        W29760  28.599  11.304   0.769
68472W        W29761  20.211  24.503   2.270
68473W        W29762  39.895  33.987  13.831
68474W        W29763  22.580  28.120   4.296
68475W        W29764   6.748  43.940   0.374
68476W        W29765  28.610  15.089  12.406
68477W        W29766  11.805  13.666  13.426
68478W        W29767  21.607  24.545  11.531
68479W        W29768   5.832  33.470   1.813
68480W        W29769  24.083  11.659  13.881
68481W        W29770  15.250  12.828   1.284
68482W        W29771  29.981  44.299  12.476
68483W        W29772  40.905  23.083  12.844
68484W        W29773  26.637  10.845   4.200
68485W        W29774  17.639   9.285   3.636
68486W        W29775  17.110  32.532   0.958
68487W        W29776  12.209   2.447  11.061
68488W        W29777  15.653  42.463  11.010
68489W        W29778  15.676  28.650  10.623
68490W        W29779   5.314  33.913  13.017
68491W        W29780  12.733  38.476   4.129
68492W        W29781   6.270  32.899   1.910
68493W        W29782  40.389  39.553   4.239
68494W        W29783  37.434  24.538  12.924
68495W        W29784  43.886  24.077   4.788
68496W        W29785   9.663   7.704   2.370
68497W        W29786   6.890  15.714  14.014
68498W        W29787  23.002  11.324  14.329
68499W        W29788  35.374  31.068  12.571
68500W        W29789   2.316  25.979   3.263
68501W        W29790  12.316  27.081  12.430
68502W        W29791  14.723  39.368  13.380
68503W        W29792  27.596  36.447   0.875
68504W        W29793  39.923  39.878   3.675
68505W        W29794  15.101  36.028   1.299
68506W        W29795  11.252  26.987   0.924
68507W        W29796  13.258  38.843   2.194
68508W        W29797  20.051  39.479  11.415
68509W        W29798  24.678  36.451  10.409
68510W        W29799  38.881  40.312  12.383
68511W        W29800  38.403  38.344  13.942
68512W        W29801  14.134  17.092   4.255
68513W        W29802  12.274  41.040   1.860
68514W        W29803  14.163   4.849  14.947
68515W        W29804  13.829  21.741  14.347
68516W        W29805  28.137  23.612  12.855
68517W        W29806   1.843  41.791   0.923
68518W        W29807  38.383   8.687  14.426
68519W        W29808   7.254   2.288  13.875
68520W        W29809   7.696  18.727  10.446
68521W        W29810  37.509  38.912  12.061
68522W        W29811  33.622   2.441   3.677
68523W        W29812  22.656  12.618   9.923
68524W        W29813   3.444  34.589   0.325
68525W        W29814  10.699   5.440   1.400
68526W        W29815  42.030   7.188  13.367
68527W        W29816  23.995  28.634  12.041
68528W        W29817   5.327  13.761   1.791
68529W        W29818  24.057   6.735   3.334
68530W        W29819  32.140  21.574   4.327
68531W        W29820  26.525  29.057  12.463
68532W        W29821  44.910   4.759   4.313
68533W        W29822   2.446   1.328  14.338
68534W        W29823  32.450  17.738  12.477
68535W        W29824  24.107  11.283   1.383
68536W        W29825  36.987  26.587   2.392
68537W        W29826  34.047   7.703  14.938
68538W        W29827  17.103  16.596  12.521
68539W        W29828  44.376  32.391  12.997
68540W        W29829  15.692  40.051   1.338
68541W        W29830   3.816  21.131   3.725
68542W        W29831  34.038  32.552  12.348
68543W        W29832  11.863  17.093   2.888
68544W        W29833  26.994   2.308  14.903
68545W        W29834  33.597  43.939  14.796
68546W        W29835  27.660  20.650   2.348
68547W        W29836  27.624   0.973   4.290
68548W        W29837  18.211  25.019   0.743
68549W        W29838  24.512  42.915   1.852
68550W        W29839   1.940  42.858   1.923
68551W        W29840  14.292   1.908   1.894
68552W        W29841   0.393  27.160   2.828
68553W        W29842  36.862   9.222  14.026
68554W        W29843  30.031   4.764   0.441
68555W        W29844  36.011   5.325   0.962
68556W        W29845  38.551  28.544  14.972
68557W        W29846  17.119   6.853  12.404
68558W        W29847  13.168   5.907  14.796
68559W        W29848  35.064  18.294   3.367
68560W        W29849  24.108  29.919   3.638
68561W        W29850  39.893   6.235   0.838
68562W        W29851   7.333  12.258   1.303
68563W        W29852  11.732  42.390   1.391
68564W        W29853  37.460  41.896  12.564
68565W        W29854   2.908  34.531   2.828
68566W        W29855  21.706   2.392  12.991
68567W        W29856  43.894  37.363  13.805
68568W        W29857  44.373  40.505   3.293
68569W        W29858   4.287  28.656   2.289
68570W        W29859   6.327   0.904   2.876
68571W        W29860  34.411  11.373   3.213
68572W        W29861  29.922  35.461   4.630
68573W        W29862  10.283  21.239  12.854
68574W        W29863  32.103   0.412  10.900
68575W        W29864   2.818  18.115  14.960
68576W        W29865   1.921   7.722   2.230
68577W        W29866  17.674   5.718  11.048
68578W        W29867  36.988  19.596   1.239
68579W        W29868  30.561  21.655  14.392
68580W        W29869  35.089   9.709   3.309
68581W        W29870  30.093  30.107   3.288
68582W        W29871  43.441   2.905  11.491
68583W        W29872  29.117   8.291   0.766
68584W        W29873   7.721   0.899  14.485
68585W        W29874  40.924  37.367   1.717
68586W        W29875   3.392  33.982   3.306
68587W        W29876  28.145  19.566   1.252
68588W        W29877  22.546  27.964   3.156
68589W        W29878  42.797  28.951   0.741
68590W        W29879  29.645  37.982   0.763
68591W        W29880   3.749  21.088   5.207
68592W        W29881  16.643  15.166   3.180
68593W        W29882  17.664  17.187   0.828
68594W        W29883  16.126  10.843   3.203
68595W        W29884  35.032   6.230   0.919
68596W        W29885  23.069  31.944   5.219
68597W        W29886   2.394  18.277   4.828
68598W        W29887  11.263  10.797   2.898
68599W        W29888  12.207  12.844   3.150
68600W        W29889  30.579   0.392   1.434
68601W        W29890   8.175   7.797  14.834
68602W        W29891  36.961  12.813  14.498
68603W        W29892  28.661  26.069  11.421
68604W        W29893  20.109  19.667  10.066
68605W        W29894   0.329   8.707   2.842
68606W        W29895   0.272   7.821  12.543
68607W        W29896  29.007  22.623   3.776
68608W        W29897  23.576  41.993   2.235
68609W        W29898   8.845  27.625   0.333
68610W        W29899  26.984  12.820  14.998
68611W        W29900  25.637  19.622   9.615
68612W        W29901   8.354  24.637  12.966
68613W        W29902  36.496  23.095   1.397
68614W        W29903  41.002  40.340   0.761
68615W        W29904  20.629  30.115   4.166
68616W        W29905  31.922  26.118  11.061
68617W        W29906  38.924   9.250   0.923
68618W        W29907   1.344  41.517   0.464
68619W        W29908  22.711  40.975   4.292
68620W        W29909  31.923  37.950  12.976
68621W        W29910  30.097  23.511  12.032
68622W        W29911  31.560  39.870  14.865
68623W        W29912  20.165  40.809   3.227
68624W        W29913  23.027  13.300   0.330
68625W        W29914   3.244  41.808   2.303
68626W        W29915  13.708  22.135   9.947
68627W        W29916  21.163   6.881  10.616
68628W        W29917  22.574  29.133  14.318
68629W        W29918  29.564   4.329   9.582
68630W        W29919   3.798  10.803  11.600
68631W        W29920  41.935  11.364  14.837
68632W        W29921  42.417  21.718  12.028
68633W        W29922  13.214  41.864  11.571
68634W        W29923  41.371  12.650  10.459
68635W        W29924  14.248  33.881  12.889
68636W        W29925   6.835  12.328  10.994
68637W        W29926  39.408   9.761  11.466
68638W        W29927   2.351  24.216  12.553
68639W        W29928  30.569  32.535  13.028
68640W        W29929   6.362  40.474  14.759
68641W        W29930  44.907   9.765  13.054
68642W        W29931   3.941   9.860   4.331
68643W        W29932  27.641   3.304   4.255
68644W        W29933  25.109   6.835   0.334
68645W        W29934  29.442  14.790   1.353
68646W        W29935  32.993   4.853   3.775
68647W        W29936  41.447  18.181  10.428
68648W        W29937  31.106  27.069  11.495
68649W        W29938  19.202  30.522   0.864
68650W        W29939  28.133  24.115   5.182
68651W        W29940  41.879  28.680  11.882
68652W        W29941  15.581  30.547   0.246
68653W        W29942   0.282  10.797   2.812
68654W        W29943  44.908   7.715  11.482
68655W        W29944   9.880  18.226  11.953
68656W        W29945  17.709   9.823   3.694
68657W        W29946  37.963  30.570   3.817
68658W        W29947  44.449  41.432  13.854
68659W        W29948  15.113  13.269  10.463
68660W        W29949   8.769   0.846   0.918
68661W        W29950  10.372  27.952   2.339
68662W        W29951   2.316  41.967   1.840
68663W        W29952  22.651  16.142   0.314
68664W        W29953   7.750  21.055   3.674
68665W        W29954  23.595  38.024   1.876
68666W        W29955   2.364  38.044  10.645
68667W        W29956   4.723  14.246  10.893
68668W        W29957  10.726   3.309   0.783
68669W        W29958   5.386  37.058  13.379
68670W        W29959  11.693  18.556  13.917
68671W        W29960  35.412  19.122   5.263
68672W        W29961  24.646  40.482   0.746
68673W        W29962  34.593   8.233  12.854
68674W        W29963  22.083  38.509  14.942
68675W        W29964  23.654  40.519  14.886
68676W        W29965  17.205   1.483  12.970
68677W        W29966  10.720  27.652  14.468
68678W        W29967  15.635   5.324   0.800
68679W        W29968  24.535  43.408   1.255
68680W        W29969  15.268  26.681  14.384
68681W        W29970   1.294  27.179   3.162
68682W        W29971  13.626  35.444  12.371
68683W        W29972  16.092  41.352   0.255
68684W        W29973  21.673   1.296  10.600
68685W        W29974  24.660   8.837  12.021
68686W        W29975  38.904  29.514   2.739
68687W        W29976   8.257   5.773   3.298
68688W        W29977  44.762   9.389  13.019
68689W        W29978  24.482   1.311   2.403
68690W        W29979  30.054  23.659   2.370
68691W        W29980  13.333  44.884   3.300
68692W        W29981  30.622  14.302  10.539
68693W        W29982   1.732  20.639   3.277
68694W        W29983  21.125  14.206   1.269
68695W        W29984  43.507  33.055   1.234
68696W        W29985  33.469  28.533  12.376
68697W        W29986  24.985  42.462   2.290
68698W        W29987   7.687  33.576  12.469
68699W        W29988  23.052   0.972   1.286
68700W        W29989  41.382  32.142  11.602
68701W        W29990  18.136  30.613  12.538
68702W        W29991   4.239  42.295   1.330
68703W        W29992   9.271   9.156  13.877
68704W        W29993  42.374  17.748   1.800
68705W        W29994  43.011  32.055   4.676
68706W        W29995  26.625  36.504  13.349
68707W        W29996   3.925  34.034   1.728
68708W        W29997  37.053   5.926  14.826
68709W        W29998  20.602  11.219  10.552
68710W        W29999  36.574  24.595   4.244
68711W        W30000  25.026  21.256  14.977
68712W        W30001  44.950  42.397   3.714
68713W        W30002   5.742  19.703  10.481
68714W        W30003  29.608  40.915   1.697
68715W        W30004  16.571  42.404  14.306
68716W        W30005  30.649   0.956   4.215
68717W        W30006  22.741  41.322  14.977
68718W        W30007  28.099  37.858  10.609
68719W        W30008  31.422  44.261   4.604
68720W        W30009  12.617   8.298  10.563
68721W        W30010   4.336  38.022   0.467
68722W        W30011  36.012  42.880   1.742
68723W        W30012   5.734  25.016  14.924
68724W        W30013  36.073   5.809  10.539
68725W        W30014  13.257  44.839  12.933
68726W        W30015  24.212  36.870  13.934
68727W        W30016  28.607   4.278  10.596
68728W        W30017  39.366  19.172  12.844
68729W        W30018  37.952  15.322   5.225
68730W        W30019  12.768  25.633  12.434
68731W        W30020  37.948  38.503   0.843
68732W        W30021   7.194  14.208   3.195
68733W        W30022  30.484  17.716   1.877
68734W        W30023  43.427  30.994   0.271
68735W        W30024  41.367   8.348  12.881
68736W        W30025  21.257   3.777   1.330
68737W        W30026   6.718  34.487   0.897
68738W        W30027  13.790   8.210   2.201
68739W        W30028  27.132  40.970   0.315
68740W        W30029  18.569  42.889   0.463
68741W        W30030  44.928  22.695   2.419
68742W        W30031  32.598  37.518  11.477
68743W        W30032  24.127  11.269   2.852
68744W        W30033   4.781   9.304  14.330
68745W        W30034  44.275   5.226   1.819
68746W        W30035  14.801  44.808  14.408
68747W        W30036  36.591  19.269   1.710
68748W        W30037   5.884  28.969   0.361
68749W        W30038  43.377  24.627   2.781
68750W        W30039  29.509  38.873   0.793
68751W        W30040   3.733   0.748   3.250
68752W        W30041   7.389  43.361  14.415
68753W        W30042  39.999  19.204   4.735
68754W        W30043  27.001   6.287  11.961
68755W        W30044  30.044  15.151  13.320
68756W        W30045  32.447  38.504   3.235
68757W        W30046  21.605  28.496  11.015
68758W        W30047   3.370  18.694   1.915
68759W        W30048   5.284  27.068  14.353
68760W        W30049  38.492  18.074  14.875
68761W        W30050  28.508  19.754  12.926
68762W        W30051  29.457   2.889  12.488
68763W        W30052  14.213  18.595  14.796
68764W        W30053  21.129  41.971  12.031
68765W        W30054  35.561  10.640  12.908
68766W        W30055  36.027  28.606  12.513
68767W        W30056  41.319  43.430   3.187
68768W        W30057   7.863  32.595  12.845
68769W        W30058  15.282   2.940  11.469
68770W        W30059  32.468   2.278  10.921
68771W        W30060  42.991  10.760   1.808
68772W        W30061  40.315  25.079   5.256
68773W        W30062   3.807  29.929   3.189
68774W        W30063  43.835   4.715  12.903
68775W        W30064  17.259  14.689   0.340
68776W        W30065  43.300   6.239  12.976
68777W        W30066  25.989  21.229  12.367
68778W        W30067  19.664  23.069  14.303
68779W        W30068  43.339  26.511   4.697
68780W        W30069  13.737  44.932   5.162
68781W        W30070   8.262  35.387   1.225
68782W        W30071  38.056  30.532   4.796
68783W        W30072   1.429   1.404   1.927
68784W        W30073  18.727  28.945  11.892
68785W        W30074  20.540  24.637   4.726
68786W        W30075  22.038   0.485  11.408
68787W        W30076  18.705  21.537  13.325
68788W        W30077  40.353  35.045   3.762
68789W        W30078  18.602   9.243   4.130
68790W        W30079   7.268  36.349  13.427
68791W        W30080  23.195  30.553   0.456
68792W        W30081  26.596  17.646   0.389
68793W        W30082  18.751  25.491   3.775
68794W        W30083   3.284   0.772  12.546
68795W        W30084  43.882  30.087  12.405
68796W        W30085  19.135   5.915   4.161
68797W        W30086  33.087  42.891   5.304
68798W        W30087  16.092  21.244  13.919
68799W        W30088  28.542  41.502  13.002
68800W        W30089  20.206   6.821  12.454
68801W        W30090  24.173   1.452   2.714
68802W        W30091  14.112  26.531  10.563
68803W        W30092   3.333  32.391  12.428
68804W        W30093  29.482  26.564  13.424
68805W        W30094   3.772  30.630   3.198
68806W        W30095   2.780  25.128  11.877
68807W        W30096  31.440  41.535   3.805
68808W        W30097  14.809  35.469  10.514
68809W        W30098  42.291  28.490  10.406
68810W        W30099  14.154  31.517   3.354
68811W        W30100   5.886  10.700   4.620
68812W        W30101  30.557  36.079  11.459
68813W        W30102   2.450  28.677   3.283
68814W        W30103  10.280  23.520  14.474
68815W        W30104   4.775  30.931   1.835
68816W        W30105   5.355  39.006   1.825
68817W        W30106   7.687  32.576  10.891
68818W        W30107  31.629  40.948  12.055
68819W        W30108  42.804  38.894   4.820
68820W        W30109  13.766   7.310  14.024
68821W        W30110   9.665   4.240   2.801
68822W        W30111   2.737  19.747  11.033
68823W        W30112  23.237  44.828   4.180
68824W        W30113  35.540  33.131  14.833
68825W        W30114  12.192   8.848   0.289
68826W        W30115  26.600  35.973  10.552
68827W        W30116  34.500  36.870   0.411
68828W        W30117  22.116  34.979  13.899
68829W        W30118  24.599  42.013   4.174
68830W        W30119  23.614   5.263  13.837
68831W        W30120  22.145  18.733  14.845
68832W        W30121   5.231  40.988  14.411
68833W        W30122  10.633   1.803   1.322
68834W        W30123  16.095  17.771   4.677
68835W        W30124  40.958  25.181  12.430
68836W        W30125   8.844  19.762   0.923
68837W        W30126  30.488   7.218   2.849
68838W        W30127   1.277  42.885  13.503
68839W        W30128  27.033   0.948   3.797
68840W        W30129  10.714  16.304   0.328
68841W        W30130   6.801  36.402   1.706
68842W        W30131   8.816  29.998  14.897
68843W        W30132  33.555   7.314   3.772
68844W        W30133  37.967  21.230   2.249
68845W        W30134  17.621  12.268   1.414
68846W        W30135  36.431   7.768   3.203
68847W        W30136   4.223  33.003  10.955
68848W        W30137   9.792  42.829  10.489
68849W        W30138  22.021   1.732   4.773
68850W        W30139  18.058  33.473  14.474
68851W        W30140  18.054   5.772  13.543
68852W        W30141  21.559   4.380   2.349
68853W        W30142  33.890   0.474   4.666
68854W        W30143  25.064   8.200   4.160
68855W        W30144   4.339   0.268  14.946
68856W        W30145  42.979  21.694  14.968
68857W        W30146  31.980  36.558  12.486
68858W        W30147  28.584  15.271   0.780
68859W        W30148  33.925  39.430   2.800
68860W        W30149   6.364  10.375   2.811
68861W        W30150  36.351  32.115  14.385
68862W        W30151   3.874  18.161  12.388
68863W        W30152  29.017  23.017   0.431
68864W        W30153  10.315  11.306  14.468
68865W        W30154  26.495  15.144   1.867
68866W        W30155  15.175  33.894   3.709
68867W        W30156  26.457  16.578  14.440
68868W        W30157   7.316  23.627   1.934
68869W        W30158  38.345  38.461  10.432
68870W        W30159  24.551  32.393   4.147
68871W        W30160   2.929  27.592  12.579
68872W        W30161  42.322  13.263   4.180
68873W        W30162  15.675  31.903   4.118
68874W        W30163  34.543   8.364   4.169
68875W        W30164  20.674  13.737   0.473
68876W        W30165  42.871  39.331  12.017
68877W        W30166   9.371  24.597   1.750
68878W        W30167  11.349   2.348  10.592
68879W        W30168  13.269  16.800  10.617
68880W        W30169  16.129  43.890   2.757
68881W        W30170   3.773  31.964  10.470
68882W        W30171  36.451  21.630   4.289
68883W        W30172  19.127  16.811  11.490
68884W        W30173  42.912  21.744   1.914
68885W        W30174  26.075  43.019  12.430
68886W        W30175   3.810  37.852   2.211
68887W        W30176  34.469  31.896  11.015
68888W        W30177  17.285   0.358  11.942
68889W        W30178  42.462   3.754  14.292
68890W        W30179  24.590  30.067  11.436
68891W        W30180  41.368  21.036   0.759
68892W        W30181  32.132  33.395   1.844
68893W        W30182   4.390  39.943   0.441
68894W        W30183  11.628  43.468   1.273
68895W        W30184  24.049  21.246   1.764
68896W        W30185  22.574  39.060   3.741
68897W        W30186  10.368  34.527  14.483
68898W        W30187  35.095  42.843  12.487
68899W        W30188  19.628  43.291  11.012
68900W        W30189   8.377  21.213  13.467
68901W        W30190  41.032  21.629  10.936
68902W        W30191   0.432  39.487   0.255
68903W        W30192  37.521  44.293   4.347
68904W        W30193   8.165   5.305  11.913
68905W        W30194  36.347   6.230  13.907
68906W        W30195  17.276  35.568  14.326
68907W        W30196  26.189  37.375   3.699
68908W        W30197  38.070  17.603  13.978
68909W        W30198  24.132  33.416   3.678
68910W        W30199  22.234   9.256  14.905
68911W        W30200  16.266  24.135   0.272
68912W        W30201  28.667  27.467  14.390
68913W        W30202  22.520   6.188  14.934
68914W        W30203  30.121  10.782   1.429
68915W        W30204   8.276  10.762  10.523
68916W        W30205  22.007  38.558   3.869
68917W        W30206  39.885  34.569  10.581
68918W        W30207  44.458  19.276   2.776
68919W        W30208  23.723  21.204   2.710
68920W        W30209   7.243  34.959   2.287
68921W        W30210   0.848  20.117  12.436
68922W        W30211   2.420  25.030  10.011
68923W        W30212  22.504   7.319   3.710
68924W        W30213  33.585  35.998  10.442
68925W        W30214  24.007  17.713  13.870
68926W        W30215  18.159   8.265  10.937
68927W        W30216  17.653  36.480  14.968
68928W        W30217   4.447  15.106  10.910
68929W        W30218  14.298   1.293   1.735
68930W        W30219  26.010  14.631  13.517
68931W        W30220   1.778  13.751  14.832
68932W        W30221   9.658  26.199   1.271
68933W        W30222  24.724  17.597   0.300
68934W        W30223  12.312   7.887  12.355
68935W        W30224  38.341  13.336  12.537
68936W        W30225  42.285   3.723  10.502
68937W        W30226  43.405   7.188   3.279
68938W        W30227  11.165  13.288  11.979
68939W        W30228  23.184  27.019  14.308
68940W        W30229  16.647  33.907  10.529
68941W        W30230  18.178  29.498  13.503
68942W        W30231  20.133   6.900  13.430
68943W        W30232   5.198  30.136   1.368
68944W        W30233  35.417   7.680  11.013
68945W        W30234  27.141  43.850   1.808
68946W        W30235  12.182  33.442  11.523
68947W        W30236  25.607  14.298   4.228
68948W        W30237  25.477   9.251   3.146
68949W        W30238  27.999  38.072  14.410
68950W        W30239  29.513  31.903   3.211
68951W        W30240  29.480  16.646   3.148
68952W        W30241  39.514   6.842   3.756
68953W        W30242  11.197  10.222   4.214
68954W        W30243  24.603  30.936  11.902
68955W        W30244  32.608   5.203   2.275
68956W        W30245  25.575  37.508   2.704
68957W        W30246  43.331  36.945   3.679
68958W        W30247  26.033   8.272   3.630
68959W        W30248  29.929  26.207   2.200
68960W        W30249  42.905  14.143   0.763
68961W        W30250  34.411  40.963  14.344
68962W        W30251  20.630   7.200  11.504
68963W        W30252  40.881  28.614  11.033
68964W        W30253  29.534  43.892  13.366
68965W        W30254  42.283  31.537   3.746
68966W        W30255  29.076  19.075  12.346
68967W        W30256  14.780  21.609  12.961
68968W        W30257  10.833  35.047   4.676
68969W        W30258  40.868   3.758  10.510
68970W        W30259  30.451  38.957  11.002
68971W        W30260  22.540  30.560  11.084
68972W        W30261  26.695  37.577  10.905
68973W        W30262  42.283  19.107  13.504
68974W        W30263  24.653   7.212  11.485
68975W        W30264  30.622  40.901  10.913
68976W        W30265   3.268  37.933   1.851
68977W        W30266  36.888  33.939   3.679
68978W        W30267   8.385   7.354   3.797
68979W        W30268   8.356  25.558   3.257
68980W        W30269   7.226   0.449   3.326
68981W        W30270  25.153  18.282   2.776
68982W        W30271  33.527   0.440   3.757
68983W        W30272  13.846  10.195   4.835
68984W        W30273  31.422   8.374  13.329
68985W        W30274   5.702  21.180  12.953
68986W        W30275  14.226  33.543  11.479
68987W        W30276  34.110  32.941   1.377
68988W        W30277  33.897  19.540  12.416
68989W        W30278  17.648  16.600   1.309
68990W        W30279   3.908  11.136  11.399
68991W        W30280  22.712  25.712   4.680
68992W        W30281  11.695  26.991  12.438
68993W        W30282  28.023  28.944  11.482
68994W        W30283  43.875  41.448   1.264
68995W        W30284  19.195  10.725   2.391
68996W        W30285  26.683  18.142  13.063
68997W        W30286   8.839  44.997  10.069
68998W        W30287  30.119  40.526   0.430
68999W        W30288  24.493  26.034   9.641
69000W        W30289   7.804  43.407  13.547
69001W        W30290   6.224  16.784   1.218
69002W        W30291  32.127  28.671   0.897
69003W        W30292   9.152   0.413  14.993
69004W        W30293   0.290  19.631   4.744
69005W        W30294   9.816  39.491  12.484
69006W        W30295  21.235  20.125   1.817
69007W        W30296   0.480   0.881  14.315
69008W        W30297  25.689  16.803   1.370
69009W        W30298  17.228   1.274  10.998
69010W        W30299  24.688   4.722  14.858
69011W        W30300  26.959  23.229   3.638
69012W        W30301   5.208  34.934  13.903
69013W        W30302  15.819  21.663  12.387
69014W        W30303   7.215  29.537  11.859
69015W        W30304   0.297  40.948   2.797
69016W        W30305  25.510   1.257   0.848
69017W        W30306   2.879   7.787  14.473
69018W        W30307  38.937  34.609  11.889
69019W        W30308  35.098  20.271  13.510
69020W        W30309  43.989  12.119   0.769
69021W        W30310  22.074   1.858  10.903
69022W        W30311  17.239  10.283   3.749
69023W        W30312  41.309   6.354   0.852
69024W        W30313  10.677   1.349   3.766
69025W        W30314  28.673  32.412   3.233
69026W        W30315  23.518  33.126  14.829
69027W        W30316  41.308   2.852   2.281
69028W        W30317  10.695  30.155  10.110
69029W        W30318  32.423  18.624   2.856
69030W        W30319   0.904  17.583   2.210
69031W        W30320  15.292  36.353   3.354
69032W        W30321  36.583  18.260   0.959
69033W        W30322   0.282   9.755   9.448
69034W        W30323  38.831  31.934   5.171
69035W        W30324   3.859  21.514   3.250
69036W        W30325  22.565  31.931  13.057
69037W        W30326  34.120  28.489  12.885
69038W        W30327  40.378  35.514   1.341
69039W        W30328  27.126  33.418   1.912
69040W        W30329  32.983  30.115  11.977
69041W        W30330  22.599   1.810  12.837
69042W        W30331  18.583  36.097   4.830
69043W        W30332  39.902   7.256   1.222
69044W        W30333  36.573  39.496   3.641
69045W        W30334  33.950  15.106  14.927
69046W        W30335   4.706  44.352   3.735
69047W        W30336  13.801  14.770   3.701
69048W        W30337  44.936  40.798  14.788
69049W        W30338  24.001   8.859   4.328
69050W        W30339   2.351  34.018   1.928
69051W        W30340  43.906  30.981   3.704
69052W        W30341  39.943  15.619   0.312
69053W        W30342  24.579   5.859  13.818
69054W        W30343   3.855  23.503  10.002
69055W        W30344  40.501   1.799  13.805
69056W        W30345  27.102   5.902   0.321
69057W        W30346   5.716  34.594   3.232
69058W        W30347  29.468  11.837   0.270
69059W        W30348  32.026  13.236  13.492
69060W        W30349  23.040  34.572  14.420
69061W        W30350  26.201  16.226  11.390
69062W        W30351  15.126  12.261  11.973
69063W        W30352  22.172  13.113   2.701
69064W        W30353  37.377   7.340   4.699
69065W        W30354   3.900   1.876   4.250
69066W        W30355   6.395  22.215   0.410
69067W        W30356  31.071   3.375   2.848
69068W        W30357   6.402  24.066  11.567
69069W        W30358  37.997  44.383   4.631
69070W        W30359   2.867  41.817   0.315
69071W        W30360  30.587  31.444  12.462
69072W        W30361   9.874  26.009   2.249
69073W        W30362  38.412  40.928  10.563
69074W        W30363  16.303  17.677  13.459
69075W        W30364   1.862  44.343  14.897
69076W        W30365  10.700  21.198  14.274
69077W        W30366  14.666  17.284  12.481
69078W        W30367  13.273  23.561   2.391
69079W        W30368  27.987  39.021  14.936
69080W        W30369   5.851  34.581   2.223
69081W        W30370  44.411  37.385   4.779
69082W        W30371  35.888  36.533   0.744
69083W        W30372   3.364  42.522  12.942
69084W        W30373  17.300  36.359   1.746
69085W        W30374   8.196  34.433   2.751
69086W        W30375  11.151  17.256   2.891
69087W        W30376  11.286  26.466   3.222
69088W        W30377  34.478  43.327   2.254
69089W        W30378  29.667  27.603   1.414
69090W        W30379  38.935  35.921   4.623
69091W        W30380  31.152  24.217  10.433
69092W        W30381   7.325  41.012   3.705
69093W        W30382  25.072   5.850  11.044
69094W        W30383   6.902  33.021  13.985
69095W        W30384   1.834  41.348   0.964
69096W        W30385  22.245  33.426   1.875
69097W        W30386  44.329  15.092  11.012
69098W        W30387  32.528  43.406  13.385
69099W        W30388  33.979  29.431  14.001
69100W        W30389  33.409  40.973  14.769
69101W        W30390  34.908  24.551  11.886
69102W        W30391   0.393  34.581  11.858
69103W        W30392   3.892   5.304  13.543
69104W        W30393  25.987  11.721  13.007
69105W        W30394   6.241  40.864  10.418
69106W        W30395  18.670  43.453  14.446
69107W        W30396  37.518  25.125   4.728
69108W        W30397  38.471  40.893  13.332
69109W        W30398  19.127  31.521  14.952
69110W        W30399  15.090  38.890   3.753
69111W        W30400  43.879  13.107  12.531
69112W        W30401  24.196  34.890  14.820
69113W        W30402  30.655   9.200  14.025
69114W        W30403  44.768  19.588   1.850
69115W        W30404  29.127  23.494  10.948
69116W        W30405  34.010  24.090   3.290
69117W        W30406  12.752  11.679   0.323
69118W        W30407   6.754  17.220  12.408
69119W        W30408  21.681  44.431   3.662
69120W        W30409  26.113  37.953   1.375
69121W        W30410  35.428  12.138  10.441
69122W        W30411  21.175  27.135  11.441
69123W        W30412  21.199  44.414   2.820
69124W        W30413  10.280   8.405  14.849
69125W        W30414  39.835  35.957  11.870
69126W        W30415  19.187  27.539   2.410
69127W        W30416  11.815  39.520  14.027
69128W        W30417   9.686   4.248   4.792
69129W        W30418   8.225  37.343   0.460
69130W        W30419  24.544   9.771   5.114
69131W        W30420   0.936  21.652  14.865
69132W        W30421   0.849  31.532   0.278
69133W        W30422  11.229  39.005  14.329
69134W        W30423  22.072  40.014  14.765
69135W        W30424  10.372  33.600   3.772
69136W        W30425   9.672   5.723   3.823
69137W        W30426  23.570   4.399  13.888
69138W        W30427  27.946  40.918   0.733
69139W        W30428  42.462  10.347   2.396
69140W        W30429   8.345   8.821   1.735
69141W        W30430  20.168  21.234  11.098
69142W        W30431   2.409  24.200   0.360
69143W        W30432  34.947  27.146   1.269
69144W        W30433  14.124  37.002  14.903
69145W        W30434  40.932  44.360  11.959
69146W        W30435  34.964  14.755   0.257
69147W        W30436  17.287  26.145  14.931
69148W        W30437  19.610   6.314   0.320
69149W        W30438  37.503   2.760   2.248
69150W        W30439  20.177  28.032  12.506
69151W        W30440  31.922   3.395   3.753
69152W        W30441  11.838  31.944   3.170
69153W        W30442  26.048  24.222  11.493
69154W        W30443   6.877  29.450  11.908
69155W        W30444  36.484  31.142   1.809
69156W        W30445  11.163  21.517   0.274
69157W        W30446   5.415  19.542  14.360
69158W        W30447  16.142  28.528   0.850
69159W        W30448  34.465  11.627   2.413
69160W        W30449  41.320  12.215   4.739
69161W        W30450  38.511  16.718  14.893
69162W        W30451  18.645  20.177  10.481
69163W        W30452  39.345  10.801  11.105
69164W        W30453  38.490  44.814  13.964
69165W        W30454  12.165  10.294   2.715
69166W        W30455  40.387  30.922   2.804
69167W        W30456  11.694  32.138  12.955
69168W        W30457  28.030  28.465  10.478
69169W        W30458  39.466  21.135   2.780
69170W        W30459  34.575  20.107  14.471
69171W        W30460   2.379  21.033   5.214
69172W        W30461  29.045   8.666   0.265
69173W        W30462  12.210  28.560  12.457
69174W        W30463   8.729   0.261  13.506
69175W        W30464   2.286  22.562   4.257
69176W        W30465  33.542   0.942  13.808
69177W        W30466  42.432  16.205   2.384
69178W        W30467   6.692  39.014   1.859
69179W        W30468  22.162  11.738   0.419
69180W        W30469  32.600  40.930  11.063
69181W        W30470  30.983  41.848  13.465
69182W        W30471  41.327  18.680   1.833
69183W        W30472   9.851  23.533   4.224
69184W        W30473  10.733  44.268  12.377
69185W        W30474   4.713  44.451   1.285
69186W        W30475  20.582  23.589   3.759
69187W        W30476  41.413   0.249  13.386
69188W        W30477  19.138  30.157   2.818
69189W        W30478  43.425   6.824   0.753
69190W        W30479  25.198  13.304   3.692
69191W        W30480   3.795  26.592   2.194
69192W        W30481   6.426   9.737   1.819
69193W        W30482  14.338  17.089   0.358
69194W        W30483  10.773   2.264  12.897
69195W        W30484  25.021  22.650   0.878
69196W        W30485   8.330  29.143  10.901
69197W        W30486  10.837   6.848   2.713
69198W        W30487   6.409  22.162   3.719
69199W        W30488  17.307  25.157  14.438
69200W        W30489  16.284   4.392  14.416
69201W        W30490  33.604   6.699  13.311
69202W        W30491  26.660  36.348  10.635
69203W        W30492  29.929  15.804   3.689
69204W        W30493  15.264  26.975  11.597
69205W        W30494  36.426  38.448   4.626
69206W        W30495  27.032  15.691  12.959
69207W        W30496  39.989  17.201  12.497
69208W        W30497   2.890  36.929  10.511
69209W        W30498   2.342  12.841  12.923
69210W        W30499  26.595  15.110  12.930
69211W        W30500   4.340  10.265  14.012
69212W        W30501   3.792   3.367   3.200
69213W        W30502  14.179  20.700  12.912
69214W        W30503  14.738   7.185  13.465
69215W        W30504  44.260  37.853  10.445
69216W        W30505  30.046  27.024  15.000
69217W        W30506  29.146   5.314   2.253
69218W        W30507  17.574  37.902   4.646
69219W        W30508  17.789   7.906  10.434
69220W        W30509  34.519  40.442   3.273
69221W        W30510  11.162  42.807  11.075
69222W        W30511  42.390  35.376   4.185
69223W        W30512   0.413   7.253  12.052
69224W        W30513  15.601  11.324  12.421
69225W        W30514  25.511  39.377  10.943
69226W        W30515   8.302   1.860  11.611
69227W        W30516  20.199  37.435  13.807
69228W        W30517   9.809  27.956   4.246
69229W        W30518  11.344  25.197  11.561
69230W        W30519  33.444   3.296  10.596
69231W        W30520   0.803  38.427  12.413
69232W        W30521  31.133  28.606   0.459
69233W        W30522  17.139  19.697   0.730
69234W        W30523  32.022  44.904  10.548
69235W        W30524   6.892  19.146  13.861
69236W        W30525  18.269  15.299  12.993
69237W        W30526  23.195   4.919  12.856
69238W        W30527  23.734  11.193   2.806
69239W        W30528  19.593  44.843   3.180
69240W        W30529  42.481  25.564  14.912
69241W        W30530  23.048   4.780  13.450
69242W        W30531  42.028  11.279  12.470
69243W        W30532  16.182  15.780  14.478
69244W        W30533  16.630  31.921   3.183
69245W        W30534  14.254  25.966   3.152
69246W        W30535  44.505  26.673   4.751
69247W        W30536  32.047  27.115   0.296
69248W        W30537  35.969   8.371   4.162
69249W        W30538   2.261  22.624   1.793
69250W        W30539   6.807  25.633   2.260
69251W        W30540  12.210  19.774   3.845
69252W        W30541   6.278  36.943   2.187
69253W        W30542  18.095  31.565  14.320
69254W        W30543   3.450   1.330   1.334
69255W        W30544  12.732  39.925   1.700
69256W        W30545  37.836  41.855   2.742
69257W        W30546  30.163   4.857   2.248
69258W        W30547  19.679   3.859   4.181
69259W        W30548  11.369  28.059  10.486
69260W        W30549  39.997  14.670  13.379
69261W        W30550  26.626  23.222  10.947
69262W        W30551   1.363  14.209   0.829
69263W        W30552   7.202  41.454   1.255
69264W        W30553  28.001   8.771  13.445
69265W        W30554   8.252  26.486  13.838
69266W        W30555  17.064  32.933   4.745
69267W        W30556  40.815  16.574  12.909
69268W        W30557  32.977   6.394   4.298
69269W        W30558  24.537  20.626   1.833
69270W        W30559  16.758  11.215   1.353
69271W        W30560  36.507  26.571  10.036
69272W        W30561   7.346   4.252   4.221
69273W        W30562  20.541  14.259  13.796
69274W        W30563  43.984  22.028   0.858
69275W        W30564  36.562  32.097   4.239
69276W        W30565  39.922  38.019  13.517
69277W        W30566  42.508  18.228   3.703
69278W        W30567  14.708  16.594  11.945
69279W        W30568   6.739  29.449   4.613
69280W        W30569   7.178  32.953   4.837
69281W        W30570  35.500  39.379  11.028
69282W        W30571  23.588   2.730   2.779
69283W        W30572   5.339   7.868   0.825
69284W        W30573  27.610  40.344   2.849
69285W        W30574   8.341   3.409   0.834
69286W        W30575  12.833  22.601   4.702
69287W        W30576  36.403  23.593   3.714
69288W        W30577  39.030  13.270  12.880
69289W        W30578   2.237  30.506   1.319
69290W        W30579  32.589   2.854  14.847
69291W        W30580  18.109  18.712   2.820
69292W        W30581  12.128  11.288   1.233
69293W        W30582  15.208  21.643  11.079
69294W        W30583  43.306  37.528  12.947
69295W        W30584  39.346  41.431  13.391
69296W        W30585  17.755  39.369  13.877
69297W        W30586  22.590  27.107   1.803
69298W        W30587  14.590  40.344  11.596
69299W        W30588   5.772  32.072  11.584
69300W        W30589   0.920   9.322   2.224
69301W        W30590  38.432  33.511  14.317
69302W        W30591   4.261  31.559  12.342
69303W        W30592  17.294   9.393   2.359
69304W        W30593  25.179   6.802  11.042
69305W        W30594  16.772  41.532  11.912
69306W        W30595  17.576  27.520   1.326
69307W        W30596  33.110  17.660  13.981
69308W        W30597   0.907  44.304  11.963
69309W        W30598  30.081   4.918   2.667
69310W        W30599  26.178  23.003  14.784
69311W        W30600  15.643  43.864  10.546
69312W        W30601  32.101   3.722  12.913
69313W        W30602  41.799  32.897  11.493
69314W        W30603  23.001  26.540  12.969
69315W        W30604  32.608  15.315  13.481
69316W        W30605  11.292  39.512  12.453
69317W        W30606  39.483  25.106  13.512
69318W        W30607  30.520   2.392   3.750
69319W        W30608  14.595  43.402  14.451
69320W        W30609  12.276  28.156   0.957
69321W        W30610  15.664  40.304   3.207
69322W        W30611  23.054  16.597  10.565
69323W        W30612   8.405  29.921  12.969
69324W        W30613   7.244   5.319   0.426
69325W        W30614  30.094  33.459  12.016
69326W        W30615  31.133  33.885  10.998
69327W        W30616  32.573  11.335   4.177
69328W        W30617  41.880   3.267  10.438
69329W        W30618   6.725  34.565   0.255
69330W        W30619  32.042  19.231  11.961
69331W        W30620  35.906  41.375   4.350
69332W        W30621  11.669   6.905   4.742
69333W        W30622  25.130  13.262   0.809
69334W        W30623  41.816  44.835  10.521
69335W        W30624   5.217   1.793   0.867
69336W        W30625  36.465  38.828   1.792
69337W        W30626   0.365  17.762   2.792
69338W        W30627  12.745  41.410   4.119
69339W        W30628  12.771  42.326   0.910
69340W        W30629  28.990  30.148  13.903
69341W        W30630  20.766  16.668  12.968
69342W        W30631  20.048  15.194   2.261
69343W        W30632  19.100   7.734  12.399
69344W        W30633  25.182  13.181   1.751
69345W        W30634   4.907   6.353  10.559
69346W        W30635  44.959  29.628   1.857
69347W        W30636  35.418   1.922  13.052
69348W        W30637  28.987  36.981   4.691
69349W        W30638   0.919   5.324  13.448
69350W        W30639   6.756  37.952  13.872
69351W        W30640  40.894  32.099   1.288
69352W        W30641   1.305  15.229   2.666
69353W        W30642  28.109  27.632  10.902
69354W        W30643  43.427  40.035   1.885
69355W        W30644  22.740  14.649   1.924
69356W        W30645  37.469  25.538  11.603
69357W        W30646  32.441   1.950   4.281
69358W        W30647  37.885  36.892   4.156
69359W        W30648  43.397   7.226  13.466
69360W        W30649  12.704  17.588   2.843
69361W        W30650  26.001  38.842   4.271
69362W        W30651  26.126  35.421  12.479
69363W        W30652   6.794   5.745  13.931
69364W        W30653  40.523  41.860  11.000
69365W        W30654  22.560  11.149  13.907
69366W        W30655  36.975  22.678   0.303
69367W        W30656  30.058  35.917  14.887
69368W        W30657  33.940  33.419  12.873
69369W        W30658  20.146   6.892   3.230
69370W        W30659   4.898  43.823  10.078
69371W        W30660  21.248   6.378  13.430
69372W        W30661  10.380  15.140   4.742
69373W        W30662  18.115   7.224  11.928
69374W        W30663  43.787  23.100  13.021
69375W        W30664  32.417   3.810   0.909
69376W        W30665  12.224  34.001   3.296
69377W        W30666  29.137  18.105  10.598
69378W        W30667   4.372  39.413   0.918
69379W        W30668  15.710  40.848  10.408
69380W        W30669  33.119  17.623   0.315
69381W        W30670  34.072  27.473   0.936
69382W        W30671  16.296  16.302  11.029
69383W        W30672  31.067  30.991   2.180
69384W        W30673  21.711  14.621   0.411
69385W        W30674  17.206   7.881  11.423
69386W        W30675  44.824  39.466  14.464
69387W        W30676  35.546  42.789   0.801
69388W        W30677  18.150  17.135   1.401
69389W        W30678  20.655  24.022   0.835
69390W        W30679   6.315   9.713   4.690
69391W        W30680   1.330  22.509   0.309
69392W        W30681  32.419  28.072   4.252
69393W        W30682  43.822  26.668  10.967
69394W        W30683   8.737  44.901   1.883
69395W        W30684  15.784  37.367  14.894
69396W        W30685  36.015  10.653  13.359
69397W        W30686  36.086  16.678  13.804
69398W        W30687  25.205  43.909  14.921
69399W        W30688  34.583  26.132  10.910
69400W        W30689   9.820  31.461  11.035
69401W        W30690  37.483  36.848   1.732
69402W        W30691   7.842  35.478   3.733
69403W        W30692  42.416  33.585  12.845
69404W        W30693  36.564  44.773   4.681
69405W        W30694   6.315   7.212   9.957
69406W        W30695   6.274  42.417  13.446
69407W        W30696  36.585  29.544  10.508
69408W        W30697  19.548   1.270  13.316
69409W        W30698  14.767  30.555   4.210
69410W        W30699  42.431  34.546  12.550
69411W        W30700  15.593  39.445  13.369
69412W        W30701  19.091   5.268   1.818
69413W        W30702  28.521  17.646   3.286
69414W        W30703  14.654  29.156  13.424
69415W        W30704   3.428  42.323  13.908
69416W        W30705   2.454  11.151   0.374
69417W        W30706  19.231  17.167  10.513
69418W        W30707  42.436  25.039  11.462
69419W        W30708  13.707  33.944   1.732
69420W        W30709  20.102  16.775   2.792
69421W        W30710  17.183  36.920   0.787
69422W        W30711  39.979  37.489  14.951
69423W        W30712  24.667  40.456  13.462
69424W        W30713  38.875  40.882   4.807
69425W        W30714  32.439   2.722  12.506
69426W        W30715  25.146   4.839  11.437
69427W        W30716  25.689   9.759   2.750
69428W        W30717   5.757  41.822  12.505
69429W        W30718  22.615  42.346   0.474
69430W        W30719  37.897  22.138  14.027
69431W        W30720  34.086   4.304   4.115
69432W        W30721  16.733  42.460   2.265
69433W        W30722  18.154  18.088   1.313
69434W        W30723  36.949  33.407   4.644
69435W        W30724  31.530  39.444   1.284
69436W        W30725  37.938  42.496   4.164
69437W        W30726  38.901   7.354  14.775
69438W        W30727  16.158  30.923  11.094
69439W        W30728   9.249  38.997   2.788
69440W        W30729  35.568  43.284  13.823
69441W        W30730  15.730  18.206   0.411
69442W        W30731  13.222  36.882   3.696
69443W        W30732  17.751  28.626   0.903
69444W        W30733  19.668  12.282  14.990
69445W        W30734  44.808  37.841   1.386
69446W        W30735  15.152  38.072   0.742
69447W        W30736  12.235  18.231   0.290
69448W        W30737   7.858   1.898   1.895
69449W        W30738  38.992  25.978   2.410
69450W        W30739  31.434  34.893   3.188
69451W        W30740  26.601  19.643   3.743
69452W        W30741   8.764  35.901   3.188
69453W        W30742  22.109  23.619   3.743
69454W        W30743  34.022  28.105   1.281
69455W        W30744  16.315   9.334  12.992
69456W        W30745  37.540  19.087  11.865
69457W        W30746  14.824  22.503   5.265
69458W        W30747   1.368  14.740   3.813
69459W        W30748  39.056  14.140  12.417
69460W        W30749   0.397  18.566  12.518
69461W        W30750  35.036  30.155  11.474
69462W        W30751   6.416   9.377   1.404
69463W        W30752  10.700  15.760  13.892
69464W        W30753  34.926  32.545   3.356
69465W        W30754  40.927   1.888  14.922
69466W        W30755  19.702   0.421   0.441
69467W        W30756  25.565  24.563  14.387
69468W        W30757  15.253  43.510  10.518
69469W        W30758  43.890  12.625   0.295
69470W        W30759  39.460   8.228   4.188
69471W        W30760  31.560   6.312   4.138
69472W        W30761  21.232  41.496  11.952
69473W        W30762  42.519  21.672   4.684
69474W        W30763  39.492  19.139  12.427
69475W        W30764  15.223  18.576   4.125
69476W        W30765  14.225  26.652  13.441
69477W        W30766   7.197  15.169   2.342
69478W        W30767   6.878  12.221   4.725
69479W        W30768  38.837  13.302   2.181
69480W        W30769  16.159  11.309  14.515
69481W        W30770   0.326  14.588  11.423
69482W        W30771  12.631   2.407  14.328
69483W        W30772  25.519  15.684  12.071
69484W        W30773  42.446  38.875   3.175
69485W        W30774  14.794  42.870  13.322
69486W        W30775  37.443  11.337  10.452
69487W        W30776  11.836   8.686  14.430
69488W        W30777  33.953   0.799   1.710
69489W        W30778  35.049  31.643   3.807
69490W        W30779  25.514  40.934   2.787
69491W        W30780   9.307  20.224  14.814
69492W        W30781  27.176  23.117   2.200
69493W        W30782  35.874   5.383  11.603
69494W        W30783  31.128   8.838   3.780
69495W        W30784  28.478   3.784   1.716
69496W        W30785  24.173  22.225   2.747
69497W        W30786  37.023  38.565   0.481
69498W        W30787  35.076  43.344   0.732
69499W        W30788  28.436  44.978   0.453
69500W        W30789   3.377   1.292   4.609
69501W        W30790  19.613  31.927  14.299
69502W        W30791  27.580  21.733   2.301
69503W        W30792  18.571   8.380   2.891
69504W        W30793  25.656  21.244  12.040
69505W        W30794   4.738  41.980   3.352
69506W        W30795  41.311  33.054  11.074
69507W        W30796  44.382  44.929  11.046
69508W        W30797   5.287   6.892   4.636
69509W        W30798  26.608  19.187  13.945
69510W        W30799  39.944  17.157  14.276
69511W        W30800  40.810  34.119  13.513
69512W        W30801  23.510  20.671  10.989
69513W        W30802   5.413  25.072  11.883
69514W        W30803  16.278   6.749   1.287
69515W        W30804  24.494  29.539   3.721
69516W        W30805  39.828  10.771   0.728
69517W        W30806   5.361  12.758   2.879
69518W        W30807  11.797  36.851   4.311
69519W        W30808  20.051  28.128  10.136
69520W        W30809  29.490  15.279   1.926
69521W        W30810  30.583  17.647   3.782
69522W        W30811  28.027  16.198  13.386
69523W        W30812  16.235   8.329  13.826
69524W        W30813  34.609  16.678   4.251
69525W        W30814  44.370  17.195  12.889
69526W        W30815  33.562  19.260  14.430
69527W        W30816   4.856   4.760   0.337
69528W        W30817   9.753  17.581  14.338
69529W        W30818   0.865  29.494  11.612
69530W        W30819  44.386   0.489  12.982
69531W        W30820  25.637   9.818  12.853
69532W        W30821  20.038  13.115   2.334
69533W        W30822  34.905  20.664   4.710
69534W        W30823  44.412  25.474  10.606
69535W        W30824  44.865  21.207  11.121
69536W        W30825  18.217  40.308  10.480
69537W        W30826  18.102  12.120  14.435
69538W        W30827  17.286  26.548   0.761
69539W        W30828  34.561  30.553  14.440
69540W        W30829   4.233   2.788  12.001
69541W        W30830  22.084  35.549   1.291
69542W        W30831   8.393  14.097   4.656
69543W        W30832  21.199  36.863   2.269
69544W        W30833   2.889  19.215  12.067
69545W        W30834  16.144  29.541  10.903
69546W        W30835  25.055  30.056   1.776
69547W        W30836  23.081  38.375   0.475
69548W        W30837  29.097  14.315  11.068
69549W        W30838  36.980  18.720   2.275
69550W        W30839  29.631  44.268   5.302
69551W        W30840   9.648  28.177   0.361
69552W        W30841   9.848  18.583   4.261
69553W        W30842  17.210  23.629   2.226
69554W        W30843  25.049   1.763   4.244
69555W        W30844  21.717  25.007  10.455
69556W        W30845   4.404  44.416   2.361
69557W        W30846  33.480  44.795  14.445
69558W        W30847  32.435  19.729   2.701
69559W        W30848   3.806  39.957   2.846
69560W        W30849  21.243  33.625   3.261
69561W        W30850  26.475  23.563  11.403
69562W        W30851  28.040  22.117   2.675
69563W        W30852  15.189  27.963   3.716
69564W        W30853  24.175   9.882   9.446
69565W        W30854  17.639  16.123  11.071
69566W        W30855  44.395  27.079   2.258
69567W        W30856  18.100  14.645   2.225
69568W        W30857  36.882   5.751   4.287
69569W        W30858   1.347  24.719   1.263
69570W        W30859  25.034  11.822   3.756
69571W        W30860   3.888   0.952   0.441
69572W        W30861  33.897   3.242   2.352
69573W        W30862  29.584  43.938  11.889
69574W        W30863  17.701  34.908   1.820
69575W        W30864  35.923   1.924  14.283
69576W        W30865  28.022   2.883   4.808
69577W        W30866  35.465  21.253  12.993
69578W        W30867  16.672   5.358  13.994
69579W        W30868  12.341  30.118   4.838
69580W        W30869  11.290  19.745  10.983
69581W        W30870   3.430  15.763   1.808
69582W        W30871   7.394  19.129   4.778
69583W        W30872  44.360  15.166  11.449
69584W        W30873  41.806  29.477   4.344
69585W        W30874  25.607  34.574   1.879
69586W        W30875  42.283  41.043   0.384
69587W        W30876  38.488  29.058  10.500
69588W        W30877  11.749  33.499   3.379
69589W        W30878   8.658  40.048   1.262
69590W        W30879   4.231  24.059  12.915
69591W        W30880  38.403   4.314  14.469
69592W        W30881  20.063  37.913  12.021
69593W        W30882   5.232   3.457   1.433
69594W        W30883  29.075  35.859   2.234
69595W        W30884  33.958  43.462   1.879
69596W        W30885  10.798   4.236  10.943
69597W        W30886  25.640   6.332  10.888
69598W        W30887  43.437  26.064   3.181
69599W        W30888  18.072  30.477   0.305
69600W        W30889  19.145   4.859   4.741
69601W        W30890   7.844  25.065   0.800
69602W        W30891  26.000  19.217   3.270
69603W        W30892  13.672  12.137  14.929
69604W        W30893   2.386  38.977  11.114
69605W        W30894  14.199  27.025  11.451
69606W        W30895   8.238  16.268   0.792
69607W        W30896   8.787  23.736  14.969
69608W        W30897   4.809  43.474  12.975
69609W        W30898   4.754   7.316   1.719
69610W        W30899  21.209  14.624   2.182
69611W        W30900   8.815  38.037  11.934
69612W        W30901  11.840   5.298  13.842
69613W        W30902  30.608  33.942   4.655
69614W        W30903  43.355  41.521  12.064
69615W        W30904  23.126  42.358   1.268
69616W        W30905  36.867   7.673  11.860
69617W        W30906  21.170   1.760   1.334
69618W        W30907  44.918   8.206   1.773
69619W        W30908  19.757  25.480  12.517
69620W        W30909  44.847  24.156  11.928
69621W        W30910  15.300  39.430   4.663
69622W        W30911   6.918  32.544  12.542
69623W        W30912   7.181  14.297  12.342
69624W        W30913  23.490  12.281   0.356
69625W        W30914   6.747  30.962  11.507
69626W        W30915  30.119  29.460  12.001
69627W        W30916  36.398  13.700  14.389
69628W        W30917  27.663  15.312   3.855
69629W        W30918  42.452  32.618   3.234
69630W        W30919  27.064  21.554   0.956
69631W        W30920  33.909  34.606  12.529
69632W        W30921  18.755  12.770   5.101
69633W        W30922  26.066  11.717   2.846
69634W        W30923  34.494  35.412  11.438
69635W        W30924  15.312  24.591  11.882
69636W        W30925  35.072  10.177   1.702
69637W        W30926  29.146   2.463  13.999
69638W        W30927  22.091  14.190  11.378
69639W        W30928  28.968  31.029  11.525
69640W        W30929  24.631  38.906  12.952
69641W        W30930  41.950  27.484  12.976
69642W        W30931  44.380  27.449   0.474
69643W        W30932  24.547  38.971  11.541
69644W        W30933   2.472  15.646  14.386
69645W        W30934   2.395  43.513  14.914
69646W        W30935  22.076  17.591   0.479
69647W        W30936  24.201  29.556  11.121
69648W        W30937  14.635   6.832   1.879
69649W        W30938   4.862  17.288  14.826
69650W        W30939   6.851  28.655   1.841
69651W        W30940   8.710  29.468   4.776
69652W        W30941   4.208  14.602   3.763
69653W        W30942  11.658  37.839   4.820
69654W        W30943   8.742  31.971   5.174
69655W        W30944  23.655  37.366  13.957
69656W        W30945  12.828   0.464  13.496
69657W        W30946  15.773  15.197   1.905
69658W        W30947  43.388  41.940  14.454
69659W        W30948  28.062  26.675   2.876
69660W        W30949  16.577  17.653  11.541
69661W        W30950  33.521  43.015  13.488
69662W        W30951   4.841   6.406   2.295
69663W        W30952  19.259  12.744  10.523
69664W        W30953  34.074  11.818   4.118
69665W        W30954  21.029  10.699  14.475
69666W        W30955  35.007  33.109   1.809
69667W        W30956  22.508  35.051   3.188
69668W        W30957  23.677  17.235   0.249
69669W        W30958  36.523  36.549  12.828
69670W        W30959  35.110  14.212  13.438
69671W        W30960  16.103  25.965  12.508
69672W        W30961   3.773  34.056  11.427
69673W        W30962   8.405   9.235  12.387
69674W        W30963  24.994   5.405  13.534
69675W        W30964  34.450  43.433  11.975
69676W        W30965  43.340  43.388  11.097
69677W        W30966  27.521   3.785  11.918
69678W        W30967  12.841   0.259   1.809
69679W        W30968  37.357  34.044  11.883
69680W        W30969   0.469  32.988   4.718
69681W        W30970  10.384   7.384   0.880
69682W        W30971  23.652  31.557  14.815
69683W        W30972   0.981  29.048  11.925
69684W        W30973   7.880  12.742   0.816
69685W        W30974  41.814  32.035   4.227
69686W        W30975  41.906  11.341   1.891
69687W        W30976  38.043  28.054  14.792
69688W        W30977  33.575  12.806  11.516
69689W        W30978  26.524  44.898   0.965
69690W        W30979  23.238   4.809  11.475
69691W        W30980  37.975  13.797  11.568
69692W        W30981  39.883  16.785  11.926
69693W        W30982   8.369  33.450  14.777
69694W        W30983   3.945  25.582   1.420
69695W        W30984  33.979   4.272  11.513
69696W        W30985  19.124  18.226  10.499
69697W        W30986   9.297  42.425   3.867
69698W        W30987  31.511  37.382  13.855
69699W        W30988  14.283  36.031  12.366
69700W        W30989  30.071  21.670  12.485
69701W        W30990  40.956  23.510  14.877
69702W        W30991  42.439   1.393  13.887
69703W        W30992  17.176  16.630  12.025
69704W        W30993   2.773  30.067   2.841
69705W        W30994   0.455  15.209  13.849
69706W        W30995  21.580  32.010  10.423
69707W        W30996  42.525  33.906   1.919
69708W        W30997  28.137   2.326  11.896
69709W        W30998  12.666  41.799  11.451
69710W        W30999  34.084   4.358   2.321
69711W        W31000  30.075  44.812  11.059
69712W        W31001   7.836  31.590  14.029
69713W        W31002  24.586  38.988  14.815
69714W        W31003  33.441  12.817   3.853
69715W        W31004  13.668  30.108   3.151
69716W        W31005  20.537  15.642  11.067
69717W        W31006  37.544  22.641  14.914
69718W        W31007  42.472  32.935   3.745
69719W        W31008   5.425  44.375   3.162
69720W        W31009   2.464  23.212  13.540
69721W        W31010  15.804  37.948  14.850
69722W        W31011  33.929  16.168  11.442
69723W        W31012  35.872  15.667  13.956
69724W        W31013  21.715  22.114  10.969
69725W        W31014  11.842  18.782   3.348
69726W        W31015  43.856   2.352   0.458
69727W        W31016  32.442  27.664  12.958
69728W        W31017  14.217  39.057  11.489
69729W        W31018  21.243  42.945   1.239
69730W        W31019   6.804   5.756   3.697
69731W        W31020  31.923   9.696   0.867
69732W        W31021   7.784  29.452  10.979
69733W        W31022  44.438  22.612   3.725
69734W        W31023  26.541  25.661  11.886
69735W        W31024  16.076   7.830   4.753
69736W        W31025  26.003   7.666  10.919
69737W        W31026  35.098  36.495  11.933
69738W        W31027  37.355  13.699   1.782
69739W        W31028  15.713  14.602  14.928
69740W        W31029  11.186   8.850   2.795
69741W        W31030  30.552   1.805  10.444
69742W        W31031  12.637  43.364   2.293
69743W        W31032  43.778   1.818   3.146
69744W        W31033  17.738  23.714  11.441
69745W        W31034  38.042  41.435  12.581
69746W        W31035  41.998   8.727  15.000
69747W        W31036   7.291   2.248   2.677
69748W        W31037  33.548  33.441  10.945
69749W        W31038  24.222   7.884  12.451
69750W        W31039   3.879  14.781  11.511
69751W        W31040   5.841  21.636   1.429
69752W        W31041   3.236  18.791   3.637
69753W        W31042  38.421  10.838  10.516
69754W        W31043  33.061  27.940   4.216
69755W        W31044  34.978   3.862  14.331
69756W        W31045  32.519  14.303   1.395
69757W        W31046   2.885  15.645   2.201
69758W        W31047  35.456   4.805  14.923
69759W        W31048  13.724   0.949  14.969
69760W        W31049   9.794  30.023  13.006
69761W        W31050  19.751  30.053   0.341
69762W        W31051  43.361  20.245  12.054
69763W        W31052  25.137  32.497  12.427
69764W        W31053  14.730  23.687   0.467
69765W        W31054  15.293  42.415  11.594
69766W        W31055  34.378   9.374   0.467
69767W        W31056   4.777  19.086   3.340
69768W        W31057  37.936  25.172  12.486
69769W        W31058   5.777  39.050  13.871
69770W        W31059  40.479  38.495   2.870
69771W        W31060  27.980   1.933  11.967
69772W        W31061  35.514  37.544   1.785
69773W        W31062  32.896  15.130  13.845
69774W        W31063   2.916  42.397   1.764
69775W        W31064  41.894  17.203   1.364
69776W        W31065  21.067  13.209   5.187
69777W        W31066   0.831  20.211   1.245
69778W        W31067  24.659  21.073  11.378
69779W        W31068  39.929  13.298   0.406
69780W        W31069   6.885   3.875  14.492
69781W        W31070  23.713  20.120   0.809
69782W        W31071  39.442  42.473  14.324
69783W        W31072   3.454  27.040  13.031
69784W        W31073   9.888  26.504   3.634
69785W        W31074  14.757  39.525  10.933
69786W        W31075  35.555  37.493  10.968
69787W        W31076  44.874  24.687   3.238
69788W        W31077  28.606  15.138   0.293
69789W        W31078  27.026  29.114   4.791
69790W        W31079   1.789  32.626  11.604
69791W        W31080   6.791  33.405  12.467
69792W        W31081  27.563   8.874   4.807
69793W        W31082  41.011  35.031  13.333
69794W        W31083  16.590  19.577   2.182
69795W        W31084  44.774   7.875   1.708
69796W        W31085   2.258   9.728  10.635
69797W        W31086  35.084  44.925   4.654
69798W        W31087   4.368  20.591  11.990
69799W        W31088  28.028  22.713   2.375
69800W        W31089  30.123  33.889  13.404
69801W        W31090  15.208  30.639  13.040
69802W        W31091  43.815  10.170   1.899
69803W        W31092  17.095  16.199   0.825
69804W        W31093  14.610   3.765   2.201
69805W        W31094  33.886  12.239  12.437
69806W        W31095  10.819  25.079   4.648
69807W        W31096  14.686  33.422  10.500
69808W        W31097  19.603  42.984   0.443
69809W        W31098  37.569  37.428   4.206
69810W        W31099   4.269  35.878   3.215
69811W        W31100  44.790  33.570  14.981
69812W        W31101  37.835  35.378   4.153
69813W        W31102  22.577  42.819  12.880
69814W        W31103  13.783   8.391   1.873
69815W        W31104  19.231   1.242   3.661
69816W        W31105  15.165   2.783   2.298
69817W        W31106  38.436  19.582   3.162
69818W        W31107   3.839  44.775   2.719
69819W        W31108  20.189  34.471   0.455
69820W        W31109   9.362  24.674   1.212
69821W        W31110   5.930  37.502   4.324
69822W        W31111  20.643  35.985  11.877
69823W        W31112  42.008  16.762  13.342
69824W        W31113  20.170   6.706  10.953
69825W        W31114  26.513  19.058  14.330
69826W        W31115   7.256  12.687  10.446
69827W        W31116  19.232   7.410   2.356
69828W        W31117   2.884  36.912   1.768
69829W        W31118  43.442  34.963  10.536
69830W        W31119  39.810   8.302  13.512
69831W        W31120  22.530  11.136  11.027
69832W        W31121  34.441  36.968   2.205
69833W        W31122  18.153  28.016   2.736
69834W        W31123  19.133  32.076   1.927
69835W        W31124  24.013  42.837   1.757
69836W        W31125  17.235  30.466  14.401
69837W        W31126  11.842  41.422  14.780
69838W        W31127  24.558  17.784  14.004
69839W        W31128  22.687  15.189   3.371
69840W        W31129  43.815  34.060  13.926
69841W        W31130   4.854  22.056  13.328
69842W        W31131  27.605  34.052   0.271
69843W        W31132  16.571  11.310  10.623
69844W        W31133  17.230  39.821  14.452
69845W        W31134  19.705  35.431  13.812
69846W        W31135  22.178   3.356   2.897
69847W        W31136  22.017  13.632  13.399
69848W        W31137  28.068  36.053  10.455
69849W        W31138  42.481  15.146   0.813
69850W        W31139  29.021  22.160   4.819
69851W        W31140   0.407  10.340   2.806
69852W        W31141  44.808   4.832   1.283
69853W        W31142  29.934  44.434   3.203
69854W        W31143  11.177  27.470   0.857
69855W        W31144   2.439   4.699   3.235
69856W        W31145  25.010   1.349  10.459
69857W        W31146  11.855   3.290   0.966
69858W        W31147   1.388  30.481   2.861
69859W        W31148  10.363  25.551   0.281
69860W        W31149  11.771  35.518  14.358
69861W        W31150  38.465   3.456   1.411
69862W        W31151   9.786  11.674   2.900
69863W        W31152  18.718  40.842  10.406
69864W        W31153  18.724  12.325  14.771
69865W        W31154  28.657  24.511  11.023
69866W        W31155   4.929  19.071  14.387
69867W        W31156  23.663  18.113  12.458
69868W        W31157  15.215  38.018  11.564
69869W        W31158  20.588  31.033  10.495
69870W        W31159  32.103   6.213   0.247
69871W        W31160   8.234  44.991  12.535
69872W        W31161  17.263  40.971  13.402
69873W        W31162  17.187  37.454   0.321
69874W        W31163  21.750  18.575  12.967
69875W        W31164  18.279  14.747  10.476
69876W        W31165   9.882  14.757  13.870
69877W        W31166  18.770   3.318  11.409
69878W        W31167  38.428  41.787  10.532
69879W        W31168  11.736  44.840   5.712
69880W        W31169  15.158  25.049  12.073
69881W        W31170   7.746  27.012   9.556
69882W        W31171  24.203  43.304  10.434
69883W        W31172  29.541  42.813   3.671
69884W        W31173   4.769  24.720  13.841
69885W        W31174  29.566  26.652   3.303
69886W        W31175  24.209  30.503  13.417
69887W        W31176  17.617  40.347   3.279
69888W        W31177  24.558  14.291  14.416
69889W        W31178  26.172  31.571   3.647
69890W        W31179  26.548   6.823   1.400
69891W        W31180  42.328  10.833   1.835
69892W        W31181  24.075  32.565   3.860
69893W        W31182   6.368  26.957  14.986
69894W        W31183  39.530  31.403   0.286
69895W        W31184  19.620  36.016  12.096
69896W        W31185   9.680  14.639  10.581
69897W        W31186  22.708  43.923   0.748
69898W        W31187  11.275  25.682  10.454
69899W        W31188  14.599  42.400  12.969
69900W        W31189  24.544   8.730   1.244
69901W        W31190  23.568  30.007  13.864
69902W        W31191  24.080  36.505   0.896
69903W        W31192  35.397  18.175  11.575
69904W        W31193  23.096  17.768   0.437
69905W        W31194  31.931  33.424  13.061
69906W        W31195   7.766  15.214  11.068
69907W        W31196  36.392  25.179  14.805
69908W        W31197  29.487   1.451   0.472
69909W        W31198   4.335  28.529  11.904
69910W        W31199   4.368  22.040  11.540
69911W        W31200   2.815  41.806   3.749
69912W        W31201  24.697  11.365  10.492
69913W        W31202  44.976   9.758  12.500
69914W        W31203  30.587  13.135  14.971
69915W        W31204   3.398  43.935   3.187
69916W        W31205  42.439  10.337   9.452
69917W        W31206  38.518  37.463   1.892
69918W        W31207  20.526  17.122   1.378
69919W        W31208  31.590  19.622   4.624
69920W        W31209   5.257  30.086  13.360
69921W        W31210   6.837  15.186  11.036
69922W        W31211  30.652   1.303   3.819
69923W        W31212  20.711   8.743  13.835
69924W        W31213   0.787   0.301  13.483
69925W        W31214  21.188   3.729  12.422
69926W        W31215  23.567  32.906  11.589
69927W        W31216   3.343  44.853   2.728
69928W        W31217  19.176  21.580  13.058
69929W        W31218  14.619  42.901   0.784
69930W        W31219  43.990  39.551   2.229
69931W        W31220  10.292  22.221   0.321
69932W        W31221  11.685  22.618   0.249
69933W        W31222  20.756  36.457  13.505
69934W        W31223  27.090  19.686  12.060
69935W        W31224  10.336   5.355   1.287
69936W        W31225  24.007  21.222  13.333
69937W        W31226  37.417   5.256   4.216
69938W        W31227  31.974   1.895  14.403
69939W        W31228   5.255  23.671   3.317
69940W        W31229  25.056  35.052  11.892
69941W        W31230  22.709  29.070   0.354
69942W        W31231  15.644  33.515   2.845
69943W        W31232   6.680  40.996   3.322
69944W        W31233  30.631   9.769  14.421
69945W        W31234   5.281  17.729   0.755
69946W        W31235   3.737  31.546   0.353
69947W        W31236  23.525  39.959  14.838
69948W        W31237  36.098   0.950   3.385
69949W        W31238  41.379   0.293  12.580
69950W        W31239  26.071  36.936   3.757
69951W        W31240  42.864  33.874   4.199
69952W        W31241   1.967  10.824  11.453
69953W        W31242  12.231   6.879   0.344
69954W        W31243  39.420  40.434  12.031
69955W        W31244  43.889  39.514  13.004
69956W        W31245  35.852   4.942   0.266
69957W        W31246   4.941  16.205  13.967
69958W        W31247  39.877  13.711   1.322
69959W        W31248  18.652  41.511  10.610
69960W        W31249  21.716  27.456   0.734
69961W        W31250  22.148  18.102  13.888
69962W        W31251  22.022  37.900   3.733
69963W        W31252  23.212  36.862  12.927
69964W        W31253   8.719  26.501  11.448
69965W        W31254   6.234  13.687  12.047
69966W        W31255   7.762  40.845   1.232
69967W        W31256  33.089   3.848  12.921
69968W        W31257  32.090   0.959  11.860
69969W        W31258   1.975  19.205   1.241
69970W        W31259   7.371   6.727  11.051
69971W        W31260  28.618  32.621  11.408
69972W        W31261   9.851  36.969   9.504
69973W        W31262  28.987  21.719   3.678
69974W        W31263   5.730  41.889   0.289
69975W        W31264  20.101  33.423   3.201
69976W        W31265  21.707  26.457  11.893
69977W        W31266  20.200   7.813   4.328
69978W        W31267  24.068  25.146   1.239
69979W        W31268  36.420  39.901   2.780
69980W        W31269  22.246  11.804  13.925
69981W        W31270   1.375  16.269  12.914
69982W        W31271  13.256   6.205  12.996
69983W        W31272  34.396  35.548  13.050
69984W        W31273  34.039  28.151   4.727
69985W        W31274  14.133  23.207   2.858
69986W        W31275   2.389   2.459  14.015
69987W        W31276  19.774  17.590  10.957
69988W        W31277  11.775  43.936   2.419
69989W        W31278   3.844   8.208   4.215
69990W        W31279  15.263  11.623   0.429
69991W        W31280  12.687  40.996  14.796
69992W        W31281  36.913  31.432  13.471
69993W        W31282  37.404  43.335  11.002
69994W        W31283  19.081  39.543   4.338
69995W        W31284  32.982  39.023   0.304
69996W        W31285   5.256  31.485  11.087
69997W        W31286  39.922  36.371  13.330
69998W        W31287  40.927   8.868  14.414
69999W        W31288  38.539  21.732  10.609
70000W        W31289   0.364  41.383   3.162
70001W        W31290  36.035  33.486   2.351
70002W        W31291   6.355  42.920   1.902
70003W        W31292  32.539  12.116  13.500
70004W        W31293  12.713  25.993   3.379
70005W        W31294  33.480   4.447  11.575
70006W        W31295  10.697   1.311   1.793
70007W        W31296   3.297   7.894   5.306
70008W        W31297   1.855  20.748  10.553
70009W        W31298   5.322  15.656   2.689
70010W        W31299  42.013  15.136   2.306
70011W        W31300  36.515  14.300  10.510
70012W        W31301  26.151  37.542   0.930
70013W        W31302  39.832  15.170  13.950
70014W        W31303  40.927  14.749   0.843
70015W        W31304  14.721  31.539   1.777
70016W        W31305  14.728  18.572   0.748
70017W        W31306  37.461   1.390  12.068
70018W        W31307  13.826  23.622   2.214
70019W        W31308  13.675  17.229   2.838
70020W        W31309   6.233  24.086   2.346
70021W        W31310   1.324  19.614   2.388
70022W        W31311  22.088  17.212  10.957
70023W        W31312  29.095  23.618   1.884
70024W        W31313   2.916  13.241  13.390
70025W        W31314  41.811   8.878  13.436
70026W        W31315  34.546  38.444   1.242
70027W        W31316  42.879  36.568   1.791
70028W        W31317  40.377  37.509   0.357
70029W        W31318   8.287  22.014  10.557
70030W        W31319  29.994  13.795  14.351
70031W        W31320  25.663  44.451   4.785
70032W        W31321  26.200  25.987  11.086
70033W        W31322  25.008  31.496  14.955
70034W        W31323  23.057  10.872   2.327
70035W        W31324   3.388  39.830   2.195
70036W        W31325  26.148  43.504  10.477
70037W        W31326   0.743  31.429  12.360
70038W        W31327   8.166  13.231   3.242
70039W        W31328  21.219  39.825  10.134
70040W        W31329   6.882  30.032   0.883
70041W        W31330  43.934   6.821  12.579
70042W        W31331  26.130  15.164  14.813
70043W        W31332  41.492  43.439  10.631
70044W        W31333   6.883  30.016   1.410
70045W        W31334  39.951   3.734  10.443
70046W        W31335  28.665   1.738   3.237
70047W        W31336  37.913  43.800  10.479
70048W        W31337  20.205  36.475   0.380
70049W        W31338  24.066  17.195  13.330
70050W        W31339  19.569  33.960   4.821
70051W        W31340   4.898  26.639   4.162
70052W        W31341  37.567  14.805   1.445
70053W        W31342   5.869  43.974   2.728
70054W        W31343  11.366  28.966  11.985
70055W        W31344  35.451  33.562  14.927
70056W        W31345   9.208  12.357   0.957
70057W        W31346  11.852   2.277   4.233
70058W        W31347  28.619  27.193   3.338
70059W        W31348   5.807  28.073  11.518
70060W        W31349  36.541  28.545  12.842
70061W        W31350   3.899  16.153  12.937
70062W        W31351  21.023  43.480   4.239
70063W        W31352  21.175  21.038   0.827
70064W        W31353   0.798   0.445   1.386
70065W        W31354   3.236  25.495   5.318
70066W        W31355  25.504  44.375   9.995
70067W        W31356  24.676  14.688  13.975
70068W        W31357  17.157  16.569  11.518
70069W        W31358  24.599   5.331   3.224
70070W        W31359  13.169  41.818   4.194
70071W        W31360   8.874  24.023  14.021
70072W        W31361  13.658  34.372  11.959
70073W        W31362   0.315  44.335   0.303
70074W        W31363  37.920   6.697   2.344
70075W        W31364  37.869  15.240  11.895
70076W        W31365  20.536  14.295  12.026
70077W        W31366  28.137   0.265   2.735
70078W        W31367  42.299   3.418   0.347
70079W        W31368  28.099  34.388   0.474
70080W        W31369  36.086  18.596   0.744
70081W        W31370  39.435  24.649  10.978
70082W        W31371  14.775  37.018  11.107
70083W        W31372  25.087  15.732   3.288
70084W        W31373   1.253  25.122   4.211
70085W        W31374   4.423  37.883   2.327
70086W        W31375  19.110  21.030   3.655
70087W        W31376   7.700  10.200  11.991
70088W        W31377   6.279  41.324   4.767
70089W        W31378  36.484  28.636  13.945
70090W        W31379  40.933  11.195  14.303
70091W        W31380   9.308  17.756  11.860
70092W        W31381   7.410  14.113  10.638
70093W        W31382  24.616  13.176   1.917
70094W        W31383  31.982  11.312  11.481
70095W        W31384   0.793  29.633   3.864
70096W        W31385   4.228  17.225   4.133
70097W        W31386  19.186   0.450  12.478
70098W        W31387  21.075  34.032   3.684
70099W        W31388  27.992  33.565   2.718
70100W        W31389  22.713  38.066   4.156
70101W        W31390   1.943  21.240  12.384
70102W        W31391   8.359  39.866   0.886
70103W        W31392  28.121  41.534   4.652
70104W        W31393   6.304  36.588  12.864
70105W        W31394  32.405  34.436  14.964
70106W        W31395  44.373  41.491   3.230
70107W        W31396   1.769   6.762   3.149
70108W        W31397  34.939  30.626  12.858
70109W        W31398  25.651  28.520  10.418
70110W        W31399  42.786  32.139   4.299
70111W        W31400  30.481  40.352  12.567
70112W        W31401  27.560   9.864   0.359
70113W        W31402   8.731  19.647  10.605
70114W        W31403  27.154  29.934  12.453
70115W        W31404  40.829  22.725  13.335
70116W        W31405  25.128  19.049  14.463
70117W        W31406  19.554  22.612   3.253
70118W        W31407  17.787  10.688   1.901
70119W        W31408  22.019  10.214  12.013
70120W        W31409  16.298  36.579   3.315
70121W        W31410  37.435   5.885  13.819
70122W        W31411  23.555  36.005   2.895
70123W        W31412  22.042  16.119   2.309
70124W        W31413   0.952  28.661   3.809
70125W        W31414  18.594  44.783  12.994
70126W        W31415  39.517  39.927   3.377
70127W        W31416  12.655   2.258   4.789
70128W        W31417  38.419   5.920   2.351
70129W        W31418   6.416   1.457   3.335
70130W        W31419  34.559  22.061   3.302
70131W        W31420  18.785  13.666  12.358
70132W        W31421  19.187  16.091  11.916
70133W        W31422  40.334   8.228   2.266
70134W        W31423   2.932   6.308  13.325
70135W        W31424  28.615   8.736  12.545
70136W        W31425  27.516  27.077  14.293
70137W        W31426  32.136  22.039  12.522
70138W        W31427  18.275  37.556   1.331
70139W        W31428  21.757  20.578  12.445
70140W        W31429   2.288  20.635  12.920
70141W        W31430  43.429  15.271  12.384
70142W        W31431  43.354  32.435   0.479
70143W        W31432  39.388   3.755  14.013
70144W        W31433   3.234  33.603  10.513
70145W        W31434   8.226   9.191   1.211
70146W        W31435   8.202  44.011   1.711
70147W        W31436  38.938  15.157   0.814
70148W        W31437   4.815  28.112  14.966
70149W        W31438  26.565  39.874  14.384
70150W        W31439  39.480   1.759  14.494
70151W        W31440  26.956  30.109   0.857
70152W        W31441   0.460  12.360   5.317
70153W        W31442  11.726  17.208   1.728
70154W        W31443  31.431  15.299  13.936
70155W        W31444  33.583   6.351  10.940
70156W        W31445  10.263   4.340   4.138
70157W        W31446   0.988  21.117  14.508
70158W        W31447  16.748   6.777   3.849
70159W        W31448  43.828  24.152   0.894
70160W        W31449  27.650  35.954   3.848
70161W        W31450  13.216  16.760   1.865
70162W        W31451  32.454  30.922  10.915
70163W        W31452  44.484   2.360   0.752
70164W        W31453   2.793   4.881  13.473
70165W        W31454   7.305  33.493   3.835
70166W        W31455  24.103  27.033   1.285
70167W        W31456  31.011  12.855  12.476
70168W        W31457  39.011  36.001   2.828
70169W        W31458  22.031   5.317  14.379
70170W        W31459  35.554  17.748   4.757
70171W        W31460  24.080  37.520   0.349
70172W        W31461  41.314   6.412  13.895
70173W        W31462  33.929  14.277   5.308
70174W        W31463  16.161   3.772  12.492
70175W        W31464   3.454  43.990  13.816
70176W        W31465  24.608  15.614   0.348
70177W        W31466  15.795  44.974  13.423
70178W        W31467  29.436   7.905   0.832
70179W        W31468  31.960  24.175  10.492
70180W        W31469   9.259   4.405  14.489
70181W        W31470   8.814  30.072  13.428
70182W        W31471  12.724  26.483  14.983
70183W        W31472  39.811   7.322   4.632
70184W        W31473  29.617   8.179   5.770
70185W        W31474  40.931  16.222  13.330
70186W        W31475   1.453   5.835  12.074
70187W        W31476  19.539  27.129   2.353
70188W        W31477  17.669  19.657  13.892
70189W        W31478  30.626  11.188   4.121
70190W        W31479  44.454  35.873   4.345
70191W        W31480  11.778  13.325  12.497
70192W        W31481  19.630  33.992  14.879
70193W        W31482  29.445  21.679   1.290
70194W        W31483   9.784  19.577   2.710
70195W        W31484   1.810  19.632   4.123
70196W        W31485  43.979  19.064  11.539
70197W        W31486  21.114  21.632   9.940
70198W        W31487  43.899  44.780   1.893
70199W        W31488  38.471  20.753   2.803
70200W        W31489  24.663  13.718   1.345
70201W        W31490  17.225   8.855  12.053
70202W        W31491   6.222  18.087  10.019
70203W        W31492  32.030  40.817  13.461
70204W        W31493  13.352  17.144  13.812
70205W        W31494   0.947  10.308  13.033
70206W        W31495   3.832  32.597   2.328
70207W        W31496   3.303  32.946  13.063
70208W        W31497  24.142  27.664   1.351
70209W        W31498  12.746  43.781   0.801
70210W        W31499  10.817   5.887  14.949
70211W        W31500  19.267  20.202   1.819
70212W        W31501  11.156  37.999  14.335
70213W        W31502  30.630  31.486   3.286
70214W        W31503  17.083  28.568  14.282
70215W        W31504  38.931  37.925   4.817
70216W        W31505  11.270   2.809   4.169
70217W        W31506  11.866  18.607  11.909
70218W        W31507   9.365  18.262  12.018
70219W        W31508  23.023   8.215   2.239
70220W        W31509  24.723  39.353   4.652
70221W        W31510  15.167  36.058   1.784
70222W        W31511  27.096  37.929   0.403
70223W        W31512  27.659  24.490   3.315
70224W        W31513  21.216  37.401   4.608
70225W        W31514  26.099  15.251  11.127
70226W        W31515  36.518  18.734  13.443
70227W        W31516  31.909  19.737   1.802
70228W        W31517  17.153  18.581   0.811
70229W        W31518  19.131  38.516  10.985
70230W        W31519  32.534  44.869  11.860
70231W        W31520  38.371  22.607  13.894
70232W        W31521  35.377  14.179   4.654
70233W        W31522  19.146   4.887  12.832
70234W        W31523  39.831   3.748   4.125
70235W        W31524  14.155  21.540  14.329
70236W        W31525  10.738  31.007  10.082
70237W        W31526   7.258  30.111   0.419
70238W        W31527  39.033   2.362   4.192
70239W        W31528  29.974  43.308  13.954
70240W        W31529  43.395  10.688  13.874
70241W        W31530  41.968  14.766  12.460
70242W        W31531  41.847  36.854  12.079
70243W        W31532  16.730   3.363   1.313
70244W        W31533  34.924  30.011  14.513
70245W        W31534  31.422  18.080   1.772
70246W        W31535  11.145  23.076  12.902
70247W        W31536  10.657  12.812   0.783
70248W        W31537  39.976  38.420  10.468
70249W        W31538  26.091  15.690  14.990
70250W        W31539  25.154  19.603  11.122
70251W        W31540  28.181  27.128  14.792
70252W        W31541  19.254  33.556  12.834
70253W        W31542  42.330  11.186   1.855
70254W        W31543   0.285  44.949   1.789
70255W        W31544  11.278  29.975   3.186
70256W        W31545  22.551   0.292   4.283
70257W        W31546   8.865  42.903   1.308
70258W        W31547   6.752  33.540  13.889
70259W        W31548  29.091  30.450   4.344
70260W        W31549   8.241  20.553  10.549
70261W        W31550  38.950   7.681  13.971
70262W        W31551  12.224  11.791   4.680
70263W        W31552  43.273  11.697   4.655
70264W        W31553  24.602  12.654  14.024
70265W        W31554  42.372  27.458  11.459
70266W        W31555  25.980  35.462  14.312
70267W        W31556  33.455  20.583  11.951
70268W        W31557  29.610  30.126  12.853
70269W        W31558  15.205  14.783   3.183
70270W        W31559  30.620  16.735   0.832
70271W        W31560  31.455  19.224   3.279
70272W        W31561  25.162  44.261  12.466
70273W        W31562  16.242  36.397   9.953
70274W        W31563  41.417  26.538  11.865
70275W        W31564  30.536  23.149  13.866
70276W        W31565  29.978  34.925  11.057
70277W        W31566  25.200  19.201   2.211
70278W        W31567  16.805   5.728  12.531
70279W        W31568   1.954   9.323   2.295
70280W        W31569  28.111  22.652  14.450
70281W        W31570  19.659  41.887   1.386
70282W        W31571  22.658  15.313   1.287
70283W        W31572  25.584  35.103  12.985
70284W        W31573  41.321  20.727  13.331
70285W        W31574  25.009  13.109   2.197
70286W        W31575  39.001  26.184   3.868
70287W        W31576   1.481   8.232   1.396
70288W        W31577  19.582  22.115  14.948
70289W        W31578  21.052  33.029   2.751
70290W        W31579  19.647  13.630  14.805
70291W        W31580   1.378   7.347  14.795
70292W        W31581  26.132  38.975   3.364
70293W        W31582  41.517  29.453  12.963
70294W        W31583   6.366  25.042  12.438
70295W        W31584  19.752  38.831   2.825
70296W        W31585  24.174  23.565   4.824
70297W        W31586  28.507   9.342  14.461
70298W        W31587  35.892  14.222  12.353
70299W        W31588  25.531  34.469  13.460
70300W        W31589  35.368  20.084  11.968
70301W        W31590  26.476  42.299   4.608
70302W        W31591   1.236   4.768  11.903
70303W        W31592  35.035   3.306  12.054
70304W        W31593  27.131   6.397   4.315
70305W        W31594  41.845  13.118  11.425
70306W        W31595  36.351   7.750  12.851
70307W        W31596  12.719  26.177   0.388
70308W        W31597  29.587  20.231  12.343
70309W        W31598  24.505  43.937  11.096
70310W        W31599  27.949  40.876   2.372
70311W        W31600  16.211   5.916   2.395
70312W        W31601  21.040  27.478   1.324
70313W        W31602  40.317  15.700  14.469
70314W        W31603  30.003  19.200   4.227
70315W        W31604  23.134  44.403  11.915
70316W        W31605  37.944  23.007  10.984
70317W        W31606  34.038   2.327  11.006
70318W        W31607   4.890  12.225  13.516
70319W        W31608  38.449   7.835  14.827
70320W        W31609  15.641  43.334  11.857
70321W        W31610  30.149   2.254  13.062
70322W        W31611  40.799  11.688   9.987
70323W        W31612   0.292  39.938  14.013
70324W        W31613  41.380   3.808  13.997
70325W        W31614  38.075  30.640  12.431
70326W        W31615  43.505   1.769   4.312
70327W        W31616  43.931   2.918  11.923
70328W        W31617  35.056  29.558  12.497
70329W        W31618   0.870  11.284  11.414
70330W        W31619  37.437  19.284  13.826
70331W        W31620  33.029  34.081  13.339
70332W        W31621  26.951   1.424  12.039
70333W        W31622  35.484   0.768  14.968
70334W        W31623  17.084  18.076  12.523
70335W        W31624  16.736  26.146   4.283
70336W        W31625  23.621  40.052  10.948
70337W        W31626   4.807  11.172  10.512
70338W        W31627  22.247  43.315   0.786
70339W        W31628   4.887   9.750  14.321
70340W        W31629   9.784  13.623   2.215
70341W        W31630  28.124  20.594   4.265
70342W        W31631  19.047   7.322   2.667
70343W        W31632  34.885   7.263   3.171
70344W        W31633  13.791  12.349   4.155
70345W        W31634   1.767  32.468  12.910
70346W        W31635  39.504  41.523   0.341
70347W        W31636  26.556  23.583  10.994
70348W        W31637   3.274  44.274   3.202
70349W        W31638  19.146  18.134   3.158
70350W        W31639  36.527  21.201  11.405
70351W        W31640  39.878  25.143  14.449
70352W        W31641  12.308  42.882  14.370
70353W        W31642  15.148  30.961   4.598
70354W        W31643   7.299   2.917  13.019
70355W        W31644   0.471  38.934  11.109
70356W        W31645  15.308  31.616  12.493
70357W        W31646  41.837   7.864   4.735
70358W        W31647  10.149  32.115  13.520
70359W        W31648  40.856  37.962   4.620
70360W        W31649   7.180  19.538  14.408
70361W        W31650  13.821  44.006   3.713
70362W        W31651  29.433  26.556   5.313
70363W        W31652  25.708  33.432  13.429
70364W        W31653  39.512  29.937   0.966
70365W        W31654  35.567   4.794  12.391
70366W        W31655  43.954   0.839  11.446
70367W        W31656   1.916  32.005  14.819
70368W        W31657  22.581  23.158  13.898
70369W        W31658  32.887  35.059  13.354
70370W        W31659   6.682  18.054   3.793
70371W        W31660  37.477   6.331   2.344
70372W        W31661   0.823  30.565   4.166
70373W        W31662  29.522   0.920   1.765
70374W        W31663  37.941  27.583   3.784
70375W        W31664  19.687  40.914  10.940
70376W        W31665  26.618   8.256   3.852
70377W        W31666  29.545  39.978   3.744
70378W        W31667  20.616  37.938   4.604
70379W        W31668  43.996  17.599   4.678
70380W        W31669   2.318   5.430   0.766
70381W        W31670  37.920  13.126  12.503
70382W        W31671   8.676  42.796   3.713
70383W        W31672  19.649   2.334   2.801
70384W        W31673   7.804  20.197   2.254
70385W        W31674  16.090  36.885  14.418
70386W        W31675  35.987  18.081   1.261
70387W        W31676  21.570  37.834   3.332
70388W        W31677  25.579   7.850  13.401
70389W        W31678  41.355  43.516  14.834
70390W        W31679  22.557  39.456  12.534
70391W        W31680  30.651  23.596   0.399
70392W        W31681  25.193   5.210  14.975
70393W        W31682   1.245  10.242   2.408
70394W        W31683   9.213  28.143  11.523
70395W        W31684  14.151  25.986   2.250
70396W        W31685  37.914  26.203   0.817
70397W        W31686  33.026  11.707   0.467
70398W        W31687  28.585  41.407  11.456
70399W        W31688   8.688  43.838   4.267
70400W        W31689  40.391  26.952   1.935
70401W        W31690  34.010   7.384  10.531
70402W        W31691  10.647  23.016   2.398
70403W        W31692  16.179  14.166  14.764
70404W        W31693   2.766   0.292  11.493
70405W        W31694  29.945  29.949   3.651
70406W        W31695  40.815  29.121  14.897
70407W        W31696  25.695  12.360  12.029
70408W        W31697  25.523   4.937   1.756
70409W        W31698  39.528  38.957  11.113
70410W        W31699  25.077  29.627   2.218
70411W        W31700  25.519  14.243  11.437
70412W        W31701  40.941  44.339  14.289
70413W        W31702  19.686  41.038   0.771
70414W        W31703  43.796  29.090   2.701
70415W        W31704   1.838  35.536  10.900
70416W        W31705  17.647  35.038   0.889
70417W        W31706  26.556  27.485  10.063
70418W        W31707   6.912  11.169  13.806
70419W        W31708  41.040  32.484   0.447
70420W        W31709  10.345  28.471   3.705
70421W        W31710  27.104   8.259  14.920
70422W        W31711   2.813  25.036  14.515
70423W        W31712   2.326  33.066   0.301
70424W        W31713  44.756  12.145   2.714
70425W        W31714   5.904   4.816  12.551
70426W        W31715  12.830  37.372   1.228
70427W        W31716  37.414  30.909  13.378
70428W        W31717  30.023  21.742  10.919
70429W        W31718  11.628   4.707   0.955
70430W        W31719  37.883   3.231  13.418
70431W        W31720   1.277  25.544   3.778
70432W        W31721  24.198  29.596  12.455
70433W        W31722   1.763  24.032   1.928
70434W        W31723  27.155   6.266   4.785
70435W        W31724  11.637  17.297  14.510
70436W        W31725  24.698  20.751   5.753
70437W        W31726   7.296  27.116   3.676
70438W        W31727  11.829   9.220  14.453
70439W        W31728  19.554  24.704   3.851
70440W        W31729   9.282  33.944  14.399
70441W        W31730  20.042  43.857   4.315
70442W        W31731   0.380  20.149   2.383
70443W        W31732  24.701  44.405   0.259
70444W        W31733  22.640  39.486   4.785
70445W        W31734  25.074   4.764  13.857
70446W        W31735  31.541   0.352  11.049
70447W        W31736   9.177   3.799   0.814
70448W        W31737  42.472   6.374   2.682
70449W        W31738   4.411  25.978  12.523
70450W        W31739  42.975  19.711  10.058
70451W        W31740  35.928  21.151   3.337
70452W        W31741  15.177  41.956   3.819
70453W        W31742  13.617  16.585  12.041
70454W        W31743  25.570   4.385  13.030
70455W        W31744  32.012  13.730   4.304
70456W        W31745  17.257   5.905  12.348
70457W        W31746  36.882   6.922  12.913
70458W        W31747  40.409  27.172   2.364
70459W        W31748  30.659  33.480  13.438
70460W        W31749  21.672   3.738   0.303
70461W        W31750   0.915  21.089   3.648
70462W        W31751  42.349  44.380   1.797
70463W        W31752  33.086   7.305   4.205
70464W        W31753   3.245  21.514  10.433
70465W        W31754  42.796  25.011   2.220
70466W        W31755  37.478  30.033   0.940
70467W        W31756  16.176   5.412  11.099
70468W        W31757  34.874  14.605  14.334
70469W        W31758   4.238  24.125   4.220
70470W        W31759  15.672  15.192  12.093
70471W        W31760  42.883  26.578   0.344
70472W        W31761  39.370  25.649   3.696
70473W        W31762  30.497  23.023  14.915
70474W        W31763  18.564  20.540   5.167
70475W        W31764  16.098  35.531  13.400
70476W        W31765  34.998  44.274  13.322
70477W        W31766  26.469  29.919   1.281
70478W        W31767  32.060  14.225   1.706
70479W        W31768  29.450  37.370  14.358
70480W        W31769  10.749  20.762   3.376
70481W        W31770  16.572  11.263  12.503
70482W        W31771  35.384   8.305   2.679
70483W        W31772   3.749  30.915   4.253
70484W        W31773  15.817  20.633  10.975
70485W        W31774  34.378  14.275   0.278
70486W        W31775  42.383  40.917   3.652
70487W        W31776  24.009   7.393  12.869
70488W        W31777  40.542   6.880  10.403
70489W        W31778  44.453  41.993   2.694
70490W        W31779  36.367  11.262   0.876
70491W        W31780  41.463  28.593  14.454
70492W        W31781  36.035  33.000  13.798
70493W        W31782  25.614   9.164   2.381
70494W        W31783  22.999   9.728   2.376
70495W        W31784  31.042  31.979   1.700
70496W        W31785  44.780  14.127   4.765
70497W        W31786  21.256  35.393   1.243
70498W        W31787  28.985  30.998  10.994
70499W        W31788  10.738  39.324   3.839
70500W        W31789  22.154  36.938   1.754
70501W        W31790  32.938  19.146   0.945
70502W        W31791  15.678  11.650   2.222
70503W        W31792  25.514   7.706   0.338
70504W        W31793  30.567  32.613   1.239
70505W        W31794  20.230  26.561  11.065
70506W        W31795  10.725  11.711   4.281
70507W        W31796  25.506  14.621  12.977
70508W        W31797  38.866  23.543   1.372
70509W        W31798  13.700   7.687   0.907
70510W        W31799   6.920  33.066  11.519
70511W        W31800  32.619  18.712  14.332
70512W        W31801  15.243  33.559  10.922
70513W        W31802  22.564  18.659   9.987
70514W        W31803   6.213  44.406   2.291
70515W        W31804  24.529  24.148  11.507
70516W        W31805  17.270  29.944  10.903
70517W        W31806  15.577  23.597  10.039
70518W        W31807  43.766   6.266  10.408
70519W        W31808  19.233  33.436   4.698
70520W        W31809  10.361  23.535  13.336
70521W        W31810   2.328  19.641  10.532
70522W        W31811  16.147  28.048   4.774
70523W        W31812  24.974  35.950  12.488
70524W        W31813  43.021  29.440  13.020
70525W        W31814  11.168  24.013  10.548
70526W        W31815   3.839  20.572   4.310
70527W        W31816  11.834  22.034  10.994
70528W        W31817  31.004  40.996   3.285
70529W        W31818  21.177   7.266   0.323
70530W        W31819  29.544   6.200  10.554
70531W        W31820  33.591   2.335  13.312
70532W        W31821  15.807  41.854  11.466
70533W        W31822   4.242  40.797   3.732
70534W        W31823  34.894  34.582  14.426
70535W        W31824   2.852   4.287  14.306
70536W        W31825  15.681   8.258  14.779
70537W        W31826   6.339  39.485  13.883
70538W        W31827  20.567  40.422  14.304
70539W        W31828   1.817  40.049   0.411
70540W        W31829  10.710  26.059   3.855
70541W        W31830  43.798  29.644  14.432
70542W        W31831  15.796   2.871  12.863
70543W        W31832  16.212  38.477  14.888
70544W        W31833  26.600   0.945   2.378
70545W        W31834  34.039  26.540  11.038
70546W        W31835  15.628   4.359  13.947
70547W        W31836  20.690   8.321   3.677
70548W        W31837  16.159  30.422   3.173
70549W        W31838  34.568   7.766  10.494
70550W        W31839  27.008   2.801  10.625
70551W        W31840   6.390  38.357  14.761
70552W        W31841   9.889   8.244   1.358
70553W        W31842   8.712   6.398   2.855
70554W        W31843  12.672   9.822   0.482
70555W        W31844  13.139  27.184  11.419
70556W        W31845  34.557  44.925   3.316
70557W        W31846  27.973  10.685  11.129
70558W        W31847   3.282  16.183  12.873
70559W        W31848  26.549  28.026  13.807
70560W        W31849  11.171  36.484  14.766
70561W        W31850  21.026   4.302   5.122
70562W        W31851  23.686  38.894  12.067
70563W        W31852  23.667  38.501  14.914
70564W        W31853  22.043  43.330  13.832
70565W        W31854  30.647   4.832   4.127
70566W        W31855  34.515  29.438  11.373
70567W        W31856  36.893  27.020   1.720
70568W        W31857  34.574  32.981   0.338
70569W        W31858   8.665  18.549   0.764
70570W        W31859   8.666  36.466   2.848
70571W        W31860   0.426  12.278  12.388
70572W        W31861  19.601  44.504  10.465
70573W        W31862  14.310  31.997   1.322
70574W        W31863   5.833   8.340   0.464
70575W        W31864  23.496  34.877   0.477
70576W        W31865  38.837  26.536  11.978
70577W        W31866   5.292   7.811  13.511
70578W        W31867  11.255  38.842  13.399
70579W        W31868  27.646  13.650  14.981
70580W        W31869   9.646  23.688  10.993
70581W        W31870   9.151  33.027   0.726
70582W        W31871  29.450  36.055   5.318
70583W        W31872  44.435  13.713  10.109
70584W        W31873  42.973  31.439   1.847
70585W        W31874   0.811   6.795   2.789
70586W        W31875  12.789   7.881   4.144
70587W        W31876   1.850  38.849   2.301
70588W        W31877  14.666   5.727  13.465
70589W        W31878  40.511  25.166   4.741
70590W        W31879  30.620  40.383  14.276
70591W        W31880  25.151  34.992  10.527
70592W        W31881  30.054   8.748  11.035
70593W        W31882   9.735  35.576  10.005
70594W        W31883  13.602  42.357   2.797
70595W        W31884  18.716  38.363   2.310
70596W        W31885   1.473  43.014   2.269
70597W        W31886  25.183  28.997   2.762
70598W        W31887  40.990  33.958   4.774
70599W        W31888  37.039  27.114   4.329
70600W        W31889  16.220  21.599  14.967
70601W        W31890  42.413  37.842   3.837
70602W        W31891  43.317   9.652  12.400
70603W        W31892  23.138  14.772  14.425
70604W        W31893   6.331   9.714  10.519
70605W        W31894  43.295   5.702   2.700
70606W        W31895   6.785  23.571   4.704
70607W        W31896  17.069   7.744  13.057
70608W        W31897  24.483  24.220  14.028
70609W        W31898  10.854   0.924   0.267
70610W        W31899  35.587  24.570  13.468
70611W        W31900   9.727  42.007   1.884
70612W        W31901  16.633   9.659  14.406
70613W        W31902  30.923  25.976  14.504
70614W        W31903  33.462  16.301  10.970
70615W        W31904  15.761  39.848   0.385
70616W        W31905  41.019  29.624   4.333
70617W        W31906  21.609  29.463   0.405
70618W        W31907   7.408  22.142  14.979
70619W        W31908   1.803  25.993  11.539
70620W        W31909  38.352   1.315   0.768
70621W        W31910  44.974  31.493   4.243
70622W        W31911  12.670  23.579   9.550
70623W        W31912  33.410  43.290   5.281
70624W        W31913  36.941  36.084   4.818
70625W        W31914  19.743  34.883  14.985
70626W        W31915   7.813  31.153  12.445
70627W        W31916  40.023  30.048  12.083
70628W        W31917  36.461  43.298  11.855
70629W        W31918  44.505   9.394  11.976
70630W        W31919  15.821  32.460   2.822
70631W        W31920  44.797  33.966  13.817
70632W        W31921  42.446  37.444  11.120
70633W        W31922  33.084  39.551  10.975
70634W        W31923  13.222  16.724  13.920
70635W        W31924  17.118  13.315  13.944
70636W        W31925  26.693  38.543  14.948
70637W        W31926  26.187  32.126  11.113
70638W        W31927  12.827  13.348   3.684
70639W        W31928  39.546  17.118  12.989
70640W        W31929  22.011   3.400  10.026
70641W        W31930  33.108  22.505  12.555
70642W        W31931  21.228  23.225  13.363
70643W        W31932  35.519   1.239   9.438
70644W        W31933  19.649  12.269   1.241
70645W        W31934  29.471  31.027  11.929
70646W        W31935   0.383   2.930   1.733
70647W        W31936  36.067  33.061   2.259
70648W        W31937  10.839  41.957   2.384
70649W        W31938  26.089   1.849   3.170
70650W        W31939  39.322  29.628  14.830
70651W        W31940  36.011  18.578   2.666
70652W        W31941  42.307  17.637   3.177
70653W        W31942  19.759  18.245   2.879
70654W        W31943   6.910  30.924   2.361
70655W        W31944  28.070  19.111  11.559
70656W        W31945  14.749  27.949   1.360
70657W        W31946  34.081  37.503   2.822
70658W        W31947  12.339   8.693  13.029
70659W        W31948   7.676  19.669  12.039
70660W        W31949  38.559  25.619  11.591
70661W        W31950  15.649   9.243  11.529
70662W        W31951  43.471  10.228  13.040
70663W        W31952  20.646  11.723  11.867
70664W        W31953  37.899  18.731   2.725
70665W        W31954  23.635   3.905  10.933
70666W        W31955   0.260  24.982   4.272
70667W        W31956   7.851  17.758  10.614
70668W        W31957  15.650  40.011   2.685
70669W        W31958   4.899  24.209   2.722
70670W        W31959  19.737   9.698  12.356
70671W        W31960   1.851  16.240  14.993
70672W        W31961  32.062  17.169  10.549
70673W        W31962  21.209  17.748   1.319
70674W        W31963  17.700   0.311  11.029
70675W        W31964  18.588  30.030  11.063
70676W        W31965   7.816  10.151  11.429
70677W        W31966  17.147  39.037   5.176
70678W        W31967  19.124  32.002   0.764
70679W        W31968  13.629  40.476   4.173
70680W        W31969   6.335   8.747  12.874
70681W        W31970  37.339   8.690  10.457
70682W        W31971  29.938  31.127  12.994
70683W        W31972  33.886   5.268  14.292
70684W        W31973  31.899   0.383  12.376
70685W        W31974  13.184  17.758  10.546
70686W        W31975  26.988  13.690  11.873
70687W        W31976  21.126   6.428  12.954
70688W        W31977   4.330   2.239  13.803
70689W        W31978  25.176  30.617  10.127
70690W        W31979  39.912  22.600   0.279
70691W        W31980  42.319  42.919  11.089
70692W        W31981  41.481  11.177  14.935
70693W        W31982  28.002  12.784  13.427
70694W        W31983  13.648  13.308   2.216
70695W        W31984  43.363  25.015  11.906
70696W        W31985   7.748   2.452  12.876
70697W        W31986  14.831  28.060  14.354
70698W        W31987  30.101  40.467  10.585
70699W        W31988  18.216  17.600   0.911
70700W        W31989  43.875  25.579   4.155
70701W        W31990   1.835   0.878   2.731
70702W        W31991   4.844  29.989   2.200
70703W        W31992   0.321  27.104  14.011
70704W        W31993   7.745  10.140   1.755
70705W        W31994   1.477  20.729  10.508
70706W        W31995   2.808  22.648   4.684
70707W        W31996  23.689  16.199   1.869
70708W        W31997  23.194  11.357  12.396
70709W        W31998  17.105   9.269   1.905
70710W        W31999   4.439  33.092   4.826
70711W        W32000  32.931  22.519  12.972
70712W        W32001  42.310  18.216  11.122
70713W        W32002  33.952  17.083  11.608
70714W        W32003  21.017  18.273  11.464
70715W        W32004  19.093  41.882   3.193
70716W        W32005  33.100  43.280  12.015
70717W        W32006   2.310  39.828  13.887
70718W        W32007  30.143  38.860   4.684
70719W        W32008  18.283  30.105  13.835
70720W        W32009  35.948  35.440  13.997
70721W        W32010  40.903  19.112  13.956
70722W        W32011  19.678   0.974   4.653
70723W        W32012  33.565  25.206  14.941
70724W        W32013  30.414   9.721   4.186
70725W        W32014  14.715  38.998   3.730
70726W        W32015  30.074  23.605   4.182
70727W        W32016  39.528  33.472  12.478
70728W        W32017  15.216  11.208   1.353
70729W        W32018  15.741  39.820  13.951
70730W        W32019  11.205   5.815  14.481
70731W        W32020  38.058   0.402  14.987
70732W        W32021  34.967  33.086   0.431
70733W        W32022  19.182   1.961  13.900
70734W        W32023  17.244   7.904   3.691
70735W        W32024  34.918  12.186  14.809
70736W        W32025  36.035   6.776  14.277
70737W        W32026   2.424  42.926  10.524
70738W        W32027  19.670  43.359   1.335
70739W        W32028  12.255  13.172  13.457
70740W        W32029  14.186  22.622  14.374
70741W        W32030  34.592  17.649  12.449
70742W        W32031  33.563  22.138  12.845
70743W        W32032  40.023   7.278  14.985
70744W        W32033  44.822  29.666  10.471
70745W        W32034  14.799  15.251   0.460
70746W        W32035  39.388  10.849  12.457
70747W        W32036   7.812  33.039   2.330
70748W        W32037  34.432  36.933  11.492
70749W        W32038  29.512   9.699   3.330
70750W        W32039  11.152  13.605   2.849
70751W        W32040   9.205   6.879  14.842
70752W        W32041  32.522   1.395   5.648
70753W        W32042  17.236  31.938  12.565
70754W        W32043  29.468   4.277   1.868
70755W        W32044   8.705   3.941   5.273
70756W        W32045  37.389  36.045   2.742
70757W        W32046   7.302  44.793   2.190
70758W        W32047  33.531  40.839  11.409
70759W        W32048  35.051  16.244  12.877
70760W        W32049  28.561  19.110  13.807
70761W        W32050  19.710  17.226   3.377
70762W        W32051   7.738  15.822  14.476
70763W        W32052  15.644  25.613   4.138
70764W        W32053  26.596  31.150  12.362
70765W        W32054   9.664  34.534  14.387
70766W        W32055  18.755   4.761   4.769
70767W        W32056   0.428  25.149  12.043
70768W        W32057  44.449   7.809  14.858
70769W        W32058  10.841  32.584  13.981
70770W        W32059  31.032  32.473  13.390
70771W        W32060  37.557  33.048  12.858
70772W        W32061  44.763  38.347  11.399
70773W        W32062  35.995  39.361   2.877
70774W        W32063  31.550  40.045  12.534
70775W        W32064  36.033   8.378   0.905
70776W        W32065  25.708  15.614   5.272
70777W        W32066  22.507  10.181  10.027
70778W        W32067   9.654  43.844   5.301
70779W        W32068  26.989  18.743   4.333
70780W        W32069   7.351  22.522   2.245
70781W        W32070  11.188  43.360  10.561
70782W        W32071  42.829  29.503   3.164
70783W        W32072  10.649  40.927   4.203
70784W        W32073  36.505  40.916  14.903
70785W        W32074  16.291  16.795   3.865
70786W        W32075   2.316  30.120   1.438
70787W        W32076  11.805  24.092   5.203
70788W        W32077   1.347   8.377   4.616
70789W        W32078  10.808  25.635   2.239
70790W        W32079  20.148  29.069  13.001
70791W        W32080  10.166  34.439   5.694
70792W        W32081  21.145  43.806  14.360
70793W        W32082   7.324  37.054   3.682
70794W        W32083   3.787  35.513  11.398
70795W        W32084  14.597  23.586  13.810
70796W        W32085  34.003   1.960  11.394
70797W        W32086  13.838  28.081  11.428
70798W        W32087  37.349  41.884   1.376
70799W        W32088  31.526  36.450  14.346
70800W        W32089  20.615   6.400  11.583
70801W        W32090  15.290   8.656   2.243
70802W        W32091   4.753   1.790   1.923
70803W        W32092   9.372  30.470   4.164
70804W        W32093  44.333  44.409   2.198
70805W        W32094  12.688  19.133  12.936
70806W        W32095  13.814  34.373   0.768
70807W        W32096  29.070  24.191   1.439
70808W        W32097  20.081  41.855   0.815
70809W        W32098   7.833  34.092  14.295
70810W        W32099  23.000  25.177   3.258
70811W        W32100  10.752  33.623   2.316
70812W        W32101  14.687   8.242   4.254
70813W        W32102  12.311  41.846  14.290
70814W        W32103  32.984  20.239  13.411
70815W        W32104   8.668  36.011  14.458
70816W        W32105  30.429  19.109  12.540
70817W        W32106  40.041  44.869  11.944
70818W        W32107   4.772  22.041   2.831
70819W        W32108  10.176   2.354  13.428
70820W        W32109  35.868  18.138  13.497
70821W        W32110  23.551  10.807   0.918
70822W        W32111  39.534  16.604   1.837
70823W        W32112   8.768  35.872  12.924
70824W        W32113  38.332  44.830  12.434
70825W        W32114  40.322  23.723   0.379
70826W        W32115  39.390  29.499   1.439
70827W        W32116  26.501  38.971  11.118
70828W        W32117  19.534  18.630  11.955
70829W        W32118  44.411   1.869   2.854
70830W        W32119  42.417  38.886  10.490
70831W        W32120   0.974   0.891   1.422
70832W        W32121  11.194   2.262  11.427
70833W        W32122   3.907  17.790   1.712
70834W        W32123  41.821   0.406  10.421
70835W        W32124   4.729  36.584  10.447
70836W        W32125  44.855  31.028   4.830
70837W        W32126  39.337  31.594  10.465
70838W        W32127  24.184  19.119  13.916
70839W        W32128  29.924  26.552  11.958
70840W        W32129  38.866  20.207  11.077
70841W        W32130  10.341  41.940   3.642
70842W        W32131  42.321  22.617   2.212
70843W        W32132   9.304  35.918  14.455
70844W        W32133  41.534  27.499   1.243
70845W        W32134   1.476   8.268   9.473
70846W        W32135  16.161  29.662   1.407
70847W        W32136   3.866  36.466  14.360
70848W        W32137  16.726  19.717   3.795
70849W        W32138  15.602  29.137  13.058
70850W        W32139  12.611  18.701  10.541
70851W        W32140  16.097  31.069  11.859
70852W        W32141  18.109  12.143  12.043
70853W        W32142   6.273  14.244   1.927
70854W        W32143  11.285   5.322   3.817
70855W        W32144  17.571  36.349   0.867
70856W        W32145  38.333  28.447   4.211
70857W        W32146  21.591  30.051  14.421
70858W        W32147  30.996  42.828  13.333
70859W        W32148  38.421  15.306   3.315
70860W        W32149  32.072  14.136  13.814
70861W        W32150   7.746  37.449  14.331
70862W        W32151  16.245  35.028   0.320
70863W        W32152  25.056  39.437   4.239
70864W        W32153  18.182  28.668  11.484
70865W        W32154  20.229  28.114   3.726
70866W        W32155  19.051  28.932   0.852
70867W        W32156  38.067  19.187  10.641
70868W        W32157  32.436  22.573  10.515
70869W        W32158  22.241   1.924  13.364
70870W        W32159  17.175  25.185   1.735
70871W        W32160  28.653  39.898  12.522
70872W        W32161   1.910  10.634  12.558
70873W        W32162  36.985  41.917   0.748
70874W        W32163  28.931  44.889   0.791
70875W        W32164  15.794  40.400   2.353
70876W        W32165  13.759  26.101  14.506
70877W        W32166  10.797  17.138   3.832
70878W        W32167  41.869  16.621   5.724
70879W        W32168  21.640  33.934   2.880
70880W        W32169  12.156  35.029   1.225
70881W        W32170   5.309  34.894   4.812
70882W        W32171  16.633  37.007   1.432
70883W        W32172  31.081  38.512   0.398
70884W        W32173  35.853  16.797   0.873
70885W        W32174  32.889  30.657   0.438
70886W        W32175  16.741  31.449   4.180
70887W        W32176   5.262   9.237   3.318
70888W        W32177  15.262  17.644   4.614
70889W        W32178  20.186  11.712  11.057
70890W        W32179  12.145  11.200   3.303
70891W        W32180   5.810  25.514  13.329
70892W        W32181   6.428  19.700  14.513
70893W        W32182   6.419  32.985   4.176
70894W        W32183  36.902  23.007  10.420
70895W        W32184  22.601  14.117  14.289
70896W        W32185   1.455  17.793   2.886
70897W        W32186   5.724  27.481   0.358
70898W        W32187  31.080  43.507   3.251
70899W        W32188  37.079  22.691   0.934
70900W        W32189  30.082   0.480  11.497
70901W        W32190  44.890   4.231  11.111
70902W        W32191  27.175  35.463  14.315
70903W        W32192   0.280  17.158   1.701
70904W        W32193  10.843  28.965   1.220
70905W        W32194  20.527  25.132   4.309
70906W        W32195   1.840  14.763  10.887
70907W        W32196  15.151  21.188  10.527
70908W        W32197  27.179  37.963  13.469
70909W        W32198  37.566   9.354  10.965
70910W        W32199  23.640  40.976  11.578
70911W        W32200  28.468  18.296   0.403
70912W        W32201  42.844  41.470   3.248
70913W        W32202  35.572  43.386   2.745
70914W        W32203  25.527  38.333   1.839
70915W        W32204   0.893  19.723   2.210
70916W        W32205  30.479  16.112  10.580
70917W        W32206  11.146  11.799   4.308
70918W        W32207  18.776   9.811  13.522
70919W        W32208  22.211   8.281   4.633
70920W        W32209  34.479  26.518   3.357
70921W        W32210   3.357  22.617  14.895
70922W        W32211   8.685   8.249  14.804
70923W        W32212  20.161  30.600  12.013
70924W        W32213  38.844  23.649   2.795
70925W        W32214  18.087  20.112  14.844
70926W        W32215  24.073  17.643  12.049
70927W        W32216   0.824  11.792   2.746
70928W        W32217  14.615  36.401   3.826
70929W        W32218   2.295   7.284   1.240
70930W        W32219  21.057   1.792   3.235
70931W        W32220  19.159   5.372  11.441
70932W        W32221   4.773  34.083  11.889
70933W        W32222  38.934  26.462   3.323
70934W        W32223   6.291  13.310  12.482
70935W        W32224  33.131  14.157  11.115
70936W        W32225   5.836  12.671  10.446
70937W        W32226  40.955  40.388  10.509
70938W        W32227  26.036  39.547   0.326
70939W        W32228  12.813  43.442  11.393
70940W        W32229  39.952   3.869  12.536
70941W        W32230  18.614  34.964  13.539
70942W        W32231   8.817  19.182  12.929
70943W        W32232  42.825  17.067   5.293
70944W        W32233  39.513  35.588   1.339
70945W        W32234  37.006  26.035   0.308
70946W        W32235   3.277  44.372   5.198
70947W        W32236   6.824  15.149   3.680
70948W        W32237   4.297  35.021   4.235
70949W        W32238   5.906  14.156  12.379
70950W        W32239  34.373  23.573   0.900
70951W        W32240   6.253  12.193   3.643
70952W        W32241  21.076  31.551   1.239
70953W        W32242  24.979  12.714   4.298
70954W        W32243  41.940  13.833  13.877
70955W        W32244  19.666  17.304  13.417
70956W        W32245  25.670  39.444   4.697
70957W        W32246   9.343  15.730   3.358
70958W        W32247  17.647  33.910   3.817
70959W        W32248  20.044  42.800   4.210
70960W        W32249  12.124  37.560  12.026
70961W        W32250  33.106  42.902   1.403
70962W        W32251   8.734  27.003   0.915
70963W        W32252  39.986   4.934   1.696
70964W        W32253  37.401  33.431  14.304
70965W        W32254   2.401   8.872  11.875
70966W        W32255  29.517   5.196   3.258
70967W        W32256  30.942  22.563  10.551
70968W        W32257  16.128   1.840  12.038
70969W        W32258   2.242  44.816  10.555
70970W        W32259  40.811  13.632  12.066
70971W        W32260   0.420  35.857   4.186
70972W        W32261   8.770  18.149  10.407
70973W        W32262  39.430   3.282  11.570
70974W        W32263  24.032  17.098   1.742
70975W        W32264  13.706  13.249  13.967
70976W        W32265  28.028   5.766   2.372
70977W        W32266  44.815  21.168   1.422
70978W        W32267  41.354  42.468  12.367
70979W        W32268  31.481  16.669   1.931
70980W        W32269  40.492  44.393  11.995
70981W        W32270  32.393  34.882  11.007
70982W        W32271  41.021   8.899   0.957
70983W        W32272  42.812  12.236   2.268
70984W        W32273   9.191   3.743   3.173
70985W        W32274  37.400  44.813   4.166
70986W        W32275  37.992  23.624   0.840
70987W        W32276   2.735  21.708  14.276
70988W        W32277  32.048  18.606   3.270
70989W        W32278   9.721   5.760   4.641
70990W        W32279  30.035  36.064  12.526
70991W        W32280  16.611  32.096   1.926
70992W        W32281   2.883  40.004   1.889
70993W        W32282  21.131  25.116   4.216
70994W        W32283  25.043  30.470  11.442
70995W        W32284  39.453  31.592   1.915
70996W        W32285  21.102  21.600   2.396
70997W        W32286  38.843   5.261  14.438
70998W        W32287  43.924  33.474   4.267
70999W        W32288   0.954  29.994  10.502
71000W        W32289  12.340  12.203   0.890
71001W        W32290   0.450  31.423   1.835
71002W        W32291  34.958  21.227  14.789
71003W        W32292   4.755  29.941   4.284
71004W        W32293  43.929  26.961   4.764
71005W        W32294  31.469  24.619   1.883
71006W        W32295  43.894  31.639   1.341
71007W        W32296  34.915   8.728  12.096
71008W        W32297  19.578  14.335  11.984
71009W        W32298  34.503   0.976   5.239
71010W        W32299  40.980  22.088  13.415
71011W        W32300  32.950  39.544   2.756
71012W        W32301  12.265  37.967  13.387
71013W        W32302  13.608  41.508  12.997
71014W        W32303  41.440   2.727  12.369
71015W        W32304  15.702   7.308  12.420
71016W        W32305  26.672  15.228   3.251
71017W        W32306  44.890  27.041  13.943
71018W        W32307   9.228   4.754   0.884
71019W        W32308   2.842  30.452   4.761
71020W        W32309  26.012  19.129   2.841
71021W        W32310  15.198  15.663  10.084
71022W        W32311  27.065  39.498   4.825
71023W        W32312   3.408   3.417  10.610
71024W        W32313  33.910  23.592  11.377
71025W        W32314  29.967  36.362   3.836
71026W        W32315  13.661  44.981   2.841
71027W        W32316   1.285  33.614   1.782
71028W        W32317  29.547   7.265  14.370
71029W        W32318  34.058  41.003  13.975
71030W        W32319  16.760  37.457  13.032
71031W        W32320   4.223  28.517  14.934
71032W        W32321  10.252  14.330   1.307
71033W        W32322  34.070  42.852  11.894
71034W        W32323  31.622  37.988  10.916
71035W        W32324  25.699  27.008  11.090
71036W        W32325  14.143   4.708  11.472
71037W        W32326  42.793  27.164  12.432
71038W        W32327  23.732   9.655   5.178
71039W        W32328   6.226  12.159  12.579
71040W        W32329  14.803   9.183  13.909
71041W        W32330  28.096  44.798   0.316
71042W        W32331   0.988  13.676  10.891
71043W        W32332  30.596  34.455  12.497
71044W        W32333   6.837  43.915   2.876
71045W        W32334  28.038  33.088   3.680
71046W        W32335  43.301  24.066  10.970
71047W        W32336   5.396   2.898  11.029
71048W        W32337  42.422  34.037   2.741
71049W        W32338   7.798  32.476   1.251
71050W        W32339  33.604   4.283  13.488
71051W        W32340  42.491   6.917  12.875
71052W        W32341   0.381  39.316   4.674
71053W        W32342   7.408  10.713  13.823
71054W        W32343   1.477   3.877   4.605
71055W        W32344  40.805  38.344   4.619
71056W        W32345  11.244  32.909  14.405
71057W        W32346   1.926  38.429   4.287
71058W        W32347  23.109   9.267  11.390
71059W        W32348  19.651  36.558  12.555
71060W        W32349  23.686  42.941   4.309
71061W        W32350  22.030  35.436   3.309
71062W        W32351  44.970  18.769  14.454
71063W        W32352  15.108   0.911  13.513
71064W        W32353   5.192  18.710  12.941
71065W        W32354  40.980   5.882   1.362
71066W        W32355  36.071  13.785   1.785
71067W        W32356  42.370  40.394  12.500
71068W        W32357  37.547   4.759   5.173
71069W        W32358  14.321   4.759   4.791
71070W        W32359   7.414   5.282   0.906
71071W        W32360  43.970   0.415   4.349
71072W        W32361  32.066   7.300  14.856
71073W        W32362  29.464  11.687   0.765
71074W        W32363  37.973  15.175  13.443
71075W        W32364  22.249   7.210  12.379
71076W        W32365  10.188  10.189  10.463
71077W        W32366  38.534  17.683  13.478
71078W        W32367  42.307  29.453  10.510
71079W        W32368  12.353  21.250   9.939
71080W        W32369  19.652  24.171   0.961
71081W        W32370  38.065  12.648   4.654
71082W        W32371   5.300   2.763  13.843
71083W        W32372  22.639  11.783  14.828
71084W        W32373  12.762  36.055  11.930
71085W        W32374  22.544  35.577  13.535
71086W        W32375  17.768   1.307   4.687
71087W        W32376  30.067  35.023  10.502
71088W        W32377  23.515  17.307  13.819
71089W        W32378  25.201  41.041  11.558
71090W        W32379  17.159  36.483  11.479
71091W        W32380  29.547  31.490   3.871
71092W        W32381  20.076  40.423   2.400
71093W        W32382   6.229  36.914   3.734
71094W        W32383  13.267   5.241  10.898
71095W        W32384  31.911  21.753   1.747
71096W        W32385  23.705  41.889   0.805
71097W        W32386  33.386  35.929  10.945
71098W        W32387  13.703   6.863  12.054
71099W        W32388   6.289   9.175   3.694
71100W        W32389  15.142  42.954   1.731
71101W        W32390  36.347  33.107  10.602
71102W        W32391  35.534   3.343  13.334
71103W        W32392   3.242  17.774   3.145
71104W        W32393  33.062   8.781   0.447
71105W        W32394  40.459   1.873  10.925
71106W        W32395  23.516  27.049  13.058
71107W        W32396  32.450  15.636   2.732
71108W        W32397  35.953  18.763  12.538
71109W        W32398   3.769   1.382   4.652
71110W        W32399  21.240  35.418  11.996
71111W        W32400  21.072  31.495   2.861
71112W        W32401   4.418  43.418   3.376
71113W        W32402  29.147  39.811  13.797
71114W        W32403  11.293  37.889   2.328
71115W        W32404   9.330   6.691  11.558
71116W        W32405   2.371   6.380  13.960
71117W        W32406  33.614   1.912  11.593
71118W        W32407   6.225   2.940   3.255
71119W        W32408  37.876   4.373  11.902
71120W        W32409  35.441   7.393   4.304
71121W        W32410  16.781   5.336  14.870
71122W        W32411  16.645  30.118  14.919
71123W        W32412  40.803   2.900  12.529
71124W        W32413  24.532  19.631   4.320
71125W        W32414  28.078  29.476  11.563
71126W        W32415  34.866  16.240   0.316
71127W        W32416   4.810  14.660   4.286
71128W        W32417   3.238  41.366   2.217
71129W        W32418  18.162  27.955   1.728
71130W        W32419  38.528  12.730  14.975
71131W        W32420  38.344  36.392   3.769
71132W        W32421   4.868  34.471  12.829
71133W        W32422  30.454  22.220   2.355
71134W        W32423   8.776  42.025   4.216
71135W        W32424  33.122  20.206  11.494
71136W        W32425  12.130  10.319   3.338
71137W        W32426  23.635  41.794   0.414
71138W        W32427  18.139  31.010   2.270
71139W        W32428  17.095  39.358   1.369
71140W        W32429  22.247  12.660  14.373
71141W        W32430  30.159  30.638   2.687
71142W        W32431  39.952  30.088  12.369
71143W        W32432  21.253   3.275   2.359
71144W        W32433   1.845  23.012  12.869
71145W        W32434   5.289  44.826  13.988
71146W        W32435   0.261   9.815   2.866
71147W        W32436  38.443   4.930  10.463
71148W        W32437  18.085  37.058  11.124
71149W        W32438   2.875   5.932  11.601
71150W        W32439  13.787  31.539  14.931
71151W        W32440  13.245  33.492   2.779
71152W        W32441   2.471  38.967   2.196
71153W        W32442  17.298   4.729   4.161
71154W        W32443   0.933  21.707  11.030
71155W        W32444  13.837   4.367  13.998
71156W        W32445  10.213  34.070  10.990
71157W        W32446  39.553  38.920  11.941
71158W        W32447  26.488  22.677  13.433
71159W        W32448  24.186   0.862  13.436
71160W        W32449  21.674   9.738   0.809
71161W        W32450  29.150  27.637  12.829
71162W        W32451  33.479  28.463   1.757
71163W        W32452  33.609  27.048   2.707
71164W        W32453  29.154  33.500   4.795
71165W        W32454  30.507  18.247   4.315
71166W        W32455  10.783   8.797  11.005
71167W        W32456  28.097  17.219  14.905
71168W        W32457   7.772  17.705  14.493
71169W        W32458  32.481  40.500  13.954
71170W        W32459  25.980  10.690  11.549
71171W        W32460  22.090  43.468  10.510
71172W        W32461  20.119  36.887  13.025
71173W        W32462   4.850  21.608  12.400
71174W        W32463  31.057  24.016   3.218
71175W        W32464  33.559  33.901   4.290
71176W        W32465  32.900  37.460  11.476
71177W        W32466  11.793  13.817  12.902
71178W        W32467  38.435  32.562  13.372
71179W        W32468  18.582   0.859  11.121
71180W        W32469   4.378  36.917  10.584
71181W        W32470   9.663  17.101   4.301
71182W        W32471  33.078  11.348  13.884
71183W        W32472  31.948   4.777  11.895
71184W        W32473  15.217  17.619   0.896
71185W        W32474  40.037  33.397   2.901
71186W        W32475  41.317  37.937   0.939
71187W        W32476  33.974  42.331  10.628
71188W        W32477  44.000   1.362   4.625
71189W        W32478  27.112  32.631  12.461
71190W        W32479  38.951  18.258  14.438
71191W        W32480  37.380  23.098   2.353
71192W        W32481  25.542  10.228  12.043
71193W        W32482  14.231  33.087   1.753
71194W        W32483   2.398  42.367  13.871
71195W        W32484  19.592  21.701   2.853
71196W        W32485  32.616  44.346  12.407
71197W        W32486  30.023  30.556   2.322
71198W        W32487   8.354  26.121   2.265
71199W        W32488   1.743  21.622  10.505
71200W        W32489  26.975   5.792  11.975
71201W        W32490  28.035  24.027   2.671
71202W        W32491  27.953  17.721  10.527
71203W        W32492  23.210  35.875   4.824
71204W        W32493  41.495  40.001  11.546
71205W        W32494  22.172  44.346  12.863
71206W        W32495  16.154   2.771   2.358
71207W        W32496  35.874  44.444   3.857
71208W        W32497   6.303  26.665   3.867
71209W        W32498  35.035   4.281   0.770
71210W        W32499  39.066  10.185   2.336
71211W        W32500  20.031  20.729   0.357
71212W        W32501   8.736  10.295   1.753
71213W        W32502  34.444  12.677   3.862
71214W        W32503  12.345  32.494  13.032
71215W        W32504  16.695  43.973  10.987
71216W        W32505  14.314   1.376  14.989
71217W        W32506  40.471   7.351   4.597
71218W        W32507  28.597  42.441   1.378
71219W        W32508  36.348  30.503  11.047
71220W        W32509   9.366   7.895  12.549
71221W        W32510  15.160  32.586  11.934
71222W        W32511  32.632  11.772  10.452
71223W        W32512  44.983  28.932  12.963
71224W        W32513  43.374  15.713  10.057
71225W        W32514   6.407  36.456  12.484
71226W        W32515  33.386  32.528  10.591
71227W        W32516  14.096   7.253  12.024
71228W        W32517  43.804  40.358   3.698
71229W        W32518  30.594  38.898   0.451
71230W        W32519  14.174  44.813   2.275
71231W        W32520  44.870  10.752  11.466
71232W        W32521   0.953  12.339  12.538
71233W        W32522  18.139  40.032  10.519
71234W        W32523  17.678  30.145   1.729
71235W        W32524  26.207  14.334  13.501
71236W        W32525  27.522  22.144   2.681
71237W        W32526  22.679  20.252  12.091
71238W        W32527  10.666   8.180  11.394
71239W        W32528  36.460  16.252   1.309
71240W        W32529  41.824  34.023  13.882
71241W        W32530  12.670  32.608   3.360
71242W        W32531  11.765  10.351  12.862
71243W        W32532  40.463  42.990  13.457
71244W        W32533  19.212  13.238  11.969
71245W        W32534  14.315  44.309  12.578
71246W        W32535  28.015  34.080  11.009
71247W        W32536  25.701  32.139   1.760
71248W        W32537   5.213   4.743  12.405
71249W        W32538  17.281  37.012   3.312
71250W        W32539  43.918  32.986   2.303
71251W        W32540   2.385  38.457  14.380
71252W        W32541   7.231  12.850   1.219
71253W        W32542  38.396   7.387  14.031
71254W        W32543  38.420  21.567   5.260
71255W        W32544  35.454  43.297   4.194
71256W        W32545  26.045  25.114   5.206
71257W        W32546   3.741  41.934   0.960
71258W        W32547   4.273  31.119   3.643
71259W        W32548  20.104   9.364   4.285
71260W        W32549  44.789  27.496   3.264
71261W        W32550  35.510  13.841  12.501
71262W        W32551   3.217  43.510  10.540
71263W        W32552  29.957  15.097  12.477
71264W        W32553  37.527  35.590   0.320
71265W        W32554   9.313  10.876  14.489
71266W        W32555  21.034  19.132   4.215
71267W        W32556   6.222  35.902   2.371
71268W        W32557  14.813  12.161  14.831
71269W        W32558  12.846  12.808  11.060
71270W        W32559  43.286   4.396  11.909
71271W        W32560  28.510  12.139  12.066
71272W        W32561  13.611   6.825  13.044
71273W        W32562  13.195   5.272   2.883
71274W        W32563   1.369  18.656   2.676
71275W        W32564  41.834  44.351   3.743
71276W        W32565  40.526   1.943  12.925
71277W        W32566  15.799  28.162   3.790
71278W        W32567   0.908  23.078  13.435
71279W        W32568  35.046  20.080  11.475
71280W        W32569  19.273  22.557   0.936
71281W        W32570  26.695   8.801  14.320
71282W        W32571   1.377   5.811  10.996
71283W        W32572  35.887  16.805   3.837
71284W        W32573  21.224  38.457   0.273
71285W        W32574  31.030  14.644   4.774
71286W        W32575   5.225  35.561   4.671
71287W        W32576  10.312  11.132   2.890
71288W        W32577  28.649   4.425   1.304
71289W        W32578   3.316  39.359   3.728
71290W        W32579   8.398   6.908   1.738
71291W        W32580  40.997   4.822   0.444
71292W        W32581  32.420  33.490  10.964
71293W        W32582  43.464  44.468   4.697
71294W        W32583  26.962   5.848  11.037
71295W        W32584  43.993  35.096   0.922
71296W        W32585  17.787  28.067   3.796
71297W        W32586  16.084   6.813  10.898
71298W        W32587  15.284  28.444   4.700
71299W        W32588  12.296  29.491  12.559
71300W        W32589  26.628  30.918   1.332
71301W        W32590   6.787  41.430  10.500
71302W        W32591   7.345  20.244  10.509
71303W        W32592  27.194  37.412  14.801
71304W        W32593   9.320  28.096  11.920
71305W        W32594  32.954  36.550  12.543
71306W        W32595  10.371  42.841   2.683
71307W        W32596  15.632  33.971   2.715
71308W        W32597  12.789  36.369   4.651
71309W        W32598  18.125  44.773   4.121
71310W        W32599  27.956  14.178   2.356
71311W        W32600  26.657  17.582   4.626
71312W        W32601  14.122  35.479   3.824
71313W        W32602  29.528  16.238  12.571
71314W        W32603  41.974  11.367   1.419
71315W        W32604   2.930  26.702   0.858
71316W        W32605  43.286  31.057  14.422
71317W        W32606  42.794  35.447   3.830
71318W        W32607  33.888  17.286   1.834
71319W        W32608  33.562  21.647   9.941
71320W        W32609  44.295  34.956  11.610
71321W        W32610  25.172  44.487   3.385
71322W        W32611  11.131  26.037   2.219
71323W        W32612  37.874  37.081  14.279
71324W        W32613  20.657  18.082   2.376
71325W        W32614  16.722  11.866  14.961
71326W        W32615  18.656  24.086   0.831
71327W        W32616  30.071  28.106  13.526
71328W        W32617  37.894  37.960  12.955
71329W        W32618   4.896  37.501   0.361
71330W        W32619   2.888  18.633   2.299
71331W        W32620  18.603  12.762  11.995
71332W        W32621  12.742  28.021   4.838
71333W        W32622   2.965  36.372   1.779
71334W        W32623  35.954  20.247   0.292
71335W        W32624  32.449  26.559   1.407
71336W        W32625  35.860  35.536   2.822
71337W        W32626  20.143   7.751  10.631
71338W        W32627   8.397  23.181   0.380
71339W        W32628  25.516   4.407  13.879
71340W        W32629   1.806  27.130   2.414
71341W        W32630   9.228  31.037   3.639
71342W        W32631  33.555   1.430   0.769
71343W        W32632   9.826   6.867   1.797
71344W        W32633   2.242  41.335  13.475
71345W        W32634  16.159  13.636   2.277
71346W        W32635  16.302  16.187  11.372
71347W        W32636  36.863  36.982  14.941
71348W        W32637  16.255  29.065   1.255
71349W        W32638   3.740  15.202   1.363
71350W        W32639  21.164  39.555  13.057
71351W        W32640  42.936  35.898   0.451
71352W        W32641  16.298  20.158   4.280
71353W        W32642  21.124  27.106   2.324
71354W        W32643   1.883  32.041  14.391
71355W        W32644  25.618  17.139  12.523
71356W        W32645  30.545   7.861   2.235
71357W        W32646   8.730  23.997   5.136
71358W        W32647  29.919  25.014  14.503
71359W        W32648   1.261  26.005  11.372
71360W        W32649  28.039  39.842   2.312
71361W        W32650   4.912  26.638   4.697
71362W        W32651  41.854  13.234   2.695
71363W        W32652  21.678  23.513   5.748
71364W        W32653  14.153   0.764   3.802
71365W        W32654  23.514  32.408   3.305
71366W        W32655  11.341   3.723  14.375
71367W        W32656   8.688   4.271  10.537
71368W        W32657  30.504  31.471  14.840
71369W        W32658  16.312  29.951  11.936
71370W        W32659   9.304   6.786  13.978
71371W        W32660  43.903  25.114  14.896
71372W        W32661  38.905  18.552   1.368
71373W        W32662  24.221  20.249  10.567
71374W        W32663  34.048  11.270  11.907
71375W        W32664  44.469  28.064   5.246
71376W        W32665  37.518  30.451   0.938
71377W        W32666  25.180  44.374   0.470
71378W        W32667  33.898  11.132   4.224
71379W        W32668  19.183   2.417  10.423
71380W        W32669  11.841   9.275  12.447
71381W        W32670  22.182  24.632   2.377
71382W        W32671  33.615  39.326   5.224
71383W        W32672   5.892  20.059  11.074
71384W        W32673  39.863  26.207  11.523
71385W        W32674  37.504  38.449  14.338
71386W        W32675   1.349  10.752   5.241
71387W        W32676  25.595  16.278  13.031
71388W        W32677  36.428  25.077   0.430
71389W        W32678  38.407  40.027   2.787
71390W        W32679  37.966  14.111  13.425
71391W        W32680  39.046  36.422  12.002
71392W        W32681  10.637  19.102  12.967
71393W        W32682   9.272  17.740   2.849
71394W        W32683   8.163   7.742   3.279
71395W        W32684  27.496   9.313   0.808
71396W        W32685  24.536   7.221   2.814
71397W        W32686  42.376  20.729  13.008
71398W        W32687  25.046  21.154   1.776
71399W        W32688  25.508   1.452   0.254
71400W        W32689  20.711   5.730   1.315
71401W        W32690   0.476  27.542  10.932
71402W        W32691  11.128  42.512   2.848
71403W        W32692   9.825  36.071   3.707
71404W        W32693  43.367  29.564   0.759
71405W        W32694   4.224  14.293   0.863
71406W        W32695  17.796  22.077   2.811
71407W        W32696  35.005  14.097   1.934
71408W        W32697   4.930   7.331  10.054
71409W        W32698  31.920  39.898   0.286
71410W        W32699  24.611  24.186   3.731
71411W        W32700  25.601  37.468   3.641
71412W        W32701  32.500   5.320  12.361
71413W        W32702   9.207  25.073  10.075
71414W        W32703  24.547  19.770   4.827
71415W        W32704  12.693  13.833   3.353
71416W        W32705  31.113  15.123  13.397
71417W        W32706  39.987  33.531   4.672
71418W        W32707   8.812   5.206  13.346
71419W        W32708  14.297  14.624  12.371
71420W        W32709  13.785  24.576   0.731
71421W        W32710   0.453  13.350   2.230
71422W        W32711  20.704   4.742   3.666
71423W        W32712  31.943  18.133  11.530
71424W        W32713  30.541   2.302   2.413
71425W        W32714  29.458  36.897   3.693
71426W        W32715  40.363  44.376  10.643
71427W        W32716  33.935  42.871   0.480
71428W        W32717  35.372   5.707  13.859
71429W        W32718   3.885  12.826  11.961
71430W        W32719   1.446   4.739  13.341
71431W        W32720  10.263  23.627   3.812
71432W        W32721  23.602   6.891  11.913
71433W        W32722  38.494  18.701   1.746
71434W        W32723  32.398  32.098   2.305
71435W        W32724  24.087   0.489  12.033
71436W        W32725  36.406  19.218  13.341
71437W        W32726   2.391  12.196   0.319
71438W        W32727  31.525  29.424   4.758
71439W        W32728  29.433  21.622  14.892
71440W        W32729  39.354   7.796  10.429
71441W        W32730  20.569   1.762   4.681
71442W        W32731  39.496   7.809   3.332
71443W        W32732  16.286   1.952   0.773
71444W        W32733   1.836  21.755  12.458
71445W        W32734  12.622  28.149   0.770
71446W        W32735  13.166  35.854   0.851
71447W        W32736  23.528   1.927  12.361
71448W        W32737  18.551  21.255  14.391
71449W        W32738  44.292  20.736  12.341
71450W        W32739  11.756  12.283   3.228
71451W        W32740   2.749  40.501  12.551
71452W        W32741  35.975   9.367   1.726
71453W        W32742  16.142   0.458  14.371
71454W        W32743  10.778  13.110  11.376
71455W        W32744   0.963   5.839  10.522
71456W        W32745  19.260   3.928   3.288
71457W        W32746  26.550   8.710  11.924
71458W        W32747   6.801  32.983  14.282
71459W        W32748  19.112  40.923   3.797
71460W        W32749   0.800  28.642   2.348
71461W        W32750   6.228  17.746   1.851
71462W        W32751   5.890  27.103  14.983
71463W        W32752  26.591  30.147  11.411
71464W        W32753  16.202  12.760   1.387
71465W        W32754  42.350  36.850   1.912
71466W        W32755  16.603   9.175  14.904
71467W        W32756   0.796  26.985   0.289
71468W        W32757  13.190   3.945   3.284
71469W        W32758   5.850  22.526  11.449
71470W        W32759  35.073  32.017  12.447
71471W        W32760   9.645  35.876  13.439
71472W        W32761   0.951   6.201   4.239
71473W        W32762  29.147   4.746   9.586
71474W        W32763  32.613  44.881   1.344
71475W        W32764   9.360  18.252   0.968
71476W        W32765  14.710  43.389  13.016
71477W        W32766  25.519   4.332   4.163
71478W        W32767  23.203  18.165  14.870
71479W        W32768  29.005   9.190  13.000
71480W        W32769   3.783  23.089  10.988
71481W        W32770  39.981  37.864   3.773
71482W        W32771  12.772  40.814   5.318
71483W        W32772  12.141  30.494  11.968
71484W        W32773  22.537  31.541   0.798
71485W        W32774   9.197  30.913   2.715
71486W        W32775  15.708  38.425   0.438
71487W        W32776  22.720   8.195  12.857
71488W        W32777   8.848  31.050  10.515
71489W        W32778  44.273   8.290  10.643
71490W        W32779  23.610  23.004  13.951
71491W        W32780  21.166  34.916  14.007
71492W        W32781  13.727  31.932   0.776
71493W        W32782   3.809  41.948   1.374
71494W        W32783  15.208  10.232   1.229
71495W        W32784  19.614   1.355   2.324
71496W        W32785   4.313  35.958  14.765
71497W        W32786  40.843  17.304   3.173
71498W        W32787  41.416  36.973  10.405
71499W        W32788  23.517   0.253  10.910
71500W        W32789   0.275   5.369  13.540
71501W        W32790   5.257  28.171  10.941
71502W        W32791  22.062   7.309  13.943
71503W        W32792  16.597  44.008  14.338
71504W        W32793  29.101  42.386   3.232
71505W        W32794  34.496  11.747   1.237
71506W        W32795  38.878  39.378  11.045
71507W        W32796  10.816  40.866   2.843
71508W        W32797  15.287  18.189   4.313
71509W        W32798  33.587  21.162   2.731
71510W        W32799  10.687   3.758   3.786
71511W        W32800   0.840  29.046   1.399
71512W        W32801  27.041   9.756   0.898
71513W        W32802  11.297  11.231  14.420
71514W        W32803  19.551  27.532  13.988
71515W        W32804  13.830  41.992   3.238
71516W        W32805  33.974  38.923  14.810
71517W        W32806  30.608  31.577   1.791
71518W        W32807  14.810   9.672   1.907
71519W        W32808  16.164  15.224   4.761
71520W        W32809  34.470  35.920   4.706
71521W        W32810  44.760   2.806  13.836
71522W        W32811  41.787  28.486  11.046
71523W        W32812  29.123  13.350  14.810
71524W        W32813   0.342   3.216   0.953
71525W        W32814  36.907  22.081  12.975
71526W        W32815   6.323   2.237   3.309
71527W        W32816  32.995  24.141  13.915
71528W        W32817   6.768  31.091   0.947
71529W        W32818  20.117  42.334  13.850
71530W        W32819  32.426  20.178  11.001
71531W        W32820  14.797  18.778   5.591
71532W        W32821  38.012  34.916   1.224
71533W        W32822   0.347  17.111   3.840
71534W        W32823   8.765  40.826  14.954
71535W        W32824  27.100  23.500   2.758
71536W        W32825  35.367  20.180  14.906
71537W        W32826  39.522  20.211   4.213
71538W        W32827  12.246   6.401  13.954
71539W        W32828  11.346   7.241  11.882
71540W        W32829  43.433  28.949  11.433
71541W        W32830  21.247  15.750  11.590
71542W        W32831  34.576  12.353   4.652
71543W        W32832  15.132  31.085  13.920
71544W        W32833   8.714  17.661  10.626
71545W        W32834   1.414  28.978  14.956
71546W        W32835   1.784  31.464   0.774
71547W        W32836   1.251  39.945   3.695
71548W        W32837  41.364  34.474   2.832
71549W        W32838   2.379  21.256   1.707
71550W        W32839   4.341   0.412   4.757
71551W        W32840  13.231   7.218   0.290
71552W        W32841  20.200  37.045   3.808
71553W        W32842  10.177  40.437   4.334
71554W        W32843  37.546   7.274  12.380
71555W        W32844  40.009  19.550  11.396
71556W        W32845  10.293   7.402   4.242
71557W        W32846  23.492  32.126   2.824
71558W        W32847  27.499   2.803  13.403
71559W        W32848  16.738  16.738  13.389
71560W        W32849  25.683   2.861   4.637
71561W        W32850  11.818  39.373   3.223
71562W        W32851  20.093   9.212   2.271
71563W        W32852  27.153   7.226   0.422
71564W        W32853  41.373  40.419  11.006
71565W        W32854  16.230  18.077  12.971
71566W        W32855   3.241   5.884   3.223
71567W        W32856  13.147  24.020   1.252
71568W        W32857  41.291  29.091  11.411
71569W        W32858  27.142   5.353   2.235
71570W        W32859  19.221  24.067  13.336
71571W        W32860  37.467  38.532   0.347
71572W        W32861  17.212  16.757   2.189
71573W        W32862  23.166  31.440   3.772
71574W        W32863  11.287   5.915   1.796
71575W        W32864  10.163  35.562  10.547
71576W        W32865  10.777  44.989   0.859
71577W        W32866  27.102  13.344  11.544
71578W        W32867  21.118  32.898  10.453
71579W        W32868  43.427  16.318  10.640
71580W        W32869  37.949  14.631  11.479
71581W        W32870  22.014  19.574  10.917
71582W        W32871   1.838  44.945  14.995
71583W        W32872  38.033   0.988   2.289
71584W        W32873   0.421  33.526   1.438
71585W        W32874  43.875  19.111   2.300
71586W        W32875  31.625  31.587  12.976
71587W        W32876  23.656  14.207   3.752
71588W        W32877  24.541  10.647  11.398
71589W        W32878  14.284  11.857  13.500
71590W        W32879  18.778  41.922  12.381
71591W        W32880  38.926  41.414   9.992
71592W        W32881  19.216  14.638  14.301
71593W        W32882  14.304  17.751  13.935
71594W        W32883  44.301  12.302   5.230
71595W        W32884  19.741  17.680   3.276
71596W        W32885  23.133  32.481  13.866
71597W        W32886   1.456  31.103  13.814
71598W        W32887  30.459  39.403   0.370
71599W        W32888   5.722   5.253  13.803
71600W        W32889   1.389  27.987   2.718
71601W        W32890   5.419   1.928  14.304
71602W        W32891  39.825  43.477   2.872
71603W        W32892  24.493  16.184   4.745
71604W        W32893  42.930  20.186   2.247
71605W        W32894  43.876   0.296   0.388
71606W        W32895   5.339  31.142   3.355
71607W        W32896  20.202   8.661   2.871
71608W        W32897  39.874   3.896  14.855
71609W        W32898  29.992  18.704   0.433
71610W        W32899   3.357  26.965  10.998
71611W        W32900   9.779  16.073   4.269
71612W        W32901  16.730  23.128  14.440
71613W        W32902  11.176  26.054   3.194
71614W        W32903  17.215  28.941  11.400
71615W        W32904  34.380  23.019   3.261
71616W        W32905  28.994   2.242  13.033
71617W        W32906  38.476  20.570  14.309
71618W        W32907  14.729  38.435  14.791
71619W        W32908  18.687  31.123  10.983
71620W        W32909   6.251  24.057  13.446
71621W        W32910  29.490  28.481   0.748
71622W        W32911   2.815  21.051  12.488
71623W        W32912   0.276  40.017   3.682
71624W        W32913   6.249  22.250   5.220
71625W        W32914   2.908   1.381   1.717
71626W        W32915  17.708   1.381  11.392
71627W        W32916   1.365   9.374   5.803
71628W        W32917  43.328  14.658   3.233
71629W        W32918  23.614  19.228  13.407
71630W        W32919   5.899  44.293   2.344
71631W        W32920  29.039  21.561  13.036
71632W        W32921   9.310  36.510   3.782
71633W        W32922  15.315  11.251   2.710
71634W        W32923   9.789  39.059   3.306
71635W        W32924  16.699   0.328   1.935
71636W        W32925  25.700  10.333   0.323
71637W        W32926   9.166  13.604  12.038
71638W        W32927  27.533   1.260   3.300
71639W        W32928  22.091  42.419   3.210
71640W        W32929   0.372  12.122   3.816
71641W        W32930   9.207   5.317   2.214
71642W        W32931  26.064  44.497  12.858
71643W        W32932   4.404  13.837  12.562
71644W        W32933   1.238   4.744  10.913
71645W        W32934  25.132  26.488   9.965
71646W        W32935  23.692   4.332   2.861
71647W        W32936   3.242   7.193   2.752
71648W        W32937  26.505   9.806  11.946
71649W        W32938  27.483  17.681  12.889
71650W        W32939  37.995  34.432  13.888
71651W        W32940  14.698  18.134   2.418
71652W        W32941  13.176  29.081  10.119
71653W        W32942   6.265  31.575  12.862
71654W        W32943  13.221  41.377   1.290
71655W        W32944   0.752   4.925   4.122
71656W        W32945  11.842  21.640  10.025
71657W        W32946   6.395  35.035  14.293
71658W        W32947  13.659  30.059   3.812
71659W        W32948   0.418  14.704  12.550
71660W        W32949  37.960  39.404  12.868
71661W        W32950  14.743  25.618   0.809
71662W        W32951  40.856  10.786   3.712
71663W        W32952  29.656  16.179  11.889
71664W        W32953   8.887  28.116   2.812
71665W        W32954   9.841  13.275   3.180
71666W        W32955  29.084   0.784   3.730
71667W        W32956  37.559  32.886   0.300
71668W        W32957   5.368   6.828  13.994
71669W        W32958   3.942  33.405  12.561
71670W        W32959  15.082  36.533   3.856
71671W        W32960   4.312   0.871  11.465
71672W        W32961  10.342  44.287   0.958
71673W        W32962  43.953   0.319   3.690
71674W        W32963   9.792   9.262   4.152
71675W        W32964  19.568  41.971  13.362
71676W        W32965  28.942  43.469   3.701
71677W        W32966  16.678  21.025   3.319
71678W        W32967  11.359  19.682   2.348
71679W        W32968  41.818   6.802   3.238
71680W        W32969  11.128  34.373  11.476
71681W        W32970  24.036   8.810  10.613
71682W        W32971  19.225  43.955  11.955
71683W        W32972  12.156  32.605  10.062
71684W        W32973  32.060  12.187   2.727
71685W        W32974  33.077  32.583   3.742
71686W        W32975  27.637  38.549   3.825
71687W        W32976  11.369  36.880  10.112
71688W        W32977  33.103   9.277  12.473
71689W        W32978  15.327  15.258  13.054
71690W        W32979  41.817  20.175  12.021
71691W        W32980  21.710  13.258  11.500
71692W        W32981  20.124   5.380  12.049
71693W        W32982  29.109  10.695  12.857
71694W        W32983  18.618   9.727   3.636
71695W        W32984  21.686  32.043   2.181
71696W        W32985  31.523  22.714   3.343
71697W        W32986  23.015  19.272  12.532
71698W        W32987  44.951  23.538   3.769
71699W        W32988  36.977   1.924  12.392
71700W        W32989  20.584  24.551  12.945
71701W        W32990   3.456   6.744  11.931
71702W        W32991   6.415  14.700   3.848
71703W        W32992   3.884  40.932   0.302
71704W        W32993   6.302  33.010  10.629
71705W        W32994  36.520  15.614  11.099
71706W        W32995  41.354  16.568   4.618
71707W        W32996  33.072   3.227  13.397
71708W        W32997  43.790  22.072  13.962
71709W        W32998   9.841  32.526   2.285
71710W        W32999  30.500   1.848   9.978
71711W        W33000   9.288  27.549  13.847
71712W        W33001  16.658   7.368  10.629
71713W        W33002  25.557  21.678  11.408
71714W        W33003  43.278   3.747   2.273
71715W        W33004  35.515  25.216   3.729
71716W        W33005  20.583   3.766   1.867
71717W        W33006  27.137  40.377   2.756
71718W        W33007  40.005  44.886  11.378
71719W        W33008  25.059  23.123   5.313
71720W        W33009  42.374  26.473   1.840
71721W        W33010  16.101   7.827  14.915
71722W        W33011  17.602  26.652  14.351
71723W        W33012  26.096  26.037  11.877
71724W        W33013   4.277  38.069  13.334
71725W        W33014  44.355  43.329   2.796
71726W        W33015  16.735  10.180   0.960
71727W        W33016  11.647  44.859   3.802
71728W        W33017  43.505  40.334   3.251
71729W        W33018  14.140   3.768   1.741
71730W        W33019   9.233  43.484   2.268
71731W        W33020  15.776   6.326  12.908
71732W        W33021  21.215   8.239   0.320
71733W        W33022  32.541  25.097  14.323
71734W        W33023  44.402  26.191   0.336
71735W        W33024  38.824  29.455   3.178
71736W        W33025  38.829   4.433  14.372
71737W        W33026  21.216   0.975   4.332
71738W        W33027  32.885  18.248  14.959
71739W        W33028  20.566  20.193  12.916
71740W        W33029  19.576   6.815   3.663
71741W        W33030  20.689  10.312   1.218
71742W        W33031  41.373  23.180  12.891
71743W        W33032  31.479  29.517   4.195
71744W        W33033  12.275  20.663   5.737
71745W        W33034  44.856   6.421   1.784
71746W        W33035  12.610  20.522   1.315
71747W        W33036   6.850  14.745   2.667
71748W        W33037  32.901  19.093   1.295
71749W        W33038  12.635  23.155  12.966
71750W        W33039  12.833   3.884   1.768
71751W        W33040   9.259  18.563  10.952
71752W        W33041  14.197  18.192  10.424
71753W        W33042  20.143  22.129   0.901
71754W        W33043  14.820   6.716   0.385
71755W        W33044   2.226  10.180   5.315
71756W        W33045  31.139  34.068  12.364
71757W        W33046   5.727  31.120  13.806
71758W        W33047  14.304  31.557  14.321
71759W        W33048  29.573   1.750   0.457
71760W        W33049  20.560  41.018  13.352
71761W        W33050  15.246  10.639  10.475
71762W        W33051  36.849  35.068  13.880
71763W        W33052  30.501  15.803  11.397
71764W        W33053  25.131  10.342   2.197
71765W        W33054  28.960  24.121   3.769
71766W        W33055   7.307  44.901  14.838
71767W        W33056   7.192   7.178   3.723
71768W        W33057  17.169  30.617  11.490
71769W        W33058  12.290   5.721   1.706
71770W        W33059  42.869  36.849   2.349
71771W        W33060  43.482  31.083  14.771
71772W        W33061  32.620  28.463   2.386
71773W        W33062  25.634  38.898  14.861
71774W        W33063  35.021   5.852   3.256
71775W        W33064  35.036  18.263  12.884
71776W        W33065  30.603  26.197   1.923
71777W        W33066  40.952   5.763  13.468
71778W        W33067   9.292  43.926  10.410
71779W        W33068   6.343  26.188  10.609
71780W        W33069  35.376  41.818   1.219
71781W        W33070   4.372  18.282  11.947
71782W        W33071  11.279  37.366  12.932
71783W        W33072  40.430  16.161  12.974
71784W        W33073  18.699  18.192   4.754
71785W        W33074  44.960   7.190  11.969
71786W        W33075  22.647  40.913   0.286
71787W        W33076  11.138  36.484   0.737
71788W        W33077   0.749   8.373  13.039
71789W        W33078   8.256  43.962   0.829
71790W        W33079   5.397  10.211   2.872
71791W        W33080  23.697  10.230   1.839
71792W        W33081  18.074  42.291  11.909
71793W        W33082   7.239  24.554  12.532
71794W        W33083  15.668  15.704  13.446
71795W        W33084  25.045  36.036   0.396
71796W        W33085  24.045  34.430  11.489
71797W        W33086  44.340  10.320   5.782
71798W        W33087  13.815  31.442   0.967
71799W        W33088  25.549   0.263   1.383
71800W        W33089  36.551  33.521   0.797
71801W        W33090  17.141  38.976  11.002
71802W        W33091  31.942  30.078   4.653
71803W        W33092  33.114  11.856   4.605
71804W        W33093  41.464  34.551  10.921
71805W        W33094   5.357  22.712   1.250
71806W        W33095  28.155  17.652  14.768
71807W        W33096  19.087  40.330   0.246
71808W        W33097  12.122  29.079  14.900
71809W        W33098   6.918  14.186  13.534
71810W        W33099   4.908  30.987   3.255
71811W        W33100  43.274  12.856  10.429
71812W        W33101  19.069  30.990   4.131
71813W        W33102  10.843  13.279   2.326
71814W        W33103  10.739  38.411  11.050
71815W        W33104   1.472  39.545  12.927
71816W        W33105   0.920  31.648  14.863
71817W        W33106  37.911  23.510  13.907
71818W        W33107  32.505  36.391   1.344
71819W        W33108  27.507  30.517  13.989
71820W        W33109   8.219  25.628   2.720
71821W        W33110  41.415  27.634  14.406
71822W        W33111   9.262   0.396   4.262
71823W        W33112  44.348  10.715   3.724
71824W        W33113   2.951  24.062   1.441
71825W        W33114  30.566   2.301  13.426
71826W        W33115  29.156  26.696  14.371
71827W        W33116  37.354  10.377  12.343
71828W        W33117   7.417  12.842   0.250
71829W        W33118  35.483   7.263   1.298
71830W        W33119  43.776  43.318   3.692
71831W        W33120  41.835   5.705   1.888
71832W        W33121  21.607   2.310   2.377
71833W        W33122  25.009  34.936   5.263
71834W        W33123  10.693  23.092   1.864
71835W        W33124   1.481  17.139   4.125
71836W        W33125  34.886  18.717  13.041
71837W        W33126   1.763  13.803   0.897
71838W        W33127  10.161  32.074  11.486
71839W        W33128  29.001   7.891  10.151
71840W        W33129  23.716  10.820   1.288
71841W        W33130  30.584  21.590  10.498
71842W        W33131  43.299  24.648  12.409
71843W        W33132   7.390  14.212   0.751
71844W        W33133  43.497  33.915  14.416
71845W        W33134  43.799  35.447  14.904
71846W        W33135  19.066   5.335   3.858
71847W        W33136   8.376  11.858   0.758
71848W        W33137  33.415  38.836  14.288
71849W        W33138   8.338  44.504   2.228
71850W        W33139  42.823  42.942   1.432
71851W        W33140  41.472  19.724  11.872
71852W        W33141  27.981  21.202   9.621
71853W        W33142  11.318  23.025  11.984
71854W        W33143  25.112  22.171   2.753
71855W        W33144  36.089   5.743  13.436
71856W        W33145  30.585  17.216  13.911
71857W        W33146  36.517   4.889   4.735
71858W        W33147  44.879  15.103   3.785
71859W        W33148  36.999  16.663  14.907
71860W        W33149  28.458  26.568  12.354
71861W        W33150  18.619  18.080  14.385
71862W        W33151  42.964   0.354  14.763
71863W        W33152  23.577   3.933  12.390
71864W        W33153  42.465   4.335   0.827
71865W        W33154  33.923  19.665  13.341
71866W        W33155  22.632  20.647   3.688
71867W        W33156  14.683  19.085  13.412
71868W        W33157  10.147  17.230   3.638
71869W        W33158  19.674  12.293   4.623
71870W        W33159   0.406  21.081  12.513
71871W        W33160  26.556  36.028   1.740
71872W        W33161   0.871  24.115   0.858
71873W        W33162  15.329  44.501   2.388
71874W        W33163  21.135   6.787   2.847
71875W        W33164  41.880  22.072  11.902
71876W        W33165  32.433  17.695  11.867
71877W        W33166  14.640  20.037  11.981
71878W        W33167   4.701  12.288   3.293
71879W        W33168  30.488  28.634  12.445
71880W        W33169  27.480  18.253   4.691
71881W        W33170  30.073  37.515  14.370
71882W        W33171   3.460  37.398   0.452
71883W        W33172  35.887  28.061  11.044
71884W        W33173  36.456  24.634   0.401
71885W        W33174  16.701  34.061  13.372
71886W        W33175  34.097  35.057  10.589
71887W        W33176  14.788  28.148   4.303
71888W        W33177   0.302  42.518  14.811
71889W        W33178  21.150  24.497   0.912
71890W        W33179  40.477  35.376  12.579
71891W        W33180  20.589  36.578   3.197
71892W        W33181  40.409  29.980   3.865
71893W        W33182  20.104  19.212   4.327
71894W        W33183   4.210  10.270   4.133
71895W        W33184   6.232  44.305  11.052
71896W        W33185   9.767  12.775  11.457
71897W        W33186   5.883  12.710   4.744
71898W        W33187   8.745  20.587  10.565
71899W        W33188  44.991   2.849   2.249
71900W        W33189  13.140  34.373   3.801
71901W        W33190  15.220  23.689   2.845
71902W        W33191  36.939  22.734   2.866
71903W        W33192  41.043  40.451  14.999
71904W        W33193  20.602  31.135   2.777
71905W        W33194   6.710  27.128   4.705
71906W        W33195  14.185  40.963   0.763
71907W        W33196  40.831  40.967  13.329
71908W        W33197  37.411  33.582  14.900
71909W        W33198   2.330  16.628   2.837
71910W        W33199   6.378  41.319   1.211
71911W        W33200  25.597  33.131  11.030
71912W        W33201  24.687  35.593  10.903
71913W        W33202  24.095  29.563  13.872
71914W        W33203  41.526  14.157   1.920
71915W        W33204  18.084   9.719  13.826
71916W        W33205   5.829   6.778   4.601
71917W        W33206   7.863  18.284   4.343
71918W        W33207  34.572  43.937   2.742
71919W        W33208  26.674  36.927  13.343
71920W        W33209   2.323  16.703   1.217
71921W        W33210  37.403  44.306   0.798
71922W        W33211   2.248  15.595  11.083
71923W        W33212   9.375  13.605   3.261
71924W        W33213  37.894   6.402   3.164
71925W        W33214   2.338  11.242  14.809
71926W        W33215  26.605  15.667  14.503
71927W        W33216  13.705  22.020   2.663
71928W        W33217  12.309  26.121  11.418
71929W        W33218  14.334  35.857   1.733
71930W        W33219  14.628  24.631   1.865
71931W        W33220  27.974   6.854  12.030
71932W        W33221  22.717  17.087  11.494
71933W        W33222  11.746   8.715   5.223
71934W        W33223  30.420  32.960   0.847
71935W        W33224  26.022  17.104   4.238
71936W        W33225  22.252  17.203   3.358
71937W        W33226  39.836  43.910  13.916
71938W        W33227  16.093   8.896   3.751
71939W        W33228   5.349  20.141   2.268
71940W        W33229  16.074  24.688  13.845
71941W        W33230  18.584  17.115   4.796
71942W        W33231   0.488   1.794   2.257
71943W        W33232  12.626  41.997   0.853
71944W        W33233   1.878  43.980  13.903
71945W        W33234   1.863   7.273  11.907
71946W        W33235  30.478  34.876  14.308
71947W        W33236  39.991  40.890   2.704
71948W        W33237  40.397  33.612  12.920
71949W        W33238  44.888  40.472  10.642
71950W        W33239  33.965  30.596  10.416
71951W        W33240  11.301   4.872   4.189
71952W        W33241   8.803  40.313  14.832
71953W        W33242  37.886  19.181   3.157
71954W        W33243  16.309  20.248  11.872
71955W        W33244  17.735   4.870  11.040
71956W        W33245  33.958  12.688   0.798
71957W        W33246  37.064   4.856   2.337
71958W        W33247  11.182  11.818  14.912
71959W        W33248  29.993  13.749   4.230
71960W        W33249  40.958  22.607  12.442
71961W        W33250   2.850   6.768   3.696
71962W        W33251  44.406  38.992   1.303
71963W        W33252  39.553  39.486  14.419
71964W        W33253  27.575   6.722   3.633
71965W        W33254   8.282  12.307  12.992
71966W        W33255   6.823  44.770  12.499
71967W        W33256  26.201   3.403  13.799
71968W        W33257  14.262  39.950  12.448
71969W        W33258  26.993  27.508   4.352
71970W        W33259  30.502  15.170  11.609
71971W        W33260  28.653  25.559  13.335
71972W        W33261   1.453  14.325  12.463
71973W        W33262   2.335  14.621  13.389
71974W        W33263  41.848  31.467   4.265
71975W        W33264   5.753  15.262  10.457
71976W        W33265   6.920  10.212   2.314
71977W        W33266   1.743  25.169  10.609
71978W        W33267  30.588   9.671  13.418
71979W        W33268  15.293  27.499   2.861
71980W        W33269  37.351  44.958  11.536
71981W        W33270   9.869   0.868  12.553
71982W        W33271  35.389  42.911   3.298
71983W        W33272  14.589  37.554   2.698
71984W        W33273  10.848   0.388   1.413
71985W        W33274  29.526   1.386  10.936
71986W        W33275  37.401  10.875  11.939
71987W        W33276  12.336   3.292  10.914
71988W        W33277  15.226   5.699  14.331
71989W        W33278  21.057  21.578   4.226
71990W        W33279  40.870  15.260   5.286
71991W        W33280  34.548  13.134  12.433
71992W        W33281  38.864  13.662   3.732
71993W        W33282  37.833  31.108   4.831
71994W        W33283  27.687  29.018   0.256
71995W        W33284  40.461  35.012   1.250
71996W        W33285   6.923   5.774  13.483
71997W        W33286   0.434   4.427  14.331
71998W        W33287  35.860  41.818  12.548
71999W        W33288   0.820  24.185   4.237
72000W        W33289   6.409   3.283  14.418
72001W        W33290   6.914  21.527  13.350
72002W        W33291  44.451  28.966   1.241
72003W        W33292  17.112  13.153   0.352
72004W        W33293  31.422  43.888   3.251
72005W        W33294   2.877   3.303   4.211
72006W        W33295  28.083  27.545   0.945
72007W        W33296  17.720   2.950  11.523
72008W        W33297   8.859   2.879  14.817
72009W        W33298  28.976  36.496  10.479
72010W        W33299  15.667  44.759  10.424
72011W        W33300   4.358  25.605   0.371
72012W        W33301  10.144  41.447  10.442
72013W        W33302  41.883   1.238  12.484
72014W        W33303  11.216   2.236  13.412
72015W        W33304  27.954   5.216   2.335
72016W        W33305  27.635  43.471   1.812
72017W        W33306  34.522  36.861   1.750
72018W        W33307  12.717  37.977   5.208
72019W        W33308  32.518  36.973  12.030
72020W        W33309  42.284   6.342  11.084
72021W        W33310  30.590  38.535  12.002
72022W        W33311  36.389  22.667  10.109
72023W        W33312  43.361  12.147   5.156
72024W        W33313   9.279  18.228   3.315
72025W        W33314  23.176  10.673   0.944
72026W        W33315  21.698   5.709   2.884
72027W        W33316  39.854  36.552   4.716
72028W        W33317   6.325  39.058   4.154
72029W        W33318  23.998  41.842  10.564
72030W        W33319  33.890  18.059  10.410
72031W        W33320  16.587  22.597   2.379
72032W        W33321  31.119  21.576  10.465
72033W        W33322  35.407   8.721   3.202
72034W        W33323  38.874  26.025  10.644
72035W        W33324  14.752  39.055   1.798
72036W        W33325  27.586  24.538   1.240
72037W        W33326  31.403  37.566  14.959
72038W        W33327  24.673  14.656   1.412
72039W        W33328  18.266  13.218   3.812
72040W        W33329  25.053  28.179  10.551
72041W        W33330  32.983  13.135  14.833
72042W        W33331  17.738  27.024   0.410
72043W        W33332  18.571   6.291  10.603
72044W        W33333  21.662   8.361   0.388
72045W        W33334  11.815  28.945  12.567
72046W        W33335  40.437   2.449   4.765
72047W        W33336  34.078   9.259   3.720
72048W        W33337  43.771  33.437  14.346
72049W        W33338   8.166  21.566   4.627
72050W        W33339   6.240  20.641   2.183
72051W        W33340  15.220  34.559   2.384
72052W        W33341   8.809   6.915  13.470
72053W        W33342  40.532  24.671   0.442
72054W        W33343  19.717  12.231   2.405
72055W        W33344  43.420  26.111   2.379
72056W        W33345  31.043  39.033  11.589
72057W        W33346  12.137   5.311  13.830
72058W        W33347  21.131   5.335   4.121
72059W        W33348  31.024   7.809  12.058
72060W        W33349  40.537  43.405   4.264
72061W        W33350  33.621  20.109  10.639
72062W        W33351  32.503  35.373   1.802
72063W        W33352  23.175  17.155  12.971
72064W        W33353  29.453  20.652   0.939
72065W        W33354  30.015  12.634   4.764
72066W        W33355   8.192   8.271   0.458
72067W        W33356  33.580  15.305  11.081
72068W        W33357   4.315  10.330   3.263
72069W        W33358  13.834   7.325   4.260
72070W        W33359  21.706  35.515   0.368
72071W        W33360  31.999  42.978  14.986
72072W        W33361  16.682  40.410  10.900
72073W        W33362  21.652  18.255   4.631
72074W        W33363  34.040   0.493  13.986
72075W        W33364  40.540  35.363   4.733
72076W        W33365   3.376  30.023   1.778
72077W        W33366  38.074  40.847  11.449
72078W        W33367  18.574  13.785   3.145
72079W        W33368   0.436  43.311  11.541
72080W        W33369  40.440  42.881   3.744
72081W        W33370  16.589  16.086  14.457
72082W        W33371  43.860  34.974   3.274
72083W        W33372  11.739   1.811  10.115
72084W        W33373  31.632  24.030   4.228
72085W        W33374  22.134  16.283  11.058
72086W        W33375  12.233  10.856   1.306
72087W        W33376   4.734   7.363  10.600
72088W        W33377  29.116   6.784   2.708
72089W        W33378  14.206   0.331   3.171
72090W        W33379   9.841  10.774  14.889
72091W        W33380  38.565  39.877  11.509
72092W        W33381   2.807  24.526  11.986
72093W        W33382  14.713  42.350   2.675
72094W        W33383  40.021  38.442   4.187
72095W        W33384  17.757  10.213   2.419
72096W        W33385  33.385   5.707   3.270
72097W        W33386  12.718  41.963  13.444
72098W        W33387  23.228  25.625  11.995
72099W        W33388  13.640  33.540  14.023
72100W        W33389  30.140   3.794  11.560
72101W        W33390  13.735   3.727  14.516
72102W        W33391  30.973  34.059   4.618
72103W        W33392  19.072  25.649  13.030
72104W        W33393   4.408  22.192   5.762
72105W        W33394  44.755   2.769   1.832
72106W        W33395  41.534   8.676  11.065
72107W        W33396  30.529   2.305   1.383
72108W        W33397  38.503  44.273  13.505
72109W        W33398  37.536  22.583   0.780
72110W        W33399  15.315  38.855   0.434
72111W        W33400  41.393  23.581  13.490
72112W        W33401  18.634  20.573   2.330
72113W        W33402  13.716   1.380  14.978
72114W        W33403  13.138  43.312   4.825
72115W        W33404  10.797  24.581  11.416
72116W        W33405  35.587  23.543  10.477
72117W        W33406   1.254   4.407  13.880
72118W        W33407  19.758  30.524  12.398
72119W        W33408  27.007  40.424   0.869
72120W        W33409  25.032  23.722   5.302
72121W        W33410  42.322   2.418   3.291
72122W        W33411  31.065  11.204   1.404
72123W        W33412  28.069  44.857  13.912
72124W        W33413  38.948  43.335   3.870
72125W        W33414  13.272   3.819  14.032
72126W        W33415  34.494  10.649  11.047
72127W        W33416   2.461  39.521   1.774
72128W        W33417   6.706  41.455  11.004
72129W        W33418  27.122  40.824   2.322
72130W        W33419   6.845  10.741  12.424
72131W        W33420   8.657  36.467   4.671
72132W        W33421   3.854  14.295  11.037
72133W        W33422  31.007  27.517   0.762
72134W        W33423  23.018  21.748  12.991
72135W        W33424   4.428  30.077   3.378
72136W        W33425   7.372   5.696   3.680
72137W        W33426   7.711  40.332  12.973
72138W        W33427   3.305  39.938  12.884
72139W        W33428  10.789  44.464  14.944
72140W        W33429  44.273  37.874   9.941
72141W        W33430  11.718  27.666  11.541
72142W        W33431  14.673  17.215   1.430
72143W        W33432  38.543  15.681  13.405
72144W        W33433   9.878  23.997   0.831
72145W        W33434  20.165  19.083  12.491
72146W        W33435  37.525  44.892   3.672
72147W        W33436  22.013  24.022  14.939
72148W        W33437  31.639  25.667  13.375
72149W        W33438  41.291   6.355   1.845
72150W        W33439   6.871  17.141   2.697
72151W        W33440   3.735  21.193   4.148
72152W        W33441  19.047  30.644  13.368
72153W        W33442   9.314   8.324   2.875
72154W        W33443  11.171  39.934  11.531
72155W        W33444  34.502  22.626   2.752
72156W        W33445  12.192  26.501  13.351
72157W        W33446  21.701  29.933   0.288
72158W        W33447   9.686  38.942   1.756
72159W        W33448  25.559   1.382   4.797
72160W        W33449  35.076  11.857   1.429
72161W        W33450  14.802  36.460   1.214
72162W        W33451  38.000  13.713   3.835
72163W        W33452  14.636  13.169   4.161
72164W        W33453  14.176  11.800   4.348
72165W        W33454  22.192  39.913  12.348
72166W        W33455  44.776   1.478   4.268
72167W        W33456  22.090   2.463   0.736
72168W        W33457  33.952  23.054  14.427
72169W        W33458  19.731  42.320   3.296
72170W        W33459  36.892  24.617   4.715
72171W        W33460  36.351  21.663  12.977
72172W        W33461  35.014  32.397  11.984
72173W        W33462  38.048  32.968   3.841
72174W        W33463  11.175   9.286   4.268
72175W        W33464  21.568  24.222  11.894
72176W        W33465  20.608   4.318   1.743
72177W        W33466  27.568  19.572   1.717
72178W        W33467  43.478  36.507  14.384
72179W        W33468  27.005  38.524   1.369
72180W        W33469  29.980   1.454  10.949
72181W        W33470  37.044  17.788   0.342
72182W        W33471  28.156  25.974   4.219
72183W        W33472  31.408   2.837   0.747
72184W        W33473   4.352  21.618   1.762
72185W        W33474  24.998  15.224   3.786
72186W        W33475   1.433  14.827  10.431
72187W        W33476  37.416   3.769   5.187
72188W        W33477  29.031  33.124  12.076
72189W        W33478  20.172  25.485  13.356
72190W        W33479  23.017  10.795  11.432
72191W        W33480  24.105  15.704   2.758
72192W        W33481  15.791  10.273   0.340
72193W        W33482  30.566  13.662  11.874
72194W        W33483   7.876  43.416   2.296
72195W        W33484   4.219   3.941   2.218
72196W        W33485  24.504  38.049  13.535
72197W        W33486   1.377  39.968  11.563
72198W        W33487   7.321   9.704   2.687
72199W        W33488   4.923  16.124  10.417
72200W        W33489  11.743  11.253  14.323
72201W        W33490   0.959   0.419   1.814
72202W        W33491   9.667   6.355  12.983
72203W        W33492  16.242  34.587   0.481
72204W        W33493  22.033  43.948  11.466
72205W        W33494  38.369  31.466  12.862
72206W        W33495  13.719  11.843   2.297
72207W        W33496  25.183  27.565  12.467
72208W        W33497   3.798  41.871  14.026
72209W        W33498   5.428  14.722   3.732
72210W        W33499  31.479  32.462  14.306
72211W        W33500  34.119  41.491   1.343
72212W        W33501  14.179  20.150  10.413
72213W        W33502  41.788  39.027   3.803
72214W        W33503  21.219  37.511   4.326
72215W        W33504   3.723  20.118   2.903
72216W        W33505   1.925  30.417  13.474
72217W        W33506   4.367  24.562   3.765
72218W        W33507  16.201  31.576   1.382
72219W        W33508  21.634  29.481   4.726
72220W        W33509  16.774  40.398   3.326
72221W        W33510  16.111  31.004   3.319
72222W        W33511  13.338  27.455  14.981
72223W        W33512   3.360   4.392  12.063
72224W        W33513  19.735  25.163   3.850
72225W        W33514  38.965  16.188  12.339
72226W        W33515  34.038  27.446  14.928
72227W        W33516   7.780  27.688   1.247
72228W        W33517  43.776  27.955   1.324
72229W        W33518  13.807  32.626  12.514
72230W        W33519  17.677  16.733  12.085
72231W        W33520  44.314  34.063  11.565
72232W        W33521   7.834  27.053  10.436
72233W        W33522   7.393  26.006  12.343
72234W        W33523  12.750   7.373   3.813
72235W        W33524  44.852  30.583   1.437
72236W        W33525  10.672  17.676  13.877
72237W        W33526  29.103   1.255   0.270
72238W        W33527   5.250  10.822   2.869
72239W        W33528  34.394   2.833   1.895
72240W        W33529  31.030  27.978  11.059
72241W        W33530   1.428  38.563  14.301
72242W        W33531  13.287  18.224   3.840
72243W        W33532  25.050  44.964  11.863
72244W        W33533  42.322  29.510   0.400
72245W        W33534  26.958  19.701   3.850
72246W        W33535  18.763  34.472   2.216
72247W        W33536  14.758  22.648   0.243
72248W        W33537  19.696  40.033  12.453
72249W        W33538  32.462  22.201  11.047
72250W        W33539  27.561  36.383  14.281
72251W        W33540  22.546  26.647   2.663
72252W        W33541  34.886  11.783   5.303
72253W        W33542  21.551  27.532  10.526
72254W        W33543  15.581  42.887   4.641
72255W        W33544  10.674  35.528   5.220
72256W        W33545   6.313  31.073   4.652
72257W        W33546  30.562  31.067  12.461
72258W        W33547   4.833  41.345   3.702
72259W        W33548  19.712  38.506   0.832
72260W        W33549  12.783  32.892   3.312
72261W        W33550  42.286  18.617   2.411
72262W        W33551  27.545  19.710   0.812
72263W        W33552  29.962  19.596   2.864
72264W        W33553  11.624   2.931   3.707
72265W        W33554  29.644  43.298  12.843
72266W        W33555  24.660   4.371  11.856
72267W        W33556  13.337  13.345   2.732
72268W        W33557   1.265  11.787   2.394
72269W        W33558  30.118  37.552  12.036
72270W        W33559  39.483   0.883  12.825
72271W        W33560  40.927  33.609  12.068
72272W        W33561  42.400   9.881   2.835
72273W        W33562  13.802  41.915  12.992
72274W        W33563  39.018  41.944  14.290
72275W        W33564  10.877   5.852   4.701
72276W        W33565  41.334  15.696  11.870
72277W        W33566   3.899  43.507  13.027
72278W        W33567  22.543   5.804  13.503
72279W        W33568  26.117   0.863   2.339
72280W        W33569   4.377  13.210   0.759
72281W        W33570   3.291  36.846   3.867
72282W        W33571  41.519  14.328  12.524
72283W        W33572  10.251  17.114  12.425
72284W        W33573   0.389  43.819  14.339
72285W        W33574  20.706  43.283  13.037
72286W        W33575  21.573  39.811  14.355
72287W        W33576   4.832  30.011  11.965
72288W        W33577  40.020  35.459  10.435
72289W        W33578  31.089  11.329   0.327
72290W        W33579  20.657  25.608  13.017
72291W        W33580   6.733  42.780   3.719
72292W        W33581  41.807  24.707  12.358
72293W        W33582  40.910  19.205  10.910
72294W        W33583  17.242   7.194  14.997
72295W        W33584  22.637   5.238   2.899
72296W        W33585  44.806  25.097  11.005
72297W        W33586  17.587  21.081  13.883
72298W        W33587  44.472  29.661  12.356
72299W        W33588  29.657   7.260   3.371
72300W        W33589  39.891  39.058  12.417
72301W        W33590  32.446  38.031  13.035
72302W        W33591  12.816  17.564  12.865
72303W        W33592  40.977  16.698   2.747
72304W        W33593  31.898  22.095   0.957
72305W        W33594   1.306  38.363   3.702
72306W        W33595  34.998  13.800  13.525
72307W        W33596  14.260  44.443   4.743
72308W        W33597  10.172  36.969  14.850
72309W        W33598  13.681  15.714  11.076
72310W        W33599  17.063  17.086   4.629
72311W        W33600  34.966  28.009   3.262
72312W        W33601  11.777   8.359  12.882
72313W        W33602  38.406  19.658   3.853
72314W        W33603  21.549  24.666  11.937
72315W        W33604  37.977   6.409  13.428
72316W        W33605  22.580  35.577   2.399
72317W        W33606  40.440   3.449   1.427
72318W        W33607   5.216  41.411  11.030
72319W        W33608  39.917   0.966   4.176
72320W        W33609  38.917  36.908   1.796
72321W        W33610  22.172   8.359  11.059
72322W        W33611  13.268  19.214  12.916
72323W        W33612  27.559  28.489  10.526
72324W        W33613  42.518  10.754  12.871
72325W        W33614  32.017  28.157  11.058
72326W        W33615  33.909  19.227   3.666
72327W        W33616  38.934  34.062   2.902
72328W        W33617  37.960   9.252  11.560
72329W        W33618  23.690   8.198  11.461
72330W        W33619  10.658  15.688  14.913
72331W        W33620   5.226  25.468   0.407
72332W        W33621   0.981  14.606  12.932
72333W        W33622   5.894  33.406   3.261
72334W        W33623   3.444   6.243   2.861
72335W        W33624  32.966  13.273   2.861
72336W        W33625  18.752   6.356   5.284
72337W        W33626  32.498   3.246   9.962
72338W        W33627  32.604  31.645   1.365
72339W        W33628  35.392  20.644  12.951
72340W        W33629  35.442  26.181  12.092
72341W        W33630  25.070  24.014  13.904
72342W        W33631   7.323  21.617  11.077
72343W        W33632  28.058  40.911   0.262
72344W        W33633   2.362  36.065   2.413
72345W        W33634  35.510  41.524   1.430
72346W        W33635  26.553  22.510   4.269
72347W        W33636   5.411  43.966   4.766
72348W        W33637  29.096  41.928   4.636
72349W        W33638  33.457  32.600  14.795
72350W        W33639  34.087  31.955  13.488
72351W        W33640  22.681  42.929   1.390
72352W        W33641  34.102  11.157   3.148
72353W        W33642  37.358  31.633  10.490
72354W        W33643  36.500  37.903  14.511
72355W        W33644  18.751  16.602   2.320
72356W        W33645  43.816  44.973   1.361
72357W        W33646  24.633  40.461  10.406
72358W        W33647   7.269   8.353   0.288
72359W        W33648  15.716  28.140  11.954
72360W        W33649  13.662   9.326  14.011
72361W        W33650  42.520  11.707  14.763
72362W        W33651  30.949  10.739   2.782
72363W        W33652  41.457  32.585   1.301
72364W        W33653   3.758   6.869   0.890
72365W        W33654  16.314  29.474   2.806
72366W        W33655  44.487  33.390  14.505
72367W        W33656  20.184  10.373  12.467
72368W        W33657   7.240  34.105   4.250
72369W        W33658  20.231  43.002   0.394
72370W        W33659  32.494  15.776   2.376
72371W        W33660  35.595   6.284  10.451
72372W        W33661  29.426  42.942   4.665
72373W        W33662  12.144  38.858   3.763
72374W        W33663  34.089  41.425   3.828
72375W        W33664  36.072  17.669   1.439
72376W        W33665   7.310  28.588   5.270
72377W        W33666  12.765  29.543   3.812
72378W        W33667  22.712  40.037  14.898
72379W        W33668  24.572   1.478   2.837
72380W        W33669  28.591  29.508  12.571
72381W        W33670   9.830  32.567   2.725
72382W        W33671  23.055  11.674   4.253
72383W        W33672  43.339  17.750   2.761
72384W        W33673  16.609  29.966  11.909
72385W        W33674  34.408   7.678   1.266
72386W        W33675   0.423  24.479  10.962
72387W        W33676  29.974  26.033  12.406
72388W        W33677  39.965  12.277  13.023
72389W        W33678  18.678   0.891   2.278
72390W        W33679  38.464  24.707   1.839
72391W        W33680  15.733  15.760   1.752
72392W        W33681  29.092   1.937   1.349
72393W        W33682  43.505  22.179   0.806
72394W        W33683  25.526  43.507   4.698
72395W        W33684  11.153  35.898   1.846
72396W        W33685  43.900  37.997  13.453
72397W        W33686  12.228  17.210  10.907
72398W        W33687   6.840  44.474  11.940
72399W        W33688   2.329  38.336   3.361
72400W        W33689  12.171  44.854   2.256
72401W        W33690   5.212  44.938   2.847
72402W        W33691  13.317  29.631  12.869
72403W        W33692  13.643   1.308  12.966
72404W        W33693   6.233  25.490  10.936
72405W        W33694  26.459  38.401  11.418
72406W        W33695  11.237  23.124  10.574
72407W        W33696  10.207  16.724  11.448
72408W        W33697  35.932  27.044   0.875
72409W        W33698  10.218  20.733  11.490
72410W        W33699   7.825   5.272  10.603
72411W        W33700   8.355  21.615  14.831
72412W        W33701   7.254  38.018   4.191
72413W        W33702   6.885  10.375  13.936
72414W        W33703  38.008  24.607  13.391
72415W        W33704  12.259  31.460  14.825
72416W        W33705  20.567  13.191   0.873
72417W        W33706  41.964  30.944  10.610
72418W        W33707   1.416  10.858   0.459
72419W        W33708  37.005   4.304  13.334
72420W        W33709  41.969  44.350   9.934
72421W        W33710  22.104   6.337  11.454
72422W        W33711  39.385   3.841  12.911
72423W        W33712  39.356  22.249   3.789
72424W        W33713  44.002  21.227  12.930
72425W        W33714  10.670  26.536  11.571
72426W        W33715   1.292  15.209   2.214
72427W        W33716  10.675  21.083   0.843
72428W        W33717  11.678   9.701   1.846
72429W        W33718  19.110  18.193   1.895
72430W        W33719   2.396  37.936   1.258
72431W        W33720  21.539  22.693   3.214
72432W        W33721   9.226   1.968   4.727
72433W        W33722  36.571  44.492  14.448
72434W        W33723  26.656  18.262  11.376
72435W        W33724  34.975  37.476  11.461
72436W        W33725  24.020   7.717  13.405
72437W        W33726   0.469  38.378   0.924
72438W        W33727  40.837  31.490   0.329
72439W        W33728  16.222  24.203  12.459
72440W        W33729   3.755   7.705  13.321
72441W        W33730  32.576  15.724   1.252
72442W        W33731  11.770  41.959   3.349
72443W        W33732   6.914  22.524   1.722
72444W        W33733   4.240  29.506   3.688
72445W        W33734  12.790   2.759  13.440
72446W        W33735  18.724  35.505   1.341
72447W        W33736   9.178  39.811  13.964
72448W        W33737  18.642  37.526  10.946
72449W        W33738  38.872  18.231  13.798
72450W        W33739   3.331  21.146   4.179
72451W        W33740  20.544  36.384  12.574
72452W        W33741  31.140  35.970  10.480
72453W        W33742  37.577  41.871   4.635
72454W        W33743   4.343  19.172   4.713
72455W        W33744  39.443   9.704   2.214
72456W        W33745  37.394  23.201   3.242
72457W        W33746  43.917  35.433  12.376
72458W        W33747  19.713  29.515   1.288
72459W        W33748  39.970   8.358   1.418
72460W        W33749  14.688  22.554   2.824
72461W        W33750  39.493  20.752   9.962
72462W        W33751  36.348  44.350  13.401
72463W        W33752   5.348   4.812   1.259
72464W        W33753   9.754  33.514   0.836
72465W        W33754  24.500  13.748  13.810
72466W        W33755  30.500  31.422  10.954
72467W        W33756  43.502  16.643   2.212
72468W        W33757  36.512  12.746   2.733
72469W        W33758  12.852  16.719   0.891
72470W        W33759   2.443  18.175   2.286
72471W        W33760  43.330  32.011   3.261
72472W        W33761  31.960  17.132  14.771
72473W        W33762  26.961  10.201   5.242
72474W        W33763   7.893   9.717  13.028
72475W        W33764  39.026   8.711   0.409
72476W        W33765  11.827   3.930  12.024
72477W        W33766  32.449  16.243   3.376
72478W        W33767  36.533   2.238  14.016
72479W        W33768  21.660  32.101   1.282
72480W        W33769  25.160   2.829  14.899
72481W        W33770   0.853  43.894   4.223
72482W        W33771   5.339  21.740   0.383
72483W        W33772  38.886   9.695  14.875
72484W        W33773  36.878  19.580   4.698
72485W        W33774  17.136  26.989  11.398
72486W        W33775  27.677  19.183  13.000
72487W        W33776  44.369   2.882  11.563
72488W        W33777   1.820  41.450   1.280
72489W        W33778  10.273  25.206  10.032
72490W        W33779  40.425  43.915   0.388
72491W        W33780   9.285  12.703   2.191
72492W        W33781  19.721  17.608   2.307
72493W        W33782   9.840  39.506  13.514
72494W        W33783  37.855   8.176   3.226
72495W        W33784  43.386  39.368   2.665
72496W        W33785   8.354  38.426   4.615
72497W        W33786  13.831  40.375  12.420
72498W        W33787  37.486   1.242  11.388
72499W        W33788  16.120  29.020   3.378
72500W        W33789  41.787  43.858  13.964
72501W        W33790  32.594  44.816   0.348
72502W        W33791   9.371  14.268   4.632
72503W        W33792  20.114  24.674   3.155
72504W        W33793  15.618  13.249   5.141
72505W        W33794  35.053  28.083  13.543
72506W        W33795  30.979  30.047  12.094
72507W        W33796  23.240  19.647   3.631
72508W        W33797  36.953  32.578   4.730
72509W        W33798   4.892   1.968   3.640
72510W        W33799  32.932  40.436  11.395
72511W        W33800  32.567  35.529   0.774
72512W        W33801   2.759  15.105  12.091
72513W        W33802  26.466  31.029  13.890
72514W        W33803  41.291  29.107   1.302
72515W        W33804  28.176  28.080   2.318
72516W        W33805   5.703  25.522   2.794
72517W        W33806   4.728  42.373   3.845
72518W        W33807  22.619  26.181   4.638
72519W        W33808  26.117  12.192   4.775
72520W        W33809  43.388  12.635   4.713
72521W        W33810  13.693  22.222   3.218
72522W        W33811   3.919  16.604   3.678
72523W        W33812  13.193  10.153   4.195
72524W        W33813   7.205  17.686  10.537
72525W        W33814  29.551   3.274  12.072
72526W        W33815  42.494  27.172   1.914
72527W        W33816  38.420  32.524  11.874
72528W        W33817   2.241  11.714  14.445
72529W        W33818   4.415  19.272   0.434
72530W        W33819  44.886  39.988   4.828
72531W        W33820  28.054  35.387   3.368
72532W        W33821   6.222  34.482  13.348
72533W        W33822  44.504  43.306   0.824
72534W        W33823  30.425  24.017   0.353
72535W        W33824   3.452  13.250  13.936
72536W        W33825   9.175  17.251   2.254
72537W        W33826  41.354  19.262   0.881
72538W        W33827  43.427   7.803   5.802
72539W        W33828   5.213  10.312   3.357
72540W        W33829  42.343  14.140   2.292
72541W        W33830  12.830  30.032   2.731
72542W        W33831  37.518  33.897  12.563
72543W        W33832  16.076  32.465  14.802
72544W        W33833  20.195   5.735   3.210
72545W        W33834  18.209  39.978  12.384
72546W        W33835   4.320  22.575  13.794
72547W        W33836   9.677  13.196  14.769
72548W        W33837  37.998  15.131   2.266
72549W        W33838  19.049  38.569  13.855
72550W        W33839  16.736  37.965  11.521
72551W        W33840  30.598  30.013   2.258
72552W        W33841  44.355  35.099  14.508
72553W        W33842  37.922   0.842  11.502
72554W        W33843   8.389  26.014   4.225
72555W        W33844  40.324  27.454  13.934
72556W        W33845  20.090   5.417  13.395
72557W        W33846   2.753   4.931  14.512
72558W        W33847  27.600  16.305  11.973
72559W        W33848   8.863  20.039  12.577
72560W        W33849  26.672  28.053   4.680
72561W        W33850  37.869  25.043   3.168
72562W        W33851   7.902  19.153  11.418
72563W        W33852  20.227  37.452   3.340
72564W        W33853  17.182  19.155   2.844
72565W        W33854  21.594  42.462  12.375
72566W        W33855  28.982  13.293  14.376
72567W        W33856  44.947  32.019  12.433
72568W        W33857  23.506  36.419  10.475
72569W        W33858  15.753  27.603  12.428
72570W        W33859   3.726  36.352  12.853
72571W        W33860   6.681  23.656   5.800
72572W        W33861  42.347  30.915  14.339
72573W        W33862  40.323  21.045   4.767
72574W        W33863  22.644   4.232   0.767
72575W        W33864  44.956   1.258  14.285
72576W        W33865  22.556  33.889  13.799
72577W        W33866  29.472   6.851  11.577
72578W        W33867  18.679   6.336   1.703
72579W        W33868  19.632  31.406   2.392
72580W        W33869   9.712  44.296   0.290
72581W        W33870   8.716  25.070  13.053
72582W        W33871  41.932  16.599   2.399
72583W        W33872  23.104  35.060  11.588
72584W        W33873   1.818  11.653  14.011
72585W        W33874  18.138   3.918  13.313
72586W        W33875  38.985   8.860   3.811
72587W        W33876  21.098  24.073  12.830
72588W        W33877  19.653  25.480   1.854
72589W        W33878  32.507  24.711  11.514
72590W        W33879   6.426  44.926  11.889
72591W        W33880  42.494  42.998  12.019
72592W        W33881  25.633   1.328   3.231
72593W        W33882  22.098  13.317   4.604
72594W        W33883  27.191  28.111   0.368
72595W        W33884  37.994  29.932  11.041
72596W        W33885  44.876  26.202   3.239
72597W        W33886  32.518  42.383  10.980
72598W        W33887   5.248  40.803  10.469
72599W        W33888  15.624  13.717   3.349
72600W        W33889  10.830  31.024   1.326
72601W        W33890  30.998  38.425  13.442
72602W        W33891  32.436  40.502   2.867
72603W        W33892  40.871  39.402   4.828
72604W        W33893   7.838  22.655   0.924
72605W        W33894  15.260  18.214   2.804
72606W        W33895   7.812  26.539  11.560
72607W        W33896   9.394  38.853  13.467
72608W        W33897   1.361  31.545   0.796
72609W        W33898  15.638  15.281  13.354
72610W        W33899   7.280  39.510   3.703
72611W        W33900  43.454  43.833   2.776
72612W        W33901   2.891  24.095  11.071
72613W        W33902  39.555  22.159   2.380
72614W        W33903  39.418  10.356   3.790
72615W        W33904  44.316   9.744   3.312
72616W        W33905  40.492  21.068   0.907
72617W        W33906   3.949  25.566   0.790
72618W        W33907  28.677  14.097   5.225
72619W        W33908  43.284  17.283  14.929
72620W        W33909  42.022  15.203   4.725
72621W        W33910   3.459  41.454   0.470
72622W        W33911  23.056   1.733   3.867
72623W        W33912  24.112  25.180   0.328
72624W        W33913  29.478  10.380   2.247
72625W        W33914  34.531   9.760   0.810
72626W        W33915  26.496  20.746   0.874
72627W        W33916  42.476   7.821  12.579
72628W        W33917  11.638  30.613   3.665
72629W        W33918  41.884  31.099   0.915
72630W        W33919  23.112  37.402  10.420
72631W        W33920  36.072  24.673  11.018
72632W        W33921  25.078  10.650  14.474
72633W        W33922   2.778  28.063   2.885
72634W        W33923  27.474   6.381   0.310
72635W        W33924  19.691  23.184  10.427
72636W        W33925  22.674  19.554   1.715
72637W        W33926  33.556  28.586   3.347
72638W        W33927  23.082  12.714  11.580
72639W        W33928  13.623  13.209   1.239
72640W        W33929  15.310  27.006  13.055
72641W        W33930  18.079  11.298   3.328
72642W        W33931  20.149  11.644   1.329
72643W        W33932  25.074  31.479   1.871
72644W        W33933  20.264  11.732   5.196
72645W        W33934  44.901  10.831  10.464
72646W        W33935  30.544  29.570  13.861
72647W        W33936  27.180  43.814  11.412
72648W        W33937  38.492  39.472   4.261
72649W        W33938  12.233   4.371   3.186
72650W        W33939  30.147  22.721   3.201
72651W        W33940  41.300  41.831   3.338
72652W        W33941  17.202  28.092   5.096
72653W        W33942  15.153  25.588  13.850
72654W        W33943  30.912  10.219  11.957
72655W        W33944  34.603  11.760   0.945
72656W        W33945  22.569  20.093  11.126
72657W        W33946  30.010   2.967   5.113
72658W        W33947  25.673  21.090   1.296
72659W        W33948  32.063  21.054  12.457
72660W        W33949  40.853  32.128  14.376
72661W        W33950  39.494  13.622  12.864
72662W        W33951  32.985   6.399   1.267
72663W        W33952   0.870  17.652   4.119
72664W        W33953   0.915  13.700   4.751
72665W        W33954   7.892  10.714  10.488
72666W        W33955  27.502  11.839   3.337
72667W        W33956  29.941   5.370   4.122
72668W        W33957  44.457   2.321   2.291
72669W        W33958  37.976  33.966   0.347
72670W        W33959  42.425  27.499   0.950
72671W        W33960  11.195  35.091   0.333
72672W        W33961  16.302   2.809  10.928
72673W        W33962  24.212  35.564  12.042
72674W        W33963  40.939  23.551   4.286
72675W        W33964  14.658  37.432   3.269
72676W        W33965   6.268  30.579   2.850
72677W        W33966  36.976  39.454  11.594
72678W        W33967  27.032  19.227   0.298
72679W        W33968  26.493  14.241  14.832
72680W        W33969  16.293  18.217   4.779
72681W        W33970  31.630   4.724  13.931
72682W        W33971  17.688  44.437  14.829
72683W        W33972   3.406  23.089  14.308
72684W        W33973  36.988  10.283   1.892
72685W        W33974  39.875  11.821   9.984
72686W        W33975  20.239  26.683   3.182
72687W        W33976  26.174  36.455   3.766
72688W        W33977  41.345  21.150   2.742
72689W        W33978  25.595  28.446   0.726
72690W        W33979  23.541  13.275   0.341
72691W        W33980   4.897  30.951  12.907
72692W        W33981   6.245   3.390  11.611
72693W        W33982  11.632  18.067  10.026
72694W        W33983   5.796   8.686   0.415
72695W        W33984   8.367  22.213  12.955
72696W        W33985  40.332  35.589   2.817
72697W        W33986  17.159  20.609   2.819
72698W        W33987  12.349  18.204  10.476
72699W        W33988  20.569   5.908  10.924
72700W        W33989   5.247  35.986   0.390
72701W        W33990  15.171  33.120   1.256
72702W        W33991  38.913  24.570   5.180
72703W        W33992  21.253  37.402  10.532
72704W        W33993  34.465   4.813  13.532
72705W        W33994  15.122   0.949  10.526
72706W        W33995  39.423  40.371   1.447
72707W        W33996  41.835  20.098  11.428
72708W        W33997  39.834  33.071  10.597
72709W        W33998   7.336  26.077   4.160
72710W        W33999  18.754  37.851   1.256
72711W        W34000  21.545  39.864  10.901
72712W        W34001  12.329  11.711  14.869
72713W        W34002   8.884   2.391  12.840
72714W        W34003  43.950  31.645   4.116
72715W        W34004  23.569  22.194   3.857
72716W        W34005  19.646  13.249   3.180
72717W        W34006  18.566  16.106  13.548
72718W        W34007  38.057  21.258   0.946
72719W        W34008  13.639   4.860   2.208
72720W        W34009  33.011   5.218  12.913
72721W        W34010  25.644  11.802  14.281
72722W        W34011   9.679  27.128   0.773
72723W        W34012  39.386   1.430   1.376
72724W        W34013  19.273  31.565  11.573
72725W        W34014  20.210  44.803   2.344
72726W        W34015  43.411  44.372  14.358
72727W        W34016  34.969  35.994  11.559
72728W        W34017  37.082  37.957  13.427
72729W        W34018  24.699  28.637  12.967
72730W        W34019   3.752  18.608   4.168
72731W        W34020  40.484  26.496   3.708
72732W        W34021  38.550  37.364   3.334
72733W        W34022  25.712  28.666   2.314
72734W        W34023  25.190   5.885   2.789
72735W        W34024  42.508  41.421   4.788
72736W        W34025  13.342  41.296  13.922
72737W        W34026  31.497   0.750   9.946
72738W        W34027  29.082  31.417   4.251
72739W        W34028  26.695   2.888   1.269
72740W        W34029  35.975  29.172   2.247
72741W        W34030  34.096  35.400   2.289
72742W        W34031  42.895  37.995   0.903
72743W        W34032   1.283  26.006   2.222
72744W        W34033   0.874  15.186   2.846
72745W        W34034  11.765  31.078   2.819
72746W        W34035   6.728  26.203  11.043
72747W        W34036  22.033  24.001   0.459
72748W        W34037  32.405  28.506   4.250
72749W        W34038  39.867  33.932  14.404
72750W        W34039  24.149  22.516   2.334
72751W        W34040  11.172  11.143   2.834
72752W        W34041  40.464  28.598  13.382
72753W        W34042  37.015  13.315  13.963
72754W        W34043  16.177   9.669   1.879
72755W        W34044   8.274  19.279  14.486
72756W        W34045  10.846  44.774   4.282
72757W        W34046  22.651  33.525  14.406
72758W        W34047  24.982   7.339  13.986
72759W        W34048  40.021  14.253  11.509
72760W        W34049  21.076  41.413   1.697
72761W        W34050  36.988  31.060  13.500
72762W        W34051  20.632  16.744  10.534
72763W        W34052  10.152  43.886  10.980
72764W        W34053  28.588  19.083   4.684
72765W        W34054  26.175  22.144   0.758
72766W        W34055  20.098  38.389  14.949
72767W        W34056  31.936  15.098   2.233
72768W        W34057   5.922  21.660  12.064
72769W        W34058  17.160  19.093  12.912
72770W        W34059  14.146  16.298   0.953
72771W        W34060  33.422  34.943  11.910
72772W        W34061  44.794   2.862   4.319
72773W        W34062  44.280  14.668  10.938
72774W        W34063   9.880  12.610  11.928
72775W        W34064  21.062  15.640   4.140
72776W        W34065  23.069  38.821  11.961
72777W        W34066  22.177   0.883  14.930
72778W        W34067  27.615  37.411  10.505
72779W        W34068  33.085  10.669  13.379
72780W        W34069  36.532  41.881  13.848
72781W        W34070  15.787  30.038   1.780
72782W        W34071   5.829  40.871  10.602
72783W        W34072  12.798  11.162   4.277
72784W        W34073   3.327  38.527   2.271
72785W        W34074  26.577  16.124   3.676
72786W        W34075  13.816   4.863  10.543
72787W        W34076  43.867   6.294  11.489
72788W        W34077  20.258  42.446  11.535
72789W        W34078  32.953  38.523  11.444
72790W        W34079  32.592   2.897  11.958
72791W        W34080   8.781   8.686   1.748
72792W        W34081  29.040  15.677   4.660
72793W        W34082  15.761  11.850   2.742
72794W        W34083   1.868  11.364   0.334
72795W        W34084  38.998  42.939   3.386
72796W        W34085  14.715  24.144   5.120
72797W        W34086  15.798  29.128   0.802
72798W        W34087   1.799  31.512  12.062
72799W        W34088  26.464  43.275  12.575
72800W        W34089  36.091  42.327  10.427
72801W        W34090   2.802  18.194   1.821
72802W        W34091  22.689  39.050  12.486
72803W        W34092  16.301  23.107  12.065
72804W        W34093  20.161  35.517   3.794
72805W        W34094  44.490  35.554   1.894
72806W        W34095   9.782  10.795  10.474
72807W        W34096  31.117  16.120  13.421
72808W        W34097  31.112  19.765  10.154
72809W        W34098  12.159  22.100  13.409
72810W        W34099  44.440   8.209   2.809
72811W        W34100  40.436  38.569   2.364
72812W        W34101  16.580  18.640  14.362
72813W        W34102  44.766  17.253  11.981
72814W        W34103  14.309   2.948  10.973
72815W        W34104   2.930  29.949   4.221
72816W        W34105  24.631  28.571   3.806
72817W        W34106  31.918   2.890  14.971
72818W        W34107  17.788  14.186  14.893
72819W        W34108  32.060  26.582   9.958
72820W        W34109  21.128   6.693  11.899
72821W        W34110  32.136   0.293   3.360
72822W        W34111  22.011  26.637  14.957
72823W        W34112  30.626   4.928  13.340
72824W        W34113  39.401  21.059  12.034
72825W        W34114   7.306   4.355  12.916
72826W        W34115  39.954  10.673   1.892
72827W        W34116  36.090  19.777   4.639
72828W        W34117  29.120  32.095  14.031
72829W        W34118  14.820   8.258  14.831
72830W        W34119  18.784  22.227  11.883
72831W        W34120  22.674  28.076  12.368
72832W        W34121  21.541  35.567   3.286
72833W        W34122  41.536  37.044  12.983
72834W        W34123  41.538  11.688  14.801
72835W        W34124  11.693   8.347  11.544
72836W        W34125   7.381  27.058  10.920
72837W        W34126  15.706   4.383   4.125
72838W        W34127  30.936  17.259   1.274
72839W        W34128  16.588  17.731   4.759
72840W        W34129   5.838  41.988  11.373
72841W        W34130  27.044  41.355   0.418
72842W        W34131   0.879  19.570  10.079
72843W        W34132  38.887  23.691  11.448
72844W        W34133  22.026   5.729  14.490
72845W        W34134  16.091  38.925   3.254
72846W        W34135  39.031  44.842  13.435
72847W        W34136   9.362  37.073  12.580
72848W        W34137  25.038  14.727   4.755
72849W        W34138  22.552  23.000   3.313
72850W        W34139  29.486  22.500   5.323
72851W        W34140   4.937  43.962  11.438
72852W        W34141  21.038  11.799  13.808
72853W        W34142  42.334  31.927  10.599
72854W        W34143  29.439  34.518  13.547
72855W        W34144  31.467   5.891  13.863
72856W        W34145  35.957  32.432  14.484
72857W        W34146  14.225  23.008   2.305
72858W        W34147   0.926  30.576   5.158
72859W        W34148   6.840   4.749   1.887
72860W        W34149  34.957  14.127   0.833
72861W        W34150  25.695  44.844   0.286
72862W        W34151  12.334  43.939  10.502
72863W        W34152  30.544  17.786  12.981
72864W        W34153  41.875  40.939   4.143
72865W        W34154  30.966  24.993  12.070
72866W        W34155  13.307  42.438   4.686
72867W        W34156  14.246  31.117  14.402
72868W        W34157  26.023  21.140  11.575
72869W        W34158  44.858  16.609   0.850
72870W        W34159  13.655   4.800   0.273
72871W        W34160   2.375  26.067   1.394
72872W        W34161  39.033  25.698  12.063
72873W        W34162  25.145  18.702   1.268
72874W        W34163  10.708  43.996   0.365
72875W        W34164  33.384  29.079   4.736
72876W        W34165  24.055  31.489   3.633
72877W        W34166   5.208  31.080   4.145
72878W        W34167  36.478  13.838  11.902
72879W        W34168   5.792  30.155  13.063
72880W        W34169  42.459  21.215   1.920
72881W        W34170  17.584   8.369   1.812
72882W        W34171  41.446  19.753  11.073
72883W        W34172  34.598  30.912   3.798
72884W        W34173  24.570  37.069   0.462
72885W        W34174  33.068  10.674   2.373
72886W        W34175   1.376  38.392  11.942
72887W        W34176  24.654  34.993  14.970
72888W        W34177  20.637  28.441  14.281
72889W        W34178  34.428  21.555  13.540
72890W        W34179  23.083  17.223   2.401
72891W        W34180   4.748   0.407  13.534
72892W        W34181  23.566  28.056  14.453
72893W        W34182  27.565  34.407  13.309
72894W        W34183  24.702   0.781   2.876
72895W        W34184   5.205  43.012   3.672
72896W        W34185  38.934  22.557   2.849
72897W        W34186  10.877  17.711  11.595
72898W        W34187  28.124   2.916   2.377
72899W        W34188  38.963  33.463   4.285
72900W        W34189   4.286   8.890  14.938
72901W        W34190  11.708  14.277  11.434
72902W        W34191  34.487   2.336   1.727
72903W        W34192  38.056  13.773   4.664
72904W        W34193  26.178   1.443  10.455
72905W        W34194  43.319  28.963  11.091
72906W        W34195  32.484  23.086  10.466
72907W        W34196   4.337  15.694   0.338
72908W        W34197  10.718   2.733   2.365
72909W        W34198  11.787   4.317   1.341
72910W        W34199  24.513  21.140  12.828
72911W        W34200   9.265  27.168  10.461
72912W        W34201  29.144  27.502   4.278
72913W        W34202  39.013  35.429  13.448
72914W        W34203  40.539   7.334  10.528
72915W        W34204  25.567   2.939   2.870
72916W        W34205  25.700  26.983  11.865
72917W        W34206  26.496  18.123   4.622
72918W        W34207  27.096  14.182   5.273
72919W        W34208   3.950  37.005   4.660
72920W        W34209  34.905  21.160   4.149
72921W        W34210  25.143  37.391   1.359
72922W        W34211  33.552  37.523  14.468
72923W        W34212   4.416  11.352   1.299
72924W        W34213  31.990  25.130   4.821
72925W        W34214   6.863   0.985  12.463
72926W        W34215   3.837   2.342  11.415
72927W        W34216  24.608   7.792  13.922
72928W        W34217  43.787  43.333   2.370
72929W        W34218  27.689   8.875   1.725
72930W        W34219   3.750  16.124  10.597
72931W        W34220  32.909  41.818  12.859
72932W        W34221  18.255  33.941   3.648
72933W        W34222  38.898  44.391   4.261
72934W        W34223  19.706  24.135  11.544
72935W        W34224   6.247   7.401   2.800
72936W        W34225   2.276   6.859  14.301
72937W        W34226  37.994  23.239  14.397
72938W        W34227  22.668  17.296   4.678
72939W        W34228  14.827  37.909  11.929
72940W        W34229  26.203  44.956  10.890
72941W        W34230  41.472  41.442  14.443
72942W        W34231  39.892   0.876  12.908
72943W        W34232   9.193  25.173  14.019
72944W        W34233  36.081   9.868   2.745
72945W        W34234  15.824   7.329  10.430
72946W        W34235  34.980  25.992   4.245
72947W        W34236  19.227  21.649   1.745
72948W        W34237  30.083  22.152   4.201
72949W        W34238  44.409  43.878   2.184
72950W        W34239  11.310  36.025  12.537
72951W        W34240  18.177  15.135   3.166
72952W        W34241  43.772  25.531  13.949
72953W        W34242   8.357  31.021   4.641
72954W        W34243   5.281   9.820  12.985
72955W        W34244  14.237  17.123   1.826
72956W        W34245   4.258  16.133  14.866
72957W        W34246  24.108  12.771   4.704
72958W        W34247  14.658  24.565  10.941
72959W        W34248  39.418   9.280  13.420
72960W        W34249   2.794  31.142   3.831
72961W        W34250   4.730   7.805  14.988
72962W        W34251   5.838  26.198  13.926
72963W        W34252  32.595   1.458  13.335
72964W        W34253  22.557   7.197   4.711
72965W        W34254  12.810  39.038   2.207
72966W        W34255  27.001  10.144   4.655
72967W        W34256  27.653  43.413  11.443
72968W        W34257  18.177  11.278  11.598
72969W        W34258   8.899  23.191   1.352
72970W        W34259  18.056  20.746  11.906
72971W        W34260   3.799   0.493   0.311
72972W        W34261  33.920  32.001  14.764
72973W        W34262  24.202  10.372   2.398
72974W        W34263  24.597  25.633  14.937
72975W        W34264  30.103   2.302   4.302
72976W        W34265   0.815  16.191  13.971
72977W        W34266  39.384  31.906  12.886
72978W        W34267  42.956  28.539   4.757
72979W        W34268  23.003  35.509   2.217
72980W        W34269  40.887  37.473  13.843
72981W        W34270   0.410  16.111   4.219
72982W        W34271  32.968  24.980   4.693
72983W        W34272  34.438  38.884  14.903
72984W        W34273  11.304  30.460   4.128
72985W        W34274  27.047  20.766  13.343
72986W        W34275  43.400  43.451  12.049
72987W        W34276  26.519  14.208   0.475
72988W        W34277  19.192  28.600  10.901
72989W        W34278  13.152  41.398   0.418
72990W        W34279  23.516  37.850  11.021
72991W        W34280  16.632  20.089  11.045
72992W        W34281  11.362  15.207   1.806
72993W        W34282  17.794  15.145   2.807
72994W        W34283  27.099  12.782   3.343
72995W        W34284  10.165   2.908   4.806
72996W        W34285   1.903   5.273  11.509
72997W        W34286   1.263  19.607  12.359
72998W        W34287  43.912  15.154   4.320
72999W        W34288   8.327  39.868   2.795
73000W        W34289   4.901   7.849  12.527
73001W        W34290  16.748   3.916  11.119
73002W        W34291  22.643  12.347   1.235
73003W        W34292   2.454  31.477   4.141
73004W        W34293  30.599  28.170   1.769
73005W        W34294  31.513  29.123   3.375
73006W        W34295  19.551   1.323   0.914
73007W        W34296  33.885  28.527  10.499
73008W        W34297  39.559  26.008   3.858
73009W        W34298   9.747  37.024  12.965
73010W        W34299  32.950  13.660  14.304
73011W        W34300   6.277  15.681  14.458
73012W        W34301  44.379  21.704  14.499
73013W        W34302  12.262   3.349  10.547
73014W        W34303  44.764  16.089  11.053
73015W        W34304  36.372  35.860  14.305
73016W        W34305  25.189  44.836   4.777
73017W        W34306  42.512   8.367  11.875
73018W        W34307  42.968   2.373   2.782
73019W        W34308  17.719  17.741   2.261
73020W        W34309  30.971  12.829  10.577
73021W        W34310  44.796  19.554   2.712
73022W        W34311  38.829   0.411  12.904
73023W        W34312  26.157  24.640  11.050
73024W        W34313  32.006  33.939  14.928
73025W        W34314  29.537  22.712   0.458
73026W        W34315   6.376   6.280  14.948
73027W        W34316  28.065  31.497   0.933
73028W        W34317  33.124  30.425  12.007
73029W        W34318  26.525  22.625  13.898
73030W        W34319  25.188  43.815   2.231
73031W        W34320  25.150   4.723   1.777
73032W        W34321  39.372  26.658   0.826
73033W        W34322  36.518   2.812   2.299
73034W        W34323  11.243  38.338  12.034
73035W        W34324  34.067   4.858  12.082
73036W        W34325   1.250  14.769  12.885
73037W        W34326   6.342  26.616   0.802
73038W        W34327   7.354   1.338   2.195
73039W        W34328  31.918  36.066  10.055
73040W        W34329  39.476  24.483   4.204
73041W        W34330  10.276   9.297   5.293
73042W        W34331  23.220   7.790   3.254
73043W        W34332  11.809   1.750   1.803
73044W        W34333  43.011  14.315  12.898
73045W        W34334   5.929  16.654   0.836
73046W        W34335  13.219  15.730   4.794
73047W        W34336   2.770  34.585  14.461
73048W        W34337  29.667  32.040   0.890
73049W        W34338  12.796  25.112  12.932
73050W        W34339   5.354  21.608  13.970
73051W        W34340   7.339  12.772  13.511
73052W        W34341  18.576  24.579   2.305
73053W        W34342   5.707   7.774   1.448
73054W        W34343   6.270  23.591  13.345
73055W        W34344   4.426  16.663  11.444
73056W        W34345   3.849  30.122   2.221
73057W        W34346  18.063   3.845  14.295
73058W        W34347  27.012  35.045  13.311
73059W        W34348  30.013  29.575  10.891
73060W        W34349  33.040  28.043  12.984
73061W        W34350  24.504   2.720  12.901
73062W        W34351  36.888   0.277  13.984
73063W        W34352  43.913  11.240  14.881
73064W        W34353  21.605  26.598   9.933
73065W        W34354  12.737  23.130  13.434
73066W        W34355  37.067  33.888  12.930
73067W        W34356  10.291  12.620  13.470
73068W        W34357  39.822  39.509   3.275
73069W        W34358  35.427   8.194  13.904
73070W        W34359  35.942   1.244   1.758
73071W        W34360  27.582  21.606   1.307
73072W        W34361   4.450   6.199   0.409
73073W        W34362   2.399  35.907   0.461
73074W        W34363  39.447  11.677   1.775
73075W        W34364  23.006  41.416  14.339
73076W        W34365  23.026  12.362   1.288
73077W        W34366  22.629  20.064  10.601
73078W        W34367  42.518  13.710  14.785
73079W        W34368   5.193  34.009  10.592
73080W        W34369  40.868  20.549  10.960
73081W        W34370  17.233  27.032   3.654
73082W        W34371  25.617  29.510   3.312
73083W        W34372  41.375   3.442  13.826
73084W        W34373   9.261   9.702  12.438
73085W        W34374  33.052  40.343   1.335
73086W        W34375  12.226  15.639   2.899
73087W        W34376  11.732  15.312  13.883
73088W        W34377  26.076  12.169   0.921
73089W        W34378  41.516  29.026   4.778
73090W        W34379  41.963  33.935  13.036
73091W        W34380  10.644  16.111  11.417
73092W        W34381  29.081  21.104   4.206
73093W        W34382   8.222   7.758  11.083
73094W        W34383   8.215  36.002   3.294
73095W        W34384  33.393  27.580  12.936
73096W        W34385  19.622  20.248   5.206
73097W        W34386  29.442  21.653   2.886
73098W        W34387  15.689  39.368   4.270
73099W        W34388  39.872  24.677   2.392
73100W        W34389  22.586   9.874   2.225
73101W        W34390   8.261  11.256  14.388
73102W        W34391  10.843  20.620  14.490
73103W        W34392  31.137  19.143  13.000
73104W        W34393  28.142  41.343   0.416
73105W        W34394  17.735  12.663  10.613
73106W        W34395   0.309  36.884   4.770
73107W        W34396  14.634  38.422   3.220
73108W        W34397  23.640  13.331   1.772
73109W        W34398  36.417   5.866   3.664
73110W        W34399  10.639  20.093   1.701
73111W        W34400  30.914   7.845   4.148
73112W        W34401  24.056  27.064  13.321
73113W        W34402  28.160   3.224   1.353
73114W        W34403   0.958  25.543  13.527
73115W        W34404  44.966  29.079   4.761
73116W        W34405  26.552  35.871  13.988
73117W        W34406  27.031  21.129   2.270
73118W        W34407  36.352   8.758   1.424
73119W        W34408  35.952  32.629  11.885
73120W        W34409  22.592  33.555   0.389
73121W        W34410  14.824   2.249  11.919
73122W        W34411  39.925  18.270  12.388
73123W        W34412  35.097  16.154   2.737
73124W        W34413   9.291  25.549  12.857
73125W        W34414  13.250  36.024   4.349
73126W        W34415  25.588  26.974   3.191
73127W        W34416  25.655   3.785   3.673
73128W        W34417  25.492  18.738  14.502
73129W        W34418  36.984   7.218  10.944
73130W        W34419  19.090  35.566  11.594
73131W        W34420  18.170  29.599   3.205
73132W        W34421   6.920  12.288  14.369
73133W        W34422  32.482  36.972   2.181
73134W        W34423   2.262  12.686  12.378
73135W        W34424  32.469  42.346   4.260
73136W        W34425  22.198  21.059  13.953
73137W        W34426  25.134  43.898   0.409
73138W        W34427  39.842  35.564   0.816
73139W        W34428  34.428  16.282  14.467
73140W        W34429  39.385  42.026   3.748
73141W        W34430  35.566   0.847  12.033
73142W        W34431  20.207   4.807   0.804
73143W        W34432  29.061  44.405  10.570
73144W        W34433   3.844   0.949  13.891
73145W        W34434  29.611   6.694  14.325
73146W        W34435  23.576  33.128   2.673
73147W        W34436  37.524  42.802   1.933
73148W        W34437  13.621  15.099   2.241
73149W        W34438   3.718  16.785   4.651
73150W        W34439  36.890  42.897   3.251
73151W        W34440   2.347  18.607  14.025
73152W        W34441   7.321  20.225   4.306
73153W        W34442  13.275  35.418   2.348
73154W        W34443  17.305   6.900   0.796
73155W        W34444   4.827   5.357  14.508
73156W        W34445  10.185  21.519  14.764
73157W        W34446  33.428   2.867  13.841
73158W        W34447  38.417  44.837  13.429
73159W        W34448  39.004  22.572   4.782
73160W        W34449  19.625  44.867  10.419
73161W        W34450  41.473  35.568  11.892
73162W        W34451  21.550   2.288  13.994
73163W        W34452  18.162  11.227   3.835
73164W        W34453  13.182  21.721   3.840
73165W        W34454   5.209  17.219  11.930
73166W        W34455  19.257  30.592  14.413
73167W        W34456  28.451  17.246   3.803
73168W        W34457  28.055  22.646   4.268
73169W        W34458  19.752  26.607   2.314
73170W        W34459  36.376  33.397  10.488
73171W        W34460  14.332  28.156   2.323
73172W        W34461  20.531  34.385   4.185
73173W        W34462   5.811  41.535   3.834
73174W        W34463   8.260  30.056   1.258
73175W        W34464   2.807  29.936  12.454
73176W        W34465  16.701  42.522   0.297
73177W        W34466   6.737  23.711   5.203
73178W        W34467  19.780   3.307  10.498
73179W        W34468  10.634  22.665   3.840
73180W        W34469  34.095  16.099  14.000
73181W        W34470  20.526   8.325   4.338
73182W        W34471  41.842  13.195   1.413
73183W        W34472   1.862   1.259   3.217
73184W        W34473  16.257  19.535  10.465
73185W        W34474  33.448  38.928  13.514
73186W        W34475   7.181  12.270  10.568
73187W        W34476  20.761  30.984   4.292
73188W        W34477  38.849  25.534   0.441
73189W        W34478  18.560  37.408   4.707
73190W        W34479  20.259   1.781   0.392
73191W        W34480  41.425  22.567   2.884
73192W        W34481  30.433  39.852  13.372
73193W        W34482  23.237   5.319   0.809
73194W        W34483  34.931  34.967  13.987
73195W        W34484  32.967  15.648   5.310
73196W        W34485  11.263  30.580  11.373
73197W        W34486   1.836  11.206  11.565
73198W        W34487  20.262  28.525   2.361
73199W        W34488  11.152   1.924  13.318
73200W        W34489   4.223  31.066   0.914
73201W        W34490  16.569  30.919  12.834
73202W        W34491  16.305  25.675   2.298
73203W        W34492  34.462   9.395  14.804
73204W        W34493   0.248  30.101   3.276
73205W        W34494  17.123   6.915   3.196
73206W        W34495   5.913   5.739  13.877
73207W        W34496  37.390  40.541  12.003
73208W        W34497  23.204  17.631  13.820
73209W        W34498  19.595  11.333   1.382
73210W        W34499  19.618  14.796   3.327
73211W        W34500  27.124  16.725  12.556
73212W        W34501  18.760  23.177  12.434
73213W        W34502  36.441  40.410  11.098
73214W        W34503  35.384  15.637   4.220
73215W        W34504  10.831  19.561  14.795
73216W        W34505  16.627   3.330  10.562
73217W        W34506  38.560  30.083  11.937
73218W        W34507  15.709  39.893  11.427
73219W        W34508   7.393   2.434  13.547
73220W        W34509  10.652  15.249  14.902
73221W        W34510  19.645  31.588   0.418
73222W        W34511  21.260  26.043  14.901
73223W        W34512  23.646  31.608  13.532
73224W        W34513   0.407  21.025  12.938
73225W        W34514  20.111  13.674   3.383
73226W        W34515  14.184   7.199   3.164
73227W        W34516   4.365  44.383   0.356
73228W        W34517  16.287  38.017   2.273
73229W        W34518  10.374  40.353   1.412
73230W        W34519  14.201  24.698  10.955
73231W        W34520   1.445  34.476   2.735
73232W        W34521  11.762  23.711  11.580
73233W        W34522  39.424  14.803   4.615
73234W        W34523   0.905  35.021   4.140
73235W        W34524  20.671  22.064  12.901
73236W        W34525  31.975  14.261  11.537
73237W        W34526  37.412  31.602   4.119
73238W        W34527   3.256  30.123  13.025
73239W        W34528   7.880  24.113   3.751
73240W        W34529  18.245  27.623   4.133
73241W        W34530   2.438  29.958   4.744
73242W        W34531  36.999   4.899   3.691
73243W        W34532  24.516  22.084   3.704
73244W        W34533  23.105  24.482  13.518
73245W        W34534  16.610  27.091  11.915
73246W        W34535   4.830   8.263   0.950
73247W        W34536  24.008  27.489  12.839
73248W        W34537  10.168   1.813  14.759
73249W        W34538   8.683  11.272   4.816
73250W        W34539  37.972  29.964  13.953
73251W        W34540   6.711  27.075   9.959
73252W        W34541  27.534  17.148   3.653
73253W        W34542  25.979  19.674   0.956
73254W        W34543  35.038  21.710   3.749
73255W        W34544  14.676  33.021   4.823
73256W        W34545  30.111   6.790   3.334
73257W        W34546  28.615  38.989  10.601
73258W        W34547  22.683  43.989   4.671
73259W        W34548  41.500   4.914   2.726
73260W        W34549   4.438   5.708   3.305
73261W        W34550  21.045  44.759  10.962
73262W        W34551  20.754   3.724   3.261
73263W        W34552  29.061  22.236  12.502
73264W        W34553   6.410  33.980  13.801
73265W        W34554  25.011  31.473  11.594
73266W        W34555  14.176  11.727  11.886
73267W        W34556  24.603  17.568   4.259
73268W        W34557  15.181  28.178   4.817
73269W        W34558  10.366  38.020   3.712
73270W        W34559  25.158  42.504  13.369
73271W        W34560  31.975   7.896   1.267
73272W        W34561  28.606   9.827  13.334
73273W        W34562  22.225   0.459   1.816
73274W        W34563  20.063  40.822   3.853
73275W        W34564  25.965  20.159   4.350
73276W        W34565  20.135  32.434   0.357
73277W        W34566  44.004  12.249   2.220
73278W        W34567  36.965   7.291  13.029
73279W        W34568  26.652  35.059   3.366
73280W        W34569  32.947  40.327   4.622
73281W        W34570  38.355  28.155   0.881
73282W        W34571  14.766  33.401   0.346
73283W        W34572  37.060   2.434   1.375
73284W        W34573   4.447  27.028  13.353
73285W        W34574   2.460   4.914   0.436
73286W        W34575  21.106   4.263   2.400
73287W        W34576  44.858  16.742   3.234
73288W        W34577  44.494  11.817   4.308
73289W        W34578  30.006  20.063   2.292
73290W        W34579   0.966  16.074  11.579
73291W        W34580  29.014   8.654   2.269
73292W        W34581  26.049  24.601  11.442
73293W        W34582  38.909  30.471   0.254
73294W        W34583  15.598   2.796   1.253
73295W        W34584  29.459  25.594   3.200
73296W        W34585  15.243  16.221  10.899
73297W        W34586  27.008  32.912  13.334
73298W        W34587  30.641  23.058   4.176
73299W        W34588   9.651   9.795   4.193
73300W        W34589   4.902  18.099  13.937
73301W        W34590  35.532  14.166   3.854
73302W        W34591  12.239  36.585   1.896
73303W        W34592  11.641  24.497   2.790
73304W        W34593  42.942  30.108  12.012
73305W        W34594   5.400  15.641  12.034
73306W        W34595  12.121  35.572  10.949
73307W        W34596  22.025  12.668   1.327
73308W        W34597  16.303  43.515   4.805
73309W        W34598  12.308  18.599   3.156
73310W        W34599  14.137  14.787  11.918
73311W        W34600   7.416  41.964   3.295
73312W        W34601  16.746  17.682   0.392
73313W        W34602   2.449  12.204  11.079
73314W        W34603  43.331  22.006  12.434
73315W        W34604  36.043  40.462  10.522
73316W        W34605  38.908   6.235   4.627
73317W        W34606   0.417  16.179  12.400
73318W        W34607   2.909  14.598  14.894
73319W        W34608  28.485  18.695  10.898
73320W        W34609  21.692  31.954   4.704
73321W        W34610  33.536  39.550   0.421
73322W        W34611  39.514  11.225  14.352
73323W        W34612  41.313   6.212  11.900
73324W        W34613  25.480  42.376   0.263
73325W        W34614  39.335   7.297   3.177
73326W        W34615  43.855  21.684  14.792
73327W        W34616  43.514  14.257   1.813
73328W        W34617   2.470   4.921  11.439
73329W        W34618  18.644  20.037   0.356
73330W        W34619   5.210  44.883   1.807
73331W        W34620  33.913  36.532  12.054
73332W        W34621  16.214  35.491  13.983
73333W        W34622  43.435  39.454  10.513
73334W        W34623  26.499  13.120  10.546
73335W        W34624  22.216  21.023   2.751
73336W        W34625  38.911  12.785  13.854
73337W        W34626   4.384  17.096   1.724
73338W        W34627  28.172  34.586   1.221
73339W        W34628  25.032  15.726   0.467
73340W        W34629  30.027   8.885   5.599
73341W        W34630  37.568  43.878   2.780
73342W        W34631  39.969   2.761   4.727
73343W        W34632  26.473  27.549   3.361
73344W        W34633  11.296  44.342  14.826
73345W        W34634  10.695  42.371  12.345
73346W        W34635  23.116  30.569  10.978
73347W        W34636  24.121  12.856   0.937
73348W        W34637  16.750  10.695  13.331
73349W        W34638  21.096   4.317  11.882
73350W        W34639  40.040  33.065   4.213
73351W        W34640  41.036  28.958   4.200
73352W        W34641   4.300  26.134   4.785
73353W        W34642  18.240  36.387   1.241
73354W        W34643  15.707  43.936   2.731
73355W        W34644   1.340  18.623  12.870
73356W        W34645  16.585  21.242   3.675
73357W        W34646   1.479  12.792   3.348
73358W        W34647  43.273   1.887  11.065
73359W        W34648  27.548  31.128  13.995
73360W        W34649   8.214  30.494   2.224
73361W        W34650  34.009   0.408   1.813
73362W        W34651  24.022  27.940  12.470
73363W        W34652  33.018   7.386  11.380
73364W        W34653  13.276  31.489   1.340
73365W        W34654  12.283  41.033  11.048
73366W        W34655  42.917  26.564   4.838
73367W        W34656  44.341   5.930   3.261
73368W        W34657  17.087  11.665   1.241
73369W        W34658  12.660  38.053   5.584
73370W        W34659  38.434  31.043   3.841
73371W        W34660  42.916  25.520   1.803
73372W        W34661  15.248  13.177  13.848
73373W        W34662   8.289   5.839  14.856
73374W        W34663  41.021  11.830  12.072
73375W        W34664  37.880   2.755  12.514
73376W        W34665  41.016  25.648   3.321
73377W        W34666  30.571  30.515  13.374
73378W        W34667  10.249   9.184   2.230
73379W        W34668  15.763  25.704   1.710
73380W        W34669   1.885   4.872  14.870
73381W        W34670   7.332  15.231   2.888
73382W        W34671   0.489  27.616   0.368
73383W        W34672   0.898  41.322   0.782
73384W        W34673   4.447  29.617   0.337
73385W        W34674  31.564  32.988   1.777
73386W        W34675   2.413   5.200   4.275
73387W        W34676   3.861   9.886   0.412
73388W        W34677  36.463  44.761   3.783
73389W        W34678  20.115  24.142   4.347
73390W        W34679  32.629   7.213   3.314
73391W        W34680  28.676  39.430   0.357
73392W        W34681  37.498  36.509  10.984
73393W        W34682  26.481  10.859  13.485
73394W        W34683  39.012  10.357  11.114
73395W        W34684  16.576  20.641  13.520
73396W        W34685   5.311  29.489   0.759
73397W        W34686  28.573  31.015  11.904
73398W        W34687   2.770  20.189  14.514
73399W        W34688  10.210  29.150  11.440
73400W        W34689  22.620   3.366  10.562
73401W        W34690  13.655   7.398  13.347
73402W        W34691  44.348  23.527   0.751
73403W        W34692  43.491  13.644   2.366
73404W        W34693  12.825  43.508  10.906
73405W        W34694  38.351  32.082   4.195
73406W        W34695  34.900  35.093   1.368
73407W        W34696  36.560   2.752  13.937
73408W        W34697  20.608  25.621   4.222
73409W        W34698  17.115  29.134   0.924
73410W        W34699  31.622  38.837   2.826
73411W        W34700  34.885  18.140  10.501
73412W        W34701   7.216  13.299   2.291
73413W        W34702  28.597  38.471  12.512
73414W        W34703  29.485   0.822   4.194
73415W        W34704  29.445  22.501   0.788
73416W        W34705  22.598  12.240   0.788
73417W        W34706  24.142  39.995   2.345
73418W        W34707  38.962   0.903  12.003
73419W        W34708  28.056   9.798  13.894
73420W        W34709  16.105   5.237   0.791
73421W        W34710   0.813  32.090  14.293
73422W        W34711  33.486  33.113  13.408
73423W        W34712  11.774  32.411   0.791
73424W        W34713  31.008  37.541  10.544
73425W        W34714  22.052  28.564  12.906
73426W        W34715  27.561   6.712   0.436
73427W        W34716   0.304   5.334   3.680
73428W        W34717  36.415  43.022   9.958
73429W        W34718  34.932  13.122  11.610
73430W        W34719  12.774  34.958   0.476
73431W        W34720   8.681   3.849  11.536
73432W        W34721  26.015  23.073   5.281
73433W        W34722   8.759  28.630  10.627
73434W        W34723   9.847  15.233   1.848
73435W        W34724  12.249  11.296  11.560
73436W        W34725   0.450  23.063   0.841
73437W        W34726  42.780  19.746  12.052
73438W        W34727   0.280  38.472   4.304
73439W        W34728  24.161  15.778  10.935
73440W        W34729   7.749  43.941  12.345
73441W        W34730  28.062  20.747   2.289
73442W        W34731  21.641  15.773  10.948
73443W        W34732  30.036  35.955   4.689
73444W        W34733   8.664  41.448   2.266
73445W        W34734  36.522  16.672  13.468
73446W        W34735  32.029   7.857  11.382
73447W        W34736   5.271  21.532   2.311
73448W        W34737  29.519  12.116   1.418
73449W        W34738   5.924   8.710  13.948
73450W        W34739   4.402   0.373   4.324
73451W        W34740  39.404  22.122  11.870
73452W        W34741  14.246  43.017  14.832
73453W        W34742   7.286  19.550   3.345
73454W        W34743   7.779   9.655  13.514
73455W        W34744   0.800   7.267   0.395
73456W        W34745  19.103  25.007   2.853
73457W        W34746  36.385  28.155   2.305
73458W        W34747  42.826  43.335  14.878
73459W        W34748  35.360   4.306  12.536
73460W        W34749  44.946   1.954  14.330
73461W        W34750   4.428  15.643   3.775
73462W        W34751  36.405  22.108   0.950
73463W        W34752  18.632   9.257   0.462
73464W        W34753   3.783  35.965   3.808
73465W        W34754  15.297   0.879  11.518
73466W        W34755  33.486  40.377   5.311
73467W        W34756  36.348  23.985   2.380
73468W        W34757  26.693  40.848  13.529
73469W        W34758  28.077  15.124   4.668
73470W        W34759   0.481  21.025  14.997
73471W        W34760  41.503  20.049  11.569
73472W        W34761  26.544   7.732  11.058
73473W        W34762  36.516  16.288   4.741
73474W        W34763   1.424  23.092  14.503
73475W        W34764  44.328  33.548   0.739
73476W        W34765  22.239  33.457  11.024
73477W        W34766  44.443  26.616   2.367
73478W        W34767  22.638  43.770  13.338
73479W        W34768   6.413  15.089  10.624
73480W        W34769   6.339  32.951  14.464
73481W        W34770  37.046   2.359   3.727
73482W        W34771  12.351   3.306  12.896
73483W        W34772  28.038   4.306   2.868
73484W        W34773  10.727   7.411   1.781
73485W        W34774   0.290  12.358  12.906
73486W        W34775   3.762  30.545   5.224
73487W        W34776  43.899   3.742  14.424
73488W        W34777  29.087  12.214   0.911
73489W        W34778   0.810  43.399   1.788
73490W        W34779   7.817  43.800   4.241
73491W        W34780  21.724  42.452   0.844
73492W        W34781  30.570  42.841  13.818
73493W        W34782  39.460  30.602  11.858
73494W        W34783  18.584  29.627   2.249
73495W        W34784  16.622  29.525   2.391
73496W        W34785  30.011  37.022   0.299
73497W        W34786  17.155   0.975   1.412
73498W        W34787  41.929  34.868  14.887
73499W        W34788  41.538  44.455   5.250
73500W        W34789  36.410  23.578   0.417
73501W        W34790  31.072  25.164   0.264
73502W        W34791  33.434  44.423   1.860
73503W        W34792  17.780  35.501   1.729
73504W        W34793  25.979  28.439   4.686
73505W        W34794   2.429   6.248  12.925
73506W        W34795  26.960   1.349  13.537
73507W        W34796  26.014  12.167  11.376
73508W        W34797  32.494  30.457   3.775
73509W        W34798  20.228  32.931  10.895
73510W        W34799  39.557   6.750  12.947
73511W        W34800  41.838  24.545   2.900
73512W        W34801  18.199  42.313  13.891
73513W        W34802   9.826   0.464  12.960
73514W        W34803  31.549  29.593   2.880
73515W        W34804  28.645  40.891  10.958
73516W        W34805   8.713  25.499   4.641
73517W        W34806  33.457   6.779   3.752
73518W        W34807   0.333  41.995   2.745
73519W        W34808  28.942  14.104  11.975
73520W        W34809  32.937  10.696   1.811
73521W        W34810  34.877  34.421   2.347
73522W        W34811  40.874   8.796   1.408
73523W        W34812  31.122  25.016  14.999
73524W        W34813  34.566  19.058  14.020
73525W        W34814   8.799   8.707  14.760
73526W        W34815  16.761   7.721  14.015
73527W        W34816  32.109  39.559   2.189
73528W        W34817  33.397  17.603   0.283
73529W        W34818  34.908  44.455   4.189
73530W        W34819  28.101  40.323   3.235
73531W        W34820  35.979  23.989   5.247
73532W        W34821   3.401  20.618   4.701
73533W        W34822  44.948  24.028  12.506
73534W        W34823  35.421   0.277   3.332
73535W        W34824  29.109  29.144   3.298
73536W        W34825  44.820  30.498   5.230
73537W        W34826  39.329  41.396  11.429
73538W        W34827  30.465  42.372  13.508
73539W        W34828   7.267  24.082   0.416
73540W        W34829  31.898  39.939  13.452
73541W        W34830  19.061  25.005  13.952
73542W        W34831  25.973  21.640  13.398
73543W        W34832  36.033  38.376   4.167
73544W        W34833  21.636  23.197  14.467
73545W        W34834  31.471  18.221   0.912
73546W        W34835  20.054  43.965  12.466
73547W        W34836   9.160  19.142  12.012
73548W        W34837  10.296  33.021   3.783
73549W        W34838   9.692   7.833  14.966
73550W        W34839   6.280  10.196   4.186
73551W        W34840  30.106  31.618  13.316
73552W        W34841   7.813  31.471   1.914
73553W        W34842  26.490  39.928  13.846
73554W        W34843  40.319  25.020  13.024
73555W        W34844  41.865   6.722  11.983
73556W        W34845  13.641  36.555  11.902
73557W        W34846  20.181  25.507  12.042
73558W        W34847   3.291  35.591   3.788
73559W        W34848  41.816  27.096   2.883
73560W        W34849  10.361  32.067   3.333
73561W        W34850   7.861  42.891  10.026
73562W        W34851  20.197  19.101   1.776
73563W        W34852   1.848   0.759   3.151
73564W        W34853   4.326  37.022  11.001
73565W        W34854  11.864   7.778   4.290
73566W        W34855  18.244  44.764  13.922
73567W        W34856   0.754  21.079   4.265
73568W        W34857  22.606   7.379   2.206
73569W        W34858   3.939  29.637   1.217
73570W        W34859  28.102  41.948  13.844
73571W        W34860  11.339  15.815  11.928
73572W        W34861   6.329  37.906   3.223
73573W        W34862   0.790  10.281  14.384
73574W        W34863  10.668  16.616   0.809
73575W        W34864  33.104  35.498  10.609
73576W        W34865  24.588   2.437  14.327
73577W        W34866  26.603   6.863   0.766
73578W        W34867  23.128  30.141  13.979
73579W        W34868  15.222   7.314  14.467
73580W        W34869  31.557  12.649  14.029
73581W        W34870   4.913  39.989  11.087
73582W        W34871  25.087  32.601  12.845
73583W        W34872  25.585   8.406   0.962
73584W        W34873  20.649  20.711   3.715
73585W        W34874   1.351  13.304   1.379
73586W        W34875   3.820   1.450  12.023
73587W        W34876  17.112  40.845   2.371
73588W        W34877   7.815  12.357   4.174
73589W        W34878   8.859  14.777  10.930
73590W        W34879   1.448   6.319   3.646
73591W        W34880  33.119   7.238   3.771
73592W        W34881  30.942   1.430   1.853
73593W        W34882  23.101  34.459   0.782
73594W        W34883  20.259   5.796   1.768
73595W        W34884   3.877  42.400   2.663
73596W        W34885  33.452  23.219  11.952
73597W        W34886  17.752  36.086   2.698
73598W        W34887  35.582   8.655  12.536
73599W        W34888   3.344  26.012   1.887
73600W        W34889  11.210  12.791  10.598
73601W        W34890  40.054  18.284   2.699
73602W        W34891  36.388  44.409  11.514
73603W        W34892   1.961  11.189   1.437
73604W        W34893  41.014  29.629  11.873
73605W        W34894  39.893  32.994  14.319
73606W        W34895   7.335  28.105   1.911
73607W        W34896  30.593  28.183   3.731
73608W        W34897  26.503  29.117  12.871
73609W        W34898  24.497  42.028   4.674
73610W        W34899  36.530   5.424   2.209
73611W        W34900  22.687   8.775  11.068
73612W        W34901  18.664  22.037  13.999
73613W        W34902  12.286   7.241   0.374
73614W        W34903  38.994   4.739  13.965
73615W        W34904  26.053  39.892  11.890
73616W        W34905  37.886  40.485   3.329
73617W        W34906  23.131  26.042   1.439
73618W        W34907   9.863  41.505   0.964
73619W        W34908  31.062  23.686   0.916
73620W        W34909  44.327   3.287  10.965
73621W        W34910  27.661  39.813   1.414
73622W        W34911  19.276  38.847  11.860
73623W        W34912  18.268  25.540  11.999
73624W        W34913  31.577  37.345   3.275
73625W        W34914  36.475  19.682   2.837
73626W        W34915  17.251  24.120  11.484
73627W        W34916  19.605  41.448  13.423
73628W        W34917  33.625   2.228   3.303
73629W        W34918  25.209  15.303  13.308
73630W        W34919  17.125  24.079  14.428
73631W        W34920  25.598  31.051   1.399
73632W        W34921  29.586  26.199   1.814
73633W        W34922  11.633   1.267   1.701
73634W        W34923   2.861  13.296   2.321
73635W        W34924  30.499  32.011  12.837
73636W        W34925  34.565  30.658   0.749
73637W        W34926  23.045  43.338  11.379
73638W        W34927  22.118  16.783  12.580
73639W        W34928  10.710  42.312  13.478
73640W        W34929  10.827  28.172  12.824
73641W        W34930  23.098  25.550   0.397
73642W        W34931  33.565   1.818  13.493
73643W        W34932  19.161  27.080   4.674
73644W        W34933  18.777  29.514  11.973
73645W        W34934  13.642  16.655  14.986
73646W        W34935  27.489   0.354  11.008
73647W        W34936  16.791  26.019  12.408
73648W        W34937   2.337   1.858  10.979
73649W        W34938  42.480  29.641   3.822
73650W        W34939  27.470   9.713   4.810
73651W        W34940   3.773  14.268   4.166
73652W        W34941  40.825  36.565  11.121
73653W        W34942  16.755   5.347   3.369
73654W        W34943  32.922  20.536   0.355
73655W        W34944  31.646  11.664  14.445
73656W        W34945   9.752  13.204  13.482
73657W        W34946   6.400  19.653   1.826
73658W        W34947  39.463   6.759   2.856
73659W        W34948  16.700  25.014  11.886
73660W        W34949  32.054   8.378  14.808
73661W        W34950   5.434  38.453   4.806
73662W        W34951  31.564  41.889   1.441
73663W        W34952   6.708  38.523  10.479
73664W        W34953  37.905   2.865  12.936
73665W        W34954   3.217   6.333  10.913
73666W        W34955   8.298  11.152   4.301
73667W        W34956  41.870  17.696   4.792
73668W        W34957   3.851  36.546  13.495
73669W        W34958  24.543  26.547   3.855
73670W        W34959   7.853  16.655  14.448
73671W        W34960   1.934  20.091   2.217
73672W        W34961   4.428  17.598   0.794
73673W        W34962   2.924  23.571   3.348
73674W        W34963  19.558   4.776   2.395
73675W        W34964  14.608  24.999  13.986
73676W        W34965   7.362  26.476  14.405
73677W        W34966   9.808  34.947   1.318
73678W        W34967   3.800  35.020   0.386
73679W        W34968   0.445  23.595  10.489
73680W        W34969   2.903  32.924   3.798
73681W        W34970  44.477   6.914   4.231
73682W        W34971   0.870  41.504  11.555
73683W        W34972  26.645  17.132  13.855
73684W        W34973  11.830  34.025   3.738
73685W        W34974  14.677  44.331  10.115
73686W        W34975  27.528   0.938   3.221
73687W        W34976   5.819  37.984   1.242
73688W        W34977  40.455  25.166   2.794
73689W        W34978  22.655  33.017  10.505
73690W        W34979  14.287   5.214   2.736
73691W        W34980   4.394  40.889  11.063
73692W        W34981  11.838  16.647   4.791
73693W        W34982   8.371  25.583  10.448
73694W        W34983   6.708  37.347   3.187
73695W        W34984  29.027  14.213   2.775
73696W        W34985  42.321   7.355  13.891
73697W        W34986  35.414  31.616   3.359
73698W        W34987  19.693  35.380  11.403
73699W        W34988   2.441  36.046   2.883
73700W        W34989  20.191  40.524   4.249
73701W        W34990  18.262   5.287  13.365
73702W        W34991  32.543  44.950   2.232
73703W        W34992  35.919  25.699  12.502
73704W        W34993   6.775   7.385  12.370
73705W        W34994  44.442  36.888   0.735
73706W        W34995   7.258  18.200  12.921
73707W        W34996  40.820  33.874  11.556
73708W        W34997  20.535  34.895   1.719
73709W        W34998  21.758  32.902   1.761
73710W        W34999  13.346  38.955  11.491
73711W        W35000  35.024   7.191   4.201
73712W        W35001   8.199   0.383  10.506
73713W        W35002   5.372  32.567   2.386
73714W        W35003   1.739  25.972   0.307
73715W        W35004  25.200  27.473   2.333
73716W        W35005   2.304  21.032  14.879
73717W        W35006   6.388  11.172   3.848
73718W        W35007  10.195  37.034  12.455
73719W        W35008  26.154  37.962  14.811
73720W        W35009   4.736  39.318  13.538
73721W        W35010  27.615  40.887  12.527
73722W        W35011  32.011  19.141   3.811
73723W        W35012  37.494  19.644   1.895
73724W        W35013  41.499  42.356  10.456
73725W        W35014  42.300   5.323  13.824
73726W        W35015  42.340  33.943  14.427
73727W        W35016  19.552  14.322  12.848
73728W        W35017  17.070  37.500  12.359
73729W        W35018  33.127  26.114  13.036
73730W        W35019  42.994  27.571   4.337
73731W        W35020  18.051  33.099   4.348
73732W        W35021  32.448  36.035   5.123
73733W        W35022  38.936  16.242   3.842
73734W        W35023  35.885  33.428   1.738
73735W        W35024  32.046  21.740   2.819
73736W        W35025  28.476  34.878  12.489
73737W        W35026  31.981   6.749   0.951
73738W        W35027  10.145   4.761   2.362
73739W        W35028  25.144  11.144  11.075
73740W        W35029  36.537  24.118  11.591
73741W        W35030  37.877  18.291  12.005
73742W        W35031  27.134  11.179  13.449
73743W        W35032  20.705  20.529  11.402
73744W        W35033  23.201  41.515  12.930
73745W        W35034  44.754  17.120  10.963
73746W        W35035  30.414  43.328   0.479
73747W        W35036  21.675  44.941   0.908
73748W        W35037  17.576  10.866   4.275
73749W        W35038  36.518   0.911   0.337
73750W        W35039  13.305  19.236  13.513
73751W        W35040  23.218   8.699   1.260
73752W        W35041  17.647  44.452   3.854
73753W        W35042  16.072  10.201   2.752
73754W        W35043  31.542  23.151   0.477
73755W        W35044  10.771  20.645   2.889
73756W        W35045  31.637  10.647   1.278
73757W        W35046  10.309  38.471   2.314
73758W        W35047  20.550  42.957   3.734
73759W        W35048  32.985  11.713   3.171
73760W        W35049  33.438  11.261   2.815
73761W        W35050  24.541   8.890   3.829
73762W        W35051   7.767  33.584  13.005
73763W        W35052  26.965   4.849  14.414
73764W        W35053   9.885   8.892  10.425
73765W        W35054  11.136   4.817  12.575
73766W        W35055  25.471  33.605   3.749
73767W        W35056  36.412   4.738  13.856
73768W        W35057   5.270  17.569  13.440
73769W        W35058   0.390  13.843   2.380
73770W        W35059  10.255   4.447   2.857
73771W        W35060  24.978  20.145  11.879
73772W        W35061  17.189  29.091  12.824
73773W        W35062  29.125   3.443  10.622
73774W        W35063  25.177  22.150   0.902
73775W        W35064   0.949  43.873   3.264
73776W        W35065  42.521  40.896  12.885
73777W        W35066  27.597  21.045   3.663
73778W        W35067   6.741  23.519  14.987
73779W        W35068   9.199  40.380  12.343
73780W        W35069  40.507  37.414  14.782
73781W        W35070  40.854  40.012   4.828
73782W        W35071  30.975  22.565   0.300
73783W        W35072  18.641  38.477   1.724
73784W        W35073  35.852  31.925   0.377
73785W        W35074  11.643   4.373  10.510
73786W        W35075  22.183   2.439   4.653
73787W        W35076  44.944  41.380  11.013
73788W        W35077   8.790  17.126  11.501
73789W        W35078  25.584  22.539  13.815
73790W        W35079  27.174  16.110  11.027
73791W        W35080  16.666   0.780  12.828
73792W        W35081  26.601  37.068  12.509
73793W        W35082  29.468  30.477   2.685
73794W        W35083  44.804  29.505  13.005
73795W        W35084  32.556  12.145   4.744
73796W        W35085  19.082  28.956  11.373
73797W        W35086  19.127   1.972  11.381
73798W        W35087  29.024  34.508   0.802
73799W        W35088  32.591  13.662  14.480
73800W        W35089  13.769   3.768   4.827
73801W        W35090  33.414  23.662  13.032
73802W        W35091  34.906  44.820   0.941
73803W        W35092  37.897  11.848  12.089
73804W        W35093  25.694  12.305  14.892
73805W        W35094  10.668   8.724   4.151
73806W        W35095  42.343  44.956   0.355
73807W        W35096  19.095   6.775  14.837
73808W        W35097   4.284  29.532   3.159
73809W        W35098   1.420   6.892   4.704
73810W        W35099   7.222  43.471  10.560
73811W        W35100  42.335  33.126  10.624
73812W        W35101   3.440  32.900   9.934
73813W        W35102  18.198  43.938  13.472
73814W        W35103  18.618  44.470  10.522
73815W        W35104  28.440  18.206  11.857
73816W        W35105   5.231  38.823  13.308
73817W        W35106  30.595   2.923  13.312
73818W        W35107  15.748  30.125   2.807
73819W        W35108  24.100  15.677   3.661
73820W        W35109  26.634  15.697  14.990
73821W        W35110  36.081  28.624  10.632
73822W        W35111  31.098   1.889   3.368
73823W        W35112  20.756  13.728  14.450
73824W        W35113  39.320  40.408  13.064
73825W        W35114   0.265  15.130  10.568
73826W        W35115   0.421  13.114   1.911
73827W        W35116  14.175  26.136  14.845
73828W        W35117  44.308  41.347   1.436
73829W        W35118  38.024   2.888   3.194
73830W        W35119   9.885  10.842   0.764
73831W        W35120  36.014  26.592   0.844
73832W        W35121  16.255  24.013  11.424
73833W        W35122  41.825  41.485  12.063
73834W        W35123  10.318  34.924   3.384
73835W        W35124  44.973   9.676   0.356
73836W        W35125   1.260  17.606  14.977
73837W        W35126  32.558  20.575   3.193
73838W        W35127  23.101  19.663   4.157
73839W        W35128   2.278  15.727   0.438
73840W        W35129  10.375  28.187   0.743
73841W        W35130   1.782  42.524  10.619
73842W        W35131  20.117   2.316   2.259
73843W        W35132  44.466  33.610   4.353
73844W        W35133  33.002  12.180   1.808
73845W        W35134  12.712  28.075  12.977
73846W        W35135  11.179  12.282  13.405
73847W        W35136  35.359  13.259  11.001
73848W        W35137  40.914   4.396   3.688
73849W        W35138  40.344   9.754   2.897
73850W        W35139  17.214  33.901  11.115
73851W        W35140  24.597  20.191  13.006
73852W        W35141  15.300  38.917   1.221
73853W        W35142  25.545  42.016  13.455
73854W        W35143  29.006  43.009   2.181
73855W        W35144   8.900  43.766   0.357
73856W        W35145  31.600  11.681   1.321
73857W        W35146  29.639  28.059  12.849
73858W        W35147   1.963  12.841  13.969
73859W        W35148   4.823  31.068  10.449
73860W        W35149  40.995  27.474   0.273
73861W        W35150  28.463  37.374   3.206
73862W        W35151  32.432  12.621  10.979
73863W        W35152   7.665  31.648  11.079
73864W        W35153   9.245  28.496   1.909
73865W        W35154  29.943  44.439   0.348
73866W        W35155  18.554  12.697  10.466
73867W        W35156  22.087  11.809  12.846
73868W        W35157  36.453  14.692   3.812
73869W        W35158  44.918  37.001   2.674
73870W        W35159  20.149  15.695  11.928
73871W        W35160  18.269  16.700  14.797
73872W        W35161  10.696  11.776   4.785
73873W        W35162  37.001   0.947  13.057
73874W        W35163  13.301  10.645   3.271
73875W        W35164   0.805  13.780   3.827
73876W        W35165  41.905  18.662   3.855
73877W        W35166  23.030   3.217  13.828
73878W        W35167  42.802  26.459  11.383
73879W        W35168  11.863  31.015  13.316
73880W        W35169  33.485  43.403  12.480
73881W        W35170  37.351  17.626  11.896
73882W        W35171   8.255  13.267  12.978
73883W        W35172   5.289  28.133   1.259
73884W        W35173  39.482  17.230   1.867
73885W        W35174  40.042  36.424   0.746
73886W        W35175  23.686  19.116  11.424
73887W        W35176  19.161  42.414   2.902
73888W        W35177  35.972  19.045   0.778
73889W        W35178  12.238  12.292   3.271
73890W        W35179  35.394  10.314  14.423
73891W        W35180  25.190  40.513  12.877
73892W        W35181  12.812  39.019   3.849
73893W        W35182  37.885  33.474   1.918
73894W        W35183  23.195  44.493   0.359
73895W        W35184  12.671  14.708  12.563
73896W        W35185  18.285  32.532   2.287
73897W        W35186  20.173  13.648   4.818
73898W        W35187  31.008   1.422   4.828
73899W        W35188  22.600  44.294  10.984
73900W        W35189  27.655  12.360  13.513
73901W        W35190  10.699  33.541  11.107
73902W        W35191  40.878   6.802  14.349
73903W        W35192  42.954   1.419   1.263
73904W        W35193   6.220  44.486  13.456
73905W        W35194  14.181  34.427   3.371
73906W        W35195  23.517  10.681  12.965
73907W        W35196   8.276  22.049  11.125
73908W        W35197  40.359  40.471  11.509
73909W        W35198   1.400  23.202  11.031
73910W        W35199  19.690   7.887   1.895
73911W        W35200  37.912  20.165  11.511
73912W        W35201  18.553  24.041   3.744
73913W        W35202   7.381  20.230   4.633
73914W        W35203  41.445   3.901   1.287
73915W        W35204  41.429  14.140   3.354
73916W        W35205  32.991  33.057  13.365
73917W        W35206  24.618  28.452  14.801
73918W        W35207  37.862  42.915  10.155
73919W        W35208  38.511  19.585   0.245
73920W        W35209  27.570   7.812  14.897
73921W        W35210  33.092  39.458   1.876
73922W        W35211  14.631  17.156   2.348
73923W        W35212  34.089  25.606   0.794
73924W        W35213  19.746  26.124   1.863
73925W        W35214  29.591  21.643  13.926
73926W        W35215   3.819  38.327  13.032
73927W        W35216  27.021  17.250   2.687
73928W        W35217  16.096  44.430   0.261
73929W        W35218  16.697  30.138   4.149
73930W        W35219  34.929   7.323  11.407
73931W        W35220  25.035  42.010   2.274
73932W        W35221   5.881  36.949   2.840
73933W        W35222  17.265  14.303  13.359
73934W        W35223   8.393  19.163   3.335
73935W        W35224   4.342   2.863   2.333
73936W        W35225   0.353  29.005  14.397
73937W        W35226  33.890  10.768  11.550
73938W        W35227  23.034   9.183  10.642
73939W        W35228   0.407   6.289  14.454
73940W        W35229  31.505  13.320   2.299
73941W        W35230   8.170  22.173  10.024
73942W        W35231  17.752  44.286  13.496
73943W        W35232  28.935  37.934   0.883
73944W        W35233   2.423  43.797  12.048
73945W        W35234  29.936  23.647  12.898
73946W        W35235  25.147  27.987  13.498
73947W        W35236  33.905  20.678  10.912
73948W        W35237   1.312  27.188  12.854
73949W        W35238  25.096   1.882   2.849
73950W        W35239  21.598  33.561  14.283
73951W        W35240   1.287  34.865  13.043
73952W        W35241  44.433  19.179   4.354
73953W        W35242  11.156  34.043   0.379
73954W        W35243  44.872  39.417  11.593
73955W        W35244   6.319   0.430   3.183
73956W        W35245  15.649  35.524   4.720
73957W        W35246  41.929   4.257  10.502
73958W        W35247  33.453  32.058   0.387
73959W        W35248  15.311  28.135   3.282
73960W        W35249  28.001   1.460  12.990
73961W        W35250  25.012  28.548  14.476
73962W        W35251  35.035   6.848   3.756
73963W        W35252   7.172  14.734  14.857
73964W        W35253  16.128  36.007   0.795
73965W        W35254  32.484  42.920  12.470
73966W        W35255  29.640   7.363  11.979
73967W        W35256   7.852   8.780  11.402
73968W        W35257   4.889  18.111   0.281
73969W        W35258  43.439   1.402   4.826
73970W        W35259  37.062  33.079   0.771
73971W        W35260  42.871  20.205  12.362
73972W        W35261  28.565  39.405  13.977
73973W        W35262  19.152   7.770  10.602
73974W        W35263  17.077  42.526  14.785
73975W        W35264  26.156  25.645   0.446
73976W        W35265  27.984  15.306  14.409
73977W        W35266  13.161  13.804   4.621
73978W        W35267  23.581  10.213  13.878
73979W        W35268   8.356  36.554  12.444
73980W        W35269  11.632  30.027  13.976
73981W        W35270   1.791  21.258  11.536
73982W        W35271  21.705   2.744   3.741
73983W        W35272  36.924  39.049  10.465
73984W        W35273  18.637  20.188  11.603
73985W        W35274   8.266  39.000  10.615
73986W        W35275  34.469   1.933  12.542
73987W        W35276   9.872  35.582  11.456
73988W        W35277  21.028  22.156  11.404
73989W        W35278  43.864   3.250   1.831
73990W        W35279   4.748  25.660   4.251
73991W        W35280   9.231  36.968  13.809
73992W        W35281  32.630  36.903   0.891
73993W        W35282  28.564  12.299   3.634
73994W        W35283  37.400  40.342   1.343
73995W        W35284  21.616  32.955  14.889
73996W        W35285  39.829  24.535   2.879
73997W        W35286  26.180  32.055   0.388
73998W        W35287  44.473   8.274  13.799
73999W        W35288  30.120  27.967   1.736
74000W        W35289  44.388  29.568  13.052
74001W        W35290  23.989  33.926   2.334
74002W        W35291  35.859  38.968  14.941
74003W        W35292   3.916  22.175  12.350
74004W        W35293  13.705  34.918   0.355
74005W        W35294  20.102  17.778   1.403
74006W        W35295  21.747   1.466  11.500
74007W        W35296  35.550  14.338   1.420
74008W        W35297  31.008  17.133  10.551
74009W        W35298  13.125  32.506   9.483
74010W        W35299   2.337   8.720  12.568
74011W        W35300  30.019   8.341  12.958
74012W        W35301  20.673  13.142   4.345
74013W        W35302  18.776  24.168   2.335
74014W        W35303  42.393  30.527   3.655
74015W        W35304  21.189   9.691   0.409
74016W        W35305  24.619  25.615   5.672
74017W        W35306  16.689   8.682  13.930
74018W        W35307  18.177  40.483   1.353
74019W        W35308  36.387  33.385  12.417
74020W        W35309  22.088  37.382   4.681
74021W        W35310   8.189   6.880  13.818
74022W        W35311  11.848  42.812  10.954
74023W        W35312   0.982  25.006   3.215
74024W        W35313   2.797  36.567   3.645
74025W        W35314  38.915   1.900  13.955
74026W        W35315  44.379  23.219  14.460
74027W        W35316  29.060   4.798   1.879
74028W        W35317  23.590  38.469  12.855
74029W        W35318  32.000  36.980  14.951
74030W        W35319  33.062   7.747  10.516
74031W        W35320  35.564   0.841   3.771
74032W        W35321  24.671   5.905   4.301
74033W        W35322   7.316   4.338  11.591
74034W        W35323  31.424  25.130   3.168
74035W        W35324  26.591  38.007  12.041
74036W        W35325   8.888   9.172   1.437
74037W        W35326  31.620  33.466   1.826
74038W        W35327  30.604  24.161  12.366
74039W        W35328  22.197  31.999   4.797
74040W        W35329  18.156   6.891   2.716
74041W        W35330  42.952   2.434  11.491
74042W        W35331  13.730   5.773  14.464
74043W        W35332  44.773  12.699   3.301
74044W        W35333  37.902  19.693  13.007
74045W        W35334  41.035  29.028  10.469
74046W        W35335  12.201  38.845  10.408
74047W        W35336  19.112  43.778  12.869
74048W        W35337  39.826  16.699   2.708
74049W        W35338  22.528   5.695   1.234
74050W        W35339  30.564  20.564  13.909
74051W        W35340  41.476  39.858  14.025
74052W        W35341  23.046  38.362   2.814
74053W        W35342  18.774  40.507  10.948
74054W        W35343  24.563  35.082   3.221
74055W        W35344   5.360  38.976   2.190
74056W        W35345  44.755   2.240   3.314
74057W        W35346  23.142  20.624  14.493
74058W        W35347   9.340  23.644  13.834
74059W        W35348  35.875  32.972   3.714
74060W        W35349  18.594  42.293   3.695
74061W        W35350  42.519   1.247  12.476
74062W        W35351  44.943  32.538  12.519
74063W        W35352  23.492  29.511  10.476
74064W        W35353  34.948  19.708  14.963
74065W        W35354  17.168   8.807   1.271
74066W        W35355  39.491  33.552   3.289
74067W        W35356  26.997  10.878   3.285
74068W        W35357  23.208  20.190   5.566
74069W        W35358  44.294   5.268  10.454
74070W        W35359   3.256  36.567  11.897
74071W        W35360  17.667  42.890  10.569
74072W        W35361   0.477  32.539  12.894
74073W        W35362  28.459  35.481   1.748
74074W        W35363  22.235  27.556  12.990
74075W        W35364   1.739  25.592   0.958
74076W        W35365   7.904  31.604  14.303
74077W        W35366  42.444  32.634   0.783
74078W        W35367  27.115  23.069  14.855
74079W        W35368  26.547  34.080   2.315
74080W        W35369  42.786   5.786   1.834
74081W        W35370  36.030   1.452   2.367
74082W        W35371   1.243  40.516  12.407
74083W        W35372  38.860  16.593   0.808
74084W        W35373  26.664  28.016   0.323
74085W        W35374  21.196  16.693   3.251
74086W        W35375  30.477   2.266  11.951
74087W        W35376   6.195  18.233   1.920
74088W        W35377  22.185  11.373   4.293
74089W        W35378  12.802   2.446   3.794
74090W        W35379  23.505  10.729   4.211
74091W        W35380  36.888  11.354   2.707
74092W        W35381   7.247  30.479  10.889
74093W        W35382  40.036  25.205  10.622
74094W        W35383  38.045   9.647   1.349
74095W        W35384  29.500  40.885   2.864
74096W        W35385  11.641  41.007   3.638
74097W        W35386  20.174   4.731  13.520
74098W        W35387  21.541  10.691  14.497
74099W        W35388  26.604  34.429   0.380
74100W        W35389   1.278  43.322  13.414
74101W        W35390  25.669  13.775   3.681
74102W        W35391  27.590  13.770   1.450
74103W        W35392  18.697  44.755  14.029
74104W        W35393  15.813  35.949   2.403
74105W        W35394  42.304   1.250   2.879
74106W        W35395  13.630  13.629  12.918
74107W        W35396  22.176  23.096   1.283
74108W        W35397  22.253  22.529   1.750
74109W        W35398   0.314  25.998  12.479
74110W        W35399   0.307  22.237  14.783
74111W        W35400  37.558  32.069  14.997
74112W        W35401  19.218   0.376   2.826
74113W        W35402  43.868   7.774   2.662
74114W        W35403  17.265  25.691  14.349
74115W        W35404  11.214  35.553  14.371
74116W        W35405  28.155  32.446  13.499
74117W        W35406  17.270  28.655   2.878
74118W        W35407  25.017  30.455  12.056
74119W        W35408  36.462  11.723  13.825
74120W        W35409  32.514  33.528  12.945
74121W        W35410   6.232  43.922   3.197
74122W        W35411  40.539  10.835  14.990
74123W        W35412  13.640  42.892   0.855
74124W        W35413  44.380  25.534  13.505
74125W        W35414  25.081  12.616   3.655
74126W        W35415  25.575  44.800   4.825
74127W        W35416  13.664  21.195   0.737
74128W        W35417  16.689  41.823  12.465
74129W        W35418   9.288   5.838  13.351
74130W        W35419   2.921   2.756  14.945
74131W        W35420  43.794  43.356   0.936
74132W        W35421   9.155  41.506   5.222
74133W        W35422  10.666   2.462   2.336
74134W        W35423  14.209  24.707   1.845
74135W        W35424  39.323  14.714   0.795
74136W        W35425  25.039  38.006   2.183
74137W        W35426  21.129  40.497  13.976
74138W        W35427  33.585  28.540  13.449
74139W        W35428  43.802  43.975   1.342
74140W        W35429   5.334  28.025  11.987
74141W        W35430   7.771  12.343  14.322
74142W        W35431  31.124   7.322  14.763
74143W        W35432   0.478  10.853  14.786
74144W        W35433   4.715  31.543   1.402
74145W        W35434  40.525   1.427  10.937
74146W        W35435  25.102  40.400  14.410
74147W        W35436  44.471  21.613   1.307
74148W        W35437  20.274  43.348  12.453
74149W        W35438   0.448   0.910  12.403
74150W        W35439  36.563  20.163   1.426
74151W        W35440  11.144  32.033   5.231
74152W        W35441  26.056  44.413   4.301
74153W        W35442  33.497   7.268  14.999
74154W        W35443  32.536   1.313  10.428
74155W        W35444  10.760   9.827   2.391
74156W        W35445  22.728   8.339  12.391
74157W        W35446   9.341  34.979   0.372
74158W        W35447  25.983  38.497   4.692
74159W        W35448  41.344  16.634  13.831
74160W        W35449  30.470  36.946   3.743
74161W        W35450   9.235  26.083   0.388
74162W        W35451  18.211  24.996   1.308
74163W        W35452   2.249  11.310   0.734
74164W        W35453  25.707  25.483  11.455
74165W        W35454  24.064  28.461  10.937
74166W        W35455   0.426  14.323  14.475
74167W        W35456  15.767  32.051   5.145
74168W        W35457  43.427  41.870   3.778
74169W        W35458  41.854  36.558   4.233
74170W        W35459  44.335   9.236  12.944
74171W        W35460  27.682   6.258  13.343
74172W        W35461  22.540  35.076  11.087
74173W        W35462  28.648  37.018  12.981
74174W        W35463  39.397  38.539   3.355
74175W        W35464   7.673   0.977  14.889
74176W        W35465  28.574  30.511   2.178
74177W        W35466   5.777   7.351   1.370
74178W        W35467  38.553  43.433   3.251
74179W        W35468   6.313  28.083   0.737
74180W        W35469  12.181  22.568   1.896
74181W        W35470  31.921   7.838   2.273
74182W        W35471  29.957   1.279  11.565
74183W        W35472  34.100  23.147  11.500
74184W        W35473   0.409   6.282  12.959
74185W        W35474  12.297  39.533   5.123
74186W        W35475   6.723  32.004  14.474
74187W        W35476  39.868  16.761   0.398
74188W        W35477  14.752  23.225   1.737
74189W        W35478  11.660   5.930   2.397
74190W        W35479  18.766  32.899   1.916
74191W        W35480  17.201  10.867   0.462
74192W        W35481  14.148   8.256   0.256
74193W        W35482  33.909  19.285  12.486
74194W        W35483  37.960  25.709   2.275
74195W        W35484  11.671  40.814   0.373
74196W        W35485  42.955  34.932  13.315
74197W        W35486   4.349   9.219  13.454
74198W        W35487  11.760  23.029  13.330
74199W        W35488   5.865   1.867   2.400
74200W        W35489  30.445  44.467   3.331
74201W        W35490  21.199   5.230  12.408
74202W        W35491  36.483   7.287  11.436
74203W        W35492  28.586   1.296   4.818
74204W        W35493  44.008   8.369  12.893
74205W        W35494  20.536  18.604   3.733
74206W        W35495  42.922  20.265   1.852
74207W        W35496  19.233  38.547   4.209
74208W        W35497  39.861  26.457  13.846
74209W        W35498   4.320   8.167   1.736
74210W        W35499  43.469  35.476   2.792
74211W        W35500  33.893  42.483  11.605
74212W        W35501  31.608   7.303   3.715
74213W        W35502  19.770  43.884   3.180
74214W        W35503   4.729   5.294   3.816
74215W        W35504  15.089  21.701   2.753
74216W        W35505  12.646   5.260  11.439
74217W        W35506  42.877  32.929   1.433
74218W        W35507  14.649  15.182   1.764
74219W        W35508  41.921  18.752   2.252
74220W        W35509  43.842  23.121   2.811
74221W        W35510  32.447  10.220  11.495
74222W        W35511  34.067  14.661   0.467
74223W        W35512  43.792  39.924   2.253
74224W        W35513  28.541  42.458  12.365
74225W        W35514  12.173  33.101  13.356
74226W        W35515  23.112  41.455  12.580
74227W        W35516  16.073  10.700  13.312
74228W        W35517  16.100  34.598  11.031
74229W        W35518   7.900  40.391  14.861
74230W        W35519  39.457  30.927   1.843
74231W        W35520   8.773   4.880  13.321
74232W        W35521   7.387  19.095   4.237
74233W        W35522  40.983  14.321  12.086
74234W        W35523   4.400  12.746   4.769
74235W        W35524  42.432  36.370  11.536
74236W        W35525  15.590  29.137   3.147
74237W        W35526  33.462  27.450  14.371
74238W        W35527  31.014  32.629  14.296
74239W        W35528  25.983  35.502  11.946
74240W        W35529  31.438  10.772  13.012
74241W        W35530   3.797  22.109  14.459
74242W        W35531   6.204  41.941   1.398
74243W        W35532   0.756  27.503   3.319
74244W        W35533  34.436  16.316  10.499
74245W        W35534   9.305  19.573   4.674
74246W        W35535   0.945  16.784   3.779
74247W        W35536  17.108  16.145  14.323
74248W        W35537  27.625  23.584  12.578
74249W        W35538  35.864  44.799  10.912
74250W        W35539  30.563  11.630   2.853
74251W        W35540  42.842  20.153   3.831
74252W        W35541  42.907  39.556  13.482
74253W        W35542   6.354  26.088   4.142
74254W        W35543   3.892  40.541   3.227
74255W        W35544   0.409  43.386   4.256
74256W        W35545  21.573  28.042   4.184
74257W        W35546  16.655  38.563  14.331
74258W        W35547  29.516  37.543   2.332
74259W        W35548  31.540   7.194  14.373
74260W        W35549  38.916  20.061   3.149
74261W        W35550  44.414   6.676  11.116
74262W        W35551  41.901  25.634  10.934
74263W        W35552  17.239  23.078  10.571
74264W        W35553   7.312  18.073   3.173
74265W        W35554  28.008  35.495  14.766
74266W        W35555   2.846  17.270   3.648
74267W        W35556  26.546  19.138   2.360
74268W        W35557   2.816  35.383   2.791
74269W        W35558   9.187  40.481  10.544
74270W        W35559  26.102  24.539  13.966
74271W        W35560  30.424  13.780   4.749
74272W        W35561  11.238  43.788   9.502
74273W        W35562  41.488  38.333  10.624
74274W        W35563  40.391  43.919  10.589
74275W        W35564  13.656  34.411   0.483
74276W        W35565  41.537   4.414  12.887
74277W        W35566   1.242  30.493  14.943
74278W        W35567   1.312   6.214   2.377
74279W        W35568  29.004   1.837  14.488
74280W        W35569  10.744  16.628   1.837
74281W        W35570  43.274   1.305   2.886
74282W        W35571  35.523  34.546  14.013
74283W        W35572  13.646  23.011  13.939
74284W        W35573  15.590  15.308   2.897
74285W        W35574  26.525  13.613   1.933
74286W        W35575  20.268  15.144   0.780
74287W        W35576  43.016  10.636  12.840
74288W        W35577  39.999  44.408   0.882
74289W        W35578   1.309  24.670   1.882
74290W        W35579  40.455  20.609   3.635
74291W        W35580  15.096  29.499   2.268
74292W        W35581   8.710  34.523   3.691
74293W        W35582  31.118  36.921   3.827
74294W        W35583  40.827  22.083  12.443
74295W        W35584  14.757  33.017   0.799
74296W        W35585  22.048   2.940  10.591
74297W        W35586   7.891  41.430  12.953
74298W        W35587  35.919  16.628  14.290
74299W        W35588  39.981   0.322  13.004
74300W        W35589  35.398   7.847  11.405
74301W        W35590  27.620  25.522  10.489
74302W        W35591  30.942  38.014   1.366
74303W        W35592  37.442  39.952  13.859
74304W        W35593   6.835  35.006   0.375
74305W        W35594  23.136  43.343  10.987
74306W        W35595  39.999   2.903   3.284
74307W        W35596  36.070  44.396   2.377
74308W        W35597  18.664  35.925   3.798
74309W        W35598   3.930   7.865   2.254
74310W        W35599  30.935   3.797  10.635
74311W        W35600  28.673  21.643  10.503
74312W        W35601   4.216   9.711  12.481
74313W        W35602  13.228  19.270  10.586
74314W        W35603  14.122   3.919   2.695
74315W        W35604  36.042  38.479   0.755
74316W        W35605  28.106  25.671  13.327
74317W        W35606  28.633  22.065  11.864
74318W        W35607  40.974  36.035   3.260
74319W        W35608  41.527  30.001  13.434
74320W        W35609  29.156  22.172  13.368
74321W        W35610   3.453   2.845   1.303
74322W        W35611  26.570   9.738  14.467
74323W        W35612  24.517  40.922   4.196
74324W        W35613  41.887  36.361  14.901
74325W        W35614   2.239  41.363  11.391
74326W        W35615  37.931  11.360  14.414
74327W        W35616  18.620  36.439   3.298
74328W        W35617  41.787  22.029   0.839
74329W        W35618  24.536  44.371  12.047
74330W        W35619  11.152   5.233   3.386
74331W        W35620   7.193  27.464  13.892
74332W        W35621   6.281  33.622  13.317
74333W        W35622  31.983  26.581   3.185
74334W        W35623  44.951  18.250  14.325
74335W        W35624  31.935   5.713  11.449
74336W        W35625  27.092   1.916  14.276
74337W        W35626  12.208  34.472  13.378
74338W        W35627  26.481  32.452   2.856
74339W        W35628   4.273   6.873   4.141
74340W        W35629  42.384  24.720   1.443
74341W        W35630  26.569  44.951   3.242
74342W        W35631  24.085  27.608   0.480
74343W        W35632   0.385   5.860   1.844
74344W        W35633  14.822  35.475   1.289
74345W        W35634  27.115   9.314  13.332
74346W        W35635   6.191  12.815  10.938
74347W        W35636  31.646   7.773   1.295
74348W        W35637   2.772   7.750   3.834
74349W        W35638  41.870  40.930   0.290
74350W        W35639   3.238  19.550   1.408
74351W        W35640  16.727   6.817  13.320
74352W        W35641  17.600  25.598  11.540
74353W        W35642  42.792   5.748  12.997
74354W        W35643  43.492  21.048   3.665
74355W        W35644  34.053  27.010  14.832
74356W        W35645  34.409  15.142   1.707
74357W        W35646  13.686  40.478  11.012
74358W        W35647   5.377  31.005   1.745
74359W        W35648  27.578  12.141   2.737
74360W        W35649  28.074  37.873  12.076
74361W        W35650  33.044  42.016   0.842
74362W        W35651   8.363  39.431   1.857
74363W        W35652  21.620  15.212   2.879
74364W        W35653  18.195  39.858   0.309
74365W        W35654  16.798  42.791  10.949
74366W        W35655  32.610  24.690  14.490
74367W        W35656  10.369  20.538   3.349
74368W        W35657  31.913  13.834  12.924
74369W        W35658  21.651   3.356   4.758
74370W        W35659   9.357  23.016  14.780
74371W        W35660  19.084  32.918   0.814
74372W        W35661  44.285  37.062  12.843
74373W        W35662  23.017  43.878  10.965
74374W        W35663  40.547  30.149  11.953
74375W        W35664  33.583   3.362  13.897
74376W        W35665  35.478   5.342  11.533
74377W        W35666  26.161  25.203  11.373
74378W        W35667  32.410  33.933  14.425
74379W        W35668   1.244  32.964  11.941
74380W        W35669  38.883  10.242   2.886
74381W        W35670  21.260  19.654  13.520
74382W        W35671  36.372  18.101  12.945
74383W        W35672  39.995  16.191   3.310
74384W        W35673  41.934  16.570   5.293
74385W        W35674   8.896   0.881  12.022
74386W        W35675   7.689  27.981  10.977
74387W        W35676  34.541  26.646   1.442
74388W        W35677   9.381   0.307   5.099
74389W        W35678  13.693  19.198   0.291
74390W        W35679  29.625   3.709   0.946
74391W        W35680  41.987  26.142   1.698
74392W        W35681  44.987  15.202   2.216
74393W        W35682   0.391  33.936   2.711
74394W        W35683  44.840   5.717  11.093
74395W        W35684  30.960   8.387   5.231
74396W        W35685  29.536   1.788  13.053
74397W        W35686   1.269   2.315   0.426
74398W        W35687  30.104  38.430  11.435
74399W        W35688  41.892  43.417  11.479
74400W        W35689  20.197  38.349   0.304
74401W        W35690  41.507  41.024  14.327
74402W        W35691  14.685   6.681   3.226
74403W        W35692  24.217  21.671  13.519
74404W        W35693  27.603  33.105   1.920
74405W        W35694  44.965  43.005   2.765
74406W        W35695  21.164  32.615   3.277
74407W        W35696   7.777  44.906  11.408
74408W        W35697  42.821  22.998   3.856
74409W        W35698  32.019  32.026   0.432
74410W        W35699  38.937  10.857   4.795
74411W        W35700  35.565  12.678   3.162
74412W        W35701   5.332   0.427  11.599
74413W        W35702  38.499  42.017   0.829
74414W        W35703  43.923  44.351   2.828
74415W        W35704   1.773  27.993   0.481
74416W        W35705  37.507  21.073   3.838
74417W        W35706  16.592   1.432   3.687
74418W        W35707  22.044  31.600   0.282
74419W        W35708   0.743  44.406   3.272
74420W        W35709   2.804  31.996   4.776
74421W        W35710  18.672  39.811  14.873
74422W        W35711  43.500  32.896   3.694
74423W        W35712  24.612  27.092  14.302
74424W        W35713  43.852   6.412   3.673
74425W        W35714  36.586  36.523   3.160
74426W        W35715  36.006  37.069  14.461
74427W        W35716  34.898  11.166   0.895
74428W        W35717  14.657   6.300  14.800
74429W        W35718  17.072  27.941   3.828
74430W        W35719  17.661  39.321   3.842
74431W        W35720  20.214  42.367   1.269
74432W        W35721  33.608  35.401  10.511
74433W        W35722  44.886  30.594  12.988
74434W        W35723  14.747   2.390   2.330
74435W        W35724  35.028  19.582  11.115
74436W        W35725  25.009  28.518   4.612
74437W        W35726  35.459  28.140   0.341
74438W        W35727  13.282  24.159   3.650
74439W        W35728  35.979   4.927   1.905
74440W        W35729  20.648  19.130  10.619
74441W        W35730   8.241  12.742  10.410
74442W        W35731  16.079  14.104   3.282
74443W        W35732  42.469   0.270   0.741
74444W        W35733  15.750   3.245  10.952
74445W        W35734   9.758  37.425   1.212
74446W        W35735  33.030  42.446  12.090
74447W        W35736  18.579  22.643   5.152
74448W        W35737   5.834   2.898  13.955
74449W        W35738  29.974   2.355  12.404
74450W        W35739  15.689  12.771   2.368
74451W        W35740   8.403   4.390   2.771
74452W        W35741  31.903  10.318   2.330
74453W        W35742  35.453  26.582  11.906
74454W        W35743   0.400   8.293  11.927
74455W        W35744  11.345  19.625   0.826
74456W        W35745  34.079  33.892  12.883
74457W        W35746  36.033  37.567   2.298
74458W        W35747  26.630  44.411  13.345
74459W        W35748  16.223  38.000   1.398
74460W        W35749   7.416  16.774  11.019
74461W        W35750  23.691  11.202  10.491
74462W        W35751  12.612   2.372   0.944
74463W        W35752  17.788  22.141  11.975
74464W        W35753  13.152  24.123  12.537
74465W        W35754   6.356  25.597   1.712
74466W        W35755  35.960  15.236  12.487
74467W        W35756  29.475  30.001  10.491
74468W        W35757  15.777  31.976  10.130
74469W        W35758   6.737  12.296   0.796
74470W        W35759  35.457  10.364   2.311
74471W        W35760  16.619  30.589   2.250
74472W        W35761  28.086  23.062   5.583
74473W        W35762  13.802  40.531  14.789
74474W        W35763   9.388  25.059  12.005
74475W        W35764  20.691  32.439   1.337
74476W        W35765  25.518  43.400  14.362
74477W        W35766  11.654  27.166  11.918
74478W        W35767  20.038   2.839  12.375
74479W        W35768   1.294   2.282   2.399
74480W        W35769  15.609  18.667  12.835
74481W        W35770  14.259  14.199   2.351
74482W        W35771  25.580  30.482  13.030
74483W        W35772  32.483  35.026   4.240
74484W        W35773   4.358  14.711  10.949
74485W        W35774  36.970   7.855   0.362
74486W        W35775  32.956  16.161   0.280
74487W        W35776   5.381  10.806   1.720
74488W        W35777  37.021  31.535   2.180
74489W        W35778  16.206  24.617   2.721
74490W        W35779   6.253  20.273   1.286
74491W        W35780  25.675   8.721  12.025
74492W        W35781  15.224   8.824  11.078
74493W        W35782  21.567   4.433   0.754
74494W        W35783  39.368  24.075  11.105
74495W        W35784  11.698   0.359   0.731
74496W        W35785  36.398  21.159  11.909
74497W        W35786  39.375  40.995   3.184
74498W        W35787  40.344  35.913  12.880
74499W        W35788  17.098  43.799   1.819
74500W        W35789   0.371  35.430   2.208
74501W        W35790  28.662   9.334   2.251
74502W        W35791  12.618  21.130   5.247
74503W        W35792   8.836  30.085  14.456
74504W        W35793  23.672   7.276   1.696
74505W        W35794   2.401   7.232   4.169
74506W        W35795  25.692  37.933   1.223
74507W        W35796  14.107  22.058   0.368
74508W        W35797  36.040  13.707   4.166
74509W        W35798  26.530  21.584   2.782
74510W        W35799  21.073  22.188   0.957
74511W        W35800  37.039  14.288  11.058
74512W        W35801  43.440  30.505   2.852
74513W        W35802  27.547  13.205   3.164
74514W        W35803  10.757  24.170   3.813
74515W        W35804  25.125  23.080   0.927
74516W        W35805  19.646  39.836  10.976
74517W        W35806  19.677   5.783   4.191
74518W        W35807  20.689  19.613   3.867
74519W        W35808   6.866   1.283  11.992
74520W        W35809  17.669  35.987  12.523
74521W        W35810  38.420  10.162  10.435
74522W        W35811  27.603  10.646  14.311
74523W        W35812  23.095   0.790   3.817
74524W        W35813   3.231  44.832  10.898
74525W        W35814  38.070   3.955   4.631
74526W        W35815  13.220  32.094  10.118
74527W        W35816  15.309  44.271  12.021
74528W        W35817  23.152  36.023   1.878
74529W        W35818  38.995  32.056  12.487
74530W        W35819  36.841  39.000  14.906
74531W        W35820  21.227   2.828   1.706
74532W        W35821  18.781   7.672   4.707
74533W        W35822  28.558  11.861  13.818
74534W        W35823  34.582   2.897   2.260
74535W        W35824   4.422  34.605  11.595
74536W        W35825  43.771  12.118  13.037
74537W        W35826  25.163   5.306  13.905
74538W        W35827  10.348  26.128  12.951
74539W        W35828  30.616  34.090   4.337
74540W        W35829  22.208  39.346   2.350
74541W        W35830   8.373  37.907   1.213
74542W        W35831  32.590  14.105   0.802
74543W        W35832  39.401   0.423   4.669
74544W        W35833  22.239  29.960  13.456
74545W        W35834  14.202   6.838  10.644
74546W        W35835  43.817  26.619   2.815
74547W        W35836  34.438  21.134   2.779
74548W        W35837  10.866   5.717   3.265
74549W        W35838  18.560  19.695   3.829
74550W        W35839  10.848  30.067   2.853
74551W        W35840  38.071  42.527   0.372
74552W        W35841  19.556  21.228   4.644
74553W        W35842  24.550  15.760   1.221
74554W        W35843   8.854  10.232   4.299
74555W        W35844  44.425  25.180   2.179
74556W        W35845  26.525  17.283   1.736
74557W        W35846  15.623  33.558  11.942
74558W        W35847  17.764  20.538   9.938
74559W        W35848  28.583  26.185  10.549
74560W        W35849  29.044  32.990   4.189
74561W        W35850  29.155   2.245  11.997
74562W        W35851   9.267  37.410   3.743
74563W        W35852  40.826  31.909  10.452
74564W        W35853  18.749  31.616  13.394
74565W        W35854  18.154   0.869  13.537
74566W        W35855  37.378  12.204  14.482
74567W        W35856  10.753  14.833   4.216
74568W        W35857  26.098  39.018  14.420
74569W        W35858  41.945  17.116  10.521
74570W        W35859   6.388  28.662  10.029
74571W        W35860  12.189  13.683  11.120
74572W        W35861  23.220   9.690  12.367
74573W        W35862  13.611   7.302   3.198
74574W        W35863  27.591  24.227   3.159
74575W        W35864  34.406   3.860  11.908
74576W        W35865  34.015   4.873   0.735
74577W        W35866   7.357   9.225   0.738
74578W        W35867   8.406  33.100   1.411
74579W        W35868  21.674  18.081  14.488
74580W        W35869  36.380  11.863  13.433
74581W        W35870  14.123   2.329  10.425
74582W        W35871  14.591  24.162  11.554
74583W        W35872  20.714  26.484   1.298
74584W        W35873   7.405   7.858  13.962
74585W        W35874   6.409   1.388   2.875
74586W        W35875  16.153  27.985   2.687
74587W        W35876  25.696  15.113   0.444
74588W        W35877  11.855  18.180  13.338
74589W        W35878  26.030  30.952   4.139
74590W        W35879  41.518   2.406   3.225
74591W        W35880  15.330  33.559   0.473
74592W        W35881   1.404  34.532  13.843
74593W        W35882  11.726  20.067   0.388
74594W        W35883   2.798   9.182  14.388
74595W        W35884  26.559   7.908   4.135
74596W        W35885  29.038   7.342   4.326
74597W        W35886  15.084  17.302   0.381
74598W        W35887  36.051  24.030   4.154
74599W        W35888  25.171  44.307   5.190
74600W        W35889   1.810  16.205   2.891
74601W        W35890  18.200  44.892   4.654
74602W        W35891  38.831   3.854   4.326
74603W        W35892  36.359  30.991  10.584
74604W        W35893  11.246  21.711  12.514
74605W        W35894  33.108  44.500  13.800
74606W        W35895  25.012   7.297   4.194
74607W        W35896  13.803  37.883   3.167
74608W        W35897  24.718  16.315   0.325
74609W        W35898  23.641  21.518  12.038
74610W        W35899   7.768  43.380  10.458
74611W        W35900  23.995   9.862  12.538
74612W        W35901  28.065  11.372   1.412
74613W        W35902   9.865   4.846   2.330
74614W        W35903  27.689  12.333   2.306
74615W        W35904  24.975  35.600  13.053
74616W        W35905  44.464  13.727  11.089
74617W        W35906   8.755  41.449  14.867
74618W        W35907   1.834  17.137  12.854
74619W        W35908  25.156  16.102   2.903
74620W        W35909  16.119  12.852  13.400
74621W        W35910  26.572  43.467   2.310
74622W        W35911   2.379  22.738   0.793
74623W        W35912   3.889  39.959   4.316
74624W        W35913  37.507  43.338  12.358
74625W        W35914  43.504  40.435   1.222
74626W        W35915  30.432  38.046   2.346
74627W        W35916   9.784  40.940  14.444
74628W        W35917  43.495  36.440   0.304
74629W        W35918  32.134  17.700  13.908
74630W        W35919  43.895  11.261   4.284
74631W        W35920  24.152  23.616   3.818
74632W        W35921  37.412  15.315   1.441
74633W        W35922   3.910  21.753  11.023
74634W        W35923  14.099  42.422  14.450
74635W        W35924  26.521  37.348   5.303
74636W        W35925   4.778  21.129   1.277
74637W        W35926  31.406  42.925  13.944
74638W        W35927  44.376   7.381  14.337
74639W        W35928  33.523  13.182  13.546
74640W        W35929  39.025  37.027   2.179
74641W        W35930  39.333  40.824  12.420
74642W        W35931  23.052  21.210   3.184
74643W        W35932  42.487  28.611  11.516
74644W        W35933  24.484   5.797   4.776
74645W        W35934  37.392  44.857   4.651
74646W        W35935  27.487  34.999  12.054
74647W        W35936  23.994  34.414  11.894
74648W        W35937  23.033  33.541   4.761
74649W        W35938   5.434  34.867   2.277
74650W        W35939   0.973  14.175   9.955
74651W        W35940   5.296  42.284   3.342
74652W        W35941  42.793  11.716   5.649
74653W        W35942  21.523  21.545  14.407
74654W        W35943   8.666   5.825  14.836
74655W        W35944  35.076  22.222  10.983
74656W        W35945  16.097  39.968  13.317
74657W        W35946   0.262  43.843  11.960
74658W        W35947  15.296   4.449  14.451
74659W        W35948  23.217  17.701   3.377
74660W        W35949  28.179   4.741  14.400
74661W        W35950   9.185  34.078  12.910
74662W        W35951  20.574  23.682   3.332
74663W        W35952   7.751   8.393  11.554
74664W        W35953  42.462  13.774   0.396
74665W        W35954  23.718  19.779   2.852
74666W        W35955  23.698  31.612  14.437
74667W        W35956  35.855  12.194   4.678
74668W        W35957  17.594  34.415  14.363
74669W        W35958  39.490  37.472  12.031
74670W        W35959  34.430  11.771  11.063
74671W        W35960  35.382  22.176  11.896
74672W        W35961  20.066   9.815   0.282
74673W        W35962  29.009   5.729  11.568
74674W        W35963  19.585   4.868   0.764
74675W        W35964  15.175  15.092   2.266
74676W        W35965   8.335  11.751   1.908
74677W        W35966  29.436  19.130   1.761
74678W        W35967   5.317  33.406   4.146
74679W        W35968  41.295  36.845   0.454
74680W        W35969  19.103  19.749   4.701
74681W        W35970   3.724   7.874   4.196
74682W        W35971  34.115  26.013  10.408
74683W        W35972  30.651   5.720  11.485
74684W        W35973   0.759  35.979   4.815
74685W        W35974  40.485  43.788   1.710
74686W        W35975  11.276   3.419   4.725
74687W        W35976  25.159  18.763  14.024
74688W        W35977  43.407  43.384  13.877
74689W        W35978  28.550   3.761   0.285
74690W        W35979  33.948  42.922   1.798
74691W        W35980  34.917  24.051   5.194
74692W        W35981  12.686  43.488   3.256
74693W        W35982  19.102  16.792   4.140
74694W        W35983  31.918  35.512   4.164
74695W        W35984  13.117  21.194  13.535
74696W        W35985  24.988  10.633  11.071
74697W        W35986  29.144  14.714   3.241
74698W        W35987  35.509  34.546   1.745
74699W        W35988  21.714  31.028   3.791
74700W        W35989  10.633  38.939   2.245
74701W        W35990  14.810  18.570   3.168
74702W        W35991  30.522  39.830   3.826
74703W        W35992  34.453  30.948   2.865
74704W        W35993  27.982   4.897  12.908
74705W        W35994  36.855  16.592   4.194
74706W        W35995  35.011   6.747   1.377
74707W        W35996   3.815  41.537   2.385
74708W        W35997  40.311   3.357  12.090
74709W        W35998  24.184  42.304  12.578
74710W        W35999  15.159  14.278   3.180
74711W        W36000  24.160   2.461   4.231
74712W        W36001  17.777  26.194   3.290
74713W        W36002  26.168  12.852   2.851
74714W        W36003  18.122   8.217  10.457
74715W        W36004   7.178  25.662  14.998
74716W        W36005  16.273  18.239  11.507
74717W        W36006  42.015   1.291  13.316
74718W        W36007  34.871  27.455   4.141
74719W        W36008  17.634  31.108   4.753
74720W        W36009  19.607  44.377   3.306
74721W        W36010  31.938   3.391  11.502
74722W        W36011  39.944  29.447  13.900
74723W        W36012  10.210  32.397  11.904
74724W        W36013   3.830  40.953   2.210
74725W        W36014  34.493  21.562  13.017
74726W        W36015   2.307  14.757  14.503
74727W        W36016  30.931  33.018   0.404
74728W        W36017  14.226   2.321  11.947
74729W        W36018  44.423  20.658   2.226
74730W        W36019  19.225  24.516   4.117
74731W        W36020  24.054  12.255   4.299
74732W        W36021   2.853  13.225   2.815
74733W        W36022  43.450  12.706  12.383
74734W        W36023  25.649   1.816   2.814
74735W        W36024   4.368  30.138  12.041
74736W        W36025  14.604   9.700  14.945
74737W        W36026  26.587  15.769   2.274
74738W        W36027  23.514  29.174   3.360
74739W        W36028   7.342  12.251  12.872
74740W        W36029  24.675  27.192   4.329
74741W        W36030  38.884   9.701  11.907
74742W        W36031  26.136  32.473  10.999
74743W        W36032  41.382  26.098  14.278
74744W        W36033  35.012  34.022   4.790
74745W        W36034  31.113  28.585   3.161
74746W        W36035  13.213  24.666   0.342
74747W        W36036  26.106  26.466  10.544
74748W        W36037  44.504  30.931  12.417
74749W        W36038  17.298   9.189  12.362
74750W        W36039  31.944   7.287  14.402
74751W        W36040  44.291  22.015   2.400
74752W        W36041   6.810   4.438  12.833
74753W        W36042  36.012  21.540  14.914
74754W        W36043   8.735  38.433  12.456
74755W        W36044  40.872  14.726  10.565
74756W        W36045  26.026   7.817  13.332
74757W        W36046  36.474  40.020  10.513
74758W        W36047  12.813  36.981  14.370
74759W        W36048   6.918   5.820  11.052
74760W        W36049  25.706  30.131  12.879
74761W        W36050  24.556   7.378   2.290
74762W        W36051  32.060  37.931  10.956
74763W        W36052  24.046   1.857  10.627
74764W        W36053  16.791  13.200   0.275
74765W        W36054  24.569   0.747  12.967
74766W        W36055  32.419  15.253   0.886
74767W        W36056  27.528   4.395   3.860
74768W        W36057  43.483  30.574  12.047
74769W        W36058   4.306  16.148   3.823
74770W        W36059  41.802  29.991  12.343
74771W        W36060   4.243   9.388   1.417
74772W        W36061  32.395  20.762   0.918
74773W        W36062  21.126  16.299  10.455
74774W        W36063  31.060  33.486   2.387
74775W        W36064  13.669  12.729  13.536
74776W        W36065  26.040   3.421   4.699
74777W        W36066   3.908  28.963   0.246
74778W        W36067  23.606  38.057   4.776
74779W        W36068  23.560  20.691  13.014
74780W        W36069   6.225  39.015  14.331
74781W        W36070   5.784  21.151   0.341
74782W        W36071  17.199  13.620   1.326
74783W        W36072   3.844  24.148   5.199
74784W        W36073  19.144  43.812   0.867
74785W        W36074   9.768  28.680  10.981
74786W        W36075  37.496  23.106  12.927
74787W        W36076  29.445  22.676   3.285
74788W        W36077  11.321  40.363   3.830
74789W        W36078  36.860   4.713  11.944
74790W        W36079  22.564  14.651   4.204
74791W        W36080  22.612  41.419   9.939
74792W        W36081  31.151  14.122   1.389
74793W        W36082  32.468  37.455   2.697
74794W        W36083  38.560   7.672  12.404
74795W        W36084  24.162   3.781   2.676
74796W        W36085  39.976  12.235   4.258
74797W        W36086  19.733  15.805   1.801
74798W        W36087  23.189  12.778   1.923
74799W        W36088  25.997  15.692   9.921
74800W        W36089  39.329  17.623  11.864
74801W        W36090  37.928  33.457  13.936
74802W        W36091  15.677  23.170   1.728
74803W        W36092  28.651  23.132   3.380
74804W        W36093  36.056  25.126  11.935
74805W        W36094  19.741  32.398   2.230
74806W        W36095  37.574   1.327  10.622
74807W        W36096  20.186  40.446   9.969
74808W        W36097  43.348  13.610  11.560
74809W        W36098  40.826  33.476  13.897
74810W        W36099  36.971  43.959  12.505
74811W        W36100   0.767  36.589  12.071
74812W        W36101  17.618  14.108   3.685
74813W        W36102  28.030   5.393   3.745
74814W        W36103  28.579  17.258  14.412
74815W        W36104   2.746  37.571  13.395
74816W        W36105   5.226  34.968  12.005
74817W        W36106  41.362   3.234   2.391
74818W        W36107   1.409   7.257  13.025
74819W        W36108  37.077  19.635   0.774
74820W        W36109  18.570   7.173   0.373
74821W        W36110   3.830  34.392  10.064
74822W        W36111  26.665  19.187  13.391
74823W        W36112  23.559  21.096   1.729
74824W        W36113  43.955  20.671  14.990
74825W        W36114  20.525  31.509  13.917
74826W        W36115  16.578  43.800   3.720
74827W        W36116  36.921  32.028   2.744
74828W        W36117   1.254  24.075   0.743
74829W        W36118  26.208  11.789   4.734
74830W        W36119  42.021  32.986   0.944
74831W        W36120  41.456  17.747  14.876
74832W        W36121  42.485  10.264  11.873
74833W        W36122  11.798  25.583   0.834
74834W        W36123   2.957   1.455  10.414
74835W        W36124  30.541  13.626  12.344
74836W        W36125  18.617  18.668   4.134
74837W        W36126  16.193  35.593   3.187
74838W        W36127  24.648  17.602  10.575
74839W        W36128  43.900  31.543  12.342
74840W        W36129  26.192  25.062  14.495
74841W        W36130  29.536  19.074   4.748
74842W        W36131  21.257  29.564  14.302
74843W        W36132   0.307   5.196   4.283
74844W        W36133  32.452  35.867   3.762
74845W        W36134  23.569   2.301   0.262
74846W        W36135  34.496   0.444  10.506
74847W        W36136  10.261  29.151  13.875
74848W        W36137   4.926  42.842  12.580
74849W        W36138   3.274  10.685   0.782
74850W        W36139  30.464  26.472  10.957
74851W        W36140  22.664  43.878  14.505
74852W        W36141  12.689  17.650   2.242
74853W        W36142  37.954  11.135  14.822
74854W        W36143   4.721   5.698  14.482
74855W        W36144  41.474  10.208  13.980
74856W        W36145   1.272   4.731  13.897
74857W        W36146   8.209  37.894   2.302
74858W        W36147  30.511  36.004  10.504
74859W        W36148  22.655  17.162  14.938
74860W        W36149  22.689  28.988   2.884
74861W        W36150  42.512  13.122  13.902
74862W        W36151   2.772   5.247   1.333
74863W        W36152  34.021  25.481  12.538
74864W        W36153  36.523  38.347  10.904
74865W        W36154  30.138  43.841  12.962
74866W        W36155  10.743  35.863   4.133
74867W        W36156  34.878  37.502  12.391
74868W        W36157   2.902  25.188   4.830
74869W        W36158  32.939  21.671  11.425
74870W        W36159   8.283  43.375   3.846
74871W        W36160  16.117   2.809   0.368
74872W        W36161   5.254  32.952  14.895
74873W        W36162  22.612   1.745  13.952
74874W        W36163  32.576  28.132   3.206
74875W        W36164  40.935   3.828   2.186
74876W        W36165   8.835  40.799   2.697
74877W        W36166  36.528  14.324   5.280
74878W        W36167   2.960   2.353   0.280
74879W        W36168   3.920   1.764  11.895
74880W        W36169  27.540  23.728   4.342
74881W        W36170   9.312  29.441   3.333
74882W        W36171   3.767  34.370  13.958
74883W        W36172  18.271  37.839   4.775
74884W        W36173   3.281   8.281   0.427
74885W        W36174  32.399  10.169   1.263
74886W        W36175  38.935   6.825   4.790
74887W        W36176  20.610  35.016   1.355
74888W        W36177  28.098  23.107  12.485
74889W        W36178  39.942  20.721   5.198
74890W        W36179  25.508   5.708   1.717
74891W        W36180   8.660  29.525   3.743
74892W        W36181  31.001  22.085   2.765
74893W        W36182  24.516  42.814  12.029
74894W        W36183  32.054  12.266   1.761
74895W        W36184  37.056  20.189  12.855
74896W        W36185   1.449  33.089  14.343
74897W        W36186  28.130   7.290   0.321
74898W        W36187   2.312   8.268  14.814
74899W        W36188  38.441   3.327   4.152
74900W        W36189  12.334  20.558   3.648
74901W        W36190  30.142  39.315   2.221
74902W        W36191  34.452  18.121   2.261
74903W        W36192  43.427  38.382   1.747
74904W        W36193  39.354  37.860   3.325
74905W        W36194  32.066  33.939  10.492
74906W        W36195  32.554   9.657   3.263
74907W        W36196  36.421  43.809  12.378
74908W        W36197  35.876  43.864  14.903
74909W        W36198  44.498  28.170   3.286
74910W        W36199  37.871  11.681   4.606
74911W        W36200  17.301  29.646  13.411
74912W        W36201  41.886  25.114   3.240
74913W        W36202  43.893  22.718   2.400
74914W        W36203  23.050  21.200  14.924
74915W        W36204  36.378   6.791  14.329
74916W        W36205  12.726   7.906   1.324
74917W        W36206  10.333  28.039   3.273
74918W        W36207  14.249  30.149   1.929
74919W        W36208  19.236   2.767  13.977
74920W        W36209  22.579  28.043  11.563
74921W        W36210  38.530  22.085   4.291
74922W        W36211  19.714   6.392  13.912
74923W        W36212   6.263  39.055   5.286
74924W        W36213  33.502  11.221  13.866
74925W        W36214  11.360  30.439  12.525
74926W        W36215  27.051  26.113   1.929
74927W        W36216   0.881   2.776  12.379
74928W        W36217  32.090  20.597  12.070
74929W        W36218   7.406  22.546  14.785
74930W        W36219   6.183  36.425  13.412
74931W        W36220  33.481   9.755  14.506
74932W        W36221   1.478  41.896   3.655
74933W        W36222  35.420  34.468   0.310
74934W        W36223  11.729  40.007   2.411
74935W        W36224  38.361   2.456  12.828
74936W        W36225  22.223  16.111   1.765
74937W        W36226   8.800   8.234   1.767
74938W        W36227  35.546  39.817   3.730
74939W        W36228  38.492  30.973  11.977
74940W        W36229  41.846  42.918  13.439
74941W        W36230  32.552  18.758  11.954
74942W        W36231  19.753  40.976  12.542
74943W        W36232  28.649  28.584   2.861
74944W        W36233  11.832   6.359   1.374
74945W        W36234   3.365   1.771   3.356
74946W        W36235  10.153   7.725   2.805
74947W        W36236  27.673  11.803   1.711
74948W        W36237  10.275   6.900   0.283
74949W        W36238   0.861   8.710  11.092
74950W        W36239  23.216  37.039   3.230
74951W        W36240   6.413  17.618  13.978
74952W        W36241  35.996   3.407   2.782
74953W        W36242  14.335  37.045  11.973
74954W        W36243  12.316  44.764   3.148
74955W        W36244  17.075  28.554   1.262
74956W        W36245  20.194   2.730  14.951
74957W        W36246   0.382   0.801  13.031
74958W        W36247  18.216   6.838  12.448
74959W        W36248  40.393  25.509   3.158
74960W        W36249  34.477  24.670   4.274
74961W        W36250  16.757  43.973   4.127
74962W        W36251  34.564   6.259   0.823
74963W        W36252   3.809  18.100   0.420
74964W        W36253   7.825  24.568   1.368
74965W        W36254   4.833   6.362  11.409
74966W        W36255  11.169   2.949  10.425
74967W        W36256  26.689  30.614   0.812
74968W        W36257  28.525  38.916  11.541
74969W        W36258  22.065  11.866   3.803
74970W        W36259  38.547  34.421  13.461
74971W        W36260  42.342  20.159  12.058
74972W        W36261  18.645  17.253   2.204
74973W        W36262  30.647  23.176   3.384
74974W        W36263  20.542  36.440   0.435
74975W        W36264  41.916  39.500  10.984
74976W        W36265  23.134  38.379   1.298
74977W        W36266   9.357  26.957  11.919
74978W        W36267  35.886  15.276  14.489
74979W        W36268  18.230  15.674   0.948
74980W        W36269  44.820  29.039   0.393
74981W        W36270  35.989  25.504   4.751
74982W        W36271  23.075  44.262  10.972
74983W        W36272  39.397  41.989   2.816
74984W        W36273   9.351  13.137  13.480
74985W        W36274   8.783  30.100   2.775
74986W        W36275   6.280  34.605  12.360
74987W        W36276  13.657  29.163  13.500
74988W        W36277  38.523   4.843  12.048
74989W        W36278  24.213   3.311  12.048
74990W        W36279  29.959  35.890  10.973
74991W        W36280  20.665  37.930   3.159
74992W        W36281   2.797  23.636  14.302
74993W        W36282  41.864  32.119   1.233
74994W        W36283  30.012  43.995  10.520
74995W        W36284  11.712  13.625   2.245
74996W        W36285  34.424  17.628   0.751
74997W        W36286  22.675  26.102   0.777
74998W        W36287  41.538  33.958  12.460
74999W        W36288  44.371  14.628  14.885
75000W        W36289  15.615   6.748   0.904
75001W        W36290  34.391   7.409   2.248
75002W        W36291  22.572  10.274  12.086
75003W        W36292   9.864   3.286  14.412
75004W        W36293  28.019   3.891  12.974
75005W        W36294  42.940  24.120   0.776
75006W        W36295  15.186   7.754   0.353
75007W        W36296  25.606  29.100  11.499
75008W        W36297  15.266  31.018  13.409
75009W        W36298  43.353  26.681   3.317
75010W        W36299  32.585   3.894  12.991
75011W        W36300  23.101  35.908   3.801
75012W        W36301  44.978   3.876   2.739
75013W        W36302  35.521  26.476  14.851
75014W        W36303  33.877  29.129   4.133
75015W        W36304  13.324  13.834   1.437
75016W        W36305   8.164  25.617  13.819
75017W        W36306   0.311   1.811  13.403
75018W        W36307  14.642   1.920  11.052
75019W        W36308  41.459  23.555  11.590
75020W        W36309  19.774  20.737  12.983
75021W        W36310  11.663  24.504  13.905
75022W        W36311  12.709  32.493   5.615
75023W        W36312  22.641   7.191  13.410
75024W        W36313   8.748  26.049   0.815
75025W        W36314  28.436  24.050   2.690
75026W        W36315  35.058  39.430  14.439
75027W        W36316   7.245  14.213  11.013
75028W        W36317   0.911  14.188  14.813
75029W        W36318  33.082  30.102   1.913
75030W        W36319  42.860  29.550  11.010
75031W        W36320  14.203  16.122  12.440
75032W        W36321   3.794   3.308   5.186
75033W        W36322  22.570  34.888  13.960
75034W        W36323  20.670  30.996  10.907
75035W        W36324  40.447  19.622   1.360
75036W        W36325  13.218  28.528  11.951
75037W        W36326  39.397  19.232   1.262
75038W        W36327  29.001  11.729  14.780
75039W        W36328  25.696  30.105   0.443
75040W        W36329  19.544  41.418  14.324
75041W        W36330  19.684   9.375   2.754
75042W        W36331   0.946  39.452   1.791
75043W        W36332   4.788  23.540  13.959
75044W        W36333  24.104  13.829  13.972
75045W        W36334  42.788   7.893  11.452
75046W        W36335  22.665  41.356   5.167
75047W        W36336  33.032   2.879   3.204
75048W        W36337  14.734  39.822  13.428
75049W        W36338  36.463  19.559  10.960
75050W        W36339  38.933  23.593  14.783
75051W        W36340  11.143  22.180   3.322
75052W        W36341   5.701  32.520  12.057
75053W        W36342   0.322  18.575   4.308
75054W        W36343  21.072   9.190  13.831
75055W        W36344  15.151  18.562  10.941
75056W        W36345  43.879   6.299   0.821
75057W        W36346  44.990   0.824   3.691
75058W        W36347   0.339  27.510   3.639
75059W        W36348  41.506   3.309  10.993
75060W        W36349  39.059  42.921  14.922
75061W        W36350  30.155  22.039   2.357
75062W        W36351  36.001   4.927  13.378
75063W        W36352  21.236  43.442  14.771
75064W        W36353   0.925  12.716  12.503
75065W        W36354  13.764  38.850   2.732
75066W        W36355   4.926  21.026  14.902
75067W        W36356   5.409  13.154   1.339
75068W        W36357   5.353  32.585   4.206
75069W        W36358  10.763  22.056   0.928
75070W        W36359  35.904  35.961  13.930
75071W        W36360  12.208  43.362   0.276
75072W        W36361   1.973  30.991  11.056
75073W        W36362  44.841  11.621   4.206
75074W        W36363  17.713  25.215   3.768
75075W        W36364  22.162   9.672  10.983
75076W        W36365  16.720   2.342   0.950
75077W        W36366  22.200   3.738  10.600
75078W        W36367  32.583  22.538   3.852
75079W        W36368  27.627  23.572  14.926
75080W        W36369  19.248  39.053  12.885
75081W        W36370  20.599  13.825   1.418
75082W        W36371   1.321  23.102   2.259
75083W        W36372  32.981  15.144   3.335
75084W        W36373  39.441  44.771   4.836
75085W        W36374  16.144  43.463   3.688
75086W        W36375  25.040  32.033  14.901
75087W        W36376  13.243  40.474   4.188
75088W        W36377  35.070  25.147   2.270
75089W        W36378  40.834  19.039  11.523
75090W        W36379   9.211  11.207   3.776
75091W        W36380  37.922  25.536  11.570
75092W        W36381  39.461  34.982   4.763
75093W        W36382   0.898  42.498   0.768
75094W        W36383  42.357  27.632  13.916
75095W        W36384  42.952   7.906   1.366
75096W        W36385  24.494  11.164  12.343
75097W        W36386  33.125   3.763   3.868
75098W        W36387  30.113  26.649  13.324
75099W        W36388  17.571  31.569   1.302
75100W        W36389  34.041  21.653  12.987
75101W        W36390  15.262  34.990   3.298
75102W        W36391  33.964  12.270   3.735
75103W        W36392  31.513  27.142   0.963
75104W        W36393  27.025  23.513   2.290
75105W        W36394  30.918  34.100   1.739
75106W        W36395  32.913  29.510   4.751
75107W        W36396  26.960  37.077  12.859
75108W        W36397  10.675  18.174  11.122
75109W        W36398  38.840  31.421  14.357
75110W        W36399   2.335  23.095   1.326
75111W        W36400  13.241  34.894   1.740
75112W        W36401  19.116  42.395  12.530
75113W        W36402  31.901  44.340  12.888
75114W        W36403  11.312  11.710   3.797
75115W        W36404  23.562  15.208  14.934
75116W        W36405   3.789  34.398   3.856
75117W        W36406  12.313   5.415   2.722
75118W        W36407  43.450  23.646   3.185
75119W        W36408   7.368  19.202   1.704
75120W        W36409  43.452  23.608   4.679
75121W        W36410   8.810   5.359  11.560
75122W        W36411  11.659  24.230  11.595
75123W        W36412  18.108  26.534   0.937
75124W        W36413  37.861  37.872  13.514
75125W        W36414  13.738  31.583   0.299
75126W        W36415  16.687  29.444   0.865
75127W        W36416   9.848  14.289  11.074
75128W        W36417   4.333  14.210   2.201
75129W        W36418  34.929  24.056  14.319
75130W        W36419   1.920   3.804  14.882
75131W        W36420  18.776  41.384   9.935
75132W        W36421  42.306  30.024   1.921
75133W        W36422  35.979  30.440   4.697
75134W        W36423  39.418  24.564   2.285
75135W        W36424  22.091  21.590   1.824
75136W        W36425  15.237   5.814   1.720
75137W        W36426   5.887  14.206  12.978
75138W        W36427  35.107  32.037   1.902
75139W        W36428  44.914  39.321  12.898
75140W        W36429  27.987  30.640  11.435
75141W        W36430   6.422  41.406  10.941
75142W        W36431  12.310   0.880   1.776
75143W        W36432   8.817  13.829  11.974
75144W        W36433  34.596   8.814  12.999
75145W        W36434   7.727   2.898  11.068
75146W        W36435  34.897  35.952  13.424
75147W        W36436   5.698  28.642   0.819
75148W        W36437  12.844  28.077   3.634
75149W        W36438   0.880  25.587  14.410
75150W        W36439  20.205   1.272   1.426
75151W        W36440  30.140  23.537   3.689
75152W        W36441  44.999  26.540   4.348
75153W        W36442  12.621  31.595  12.441
75154W        W36443  12.141  13.669   4.666
75155W        W36444  21.758  29.062  11.931
75156W        W36445  37.433  36.523   5.310
75157W        W36446  40.387  24.723  14.914
75158W        W36447   6.409   4.754  13.427
75159W        W36448  32.018  15.610   1.430
75160W        W36449   4.282  37.442  13.876
75161W        W36450   8.828  27.467   1.782
75162W        W36451  37.978  26.056   3.319
75163W        W36452  20.615  19.257  11.393
75164W        W36453  22.204  40.356   4.788
75165W        W36454   8.783   7.196   4.837
75166W        W36455  11.278  40.453   2.897
75167W        W36456  36.914  24.181   1.342
75168W        W36457   2.352  39.337  13.332
75169W        W36458  37.541  10.383   3.820
75170W        W36459  26.084  39.439  12.064
75171W        W36460  11.364   8.188  14.399
75172W        W36461  18.096  37.014  14.409
75173W        W36462   1.298  30.613  11.867
75174W        W36463  26.074  27.513  12.897
75175W        W36464  41.894  20.647  13.915
75176W        W36465   7.754  36.531  12.937
75177W        W36466  35.894  35.577   1.249
75178W        W36467  40.046   0.795  11.008
75179W        W36468  38.042  14.731  14.847
75180W        W36469  15.682  27.979  11.606
75181W        W36470  19.158  11.858   1.421
75182W        W36471  42.859  44.383  12.400
75183W        W36472  42.959  21.583  11.971
75184W        W36473  18.223  28.444  10.447
75185W        W36474   2.426  42.303   1.281
75186W        W36475  25.107  42.371   1.278
75187W        W36476  18.748  42.894   9.949
75188W        W36477  38.878  29.456  14.435
75189W        W36478  10.715  33.073  12.933
75190W        W36479   3.324  17.189   2.872
75191W        W36480  14.798  21.522  12.483
75192W        W36481  42.473   8.177   3.662
75193W        W36482   9.225  43.303   3.249
75194W        W36483  21.743  40.349   1.916
75195W        W36484  43.016   3.265  14.028
75196W        W36485  32.083  20.216   1.778
75197W        W36486  43.855  28.021  12.887
75198W        W36487  42.873  42.510  13.022
75199W        W36488  28.665  27.556   0.364
75200W        W36489  39.026  16.760  14.458
75201W        W36490  42.008  37.073   3.706
75202W        W36491  44.490  18.209  14.408
75203W        W36492  31.963  39.899  10.131
75204W        W36493   5.335  22.625   2.294
75205W        W36494  37.983   4.416  13.344
75206W        W36495  33.483  19.202  11.963
75207W        W36496  43.450  30.976  11.109
75208W        W36497  11.243  24.695   4.749
75209W        W36498   2.786  28.951   1.862
75210W        W36499  12.662  10.366   0.798
75211W        W36500  33.102  39.316   4.297
75212W        W36501  19.673  17.263   2.301
75213W        W36502  22.192   4.240   0.470
75214W        W36503  37.042   2.729   4.755
75215W        W36504  20.742   3.890   4.829
75216W        W36505  32.136  23.560   2.272
75217W        W36506  12.220  42.968   1.868
75218W        W36507  38.967  34.482  10.097
75219W        W36508  32.982  19.186  14.289
75220W        W36509  31.125  31.912   3.839
75221W        W36510  10.186  12.764   2.353
75222W        W36511   0.273  35.581  13.346
75223W        W36512  27.672  23.213  13.512
75224W        W36513  15.214   3.411  12.066
75225W        W36514  15.819  42.025  12.991
75226W        W36515   5.808  17.760  11.983
75227W        W36516  36.571   3.767   3.802
75228W        W36517   6.914  15.254   2.211
75229W        W36518  40.546  23.221  12.880
75230W        W36519  37.483  28.100   4.815
75231W        W36520  35.031   4.369  11.599
75232W        W36521  31.051  43.311   0.246
75233W        W36522  19.540  22.535   3.644
75234W        W36523  22.593  36.988   0.781
75235W        W36524  40.047  20.157  14.816
75236W        W36525   5.204   6.803  12.524
75237W        W36526  29.512  39.484   3.717
75238W        W36527  10.367   3.851  12.929
75239W        W36528  31.061  40.323   0.328
75240W        W36529   6.837  31.056  11.008
75241W        W36530  41.959  24.640  13.532
75242W        W36531  11.632  43.781  13.817
75243W        W36532  33.380   8.161   4.651
75244W        W36533   1.335  43.400   1.910
75245W        W36534  15.123  43.347   1.818
75246W        W36535   9.660  43.424   1.826
75247W        W36536  40.920   0.964  12.910
75248W        W36537  20.226   2.940   1.294
75249W        W36538  24.995  13.602  13.354
75250W        W36539   5.354  33.571   2.739
75251W        W36540  30.081  11.272  13.359
75252W        W36541  35.555  25.555   4.597
75253W        W36542  24.022   3.419   4.832
75254W        W36543  23.672   4.816  11.902
75255W        W36544   5.854   5.750  12.412
75256W        W36545  20.610  22.568  12.952
75257W        W36546  15.758  42.384  12.506
75258W        W36547  39.319  25.128  13.060
75259W        W36548  37.025  43.308   1.242
75260W        W36549   9.855  23.201   9.473
75261W        W36550  43.995  32.511   2.349
75262W        W36551   3.422   7.769   4.180
75263W        W36552   3.432   0.283   2.891
75264W        W36553   3.734   0.415  11.966
75265W        W36554  29.648   6.698  13.358
75266W        W36555  12.646  22.526   4.266
75267W        W36556  14.796   3.807   3.244
75268W        W36557   0.449  16.283   3.209
75269W        W36558  44.892  13.831   2.785
75270W        W36559  21.669  31.469  14.291
75271W        W36560  39.920  32.631   4.804
75272W        W36561  19.757  32.946  14.501
75273W        W36562  44.850   2.921  13.446
75274W        W36563  13.267  22.547  11.083
75275W        W36564  30.922  29.975  11.472
75276W        W36565  15.752  33.612   2.373
75277W        W36566  33.607  33.916  13.478
75278W        W36567   5.748  18.774  11.406
75279W        W36568  17.286  12.288   1.770
75280W        W36569  43.414  14.167   4.272
75281W        W36570  19.727  24.982   2.376
75282W        W36571   6.896  20.161  13.991
75283W        W36572  44.420   6.300  12.075
75284W        W36573  25.659  34.097   0.825
75285W        W36574  13.708  32.472  13.908
75286W        W36575   6.245   8.820   3.819
75287W        W36576  39.478  40.539  10.912
75288W        W36577   6.327  44.839   3.185
75289W        W36578  26.108  27.450  12.421
75290W        W36579  19.182  27.688   3.739
75291W        W36580  29.501  18.138  12.839
75292W        W36581   8.845   4.316   0.274
75293W        W36582   7.786   3.397   2.258
75294W        W36583  35.431  24.021  13.887
75295W        W36584  32.936   5.713  14.902
75296W        W36585   0.468   2.772  13.311
75297W        W36586  38.947  15.306  11.606
75298W        W36587   7.738  35.511   9.612
75299W        W36588  12.768  44.460  13.037
75300W        W36589  22.514  26.977  13.466
75301W        W36590  28.144  26.699   4.612
75302W        W36591  24.214  20.655  10.487
75303W        W36592   6.910  23.517   3.844
75304W        W36593  14.663  34.977   0.942
75305W        W36594   0.258  24.989  10.404
75306W        W36595  34.434  21.165  10.482
75307W        W36596  35.418  23.667  14.873
75308W        W36597   1.834  19.283  14.331
75309W        W36598   5.721  20.128   3.640
75310W        W36599  21.066  41.868   5.116
75311W        W36600  34.374   5.308  14.295
75312W        W36601  25.218  15.298  11.100
75313W        W36602   3.719  20.157  14.289
75314W        W36603  29.058  28.168  12.543
75315W        W36604  36.089  32.548   1.711
75316W        W36605   2.819  23.062  13.513
75317W        W36606  13.273  43.453  11.919
75318W        W36607   6.737  21.198  14.823
75319W        W36608  20.202   6.422  10.912
75320W        W36609  10.262  41.808  13.897
75321W        W36610  25.481  37.416  13.026
75322W        W36611   4.863  10.732   3.321
75323W        W36612   8.754   9.304  11.918
75324W        W36613  16.787  32.045   4.257
75325W        W36614  17.070  15.179  10.005
75326W        W36615   8.369  28.040   3.277
75327W        W36616  29.114  16.195  13.942
75328W        W36617  30.436  35.106  14.831
75329W        W36618  21.617  39.507  12.938
75330W        W36619  35.382  35.872   1.304
75331W        W36620  34.962   6.300  13.853
75332W        W36621  33.536  23.517   4.758
75333W        W36622   6.869  23.621   2.304
75334W        W36623   9.771   1.424   0.915
75335W        W36624  43.875  36.440  11.024
75336W        W36625   1.839  13.719   4.220
75337W        W36626  39.411   8.279   0.922
75338W        W36627  27.501   6.896  10.928
75339W        W36628   8.357   8.772  14.807
75340W        W36629  38.851  31.430   2.276
75341W        W36630  10.868  12.294  12.071
75342W        W36631  36.378   1.747  11.944
75343W        W36632   3.867  20.111  10.514
75344W        W36633  30.004  14.669  11.607
75345W        W36634  13.302  38.444  10.121
75346W        W36635  44.845   0.924   1.721
75347W        W36636  41.906  16.201  11.529
75348W        W36637  26.181  14.127  14.871
75349W        W36638  11.799  30.523   2.882
75350W        W36639  33.893  22.591  10.957
75351W        W36640   3.364  41.528  13.490
75352W        W36641  10.764  31.504   4.279
75353W        W36642  10.329  30.065   1.844
75354W        W36643  18.565  33.886   0.452
75355W        W36644  26.073   8.268   1.704
75356W        W36645  29.170   9.252   2.676
75357W        W36646   3.363   3.717   0.786
75358W        W36647   1.977  10.177   4.144
75359W        W36648  35.423  26.586   3.819
75360W        W36649  16.215  15.180  12.094
75361W        W36650  27.081   3.775  11.968
75362W        W36651  42.940  15.632   0.405
75363W        W36652   1.446   3.752   0.324
75364W        W36653  32.396  26.188  11.575
75365W        W36654  35.911  40.398   0.908
75366W        W36655  40.330   5.876  11.525
75367W        W36656  13.766  20.740   3.280
75368W        W36657  35.578  19.234   0.941
75369W        W36658   0.892  10.341   4.274
75370W        W36659  36.430  31.524  14.424
75371W        W36660  37.455  35.967  13.858
75372W        W36661  12.323  38.824   1.895
75373W        W36662   9.836  17.704  11.456
75374W        W36663  18.085  10.730  13.007
75375W        W36664  44.313  13.115   1.854
75376W        W36665  22.236  29.993  13.959
75377W        W36666   5.803   2.406  13.407
75378W        W36667  19.721  40.033  10.541
75379W        W36668  11.698  14.315   1.444
75380W        W36669   4.925  32.976   4.836
75381W        W36670  24.565  21.236  10.125
75382W        W36671  19.043  37.874   0.389
75383W        W36672  14.646  17.566   1.816
75384W        W36673  38.439  13.759  13.053
75385W        W36674  40.522  27.642  13.495
75386W        W36675  34.063  41.348  12.057
75387W        W36676  10.746  20.655   3.691
75388W        W36677  37.085   0.949   1.421
75389W        W36678  17.597  26.470   3.328
75390W        W36679   0.926  20.588   0.269
75391W        W36680   8.679  35.948  13.413
75392W        W36681  29.480   0.437   0.412
75393W        W36682  13.782   3.916  12.387
75394W        W36683   0.847  41.490  13.342
75395W        W36684   1.428  10.651  14.014
75396W        W36685  13.285   9.166  10.956
75397W        W36686  32.060  21.207   2.312
75398W        W36687  44.478  13.731   3.669
75399W        W36688  33.462  13.297   4.259
75400W        W36689  15.085  24.563  13.064
75401W        W36690  16.710  12.720   2.664
75402W        W36691  36.364  19.542   0.742
75403W        W36692  32.546   4.440   4.302
75404W        W36693  10.788  20.712  12.977
75405W        W36694  31.016  25.570   2.814
75406W        W36695   7.252  23.567   1.337
75407W        W36696  20.744  42.345  14.501
75408W        W36697  32.569  32.391   0.765
75409W        W36698  18.603   4.878   2.204
75410W        W36699  13.763  27.597  11.897
75411W        W36700  40.880   8.695   9.607
75412W        W36701   2.782   1.956   4.714
75413W        W36702  22.535   3.830  13.866
75414W        W36703  12.808   6.718   0.342
75415W        W36704  31.933  36.917   1.251
75416W        W36705  12.274  19.214  12.468
75417W        W36706  19.228  19.697  14.416
75418W        W36707   7.798  14.646   3.153
75419W        W36708  28.591  28.473  12.903
75420W        W36709  25.493  37.056   1.920
75421W        W36710  34.115  38.548   0.274
75422W        W36711  39.476   7.405   2.223
75423W        W36712  27.052  26.559  12.405
75424W        W36713  25.571  35.546  12.445
75425W        W36714  24.627  32.064   1.745
75426W        W36715  35.070  10.764  14.873
75427W        W36716   3.376  27.038   2.292
75428W        W36717  12.735  35.434   3.189
75429W        W36718  41.504  28.930   2.849
75430W        W36719   7.870   0.775   1.281
75431W        W36720  42.979  18.615  11.609
75432W        W36721   5.865  11.304   1.334
75433W        W36722  20.586  27.003  13.536
75434W        W36723  23.512  44.491  14.336
75435W        W36724   9.216  39.395   3.698
75436W        W36725   7.232   0.362   4.712
75437W        W36726  11.791   2.833  13.948
75438W        W36727  37.458  15.242   4.747
75439W        W36728   9.204   7.818  13.966
75440W        W36729  26.105  24.096   3.173
75441W        W36730   5.332  26.031   4.265
75442W        W36731  23.043  26.036   2.338
75443W        W36732  44.326   8.876   5.785
75444W        W36733  41.830  17.217  14.801
75445W        W36734   4.792   3.383  10.034
75446W        W36735  18.194  38.990   1.837
75447W        W36736   0.295  28.137   2.840
75448W        W36737  33.391  10.328  12.891
75449W        W36738  43.431  21.740  10.911
75450W        W36739  35.973  19.186  14.296
75451W        W36740   4.225  20.638   2.268
75452W        W36741   6.359  41.026  10.948
75453W        W36742  30.495  36.995   0.769
75454W        W36743  40.054  25.042   0.851
75455W        W36744  32.903  44.932   3.280
75456W        W36745  32.428  44.494   0.346
75457W        W36746  32.901  34.964   2.733
75458W        W36747  16.750   9.384   0.883
75459W        W36748  27.110  24.061  12.358
75460W        W36749   3.448  35.926   4.132
75461W        W36750   6.223   2.825  10.503
75462W        W36751  23.572  38.934  14.016
75463W        W36752  38.447  14.319   1.316
75464W        W36753  27.505  14.272  11.931
75465W        W36754   8.251   9.394   1.717
75466W        W36755  16.672   3.398   4.762
75467W        W36756  41.506  17.294  10.441
75468W        W36757  38.838  18.726   5.587
75469W        W36758  39.467  21.235   3.782
75470W        W36759  40.045  11.723  14.378
75471W        W36760  42.914  20.652  12.525
75472W        W36761   3.784  25.618  12.930
75473W        W36762  29.146  26.969   3.232
75474W        W36763  36.076   3.766  12.541
75475W        W36764  20.056   5.890   2.332
75476W        W36765   5.802  33.889   4.298
75477W        W36766  22.150  17.174  14.969
75478W        W36767   2.827   7.200  11.574
75479W        W36768  28.484   3.866   0.902
75480W        W36769  32.897  25.064  11.411
75481W        W36770  23.209   7.806   1.744
75482W        W36771   5.934  40.493   3.343
75483W        W36772  31.459  36.964   2.679
75484W        W36773  41.333   9.266   3.792
75485W        W36774  17.793  16.672   2.793
75486W        W36775  16.704  42.836  13.898
75487W        W36776  18.236  43.306  13.454
75488W        W36777   1.792  18.198  12.346
75489W        W36778  33.052  34.111   2.381
75490W        W36779  17.249  38.980  13.964
75491W        W36780  44.496   6.909   3.666
75492W        W36781  31.095  22.016   4.677
75493W        W36782  16.695   6.183   2.393
75494W        W36783  37.467  43.847  14.846
75495W        W36784  30.544  15.210  14.474
75496W        W36785  27.115  41.420   5.099
75497W        W36786  28.119  29.988  12.480
75498W        W36787  30.992  41.926  14.456
75499W        W36788  10.290  20.096   0.308
75500W        W36789  16.591  43.347   2.404
75501W        W36790  21.616   0.266  14.355
75502W        W36791  32.137  26.952  11.577
75503W        W36792  43.992  25.482  13.052
75504W        W36793  42.366  14.211   5.288
75505W        W36794  11.317   5.810   1.238
75506W        W36795  10.736  41.967  12.065
75507W        W36796  27.052  13.312   4.786
75508W        W36797  25.988  34.534   0.425
75509W        W36798   5.364  31.518  13.428
75510W        W36799   8.279  16.174   3.330
75511W        W36800  23.528  37.477   4.724
75512W        W36801  20.218  27.635  12.850
75513W        W36802  11.308  23.130   4.323
75514W        W36803   2.296  28.542  13.352
75515W        W36804  25.482  10.835   4.781
75516W        W36805  40.485  40.809   1.250
75517W        W36806   6.885  16.134  12.558
75518W        W36807  34.550  26.013   3.790
75519W        W36808  19.265   0.960  12.977
75520W        W36809  11.131  19.277  14.975
75521W        W36810  14.199   6.692  13.463
75522W        W36811   2.324  36.939  11.906
75523W        W36812  35.413  26.177  13.824
75524W        W36813  14.767  24.554   1.389
75525W        W36814  13.846  24.195   1.254
75526W        W36815   7.237  38.411  14.800
75527W        W36816  21.526   5.727   3.190
75528W        W36817  22.627  40.331  14.026
75529W        W36818  40.434  42.457   3.832
75530W        W36819   7.777  19.283   3.871
75531W        W36820  38.959  32.007  13.892
75532W        W36821  36.418   9.246   1.320
75533W        W36822  34.919  30.061  12.555
75534W        W36823  44.875  37.931   1.756
75535W        W36824  37.059  28.150  12.963
75536W        W36825   7.403   0.353  12.539
75537W        W36826   2.921  12.154  13.359
75538W        W36827  16.698   7.734  13.351
75539W        W36828  11.691  20.034   2.772
75540W        W36829  13.332  21.060  12.060
75541W        W36830  10.225  38.858   0.928
75542W        W36831   5.326  18.274  11.904
75543W        W36832  33.483  44.309  11.113
75544W        W36833  41.514  17.682   1.714
75545W        W36834  28.461  19.646  13.337
75546W        W36835   6.351   3.923   2.363
75547W        W36836  39.848  33.903  11.963
75548W        W36837  33.073  34.978  13.797
75549W        W36838  18.761  10.159  14.308
75550W        W36839  18.771  31.115   2.805
75551W        W36840   8.357   7.179  14.883
75552W        W36841   9.160  25.005   3.806
75553W        W36842  29.035  26.537  11.529
75554W        W36843  30.569  14.095  11.395
75555W        W36844   4.740  26.200   3.649
75556W        W36845  11.350  37.009   5.083
75557W        W36846  17.277   0.949  14.787
75558W        W36847  41.793   1.267  11.095
75559W        W36848  23.205  39.874  12.064
75560W        W36849   6.231  33.475   5.124
75561W        W36850  11.144  29.008  10.627
75562W        W36851  29.440  34.112   2.335
75563W        W36852  44.389  39.854   3.336
75564W        W36853  36.944  40.426  11.568
75565W        W36854  42.512  23.000  14.823
75566W        W36855  34.585   2.460  11.371
75567W        W36856  18.098  36.906  13.534
75568W        W36857  18.788  37.895  10.439
75569W        W36858  42.817  37.024   0.321
75570W        W36859  38.383  34.445   0.745
75571W        W36860  32.027  37.873   0.291
75572W        W36861  40.920  30.974  12.917
75573W        W36862  42.861  40.357  12.432
75574W        W36863  21.180  41.022   4.714
75575W        W36864   9.850  24.515   3.292
75576W        W36865  36.432   5.879   2.814
75577W        W36866  33.050  22.613  11.894
75578W        W36867   3.451  14.789   1.219
75579W        W36868  17.193   3.227  10.946
75580W        W36869  13.276   2.419   0.747
75581W        W36870  35.572  10.686   2.854
75582W        W36871  38.994  23.576  11.088
75583W        W36872   5.282  44.769   1.329
75584W        W36873  10.361  16.089   1.793
75585W        W36874  21.158  12.143  14.763
75586W        W36875  41.901  10.767   5.162
75587W        W36876   4.355  17.584  12.472
75588W        W36877  44.992   3.828  12.954
75589W        W36878  32.113  15.198   1.758
75590W        W36879  19.194  14.139   0.749
75591W        W36880   5.803  27.675   2.786
75592W        W36881   5.911  20.117   4.808
75593W        W36882  39.329   5.292   0.401
75594W        W36883  27.600   9.695   0.907
75595W        W36884   8.405  22.545  13.026
75596W        W36885  16.712  31.587  13.802
75597W        W36886  10.151  43.299   3.690
75598W        W36887  12.618  31.519   4.610
75599W        W36888   6.880  38.052   3.720
75600W        W36889  15.171  20.080   4.795
75601W        W36890  21.576  28.674   2.306
75602W        W36891   1.238  42.963  13.054
75603W        W36892  20.729  10.639   3.350
75604W        W36893  38.408  40.320  13.335
75605W        W36894   3.457   1.346  10.624
75606W        W36895  40.852  23.157  12.374
75607W        W36896  12.856  19.193   1.212
75608W        W36897  27.142  40.981  12.033
75609W        W36898   1.439  34.386   1.702
75610W        W36899   1.815   7.321   1.889
75611W        W36900   7.851  44.877  14.776
75612W        W36901   3.864  27.182  10.993
75613W        W36902  19.736  13.283  13.350
75614W        W36903  19.710   0.422  11.039
75615W        W36904  22.667  16.584   3.843
75616W        W36905  11.790   1.808  13.351
75617W        W36906  37.357  31.584   3.163
75618W        W36907  18.601  39.989   4.609
75619W        W36908  31.052  41.454   3.386
75620W        W36909  18.291   7.192   3.241
75621W        W36910  11.670   8.723   4.624
75622W        W36911  20.038  29.063   5.243
75623W        W36912  42.798  40.846   1.876
75624W        W36913  26.135   3.223   3.835
75625W        W36914  44.432  29.502   0.245
75626W        W36915   2.295  19.710  12.355
75627W        W36916  34.383  26.634  11.992
75628W        W36917  21.555   9.257  12.385
75629W        W36918  16.803   1.277  12.045
75630W        W36919  23.108  33.058   2.296
75631W        W36920  33.944  36.010   1.882
75632W        W36921  30.919   2.332   2.314
75633W        W36922  41.820  12.618   3.148
75634W        W36923  13.310  14.656  10.635
75635W        W36924  39.386  20.101  14.313
75636W        W36925  20.658  42.322  12.430
75637W        W36926  25.556  22.629   0.827
75638W        W36927   3.231  29.491   3.209
75639W        W36928  23.023  10.272  14.483
75640W        W36929  41.358   0.938  10.546
75641W        W36930  37.461  38.045   4.166
75642W        W36931  14.215  17.649  11.598
75643W        W36932  17.726  22.242   2.199
75644W        W36933  10.744  21.245   2.665
75645W        W36934  27.029  40.515  11.885
75646W        W36935  26.203  33.446  10.412
75647W        W36936   4.282  22.694   2.810
75648W        W36937  38.404  27.108  13.471
75649W        W36938  29.561   3.359  12.844
75650W        W36939  32.393   3.397   5.129
75651W        W36940  38.474  12.616   3.863
75652W        W36941  40.892   3.939   1.921
75653W        W36942  20.669  19.155   1.423
75654W        W36943  41.326  35.100   2.323
75655W        W36944  30.085   8.822   4.353
75656W        W36945  41.023  35.592  11.481
75657W        W36946  41.395   4.311  12.516
75658W        W36947   1.965  33.931   2.686
75659W        W36948  22.078  27.007   1.932
75660W        W36949  10.308   4.879  11.932
75661W        W36950   2.392   7.236   3.761
75662W        W36951  29.556  27.968   1.798
75663W        W36952   8.388  10.307   0.868
75664W        W36953  14.110   4.787   2.217
75665W        W36954   7.255  33.614   0.303
75666W        W36955  33.502  26.971   2.221
75667W        W36956   2.395  15.664   2.340
75668W        W36957   9.159   0.414   3.717
75669W        W36958  36.478   9.324   3.248
75670W        W36959  42.901  22.191   0.449
75671W        W36960  35.978  29.455   5.100
75672W        W36961  14.253   9.382  14.955
75673W        W36962  29.141  39.896   1.217
75674W        W36963  38.038  37.960  11.489
75675W        W36964  41.384   3.760  12.893
75676W        W36965  15.209  29.509  11.968
75677W        W36966  35.877  17.256  14.392
75678W        W36967  28.630   5.320  12.058
75679W        W36968   1.419  42.324  12.428
75680W        W36969  17.718  41.448   0.376
75681W        W36970  21.690   9.224   3.706
75682W        W36971   7.768   0.459  13.007
75683W        W36972  24.973  38.390  13.308
75684W        W36973   6.882  34.104  11.542
75685W        W36974  19.078  44.448  14.979
75686W        W36975  16.141  40.475   4.647
75687W        W36976   5.220  28.519  14.929
75688W        W36977  30.069  29.002  13.901
75689W        W36978  37.012  14.732  12.395
75690W        W36979   5.763  25.686  14.846
75691W        W36980  21.674   9.246  10.904
75692W        W36981  42.978   9.832   3.186
75693W        W36982  20.696  42.363   3.320
75694W        W36983  20.667  22.705   1.820
75695W        W36984  41.537  26.019   4.229
75696W        W36985  43.301  43.282  14.900
75697W        W36986  44.301  43.847   0.895
75698W        W36987  31.932  15.757   1.716
75699W        W36988  28.057  44.323  11.573
75700W        W36989   3.227  16.600   2.881
75701W        W36990  40.928  19.593  13.945
75702W        W36991  20.546  33.625   1.903
75703W        W36992  21.083  12.301  10.952
75704W        W36993  39.949  41.370   2.722
75705W        W36994  25.029  21.076   3.285
75706W        W36995  33.414  40.531  11.487
75707W        W36996  31.089   6.787   4.207
75708W        W36997  21.538   2.721   0.374
75709W        W36998  27.944   1.481   3.762
75710W        W36999  13.632   5.436  11.527
75711W        W37000  15.298  10.169  13.921
75712W        W37001  40.441  17.300   1.429
75713W        W37002  16.302  11.772   3.192
75714W        W37003  28.474  31.944  12.837
75715W        W37004   5.318  39.923   4.284
75716W        W37005  10.850  19.074  12.077
75717W        W37006  37.947   3.820   4.246
75718W        W37007  29.643  42.885   0.415
75719W        W37008  24.123  14.712  11.464
75720W        W37009   8.218  18.282  13.039
75721W        W37010  17.790  29.175   2.797
75722W        W37011  20.649  44.795  10.456
75723W        W37012  15.614   3.427   1.214
75724W        W37013  22.730  17.722  10.496
75725W        W37014  44.779  10.332  10.104
75726W        W37015  32.617  18.164  11.418
75727W        W37016  29.563  12.638  13.919
75728W        W37017   0.403   2.316   1.311
75729W        W37018  18.297  31.582  13.419
75730W        W37019  42.355  24.135  14.971
75731W        W37020  14.752  36.912   2.204
75732W        W37021  38.950  28.635   0.464
75733W        W37022  18.278  34.039   1.820
75734W        W37023  24.590  34.970   0.935
75735W        W37024  19.758  34.388  14.924
75736W        W37025  22.239  43.510  13.489
75737W        W37026   5.220   3.330   5.141
75738W        W37027   7.282  11.780   2.699
75739W        W37028  24.002  37.423   9.984
75740W        W37029  38.823  32.046  13.347
75741W        W37030  25.993   7.705   3.646
75742W        W37031  11.170   0.367   3.176
75743W        W37032  18.767  42.356  13.888
75744W        W37033  14.182  38.519  14.466
75745W        W37034   8.870  33.549  14.390
75746W        W37035  38.864   1.944  12.824
75747W        W37036  27.461  19.701   3.212
75748W        W37037   1.294  31.532   1.393
75749W        W37038  25.020  32.049   0.742
75750W        W37039  39.498   3.291   1.241
75751W        W37040  40.952   8.319  12.578
75752W        W37041   3.324   9.228   4.790
75753W        W37042  44.967  25.696   2.368
75754W        W37043  18.586  26.463  10.559
75755W        W37044  17.275   2.271  13.895
75756W        W37045  39.827  21.121  14.927
75757W        W37046  12.757   8.745   1.349
75758W        W37047  12.339  32.078   1.252
75759W        W37048   0.262   2.833  14.354
75760W        W37049   1.974  42.782  13.017
75761W        W37050  44.899  41.932  13.012
75762W        W37051  31.111  41.934  14.952
75763W        W37052   3.832   4.921  12.379
75764W        W37053  34.442  21.516  12.499
75765W        W37054  22.658  42.442   3.867
75766W        W37055  15.179   1.889  14.388
75767W        W37056  15.729  24.062   0.902
75768W        W37057   0.451  19.237  10.440
75769W        W37058  44.776  33.096  14.897
75770W        W37059  29.066   4.781   4.798
75771W        W37060  25.681  21.522  14.968
75772W        W37061  12.659   2.229   4.288
75773W        W37062  30.554  21.212   0.451
75774W        W37063  32.520  31.119  14.988
75775W        W37064  41.472  39.543  11.480
75776W        W37065  27.457   7.232  12.866
75777W        W37066   3.439   2.437   3.322
75778W        W37067  26.074  39.920   1.829
75779W        W37068  40.530  43.291   0.308
75780W        W37069  30.041  35.603  14.336
75781W        W37070  11.739  28.938   4.660
75782W        W37071  15.303  25.008  13.531
75783W        W37072  29.130  43.812  11.416
75784W        W37073  24.013  12.676   4.283
75785W        W37074  36.473  22.194   3.823
75786W        W37075  32.886   2.462  12.984
75787W        W37076   0.890   3.305   2.701
75788W        W37077  39.529  25.495  14.299
75789W        W37078   2.930   6.914   4.637
75790W        W37079  40.373  44.940  10.894
75791W        W37080  44.862   5.876   2.276
75792W        W37081  32.061  34.430  13.904
75793W        W37082  34.391   1.345   3.824
75794W        W37083  20.170  22.149  12.358
75795W        W37084  12.627  44.402  14.015
75796W        W37085  37.337  24.643   2.406
75797W        W37086  17.260  30.979   3.286
75798W        W37087  31.502  27.585  12.556
75799W        W37088  28.441   9.829   1.852
75800W        W37089  26.526   1.745  12.410
75801W        W37090   5.392  11.715   0.942
75802W        W37091  33.997   0.405  13.518
75803W        W37092   8.161  33.585   0.483
75804W        W37093   6.194  22.066   1.310
75805W        W37094  39.495  32.092   0.347
75806W        W37095  42.362   2.831   3.812
75807W        W37096  35.916  12.837   2.759
75808W        W37097   2.447  28.155  11.547
75809W        W37098   3.246  29.133   2.807
75810W        W37099   0.340  13.603   2.777
75811W        W37100  38.024  26.027  10.445
75812W        W37101  30.645  15.235   2.892
75813W        W37102   1.871  18.237   1.880
75814W        W37103  18.168  13.752  11.060
75815W        W37104  36.059  32.489   2.783
75816W        W37105   0.414  44.407   2.384
75817W        W37106  31.491  32.063   9.925
75818W        W37107  21.047  30.503  10.619
75819W        W37108  29.167  43.406  14.404
75820W        W37109   5.762  16.301  12.555
75821W        W37110  26.617  33.599  10.919
75822W        W37111  32.143  40.461  11.496
75823W        W37112  13.749  34.049   3.726
75824W        W37113  39.374   4.330  14.775
75825W        W37114  23.527   3.764  10.461
75826W        W37115  13.137  39.959   2.319
75827W        W37116   9.787  36.440  14.347
75828W        W37117   7.709  26.524   3.854
75829W        W37118  27.008  14.739  14.396
75830W        W37119  17.207  15.092  13.490
75831W        W37120   6.371  10.803   2.859
75832W        W37121  13.714   6.372   0.864
75833W        W37122   5.721  22.511   9.605
75834W        W37123  11.190  24.991   4.810
75835W        W37124   9.875  32.121   2.191
75836W        W37125   1.468  36.087   2.347
75837W        W37126  15.091  10.729  14.333
75838W        W37127  33.891  36.989   0.921
75839W        W37128  25.604  17.629   2.812
75840W        W37129  16.582  42.453  11.028
75841W        W37130  30.455  35.916   4.646
75842W        W37131   5.422   0.261   0.484
75843W        W37132  12.690  44.410   0.817
75844W        W37133  31.454  38.863   3.217
75845W        W37134  42.451  38.056   3.302
75846W        W37135   4.815  16.124   4.812
75847W        W37136  25.660  25.594   0.378
75848W        W37137  13.742  28.468   1.358
75849W        W37138  22.576  42.380  10.624
75850W        W37139  34.918  14.176  12.484
75851W        W37140  26.012   4.389   0.347
75852W        W37141  24.569  28.555  14.414
75853W        W37142  16.744  11.736  12.533
75854W        W37143  19.533   2.282   5.322
75855W        W37144  28.967   8.325  12.492
75856W        W37145  43.009  18.057  12.481
75857W        W37146  27.170  21.182   3.176
75858W        W37147  16.640  12.733   0.244
75859W        W37148  27.996  34.057   1.232
75860W        W37149  44.452  36.405  10.898
75861W        W37150  14.107  16.631  13.490
75862W        W37151  14.745   4.317   4.154
75863W        W37152  15.220  24.523  13.938
75864W        W37153  11.203  16.733   3.815
75865W        W37154   4.281  41.848  13.024
75866W        W37155  34.524  25.096  12.406
75867W        W37156   6.217   7.819  14.506
75868W        W37157   4.873  11.799   2.683
75869W        W37158  43.420  25.146  11.088
75870W        W37159  35.929   6.697  11.119
75871W        W37160  13.334  27.634  11.913
75872W        W37161  34.005  29.434   2.415
75873W        W37162   5.344  10.347   1.826
75874W        W37163  23.600  34.556   3.148
75875W        W37164   7.764  19.670   0.739
75876W        W37165  33.404   2.722  12.095
75877W        W37166  24.607  14.657   0.403
75878W        W37167  21.141  16.136  13.370
75879W        W37168  44.269  14.590  10.489
75880W        W37169  32.631  27.535  11.953
75881W        W37170  25.074  38.528  13.912
75882W        W37171   5.325  36.350  12.932
75883W        W37172  13.247   9.714  12.022
75884W        W37173  43.354   3.717  13.483
75885W        W37174  38.887  17.757   5.218
75886W        W37175  41.027   9.283   4.198
75887W        W37176  17.729  39.826   2.403
75888W        W37177  32.410  23.707   0.479
75889W        W37178  34.936  10.634   1.309
75890W        W37179  29.157  18.138   4.133
75891W        W37180  38.884  30.561   0.930
75892W        W37181  34.883  19.548   4.703
75893W        W37182  15.780  15.728  10.887
75894W        W37183  32.088  29.076   4.737
75895W        W37184  36.912  14.808  13.479
75896W        W37185  13.649  37.043  11.562
75897W        W37186  23.619  34.400  10.898
75898W        W37187   3.746  13.735   3.335
75899W        W37188  16.676  15.127  12.447
75900W        W37189   0.278   1.257   2.180
75901W        W37190   3.249  28.047   4.247
75902W        W37191  33.405  33.588   5.267
75903W        W37192  30.472  39.003   1.803
75904W        W37193   2.425  16.096   3.218
75905W        W37194   1.338  42.392  14.449
75906W        W37195   9.247   4.747  13.021
75907W        W37196   5.687  21.743   5.586
75908W        W37197  27.121  28.670  14.828
75909W        W37198  23.732  26.654   3.723
75910W        W37199  16.789  17.245  13.791
75911W        W37200  31.605  13.819  11.520
75912W        W37201  14.629  30.650   2.749
75913W        W37202   9.161  43.467   0.325
75914W        W37203   5.319  43.484  13.887
75915W        W37204  12.700  32.592  11.908
75916W        W37205  38.942  34.992   2.205
75917W        W37206   0.772  10.363  12.446
75918W        W37207   4.717  28.530  14.335
75919W        W37208   3.905  38.538   3.841
75920W        W37209  38.955  20.164   0.868
75921W        W37210  41.415  41.990  12.005
75922W        W37211   2.801  39.825   4.335
75923W        W37212  23.206  18.195  10.550
75924W        W37213  24.178   9.660  10.072
75925W        W37214  31.970  27.948   0.958
75926W        W37215  24.082  13.817   2.303
75927W        W37216  25.558  25.201   1.704
75928W        W37217  23.510  42.354   3.302
75929W        W37218  27.045  15.224   1.779
75930W        W37219  11.293   1.946   0.927
75931W        W37220  13.340  21.520  14.972
75932W        W37221  14.098  13.266   4.698
75933W        W37222  10.687   5.204   2.749
75934W        W37223  32.084  28.079   1.694
75935W        W37224  42.310   3.453  11.544
75936W        W37225  33.029  30.460   4.689
75937W        W37226  12.319  43.344  13.886
75938W        W37227   2.386  40.950   2.310
75939W        W37228   3.903  27.506  14.342
75940W        W37229  36.546  36.851   4.352
75941W        W37230  16.266  36.031   1.789
75942W        W37231  28.177  23.219   0.338
75943W        W37232  37.573  27.145   3.162
75944W        W37233  24.092  14.181   1.793
75945W        W37234   0.960  39.500   1.295
75946W        W37235   3.325  14.617  11.892
75947W        W37236  39.961   5.323   3.798
75948W        W37237  26.586  41.528   3.183
75949W        W37238  42.025   2.321  14.275
75950W        W37239  26.153  12.629  14.876
75951W        W37240   6.260  10.152  10.032
75952W        W37241  24.051  44.332   3.182
75953W        W37242  34.021  18.665   2.865
75954W        W37243   0.888  15.127   1.769
75955W        W37244  32.406  29.045   1.872
75956W        W37245  38.947  43.337   0.801
75957W        W37246  13.616  10.862   1.864
75958W        W37247  26.598  39.421   4.207
75959W        W37248  35.500   6.731   2.333
75960W        W37249  35.857  15.686   4.618
75961W        W37250  15.139  21.078  11.004
75962W        W37251  25.670  25.570  10.959
75963W        W37252  24.137  35.563   3.279
75964W        W37253  32.628  43.772   1.884
75965W        W37254  23.058  38.972   4.817
75966W        W37255  39.013  40.419   1.291
75967W        W37256   9.838  28.510   4.116
75968W        W37257  26.679  35.047   0.384
75969W        W37258  31.456  29.089   4.328
75970W        W37259   6.219  37.366   0.368
75971W        W37260   9.366   2.732   3.268
75972W        W37261  13.685  10.182   0.376
75973W        W37262  35.430  43.992   2.677
75974W        W37263  33.497  35.529   3.822
75975W        W37264   0.421  36.955  14.013
75976W        W37265   4.874  39.402   0.392
75977W        W37266   2.818   7.313  14.787
75978W        W37267  18.065  36.901   2.836
75979W        W37268  18.604  14.833  10.560
75980W        W37269   3.331  29.587   4.810
75981W        W37270   3.780   7.175  13.891
75982W        W37271  13.648  35.020  13.051
75983W        W37272  36.373  36.411   4.676
75984W        W37273  26.053  22.238   2.689
75985W        W37274   5.812  36.548  10.941
75986W        W37275  37.504  22.510  13.922
75987W        W37276   7.821   1.763  12.059
75988W        W37277  18.715  27.687   2.848
75989W        W37278  44.768  27.468   0.281
75990W        W37279  31.560  33.618   1.374
75991W        W37280   2.361  19.639   4.656
75992W        W37281  32.054  22.660   1.731
75993W        W37282  42.521   6.292  13.960
75994W        W37283  30.072  22.593  13.420
75995W        W37284  26.526  12.193  10.420
75996W        W37285   3.231  32.086  11.958
75997W        W37286  14.683  17.575  10.956
75998W        W37287  33.935  30.126   4.236
75999W        W37288  36.882  31.589   4.348
76000W        W37289  29.966  30.008  14.937
76001W        W37290  22.698  29.987  13.339
76002W        W37291  40.916   7.721  13.922
76003W        W37292  32.396  41.985  14.286
76004W        W37293   7.718  13.314   1.232
76005W        W37294  37.431   4.827   3.857
76006W        W37295  37.904   6.253  10.084
76007W        W37296  33.107  43.489   0.776
76008W        W37297  35.464  28.608   4.172
76009W        W37298  14.720   5.368  13.936
76010W        W37299  21.563  44.845   4.765
76011W        W37300  22.175  18.296   4.160
76012W        W37301  26.492  25.694  12.541
76013W        W37302   0.766   1.811   3.283
76014W        W37303  11.370  38.002   0.338
76015W        W37304  30.074  20.588  11.126
76016W        W37305   9.680  30.054   1.831
76017W        W37306  22.606   9.801   3.167
76018W        W37307  24.672  43.313   1.924
76019W        W37308  43.947  42.928   0.459
76020W        W37309   2.292  32.109  11.526
76021W        W37310  28.033  16.156  10.941
76022W        W37311  43.504  30.961   3.733
76023W        W37312  16.158   0.791   1.373
76024W        W37313  33.001   3.876   0.858
76025W        W37314   7.704  31.616   4.650
76026W        W37315   6.856   9.308  12.534
76027W        W37316  37.938  13.694  13.486
76028W        W37317   9.840  24.120  14.989
76029W        W37318  13.247  17.661   3.753
76030W        W37319  19.074  42.022   1.324
76031W        W37320  13.233  11.733  10.494
76032W        W37321  10.652   4.764   2.885
76033W        W37322   4.444  14.269  11.056
76034W        W37323  39.960  16.789   2.359
76035W        W37324  20.714  44.000   2.272
76036W        W37325  31.466  23.525  12.982
76037W        W37326  42.777  36.518   2.178
76038W        W37327   4.931  39.063   2.289
76039W        W37328  23.709  34.457   2.703
76040W        W37329  18.202  36.007  12.071
76041W        W37330  10.728   9.832   2.711
76042W        W37331  40.369  11.301  14.515
76043W        W37332   4.923   1.322  11.448
76044W        W37333  29.522   8.336   5.103
76045W        W37334  17.759  21.640   4.183
76046W        W37335   9.203   4.290   0.472
76047W        W37336  29.045  28.611   1.412
76048W        W37337  15.274  20.071   1.295
76049W        W37338  25.003  33.941  14.760
76050W        W37339  10.279  28.997   1.389
76051W        W37340  31.104  41.323  14.353
76052W        W37341  21.154   2.348   0.340
76053W        W37342  34.526  15.789  14.352
76054W        W37343  27.535  32.044   2.182
76055W        W37344  28.493  27.651  14.808
76056W        W37345   5.427  41.944  12.339
76057W        W37346  31.096  20.206  13.455
76058W        W37347  30.538  15.266   4.810
76059W        W37348   5.860  41.330   0.744
76060W        W37349   1.969  10.803   3.750
76061W        W37350   2.792  17.656   4.121
76062W        W37351   9.364  30.506  11.562
76063W        W37352  34.983  14.105  14.783
76064W        W37353  42.986  44.879   3.306
76065W        W37354   7.715  39.329  13.060
76066W        W37355  21.214  28.601  12.430
76067W        W37356  28.011  34.409   2.867
76068W        W37357  20.203   5.319  13.033
76069W        W37358  41.896  31.127  12.985
76070W        W37359  31.138  14.667   0.833
76071W        W37360  21.665  34.973   3.640
76072W        W37361  39.529  34.096  14.963
76073W        W37362  10.810  36.086  12.547
76074W        W37363   9.799   9.698  14.399
76075W        W37364  43.290  26.694  10.581
76076W        W37365   9.710  34.421   5.156
76077W        W37366   8.307  14.671  11.063
76078W        W37367  43.516  13.317  12.937
76079W        W37368  37.884   9.886  14.931
76080W        W37369  13.283   6.800   2.405
76081W        W37370  14.728   6.413  10.138
76082W        W37371  30.988  27.016  14.884
76083W        W37372  25.635   9.199   9.577
76084W        W37373  23.532  38.953  11.435
76085W        W37374  25.608  18.608   2.353
76086W        W37375  30.642  20.598   1.425
76087W        W37376   4.434  29.941  14.879
76088W        W37377   1.294   4.221   4.174
76089W        W37378  13.730  26.477   3.867
76090W        W37379  25.057   7.818  10.624
76091W        W37380  30.110  32.614  11.407
76092W        W37381  31.421  40.035   2.394
76093W        W37382  27.510   8.838  12.885
76094W        W37383  17.184  18.172   4.623
76095W        W37384  33.950  13.293  14.961
76096W        W37385   0.861  44.990  13.309
76097W        W37386  39.965  34.546  13.998
76098W        W37387  14.625  10.206   0.341
76099W        W37388  23.060  36.384   2.348
76100W        W37389  40.887   7.786  13.359
76101W        W37390  44.767  32.445   3.258
76102W        W37391  43.801  18.749   3.176
76103W        W37392  26.158  13.281  12.845
76104W        W37393   2.310  21.051   0.414
76105W        W37394  27.623  23.192  12.433
76106W        W37395  38.860  12.181   0.908
76107W        W37396  30.593  43.356  13.016
76108W        W37397  40.463   0.841  14.890
76109W        W37398  14.702  15.601  11.392
76110W        W37399  43.323   1.874   0.459
76111W        W37400  23.043   9.186   0.867
76112W        W37401  10.800  37.031   0.917
76113W        W37402  24.058  33.449  14.858
76114W        W37403  35.051  20.231   3.195
76115W        W37404  35.878  17.142   4.243
76116W        W37405   3.844  22.555   0.352
76117W        W37406  35.063   7.386  10.637
76118W        W37407   9.871  15.138   0.954
76119W        W37408  17.730  28.505   4.148
76120W        W37409  18.775  29.000   2.730
76121W        W37410  15.324  16.644  10.945
76122W        W37411  10.775  30.582   3.780
76123W        W37412  30.647  29.994  13.815
76124W        W37413  19.719  10.147   2.248
76125W        W37414  37.448  24.135   0.880
76126W        W37415   7.403   3.386   1.210
76127W        W37416  42.892  24.177   3.147
76128W        W37417   0.485  39.849  10.596
76129W        W37418  21.046  30.568   2.194
76130W        W37419  32.133  18.136   2.274
76131W        W37420  40.883  34.446   0.297
76132W        W37421   6.711   9.245   2.670
76133W        W37422   7.204  37.076  14.443
76134W        W37423  17.608  36.474   3.746
76135W        W37424  44.312  39.055   2.720
76136W        W37425  21.660  38.381  11.963
76137W        W37426  26.525  11.169   1.384
76138W        W37427   7.679  41.367  14.490
76139W        W37428  10.743  13.798   3.215
76140W        W37429  19.058  33.474   3.189
76141W        W37430  31.927  15.166  12.489
76142W        W37431  23.106  21.575  10.494
76143W        W37432  32.091  26.132   0.897
76144W        W37433  28.086  15.165   3.299
76145W        W37434  28.039  15.647  14.927
76146W        W37435   4.432  36.920  14.478
76147W        W37436   3.384  14.754   1.879
76148W        W37437  29.623  20.190  11.097
76149W        W37438  43.505  20.236   2.290
76150W        W37439  37.367  13.763  13.460
76151W        W37440  33.907   9.201  12.018
76152W        W37441  20.534   9.864  10.556
76153W        W37442  40.434  41.922   1.264
76154W        W37443  15.322   7.855   3.669
76155W        W37444  23.608  23.713   2.330
76156W        W37445  16.568  32.033  10.124
76157W        W37446  15.299  37.079  10.441
76158W        W37447   5.204  38.361  14.779
76159W        W37448  11.826  40.051  10.457
76160W        W37449  25.624  17.659   3.677
76161W        W37450  37.909  38.519  10.433
76162W        W37451  32.945   0.780  10.055
76163W        W37452  11.310  28.020  12.916
76164W        W37453   1.352   8.770  12.421
76165W        W37454  16.166  26.700  11.866
76166W        W37455   1.298  38.381   3.311
76167W        W37456   6.685  17.638  14.285
76168W        W37457  44.307  19.617   0.771
76169W        W37458  15.770  44.846  11.034
76170W        W37459  28.617  11.318   2.894
76171W        W37460  30.078   6.832   0.300
76172W        W37461  35.490  40.927  10.892
76173W        W37462  11.670  40.946  12.860
76174W        W37463  42.929  35.015   3.174
76175W        W37464  17.602  32.599   2.329
76176W        W37465   1.453  36.491   4.255
76177W        W37466  15.272  23.626  13.460
76178W        W37467  30.018  22.052  12.970
76179W        W37468  39.934  20.095  12.064
76180W        W37469  14.669  31.641  11.603
76181W        W37470   5.712   7.881  12.853
76182W        W37471  13.307   9.333   3.170
76183W        W37472  43.507  15.168  14.276
76184W        W37473  11.140  44.869   1.730
76185W        W37474  18.746  43.811  13.396
76186W        W37475  36.037  32.897   0.946
76187W        W37476  15.157   7.384  13.439
76188W        W37477  31.647   5.740  11.856
76189W        W37478  18.124  12.261   4.227
76190W        W37479  42.382   4.878   4.674
76191W        W37480  29.440   1.307  13.906
76192W        W37481  31.919  11.763  13.991
76193W        W37482  14.180  10.767  14.943
76194W        W37483   6.420   3.397   0.463
76195W        W37484   9.159  16.318  13.530
76196W        W37485  14.226  10.797   2.357
76197W        W37486  39.866  37.938   3.273
76198W        W37487  39.880  28.511  14.302
76199W        W37488  38.459  37.885   1.386
76200W        W37489  18.731   6.399   3.250
76201W        W37490  41.036   2.318  11.515
76202W        W37491   6.223   1.741   1.399
76203W        W37492  21.131  33.414   4.614
76204W        W37493   2.449  20.714  14.505
76205W        W37494  39.847  17.616  11.601
76206W        W37495  36.497  33.906  14.369
76207W        W37496  35.466  10.797  10.479
76208W        W37497  23.600  37.917   1.352
76209W        W37498  26.602  26.595   2.875
76210W        W37499  27.659   0.408   4.702
76211W        W37500  19.571  43.316  14.018
76212W        W37501  39.044  21.536  12.930
76213W        W37502  18.642  10.852  12.889
76214W        W37503  18.188  36.495   0.903
76215W        W37504   9.302  14.217  10.992
76216W        W37505  14.683  44.501   4.658
76217W        W37506  24.618   9.185  12.418
76218W        W37507  19.190   6.691   2.300
76219W        W37508  37.547  38.548  11.114
76220W        W37509  11.671  33.924  10.588
76221W        W37510  19.136  14.208   4.676
76222W        W37511  44.987   7.376  14.449
76223W        W37512  33.504  41.041  12.518
76224W        W37513  36.405   2.806  13.397
76225W        W37514  17.638   2.253  11.072
76226W        W37515  11.152  32.553   2.867
76227W        W37516  25.554  12.242  10.549
76228W        W37517  28.023   9.290  10.420
76229W        W37518   0.934  34.986   2.214
76230W        W37519  37.579  37.917   2.724
76231W        W37520  31.433  13.218   1.932
76232W        W37521  26.554  15.242  14.457
76233W        W37522  23.702   7.836   3.801
76234W        W37523  40.051  30.165   0.808
76235W        W37524  25.556  14.725  14.911
76236W        W37525  44.283   5.755  11.885
76237W        W37526   0.831  24.019   2.764
76238W        W37527  34.924  15.764  14.461
76239W        W37528  16.147  15.317  12.567
76240W        W37529  32.933  27.167  12.861
76241W        W37530   6.922  30.105  14.012
76242W        W37531  29.507  41.356  12.865
76243W        W37532  34.981  40.362   2.871
76244W        W37533  28.167  44.782  14.326
76245W        W37534   4.822  11.182   2.856
76246W        W37535  13.159   7.324   4.260
76247W        W37536  27.500   6.827  12.855
76248W        W37537  33.059  43.470  12.552
76249W        W37538  28.160   3.736  11.886
76250W        W37539  26.049  10.720   0.880
76251W        W37540  40.443  16.196  14.385
76252W        W37541  22.220  15.732  10.619
76253W        W37542   9.745  27.692   1.713
76254W        W37543  12.221  27.669  11.041
76255W        W37544  17.654  28.162   1.258
76256W        W37545   3.746  15.318   1.818
76257W        W37546  23.620   6.314  11.903
76258W        W37547  14.145  22.683   2.322
76259W        W37548  22.056  44.367   1.859
76260W        W37549   4.892  41.333  12.019
76261W        W37550  40.511  30.988  12.910
76262W        W37551  37.898   5.738  11.061
76263W        W37552  23.108   3.925   0.443
76264W        W37553   9.709  22.620   1.718
76265W        W37554  18.723  12.789  13.938
76266W        W37555  21.584  38.830   4.172
76267W        W37556   8.394  16.648  10.504
76268W        W37557  33.498  14.639  10.525
76269W        W37558  35.104  19.085   0.742
76270W        W37559   9.308   3.786   4.279
76271W        W37560  17.777  30.499  11.510
76272W        W37561  17.154  34.058   0.414
76273W        W37562  11.734  32.451   4.306
76274W        W37563  30.088  21.211  12.975
76275W        W37564  20.572   2.270  11.119
76276W        W37565  19.759  35.052  11.482
76277W        W37566  10.827  24.623  10.612
76278W        W37567   2.880  10.359   3.811
76279W        W37568  27.665  37.395  13.800
76280W        W37569  36.067  14.761  14.429
76281W        W37570   9.305  30.118   2.412
76282W        W37571  43.924  39.056  14.454
76283W        W37572   0.862   9.864  13.521
76284W        W37573  42.955   9.241  14.898
76285W        W37574  31.118  18.086  14.422
76286W        W37575  20.649  11.209  14.332
76287W        W37576  15.226  20.719   5.291
76288W        W37577  44.491  42.316   2.690
76289W        W37578  31.628  20.110  14.799
76290W        W37579  25.555  31.023  13.430
76291W        W37580  11.370  22.029   4.191
76292W        W37581  12.726  38.522   0.858
76293W        W37582  30.021   5.347   0.313
76294W        W37583  31.984  32.941   1.732
76295W        W37584  40.887   0.766  13.972
76296W        W37585  10.363  21.264   4.350
76297W        W37586   4.287  40.918  14.965
76298W        W37587   2.726  43.274  14.309
76299W        W37588  42.975  37.415   2.401
76300W        W37589  15.205  33.998  12.369
76301W        W37590  12.260  43.953   5.688
76302W        W37591   0.982  34.587   9.988
76303W        W37592  32.064  34.433   2.751
76304W        W37593   9.784  44.277  14.451
76305W        W37594  35.419  42.372   4.795
76306W        W37595   4.430  13.642  13.520
76307W        W37596  27.582   5.253  10.633
76308W        W37597   7.873  43.866  14.946
76309W        W37598   9.675  29.967   4.137
76310W        W37599  12.769  31.017   0.905
76311W        W37600  15.692  24.029   0.470
76312W        W37601  42.468  28.120   3.708
76313W        W37602  36.576  15.296   2.691
76314W        W37603  19.773  42.343  13.518
76315W        W37604  33.044  31.081   2.664
76316W        W37605   8.735  23.615  14.031
76317W        W37606  40.392  26.077  13.844
76318W        W37607  25.152   9.804   0.429
76319W        W37608  33.511  15.092   3.165
76320W        W37609  42.508   0.972   1.699
76321W        W37610   1.857   8.883  12.467
76322W        W37611   6.228  44.982   0.249
76323W        W37612  28.496  26.567  14.962
76324W        W37613  15.289  44.987   4.265
76325W        W37614   0.833  18.758   2.718
76326W        W37615  34.392   0.456   3.642
76327W        W37616   2.795  25.528  14.990
76328W        W37617  14.690   7.864   2.230
76329W        W37618  25.962  31.593   0.904
76330W        W37619  34.592  38.862  14.359
76331W        W37620   0.850   6.321   1.337
76332W        W37621   0.252  40.329   4.816
76333W        W37622  34.089  26.094   1.360
76334W        W37623  26.019  25.004  13.467
76335W        W37624  39.933   4.807  12.960
76336W        W37625   2.329  41.518   3.325
76337W        W37626  41.037  36.491   1.319
76338W        W37627   7.765   0.879   0.949
76339W        W37628   7.177  13.320  12.973
76340W        W37629  29.130  21.571  14.464
76341W        W37630  11.779  29.536   2.333
76342W        W37631  36.962  40.439   2.787
76343W        W37632   9.199  43.361   2.842
76344W        W37633  28.110  19.774   3.304
76345W        W37634  11.206  27.687  13.457
76346W        W37635  14.698  15.169   4.751
76347W        W37636   7.841  13.330   2.287
76348W        W37637  25.087  37.421   2.811
76349W        W37638   7.829  34.558   1.856
76350W        W37639  40.335  25.686  11.894
76351W        W37640   6.739   4.888  10.588
76352W        W37641  34.419  10.360   1.737
76353W        W37642  15.681   5.741   5.256
76354W        W37643   6.734  22.739   9.554
76355W        W37644  35.449   5.691   2.755
76356W        W37645  12.128  23.138  11.087
76357W        W37646  31.465  13.670   1.267
76358W        W37647   5.422   2.283   0.945
76359W        W37648  35.564  39.466  11.465
76360W        W37649   4.881  41.386   1.799
76361W        W37650  18.179  11.810   2.301
76362W        W37651  44.805  38.388  10.574
76363W        W37652   2.835  44.457  10.506
76364W        W37653  19.113   3.939   4.663
76365W        W37654   4.891   6.327   0.459
76366W        W37655  10.307  16.578  12.967
76367W        W37656   7.385   1.972   1.694
76368W        W37657  40.882  17.572  11.894
76369W        W37658  39.810  44.314  11.401
76370W        W37659  27.611  12.227  12.875
76371W        W37660  34.967  13.641  14.983
76372W        W37661  42.013   1.739  14.777
76373W        W37662  33.067  18.610   3.699
76374W        W37663  41.884  39.475   3.245
76375W        W37664   1.897  20.524  13.848
76376W        W37665  24.561  14.589  12.547
76377W        W37666  19.608  10.674  11.438
76378W        W37667  10.337   8.693  11.104
76379W        W37668  25.575   2.873  10.438
76380W        W37669  44.258  36.907   1.362
76381W        W37670  32.916   7.235  12.949
76382W        W37671  26.601  33.912  13.020
76383W        W37672  44.800   8.846  10.152
76384W        W37673  43.431   8.199   4.274
76385W        W37674  27.634  34.094  14.429
76386W        W37675  11.694  21.078   2.233
76387W        W37676   7.223  28.601  10.497
76388W        W37677   6.855   8.810  12.889
76389W        W37678   0.280  33.959   1.706
76390W        W37679  40.463  41.005  13.449
76391W        W37680  18.722  34.394   3.863
76392W        W37681  35.999  16.082   1.259
76393W        W37682  16.661   6.260   1.850
76394W        W37683   6.828  37.538   9.994
76395W        W37684  29.159  43.380  14.979
76396W        W37685  31.636  32.455  10.423
76397W        W37686  10.138  26.605  13.977
76398W        W37687  22.025  43.877   3.653
76399W        W37688  38.355  40.961   0.299
76400W        W37689   5.848  12.307  13.383
76401W        W37690  38.990  20.619  12.438
76402W        W37691  12.770   7.668   3.362
76403W        W37692  17.110  16.613   3.192
76404W        W37693  29.016  30.107  12.021
76405W        W37694  40.485  21.543  10.425
76406W        W37695  44.310  20.217  12.989
76407W        W37696  25.616  35.999   0.765
76408W        W37697  24.528  37.935   1.849
76409W        W37698  32.623  38.415   2.245
76410W        W37699  24.082  34.005   0.439
76411W        W37700   4.737  24.184  10.460
76412W        W37701  43.439  40.459   4.685
76413W        W37702   5.815  25.498   1.419
76414W        W37703  42.903  11.277   9.966
76415W        W37704  42.379  13.293   1.861
76416W        W37705  37.515   5.874   0.837
76417W        W37706   0.443  18.619   0.861
76418W        W37707  21.551   7.741  14.464
76419W        W37708  41.323  33.530  10.594
76420W        W37709   4.299  15.100   0.272
76421W        W37710  10.699  31.053   4.626
76422W        W37711  10.326   2.301  12.062
76423W        W37712  24.719  10.210   3.842
76424W        W37713  43.903   0.302  14.846
76425W        W37714  12.154  11.290   0.293
76426W        W37715  22.727  14.631  12.051
76427W        W37716  22.246   6.224   1.704
76428W        W37717  12.340  43.867   1.709
76429W        W37718  43.814   6.216  13.422
76430W        W37719  18.242  30.500  11.910
76431W        W37720   8.357  34.008   2.716
76432W        W37721  39.002  22.202   2.815
76433W        W37722  14.764  33.566   1.269
76434W        W37723  15.323  39.032   5.571
76435W        W37724  21.230   3.454  10.890
76436W        W37725  25.593   5.376  14.499
76437W        W37726  21.625   2.258  10.556
76438W        W37727  15.640   9.164  12.886
76439W        W37728  27.617  42.514  11.404
76440W        W37729  24.520  10.208   4.718
76441W        W37730  30.508  20.600  14.863
76442W        W37731  19.094   0.325   1.441
76443W        W37732  10.149  33.041   4.116
76444W        W37733   7.320  10.247  10.539
76445W        W37734  44.323  28.144   0.457
76446W        W37735   6.311  43.284  14.802
76447W        W37736  26.013   5.208  11.060
76448W        W37737  10.165  35.013  13.875
76449W        W37738  24.102  28.931   4.761
76450W        W37739   6.228  29.521   2.677
76451W        W37740   9.380  17.694   4.328
76452W        W37741   0.305  23.622  12.887
76453W        W37742  42.839  28.451   2.819
76454W        W37743  19.116  38.004  14.938
76455W        W37744  11.856  37.522  10.957
76456W        W37745   9.783  43.472  14.852
76457W        W37746  30.476  26.116  11.584
76458W        W37747   2.357  23.695  14.977
76459W        W37748  25.211  35.390  14.960
76460W        W37749   6.814   0.276  10.534
76461W        W37750   0.477   0.421  14.469
76462W        W37751  23.167  23.232  11.591
76463W        W37752  35.074   1.888   0.450
76464W        W37753  30.628  43.972  12.943
76465W        W37754   9.277  41.025  11.100
76466W        W37755   3.406  25.706   3.657
76467W        W37756  33.066  27.979   0.810
76468W        W37757  21.123  44.850  12.446
76469W        W37758  14.612  14.651   3.174
76470W        W37759  25.569  25.479   0.846
76471W        W37760  39.968  25.530   3.353
76472W        W37761  26.483  42.801  10.937
76473W        W37762  31.017  18.113   1.844
76474W        W37763  23.997  13.257  14.479
76475W        W37764  14.305  10.239  10.901
76476W        W37765  28.962  23.035  10.956
76477W        W37766  39.471  33.440  11.609
76478W        W37767  12.800   0.901  11.886
76479W        W37768  44.961  25.991   3.670
76480NA+    NA+37769   3.224  28.978   4.155
76481NA+    NA+37770   7.686  23.683   4.625
76482NA+    NA+37771  16.782  31.514  12.871
76483NA+    NA+37772  38.533  28.127   1.698
76484NA+    NA+37773  10.326  18.622  11.978
76485NA+    NA+37774  19.084  15.677   4.345
76486NA+    NA+37775  37.451  16.798   9.615
76487NA+    NA+37776  22.680  32.475   0.344
76488NA+    NA+37777  24.507   4.427  14.784
76489NA+    NA+37778  41.942  42.349   4.311
76490NA+    NA+37779   0.921  26.088  13.547
76491NA+    NA+37780  38.855  23.048   3.185
76492NA+    NA+37781  36.865  11.298  10.639
76493NA+    NA+37782  22.632  23.515  10.537
76494NA+    NA+37783  28.082  10.693   5.736
76495NA+    NA+37784  13.609  12.116   2.324
76496NA+    NA+37785   1.364  13.204  12.028
76497NA+    NA+37786  28.080  22.537  11.400
76498NA+    NA+37787  33.559  38.411  11.118
76499NA+    NA+37788  22.085  43.383   0.290
76500NA+    NA+37789  37.999  43.934  13.439
76501NA+    NA+37790  34.968  33.396  11.880
76502NA+    NA+37791  21.753  11.857  10.107
76503NA+    NA+37792  31.005  37.925  13.908
76504NA+    NA+37793  21.597   2.744   4.703
76505NA+    NA+37794  33.976  17.571   4.179
76506NA+    NA+37795  18.294  18.225  14.505
76507NA+    NA+37796  28.636  38.511   4.283
76508NA+    NA+37797  34.031  32.105   1.874
76509NA+    NA+37798  21.202  24.126   1.376
76510NA+    NA+37799  15.106  15.630   1.803
76511NA+    NA+37800  26.100   5.892  13.963
76512NA+    NA+37801  35.096  33.564   1.729
76513NA+    NA+37802  12.350  25.552  14.275
76514NA+    NA+37803  28.663   5.420   1.746
76515NA+    NA+37804   8.237  19.558   3.819
76516NA+    NA+37805  32.423   4.410  14.864
76517NA+    NA+37806  19.765  35.091  12.358
76518NA+    NA+37807  28.656  22.659   4.317
76519NA+    NA+37808  44.874  14.811  12.011
76520NA+    NA+37809  14.668  25.128   3.371
76521NA+    NA+37810   6.776   4.883   1.346
76522NA+    NA+37811  20.587  13.205  14.995
76523NA+    NA+37812  33.092   4.268  13.489
76524NA+    NA+37813  19.265   4.369   3.670
76525NA+    NA+37814  20.128  32.930  11.871
76526NA+    NA+37815  27.032  25.498   3.700
76527NA+    NA+37816  28.975  34.031   1.765
76528NA+    NA+37817   6.770  18.735  12.882
76529NA+    NA+37818  18.255  23.714  12.540
76530NA+    NA+37819   2.392   9.180  13.378
76531NA+    NA+37820   8.353   6.372  13.005
76532NA+    NA+37821  33.047  15.624  12.924
76533NA+    NA+37822   2.733  25.700  10.407
76534NA+    NA+37823  24.008   9.201  13.007
76535NA+    NA+37824  12.295  43.844  14.986
76536NA+    NA+37825  18.693   1.808   4.136
76537NA+    NA+37826   0.866  30.010  12.875
76538NA+    NA+37827   2.258  22.200   4.153
76539NA+    NA+37828  25.181   3.215   2.851
76540NA+    NA+37829  41.330  17.190  14.505
76541NA+    NA+37830  15.312  22.540   1.293
76542NA+    NA+37831  38.008   8.671  10.986
76543NA+    NA+37832  36.542  10.733  14.476
76544NA+    NA+37833  23.559  40.465  10.437
76545NA+    NA+37834  24.164  15.323   4.334
76546NA+    NA+37835  18.727  28.501   1.927
76547NA+    NA+37836   0.476  19.734   0.433
76548NA+    NA+37837  12.177  20.036   4.659
76549NA+    NA+37838  11.348  22.604   1.335
76550NA+    NA+37839   9.724  42.867   1.736
76551NA+    NA+37840  43.970   7.719   4.310
76552NA+    NA+37841  11.850   6.840  13.915
76553NA+    NA+37842  34.425  17.112   1.778
76554NA+    NA+37843   0.973  30.434   4.766
76555NA+    NA+37844  14.726  35.468  10.132
76556NA+    NA+37845  22.742  14.772  13.485
76557NA+    NA+37846   7.176  29.166  12.974
76558NA+    NA+37847  17.777  23.050   0.781
76559NA+    NA+37848   7.252  40.857  14.998
76560NA+    NA+37849   5.217   5.208  12.390
76561NA+    NA+37850  19.706  42.979   2.834
76562NA+    NA+37851  20.659  27.573  14.806
76563NA+    NA+37852  36.483  21.602  13.423
76564NA+    NA+37853   2.875   8.161  13.464
76565NA+    NA+37854  13.790   3.926  13.012
76566NA+    NA+37855  10.238  29.992   3.147
76567NA+    NA+37856  13.105  44.502  13.032
76568NA+    NA+37857   8.716  35.906   2.773
76569NA+    NA+37858  44.461   2.336   1.337
76570NA+    NA+37859   6.199  39.892   3.331
76571NA+    NA+37860  11.221  20.769   1.901
76572NA+    NA+37861  43.357  35.864  14.467
76573NA+    NA+37862   5.764   9.180  13.928
76574NA+    NA+37863  27.091   2.422  12.974
76575NA+    NA+37864  19.766  41.898  11.501
76576NA+    NA+37865  31.513  24.722   0.324
76577NA+    NA+37866  20.641  15.710   4.825
76578NA+    NA+37867  27.682  38.988  12.579
76579NA+    NA+37868  23.986  39.977  12.937
76580NA+    NA+37869  17.752   4.731   4.744
76581NA+    NA+37870  13.216  25.558  13.985
76582NA+    NA+37871  14.328  28.061   4.123
76583NA+    NA+37872  20.205   3.232  13.959
76584NA+    NA+37873  28.568  22.185   3.285
76585NA+    NA+37874  37.885  19.136  14.871
76586NA+    NA+37875  20.710  27.973   1.326
76587NA+    NA+37876  21.054  19.709   1.435
76588NA+    NA+37877   3.328  24.587   1.387
76589NA+    NA+37878   3.384  37.401  10.620
76590NA+    NA+37879   5.346  27.526  10.540
76591NA+    NA+37880   0.858  20.660   3.253
76592NA+    NA+37881  24.493   4.264   1.218
76593NA+    NA+37882  23.060   0.836   4.236
76594NA+    NA+37883  44.967  13.125  14.488
76595NA+    NA+37884   2.368  23.014   1.711
76596NA+    NA+37885  38.959  11.151  12.960
76597NA+    NA+37886  39.040  17.073   3.333
76598NA+    NA+37887  28.144  11.167   9.561
76599NA+    NA+37888  15.279  37.991   5.259
76600NA+    NA+37889  34.994   2.425   2.236
76601NA+    NA+37890  22.568  22.165   2.395
76602NA+    NA+37891  22.076  41.789   4.818
76603NA+    NA+37892  21.235  34.109   0.306
76604NA+    NA+37893  34.463  34.880   4.168
76605NA+    NA+37894  41.348   5.868  14.430
76606NA+    NA+37895  14.260  19.177   3.845
76607NA+    NA+37896  33.078  22.707   4.186
76608NA+    NA+37897  26.521  14.786  13.798
76609NA+    NA+37898  37.970  33.622  12.549
76610NA+    NA+37899  14.136  11.717   0.927
76611NA+    NA+37900  12.799  29.451  12.484
76612NA+    NA+37901  33.444   5.194  13.317
76613NA+    NA+37902  40.545  40.940  14.515
76614NA+    NA+37903  26.643  17.673   3.333
76615NA+    NA+37904  15.247  16.697  11.543
76616NA+    NA+37905  27.528  17.263  11.919
76617NA+    NA+37906  13.754  31.080  10.566
76618NA+    NA+37907  15.634   4.282  11.548
76619NA+    NA+37908  18.659  33.083  11.117
76620NA+    NA+37909  12.767  25.041   3.670
76621NA+    NA+37910  26.002  38.422   1.292
76622NA+    NA+37911  22.636  29.082  13.307
76623NA+    NA+37912   8.675   3.259   4.658
76624NA+    NA+37913  39.420  34.592   2.855
76625NA+    NA+37914  36.871  22.057   1.880
76626NA+    NA+37915  28.488  21.711  13.460
76627NA+    NA+37916  11.146  44.967   3.649
76628NA+    NA+37917  14.610  12.692  11.509
76629NA+    NA+37918  11.748  26.486   3.640
76630NA+    NA+37919  28.161  14.126   3.164
76631NA+    NA+37920  41.025  14.184  10.406
76632NA+    NA+37921   5.210   6.723  13.519
76633NA+    NA+37922  38.854  19.270  13.312
76634NA+    NA+37923   5.214  35.502  12.345
76635NA+    NA+37924   9.889   2.363  13.008
76636NA+    NA+37925   6.719  43.893  12.496
76637NA+    NA+37926  15.784  24.155  14.833
76638NA+    NA+37927  20.705  29.487   1.447
76639NA+    NA+37928  16.076   7.394  10.475
76640NA+    NA+37929  41.335  28.183  12.076
76641NA+    NA+37930  18.086   0.438   3.349
76642NA+    NA+37931  13.738  21.107  12.877
76643NA+    NA+37932  26.988  19.675  11.492
76644NA+    NA+37933  25.080   6.840  13.478
76645NA+    NA+37934   6.232  40.808  12.507
76646NA+    NA+37935   9.646  24.992   0.904
76647NA+    NA+37936   8.768  15.706   0.396
76648NA+    NA+37937  43.903   9.278   3.639
76649NA+    NA+37938  33.108   6.819   4.730
76650NA+    NA+37939  37.851  11.792   3.715
76651NA+    NA+37940   1.265  33.906  11.427
76652NA+    NA+37941  17.233  25.697   3.387
76653NA+    NA+37942  23.696  10.261  12.363
76654NA+    NA+37943   9.654  31.582  13.906
76655NA+    NA+37944  10.276   6.760   1.384
76656NA+    NA+37945  22.688  42.906  11.439
76657NA+    NA+37946  24.668   2.309  12.425
76658NA+    NA+37947  41.381  38.937  10.631
76659NA+    NA+37948  12.705  15.185  13.457
76660NA+    NA+37949   8.695  42.491   0.459
76661NA+    NA+37950  36.394  42.328   2.374
76662NA+    NA+37951  12.204  27.989  13.868
76663NA+    NA+37952  29.642  14.629  11.424
76664NA+    NA+37953  37.427  11.180   1.822
76665NA+    NA+37954  39.919   6.854  12.857
76666NA+    NA+37955   3.349   6.697  11.026
76667NA+    NA+37956  19.109  23.709   1.399
76668NA+    NA+37957  43.894  17.100  11.993
76669NA+    NA+37958  44.887   7.705   2.399
76670NA+    NA+37959  28.520  20.061   3.793
76671NA+    NA+37960  11.673  43.830  14.801
76672NA+    NA+37961  17.603   1.935   4.291
76673NA+    NA+37962  30.002  18.590   1.335
76674NA+    NA+37963  37.037  19.600   3.272
76675NA+    NA+37964  34.489  29.487   4.689
76676NA+    NA+37965   8.785   5.883  10.537
76677NA+    NA+37966  26.051  25.506   4.768
76678NA+    NA+37967  10.641  17.111  10.035
76679NA+    NA+37968   1.273  42.401  12.042
76680NA+    NA+37969  23.004  35.423   1.748
76681NA+    NA+37970  41.004   5.736   2.859
76682NA+    NA+37971  31.441  18.668  13.974
76683NA+    NA+37972  29.030  25.565   2.882
76684NA+    NA+37973  37.944  41.465   0.791
76685NA+    NA+37974   5.882  36.096   3.381
76686NA+    NA+37975  34.875  34.452  14.852
76687NA+    NA+37976  44.458  20.211  14.032
76688NA+    NA+37977   9.733  38.341   4.683
76689NA+    NA+37978  32.947  36.454   4.806
76690NA+    NA+37979  12.790  10.194  11.081
76691NA+    NA+37980  22.685  34.941  14.994
76692NA+    NA+37981   4.347  17.616  14.973
76693NA+    NA+37982  25.981  18.715  12.401
76694NA+    NA+37983  35.493  34.095  13.958
76695NA+    NA+37984  29.561   7.200   1.737
76696NA+    NA+37985  35.104   1.250  10.413
76697NA+    NA+37986  25.562   0.484  14.010
76698NA+    NA+37987  42.449  27.682   3.845
76699NA+    NA+37988  42.002  21.220  14.881
76700NA+    NA+37989  44.390  28.157  10.909
76701NA+    NA+37990  34.864  25.070  11.093
76702NA+    NA+37991  17.224   3.384   3.741
76703NA+    NA+37992   6.413   1.243   0.437
76704NA+    NA+37993  40.942  26.543   3.309
76705NA+    NA+37994  27.619  40.541   3.286
76706NA+    NA+37995  19.741  22.158   3.296
76707NA+    NA+37996   0.339  15.766  13.862
76708NA+    NA+37997  21.113  39.838   2.741
76709NA+    NA+37998  40.406   9.839  11.391
76710NA+    NA+37999  42.373  42.482  12.372
76711NA+    NA+38000   2.958   8.323   2.779
76712NA+    NA+38001  36.974  41.506   0.313
76713NA+    NA+38002  43.860  41.455   4.608
76714NA+    NA+38003   1.809   0.986   0.321
76715NA+    NA+38004  18.659  10.339  11.949
76716NA+    NA+38005  42.389   1.243   1.852
76717NA+    NA+38006  25.632  38.439   0.344
76718NA+    NA+38007  24.230   2.251  14.441
76719NA+    NA+38008  38.446  15.651   3.343
76720NA+    NA+38009  43.459  37.956   2.223
76721NA+    NA+38010  10.326  15.601  13.365
76722NA+    NA+38011  39.890  27.941   3.217
76723NA+    NA+38012  14.279  19.543   3.681
76724NA+    NA+38013  19.154   6.222   1.291
76725NA+    NA+38014  34.897  43.986  11.570
76726NA+    NA+38015  23.534   5.386  11.056
76727NA+    NA+38016  44.790  43.491   1.220
76728NA+    NA+38017  22.550  35.071   4.342
76729NA+    NA+38018  21.677   8.299   3.281
76730NA+    NA+38019  41.908  18.684  12.987
76731NA+    NA+38020   7.364  43.828   1.833
76732NA+    NA+38021   9.394  14.320   2.718
76733NA+    NA+38022  30.500   2.855  14.316
76734NA+    NA+38023   2.875   7.343   4.636
76735NA+    NA+38024   3.927  37.480   4.791
76736NA+    NA+38025  34.067   3.846  11.422
76737NA+    NA+38026  27.144  33.929  12.859
76738NA+    NA+38027  23.522   2.261  14.849
76739NA+    NA+38028   7.748  16.806  11.947
76740NA+    NA+38029   8.232  41.520   3.792
76741NA+    NA+38030  14.107   1.913   0.475
76742NA+    NA+38031  28.969  33.407   0.936
76743NA+    NA+38032  41.472  38.910   2.371
76744NA+    NA+38033  44.415  15.262  12.087
76745NA+    NA+38034  40.466  15.634   2.411
76746NA+    NA+38035  33.395  14.191  14.313
76747NA+    NA+38036  26.169  17.154  11.048
76748NA+    NA+38037   3.852  25.074   2.731
76749NA+    NA+38038  25.049   8.194   9.496
76750NA+    NA+38039  22.683   2.883   2.277
76751NA+    NA+38040  39.047  37.922  13.536
76752NA+    NA+38041  18.599  36.926   1.911
76753NA+    NA+38042   3.793   2.743  10.444
76754NA+    NA+38043  33.906  41.318  10.528
76755NA+    NA+38044  22.062  22.220  10.505
76756NA+    NA+38045  43.395  15.784   3.845
76757NA+    NA+38046  39.928  24.491  14.293
76758NA+    NA+38047  40.384   7.417   3.244
76759NA+    NA+38048   3.815   1.951   3.375
76760NA+    NA+38049   5.910  27.011   3.796
76761NA+    NA+38050   1.270   0.882   4.176
76762NA+    NA+38051  30.057  12.672   0.461
76763NA+    NA+38052   9.877  22.230   3.826
76764NA+    NA+38053  20.589  31.056   2.404
76765NA+    NA+38054  36.468   9.234   4.733
76766NA+    NA+38055  14.596  16.799   3.659
76767NA+    NA+38056  39.980  37.493   4.131
76768NA+    NA+38057   5.912  14.698   0.401
76769NA+    NA+38058   6.236  17.252   3.665
76770NA+    NA+38059  10.142   5.692   3.363
76771NA+    NA+38060  37.428  25.081  12.977
76772NA+    NA+38061   6.852  39.408   1.813
76773NA+    NA+38062  24.489  40.915  12.409
76774NA+    NA+38063   9.807  24.539   4.766
76775NA+    NA+38064  18.763   9.888   3.368
76776NA+    NA+38065  18.684  42.857  13.904
76777NA+    NA+38066   7.890   8.848  12.945
76778NA+    NA+38067   3.433  17.300   4.808
76779NA+    NA+38068  13.162  23.522   3.713
76780NA+    NA+38069  26.049  28.094  10.935
76781NA+    NA+38070   3.953  10.150   3.680
76782NA+    NA+38071  31.121   5.213   1.434
76783NA+    NA+38072   1.291  41.895  13.000
76784NA+    NA+38073   3.875   9.210   3.827
76785NA+    NA+38074  26.042   2.884   4.338
76786NA+    NA+38075  13.304  35.539   3.675
76787NA+    NA+38076  25.203   9.659  10.096
76788NA+    NA+38077   1.911  32.930  12.538
76789NA+    NA+38078  16.698   4.701  14.481
76790NA+    NA+38079  12.786   6.426   4.338
76791NA+    NA+38080  36.014  10.809  13.042
76792NA+    NA+38081  10.168  23.496  14.005
76793NA+    NA+38082  11.355  43.996  14.394
76794NA+    NA+38083  36.925  35.406  10.426
76795NA+    NA+38084   2.359  33.000  14.785
76796NA+    NA+38085   6.280  36.898   2.850
76797NA+    NA+38086   3.362  19.212  13.313
76798NA+    NA+38087  14.641  12.187   0.247
76799NA+    NA+38088  14.593  21.028  12.929
76800NA+    NA+38089  18.556  21.111   2.345
76801NA+    NA+38090   3.311  20.062   0.273
76802NA+    NA+38091  31.491   4.367  11.488
76803NA+    NA+38092  25.971  41.316   1.328
76804NA+    NA+38093  28.026  12.736   0.470
76805NA+    NA+38094  35.540  43.908  14.475
76806NA+    NA+38095  17.189  31.565  14.379
76807NA+    NA+38096  37.477  25.018  13.436
76808NA+    NA+38097   4.735  23.517   9.934
76809NA+    NA+38098   0.317   0.815   2.714
76810NA+    NA+38099  43.302  13.790   3.758
76811NA+    NA+38100   6.294  23.064  13.908
76812NA+    NA+38101  38.528   0.327  11.494
76813NA+    NA+38102  22.209  21.686   3.170
76814NA+    NA+38103  33.010  18.222  13.956
76815NA+    NA+38104  21.664  19.771   0.811
76816NA+    NA+38105   0.936  25.116  11.096
76817NA+    NA+38106   3.438  27.138  14.449
76818NA+    NA+38107  39.423  22.598  14.877
76819NA+    NA+38108  34.588   8.402  13.400
76820NA+    NA+38109  39.986   0.431   0.781
76821NA+    NA+38110  31.057  16.085  12.963
76822NA+    NA+38111  37.980  31.050  10.577
76823NA+    NA+38112  34.614  15.661  13.060
76824NA+    NA+38113  36.442  33.539   3.370
76825NA+    NA+38114  31.629  10.735   4.644
76826NA+    NA+38115  44.777  35.865   4.145
76827NA+    NA+38116  26.674  10.336   2.687
76828NA+    NA+38117  42.282  25.106   1.306
76829NA+    NA+38118  11.195  31.618   2.319
76830NA+    NA+38119  37.971   6.292   2.764
76831NA+    NA+38120  29.535  40.850  14.934
76832NA+    NA+38121   4.264   4.792   1.276
76833NA+    NA+38122  15.292  44.912  12.897
76834NA+    NA+38123  18.221  42.836  14.321
76835NA+    NA+38124  20.033  14.642  12.347
76836NA+    NA+38125  44.840   6.908  10.449
76837NA+    NA+38126  13.157  11.204  14.942
76838NA+    NA+38127  10.348   7.336  12.967
76839NA+    NA+38128  37.539  37.953  14.442
76840NA+    NA+38129  18.753  24.143  11.452
76841NA+    NA+38130  29.974  35.589   1.389
76842NA+    NA+38131   1.791  43.493  10.550
76843NA+    NA+38132  35.502  13.716  11.395
76844NA+    NA+38133  14.304  30.027  11.867
76845NA+    NA+38134  15.607   6.889   2.800
76846NA+    NA+38135  18.263  23.663   2.326
76847NA+    NA+38136  22.566   1.738   3.806
76848NA+    NA+38137  15.309   8.863   3.315
76849NA+    NA+38138  27.150   3.458  13.407
76850NA+    NA+38139   0.898  17.573   3.243
76851NA+    NA+38140  20.556   2.376  13.398
76852NA+    NA+38141  39.340  38.431  11.035
76853NA+    NA+38142   9.324  38.824  10.583
76854NA+    NA+38143  31.948  33.079  13.307
76855NA+    NA+38144   5.796  24.558   1.813
76856NA+    NA+38145   5.874  21.726  14.845
76857NA+    NA+38146  19.168   8.218  10.532
76858NA+    NA+38147  37.402  42.799  11.600
76859NA+    NA+38148  17.087  35.023  10.951
76860NA+    NA+38149  36.895  23.084   0.432
76861NA+    NA+38150  19.606  15.746  12.402
76862NA+    NA+38151  22.131  43.294  12.950
76863NA+    NA+38152  15.628  32.581   1.766
76864NA+    NA+38153   8.835   8.405   4.713
76865NA+    NA+38154  20.767  10.222  12.871
76866NA+    NA+38155  25.180  16.600  12.047
76867NA+    NA+38156   8.187  23.666  11.575
76868NA+    NA+38157   3.308  44.935   0.960
76869NA+    NA+38158  42.896  25.545  14.904
76870NA+    NA+38159  27.077  22.554   2.789
76871NA+    NA+38160  31.560  44.767  12.339
76872NA+    NA+38161  34.597   9.265  12.960
76873NA+    NA+38162  15.633  31.595   4.270
76874NA+    NA+38163  44.417  42.005  11.061
76875NA+    NA+38164  31.972  34.443   1.412
76876NA+    NA+38165   2.859  21.714   3.673
76877NA+    NA+38166   6.347  25.671  10.049
76878NA+    NA+38167   0.984  18.644   3.191
76879NA+    NA+38168  30.425  22.032   4.781
76880NA+    NA+38169  42.875   3.715  14.030
76881NA+    NA+38170  24.014  37.385   0.954
76882NA+    NA+38171  35.879  38.344   3.233
76883NA+    NA+38172  41.844   2.781  12.836
76884NA+    NA+38173   1.948  44.846  12.885
76885NA+    NA+38174   9.326  21.537  10.501
76886NA+    NA+38175  23.606  23.228  12.390
76887NA+    NA+38176  30.460  23.711   4.770
76888NA+    NA+38177  29.530   9.317   1.797
76889NA+    NA+38178  18.155  38.025   3.662
76890NA+    NA+38179   6.219  27.009  13.397
76891NA+    NA+38180  34.562  12.633  11.557
76892NA+    NA+38181  32.621  26.572  14.902
76893NA+    NA+38182  43.329  32.461   1.264
76894NA+    NA+38183  25.200   8.300   5.649
76895NA+    NA+38184  42.323  34.462  10.530
76896NA+    NA+38185  32.935  37.440   3.154
76897NA+    NA+38186   8.838   0.349  13.969
76898NA+    NA+38187  32.608  13.625   0.276
76899NA+    NA+38188   8.328   5.395  12.365
76900NA+    NA+38189  38.365  39.359  11.409
76901NA+    NA+38190  32.396   7.696  10.899
76902NA+    NA+38191  10.341  24.620  13.441
76903NA+    NA+38192  30.957  43.909   1.386
76904NA+    NA+38193  10.725  25.052  14.805
76905NA+    NA+38194  18.743  30.449   0.768
76906NA+    NA+38195  18.154  30.511   4.237
76907NA+    NA+38196  28.590  28.655   1.267
76908NA+    NA+38197   9.660  32.008   0.251
76909NA+    NA+38198  37.879  41.384  11.469
76910NA+    NA+38199  17.117  23.004  13.445
76911NA+    NA+38200  40.006  24.218   1.339
76912NA+    NA+38201   2.443   2.907  14.806
76913NA+    NA+38202   8.290  36.465   0.835
76914NA+    NA+38203  10.771   8.163  11.033
76915NA+    NA+38204  24.979  15.209  14.462
76916NA+    NA+38205  43.433  27.964  13.922
76917NA+    NA+38206   0.808  27.676  12.922
76918NA+    NA+38207   8.761  43.395   1.933
76919NA+    NA+38208  37.000  38.469  13.857
76920NA+    NA+38209   4.302  28.645  13.852
76921NA+    NA+38210  44.405  18.549  12.861
76922NA+    NA+38211   4.445  23.026   3.305
76923NA+    NA+38212  23.631  19.073   4.621
76924NA+    NA+38213  22.044  25.469   1.829
76925NA+    NA+38214  39.007  34.593   3.781
76926NA+    NA+38215   8.760  17.657  13.413
76927NA+    NA+38216  10.309  26.068  12.547
76928NA+    NA+38217  43.446  36.992   2.764
76929NA+    NA+38218  36.038  18.774  12.916
76930NA+    NA+38219  43.317  23.637  13.063
76931NA+    NA+38220  33.622  25.604   0.879
76932NA+    NA+38221  25.494  26.050   1.251
76933NA+    NA+38222  19.630  24.099   2.394
76934NA+    NA+38223  24.547  10.674   0.739
76935NA+    NA+38224  29.116  12.704  12.343
76936NA+    NA+38225  13.340  21.611  11.490
76937NA+    NA+38226  34.545  25.494  13.032
76938NA+    NA+38227  38.956  10.207   5.215
76939NA+    NA+38228  41.820  25.080  10.608
76940NA+    NA+38229  23.106   1.971   1.702
76941NA+    NA+38230  29.091   5.394   3.247
76942NA+    NA+38231  43.345  26.203  12.372
76943NA+    NA+38232   8.815  34.908  14.962
76944NA+    NA+38233  40.525  38.926  10.896
76945NA+    NA+38234  41.908  33.474   3.766
76946NA+    NA+38235   0.823  40.521   4.684
76947NA+    NA+38236  28.065   2.468  13.517
76948NA+    NA+38237   5.827  24.163  13.853
76949NA+    NA+38238   3.840  35.578  14.293
76950NA+    NA+38239  43.404  12.344  12.965
76951NA+    NA+38240  25.078   7.303  12.061
76952NA+    NA+38241  40.955  13.328  14.467
76953NA+    NA+38242  14.232   6.209   2.772
76954NA+    NA+38243  16.694  14.244   2.770
76955NA+    NA+38244   3.764  24.148   4.746
76956NA+    NA+38245  22.187  41.331   0.364
76957NA+    NA+38246  41.871  30.517   4.313
76958NA+    NA+38247  26.204  11.683  13.403
76959NA+    NA+38248  30.139   0.920  10.560
76960NA+    NA+38249   2.790   0.430  10.983
76961NA+    NA+38250  27.164  30.577  12.850
76962NA+    NA+38251   0.911  43.479  10.435
76963NA+    NA+38252  40.318  33.506   0.753
76964NA+    NA+38253  37.038   9.299   2.399
76965NA+    NA+38254  18.598  42.905   1.306
76966NA+    NA+38255  40.952  30.480  14.951
76967NA+    NA+38256  41.313  15.664  13.856
76968NA+    NA+38257  14.247  14.801   3.834
76969NA+    NA+38258  22.124  36.994  14.354
76970NA+    NA+38259   9.741  27.987  13.383
76971NA+    NA+38260  26.003   5.916   3.156
76972NA+    NA+38261  28.655   8.365   1.241
76973NA+    NA+38262  29.640  13.240  11.491
76974NA+    NA+38263  37.490  37.336  14.456
76975NA+    NA+38264  33.467   6.401  12.434
76976NA+    NA+38265  38.543  18.721   2.823
76977NA+    NA+38266   4.220  13.239  11.463
76978NA+    NA+38267   7.731  42.822   4.614
76979NA+    NA+38268  21.529  29.444  12.366
76980NA+    NA+38269   4.701  39.987   2.780
76981NA+    NA+38270  26.963   8.295  14.512
76982NA+    NA+38271  28.574  15.222  13.062
76983NA+    NA+38272  10.176   0.446   4.661
76984NA+    NA+38273  30.458  44.310  14.827
76985NA+    NA+38274  39.018   8.757  12.028
76986NA+    NA+38275  17.117  23.501   0.865
76987NA+    NA+38276  11.129  10.840   2.293
76988NA+    NA+38277  33.542  28.659  10.957
76989NA+    NA+38278   5.263   5.369   4.731
76990NA+    NA+38279  32.463  19.057  14.364
76991NA+    NA+38280  19.225   3.940   4.301
76992NA+    NA+38281  27.632   6.232  12.092
76993NA+    NA+38282  16.812  34.501   4.678
76994NA+    NA+38283  35.975  16.764   0.304
76995NA+    NA+38284   5.195   2.366  12.536
76996NA+    NA+38285   9.843  23.162   1.898
76997NA+    NA+38286  23.012  41.869   0.785
76998NA+    NA+38287  32.129   4.939  10.520
76999NA+    NA+38288   1.436  10.257   2.899
77000NA+    NA+38289  14.302  37.354   2.375
77001NA+    NA+38290  11.316   8.220  12.009
77002NA+    NA+38291  31.010  15.671   2.728
77003NA+    NA+38292  25.987  23.023   1.812
77004NA+    NA+38293  27.115  26.191   4.768
77005NA+    NA+38294  31.536   6.280  10.469
77006NA+    NA+38295  35.582  28.640   3.185
77007NA+    NA+38296  14.298  32.612   2.666
77008NA+    NA+38297  15.627   3.798   4.616
77009NA+    NA+38298   4.314  38.001  12.877
77010NA+    NA+38299  36.845  30.100   2.751
77011NA+    NA+38300  34.487  43.349  11.555
77012NA+    NA+38301  31.564  44.423  13.833
77013NA+    NA+38302  35.935  12.839  13.402
77014NA+    NA+38303  21.247  35.980   3.232
77015NA+    NA+38304  33.557   0.896   2.765
77016NA+    NA+38305  32.500  33.568   1.408
77017NA+    NA+38306  17.291  33.075  12.469
77018NA+    NA+38307  18.773  41.958  14.284
77019NA+    NA+38308   5.327  20.217   0.818
77020NA+    NA+38309  17.115  21.159  12.468
77021NA+    NA+38310  15.235  12.359  13.466
77022NA+    NA+38311  39.950  12.331   0.445
77023NA+    NA+38312  32.564  39.509  10.630
77024NA+    NA+38313  17.274   8.659  10.144
77025NA+    NA+38314  12.620   6.296   3.382
77026NA+    NA+38315  42.843  26.131   2.226
77027NA+    NA+38316  28.995  20.070  13.459
77028NA+    NA+38317   7.340  25.994   2.228
77029NA+    NA+38318  20.605  30.072  11.471
77030NA+    NA+38319  36.552   3.821  14.365
77031NA+    NA+38320  15.160  44.896  14.833
77032NA+    NA+38321  41.020  37.026  14.503
77033NA+    NA+38322  18.569  30.123   0.809
77034NA+    NA+38323  42.391  29.083   0.347
77035NA+    NA+38324  11.622  42.996  10.137
77036NA+    NA+38325  24.090  26.543  10.421
77037NA+    NA+38326  41.873  28.617   3.148
77038NA+    NA+38327   6.380  27.587  12.905
77039NA+    NA+38328  44.471  39.318  12.999
77040NA+    NA+38329  25.493  27.536   4.748
77041NA+    NA+38330  33.595  23.143  13.874
77042NA+    NA+38331  13.112  41.379   3.329
77043NA+    NA+38332  23.001  16.589  11.957
77044NA+    NA+38333  44.314  43.892   1.905
77045NA+    NA+38334  40.804  21.053  13.963
77046NA+    NA+38335   1.310  18.235  10.566
77047NA+    NA+38336  13.184   5.398   3.767
77048NA+    NA+38337   2.786  33.393  13.803
77049NA+    NA+38338  22.093   6.398  13.028
77050NA+    NA+38339  43.350  27.689   2.762
77051NA+    NA+38340  10.211  13.108  14.984
77052NA+    NA+38341  11.732   5.733   4.246
77053NA+    NA+38342  38.560  44.439  10.999
77054NA+    NA+38343  31.432  40.920   4.824
77055NA+    NA+38344  37.569  30.074   1.900
77056NA+    NA+38345  34.510   8.165   4.815
77057NA+    NA+38346  18.182   8.805  11.508
77058NA+    NA+38347  38.383  22.544  10.455
77059NA+    NA+38348   6.823  29.032   3.216
77060NA+    NA+38349  41.328  24.170  14.374
77061NA+    NA+38350  32.630  13.154   0.903
77062NA+    NA+38351  38.400  15.300  12.854
77063NA+    NA+38352  15.737  41.493   4.268
77064NA+    NA+38353  33.968   0.971  14.979
77065NA+    NA+38354  34.925  36.946  11.125
77066NA+    NA+38355  19.058  34.418  12.861
77067NA+    NA+38356  36.408  14.211  14.301
77068NA+    NA+38357  35.604  42.472  12.381
77069NA+    NA+38358  25.671  24.718   3.797
77070NA+    NA+38359  33.967   8.850  11.964
77071NA+    NA+38360   2.472  39.861   0.852
77072NA+    NA+38361  26.018  38.441   2.344
77073NA+    NA+38362  41.954  15.167   1.844
77074NA+    NA+38363  37.020  33.596  13.811
77075NA+    NA+38364  11.768  12.633   4.620
77076NA+    NA+38365  25.469   8.230   9.951
77077NA+    NA+38366   6.905  32.095   2.839
77078NA+    NA+38367  18.600  27.568  10.943
77079NA+    NA+38368  30.564  19.728  14.492
77080NA+    NA+38369  34.950  36.395   0.244
77081NA+    NA+38370   0.302  17.216  13.895
77082NA+    NA+38371  44.380  39.824  11.568
77083NA+    NA+38372  19.257  15.165   3.666
77084NA+    NA+38373  23.733  34.026  11.018
77085NA+    NA+38374  37.856  18.147   2.764
77086NA+    NA+38375  35.554  10.776  13.820
77087NA+    NA+38376  34.033  17.561  11.448
77088NA+    NA+38377   8.823  14.806   5.083
77089NA+    NA+38378  30.914  34.419  13.384
77090NA+    NA+38379   8.278  33.912  10.522
77091NA+    NA+38380   7.291  32.572   1.308
77092NA+    NA+38381   4.846  24.643  12.509
77093NA+    NA+38382  11.268  44.444   1.800
77094NA+    NA+38383  40.369  33.022  14.505
77095NA+    NA+38384  25.143  21.152   2.892
77096NA+    NA+38385  40.889  34.417  14.959
77097NA+    NA+38386  25.538  24.057  12.436
77098NA+    NA+38387  25.081  20.539  14.506
77099NA+    NA+38388  12.352  12.303  10.543
77100NA+    NA+38389  23.224   9.184  13.968
77101NA+    NA+38390  34.371   5.793   0.838
77102NA+    NA+38391  28.618  14.171  14.372
77103NA+    NA+38392  32.983  25.570   0.954
77104NA+    NA+38393  43.447  34.566  12.992
77105NA+    NA+38394  41.354  23.588   0.882
77106NA+    NA+38395  17.243   3.842   2.734
77107NA+    NA+38396   1.325  12.833  10.549
77108NA+    NA+38397  22.721  28.501  12.952
77109NA+    NA+38398   2.429  11.338   1.404
77110NA+    NA+38399   7.387  36.476  12.975
77111NA+    NA+38400  29.073   2.800   3.662
77112NA+    NA+38401  27.446  18.117   4.153
77113NA+    NA+38402  44.871  42.484   4.776
77114NA+    NA+38403   1.395  18.657   4.321
77115NA+    NA+38404  11.260   7.396  12.351
77116NA+    NA+38405  35.907  14.691   3.736
77117NA+    NA+38406  32.887  21.055   2.716
77118NA+    NA+38407   6.429  13.684   0.945
77119NA+    NA+38408  28.579   1.777  14.020
77120NA+    NA+38409   9.300  37.054   2.362
77121NA+    NA+38410  37.073  30.148  11.604
77122NA+    NA+38411   7.764  11.655  13.410
77123NA+    NA+38412   4.442  21.535   4.722
77124NA+    NA+38413   7.372  30.996  10.893
77125NA+    NA+38414  18.286   1.446   2.376
77126NA+    NA+38415   6.372  12.616   0.909
77127NA+    NA+38416  10.377  21.070  11.871
77128NA+    NA+38417  30.599  14.784  11.496
77129NA+    NA+38418  38.001  30.440   0.788
77130NA+    NA+38419  27.513   7.218  11.603
77131NA+    NA+38420  30.998  15.596  12.001
77132NA+    NA+38421   4.773  12.327   0.841
77133NA+    NA+38422   8.878  14.681   1.262
77134NA+    NA+38423  35.586  43.872  11.923
77135NA+    NA+38424  44.457  13.192  11.438
77136NA+    NA+38425   6.262  14.717   2.853
77137NA+    NA+38426  19.652  21.242  10.052
77138NA+    NA+38427   9.886   7.184  12.565
77139NA+    NA+38428  38.071  41.830  14.429
77140NA+    NA+38429   8.819  14.630   2.729
77141NA+    NA+38430  22.056  17.786  10.976
77142NA+    NA+38431  39.958   6.763   0.954
77143NA+    NA+38432   2.327  27.572   0.460
77144NA+    NA+38433  40.427  28.580  14.003
77145NA+    NA+38434  34.407  11.171   1.323
77146NA+    NA+38435  41.410  44.277   1.404
77147NA+    NA+38436   9.248   3.452   0.844
77148NA+    NA+38437   2.335  27.075   2.684
77149NA+    NA+38438  41.967   8.180  10.893
77150NA+    NA+38439  23.203   3.384   3.754
77151NA+    NA+38440   6.680  41.535   1.243
77152NA+    NA+38441  23.111  20.558   4.697
77153NA+    NA+38442  23.617  42.899  13.396
77154NA+    NA+38443  17.171  40.427   0.398
77155NA+    NA+38444  18.641  35.497   1.838
77156NA+    NA+38445  10.661  43.945  10.513
77157NA+    NA+38446  28.975  15.310   2.335
77158NA+    NA+38447  44.923   4.749  11.401
77159NA+    NA+38448  30.417  24.639  13.995
77160NA+    NA+38449   9.161  29.442   0.962
77161NA+    NA+38450  36.473  24.216  12.466
77162NA+    NA+38451  27.022   5.366  14.361
77163NA+    NA+38452  29.665  39.869   0.329
77164NA+    NA+38453   8.205  40.811   0.413
77165NA+    NA+38454  33.078  43.339   4.118
77166NA+    NA+38455   8.399  10.252  13.892
77167NA+    NA+38456  39.873  31.993  12.501
77168NA+    NA+38457  13.628  30.650   2.823
77169NA+    NA+38458  11.367  23.205   0.891
77170NA+    NA+38459  25.196   5.823   3.831
77171NA+    NA+38460  16.643  22.101  14.929
77172NA+    NA+38461  41.308  38.005   1.292
77173NA+    NA+38462  31.958   7.226   1.423
77174NA+    NA+38463   6.277  20.154  13.318
77175NA+    NA+38464  23.133  15.823   1.342
77176NA+    NA+38465  43.487   3.418   1.831
77177NA+    NA+38466  25.539  35.065   3.766
77178NA+    NA+38467  39.520  16.143   0.390
77179NA+    NA+38468  24.196  39.415   1.828
77180NA+    NA+38469  35.924  30.533  13.421
77181NA+    NA+38470  31.964  31.963   3.194
77182NA+    NA+38471  43.867   6.906   0.819
77183NA+    NA+38472  33.412  42.879  14.351
77184NA+    NA+38473  35.549   6.192  11.047
77185NA+    NA+38474   7.906  12.855  11.953
77186NA+    NA+38475  17.229  33.427   0.739
77187NA+    NA+38476   6.395   8.824   2.891
77188NA+    NA+38477   7.314  43.962  12.004
77189NA+    NA+38478  26.702  17.175  14.883
77190NA+    NA+38479  30.991  35.460   0.760
77191NA+    NA+38480  22.079  25.567  13.802
77192NA+    NA+38481  43.865   2.874  14.943
77193NA+    NA+38482  35.965  24.653   3.719
77194NA+    NA+38483  38.433   0.895   2.779
77195NA+    NA+38484   9.333   9.154   0.300
77196NA+    NA+38485  37.851  10.358  12.871
77197NA+    NA+38486  42.903  23.494   3.739
77198NA+    NA+38487   9.169  31.111  13.824
77199NA+    NA+38488  20.219  40.881   4.128
77200NA+    NA+38489  13.718  18.190   3.654
77201NA+    NA+38490  39.830  14.168  10.501
77202NA+    NA+38491  31.037  27.582  13.401
77203NA+    NA+38492  33.880  26.998  13.796
77204NA+    NA+38493   1.836  13.629   1.283
77205NA+    NA+38494  15.234  26.098   2.224
77206NA+    NA+38495  24.018  29.448  12.859
77207NA+    NA+38496  13.250  42.475  11.514
77208NA+    NA+38497  38.051  30.982  12.032
77209NA+    NA+38498  13.286  30.030   2.362
77210NA+    NA+38499   5.233  25.664   0.819
77211NA+    NA+38500  42.940   2.435  13.824
77212NA+    NA+38501  13.840   7.844  14.930
77213NA+    NA+38502  42.032  35.995  14.878
77214NA+    NA+38503  27.061  44.332  13.472
77215NA+    NA+38504  40.456  11.682   0.783
77216NA+    NA+38505  19.653  39.943   4.338
77217NA+    NA+38506  33.554  12.313  10.969
77218NA+    NA+38507  16.132   4.890   3.834
77219NA+    NA+38508  15.294  11.696  10.416
77220NA+    NA+38509  33.422  42.849   3.808
77221NA+    NA+38510  16.313  43.349  13.948
77222NA+    NA+38511  20.180  29.539   4.253
77223NA+    NA+38512  34.528  28.051  11.530
77224NA+    NA+38513   4.851   4.790   4.212
77225NA+    NA+38514  19.047  38.446  14.860
77226NA+    NA+38515  14.773  32.956   2.662
77227NA+    NA+38516  43.432  43.386  11.435
77228NA+    NA+38517  25.041  24.509   4.290
77229NA+    NA+38518  13.124  37.021  14.765
77230NA+    NA+38519  29.062  37.012   1.840
77231NA+    NA+38520  30.163  14.789   0.799
77232NA+    NA+38521  43.409  44.316   0.915
77233NA+    NA+38522  18.628  36.882  12.493
77234NA+    NA+38523   1.796  40.875  11.876
77235NA+    NA+38524   6.719  24.015  13.470
77236NA+    NA+38525  32.619  21.085   0.911
77237NA+    NA+38526  10.210  21.024   4.823
77238NA+    NA+38527   4.328  30.958   1.843
77239NA+    NA+38528  15.197  27.956   0.435
77240NA+    NA+38529  15.144   9.278   1.242
77241NA+    NA+38530  34.487  15.813  11.401
77242NA+    NA+38531   9.742  28.026   3.845
77243NA+    NA+38532  10.812   8.817  13.379
77244NA+    NA+38533  32.957  34.021   1.433
77245NA+    NA+38534  16.724  36.976  10.599
77246NA+    NA+38535  35.877   7.242   1.324
77247NA+    NA+38536  20.592  15.660  13.456
77248NA+    NA+38537  10.769  34.979   1.217
77249NA+    NA+38538  38.071  42.991  10.482
77250NA+    NA+38539  19.217  21.584   2.736
77251NA+    NA+38540  16.276  23.114   1.761
77252NA+    NA+38541  12.807  32.518  10.575
77253NA+    NA+38542  44.823  19.601   4.210
77254NA+    NA+38543  13.225  24.988   9.954
77255NA+    NA+38544  36.929  36.532   2.304
77256NA+    NA+38545  21.718  44.873   2.296
77257NA+    NA+38546  26.500  41.993   2.224
77258NA+    NA+38547   0.355  14.140  10.523
77259NA+    NA+38548   9.797  29.487   0.856
77260NA+    NA+38549   9.271  31.622   0.893
77261NA+    NA+38550   1.860  23.142  14.814
77262NA+    NA+38551  41.975  18.679  13.532
77263NA+    NA+38552  13.742  10.295  13.906
77264NA+    NA+38553  19.577  39.339   1.792
77265NA+    NA+38554  29.546  21.711  13.043
77266NA+    NA+38555  22.089  39.951  11.462
77267NA+    NA+38556  38.900  24.191   0.732
77268NA+    NA+38557  22.172  41.927  11.920
77269NA+    NA+38558  21.062  42.401   0.810
77270NA+    NA+38559   6.186  18.748  14.923
77271NA+    NA+38560  13.685  34.452  14.323
77272NA+    NA+38561  44.369  42.935  10.557
77273NA+    NA+38562   5.874  43.771   1.223
77274NA+    NA+38563  38.402  11.625  10.936
77275NA+    NA+38564  42.399  29.965   1.321
77276NA+    NA+38565  22.152   5.809  12.532
77277NA+    NA+38566   0.759   0.368  10.641
77278NA+    NA+38567  29.125   6.755  12.387
77279NA+    NA+38568  35.360  19.075  14.341
77280NA+    NA+38569  33.485   8.823   1.853
77281NA+    NA+38570  15.823  41.503   3.801
77282NA+    NA+38571  20.661  36.027   1.785
77283NA+    NA+38572   0.885   7.796   0.950
77284NA+    NA+38573  20.183   3.876  10.613
77285NA+    NA+38574  38.887  12.252   0.384
77286NA+    NA+38575  11.636  38.939  10.628
77287NA+    NA+38576   8.358  28.567   2.812
77288NA+    NA+38577  38.046  33.605   1.346
77289NA+    NA+38578  37.012   6.699   1.791
77290NA+    NA+38579  39.449  25.569  10.621
77291NA+    NA+38580  37.374   6.697  14.341
77292NA+    NA+38581   7.319  41.297   4.227
77293NA+    NA+38582  14.319   4.707  12.398
77294NA+    NA+38583  38.452  31.614   1.382
77295NA+    NA+38584  25.591   8.246  11.603
77296NA+    NA+38585  36.860   5.922  11.373
77297NA+    NA+38586  29.043   9.305  13.835
77298NA+    NA+38587  16.739  41.403   4.116
77299NA+    NA+38588  32.510  27.593  11.518
77300NA+    NA+38589  33.910  44.301  11.437
77301NA+    NA+38590  18.657  13.148  12.540
77302NA+    NA+38591  12.713  25.140   1.803
77303NA+    NA+38592  15.656  22.132  12.537
77304NA+    NA+38593  44.805  25.651   4.291
77305NA+    NA+38594  37.967  38.543   1.331
77306NA+    NA+38595  37.073  14.182  13.495
77307NA+    NA+38596  32.982  25.071  13.836
77308NA+    NA+38597  40.987  43.778  13.014
77309NA+    NA+38598  30.643  14.677  10.984
77310NA+    NA+38599  31.613  41.294  12.081
77311NA+    NA+38600  43.852  38.882   3.649
77312NA+    NA+38601  15.130  34.434  10.895
77313NA+    NA+38602   5.771   6.269   4.698
77314NA+    NA+38603  30.494   3.895  10.587
77315NA+    NA+38604   3.875  33.967  10.563
77316NA+    NA+38605  10.644  36.861   3.775
77317NA+    NA+38606  36.496   2.848   4.759
77318NA+    NA+38607  31.126  19.557   5.225
77319NA+    NA+38608  26.526  41.790  13.981
77320NA+    NA+38609   8.370  14.163  13.456
77321NA+    NA+38610  27.535  21.239  14.866
77322NA+    NA+38611  34.451  31.897  14.962
77323NA+    NA+38612  16.728   1.334   1.758
77324NA+    NA+38613   8.703  11.832   2.895
77325NA+    NA+38614  40.997  44.754   1.901
77326NA+    NA+38615   3.414  14.274   2.195
77327NA+    NA+38616  32.998   5.812  10.905
77328NA+    NA+38617  28.678   5.892   3.750
77329NA+    NA+38618  30.094  28.128   0.874
77330NA+    NA+38619  17.179  36.524   1.267
77331NA+    NA+38620   8.336  36.054  12.527
77332NA+    NA+38621  28.006  41.811   1.728
77333NA+    NA+38622  44.953   1.895   0.749
77334NA+    NA+38623  36.008  43.353  12.944
77335NA+    NA+38624  27.176   4.294   3.222
77336NA+    NA+38625   9.869  33.527  11.454
77337NA+    NA+38626  13.601  34.115   5.664
77338NA+    NA+38627   9.679  24.029   2.666
77339NA+    NA+38628  21.511  29.566  10.431
77340NA+    NA+38629  39.445  10.662  14.388
77341NA+    NA+38630  23.521  24.022   1.732
77342NA+    NA+38631  21.644  20.576  13.404
77343NA+    NA+38632   8.406  37.454   1.291
77344NA+    NA+38633  18.721   6.824  12.503
77345NA+    NA+38634  24.011   1.852  13.795
77346NA+    NA+38635  31.072  37.844  12.827
77347NA+    NA+38636   5.817  10.332   4.755
77348NA+    NA+38637  30.065  26.104  14.987
77349NA+    NA+38638  15.158   5.215   0.420
77350NA+    NA+38639  33.043  31.563   4.206
77351NA+    NA+38640  10.381  24.609   0.737
77352NA+    NA+38641  31.538  22.621  14.932
77353NA+    NA+38642  43.326  34.460   0.418
77354NA+    NA+38643   2.361  43.323  12.435
77355NA+    NA+38644  24.132  37.878  13.479
77356NA+    NA+38645  37.515   7.413  10.511
77357NA+    NA+38646  41.537  21.087  10.897
77358NA+    NA+38647  20.128  37.479   2.729
77359NA+    NA+38648  18.668  25.685  11.009
77360NA+    NA+38649   4.346   1.862  12.515
77361NA+    NA+38650  19.285   5.852  10.952
77362NA+    NA+38651  22.081  13.171   0.446
77363NA+    NA+38652  11.229  25.169  13.478
77364NA+    NA+38653  11.838  21.170  12.021
77365NA+    NA+38654   5.803   7.405   3.828
77366NA+    NA+38655  26.634  38.856   0.739
77367NA+    NA+38656  18.628  40.432   1.721
77368NA+    NA+38657  34.905   0.390  10.008
77369NA+    NA+38658  29.664  19.698  11.967
77370NA+    NA+38659  31.964  16.212   0.800
77371NA+    NA+38660   3.448  26.516  12.473
77372NA+    NA+38661  16.740   2.910   4.207
77373NA+    NA+38662  23.548  29.032  13.955
77374NA+    NA+38663  37.960  17.728  11.441
77375NA+    NA+38664  30.076   7.704   0.919
77376NA+    NA+38665  37.008  20.254  11.595
77377NA+    NA+38666  14.738   1.236   3.811
77378NA+    NA+38667  22.566  19.685   3.736
77379NA+    NA+38668  32.972  29.462  13.986
77380NA+    NA+38669  13.712  17.773   0.773
77381NA+    NA+38670  33.928  25.180   1.792
77382NA+    NA+38671  26.536  33.082   0.447
77383NA+    NA+38672  23.522  27.660  13.822
77384NA+    NA+38673  19.081  32.524   2.771
77385NA+    NA+38674  11.770  17.266   4.348
77386NA+    NA+38675  19.704   8.752   4.180
77387NA+    NA+38676  25.513  22.658  12.415
77388NA+    NA+38677  16.608  41.447   4.838
77389NA+    NA+38678  35.043  14.113  10.441
77390NA+    NA+38679   3.719  19.158   2.360
77391NA+    NA+38680  23.011  38.407   0.923
77392NA+    NA+38681  21.245  43.846   3.150
77393NA+    NA+38682  13.631  17.275   3.659
77394NA+    NA+38683  38.979  21.262   0.779
77395NA+    NA+38684  19.668  25.193   1.901
77396NA+    NA+38685  28.991  16.304   0.411
77397NA+    NA+38686  37.442  24.222  11.392
77398NA+    NA+38687  29.941   2.727  14.309
77399NA+    NA+38688  21.142  31.481   1.831
77400NA+    NA+38689  40.537  12.789  14.857
77401NA+    NA+38690  15.733  16.786  13.809
77402NA+    NA+38691  20.763  38.387  10.538
77403NA+    NA+38692  12.124  30.923   3.820
77404NA+    NA+38693   3.386  44.783   4.227
77405NA+    NA+38694  19.176  43.297  14.457
77406NA+    NA+38695  44.831  19.232   0.431
77407NA+    NA+38696  22.664  43.780   4.234
77408NA+    NA+38697  37.885  25.558  12.907
77409NA+    NA+38698  22.598  33.003  13.838
77410NA+    NA+38699  35.490  30.634  11.448
77411NA+    NA+38700  44.858  42.867   0.741
77412NA+    NA+38701   0.818  44.980   2.221
77413NA+    NA+38702   1.423  16.727  11.377
77414NA+    NA+38703   5.839  12.312  14.919
77415NA+    NA+38704  26.544   8.212   2.757
77416NA+    NA+38705  31.439   0.801   3.870
77417NA+    NA+38706  33.928  38.879   3.278
77418NA+    NA+38707  39.435  30.494  12.457
77419NA+    NA+38708  43.360  14.257   0.280
77420NA+    NA+38709  40.029  34.447   2.702
77421NA+    NA+38710   2.815  35.441  13.403
77422NA+    NA+38711  26.011  28.946  12.414
77423NA+    NA+38712  20.586  26.152  10.637
77424NA+    NA+38713  43.486  43.946   4.742
77425NA+    NA+38714  30.553  43.420   2.726
77426NA+    NA+38715  13.745  10.325   2.248
77427NA+    NA+38716  35.964  19.228   3.160
77428NA+    NA+38717  25.676  36.069   0.298
77429NA+    NA+38718  32.430   6.867   2.796
77430NA+    NA+38719  14.168  34.077   4.681
77431NA+    NA+38720  20.252  20.634  13.008
77432NA+    NA+38721   3.296  40.353   3.828
77433NA+    NA+38722  30.001  44.294  12.923
77434NA+    NA+38723  38.960   9.783   3.691
77435NA+    NA+38724  43.498   1.253  12.079
77436NA+    NA+38725  12.700   7.699   2.690
77437NA+    NA+38726  27.138  39.394  13.494
77438NA+    NA+38727  42.336  28.529   0.311
77439NA+    NA+38728  17.656  19.068   5.202
77440NA+    NA+38729  26.655  30.515  11.544
77441NA+    NA+38730  14.135  31.416   4.645
77442NA+    NA+38731  39.353  11.772  10.971
77443NA+    NA+38732  23.172   6.344   3.677
77444NA+    NA+38733  22.111  39.012  13.827
77445NA+    NA+38734  20.624  17.655   4.693
77446NA+    NA+38735  18.563  41.339   1.794
77447NA+    NA+38736  24.201  24.526   2.716
77448NA+    NA+38737   1.313  40.943   4.272
77449NA+    NA+38738  41.309  33.604   2.341
77450NA+    NA+38739  27.473  36.018  10.526
77451NA+    NA+38740   9.711  19.142  13.501
77452NA+    NA+38741   8.407  31.507   0.320
77453NA+    NA+38742  42.348  17.723   4.801
77454NA+    NA+38743  31.574  42.420   0.780
77455NA+    NA+38744  36.031   0.425  14.507
77456NA+    NA+38745  34.382  35.535   1.381
77457NA+    NA+38746  23.150  14.781   2.870
77458NA+    NA+38747  34.911  43.933  12.470
77459NA+    NA+38748  10.204  26.989   4.802
77460NA+    NA+38749  35.040  26.575  10.513
77461NA+    NA+38750  11.330   4.800   1.701
77462NA+    NA+38751  22.615  27.558   2.711
77463NA+    NA+38752  14.798   0.293  14.376
77464NA+    NA+38753  29.620  22.693   4.758
77465NA+    NA+38754  43.958   8.399  14.317
77466NA+    NA+38755  30.018  26.187   2.704
77467NA+    NA+38756  27.623  41.324   4.254
77468NA+    NA+38757  29.516  33.019   3.850
77469NA+    NA+38758   1.948   8.283  10.983
77470NA+    NA+38759  26.532   0.301  14.887
77471NA+    NA+38760  24.577  12.331  13.847
77472NA+    NA+38761  32.968  24.534   4.218
77473NA+    NA+38762  16.648  26.463   2.666
77474NA+    NA+38763  44.980  13.614   1.895
77475NA+    NA+38764   2.891   5.368   2.289
77476NA+    NA+38765  21.671  43.497  10.911
77477NA+    NA+38766  41.414  21.662  14.772
77478NA+    NA+38767   2.870   0.307  12.453
77479NA+    NA+38768  12.214  42.989   0.828
77480NA+    NA+38769  16.739  15.659   1.893
77481NA+    NA+38770  13.189  12.234   1.442
77482NA+    NA+38771   2.724  27.524   1.345
77483NA+    NA+38772  43.279   1.442  12.456
77484NA+    NA+38773  15.800   8.756   4.772
77485NA+    NA+38774  37.007   2.916  12.023
77486NA+    NA+38775  29.106  27.475  13.803
77487NA+    NA+38776  39.333  10.318   4.679
77488NA+    NA+38777   6.253  38.432   1.360
77489NA+    NA+38778   3.845  40.467  10.902
77490NA+    NA+38779   4.912  31.929  12.517
77491NA+    NA+38780   0.454   0.745  10.594
77492NA+    NA+38781  11.675   5.926   3.679
77493NA+    NA+38782   5.246  15.777  13.941
77494NA+    NA+38783   8.669  16.767  13.524
77495NA+    NA+38784  40.537   0.981  13.510
77496NA+    NA+38785   2.752  22.695  12.880
77497NA+    NA+38786  15.642  40.809   4.211
77498NA+    NA+38787  27.608  38.327  12.480
77499NA+    NA+38788  42.900   5.708   0.827
77500NA+    NA+38789   7.186  34.049   0.813
77501NA+    NA+38790  15.779  14.224   2.178
77502NA+    NA+38791  31.064  23.651   3.635
77503NA+    NA+38792   8.202  15.692  12.519
77504NA+    NA+38793  40.513  23.077   4.128
77505NA+    NA+38794  22.670   9.868  13.409
77506NA+    NA+38795   3.928  29.970   4.798
77507NA+    NA+38796  34.415   0.315  13.865
77508NA+    NA+38797  28.049   1.741   3.699
77509NA+    NA+38798  31.105   2.949  14.359
77510NA+    NA+38799  26.182  24.675   3.359
77511NA+    NA+38800  34.464  24.661   3.263
77512NA+    NA+38801  20.619  34.056   2.890
77513NA+    NA+38802  29.052  23.707  11.873
77514NA+    NA+38803  41.409  40.849  14.766
77515NA+    NA+38804   9.239  10.651  10.577
77516NA+    NA+38805  24.204  16.692   4.652
77517NA+    NA+38806  12.629   6.278   0.337
77518NA+    NA+38807  12.651  28.929   2.834
77519NA+    NA+38808  43.435  19.262  13.491
77520NA+    NA+38809  33.527  23.665   3.361
77521NA+    NA+38810  24.626  44.457  13.903
77522NA+    NA+38811  30.449   3.721  11.884
77523NA+    NA+38812   3.393   7.360   1.730
77524NA+    NA+38813   4.728  17.719   0.357
77525NA+    NA+38814   3.333  30.048   0.884
77526NA+    NA+38815  23.159  30.512  11.571
77527NA+    NA+38816  31.077   0.364  14.855
77528NA+    NA+38817  22.537  35.947   2.761
77529NA+    NA+38818  17.255  31.647   4.224
77530NA+    NA+38819  44.415   0.468   9.982
77531NA+    NA+38820   6.283   6.790   1.923
77532NA+    NA+38821  19.653   6.884   0.888
77533NA+    NA+38822  13.349  31.928   3.209
77534NA+    NA+38823   7.747   0.391   4.158
77535NA+    NA+38824  43.925   0.851  12.902
77536NA+    NA+38825   9.835   0.326   2.744
77537NA+    NA+38826   0.356  30.080   1.798
77538NA+    NA+38827  16.791  40.845   3.850
77539NA+    NA+38828  16.251  42.397  12.991
77540NA+    NA+38829  35.911  15.630   0.474
77541NA+    NA+38830  17.083   3.385   4.758
77542NA+    NA+38831  24.693  11.321   3.174
77543NA+    NA+38832  20.733   4.394   0.965
77544NA+    NA+38833  43.950  19.148   0.318
77545NA+    NA+38834   4.763   6.918   0.449
77546NA+    NA+38835  36.950  23.088   3.182
77547NA+    NA+38836  12.305  44.873  13.959
77548NA+    NA+38837   0.929  16.167  13.416
77549NA+    NA+38838  38.513  40.547   4.674
77550NA+    NA+38839  33.909  36.515   1.307
77551NA+    NA+38840  24.012  30.036  13.871
77552NA+    NA+38841  28.522  20.553  11.104
77553NA+    NA+38842   0.426  20.730   4.644
77554NA+    NA+38843   0.875   7.300  11.949
77555NA+    NA+38844  25.622  10.190  12.356
77556NA+    NA+38845  25.179  20.182   1.718
77557NA+    NA+38846  29.054   0.328  14.476
77558NA+    NA+38847   5.395  18.702   2.880
77559NA+    NA+38848  26.528  31.049   4.311
77560NA+    NA+38849  19.682  35.471   0.869
77561NA+    NA+38850   7.275  22.521  10.996
77562NA+    NA+38851  37.065  42.816  13.539
77563NA+    NA+38852  10.323   6.828   4.161
77564NA+    NA+38853  38.906  10.384  11.889
77565NA+    NA+38854  37.410  18.759   1.746
77566NA+    NA+38855  21.075   4.215  14.371
77567NA+    NA+38856   3.953  21.535   1.419
77568NA+    NA+38857   5.704  17.106  12.085
77569NA+    NA+38858   0.304   9.697   2.345
77570NA+    NA+38859   7.800   7.745   0.441
77571NA+    NA+38860  20.708  42.505  14.796
77572NA+    NA+38861  25.057  27.573  11.026
77573NA+    NA+38862  21.685   4.254   3.331
77574NA+    NA+38863  43.279  39.011   0.772
77575NA+    NA+38864  43.847   9.655   0.471
77576NA+    NA+38865   4.276  38.505   0.464
77577NA+    NA+38866   5.327  35.590  14.402
77578NA+    NA+38867  14.096  38.439  12.471
77579NA+    NA+38868   5.889  44.337   1.780
77580NA+    NA+38869  27.543  29.520  11.580
77581NA+    NA+38870  28.181  44.318  10.607
77582NA+    NA+38871   1.876   2.414   4.230
77583NA+    NA+38872  41.403  16.141  13.870
77584NA+    NA+38873  22.028  41.000   4.705
77585NA+    NA+38874  17.555  37.401  13.025
77586NA+    NA+38875  15.620  21.661   4.124
77587NA+    NA+38876   9.272  29.426   0.466
77588NA+    NA+38877  12.286  30.594  10.515
77589NA+    NA+38878  38.994  37.902   3.356
77590NA+    NA+38879  18.154   8.199   3.797
77591NA+    NA+38880  10.675  44.774   3.750
77592NA+    NA+38881   8.844   4.800   3.382
77593NA+    NA+38882  12.661  28.587   3.770
77594NA+    NA+38883   9.839  24.517  14.850
77595NA+    NA+38884   2.779  44.922   4.273
77596NA+    NA+38885  14.752  28.632  13.848
77597NA+    NA+38886  34.946  44.458  11.401
77598NA+    NA+38887  18.684  18.117  10.014
77599NA+    NA+38888   5.419  31.610   2.850
77600NA+    NA+38889  42.371  18.665   4.138
77601NA+    NA+38890  36.960  17.759  14.772
77602NA+    NA+38891  43.813  23.662  10.909
77603NA+    NA+38892  20.764   9.709   2.878
77604NA+    NA+38893  12.240  22.006  12.536
77605NA+    NA+38894  13.793  23.074   5.169
77606NA+    NA+38895  14.282  35.411  12.445
77607NA+    NA+38896  18.181  32.994  13.791
77608NA+    NA+38897  13.310   6.728   2.809
77609NA+    NA+38898  21.720  37.912  10.468
77610NA+    NA+38899   0.347  43.922  12.964
77611NA+    NA+38900  21.139   1.354  13.440
77612NA+    NA+38901  37.883  29.989   3.745
77613NA+    NA+38902  25.075  38.552  13.000
77614NA+    NA+38903  11.228  21.069  11.007
77615NA+    NA+38904   9.769  39.356  11.545
77616NA+    NA+38905  40.825  23.533  11.005
77617NA+    NA+38906  27.622   2.930  11.532
77618NA+    NA+38907  21.617  13.778  12.072
77619NA+    NA+38908  42.355  28.002   2.675
77620NA+    NA+38909   2.298  34.024   1.261
77621NA+    NA+38910  29.131   3.924  12.576
77622NA+    NA+38911   7.766  20.106  14.998
77623NA+    NA+38912  16.101  15.768   2.264
77624NA+    NA+38913  13.191   0.875  13.440
77625NA+    NA+38914   3.461  17.178  11.542
77626NA+    NA+38915  42.446  34.515  11.904
77627NA+    NA+38916  36.095  10.138  12.530
77628NA+    NA+38917   9.332  25.050  14.954
77629NA+    NA+38918  36.442  21.531   0.412
77630NA+    NA+38919  34.602   1.292  12.495
77631NA+    NA+38920  31.128  37.968  13.464
77632NA+    NA+38921  32.921  32.953   3.195
77633NA+    NA+38922  17.558  35.390   0.323
77634NA+    NA+38923   5.304  30.045  11.994
77635NA+    NA+38924  30.965  44.466   4.254
77636NA+    NA+38925  17.712  36.024  13.370
77637NA+    NA+38926   9.380   5.214  14.908
77638NA+    NA+38927  18.284  43.844   2.879
77639NA+    NA+38928   5.854   8.351  11.064
77640NA+    NA+38929  13.254  15.670   1.795
77641NA+    NA+38930  36.042  32.617  14.990
77642NA+    NA+38931  43.467  31.616  13.907
77643NA+    NA+38932  31.142  29.133   2.880
77644NA+    NA+38933  35.439  30.474   3.332
77645NA+    NA+38934  13.797  34.053   5.094
77646NA+    NA+38935  13.164  19.055   4.176
77647NA+    NA+38936   4.345  10.183   3.787
77648NA+    NA+38937  44.422   4.890   1.874
77649NA+    NA+38938  15.211  31.976   0.890
77650NA+    NA+38939  11.209   2.463  12.402
77651NA+    NA+38940  32.976  16.177   4.312
77652NA+    NA+38941   8.889  29.954   4.263
77653NA+    NA+38942  21.153  20.101  12.874
77654NA+    NA+38943  42.397  43.869   2.701
77655NA+    NA+38944  44.364  24.711   5.101
77656NA+    NA+38945   2.399  43.440  11.456
77657NA+    NA+38946   9.280  18.105  10.087
77658NA+    NA+38947  23.188   6.822   1.794
77659NA+    NA+38948  17.266   3.942   3.236
77660NA+    NA+38949  24.085  19.188  11.471
77661NA+    NA+38950  27.489  27.572  12.903
77662NA+    NA+38951  22.122  41.515   1.364
77663NA+    NA+38952  26.637   8.802   0.424
77664NA+    NA+38953  11.629  31.629   0.311
77665NA+    NA+38954  39.318  22.010   1.281
77666NA+    NA+38955  26.703  29.470  13.946
77667NA+    NA+38956  15.313  11.764  11.516
77668NA+    NA+38957  30.491  39.405  11.043
77669NA+    NA+38958  20.119  36.533  12.868
77670NA+    NA+38959  44.782   6.357  12.898
77671NA+    NA+38960  25.033   8.660  14.452
77672NA+    NA+38961  26.614   2.753  11.983
77673NA+    NA+38962  29.493  14.169  11.455
77674NA+    NA+38963  12.283   5.768   2.783
77675NA+    NA+38964   2.776  41.302   2.183
77676NA+    NA+38965   4.921  18.629   4.159
77677NA+    NA+38966  11.201   9.721   2.679
77678NA+    NA+38967   7.393  23.633   2.344
77679NA+    NA+38968  22.088   7.694  11.395
77680NA+    NA+38969  42.526   8.287  12.995
77681NA+    NA+38970   1.751  34.059   1.797
77682NA+    NA+38971   6.226  34.919  14.015
77683NA+    NA+38972  36.036  17.607   0.453
77684NA+    NA+38973  12.210  13.321  12.038
77685NA+    NA+38974  33.419  40.036  14.328
77686NA+    NA+38975   5.836  21.200  11.390
77687NA+    NA+38976   2.961  20.606  13.878
77688NA+    NA+38977  15.293   5.877   4.341
77689NA+    NA+38978  44.376  28.014   2.404
77690NA+    NA+38979   9.644   2.924  10.448
77691NA+    NA+38980  19.278  43.927   3.352
77692NA+    NA+38981  31.970  23.174   3.843
77693NA+    NA+38982  24.995  44.781  10.888
77694NA+    NA+38983  12.245   3.889   4.152
77695NA+    NA+38984   6.237   8.175  12.893
77696NA+    NA+38985  33.530   1.310  11.088
77697NA+    NA+38986  12.239  19.575   2.825
77698NA+    NA+38987   1.453  17.123   3.242
77699NA+    NA+38988  35.978  27.598  14.794
77700NA+    NA+38989  42.468   4.382  13.401
77701NA+    NA+38990  30.154  16.115   2.351
77702NA+    NA+38991  42.447  28.474   2.394
77703NA+    NA+38992  20.209  10.806   3.794
77704NA+    NA+38993   5.853   5.906   0.774
77705NA+    NA+38994  42.898  21.157  14.789
77706NA+    NA+38995   6.313  24.147   0.259
77707NA+    NA+38996  26.023  30.618  13.806
77708NA+    NA+38997  15.241  11.802   1.905
77709NA+    NA+38998   4.230   1.878   1.279
77710NA+    NA+38999  14.657  23.639   2.237
77711NA+    NA+39000  32.037  15.770   2.757
77712NA+    NA+39001  19.577   7.262  12.047
77713NA+    NA+39002  36.080  18.634  14.972
77714NA+    NA+39003  23.218  42.827  11.942
77715NA+    NA+39004   1.884  30.651  12.996
77716NA+    NA+39005  15.164   9.380  14.509
77717NA+    NA+39006  43.309  28.681   3.358
77718NA+    NA+39007   6.878  17.586  14.850
77719NA+    NA+39008  12.124  12.694  13.905
77720NA+    NA+39009  43.283  26.581   0.840
77721NA+    NA+39010  36.019  10.800  13.792
77722NA+    NA+39011   6.820  29.084   2.719
77723NA+    NA+39012  11.725  42.402   4.721
77724NA+    NA+39013  44.988   2.401  10.480
77725NA+    NA+39014   7.907  30.021  13.037
77726NA+    NA+39015   9.753  18.139   3.310
77727NA+    NA+39016   2.863   0.309  13.508
77728NA+    NA+39017  11.192   2.387   3.196
77729NA+    NA+39018  39.431  35.517   0.873
77730NA+    NA+39019  30.118  28.649   2.811
77731NA+    NA+39020   6.746   7.320   4.665
77732NA+    NA+39021  41.299   0.355   0.921
77733NA+    NA+39022  36.915  43.887   0.902
77734NA+    NA+39023   8.388  32.105   4.696
77735NA+    NA+39024  35.072  26.019  12.432
77736NA+    NA+39025  41.421   1.742   1.318
77737NA+    NA+39026   0.429  24.075  11.072
77738NA+    NA+39027  39.858  11.649   1.906
77739NA+    NA+39028  44.939  10.774  12.486
77740NA+    NA+39029   6.700  17.689  12.971
77741NA+    NA+39030  32.619  31.541  12.567
77742NA+    NA+39031  23.160  42.460  14.889
77743NA+    NA+39032  44.495  37.866   1.340
77744NA+    NA+39033  21.727  32.421  14.941
77745NA+    NA+39034   2.938  22.023   4.616
77746NA+    NA+39035  26.091  22.633   3.647
77747NA+    NA+39036  19.591  32.916   3.712
77748NA+    NA+39037  15.287  15.659  14.392
77749NA+    NA+39038  21.717  28.534  14.304
77750NA+    NA+39039  30.523  21.230   0.756
77751NA+    NA+39040  36.874  15.117   2.237
77752NA+    NA+39041  13.283  39.492   3.806
77753NA+    NA+39042  38.850  44.961   1.294
77754NA+    NA+39043  21.187  12.760  10.601
77755NA+    NA+39044   2.320   5.241   3.276
77756NA+    NA+39045  39.517   3.231  14.918
77757NA+    NA+39046   9.244  36.942  14.780
77758NA+    NA+39047  11.834  44.497   0.280
77759NA+    NA+39048  39.405  42.894  13.968
77760NA+    NA+39049  33.550  35.935   0.890
77761NA+    NA+39050   4.313  44.759   0.842
77762NA+    NA+39051   5.243  13.232  11.125
77763NA+    NA+39052  35.908  22.673  12.378
77764NA+    NA+39053  34.449  40.388  12.450
77765NA+    NA+39054  33.564   5.388  13.918
77766NA+    NA+39055   1.745  11.866   0.754
77767NA+    NA+39056  18.595  30.921   2.179
77768NA+    NA+39057   9.793  38.065  11.516
77769NA+    NA+39058  44.890  35.561  11.890
77770NA+    NA+39059  14.318  11.328   4.774
77771NA+    NA+39060  21.160  26.963  14.303
77772NA+    NA+39061  38.502  11.681  12.044
77773NA+    NA+39062   2.462  32.400  12.377
77774NA+    NA+39063   7.686  28.999  14.305
77775NA+    NA+39064   4.215  19.771   4.779
77776NA+    NA+39065  17.781  10.175   3.643
77777NA+    NA+39066  22.995   8.790   2.838
77778NA+    NA+39067   3.449  17.711  14.316
77779NA+    NA+39068  40.867  24.629   2.407
77780NA+    NA+39069  27.624  34.498  14.390
77781NA+    NA+39070   3.892   9.333  14.414
77782NA+    NA+39071  16.743   6.280  10.912
77783NA+    NA+39072  22.051  17.123   1.363
77784NA+    NA+39073  15.121  40.395  13.483
77785NA+    NA+39074  37.850  33.880   1.781
77786NA+    NA+39075   3.454  16.675   3.715
77787NA+    NA+39076   8.216  11.663   4.700
77788NA+    NA+39077  39.324  31.519  12.940
77789NA+    NA+39078   8.282  16.129  10.611
77790NA+    NA+39079   6.848  21.641   3.659
77791NA+    NA+39080   4.255  42.920  13.351
77792NA+    NA+39081  42.331  43.277   2.378
77793NA+    NA+39082   8.396  17.712  10.566
77794NA+    NA+39083  21.158   5.896   4.630
77795NA+    NA+39084  29.513  11.687  12.912
77796NA+    NA+39085  13.191  33.496  13.373
77797NA+    NA+39086   5.435  34.382   1.429
77798NA+    NA+39087   2.282  31.584   3.383
77799NA+    NA+39088   2.366  43.378   4.242
77800NA+    NA+39089  31.640  25.652  11.929
77801NA+    NA+39090  24.581  42.418   2.371
77802NA+    NA+39091   6.760  21.747  14.976
77803NA+    NA+39092  43.936  11.191   0.897
77804NA+    NA+39093  17.559  42.288  14.810
77805NA+    NA+39094  21.727  24.126  12.467
77806NA+    NA+39095   4.241  38.979   3.701
77807NA+    NA+39096  13.326  28.990   0.421
77808NA+    NA+39097  35.071  25.106   3.258
77809NA+    NA+39098  44.006   2.725   0.901
77810NA+    NA+39099  15.183  17.631  11.105
77811NA+    NA+39100  25.164  21.724   4.169
77812NA+    NA+39101   8.878  34.898   4.188
77813NA+    NA+39102   7.850  26.697  14.459
77814NA+    NA+39103  36.093  42.991  14.919
77815NA+    NA+39104  11.363  11.297  13.457
77816NA+    NA+39105   2.310  27.189  14.502
77817NA+    NA+39106  29.579  33.890  11.460
77818NA+    NA+39107  41.860  36.481   2.744
77819NA+    NA+39108  16.093  32.080  11.922
77820NA+    NA+39109  38.530  27.625  14.774
77821NA+    NA+39110  24.618  34.462   1.328
77822NA+    NA+39111  16.179   8.813  14.427
77823NA+    NA+39112  21.723  24.494  10.923
77824NA+    NA+39113  22.183  24.116  10.965
77825NA+    NA+39114  27.680  33.111  10.514
77826NA+    NA+39115  33.042  21.260   3.226
77827NA+    NA+39116  36.972   9.819  13.011
77828NA+    NA+39117  20.066  43.382  11.980
77829NA+    NA+39118  41.971  31.520  14.894
77830NA+    NA+39119  23.142  23.180  10.411
77831NA+    NA+39120  21.755   4.877   1.696
77832NA+    NA+39121  29.072  32.616  13.961
77833NA+    NA+39122  44.805   8.890  13.518
77834NA+    NA+39123   5.300  33.494   3.229
77835NA+    NA+39124  42.976  34.911  11.531
77836NA+    NA+39125  25.177   8.316  14.324
77837NA+    NA+39126  33.066  13.772  13.453
77838NA+    NA+39127  29.635  16.616   1.446
77839NA+    NA+39128  39.819   7.909   2.367
77840NA+    NA+39129  29.969  11.716  12.863
77841NA+    NA+39130  37.940   5.407   4.229
77842NA+    NA+39131  44.375  16.784  10.959
77843NA+    NA+39132  35.514  44.915  12.005
77844NA+    NA+39133  26.049  26.573   3.823
77845NA+    NA+39134  41.902  33.986   0.459
77846NA+    NA+39135  43.891  37.877   2.349
77847NA+    NA+39136  30.919   8.878   3.193
77848NA+    NA+39137  26.692  13.658   1.363
77849NA+    NA+39138  26.666   9.836   2.368
77850NA+    NA+39139   0.936   2.336  13.007
77851NA+    NA+39140  27.195  17.285   4.182
77852NA+    NA+39141  33.987  38.032  13.917
77853NA+    NA+39142  19.141  27.451  12.056
77854NA+    NA+39143  43.916  41.386  14.411
77855NA+    NA+39144  41.795  35.860  10.889
77856NA+    NA+39145   3.917   6.371  14.356
77857NA+    NA+39146  36.096  24.201  11.553
77858NA+    NA+39147  35.881  38.456  13.377
77859NA+    NA+39148  38.345  22.112  13.395
77860NA+    NA+39149  19.047   7.379   4.322
77861NA+    NA+39150  12.842   8.379   0.837
77862NA+    NA+39151   9.690  22.073   0.447
77863NA+    NA+39152  40.886  36.896   1.878
77864NA+    NA+39153  16.092   2.442  11.129
77865NA+    NA+39154  42.803   4.321   2.869
77866NA+    NA+39155  10.683  23.548   0.927
77867NA+    NA+39156   0.969  44.413   5.298
77868NA+    NA+39157  14.792  34.420  13.036
77869NA+    NA+39158   5.928  36.396  14.294
77870NA+    NA+39159  44.008  14.613  14.808
77871NA+    NA+39160  26.623  31.925   0.251
77872NA+    NA+39161   6.219  42.422  12.443
77873NA+    NA+39162  39.502   5.302  11.005
77874NA+    NA+39163  26.532   8.742   3.314
77875NA+    NA+39164  26.094  40.812  11.075
77876NA+    NA+39165  14.604  21.678   2.294
77877NA+    NA+39166   5.192  37.925   4.727
77878NA+    NA+39167  38.833   3.423   1.331
77879NA+    NA+39168  43.434  24.988  13.534
77880NA+    NA+39169  38.374  34.069   0.826
77881NA+    NA+39170  26.484  32.059   4.181
77882NA+    NA+39171  12.356  29.169   0.922
77883NA+    NA+39172   8.676  15.136  13.012
77884NA+    NA+39173   0.905  26.102   2.723
77885NA+    NA+39174   1.276  41.380  12.528
77886NA+    NA+39175  12.234  42.309  11.908
77887NA+    NA+39176   5.767  22.119  11.449
77888NA+    NA+39177  10.212   0.797   2.754
77889NA+    NA+39178  29.558   4.780   0.433
77890NA+    NA+39179  36.463  37.948  14.998
77891NA+    NA+39180  12.803   1.911  14.468
77892NA+    NA+39181  23.712  16.581  11.088
77893NA+    NA+39182  15.155  19.184   2.351
77894NA+    NA+39183  16.662  23.657   1.292
77895NA+    NA+39184  16.123  24.590   0.818
77896NA+    NA+39185  35.018  30.477   4.830
77897NA+    NA+39186   7.227   0.436  11.502
77898NA+    NA+39187  10.278  43.928  14.491
77899NA+    NA+39188  15.086  25.656  10.065
77900NA+    NA+39189  20.113  17.758   3.277
77901NA+    NA+39190  33.090  27.019   3.277
77902NA+    NA+39191  19.749  24.217  11.118
77903NA+    NA+39192  34.042  32.002  14.336
77904NA+    NA+39193  23.059   8.277   0.777
77905NA+    NA+39194  39.527  35.577   3.803
77906NA+    NA+39195   0.453  20.695   4.284
77907NA+    NA+39196  39.055   8.361  10.562
77908NA+    NA+39197  10.222  44.476   4.750
77909NA+    NA+39198  39.501  22.599  14.401
77910NA+    NA+39199  10.155   5.769   4.203
77911NA+    NA+39200   0.494  22.024   3.193
77912NA+    NA+39201  17.179  24.662   3.742
77913NA+    NA+39202  24.638  32.497   0.418
77914NA+    NA+39203  24.089   3.356  12.969
77915NA+    NA+39204  37.367  15.290  12.474
77916NA+    NA+39205  42.865  34.471   0.797
77917NA+    NA+39206   6.845   3.243   0.387
77918NA+    NA+39207   9.226  31.904  10.063
77919NA+    NA+39208   7.691  17.098   4.156
77920NA+    NA+39209  44.384  10.839   0.478
77921NA+    NA+39210  12.733  31.563  12.870
77922NA+    NA+39211  17.647  26.085  11.022
77923NA+    NA+39212  33.092   7.690  11.546
77924NA+    NA+39213   6.353   7.413  11.536
77925NA+    NA+39214  23.530  21.667  14.372
77926NA+    NA+39215  37.864  27.095  14.816
77927NA+    NA+39216  35.925  20.103  11.992
77928NA+    NA+39217  29.461   3.953  10.918
77929NA+    NA+39218   0.492   4.719   2.791
77930NA+    NA+39219  43.375  35.472   3.837
77931NA+    NA+39220  35.946  24.224  13.890
77932NA+    NA+39221  44.949  38.035  10.565
77933NA+    NA+39222  19.667  22.520   2.407
77934NA+    NA+39223  21.614  12.192  13.534
77935NA+    NA+39224  40.403  18.708   4.750
77936NA+    NA+39225   8.358   9.290  12.840
77937NA+    NA+39226  40.512  41.836   0.930
77938NA+    NA+39227   3.730  30.468   2.794
77939NA+    NA+39228   7.758  29.089   3.681
77940NA+    NA+39229  29.051   2.251  14.771
77941NA+    NA+39230  13.610  12.201   1.879
77942NA+    NA+39231   0.319  27.124   0.401
77943NA+    NA+39232   4.746  41.994   1.411
77944NA+    NA+39233  19.597  29.980   1.820
77945NA+    NA+39234   0.922   1.435   1.785
77946NA+    NA+39235  38.964  40.376  12.055
77947NA+    NA+39236  12.622  28.932  12.824
77948NA+    NA+39237  29.658  42.872  10.617
77949NA+    NA+39238  20.135  31.471   3.819
77950NA+    NA+39239  17.266  31.599   4.752
77951NA+    NA+39240  38.489  30.459   0.411
77952NA+    NA+39241  43.799  34.872   4.174
77953NA+    NA+39242  35.041  42.980   5.285
77954NA+    NA+39243  29.522  21.253  11.908
77955NA+    NA+39244  21.154  10.711  14.826
77956NA+    NA+39245   6.297  35.460   0.929
77957NA+    NA+39246  19.090  20.221  10.927
77958NA+    NA+39247  38.045  12.264   1.321
77959NA+    NA+39248  33.387  14.110  12.347
77960NA+    NA+39249  21.521  11.296   2.244
77961NA+    NA+39250  28.004  36.549  10.977
77962NA+    NA+39251  40.928  10.220  11.123
77963NA+    NA+39252  44.302   3.339  10.424
77964NA+    NA+39253  23.555  42.878   5.203
77965NA+    NA+39254   8.832  34.451  13.032
77966NA+    NA+39255  36.867   2.848   2.854
77967NA+    NA+39256  21.534  18.741   2.360
77968NA+    NA+39257  31.954  25.117  12.834
77969NA+    NA+39258  15.312  36.914   2.707
77970NA+    NA+39259   7.744  16.088  14.404
77971NA+    NA+39260  12.287  17.646   0.810
77972NA+    NA+39261  30.159  13.822   1.750
77973NA+    NA+39262  41.306  28.978   3.705
77974NA+    NA+39263   8.731   7.248  14.774
77975NA+    NA+39264  40.540   2.887   3.808
77976NA+    NA+39265  21.706  15.761  11.871
77977NA+    NA+39266  43.329  22.020  10.424
77978NA+    NA+39267   5.878  21.671   3.816
77979NA+    NA+39268  18.074  26.605   4.653
77980NA+    NA+39269  10.737  15.616   3.854
77981NA+    NA+39270  42.468  25.036  10.600
77982NA+    NA+39271  38.032  40.384  10.508
77983NA+    NA+39272  32.406  32.617  13.328
77984NA+    NA+39273  14.121  25.577   0.294
77985NA+    NA+39274  38.871   7.362  13.449
77986NA+    NA+39275  14.594  41.008  11.900
77987NA+    NA+39276  29.564  39.414   1.875
77988NA+    NA+39277  30.047   0.820   4.742
77989NA+    NA+39278   8.702  11.688  10.608
77990NA+    NA+39279  16.717  25.197   2.217
77991NA+    NA+39280  40.960  17.717   3.869
77992NA+    NA+39281  37.525  34.369   0.866
77993NA+    NA+39282  42.369  21.145   3.261
77994NA+    NA+39283   9.822   5.296  11.971
77995NA+    NA+39284   1.947  44.271   4.291
77996NA+    NA+39285  40.017  38.821  13.523
77997NA+    NA+39286  44.940   5.787  12.889
77998NA+    NA+39287  34.893  26.566   2.717
77999NA+    NA+39288  26.972  30.046   3.821
78000NA+    NA+39289  14.788  44.830   0.470
78001NA+    NA+39290  29.655   1.826  14.854
78002NA+    NA+39291  40.305  33.578  14.958
78003NA+    NA+39292  27.611   6.835   1.289
78004NA+    NA+39293  35.558  15.596  14.501
78005NA+    NA+39294  11.303   6.744  11.047
78006NA+    NA+39295  13.304  44.883   0.822
78007NA+    NA+39296  31.508  42.324  12.409
78008NA+    NA+39297  33.493   1.831   2.698
78009NA+    NA+39298  19.209  12.210  14.390
78010NA+    NA+39299  35.546  11.188  12.401
78011NA+    NA+39300  24.641  37.897   4.281
78012NA+    NA+39301   1.481  31.959   3.845
78013NA+    NA+39302  15.645   0.780   5.282
78014NA+    NA+39303   7.902  31.974  13.905
78015NA+    NA+39304  32.412  21.601  13.871
78016NA+    NA+39305  32.421  30.634   1.415
78017NA+    NA+39306  30.483   5.406   3.342
78018NA+    NA+39307  13.256  43.376  12.849
78019NA+    NA+39308  15.739   3.854   2.664
78020NA+    NA+39309  20.590  24.196   4.296
78021NA+    NA+39310  22.678   0.781  11.982
78022NA+    NA+39311  38.905   5.895   0.863
78023NA+    NA+39312  22.125  23.490  12.036
78024NA+    NA+39313  30.418   0.947   2.789
78025NA+    NA+39314  20.047  43.286   3.278
78026NA+    NA+39315  19.674  18.677   4.297
78027NA+    NA+39316  15.673  19.239  13.964
78028NA+    NA+39317  39.323  42.916  12.850
78029NA+    NA+39318   0.359  28.955   0.834
78030NA+    NA+39319  13.161  42.315  10.446
78031NA+    NA+39320   5.887  37.521   1.721
78032NA+    NA+39321  34.503  28.979  10.454
78033NA+    NA+39322  17.238  29.525  11.397
78034NA+    NA+39323  34.451  19.624   0.844
78035NA+    NA+39324  32.580   3.930  12.014
78036NA+    NA+39325  29.039  31.566   4.647
78037NA+    NA+39326  27.479  25.140  12.457
78038NA+    NA+39327  24.677  26.165   3.646
78039NA+    NA+39328  23.596  44.426  11.421
78040NA+    NA+39329  18.140  26.066   3.380
78041NA+    NA+39330  14.318  11.230   1.706
78042NA+    NA+39331  16.294  37.581  13.796
78043NA+    NA+39332  39.961  39.432   0.269
78044NA+    NA+39333  26.964  19.267  14.777
78045NA+    NA+39334  26.642  37.884   2.798
78046NA+    NA+39335   5.324  20.761  14.889
78047NA+    NA+39336  23.639  33.407   0.758
78048NA+    NA+39337   2.813  18.206  11.874
78049NA+    NA+39338  43.884  32.449   4.636
78050NA+    NA+39339   2.962  34.985   0.347
78051NA+    NA+39340  30.142  24.620   2.884
78052NA+    NA+39341   0.362   6.240  12.343
78053NA+    NA+39342  27.151  43.466   2.693
78054NA+    NA+39343  10.721   2.257   2.874
78055NA+    NA+39344   8.327  39.452  14.311
78056NA+    NA+39345   5.875   6.754  14.841
78057NA+    NA+39346   7.317  35.432  11.442
78058NA+    NA+39347  20.073  35.067  12.950
78059NA+    NA+39348   2.912   5.715   1.346
78060NA+    NA+39349  31.075  25.652  10.472
78061NA+    NA+39350  21.715  21.044  12.526
78062NA+    NA+39351  12.243  16.625  13.544
78063NA+    NA+39352  17.172  34.461  11.468
78064NA+    NA+39353  37.062  35.062   2.350
78065NA+    NA+39354  14.727   2.767  12.093
78066NA+    NA+39355  12.779   2.242   1.254
78067NA+    NA+39356  22.717   9.842  13.952
78068NA+    NA+39357  34.001  35.588   0.444
78069NA+    NA+39358  10.364  18.774   4.305
78070NA+    NA+39359  18.231  35.445   2.364
78071NA+    NA+39360  39.022  19.069   4.631
78072NA+    NA+39361  20.036  33.929   3.185
78073NA+    NA+39362  12.200  24.068  14.345
78074NA+    NA+39363  23.008   0.756   1.845
78075NA+    NA+39364   0.302  31.434  13.452
78076NA+    NA+39365   9.787   2.386   0.450
78077NA+    NA+39366  32.994   7.779  14.471
78078NA+    NA+39367  40.332   3.950   3.750
78079NA+    NA+39368  26.581  39.325  12.549
78080NA+    NA+39369  11.220  40.816   2.349
78081NA+    NA+39370  32.079   4.712  14.868
78082NA+    NA+39371  11.210  36.584  13.933
78083NA+    NA+39372  19.142  32.002  14.921
78084NA+    NA+39373  44.762   2.463   2.738
78085NA+    NA+39374  29.143  43.477  13.965
78086NA+    NA+39375  16.802   5.201   0.886
78087NA+    NA+39376  24.556  42.454  13.933
78088NA+    NA+39377  31.124  15.674   1.388
78089NA+    NA+39378  27.106  12.163   3.148
78090NA+    NA+39379   0.458  34.007  13.332
78091NA+    NA+39380  15.268   3.955   1.397
78092NA+    NA+39381  29.635  12.714   2.828
78093NA+    NA+39382  33.455  32.619   1.698
78094NA+    NA+39383   8.302   5.813   1.906
78095NA+    NA+39384  15.317  17.272   3.163
78096NA+    NA+39385  30.426  32.999  13.856
78097NA+    NA+39386  14.156   5.376  12.896
78098NA+    NA+39387  42.376  14.717  11.383
78099NA+    NA+39388  18.575  17.187   9.967
78100NA+    NA+39389   8.267  13.712   4.259
78101NA+    NA+39390  23.586  38.565  12.544
78102NA+    NA+39391  23.028  15.736   1.793
78103NA+    NA+39392  34.965  22.037   3.662
78104NA+    NA+39393   5.369  24.707   2.247
78105NA+    NA+39394  16.781  43.885   4.674
78106NA+    NA+39395  43.417   2.876  14.967
78107NA+    NA+39396  38.953  14.181   5.108
78108NA+    NA+39397  14.308  33.603   0.292
78109NA+    NA+39398  13.348  29.547  13.522
78110NA+    NA+39399  15.627  24.703  12.986
78111NA+    NA+39400   0.972  23.016   0.248
78112NA+    NA+39401   6.916  25.597  12.845
78113NA+    NA+39402   3.280  18.240   1.395
78114NA+    NA+39403  40.831  22.020   3.385
78115NA+    NA+39404  33.940  30.944   4.828
78116NA+    NA+39405  11.367  15.618  11.590
78117NA+    NA+39406  21.048  16.118  12.499
78118NA+    NA+39407  36.890  24.124   2.212
78119NA+    NA+39408   7.405  39.337  13.849
78120NA+    NA+39409  17.799   7.678  14.863
78121NA+    NA+39410  32.404  35.904  14.844
78122NA+    NA+39411  35.045   1.323  10.973
78123NA+    NA+39412  11.296   0.911  14.417
78124NA+    NA+39413   6.781  29.008   2.419
78125NA+    NA+39414  36.553  26.570   0.330
78126NA+    NA+39415  36.846  36.423   1.709
78127NA+    NA+39416  43.910  38.324   0.251
78128NA+    NA+39417  20.148  25.525   0.433
78129NA+    NA+39418   2.437  40.430   5.244
78130NA+    NA+39419  39.974  23.055   2.691
78131NA+    NA+39420  39.851  19.135  14.928
78132NA+    NA+39421  40.797  18.605   2.391
78133NA+    NA+39422   2.290  10.676  13.002
78134NA+    NA+39423  25.141   9.798  13.922
78135NA+    NA+39424   5.914   9.158   1.891
78136NA+    NA+39425  37.965  16.219  11.996
78137NA+    NA+39426  26.538   0.801   1.327
78138NA+    NA+39427  20.265  44.439  12.996
78139NA+    NA+39428  36.522  32.922   4.708
78140NA+    NA+39429  25.495  11.642   3.274
78141NA+    NA+39430   6.289   7.896  13.308
78142NA+    NA+39431  21.639  22.573   3.794
78143NA+    NA+39432  18.670   9.674  14.013
78144NA+    NA+39433  17.285  20.211  13.396
78145NA+    NA+39434  30.474  16.255  11.444
78146NA+    NA+39435  22.070   6.398  10.515
78147NA+    NA+39436  39.899  20.273   5.160
78148NA+    NA+39437   8.836  23.512   1.838
78149NA+    NA+39438  12.163  40.021  12.519
78150NA+    NA+39439  28.679  24.029  13.389
78151NA+    NA+39440  25.682   8.235   3.717
78152NA+    NA+39441  12.740   1.748  14.932
78153NA+    NA+39442  42.868  26.642  12.526
78154NA+    NA+39443  26.674  28.144  12.022
78155NA+    NA+39444  31.947  44.880  12.576
78156NA+    NA+39445  21.732  37.959   0.791
78157NA+    NA+39446  38.930  14.103  11.071
78158NA+    NA+39447  21.258  40.834  11.984
78159NA+    NA+39448  25.653  11.839  13.021
78160NA+    NA+39449  27.605  12.831   1.867
78161NA+    NA+39450  12.813  35.882  13.028
78162NA+    NA+39451   1.967   4.736   0.283
78163NA+    NA+39452  22.043  43.323  14.977
78164NA+    NA+39453  10.381   5.421   2.854
78165NA+    NA+39454  21.541   3.858   0.906
78166NA+    NA+39455  37.377  32.397   4.325
78167NA+    NA+39456  16.808  25.981  10.908
78168NA+    NA+39457  17.703  13.801   3.300
78169NA+    NA+39458  23.236  13.718  10.429
78170NA+    NA+39459  13.778  13.144  11.465
78171NA+    NA+39460   7.778  38.939  13.431
78172NA+    NA+39461  28.032  34.956   3.743
78173NA+    NA+39462   8.832  11.286  12.470
78174NA+    NA+39463   5.287  40.505   1.839
78175NA+    NA+39464  17.730   2.293  12.836
78176NA+    NA+39465   7.911   3.460  10.015
78177NA+    NA+39466  23.173   6.419  14.950
78178NA+    NA+39467  41.930   3.373   5.200
78179NA+    NA+39468  35.564  18.057   3.352
78180NA+    NA+39469   3.743  39.323   2.739
78181NA+    NA+39470  14.727  40.483   2.261
78182NA+    NA+39471  16.680  29.949  13.491
78183NA+    NA+39472  14.186   1.326   0.905
78184NA+    NA+39473  37.862  29.999   2.796
78185NA+    NA+39474  25.012  18.551   0.316
78186NA+    NA+39475  25.973   4.800  11.877
78187NA+    NA+39476  35.922  12.662  13.819
78188NA+    NA+39477   7.187  27.620   3.270
78189NA+    NA+39478  39.980   8.794   4.161
78190NA+    NA+39479  14.309  12.243  11.424
78191NA+    NA+39480  23.054  13.638  13.365
78192NA+    NA+39481  18.765  11.156  14.359
78193NA+    NA+39482  16.215   6.192   4.613
78194NA+    NA+39483  16.683  16.272   4.251
78195NA+    NA+39484  37.376  38.543  10.546
78196NA+    NA+39485  11.318   8.707  14.299
78197NA+    NA+39486  40.818  23.649  14.429
78198NA+    NA+39487  28.606   9.787   0.750
78199NA+    NA+39488   6.398   4.281   0.790
78200NA+    NA+39489  31.542  27.079  12.035
78201NA+    NA+39490  23.595   3.857  13.839
78202NA+    NA+39491  14.321   5.754  14.931
78203NA+    NA+39492   1.742   1.882  14.970
78204NA+    NA+39493  33.970  44.344  13.332
78205NA+    NA+39494  18.729  21.027   2.704
78206NA+    NA+39495  35.451  10.285  12.423
78207NA+    NA+39496   6.731  38.063  11.388
78208NA+    NA+39497   2.889  20.173  13.313
78209NA+    NA+39498  42.524   6.780   1.718
78210NA+    NA+39499  23.695  18.194   4.249
78211NA+    NA+39500  32.905  15.214  12.339
78212NA+    NA+39501  26.615  10.868  12.469
78213NA+    NA+39502  20.636  19.754  14.336
78214NA+    NA+39503   5.273   7.206   0.450
78215NA+    NA+39504  29.151  10.229   0.833
78216NA+    NA+39505   2.468  40.503  11.884
78217NA+    NA+39506  16.792  19.132   1.754
78218NA+    NA+39507  40.999   2.316  11.929
78219NA+    NA+39508  21.258  19.616   0.304
78220NA+    NA+39509  14.210  19.092  10.571
78221NA+    NA+39510  40.888  18.272  14.771
78222NA+    NA+39511  16.705   9.173  14.397
78223NA+    NA+39512  34.938  31.000  12.347
78224NA+    NA+39513   7.369  10.288  11.972
78225NA+    NA+39514  44.858  39.903   4.350
78226NA+    NA+39515   8.802  22.659   1.791
78227NA+    NA+39516  18.100   7.230  11.518
78228NA+    NA+39517  32.120  25.005   4.161
78229NA+    NA+39518  30.554   9.720   2.858
78230NA+    NA+39519  29.438  18.689   0.904
78231NA+    NA+39520  28.552  24.104  12.901
78232NA+    NA+39521  29.034  14.772   1.897
78233NA+    NA+39522  44.849   9.708  14.971
78234NA+    NA+39523  32.444  41.519   4.773
78235NA+    NA+39524  29.441  24.486   3.765
78236NA+    NA+39525   5.866   2.818   1.313
78237NA+    NA+39526   9.236   8.897   3.863
78238NA+    NA+39527  43.357  21.215  13.408
78239NA+    NA+39528  39.520  17.247   3.842
78240NA+    NA+39529   2.232   3.792  13.031
78241NA+    NA+39530  44.960   0.958  10.505
78242NA+    NA+39531  23.707  21.710   0.729
78243NA+    NA+39532  28.453  26.694   3.178
78244NA+    NA+39533  14.717   0.878  12.042
78245NA+    NA+39534  18.143  27.548  13.871
78246NA+    NA+39535  21.147  24.568   4.138
78247NA+    NA+39536  33.489  28.450   2.406
78248NA+    NA+39537  36.072  15.189   4.731
78249NA+    NA+39538   2.764  15.823  10.436
78250NA+    NA+39539  44.361  26.692   3.740
78251NA+    NA+39540   7.196  44.332   1.758
78252NA+    NA+39541  12.690   0.248   2.358
78253NA+    NA+39542  39.931  38.015  12.013
78254NA+    NA+39543  11.286  12.277  13.953
78255NA+    NA+39544   3.217  11.662  14.924
78256NA+    NA+39545  19.583  39.002  11.399
78257NA+    NA+39546  20.162  24.093   0.296
78258NA+    NA+39547  14.106  32.068  11.420
78259NA+    NA+39548  32.570  40.954   3.344
78260NA+    NA+39549  42.357   6.227   3.758
78261NA+    NA+39550  29.505  26.629  11.055
78262NA+    NA+39551   7.338  16.792   2.896
78263NA+    NA+39552   3.438  40.478  13.871
78264NA+    NA+39553   3.803   7.387   4.312
78265NA+    NA+39554  21.124  28.041  13.327
78266NA+    NA+39555  31.986   3.781  11.612
78267NA+    NA+39556  13.260  12.620  10.606
78268NA+    NA+39557  31.094  12.325   0.916
78269NA+    NA+39558  20.119  10.837   0.244
78270NA+    NA+39559  23.679  26.460   0.859
78271NA+    NA+39560  32.552  14.170  11.939
78272NA+    NA+39561   4.773  30.920   0.917
78273NA+    NA+39562  33.505  32.601  14.454
78274NA+    NA+39563  17.697  32.053   3.642
78275NA+    NA+39564  17.667   8.219  11.016
78276NA+    NA+39565  15.327   7.338   0.894
78277NA+    NA+39566  29.520  33.102   4.233
78278NA+    NA+39567  30.629  25.549  13.394
78279NA+    NA+39568  18.154   2.394  13.907
78280NA+    NA+39569  26.676  26.025   4.663
78281NA+    NA+39570  10.868  17.759   1.826
78282NA+    NA+39571  20.215  17.694   0.351
78283NA+    NA+39572  38.836   5.323  11.048
78284NA+    NA+39573   0.908   7.353   0.782
78285NA+    NA+39574   0.981   7.416   3.155
78286NA+    NA+39575   5.878  43.376   1.272
78287NA+    NA+39576  25.623  27.609   1.831
78288NA+    NA+39577  10.639  13.333   0.825
78289NA+    NA+39578  33.964  15.109   1.363
78290NA+    NA+39579  20.745  10.360   0.348
78291NA+    NA+39580  44.829  44.908  14.426
78292NA+    NA+39581  41.367  13.820   1.708
78293NA+    NA+39582  19.742  34.097   4.277
78294NA+    NA+39583  23.585  18.729  10.464
78295NA+    NA+39584  29.449  27.643   2.273
78296NA+    NA+39585  22.168  31.495  12.966
78297NA+    NA+39586   1.473  10.339   3.721
78298NA+    NA+39587  16.218  38.964  14.326
78299NA+    NA+39588  25.018  39.963   3.734
78300NA+    NA+39589  15.253  16.121  13.846
78301NA+    NA+39590  11.271   4.929   2.274
78302NA+    NA+39591  39.534   0.366  12.006
78303NA+    NA+39592  12.698  24.123   0.929
78304NA+    NA+39593  28.977  38.007  14.971
78305CL-    CL-39594   8.405   4.313  10.490
78306CL-    CL-39595  41.802  27.530  11.553
78307CL-    CL-39596  16.214  38.040  14.806
78308CL-    CL-39597  27.491   5.402   1.822
78309CL-    CL-39598  26.657   4.801   1.412
78310CL-    CL-39599   4.810  36.029   2.672
78311CL-    CL-39600  11.768  39.856  14.324
78312CL-    CL-39601  39.333  15.748   3.182
78313CL-    CL-39602   4.417   6.274   3.747
78314CL-    CL-39603  21.647  35.064   3.326
78315CL-    CL-39604  39.385  29.465  13.061
78316CL-    CL-39605   2.364   1.316  13.028
78317CL-    CL-39606  31.949  14.684   4.829
78318CL-    CL-39607  13.730  14.652   0.739
78319CL-    CL-39608  42.319   7.679  13.812
78320CL-    CL-39609  41.389  41.980   1.363
78321CL-    CL-39610  40.404  19.230   0.262
78322CL-    CL-39611  21.118   4.430   4.813
78323CL-    CL-39612  20.252  19.620  10.421
78324CL-    CL-39613   7.315  16.174  14.798
78325CL-    CL-39614  26.022  34.884   2.903
78326CL-    CL-39615  14.222  11.305  12.048
78327CL-    CL-39616   8.214  14.643   1.931
78328CL-    CL-39617  35.018  19.064   3.681
78329CL-    CL-39618   7.780  24.522   2.824
78330CL-    CL-39619  33.119  23.184  10.548
78331CL-    CL-39620  21.542  18.082   0.814
78332CL-    CL-39621  37.969  37.999  11.976
78333CL-    CL-39622  25.979  36.568  11.412
78334CL-    CL-39623  27.628   9.288  10.545
78335CL-    CL-39624  38.327  33.921  14.883
78336CL-    CL-39625  12.677  13.697   0.286
78337CL-    CL-39626   0.893   1.770   4.680
78338CL-    CL-39627  21.111  17.260  14.275
78339CL-    CL-39628  38.490  43.310   0.893
78340CL-    CL-39629  11.699  19.108  10.887
78341CL-    CL-39630   4.749  44.415   1.902
78342CL-    CL-39631  33.042  32.973   1.339
78343CL-    CL-39632   8.883  40.439   4.295
78344CL-    CL-39633   3.790  30.110  10.559
78345CL-    CL-39634  13.845  21.056   0.310
78346CL-    CL-39635  25.133  12.334  10.418
78347CL-    CL-39636  44.858  32.907  13.031
78348CL-    CL-39637  17.133  41.966  12.912
78349CL-    CL-39638  44.310  22.673   0.316
78350CL-    CL-39639  40.816  41.462   3.367
78351CL-    CL-39640  21.676   5.200  14.283
78352CL-    CL-39641  38.988  40.852  14.405
78353CL-    CL-39642   9.787  20.679   3.815
78354CL-    CL-39643  34.871  28.490  10.584
78355CL-    CL-39644  37.880  11.770  10.529
78356CL-    CL-39645  12.654  42.952  10.408
78357CL-    CL-39646   1.366  19.544  11.110
78358CL-    CL-39647   4.726  39.903   0.896
78359CL-    CL-39648  25.046  17.653  10.496
78360CL-    CL-39649  13.122  37.002  12.093
78361CL-    CL-39650  11.806   4.419   4.745
78362CL-    CL-39651  27.516  42.477  12.548
78363CL-    CL-39652  12.171  42.001  13.316
78364CL-    CL-39653  12.323  41.406  12.877
78365CL-    CL-39654   4.778  15.717   4.718
78366CL-    CL-39655  40.975  21.599  14.462
78367CL-    CL-39656  37.413  21.168  11.490
78368CL-    CL-39657  13.690  43.356   2.799
78369CL-    CL-39658   5.777  30.542  12.562
78370CL-    CL-39659  37.442  21.738   0.428
78371CL-    CL-39660  11.626  22.014  14.397
78372CL-    CL-39661   6.350  30.063  14.420
78373CL-    CL-39662  43.295  32.101  14.026
78374CL-    CL-39663   3.893  41.902   4.678
78375CL-    CL-39664  43.938  37.518   2.763
78376CL-    CL-39665  11.341  15.129  12.354
78377CL-    CL-39666  16.571  31.573   3.263
78378CL-    CL-39667  31.494   2.430  13.907
78379CL-    CL-39668  17.665  17.674  10.485
78380CL-    CL-39669  25.542  44.389   0.310
78381CL-    CL-39670  26.612  21.688  12.353
78382CL-    CL-39671  27.070   1.455  12.382
78383CL-    CL-39672   0.331  22.669  14.507
78384CL-    CL-39673  18.694  32.465   3.647
78385CL-    CL-39674   8.784  16.582  13.955
78386CL-    CL-39675  18.546  20.595  11.064
78387CL-    CL-39676  27.609  33.455   3.282
78388CL-    CL-39677  13.141  34.389   4.711
78389CL-    CL-39678  26.627   4.845   3.645
78390CL-    CL-39679  10.252  12.651   0.896
78391CL-    CL-39680  40.416  41.343  11.878
78392CL-    CL-39681  35.473  11.257  14.852
78393CL-    CL-39682  39.910  27.074  11.122
78394CL-    CL-39683  30.105  27.555  13.544
78395CL-    CL-39684  15.198  43.898   2.299
78396CL-    CL-39685  40.001  20.064   5.695
78397CL-    CL-39686  14.801  23.081   4.348
78398CL-    CL-39687   6.809   9.694  11.492
78399CL-    CL-39688  22.023  11.646   3.339
78400CL-    CL-39689   2.930   4.211   1.262
78401CL-    CL-39690   4.795  21.648  11.525
78402CL-    CL-39691  44.265  29.591   2.839
78403CL-    CL-39692   4.743  19.252  12.985
78404CL-    CL-39693   4.892  44.947  13.450
78405CL-    CL-39694  27.037   1.949   2.331
78406CL-    CL-39695  10.789   8.369   2.776
78407CL-    CL-39696   4.294   9.726   1.387
78408CL-    CL-39697  40.936   3.234   4.647
78409CL-    CL-39698  39.478  23.104  12.553
78410CL-    CL-39699  10.223  28.000  11.405
78411CL-    CL-39700  25.571   1.314  12.040
78412CL-    CL-39701  30.622  25.205  10.412
78413CL-    CL-39702   8.371   9.227   4.325
78414CL-    CL-39703  34.956  11.742   0.962
78415CL-    CL-39704  23.162  20.702   0.466
78416CL-    CL-39705  19.214  42.349  11.877
78417CL-    CL-39706   3.304  22.574   5.247
78418CL-    CL-39707  31.483   1.910   2.856
78419CL-    CL-39708   6.736   3.903  13.389
78420CL-    CL-39709   1.798  38.423  11.546
78421CL-    CL-39710  33.427  27.588  11.381
78422CL-    CL-39711   7.297  35.468  14.418
78423CL-    CL-39712  33.602  29.519   5.163
78424CL-    CL-39713  10.346  34.562   3.782
78425CL-    CL-39714  41.008  19.123  12.089
78426CL-    CL-39715  18.224  28.677   4.636
78427CL-    CL-39716  28.569   3.710  10.553
78428CL-    CL-39717   6.189  21.679   9.995
78429CL-    CL-39718  42.312   3.287   3.335
78430CL-    CL-39719  37.471  16.215   4.177
78431CL-    CL-39720   9.812  25.195   2.311
78432CL-    CL-39721  35.899   2.244  10.421
78433CL-    CL-39722  38.829  10.879  12.069
78434CL-    CL-39723  36.915   4.373   2.703
78435CL-    CL-39724  44.419   8.300  11.464
78436CL-    CL-39725  33.455  22.605   3.650
78437CL-    CL-39726  24.190  30.429   0.390
78438CL-    CL-39727  34.031   2.316   0.475
78439CL-    CL-39728   1.268  22.157   1.863
78440CL-    CL-39729  21.074   8.747  14.029
78441CL-    CL-39730  38.329   5.908   4.649
78442CL-    CL-39731  13.238   8.705   0.776
78443CL-    CL-39732  13.165  25.690   3.370
78444CL-    CL-39733  11.726  13.801  10.521
78445CL-    CL-39734   9.649  32.633   0.828
78446CL-    CL-39735  42.449  39.505  13.060
78447CL-    CL-39736  28.970   0.292   3.714
78448CL-    CL-39737  23.110  38.432   3.165
78449CL-    CL-39738  18.085  36.009   4.326
78450CL-    CL-39739  10.276  12.830   1.848
78451CL-    CL-39740  24.647  32.097   4.676
78452CL-    CL-39741  42.775  12.168   4.319
78453CL-    CL-39742   6.419  15.641   3.650
78454CL-    CL-39743  43.461  42.801   1.370
78455CL-    CL-39744  21.522  42.419  14.320
78456CL-    CL-39745  12.851  33.068   2.283
78457CL-    CL-39746  11.710  15.292   0.855
78458CL-    CL-39747  17.570   3.320  14.810
78459CL-    CL-39748  42.891  32.916   1.902
78460CL-    CL-39749  24.975  17.107  12.986
78461CL-    CL-39750  42.291  39.843   1.774
78462CL-    CL-39751  40.990  40.936   2.728
78463CL-    CL-39752  44.938  18.192  11.520
78464CL-    CL-39753  33.470  32.050  14.431
78465CL-    CL-39754  24.184   4.845   3.360
78466CL-    CL-39755  16.120  34.390  10.636
78467CL-    CL-39756  26.630  32.913  10.908
78468CL-    CL-39757  31.475  20.168  14.314
78469CL-    CL-39758   4.400   4.888  10.993
78470CL-    CL-39759   0.986  13.217   2.283
78471CL-    CL-39760   4.435  24.666   9.491
78472CL-    CL-39761  21.686  22.163   3.342
78473CL-    CL-39762  15.132  34.587   3.826
78474CL-    CL-39763   6.873  11.177  12.992
78475CL-    CL-39764  31.471  28.454  12.531
78476CL-    CL-39765  11.853  24.652  14.885
78477CL-    CL-39766   4.817   8.330   1.347
78478CL-    CL-39767  26.550   8.863   0.856
78479CL-    CL-39768  30.023  41.356   3.241
78480CL-    CL-39769   6.874  16.104   1.412
78481CL-    CL-39770   2.852  13.726  13.956
78482CL-    CL-39771  10.651  14.743   4.723
78483CL-    CL-39772   9.719   4.802  13.808
78484CL-    CL-39773  27.690  28.572  13.524
78485CL-    CL-39774  16.107  26.105   1.889
78486CL-    CL-39775   7.220   3.457   4.168
78487CL-    CL-39776  36.852  38.017   2.326
78488CL-    CL-39777   2.836  42.482  13.841
78489CL-    CL-39778  32.128  15.712  12.377
78490CL-    CL-39779  20.614   0.836  12.374
78491CL-    CL-39780  40.030  19.544   0.847
78492CL-    CL-39781  10.223  29.947  12.486
78493CL-    CL-39782  29.144  43.516  10.533
78494CL-    CL-39783  35.063   4.770   4.599
78495CL-    CL-39784  14.149  43.276  12.355
78496CL-    CL-39785  32.108  15.822  12.021
78497CL-    CL-39786  32.139  21.048   1.800
78498CL-    CL-39787  34.013   7.214  12.456
78499CL-    CL-39788  23.571  16.767  13.816
78500CL-    CL-39789   8.854  25.587   4.302
78501CL-    CL-39790   2.383  19.150   2.352
78502CL-    CL-39791  19.047  32.567  14.014
78503CL-    CL-39792  39.489  39.443   3.829
78504CL-    CL-39793  19.042  41.879  14.283
78505CL-    CL-39794   0.817  24.669  11.006
78506CL-    CL-39795  44.323  43.477   4.232
78507CL-    CL-39796  12.358  17.578   1.307
78508CL-    CL-39797  13.788   1.246  14.386
78509CL-    CL-39798   5.379   3.733   4.682
78510CL-    CL-39799  14.659  44.914  12.559
78511CL-    CL-39800  35.455   1.810   4.640
78512CL-    CL-39801  11.781  32.480  13.025
78513CL-    CL-39802  37.002  17.255   0.832
78514CL-    CL-39803  38.050  12.637  14.314
78515CL-    CL-39804  28.458  34.040   0.958
78516CL-    CL-39805  22.017  22.175  11.989
78517CL-    CL-39806  39.416  15.799  14.029
78518CL-    CL-39807  35.961  41.028   0.826
78519CL-    CL-39808   3.868   2.784  14.911
78520CL-    CL-39809  33.074  35.410   2.208
78521CL-    CL-39810  31.428  23.733   2.879
78522CL-    CL-39811  39.548  44.277   4.645
78523CL-    CL-39812   5.852  33.491  11.858
78524CL-    CL-39813  16.214  12.131   4.310
78525CL-    CL-39814  26.656  18.698   1.807
78526CL-    CL-39815  26.134  35.909   1.448
78527CL-    CL-39816   6.686   5.223  12.380
78528CL-    CL-39817  29.576  17.080   0.279
78529CL-    CL-39818   8.726  37.565  11.472
78530CL-    CL-39819  34.940   0.414   4.719
78531CL-    CL-39820  36.051   4.309  11.934
78532CL-    CL-39821  19.717  16.680   3.775
78533CL-    CL-39822  32.457  38.841  12.421
78534CL-    CL-39823  36.496  22.644  12.566
78535CL-    CL-39824  42.792  41.532  10.488
78536CL-    CL-39825  40.386  11.221  11.490
78537CL-    CL-39826  18.575  11.664  12.554
78538CL-    CL-39827  36.510  17.794   3.807
78539CL-    CL-39828  27.117  13.194   0.957
78540CL-    CL-39829   8.336  12.301   3.228
78541CL-    CL-39830  26.204  10.241   3.325
78542CL-    CL-39831   1.320   0.880   0.312
78543CL-    CL-39832  14.327  17.764  11.913
78544CL-    CL-39833  40.516   0.447  14.996
78545CL-    CL-39834  29.635   8.743   0.432
78546CL-    CL-39835  14.324   0.324   2.751
78547CL-    CL-39836  38.487  36.371   0.477
78548CL-    CL-39837  30.580  44.910  10.432
78549CL-    CL-39838  23.628  36.462  14.981
78550CL-    CL-39839   6.807  20.179   2.716
78551CL-    CL-39840   7.387   2.779   2.803
78552CL-    CL-39841  39.896  12.232  10.627
78553CL-    CL-39842  29.615  20.731  10.587
78554CL-    CL-39843  35.548  43.486   0.847
78555CL-    CL-39844  42.396  23.162  11.101
78556CL-    CL-39845  19.569   6.383   4.703
78557CL-    CL-39846  44.791  35.564   4.649
78558CL-    CL-39847  25.669  27.149   2.292
78559CL-    CL-39848  33.520  28.094  10.088
78560CL-    CL-39849   3.719  41.463  12.081
78561CL-    CL-39850  31.602  37.893  13.818
78562CL-    CL-39851   3.403  34.986  14.321
78563CL-    CL-39852  29.972   1.436   1.240
78564CL-    CL-39853  32.916  27.545  11.552
78565CL-    CL-39854  19.240   1.753   3.754
78566CL-    CL-39855  40.971  10.296  11.871
78567CL-    CL-39856  28.972  42.965   2.776
78568CL-    CL-39857  44.287  36.035   1.860
78569CL-    CL-39858  29.170  37.992  10.610
78570CL-    CL-39859  27.472   1.824  12.851
78571CL-    CL-39860  32.400  12.189  14.356
78572CL-    CL-39861   0.479   6.721  13.974
78573CL-    CL-39862  41.474   8.352   0.403
78574CL-    CL-39863  31.997  18.250   3.869
78575CL-    CL-39864  29.634   0.987   9.977
78576CL-    CL-39865  37.834  29.039  12.385
78577CL-    CL-39866  37.848   4.409  12.832
78578CL-    CL-39867  20.192   6.331   0.411
78579CL-    CL-39868  40.512  11.144   3.158
78580CL-    CL-39869  34.483   3.310  12.561
78581CL-    CL-39870  31.018  15.756  11.023
78582CL-    CL-39871  21.033  27.967   4.732
78583CL-    CL-39872  19.087  18.683  13.809
78584CL-    CL-39873  12.283  32.000  13.959
78585CL-    CL-39874  14.299  33.461   0.949
78586CL-    CL-39875  24.212  11.698  12.540
78587CL-    CL-39876  29.118  16.597   2.849
78588CL-    CL-39877  11.634  11.638   3.227
78589CL-    CL-39878  14.818  29.002   5.288
78590CL-    CL-39879   5.738  42.830  13.494
78591CL-    CL-39880  14.224  36.353   5.177
78592CL-    CL-39881  38.526  26.031   1.359
78593CL-    CL-39882  33.410  30.935   2.874
78594CL-    CL-39883   7.709   8.306   4.768
78595CL-    CL-39884  37.995  40.022  13.883
78596CL-    CL-39885   9.231   6.327  13.410
78597CL-    CL-39886  19.255  20.756   4.601
78598CL-    CL-39887  36.960  23.164  11.103
78599CL-    CL-39888  35.986  27.195  12.417
78600CL-    CL-39889  27.189  34.581  14.450
78601CL-    CL-39890  15.253  41.035   0.365
78602CL-    CL-39891  26.668  24.713   2.203
78603CL-    CL-39892  30.620  41.949  12.953
78604CL-    CL-39893  13.295  42.328  12.926
78605CL-    CL-39894  23.118  11.739   3.648
78606CL-    CL-39895  22.526  19.246   0.459
78607CL-    CL-39896   1.355  32.059   3.345
78608CL-    CL-39897  17.265   9.793  12.873
78609CL-    CL-39898  30.929   2.861  14.844
78610CL-    CL-39899   5.423  44.359  11.114
78611CL-    CL-39900  33.926  26.616   4.268
78612CL-    CL-39901  12.194  24.721  10.571
78613CL-    CL-39902   9.355  31.953  14.028
78614CL-    CL-39903  28.608  42.373  12.009
78615CL-    CL-39904  40.498  36.577  13.035
78616CL-    CL-39905  10.778  28.080  10.015
78617CL-    CL-39906   7.782   2.269   4.736
78618CL-    CL-39907  17.578  44.762  13.832
78619CL-    CL-39908   2.380  15.303  14.989
78620CL-    CL-39909   6.357  32.894   4.804
78621CL-    CL-39910  15.310  17.563  11.922
78622CL-    CL-39911  21.708  38.457  12.983
78623CL-    CL-39912  24.615   7.186   0.280
78624CL-    CL-39913  31.063  33.120  12.957
78625CL-    CL-39914   4.861  32.413  14.328
78626CL-    CL-39915  22.066  43.461   1.910
78627CL-    CL-39916  41.425  23.528  12.926
78628CL-    CL-39917   7.761   6.262  11.068
78629CL-    CL-39918  40.008  20.659   0.873
78630CL-    CL-39919  38.877  31.092  11.963
78631CL-    CL-39920  22.034   4.808  11.082
78632CL-    CL-39921  26.969  18.642  10.451
78633CL-    CL-39922   6.782  14.813  14.025
78634CL-    CL-39923   3.416  12.301   3.203
78635CL-    CL-39924  22.626  22.145  13.034
78636CL-    CL-39925   0.360   1.426   1.701
78637CL-    CL-39926  21.556  35.857  12.046
78638CL-    CL-39927  39.976  25.988   1.329
78639CL-    CL-39928  10.180  41.031   0.727
78640CL-    CL-39929  16.278  38.501  12.921
78641CL-    CL-39930  19.078  24.985   4.692
78642CL-    CL-39931  11.866  42.283  14.806
78643CL-    CL-39932  38.394   7.270  12.094
78644CL-    CL-39933  39.844  10.228   1.757
78645CL-    CL-39934  24.993  22.123  12.994
78646CL-    CL-39935  26.587  30.593   9.992
78647CL-    CL-39936  13.699  12.145   3.777
78648CL-    CL-39937   6.425  43.000  14.809
78649CL-    CL-39938  13.141  41.954   0.466
78650CL-    CL-39939  42.867  42.352  14.301
78651CL-    CL-39940   4.333  16.160   4.756
78652CL-    CL-39941  38.331  27.996   2.224
78653CL-    CL-39942  32.406  14.096  14.338
78654CL-    CL-39943  37.961   0.375   1.321
78655CL-    CL-39944   2.775  40.809  14.832
78656CL-    CL-39945  30.434  10.795  13.373
78657CL-    CL-39946  11.332  19.164   4.237
78658CL-    CL-39947  25.647   0.976  11.021
78659CL-    CL-39948  13.136  30.015   2.806
78660CL-    CL-39949  22.723  18.240   4.327
78661CL-    CL-39950  13.235  10.879   2.896
78662CL-    CL-39951  12.236  34.089  13.388
78663CL-    CL-39952   9.659  15.156   4.621
78664CL-    CL-39953  18.674   4.880  11.597
78665CL-    CL-39954  43.278   4.328   3.682
78666CL-    CL-39955  33.496  20.761   3.361
78667CL-    CL-39956  40.421  20.242  10.914
78668CL-    CL-39957  13.158  17.797   0.318
78669CL-    CL-39958  20.162   3.387  12.048
78670CL-    CL-39959  40.472   7.253   1.311
78671CL-    CL-39960   6.821  13.711   1.367
78672CL-    CL-39961  18.776  20.564   3.175
78673CL-    CL-39962  30.577  19.584   0.892
78674CL-    CL-39963  10.675  22.245  13.375
78675CL-    CL-39964  34.409  21.170   1.897
78676CL-    CL-39965   3.320  14.114  14.317
78677CL-    CL-39966   5.893  12.256   1.800
78678CL-    CL-39967  11.784  27.451  12.975
78679CL-    CL-39968   3.936  14.098   0.824
78680CL-    CL-39969  32.044  12.795   4.345
78681CL-    CL-39970  24.019  13.723   2.831
78682CL-    CL-39971  38.882  10.158  13.426
78683CL-    CL-39972  41.947   3.933  14.969
78684CL-    CL-39973  22.062  15.161  11.039
78685CL-    CL-39974  39.963  16.658  13.324
78686CL-    CL-39975  31.124   8.888   0.792
78687CL-    CL-39976  31.074   7.793   2.242
78688CL-    CL-39977  22.512  10.705   2.222
78689CL-    CL-39978  31.996  38.347   0.901
78690CL-    CL-39979  24.171  20.735   2.378
78691CL-    CL-39980   2.302  33.111   1.297
78692CL-    CL-39981  10.180  38.498   1.750
78693CL-    CL-39982  18.664  10.348  13.025
78694CL-    CL-39983  35.504  29.978   3.799
78695CL-    CL-39984  14.700  37.022  14.018
78696CL-    CL-39985  38.962  34.554   3.377
78697CL-    CL-39986  44.295   4.929  14.402
78698CL-    CL-39987  10.725  14.246  11.919
78699CL-    CL-39988  16.317  16.309  13.919
78700CL-    CL-39989  23.118   3.866   1.337
78701CL-    CL-39990  12.177  39.926   2.731
78702CL-    CL-39991   2.798  33.985   2.744
78703CL-    CL-39992  37.576  37.067   3.320
78704CL-    CL-39993  21.054  18.663  14.339
78705CL-    CL-39994  23.196  25.506   3.791
78706CL-    CL-39995  12.708   3.883   0.452
78707CL-    CL-39996  26.204  14.239  10.981
78708CL-    CL-39997  33.548   3.335  14.371
78709CL-    CL-39998  30.140  25.019   3.280
78710CL-    CL-39999   3.286  44.491   2.682
78711CL-    CL-40000  43.351   4.842   3.208
78712CL-    CL-40001  25.986   3.934  11.094
78713CL-    CL-40002  18.691  35.510   2.839
78714CL-    CL-40003  42.833  26.004   0.328
78715CL-    CL-40004  32.100   8.875  10.154
78716CL-    CL-40005  18.291  26.963  10.899
78717CL-    CL-40006  31.069  34.920   2.310
78718CL-    CL-40007  33.068   1.465  12.065
78719CL-    CL-40008   0.857  43.932  12.850
78720CL-    CL-40009  40.329   1.795   2.329
78721CL-    CL-40010  22.227  21.553  11.490
78722CL-    CL-40011  36.094  32.072   4.124
78723CL-    CL-40012  10.641   9.791   1.918
78724CL-    CL-40013  17.228  44.950  10.095
78725CL-    CL-40014  38.961   5.358   2.247
78726CL-    CL-40015  24.998  24.005   3.350
78727CL-    CL-40016  16.277   1.884  12.937
78728CL-    CL-40017   2.448   9.813   4.688
78729CL-    CL-40018  40.416  16.254  11.023
78730CL-    CL-40019  17.272  32.614  12.459
78731CL-    CL-40020  22.529  40.800  10.904
78732CL-    CL-40021  12.221  10.761   3.699
78733CL-    CL-40022  26.107  10.806   2.809
78734CL-    CL-40023  42.783  12.141  13.821
78735CL-    CL-40024  43.332   3.282  11.013
78736CL-    CL-40025   7.791  30.003   2.898
78737CL-    CL-40026  17.127  27.510  14.774
78738CL-    CL-40027  17.696  34.046  10.494
78739CL-    CL-40028   3.225  12.201  14.852
78740CL-    CL-40029  10.169   3.272  12.077
78741CL-    CL-40030  41.441  30.086  12.889
78742CL-    CL-40031  41.851   1.333   2.189
78743CL-    CL-40032  34.035  27.582  11.105
78744CL-    CL-40033  29.071  26.023   0.840
78745CL-    CL-40034   5.379  18.221   2.258
78746CL-    CL-40035  36.437  34.937  12.499
78747CL-    CL-40036  42.878  18.762  14.474
78748CL-    CL-40037  26.676  27.623  12.419
78749CL-    CL-40038  23.639   7.781  11.869
78750CL-    CL-40039  16.189  10.727   2.674
78751CL-    CL-40040  30.136  22.589  11.861
78752CL-    CL-40041  37.512   6.387   2.762
78753CL-    CL-40042  44.478  12.628  11.994
78754CL-    CL-40043  41.499  37.403  11.567
78755CL-    CL-40044  25.605  12.689  14.295
78756CL-    CL-40045  26.121  42.468   1.329
78757CL-    CL-40046  33.131   4.828  13.919
78758CL-    CL-40047  37.446  39.928  11.454
78759CL-    CL-40048  34.957  16.800   4.717
78760CL-    CL-40049  12.831  35.420  10.068
78761CL-    CL-40050  23.676  23.583  11.517
78762CL-    CL-40051  38.985   0.753   0.288
78763CL-    CL-40052  44.397  17.769  14.002
78764CL-    CL-40053  12.827  33.513  11.480
78765CL-    CL-40054  38.471  13.803   2.228
78766CL-    CL-40055  12.821  30.974  13.453
78767CL-    CL-40056  40.974  28.172   1.335
78768CL-    CL-40057  31.623  38.832  13.403
78769CL-    CL-40058  38.064   9.377   2.369
78770CL-    CL-40059  27.978  10.804  14.487
78771CL-    CL-40060   4.934  30.114   3.785
78772CL-    CL-40061  41.956   5.338  11.544
78773CL-    CL-40062  39.010  37.423  10.508
78774CL-    CL-40063  23.544  25.587  13.969
78775CL-    CL-40064  32.632   6.752  11.400
78776CL-    CL-40065  15.186  35.974  13.501
78777CL-    CL-40066  23.001  19.073  13.923
78778CL-    CL-40067  44.859   5.373  11.468
78779CL-    CL-40068  21.582  14.182   4.641
78780CL-    CL-40069  21.169   5.797  12.932
78781CL-    CL-40070  31.638  42.520  13.979
78782CL-    CL-40071  17.746  37.081  14.340
78783CL-    CL-40072  26.514   5.705  10.105
78784CL-    CL-40073  24.554  29.450   1.934
78785CL-    CL-40074  26.148  14.777  11.436
78786CL-    CL-40075   9.861  21.704  14.019
78787CL-    CL-40076  27.040  30.920  12.508
78788CL-    CL-40077  16.215  12.739  12.424
78789CL-    CL-40078  16.708  20.769   0.882
78790CL-    CL-40079  15.311  21.665  12.905
78791CL-    CL-40080   0.376  21.158   0.428
78792CL-    CL-40081  22.112  29.627   4.630
78793CL-    CL-40082  26.002  41.445  12.565
78794CL-    CL-40083   1.847  26.958   2.838
78795CL-    CL-40084   9.658  30.479   0.872
78796CL-    CL-40085  38.829  31.107  13.049
78797CL-    CL-40086  16.705  30.016   2.304
78798CL-    CL-40087   9.188  26.013  12.515
78799CL-    CL-40088  40.411  31.103   1.217
78800CL-    CL-40089  15.224  29.954   2.713
78801CL-    CL-40090   1.315  36.873  12.420
78802CL-    CL-40091   8.215  34.867  11.569
78803CL-    CL-40092  32.094  35.011   0.251
78804CL-    CL-40093  16.752  29.481  11.116
78805CL-    CL-40094  29.011  10.779   4.836
78806CL-    CL-40095   0.402   0.394   0.298
78807CL-    CL-40096  13.200   1.736   1.862
78808CL-    CL-40097  34.521  12.700  13.967
78809CL-    CL-40098  17.247  17.156  10.556
78810CL-    CL-40099  15.708  35.067   3.703
78811CL-    CL-40100  32.634  14.329  13.871
78812CL-    CL-40101  40.895  28.674   4.659
78813CL-    CL-40102  13.268  27.182   2.841
78814CL-    CL-40103   0.747  21.076  12.559
78815CL-    CL-40104  15.299   3.950   1.775
78816CL-    CL-40105  39.949   3.886   1.869
78817CL-    CL-40106  26.188  40.542  11.907
78818CL-    CL-40107  18.283  30.504   3.211
78819CL-    CL-40108  15.281  14.811  13.856
78820CL-    CL-40109  37.563  22.592  11.423
78821CL-    CL-40110  26.014  35.499  14.778
78822CL-    CL-40111   5.858   9.275  13.042
78823CL-    CL-40112  33.383  34.510  10.520
78824CL-    CL-40113  41.961  33.426  11.603
78825CL-    CL-40114  28.646  24.543   0.271
78826CL-    CL-40115   2.860  34.513  14.924
78827CL-    CL-40116  10.281  12.666  10.119
78828CL-    CL-40117  26.100  22.041   3.337
78829CL-    CL-40118  14.767  42.877   0.400
78830CL-    CL-40119  38.844  44.503   4.634
78831CL-    CL-40120   6.422  16.142  10.967
78832CL-    CL-40121  29.057  34.120  14.828
78833CL-    CL-40122   3.736   1.344  11.463
78834CL-    CL-40123  43.375  19.251  14.361
78835CL-    CL-40124  36.886  32.572   0.752
78836CL-    CL-40125  42.325  41.412  12.968
78837CL-    CL-40126  42.494  44.845  11.564
78838CL-    CL-40127  37.356  11.685   5.183
78839CL-    CL-40128  44.481  39.817  13.336
78840CL-    CL-40129  18.775  13.799   4.130
78841CL-    CL-40130   2.333  21.574  13.542
78842CL-    CL-40131  37.479  41.858  14.767
78843CL-    CL-40132   1.893  29.016  11.951
78844CL-    CL-40133   0.986  21.654   4.623
78845CL-    CL-40134  42.428  20.735   4.333
78846CL-    CL-40135  37.451  28.179  10.620
78847CL-    CL-40136  16.757  10.769   1.284
78848CL-    CL-40137  34.018  23.653   2.390
78849CL-    CL-40138  23.672  23.650   4.794
78850CL-    CL-40139  17.258  38.494   4.256
78851CL-    CL-40140  41.861  27.530  13.338
78852CL-    CL-40141  29.080  17.064   2.333
78853CL-    CL-40142  29.036   2.858  12.904
78854CL-    CL-40143   7.253   9.271   1.323
78855CL-    CL-40144  38.391  28.097   3.237
78856CL-    CL-40145  12.782  35.526  12.883
78857CL-    CL-40146  34.908  12.141   3.676
78858CL-    CL-40147  18.769   2.810  10.470
78859CL-    CL-40148  28.468   7.792  12.423
78860CL-    CL-40149   6.856  30.043  12.501
78861CL-    CL-40150  34.395  15.115  12.490
78862CL-    CL-40151  15.730   1.394  13.005
78863CL-    CL-40152  28.987  17.225   4.128
78864CL-    CL-40153  23.581   3.742   0.936
78865CL-    CL-40154  44.809  31.945  11.570
78866CL-    CL-40155  10.846  43.401   2.878
78867CL-    CL-40156  22.187  21.044   9.956
78868CL-    CL-40157  38.968  14.653   1.814
78869CL-    CL-40158  44.765  35.975  14.849
78870CL-    CL-40159  23.029  42.026  14.854
78871CL-    CL-40160   6.424   3.930   1.705
78872CL-    CL-40161  35.603   5.231   3.831
78873CL-    CL-40162  22.135   8.828   2.732
78874CL-    CL-40163   9.345  31.499   4.261
78875CL-    CL-40164   3.342  30.065   1.344
78876CL-    CL-40165   6.394   2.725  11.895
78877CL-    CL-40166  19.054  27.151   2.722
78878CL-    CL-40167   9.869  21.525  11.002
78879CL-    CL-40168  18.596  42.513  11.968
78880CL-    CL-40169   3.296  39.428  13.533
78881CL-    CL-40170  39.343  14.804  12.023
78882CL-    CL-40171  28.566  33.403  11.480
78883CL-    CL-40172   2.378  22.205  13.847
78884CL-    CL-40173  31.033   9.784  13.521
78885CL-    CL-40174  27.100  35.479  10.974
78886CL-    CL-40175  33.552   0.775   3.650
78887CL-    CL-40176   5.422  16.707  13.357
78888CL-    CL-40177  43.463  41.396   4.141
78889CL-    CL-40178   9.863  43.490   3.222
78890CL-    CL-40179  29.937  43.291   2.794
78891CL-    CL-40180  14.157   2.287  11.456
78892CL-    CL-40181  27.648   0.310  10.547
78893CL-    CL-40182  41.458   9.332   1.296
78894CL-    CL-40183  26.067  44.954   4.263
78895CL-    CL-40184  42.951   3.790  11.588
78896CL-    CL-40185  20.667   6.378  13.931
78897CL-    CL-40186  32.058  20.567   4.660
78898CL-    CL-40187  20.550  14.339   3.793
78899CL-    CL-40188  23.029  23.623   0.882
78900CL-    CL-40189  25.700  11.862  11.002
78901CL-    CL-40190  11.670  30.596   3.375
78902CL-    CL-40191  23.028  43.325  12.905
78903CL-    CL-40192  32.422   2.939   0.402
78904CL-    CL-40193  29.514  39.358  12.030
78905CL-    CL-40194  34.945  35.510   4.702
78906CL-    CL-40195  26.600  42.334   0.409
78907CL-    CL-40196   8.875  42.027   1.884
78908CL-    CL-40197   5.808  35.519  12.466
78909CL-    CL-40198  35.100  28.456   0.741
78910CL-    CL-40199   2.730  27.021   3.157
78911CL-    CL-40200   1.964  31.103   0.796
78912CL-    CL-40201  18.053  35.550   4.797
78913CL-    CL-40202   6.303  24.002   0.835
78914CL-    CL-40203  26.606  38.507  11.013
78915CL-    CL-40204  18.186  19.073   3.803
78916CL-    CL-40205  12.235  22.685   2.784
78917CL-    CL-40206  23.605  20.757  10.549
78918CL-    CL-40207  15.128  24.211   4.268
78919CL-    CL-40208   9.655  12.336  12.879
78920CL-    CL-40209   9.175  29.077   2.296
78921CL-    CL-40210  21.051  42.427   3.636
78922CL-    CL-40211  26.172   9.761  11.508
78923CL-    CL-40212  18.567   2.417   0.477
78924CL-    CL-40213  29.054  15.736  10.153
78925CL-    CL-40214  11.162   5.310  12.367
78926CL-    CL-40215   3.814  35.578   1.922
78927CL-    CL-40216  21.645  11.719  12.846
78928CL-    CL-40217   9.738   3.872   3.753
78929CL-    CL-40218  13.162  12.705   3.353
78930CL-    CL-40219  19.746  29.055  12.910
78931CL-    CL-40220  10.331  32.427   1.760
78932CL-    CL-40221   9.173  10.802   2.681
78933CL-    CL-40222  21.689  20.057  11.945
78934CL-    CL-40223   6.375  19.209  14.331
78935CL-    CL-40224  27.670  27.027  13.884
78936CL-    CL-40225  11.349  42.948  13.419
78937CL-    CL-40226  35.471  32.453  14.993
78938CL-    CL-40227  38.540  30.132  12.566
78939CL-    CL-40228   2.284  42.515  13.496
78940CL-    CL-40229  41.032  30.968  12.536
78941CL-    CL-40230  27.138  27.184  12.947
78942CL-    CL-40231  27.082   4.919  11.862
78943CL-    CL-40232  18.707  34.900  14.030
78944CL-    CL-40233  36.005  36.076  10.541
78945CL-    CL-40234  24.181  34.985  13.934
78946CL-    CL-40235  16.109   3.436  12.839
78947CL-    CL-40236  41.920  22.212   3.185
78948CL-    CL-40237  39.875   7.344  11.379
78949CL-    CL-40238   7.699  25.694   3.765
78950CL-    CL-40239  16.152  23.731   4.656
78951CL-    CL-40240  38.890  15.287   2.287
78952CL-    CL-40241  38.905  27.490   3.151
78953CL-    CL-40242  42.989   9.361  13.909
78954CL-    CL-40243   2.907   8.256  11.516
78955CL-    CL-40244  19.210   7.710   1.396
78956CL-    CL-40245  44.330   2.308   4.760
78957CL-    CL-40246   5.928  42.293   0.299
78958CL-    CL-40247  43.441  41.897   3.307
78959CL-    CL-40248  10.753  11.822  12.555
78960CL-    CL-40249  43.491   0.810  13.412
78961CL-    CL-40250  33.000   0.861   2.321
78962CL-    CL-40251  13.730   1.894  10.085
78963CL-    CL-40252   7.773  31.572  12.389
78964CL-    CL-40253  44.941   6.277  10.970
78965CL-    CL-40254   4.249   6.700   2.883
78966CL-    CL-40255   0.270  39.879  11.504
78967CL-    CL-40256  10.851  44.974  13.537
78968CL-    CL-40257  32.964  25.525   2.809
78969CL-    CL-40258  28.571   3.715  11.492
78970CL-    CL-40259  29.142  40.434   3.213
78971CL-    CL-40260   9.249  20.730  13.022
78972CL-    CL-40261  34.966  32.448  12.379
78973CL-    CL-40262  13.299  28.068  14.940
78974CL-    CL-40263   0.400  31.980  11.514
78975CL-    CL-40264  20.639   3.876  12.020
78976CL-    CL-40265  21.678  24.573   2.323
78977CL-    CL-40266  26.032  33.945   4.315
78978CL-    CL-40267  44.375  39.915   3.824
78979CL-    CL-40268  23.192  33.999   0.329
78980CL-    CL-40269  22.101  13.791  10.498
78981CL-    CL-40270  15.143  14.663  10.984
78982CL-    CL-40271  17.118   5.288   2.204
78983CL-    CL-40272  22.077  25.680  14.435
78984CL-    CL-40273  44.933  10.317   2.881
78985CL-    CL-40274  19.169  44.954  14.378
78986CL-    CL-40275  25.489  12.213  11.448
78987CL-    CL-40276   0.269  42.367  11.105
78988CL-    CL-40277   4.818  27.626  12.505
78989CL-    CL-40278   4.700  20.729   1.235
78990CL-    CL-40279   3.417  15.577  13.995
78991CL-    CL-40280  13.222  13.632  14.458
78992CL-    CL-40281   2.290  21.628  14.354
78993CL-    CL-40282   2.264   5.871   0.833
78994CL-    CL-40283  27.454  24.586   3.650
78995CL-    CL-40284   0.391  27.682  13.376
78996CL-    CL-40285   0.491  13.843  11.073
78997CL-    CL-40286  37.576  30.930  13.826
78998CL-    CL-40287  30.154   6.845   4.319
78999CL-    CL-40288  27.503   9.347   1.322
79000CL-    CL-40289  19.723   9.241  13.932
79001CL-    CL-40290  37.440  13.159   1.369
79002CL-    CL-40291  10.194  34.497   4.281
79003CL-    CL-40292  28.452  20.650  12.997
79004CL-    CL-40293  15.109  43.449  12.386
79005CL-    CL-40294  13.289   6.262   2.346
79006CL-    CL-40295  20.645   2.835   0.963
79007CL-    CL-40296  11.697   3.839   4.203
79008CL-    CL-40297  12.791  14.594   1.917
79009CL-    CL-40298  19.689  22.692   1.888
79010CL-    CL-40299  15.794  28.138   2.288
79011CL-    CL-40300  19.265  20.093  13.056
79012CL-    CL-40301  22.041  32.553  13.931
79013CL-    CL-40302  18.071   7.665   3.168
79014CL-    CL-40303  33.540   0.360  13.443
79015CL-    CL-40304   0.854  39.010  11.016
79016CL-    CL-40305  20.232  32.926   3.746
79017CL-    CL-40306  38.958  34.481  13.940
79018CL-    CL-40307   8.725  14.242  10.052
79019CL-    CL-40308   0.744  26.481  14.005
79020CL-    CL-40309  40.529  10.673  13.992
79021CL-    CL-40310  19.110  25.148  10.536
79022CL-    CL-40311  36.406  43.502   3.293
79023CL-    CL-40312  34.542  41.796   1.931
79024CL-    CL-40313  33.609  26.458   3.322
79025CL-    CL-40314  17.657  41.472  13.390
79026CL-    CL-40315  39.890  44.436   1.282
79027CL-    CL-40316  40.843  11.678  13.533
79028CL-    CL-40317  16.586  43.492   3.146
79029CL-    CL-40318  34.988   5.235   3.148
79030CL-    CL-40319   9.811  19.081  11.443
79031CL-    CL-40320   1.359  26.042   4.807
79032CL-    CL-40321  13.297  12.668   0.431
79033CL-    CL-40322  24.057   9.812   0.860
79034CL-    CL-40323  32.898  35.976   1.804
79035CL-    CL-40324   9.392  38.996  10.055
79036CL-    CL-40325  40.916  34.002  14.443
79037CL-    CL-40326  31.499   8.760   1.771
79038CL-    CL-40327  20.741  29.001  12.057
79039CL-    CL-40328  29.608  27.505  12.387
79040CL-    CL-40329  25.607  27.165   1.849
79041CL-    CL-40330   9.165  11.291   0.443
79042CL-    CL-40331  44.335  11.799   2.256
79043CL-    CL-40332  30.570  31.932   3.327
79044CL-    CL-40333   9.237  30.125  14.989
79045CL-    CL-40334  20.221  25.052  13.908
79046CL-    CL-40335  20.095  14.826  14.846
79047CL-    CL-40336   1.433  23.644   1.889
79048CL-    CL-40337  13.780  30.583  14.363
79049CL-    CL-40338  14.127   0.443   0.393
79050CL-    CL-40339  30.998  31.896   0.956
79051CL-    CL-40340   6.806  11.343   2.674
79052CL-    CL-40341  32.537  19.224   3.649
79053CL-    CL-40342   3.286   0.914   5.151
79054CL-    CL-40343  42.028   2.319   4.128
79055CL-    CL-40344  27.494  36.464  10.558
79056CL-    CL-40345  41.949  16.581   4.302
79057CL-    CL-40346  31.592  12.333   1.419
79058CL-    CL-40347   2.388   7.856   0.323
79059CL-    CL-40348   2.937  36.076   1.250
79060CL-    CL-40349  30.924  37.581  13.911
79061CL-    CL-40350  17.063  11.172   1.889
79062CL-    CL-40351   2.740   2.878  10.888
79063CL-    CL-40352  18.551   5.439   4.702
79064CL-    CL-40353   3.340   4.342  13.513
79065CL-    CL-40354  18.653   6.743  10.620
79066CL-    CL-40355  40.026   5.386  12.834
79067CL-    CL-40356  24.180  29.484   1.300
79068CL-    CL-40357  18.788  34.381   0.249
79069CL-    CL-40358  21.735  34.867  10.640
79070CL-    CL-40359   1.786  18.551  10.977
79071CL-    CL-40360  44.469  23.648   2.208
79072CL-    CL-40361  29.173  28.500  12.554
79073CL-    CL-40362  26.102  25.492   4.348
79074CL-    CL-40363  28.020  19.547   2.784
79075CL-    CL-40364   2.832  15.792  11.045
79076CL-    CL-40365  18.761  28.135   3.719
79077CL-    CL-40366  16.200  39.012  11.425
79078CL-    CL-40367   2.843  21.635  12.423
79079CL-    CL-40368  17.087  20.535  12.888
79080CL-    CL-40369  23.690  16.263   0.483
79081CL-    CL-40370  43.879  19.122  13.922
79082CL-    CL-40371  34.419  20.612   2.358
79083CL-    CL-40372  12.270   0.282   2.832
79084CL-    CL-40373  43.905  36.442  11.961
79085CL-    CL-40374  27.046   2.328   1.898
79086CL-    CL-40375  34.461  43.401  12.407
79087CL-    CL-40376  41.009  35.040   1.812
79088CL-    CL-40377  36.034  11.173  12.831
79089CL-    CL-40378  10.790  20.769  13.501
79090CL-    CL-40379  11.653   8.290   3.847
79091CL-    CL-40380  33.107  25.703  11.554
79092CL-    CL-40381  16.667  21.018  11.541
79093CL-    CL-40382  42.304  14.120  13.850
79094CL-    CL-40383  15.632  14.336  14.764
79095CL-    CL-40384  43.993   7.862  11.096
79096CL-    CL-40385  17.602  10.731   1.329
79097CL-    CL-40386  40.465   2.234  10.993
79098CL-    CL-40387   1.770  23.581   2.898
79099CL-    CL-40388  18.587  16.582  13.356
79100CL-    CL-40389  24.711  11.294   1.432
79101CL-    CL-40390  21.650  37.899   1.864
79102CL-    CL-40391  30.106  22.623   4.217
79103CL-    CL-40392   5.275  35.389  12.873
79104CL-    CL-40393   9.710  29.017   0.793
79105CL-    CL-40394  12.684  20.093  13.341
79106CL-    CL-40395  11.639  17.599  10.588
79107CL-    CL-40396  38.917  30.129   1.411
79108CL-    CL-40397  17.645  12.233  14.808
79109CL-    CL-40398   7.911  34.058  11.567
79110CL-    CL-40399  28.569   9.283   0.882
79111CL-    CL-40400  32.905  27.548   4.125
79112CL-    CL-40401  15.134  43.341  13.026
79113CL-    CL-40402  34.902  35.387  12.342
79114CL-    CL-40403  36.847  44.397   2.186
79115CL-    CL-40404  42.020  16.741  14.031
79116CL-    CL-40405  17.561  16.790  14.399
79117CL-    CL-40406  25.034  42.830  14.962
79118CL-    CL-40407   4.698  12.768   3.640
79119CL-    CL-40408  35.430   1.453   4.238
79120CL-    CL-40409  12.727  16.157  12.939
79121CL-    CL-40410  17.286   6.243   1.890
79122CL-    CL-40411   2.957  24.190   4.780
79123CL-    CL-40412   7.251  30.567  12.849
79124CL-    CL-40413   6.707  22.655   5.316
79125CL-    CL-40414  18.234   6.749  11.023
79126CL-    CL-40415  33.895  26.002   1.840
79127CL-    CL-40416   8.813  43.457  11.429
79128CL-    CL-40417  20.210   0.387   4.605
79129CL-    CL-40418  22.664  18.208  10.522
79130CL-    CL-40419   3.455  12.649   4.300
79131CL-    CL-40420  24.038   8.879   1.895
79132CL-    CL-40421  25.631  15.638  12.842
79133CL-    CL-40422  33.130  36.864  11.994
79134CL-    CL-40423   4.328  29.626   1.822
79135CL-    CL-40424  22.218   4.830   2.405
79136CL-    CL-40425  34.509  31.438   0.246
79137CL-    CL-40426   7.203  28.504   1.855
79138CL-    CL-40427  33.433  15.823  11.031
79139CL-    CL-40428  15.811   3.440  12.347
79140CL-    CL-40429  36.493  14.713  12.891
79141CL-    CL-40430  29.468  31.921   4.612
79142CL-    CL-40431  27.997   1.780   5.163
79143CL-    CL-40432   7.352  15.583  14.278
79144CL-    CL-40433  25.505  27.999  14.845
79145CL-    CL-40434  13.164  25.550  10.598
79146CL-    CL-40435  13.804  18.680   0.306
79147CL-    CL-40436   0.449  13.842   3.372
79148CL-    CL-40437  20.260  13.765  14.414
79149CL-    CL-40438  43.808  15.156   4.829
79150CL-    CL-40439  30.437   6.256   1.264
79151CL-    CL-40440  13.655  36.495   3.645
79152CL-    CL-40441  42.282  43.803  11.483
79153CL-    CL-40442   1.256  13.620  12.490
79154CL-    CL-40443  10.806  20.187  12.837
79155CL-    CL-40444   9.250  39.879  13.489
79156CL-    CL-40445  39.496   5.895  14.372
79157CL-    CL-40446  13.112  22.039   0.473
79158CL-    CL-40447  43.769  21.060   1.420
79159CL-    CL-40448  14.179   8.890   3.196
79160CL-    CL-40449  13.773  29.565  13.421
79161CL-    CL-40450   9.765  16.287   3.303
79162CL-    CL-40451  28.185  20.684   3.744
79163CL-    CL-40452  22.563  40.344   3.785
79164CL-    CL-40453  14.335  11.855   1.738
79165CL-    CL-40454   0.300  39.453   3.369
79166CL-    CL-40455  19.175   5.289  13.408
79167CL-    CL-40456   2.253  17.265  14.331
79168CL-    CL-40457   9.866  28.961   2.735
79169CL-    CL-40458  31.897  32.478  10.919
79170CL-    CL-40459  12.803  11.858  13.427
79171CL-    CL-40460  21.023   1.905  14.915
79172CL-    CL-40461  33.600  15.695   2.758
79173CL-    CL-40462  10.170  17.122  13.313
79174CL-    CL-40463  37.017  29.434   1.308
79175CL-    CL-40464  21.029  34.585  13.458
79176CL-    CL-40465   2.416  19.102  14.936
79177CL-    CL-40466  12.703  30.603   4.722
79178CL-    CL-40467  27.174  14.241   1.310
79179CL-    CL-40468   4.827  26.623   2.679
79180CL-    CL-40469   8.838  34.960  11.105
79181CL-    CL-40470  23.492  35.088  10.896
79182CL-    CL-40471  11.641  29.029   0.314
79183CL-    CL-40472  15.787  42.933   0.944
79184CL-    CL-40473   3.249  40.471  14.433
79185CL-    CL-40474  41.849   4.764   3.684
79186CL-    CL-40475  18.790  30.559   1.759
79187CL-    CL-40476  28.098   6.234   0.365
79188CL-    CL-40477  39.343  29.553   3.336
79189CL-    CL-40478  36.558  23.223   3.262
79190CL-    CL-40479  30.567  31.474   0.394
79191CL-    CL-40480  10.220  37.371  12.007
79192CL-    CL-40481  28.954  19.634   3.351
79193CL-    CL-40482  41.016  43.276  12.846
79194CL-    CL-40483   4.392  28.175   4.795
79195CL-    CL-40484  10.673  35.978  13.491
79196CL-    CL-40485   3.870  35.386   4.345
79197CL-    CL-40486  15.267  23.677   1.269
79198CL-    CL-40487  42.509  12.768   1.242
79199CL-    CL-40488  34.590  14.310   5.278
79200CL-    CL-40489  44.414   7.681  13.401
79201CL-    CL-40490  15.284  44.791  14.342
79202CL-    CL-40491  22.570  10.731   1.756
79203CL-    CL-40492  29.627  28.976   0.868
79204CL-    CL-40493  43.954  18.788  13.325
79205CL-    CL-40494  14.296  29.578   5.154
79206CL-    CL-40495   9.664  16.652   2.664
79207CL-    CL-40496  10.324  33.878   5.116
79208CL-    CL-40497  33.043  14.315   4.244
79209CL-    CL-40498  10.295   3.424  13.409
79210CL-    CL-40499  35.866   3.341  11.591
79211CL-    CL-40500  19.112  19.184  10.598
79212CL-    CL-40501  10.675  20.033   4.178
79213CL-    CL-40502  27.548   7.891  10.100
79214CL-    CL-40503  20.228  13.672   2.200
79215CL-    CL-40504   9.760  35.949   4.179
79216CL-    CL-40505  38.492  21.606   1.289
79217CL-    CL-40506   7.788  21.146  11.116
79218CL-    CL-40507  25.053  15.168   4.732
79219CL-    CL-40508  22.545  27.456  12.473
79220CL-    CL-40509  30.479   7.753   0.457
79221CL-    CL-40510   3.227  41.301   4.611
79222CL-    CL-40511  40.512  34.111  10.944
79223CL-    CL-40512  21.539  40.363  10.900
79224CL-    CL-40513  15.716   5.837  12.341
79225CL-    CL-40514  38.959   9.668   2.787
79226CL-    CL-40515  29.996  44.329   1.817
79227CL-    CL-40516  43.448  39.362   4.624
79228CL-    CL-40517  40.475  27.511   4.756
79229CL-    CL-40518  31.417  34.471  10.958
79230CL-    CL-40519  37.893  10.814  14.836
79231CL-    CL-40520  40.874  25.592  10.924
79232CL-    CL-40521  26.531  25.077   0.742
79233CL-    CL-40522  22.704   9.193   0.452
79234CL-    CL-40523  32.032  41.299   0.419
79235CL-    CL-40524  15.700  10.802   5.314
79236CL-    CL-40525   1.943  39.006   3.687
79237CL-    CL-40526  15.663  43.398   1.874
79238CL-    CL-40527  28.992   4.791  10.495
79239CL-    CL-40528  16.705  23.584  13.433
79240CL-    CL-40529  31.564  21.663  12.981
79241CL-    CL-40530   0.401  37.841  14.510
79242CL-    CL-40531  26.094  11.345   2.824
79243CL-    CL-40532   3.862  42.329   0.250
79244CL-    CL-40533  16.805  32.454   4.161
79245CL-    CL-40534  36.057  29.125  13.429
79246CL-    CL-40535  20.241  39.425  11.981
79247CL-    CL-40536  29.160   2.405  12.359
79248CL-    CL-40537  44.451  26.550   1.387
79249CL-    CL-40538  19.201  21.226  13.037
79250CL-    CL-40539  14.724  27.495   3.654
79251CL-    CL-40540  17.713  29.505   1.444
79252CL-    CL-40541  36.068  41.943  13.456
79253CL-    CL-40542   7.322  30.024  11.975
79254CL-    CL-40543   6.320  41.504  12.946
79255CL-    CL-40544   8.330  12.241   0.916
79256CL-    CL-40545  26.139   4.219  14.763
79257CL-    CL-40546  26.979  33.621  13.050
79258CL-    CL-40547   0.304  32.019  14.919
79259CL-    CL-40548  41.884  28.154   4.197
79260CL-    CL-40549  38.913  41.417  11.602
79261CL-    CL-40550  17.147   5.303   0.812
79262CL-    CL-40551  26.082  25.178   1.723
79263CL-    CL-40552   6.798  35.855  13.902
79264CL-    CL-40553   3.917   8.854   2.697
79265CL-    CL-40554  20.629  13.193   3.189
79266CL-    CL-40555   4.705   8.679   1.405
79267CL-    CL-40556  26.572  35.578  13.846
79268CL-    CL-40557  22.226  27.652   4.250
79269CL-    CL-40558  22.600  23.133  11.030
79270CL-    CL-40559  39.018  21.537   2.412
79271CL-    CL-40560  12.670  22.243  12.086
79272CL-    CL-40561  14.178  22.547   1.765
79273CL-    CL-40562  10.686  21.071   1.916
79274CL-    CL-40563  28.500  36.091   3.771
79275CL-    CL-40564  37.509  34.901   5.153
79276CL-    CL-40565  27.527  10.238  12.963
79277CL-    CL-40566  39.507   8.198   3.698
79278CL-    CL-40567   6.199  35.520  12.070
79279CL-    CL-40568  43.960  42.285   3.746
79280CL-    CL-40569   1.951  29.576  10.479
79281CL-    CL-40570  28.639  11.785  14.806
79282CL-    CL-40571   5.872  24.592  11.536
79283CL-    CL-40572  30.617  10.374  13.539
79284CL-    CL-40573  15.310  22.249  14.942
79285CL-    CL-40574   8.215  34.950  14.324
79286CL-    CL-40575  10.866  43.965  14.470
79287CL-    CL-40576  23.549  12.684  11.375
79288CL-    CL-40577   8.250   0.950   0.484
79289CL-    CL-40578  21.622  35.601  13.841
79290CL-    CL-40579  36.511  17.273  11.526
79291CL-    CL-40580   2.408  10.324  14.513
79292CL-    CL-40581  44.271  14.745   1.395
79293CL-    CL-40582  43.409  27.185  11.548
79294CL-    CL-40583   7.408  37.998  11.971
79295CL-    CL-40584  31.131  16.192  14.304
79296CL-    CL-40585  12.829  22.531  14.277
79297CL-    CL-40586  11.205   0.805  12.866
79298CL-    CL-40587  44.983   8.692   5.634
79299CL-    CL-40588  19.230  15.187   0.335
79300CL-    CL-40589  11.625  13.263  14.503
79301CL-    CL-40590  28.035  27.074  11.532
79302CL-    CL-40591   0.335  31.607   4.318
79303CL-    CL-40592  17.626  13.754  14.359
79304CL-    CL-40593  17.602   9.805   0.826
79305CL-    CL-40594  39.833  18.719  14.964
79306CL-    CL-40595   9.319  44.420  13.040
79307CL-    CL-40596  29.594  27.958  11.377
79308CL-    CL-40597   6.249  39.004  13.910
79309CL-    CL-40598  25.155   0.474   4.786
79310CL-    CL-40599   3.325  43.882   1.432
79311CL-    CL-40600  29.017   5.723  12.891
79312CL-    CL-40601  10.790  19.586   0.280
79313CL-    CL-40602   2.954  30.913   4.251
79314CL-    CL-40603  28.025  40.366  14.401
79315CL-    CL-40604  33.069  26.987   0.423
79316CL-    CL-40605  18.067  30.586   1.303
79317CL-    CL-40606   8.303  14.800   4.168
79318CL-    CL-40607   4.255   6.741   3.641
79319CL-    CL-40608  18.054  27.069  12.049
79320CL-    CL-40609   7.749  41.377   3.246
79321CL-    CL-40610  41.344   1.943  10.554
79322CL-    CL-40611  11.834  12.151  13.509
79323CL-    CL-40612  10.295   2.748   2.741
79324CL-    CL-40613  36.002   0.477  14.929
79325CL-    CL-40614  24.698  13.226  12.878
79326CL-    CL-40615   9.840  36.381  12.929
79327CL-    CL-40616  30.459  32.021   2.342
79328CL-    CL-40617  29.458  16.177  14.343
79329CL-    CL-40618  21.096  42.878  14.396
79330CL-    CL-40619  17.578  15.283  14.418
79331CL-    CL-40620   3.217  17.174  13.802
79332CL-    CL-40621  20.203  23.636  13.914
79333CL-    CL-40622  37.343  35.480   2.284
79334CL-    CL-40623   0.937  27.111   4.648
79335CL-    CL-40624  22.221  34.909   4.770
79336CL-    CL-40625   0.751  17.656   0.834
79337CL-    CL-40626  22.718  13.324   2.853
79338CL-    CL-40627   9.714  22.187   2.224
79339CL-    CL-40628  28.618  44.906  10.411
79340CL-    CL-40629  37.888  21.708   0.386
79341CL-    CL-40630  27.152   4.287   4.237
79342CL-    CL-40631  24.075  16.083  11.536
79343CL-    CL-40632  17.117   8.655   0.417
79344CL-    CL-40633  23.225  30.914   0.817
79345CL-    CL-40634  10.812  39.508  13.810
79346CL-    CL-40635  23.219  14.700  14.818
79347CL-    CL-40636   0.924  13.173  14.016
79348CL-    CL-40637  22.012   4.228   1.882
79349CL-    CL-40638  10.771  16.072   2.334
79350CL-    CL-40639  26.491  16.790  12.471
79351CL-    CL-40640  38.364  37.444   0.792
79352CL-    CL-40641  28.046   8.217  12.078
79353CL-    CL-40642  28.074  11.710  12.830
79354CL-    CL-40643  16.803  15.703   4.707
79355CL-    CL-40644  26.182  31.901  12.344
79356CL-    CL-40645  43.785  40.411   3.345
79357CL-    CL-40646   1.470  23.691  14.443
79358CL-    CL-40647   9.254   0.291  10.618
79359CL-    CL-40648  10.179  42.839  10.418
79360CL-    CL-40649  15.297  42.867  10.507
79361CL-    CL-40650  27.451  10.663   5.760
79362CL-    CL-40651  35.389  42.886   2.872
79363CL-    CL-40652  18.292  41.462   2.787
79364CL-    CL-40653  26.660  29.140   3.733
79365CL-    CL-40654  26.958  39.319  11.953
79366CL-    CL-40655  36.091   7.793   0.908
79367CL-    CL-40656   8.860  38.361   1.765
79368CL-    CL-40657   4.805  36.081  10.425
79369CL-    CL-40658  34.038  21.568   1.717
79370CL-    CL-40659  13.257  27.489   4.153
79371CL-    CL-40660  19.748  34.054   1.865
79372CL-    CL-40661  24.576  20.743   1.340
79373CL-    CL-40662  12.616  13.335  11.555
79374CL-    CL-40663  21.757  43.976   3.150
79375CL-    CL-40664  27.525  41.988  14.965
79376CL-    CL-40665  30.909  20.679  11.068
79377CL-    CL-40666   4.883   8.173   0.382
79378CL-    CL-40667   7.410   0.266  10.440
79379CL-    CL-40668  30.935   0.973  12.523
79380CL-    CL-40669  42.366  16.275  14.286
79381CL-    CL-40670  15.722  30.937  14.783
79382CL-    CL-40671  24.107  31.963  13.798
79383CL-    CL-40672  17.601  35.009  11.891
79384CL-    CL-40673  27.653  40.396   0.413
79385CL-    CL-40674  37.467   8.809  14.466
79386CL-    CL-40675   4.739   1.823  10.420
79387CL-    CL-40676  28.438  22.181  11.462
79388CL-    CL-40677   0.366   7.694   1.313
79389CL-    CL-40678  24.214   3.876   1.771
79390CL-    CL-40679  29.487  10.174   1.285
79391CL-    CL-40680  30.659  28.451  10.511
79392CL-    CL-40681  33.604   7.235   0.265
79393CL-    CL-40682  41.454  13.623  13.809
79394CL-    CL-40683  20.213   6.873   2.819
79395CL-    CL-40684   1.258  33.619  13.942
79396CL-    CL-40685  37.061  34.448   1.378
79397CL-    CL-40686  30.562  32.594  13.892
79398CL-    CL-40687   4.274  19.218   3.695
79399CL-    CL-40688  29.522  31.046   3.331
79400CL-    CL-40689  24.077  17.565  13.031
79401CL-    CL-40690  41.485  33.410   0.290
79402CL-    CL-40691   1.350  19.777  13.804
79403CL-    CL-40692  29.579  42.967   1.431
79404CL-    CL-40693  11.718  15.179   1.344
79405CL-    CL-40694  14.663  40.914   1.332
79406CL-    CL-40695  29.127  34.031  13.320
79407CL-    CL-40696  41.897   0.960   3.295
79408CL-    CL-40697  15.736   7.869   4.240
79409CL-    CL-40698  24.154  38.443   4.781
79410CL-    CL-40699  11.756   3.757  12.856
79411CL-    CL-40700  23.693   1.907   2.374
79412CL-    CL-40701   9.705  11.372   2.179
79413CL-    CL-40702  11.683  42.514  13.308
79414CL-    CL-40703   2.799  18.738  12.365
79415CL-    CL-40704  13.759  41.936   0.805
79416CL-    CL-40705  44.818   4.734   0.377
79417CL-    CL-40706  40.918  12.293   4.252
79418CL-    CL-40707  35.872   1.366   0.396
79419CL-    CL-40708  27.538  44.936   1.736
79420CL-    CL-40709   9.224  21.205  11.611
79421CL-    CL-40710  35.378  11.131   4.314
79422CL-    CL-40711  15.676  29.104  11.023
79423CL-    CL-40712  38.896   3.376  10.027
79424CL-    CL-40713   1.935  13.217  11.871
79425CL-    CL-40714  10.716  35.889   3.318
79426CL-    CL-40715  19.092  31.995  10.991
79427CL-    CL-40716  42.926  16.089   0.769
79428CL-    CL-40717   7.766   7.280   2.839
79429CL-    CL-40718  26.025  25.209   0.917
79430CL-    CL-40719  38.467  40.332   2.723
79431CL-    CL-40720   5.269  34.066   4.740
79432CL-    CL-40721  29.096  14.160   1.861
79433CL-    CL-40722  28.632  22.677   9.970
79434CL-    CL-40723  33.098  41.796  11.944
79435CL-    CL-40724  33.061  28.093   4.688
79436CL-    CL-40725  27.069  37.343  12.533
79437CL-    CL-40726   7.785  11.349   2.295
79438CL-    CL-40727   2.891  27.581   3.283
79439CL-    CL-40728   7.239  27.632  12.914
79440CL-    CL-40729  43.949  24.539   3.305
79441CL-    CL-40730  16.147  42.523   4.707
79442CL-    CL-40731  42.464  41.421   4.135
79443CL-    CL-40732   7.694  16.200  13.400
79444CL-    CL-40733  14.190  41.908   0.813
79445CL-    CL-40734  32.566  27.180   0.266
79446CL-    CL-40735  10.817   3.801   5.713
79447CL-    CL-40736  21.168   0.975   3.694
79448CL-    CL-40737  27.940  38.501   2.747
79449CL-    CL-40738   0.267  27.632  12.482
79450CL-    CL-40739   9.765  30.959  10.595
79451CL-    CL-40740  35.465  24.215   3.345
79452CL-    CL-40741  28.065  14.247  10.977
79453CL-    CL-40742  31.148   2.299   4.813
79454CL-    CL-40743  11.167  23.011   3.372
79455CL-    CL-40744  14.310  17.696  13.367
79456CL-    CL-40745  28.975  39.492   3.765
79457CL-    CL-40746  16.574  32.486  11.561
79458CL-    CL-40747  39.432   7.382  14.468
79459CL-    CL-40748  41.384   0.834  10.929
79460CL-    CL-40749  19.063   7.212   1.803
79461CL-    CL-40750  15.140  13.305   1.379
79462CL-    CL-40751  24.571  40.865   2.784
79463CL-    CL-40752  16.670   0.945  13.405
79464CL-    CL-40753  17.091  14.336  12.556
79465CL-    CL-40754  27.980  10.377   2.678
79466CL-    CL-40755  15.224  21.541   4.718
79467CL-    CL-40756  19.644  24.032   2.788
79468CL-    CL-40757  40.529  42.406  13.834
79469CL-    CL-40758  19.217  22.705  14.496
79470CL-    CL-40759  40.442  33.399  11.482
79471CL-    CL-40760   3.759  30.933  11.870
79472CL-    CL-40761   3.282  37.062  10.434
79473CL-    CL-40762  11.683  18.659   5.215
79474CL-    CL-40763  17.192  19.604  13.940
79475CL-    CL-40764  42.466   9.702   2.384
79476CL-    CL-40765   2.467   6.803   0.733
79477CL-    CL-40766  21.214  39.359   4.121
79478CL-    CL-40767  17.208  19.667   4.198
79479CL-    CL-40768  43.430  37.004   1.785
79480CL-    CL-40769  34.422   6.313  13.510
79481CL-    CL-40770  44.006  42.853  13.353
79482CL-    CL-40771  34.882  34.579   1.805
79483CL-    CL-40772  28.437   2.812   4.810
79484CL-    CL-40773   8.319  27.135   0.910
79485CL-    CL-40774  38.073  32.468   4.308
79486CL-    CL-40775   9.329  13.600   3.817
79487CL-    CL-40776  12.616  44.946   4.319
79488CL-    CL-40777  15.747  33.072   1.877
79489CL-    CL-40778  28.020  32.913   0.278
79490CL-    CL-40779   0.847  30.936  12.548
79491CL-    CL-40780  44.362   9.824  12.559
79492CL-    CL-40781  30.655  16.587  12.028
79493CL-    CL-40782  33.016  42.800  13.018
79494CL-    CL-40783  39.354  37.380   0.779
79495CL-    CL-40784  29.026  14.094   4.317
79496CL-    CL-40785   5.321  19.674  13.416
79497CL-    CL-40786  42.484  13.271   0.728
79498CL-    CL-40787  38.402  12.776  12.453
79499CL-    CL-40788  36.511  28.958  13.830
79500CL-    CL-40789  34.448  18.682   2.266
79501CL-    CL-40790  36.428   0.913   4.814
79502CL-    CL-40791  14.097   2.334   4.792
79503CL-    CL-40792   2.815  28.619   2.416
79504CL-    CL-40793  42.810  28.087   1.703
79505CL-    CL-40794  22.133  42.409  13.435
79506CL-    CL-40795  11.367   9.350  11.118
79507CL-    CL-40796  24.482  28.943   1.282
79508CL-    CL-40797  41.511  13.227  12.548
79509CL-    CL-40798   2.724   7.906   4.210
79510CL-    CL-40799   8.663  19.252  13.892
79511CL-    CL-40800  22.600  44.939  14.779
79512CL-    CL-40801  24.045  17.248  14.804
79513CL-    CL-40802   6.707  12.685  11.409
79514CL-    CL-40803  16.581  27.472  11.447
79515CL-    CL-40804  42.982  38.828  11.026
79516CL-    CL-40805  32.958  32.043   2.870
79517CL-    CL-40806  15.321   8.774  13.504
79518CL-    CL-40807  38.840  25.167   0.321
79519CL-    CL-40808  44.998  11.675  12.373
79520CL-    CL-40809  38.895  17.583   4.771
79521CL-    CL-40810  16.610   4.724  12.009
79522CL-    CL-40811   6.858  24.524   0.748
79523CL-    CL-40812  14.244  20.656  14.920
79524CL-    CL-40813  42.919  12.821   3.181
79525CL-    CL-40814  28.019  12.797   5.294
79526CL-    CL-40815  41.397   4.334   3.299
79527CL-    CL-40816   8.801   2.760   1.902
79528CL-    CL-40817  42.858  19.731   4.611
79529CL-    CL-40818  19.101  16.201  12.389
79530CL-    CL-40819  40.496  24.160  14.908
79531CL-    CL-40820  11.622  40.305  13.978
79532CL-    CL-40821  38.050  16.165  12.944
79533CL-    CL-40822  15.255   3.247  12.885
79534CL-    CL-40823  28.130  16.151  12.880
79535CL-    CL-40824  42.381  13.289  12.958
79536CL-    CL-40825  23.028  44.891   3.844
79537CL-    CL-40826  19.655  44.414   1.857
79538CL-    CL-40827  35.558   8.382   1.926
79539CL-    CL-40828  10.252  23.146   0.355
79540CL-    CL-40829  16.091  29.126  14.277
79541CL-    CL-40830  40.369  10.766   1.439
79542CL-    CL-40831  20.564  39.016   1.846
79543CL-    CL-40832  35.560  24.975  12.868
79544CL-    CL-40833  15.710  11.269   4.727
79545CL-    CL-40834  11.283   4.407   5.097
79546CL-    CL-40835  32.507  36.347  14.857
79547CL-    CL-40836  39.321  14.297  10.542
79548CL-    CL-40837  39.820   9.276  10.469
79549CL-    CL-40838  41.893  24.089  12.058
79550CL-    CL-40839  21.695  38.052  11.088
79551CL-    CL-40840  21.691  39.946   4.211
79552CL-    CL-40841   8.370  44.401  13.026
79553CL-    CL-40842  36.996  36.944   3.665
79554CL-    CL-40843  33.057  16.231   3.852
79555CL-    CL-40844  36.092  30.965   4.603
79556CL-    CL-40845   1.239  36.022   4.721
79557CL-    CL-40846  24.712   3.840  11.884
79558CL-    CL-40847   5.813  39.395   3.266
79559CL-    CL-40848  17.217   3.734  10.944
79560CL-    CL-40849  10.220  21.569  10.424
79561CL-    CL-40850  10.755  26.956   2.668
79562CL-    CL-40851  20.179  22.507  11.968
79563CL-    CL-40852  31.641  25.562  14.816
79564CL-    CL-40853  34.893  26.132   1.308
79565CL-    CL-40854  44.809  44.002  13.547
79566CL-    CL-40855  38.032  34.980  14.363
79567CL-    CL-40856  36.385   8.736  11.904
79568CL-    CL-40857   3.375   4.388   1.802
79569CL-    CL-40858  17.184  27.189   3.244
79570CL-    CL-40859  12.654  12.185   3.768
79571CL-    CL-40860  14.596  17.640  11.592
79572CL-    CL-40861  35.033  25.056  10.590
79573CL-    CL-40862  17.797   1.907  11.443
79574CL-    CL-40863  40.412  14.622  11.484
79575CL-    CL-40864  40.447  23.031   4.736
79576CL-    CL-40865   5.812  33.000  10.480
79577CL-    CL-40866  31.541  19.156  11.099
79578CL-    CL-40867  31.536  33.403  12.093
79579CL-    CL-40868  30.947  23.034  12.036
79580CL-    CL-40869  29.489  20.662   4.312
79581CL-    CL-40870  24.682   2.249   1.806
79582CL-    CL-40871  33.966  25.647   4.755
79583CL-    CL-40872  33.442  40.410   4.190
79584CL-    CL-40873  33.385  20.661   1.725
79585CL-    CL-40874   9.366  19.253  14.858
79586CL-    CL-40875  35.553  37.351   0.928
79587CL-    CL-40876  30.598  14.199  14.370
79588CL-    CL-40877   4.335  25.989   3.360
79589CL-    CL-40878  20.729  11.827   4.761
79590CL-    CL-40879  27.969  15.800  11.003
79591CL-    CL-40880  35.998  21.257   4.766
79592CL-    CL-40881  10.336   9.818  14.914
79593CL-    CL-40882  42.399  28.962  11.912
79594CL-    CL-40883   7.396  15.323   1.233
79595CL-    CL-40884  35.889  40.309   4.615
79596CL-    CL-40885  39.377  16.181   4.783
79597CL-    CL-40886  27.644  21.031  12.836
79598CL-    CL-40887  15.237  42.348   3.211
79599CL-    CL-40888  32.029   6.428   1.238
79600CL-    CL-40889  21.206  13.612  11.069
79601CL-    CL-40890  27.533  19.081   2.371
79602CL-    CL-40891  14.272  38.984  12.534
79603CL-    CL-40892  14.121  17.631  12.477
79604CL-    CL-40893  13.826  33.880  12.932
79605CL-    CL-40894  29.157  35.988   1.374
79606CL-    CL-40895  35.570  32.048   2.789
79607CL-    CL-40896   4.750  37.569   0.871
79608CL-    CL-40897  19.673  28.970   3.153
79609CL-    CL-40898   7.702   0.926   0.461
79610CL-    CL-40899   0.489  16.671  13.031
79611CL-    CL-40900  21.203  21.113  13.851
79612CL-    CL-40901   8.825   1.769  12.356
79613CL-    CL-40902   9.226  10.821  12.095
79614CL-    CL-40903  40.877  26.959   2.771
79615CL-    CL-40904  22.188  20.048  10.636
79616CL-    CL-40905  34.483  17.262   4.656
79617CL-    CL-40906   3.244   3.222   4.768
79618CL-    CL-40907   2.902  10.822  14.288
79619CL-    CL-40908  43.431  25.135   4.815
79620CL-    CL-40909  28.056  43.933  13.973
79621CL-    CL-40910  21.596   2.269   3.749
79622CL-    CL-40911  14.638  13.710   3.237
79623CL-    CL-40912  31.129  14.201  10.636
79624CL-    CL-40913  31.596  34.500   2.201
79625CL-    CL-40914  44.448  29.080  14.386
79626CL-    CL-40915  36.531   6.253   9.975
79627CL-    CL-40916   5.779  11.260   3.311
79628CL-    CL-40917  24.691  16.093  14.493
79629CL-    CL-40918  42.449   1.401   3.666
79630CL-    CL-40919  18.238  34.448   3.751
79631CL-    CL-40920  19.200   9.647   1.296
79632CL-    CL-40921  21.548  13.160   2.868
79633CL-    CL-40922  40.990   3.848  14.501
79634CL-    CL-40923  41.022   7.315   4.821
79635CL-    CL-40924  20.184   5.368   4.651
79636CL-    CL-40925   7.371  35.062  11.929
79637CL-    CL-40926  23.596  14.116  12.408
79638CL-    CL-40927  28.963  32.453  11.584
79639CL-    CL-40928  40.874  21.098  12.939
79640CL-    CL-40929  16.635   2.774  12.481
79641CL-    CL-40930  26.962  32.512  13.920
79642CL-    CL-40931   1.433  29.013   1.384
79643CL-    CL-40932  31.053   1.320   2.734
79644CL-    CL-40933  38.032  29.425   3.839
79645CL-    CL-40934  15.642  17.782  11.398
79646CL-    CL-40935  10.679  29.595   0.396
79647CL-    CL-40936  25.694  38.900   1.842
79648CL-    CL-40937  19.155  19.130  13.007
79649CL-    CL-40938   2.765  26.592   1.446
79650CL-    CL-40939  34.923  38.843  13.052
79651CL-    CL-40940   2.956  37.480  14.007
79652CL-    CL-40941  33.584  17.645   2.851
79653CL-    CL-40942  19.688  43.379   2.415
79654CL-    CL-40943  40.012  31.648  11.600
79655CL-    CL-40944  39.387  33.519  14.502
79656CL-    CL-40945  33.580  22.077  12.457
79657CL-    CL-40946  12.645  16.097  14.314
79658CL-    CL-40947  29.023   0.906  13.930
79659CL-    CL-40948  41.427  15.171  12.049
79660CL-    CL-40949  10.766  22.075   2.698
79661CL-    CL-40950  18.113  18.716  14.876
79662CL-    CL-40951  24.619  36.575  11.388
79663CL-    CL-40952   4.753  38.348  14.430
79664CL-    CL-40953  16.269  10.786  14.015
79665CL-    CL-40954   7.237  35.438  14.962
79666CL-    CL-40955  27.074  44.497   2.785
79667CL-    CL-40956  23.076  11.648  14.998
79668CL-    CL-40957  22.099  14.817  14.939
79669CL-    CL-40958  41.407  26.161   2.349
79670CL-    CL-40959   2.234  25.687   4.696
79671CL-    CL-40960  26.531  41.798  12.034
79672CL-    CL-40961  21.596   1.363   0.298
79673CL-    CL-40962  21.234  15.585  14.301
79674CL-    CL-40963  16.168  38.956   5.146
79675CL-    CL-40964  18.294   0.907   3.740
79676CL-    CL-40965  29.662  17.780   3.343
79677CL-    CL-40966  18.241   4.447  12.880
79678CL-    CL-40967  32.454  17.630   2.275
79679CL-    CL-40968  42.327  22.108   2.316
79680CL-    CL-40969  14.183  18.655   3.760
79681CL-    CL-40970  39.371   4.921   4.754
79682CL-    CL-40971  20.107   7.314   4.734
79683CL-    CL-40972  14.608  35.033   1.342
79684CL-    CL-40973  39.367  29.547   4.698
79685CL-    CL-40974   4.281  37.450   4.698
79686CL-    CL-40975   7.310  31.148  11.533
79687CL-    CL-40976  17.641  27.565   4.787
79688CL-    CL-40977   1.426   0.870  11.079
79689CL-    CL-40978   9.746  23.187   3.379
79690CL-    CL-40979   0.403   3.827   4.700
79691CL-    CL-40980  22.615  42.525  13.038
79692CL-    CL-40981  14.688  40.524  12.929
79693CL-    CL-40982  22.722   3.723   3.152
79694CL-    CL-40983  15.286  43.298  11.053
79695CL-    CL-40984  42.448  36.470  13.817
79696CL-    CL-40985  15.750  28.511   2.825
79697CL-    CL-40986   4.752  21.675   4.240
79698CL-    CL-40987  25.195  23.714   2.675
79699CL-    CL-40988  12.159  13.642  13.797
79700CL-    CL-40989  15.815  26.130  11.909
79701CL-    CL-40990  12.287  39.817   9.980
79702CL-    CL-40991  13.199  24.720   1.707
79703CL-    CL-40992  32.947  20.034   1.741
79704CL-    CL-40993   1.905  25.032  13.799
79705CL-    CL-40994  24.520  20.184  10.427
79706CL-    CL-40995   0.926  24.058  13.536
79707CL-    CL-40996  40.920  11.247   3.781
79708CL-    CL-40997  43.986  12.848   1.713
79709CL-    CL-40998  34.908   8.797  14.932
79710CL-    CL-40999  21.152  19.068   3.301
79711CL-    CL-41000  12.702   3.863   9.981
79712CL-    CL-41001  36.875  25.132   1.825
79713CL-    CL-41002   4.379  30.446   2.334
79714CL-    CL-41003   7.232   0.441  10.975
79715CL-    CL-41004  30.027  21.100   0.369
79716CL-    CL-41005  30.988  35.021   4.323
79717CL-    CL-41006  38.486  30.639   2.345
79718CL-    CL-41007  33.508  34.406   4.330
79719CL-    CL-41008  41.927  13.792  11.426
79720CL-    CL-41009  29.951  44.823   3.727
79721CL-    CL-41010  30.570   0.906   1.347
79722CL-    CL-41011  12.701  33.034  12.890
79723CL-    CL-41012   7.750  14.105   3.363
79724CL-    CL-41013   7.716  39.371   2.281
79725CL-    CL-41014  21.167  25.216   3.253
79726CL-    CL-41015  15.671  16.292  10.948
79727CL-    CL-41016   1.882  16.117  11.065
79728CL-    CL-41017  19.113  41.462   3.689
79729CL-    CL-41018  24.594  30.644  12.923
79730CL-    CL-41019  22.019   4.448   1.224
79731CL-    CL-41020  17.264  30.115   0.845
79732CL-    CL-41021  35.410  11.340   0.958
79733CL-    CL-41022  22.574  21.185  12.960
79734CL-    CL-41023  29.649  36.876   2.725
79735CL-    CL-41024  42.947   7.678  12.494
79736CL-    CL-41025  39.024  16.107   0.284
79737CL-    CL-41026  18.708  14.705   0.905
79738CL-    CL-41027  14.797   9.855  10.449
79739CL-    CL-41028  40.900  20.057   2.198
79740CL-    CL-41029  39.025  36.866  10.953
79741CL-    CL-41030  29.652   4.293  12.931
79742CL-    CL-41031   1.868  25.209   3.711
79743CL-    CL-41032   7.305  29.988  11.518
79744CL-    CL-41033   4.736  14.264   4.198
79745CL-    CL-41034  37.871  17.801  12.893
79746CL-    CL-41035   3.227  18.758   4.129
79747CL-    CL-41036   8.724  36.868   1.740
79748CL-    CL-41037  27.063  36.027  14.824
79749CL-    CL-41038  18.054  11.736  10.958
79750CL-    CL-41039  28.671   3.445   1.910
79751CL-    CL-41040  29.600   2.862  13.973
79752CL-    CL-41041  17.575  30.499   4.814
79753CL-    CL-41042  20.678  10.193   2.759
79754CL-    CL-41043  11.767   1.936  10.911
79755CL-    CL-41044  17.068  10.284   2.892
79756CL-    CL-41045  28.481  27.590   4.834
79757CL-    CL-41046  37.977  29.578  13.876
79758CL-    CL-41047   2.407  12.182   2.319
79759CL-    CL-41048  29.935  33.951  10.929
79760CL-    CL-41049  36.372  25.016  13.499
79761CL-    CL-41050   5.337  25.491  14.844
79762CL-    CL-41051   4.409  14.678   4.115
79763CL-    CL-41052  44.438  30.499  13.010
79764CL-    CL-41053   1.278  31.906  13.843
79765CL-    CL-41054  32.957  16.601  11.859
79766CL-    CL-41055   4.857  40.902  10.901
79767CL-    CL-41056  42.496   6.752  11.522
79768CL-    CL-41057  25.011   0.834  11.511
79769CL-    CL-41058   4.812   0.256  11.436
79770CL-    CL-41059  14.668  34.433   4.128
79771CL-    CL-41060   7.802  22.095   0.949
79772CL-    CL-41061   9.268  28.929  14.504
79773CL-    CL-41062  28.175  30.914   0.744
79774CL-    CL-41063  18.733  36.537  14.512
79775CL-    CL-41064  30.484  14.721  12.060
79776CL-    CL-41065   5.924  21.549  12.528
79777CL-    CL-41066  31.468   2.303   2.321
79778CL-    CL-41067  44.457  44.869   3.256
79779CL-    CL-41068  19.637   8.236   4.349
79780CL-    CL-41069   5.769   2.323   3.809
79781CL-    CL-41070  32.522  39.460   0.406
79782CL-    CL-41071  14.730   7.766   0.746
79783CL-    CL-41072  44.441  43.954   2.694
79784CL-    CL-41073  16.137  44.347  13.352
79785CL-    CL-41074  41.800  21.167  10.023
79786CL-    CL-41075  12.676  14.809  11.031
79787CL-    CL-41076   0.972   8.331   2.854
79788CL-    CL-41077  24.605  24.489   2.247
79789CL-    CL-41078   4.831  27.685  12.924
79790CL-    CL-41079  27.679  34.615   2.320
79791CL-    CL-41080  36.535  10.174   4.333
79792CL-    CL-41081  30.063  38.476   4.754
79793CL-    CL-41082  28.174  26.015   4.652
79794CL-    CL-41083  44.345  38.898   3.641
79795CL-    CL-41084   8.308   7.751  14.497
79796CL-    CL-41085  19.697  15.801   2.416
79797CL-    CL-41086  29.941   1.290   3.380
79798CL-    CL-41087  31.037  24.530  14.373
79799CL-    CL-41088  33.444  32.424  12.376
79800CL-    CL-41089  20.734   3.710   0.377
79801CL-    CL-41090  21.514  14.223  13.516
79802CL-    CL-41091  44.387   6.719   1.360
79803CL-    CL-41092   8.400  39.387   3.327
79804CL-    CL-41093  13.197  23.069  12.340
79805CL-    CL-41094  32.398  21.193  12.034
79806CL-    CL-41095  23.536  32.517   2.666
79807CL-    CL-41096  12.758   1.476  11.546
79808CL-    CL-41097   0.804  12.778  11.044
79809CL-    CL-41098  43.384  30.933  10.455
79810CL-    CL-41099  10.368  42.439  13.819
79811CL-    CL-41100  26.661  35.530   1.395
79812CL-    CL-41101  21.155  39.922  13.856
79813CL-    CL-41102  31.481  37.380  12.013
79814CL-    CL-41103  20.582   1.337   0.276
79815CL-    CL-41104  40.970  44.770  11.102
79816CL-    CL-41105   3.274   3.347  13.803
79817CL-    CL-41106  19.554  18.079  12.494
79818CL-    CL-41107   3.750  31.542  14.427
79819CL-    CL-41108  25.101  27.480   1.431
79820CL-    CL-41109  13.625  19.586  13.541
79821CL-    CL-41110  40.832   4.711   0.795
79822CL-    CL-41111  36.988  36.588   3.224
79823CL-    CL-41112   9.289   8.176  11.434
79824CL-    CL-41113  16.802  23.103   1.816
79825CL-    CL-41114  37.968  21.064  11.058
79826CL-    CL-41115   8.882  30.583  12.840
79827CL-    CL-41116  22.998  24.598   0.843
79828CL-    CL-41117  33.579  34.956   5.195
79829CL-    CL-41118  14.268  19.170  13.545
79830CL-    CL-41119  33.466  31.125   4.678
79831CL-    CL-41120  28.658  36.382  13.498
79832CL-    CL-41121  27.081  28.622  11.863
79833CL-    CL-41122  15.191   7.702   0.771
79834CL-    CL-41123  29.533  37.422  13.330
79835CL-    CL-41124  17.135  20.621  10.621
79836CL-    CL-41125  37.390   5.368   0.908
79837CL-    CL-41126  41.308  15.647  10.479
79838CL-    CL-41127  43.950  39.835  11.563
79839CL-    CL-41128   3.406  27.509  10.472
79840CL-    CL-41129  12.349  31.555  12.509
79841CL-    CL-41130  39.472  37.391  14.875
79842CL-    CL-41131  43.371  25.607  11.492
79843CL-    CL-41132   4.791  15.640   2.293
79844CL-    CL-41133   4.723  33.967  12.563
79845CL-    CL-41134  41.902  22.697  14.784
79846CL-    CL-41135  25.481  26.198  11.079
79847CL-    CL-41136  27.053  42.510  11.013
79848CL-    CL-41137  11.275  13.693  11.373
79849CL-    CL-41138  18.638  31.979   4.816
79850CL-    CL-41139   2.227  34.051  11.560
79851CL-    CL-41140  43.280  41.467  11.539
79852CL-    CL-41141  38.998  24.214   1.723
79853CL-    CL-41142  32.616   4.264   3.159
79854CL-    CL-41143  20.248  16.762  13.043
79855CL-    CL-41144   3.854  40.423  13.349
79856CL-    CL-41145  28.011  30.547  10.955
79857CL-    CL-41146  40.810  35.108  12.060
79858CL-    CL-41147  36.965  13.626   0.761
79859CL-    CL-41148  13.693  25.963   4.819
79860CL-    CL-41149  34.881  26.992  13.903
79861CL-    CL-41150  34.590   4.753  12.092
79862CL-    CL-41151  39.317  39.391   1.259
79863CL-    CL-41152   3.804  24.546   5.222
79864CL-    CL-41153  41.025  39.849   3.167
79865CL-    CL-41154   1.393   0.819   1.803
79866CL-    CL-41155  37.551   5.801  12.883
79867CL-    CL-41156  35.454   6.389   1.812
79868CL-    CL-41157  27.579  39.365   4.660
79869CL-    CL-41158  14.834   6.222  11.126
79870CL-    CL-41159  31.515   8.798   4.815
79871CL-    CL-41160  13.293  20.588  10.029
79872CL-    CL-41161  19.590  41.399   3.691
79873CL-    CL-41162   8.846  26.016  13.910
79874CL-    CL-41163  24.562  23.089   1.412
79875CL-    CL-41164  21.671  29.604  11.499
79876CL-    CL-41165  39.502  21.725   5.316
79877CL-    CL-41166  42.497  34.561  13.983
79878CL-    CL-41167  36.887  29.508  11.120
79879CL-    CL-41168  32.516   9.168  12.826
79880CL-    CL-41169  39.437  38.076  14.381
79881CL-    CL-41170  34.953  15.138  11.424
79882CL-    CL-41171   9.323  41.974  14.822
79883CL-    CL-41172  42.931  13.765  13.356
79884CL-    CL-41173  27.684  11.707  10.630
79885CL-    CL-41174  12.307  30.046   1.240
79886CL-    CL-41175  34.106  38.835   0.804
79887CL-    CL-41176  40.525   5.322   2.354
79888CL-    CL-41177   5.373  35.365  11.535
79889CL-    CL-41178  32.041   6.312  13.391
79890CL-    CL-41179  27.583  40.976   0.321
79891CL-    CL-41180  33.039  44.961   3.722
79892CL-    CL-41181   7.683  33.107  11.464
79893CL-    CL-41182  12.850  21.560   4.248
79894CL-    CL-41183  32.959   2.363   1.386
79895CL-    CL-41184  14.662  37.959  10.973
79896CL-    CL-41185  22.711  21.647   0.855
79897CL-    CL-41186   4.868   9.155  11.880
79898CL-    CL-41187  19.608  33.029  12.573
79899CL-    CL-41188  12.347  39.495   0.806
79900CL-    CL-41189  28.988  15.218  10.492
79901CL-    CL-41190   2.306  15.271  12.885
79902CL-    CL-41191  41.530   6.731   2.890
79903CL-    CL-41192  19.629  41.436  11.068
79904CL-    CL-41193  12.156   1.326   0.834
79905CL-    CL-41194  10.310  30.996  11.396
79906CL-    CL-41195  26.996  16.216  12.422
79907CL-    CL-41196   5.711  34.966  14.503
79908CL-    CL-41197  26.099  31.422  11.578
79909CL-    CL-41198  10.855  15.602   9.956
79910CL-    CL-41199  44.959  40.835   2.789
79911CL-    CL-41200  21.253  38.863   2.294
79912CL-    CL-41201  18.240  39.923  13.051
79913CL-    CL-41202  30.058   7.237   4.125
79914CL-    CL-41203  12.833  36.064   0.850
79915CL-    CL-41204  13.793  18.732   1.211
79916CL-    CL-41205  38.907   6.776  10.633
79917CL-    CL-41206  33.444   7.817  11.042
79918CL-    CL-41207  34.402  21.683   0.447
79919CL-    CL-41208  10.294  19.673  12.490
79920CL-    CL-41209   2.857  27.488   0.871
79921CL-    CL-41210  22.711  31.137  10.502
79922CL-    CL-41211  22.237  23.608  10.090
79923CL-    CL-41212   4.338  40.891   0.410
79924CL-    CL-41213   1.256   5.759  11.575
79925CL-    CL-41214  37.561   7.212   3.277
79926CL-    CL-41215  17.223  39.517   1.875
79927CL-    CL-41216  15.820  27.980  13.986
79928CL-    CL-41217  14.110   8.730  14.385
79929CL-    CL-41218  40.334  42.453  11.434
79930CL-    CL-41219  36.053   9.789  13.831
79931CL-    CL-41220   1.901   8.892   3.180
79932CL-    CL-41221  44.418  33.013  11.553
79933CL-    CL-41222  19.143   9.201  13.988
79934CL-    CL-41223  41.006  10.703  10.406
79935CL-    CL-41224  42.368  24.492   4.832
79936CL-    CL-41225   4.806  10.346   3.744
79937CL-    CL-41226  13.179  14.238   4.741
79938CL-    CL-41227  22.153  24.095   4.663
79939CL-    CL-41228  43.410   8.312  14.900
79940CL-    CL-41229   8.838  11.812   2.378
79941CL-    CL-41230  28.044  16.769  13.053
79942CL-    CL-41231   3.444  15.161   4.714
79943CL-    CL-41232   5.874  10.725   1.868
79944CL-    CL-41233  29.143  36.083  14.319
79945CL-    CL-41234  36.988  43.818   2.275
79946CL-    CL-41235   7.690  36.889   3.318
79947CL-    CL-41236  22.524   4.913  14.405
79948CL-    CL-41237  43.839   5.406   4.812
79949CL-    CL-41238  30.419  22.580   5.280
79950CL-    CL-41239   8.659  31.084   0.904
79951CL-    CL-41240  35.065  21.642   4.285
79952CL-    CL-41241  17.673  25.486  12.471
79953CL-    CL-41242  34.405  25.537  10.456
79954CL-    CL-41243  33.557  42.390   2.359
79955CL-    CL-41244  20.534  37.843   2.231
79956CL-    CL-41245   3.238  37.377  14.866
79957CL-    CL-41246  34.091  39.396   3.784
79958CL-    CL-41247  43.771  43.848  13.338
79959CL-    CL-41248  29.450  29.528  10.434
79960CL-    CL-41249   8.347  29.161   2.891
79961CL-    CL-41250  36.863  25.587  14.345
79962CL-    CL-41251   1.481  29.026   4.823
79963CL-    CL-41252  37.455  12.649  11.446
79964CL-    CL-41253  25.623  18.069   1.446
79965CL-    CL-41254   3.751  35.046   3.730
79966CL-    CL-41255  21.721  34.421  13.316
79967CL-    CL-41256  15.768   7.332  14.028
79968CL-    CL-41257  42.429  44.269  12.954
79969CL-    CL-41258  19.073  27.158  14.512
79970CL-    CL-41259  22.650  21.718  11.062
79971CL-    CL-41260  42.959  38.359   0.896
79972CL-    CL-41261  13.727  23.655  14.820
79973CL-    CL-41262  28.149  21.236  11.115
79974CL-    CL-41263  15.649   5.911   2.246
79975CL-    CL-41264  36.916  37.399  12.919
79976CL-    CL-41265  33.535  36.534  13.357
79977CL-    CL-41266  14.738  21.715  13.337
79978CL-    CL-41267   8.238  37.468   4.178
79979CL-    CL-41268  37.465  32.521  13.928
79980CL-    CL-41269  11.202  42.813   2.315
79981CL-    CL-41270   3.432  12.160   0.919
79982CL-    CL-41271   0.277  44.008  11.062
79983CL-    CL-41272  42.299  31.506   4.175
79984CL-    CL-41273  41.391   8.790  12.966
79985CL-    CL-41274  39.443  25.080  10.990
79986CL-    CL-41275  24.041  12.326  10.635
79987CL-    CL-41276   9.880  31.077   4.327
79988CL-    CL-41277  19.159   8.687  14.028
79989CL-    CL-41278  34.016  35.538  11.010
79990CL-    CL-41279  33.082  15.132   4.814
79991CL-    CL-41280  16.718  29.442  10.584
79992CL-    CL-41281  28.578  12.614  13.331
79993CL-    CL-41282  40.373   7.741  12.537
79994CL-    CL-41283  39.547  25.981  14.295
79995CL-    CL-41284  42.307   2.373   0.775
79996CL-    CL-41285   8.778  37.904  13.056
79997CL-    CL-41286   5.198  11.706  12.912
79998CL-    CL-41287  26.589   8.301  12.503
79999CL-    CL-41288  18.664   4.293  13.057
80000CL-    CL-41289  18.775  20.077  14.878
80001CL-    CL-41290  37.062  21.593  12.469
80002CL-    CL-41291  32.065  35.096   4.644
80003CL-    CL-41292   0.340   3.234   4.211
80004CL-    CL-41293  12.187   5.748   3.341
80005CL-    CL-41294  28.008   6.400  12.879
80006CL-    CL-41295   5.253  32.103  11.034
80007CL-    CL-41296  10.781  25.204   3.680
80008CL-    CL-41297  41.338  20.769  12.013
80009CL-    CL-41298  26.553  37.948  10.492
80010CL-    CL-41299  23.626  40.407  11.887
80011CL-    CL-41300  31.508  31.050   1.835
80012CL-    CL-41301  33.514  31.974   1.274
80013CL-    CL-41302  25.645  17.789   0.875
80014CL-    CL-41303  43.274  32.477   4.123
80015CL-    CL-41304   0.483  43.817   3.735
80016CL-    CL-41305  38.037   5.431   0.317
80017CL-    CL-41306  34.553  33.892   4.177
80018CL-    CL-41307  28.612  12.655   0.449
80019CL-    CL-41308  43.804   7.340   9.578
80020CL-    CL-41309  14.229  18.777  14.294
80021CL-    CL-41310  34.984   8.887   4.634
80022CL-    CL-41311  15.201   1.910  12.436
80023CL-    CL-41312  14.777  24.181  13.332
80024CL-    CL-41313  29.007  15.688  12.369
80025CL-    CL-41314  18.113  28.034   2.181
80026CL-    CL-41315   6.726  20.125   1.854
80027CL-    CL-41316  39.412  40.530  10.541
80028CL-    CL-41317  29.114  17.690   4.166
80029CL-    CL-41318  38.895  38.499   3.830
80030CL-    CL-41319  30.016  13.223   4.137
80031CL-    CL-41320  41.375  41.861  10.505
80032CL-    CL-41321   5.211  15.726  14.857
80033CL-    CL-41322  19.551   5.414  11.381
80034CL-    CL-41323  32.505  38.500   0.266
80035CL-    CL-41324  16.706  29.572   3.644
80036CL-    CL-41325   2.918  39.428  12.872
80037CL-    CL-41326   5.845  14.316  14.368
80038CL-    CL-41327  29.104  30.632   4.736
80039CL-    CL-41328  33.475  17.142  12.409
80040CL-    CL-41329  30.926   1.243  10.991
80041CL-    CL-41330  22.121   5.335   4.306
80042CL-    CL-41331  28.130  16.186  12.461
80043CL-    CL-41332  23.576  20.748   1.272
80044CL-    CL-41333   5.265  38.877   9.969
80045CL-    CL-41334  29.498  22.559  10.610
80046CL-    CL-41335  32.406  17.630   2.720
80047CL-    CL-41336   6.793  36.068  14.794
80048CL-    CL-41337  44.843  25.552  12.929
80049CL-    CL-41338  37.842  16.595   1.398
80050CL-    CL-41339   6.205  18.192   4.316
80051CL-    CL-41340  12.719  41.479  13.405
80052CL-    CL-41341  37.901  24.201   1.445
80053CL-    CL-41342  41.967   0.413   4.340
80054CL-    CL-41343  43.841  44.932  13.449
80055CL-    CL-41344   5.432  26.654  12.561
80056CL-    CL-41345  27.620   9.730   3.762
80057CL-    CL-41346  14.730   9.225   0.429
80058CL-    CL-41347  24.183  21.577   2.899
80059CL-    CL-41348  33.085   8.733   5.151
80060CL-    CL-41349  37.032  31.555   3.842
80061CL-    CL-41350  13.679  43.427  14.371
80062CL-    CL-41351  41.471  37.920  11.564
80063CL-    CL-41352  16.717  15.304  13.360
80064CL-    CL-41353   4.885  19.244   3.863
80065CL-    CL-41354   3.433  30.553  14.863
80066CL-    CL-41355  19.119   1.373  13.926
80067CL-    CL-41356  20.085  28.597   3.367
80068CL-    CL-41357   6.878   6.256  11.381
80069CL-    CL-41358  38.991  20.267   4.704
80070CL-    CL-41359  24.495   8.704  13.493
80071CL-    CL-41360  16.086   2.820   1.226
80072CL-    CL-41361  35.505   4.339   2.799
80073CL-    CL-41362  32.565  31.056   3.293
80074CL-    CL-41363  31.095  42.475   3.835
80075CL-    CL-41364  25.545  34.569   0.378
80076CL-    CL-41365  20.070  13.154   3.316
80077CL-    CL-41366  43.379  26.005   0.322
80078CL-    CL-41367  30.934  15.229   4.652
80079CL-    CL-41368  10.680  14.658  12.502
80080CL-    CL-41369  41.335  36.391  11.882
80081CL-    CL-41370  31.520   4.245   4.680
80082CL-    CL-41371  37.482  24.138  13.312
80083CL-    CL-41372  29.492  38.947  10.986
80084CL-    CL-41373  34.482  16.583   4.762
80085CL-    CL-41374   8.248  39.915  10.548
80086CL-    CL-41375   2.750  13.717  12.985
80087CL-    CL-41376  32.033   3.725   3.251
80088CL-    CL-41377  22.717  18.567  13.014
80089CL-    CL-41378   1.869  28.093  12.935
80090CL-    CL-41379   4.403  21.251  13.491
80091CL-    CL-41380   7.712  13.313   2.718
80092CL-    CL-41381  29.923   1.876  10.982
80093CL-    CL-41382  28.547   2.958  14.366
80094CL-    CL-41383  38.385  13.792   0.346
80095CL-    CL-41384  11.792  21.128  10.410
80096CL-    CL-41385  30.137  28.649  13.462
80097CL-    CL-41386  32.503   4.843  10.953
80098CL-    CL-41387  18.569  25.086   3.667
80099CL-    CL-41388  41.000  32.967  12.970
80100CL-    CL-41389  33.034  38.992  11.982
80101CL-    CL-41390  28.047  13.306  13.426
80102CL-    CL-41391  30.494  38.923   3.735
80103CL-    CL-41392  10.159   1.852   9.963
80104CL-    CL-41393  17.689  10.795   3.860
80105CL-    CL-41394   0.319  27.664  14.990
80106CL-    CL-41395  24.521  44.259   4.294
80107CL-    CL-41396  33.525   4.857   2.852
80108CL-    CL-41397   8.220  41.338   2.725
80109CL-    CL-41398  39.437  37.877  13.995
80110CL-    CL-41399   3.735  39.908   0.960
80111CL-    CL-41400  44.830  23.054   0.845
80112CL-    CL-41401  17.217  28.498   4.691
80113CL-    CL-41402  44.828  11.789  14.011
80114CL-    CL-41403  14.293   6.228  14.975
80115CL-    CL-41404  28.490  21.208  12.461
80116CL-    CL-41405   4.789  16.175   2.743
80117CL-    CL-41406  38.901  36.992  13.316
80118CL-    CL-41407  38.059  39.833  11.455
80119CL-    CL-41408  15.695  40.805   9.966
80120CL-    CL-41409  19.634  15.325  12.894
80121CL-    CL-41410  26.016  43.984   3.796
80122CL-    CL-41411  17.188  19.280   2.240
80123CL-    CL-41412  19.702   5.869   0.386
80124CL-    CL-41413  17.581  26.094   1.850
80125CL-    CL-41414  18.673   8.353  14.858
80126CL-    CL-41415  29.668  18.607  14.013
80127CL-    CL-41416   4.339  37.996  14.792
80128CL-    CL-41417  34.039   6.920  10.447
80129CL-    CL-41418  21.753  20.225   2.831
  45.00000  45.00000  15.00000   0.00000   0.00000   0.00000   0.00000   0.00000   0.00000

